FOO
135168
    1MOL0     O    1   6.320   4.637   6.365  0.1902 -0.5511 -0.3564
    1MOL0     C    2   6.389   4.724   6.313  0.3704 -0.3075 -0.0589
    1MOL0     O    3   6.355   4.816   6.220  0.2305  0.4680  0.3004
    1MOL0     C    4   6.227   4.816   6.171 -0.3278  0.4756 -0.0244
    1MOL0     C    5   6.192   4.713   6.083  0.2562  0.6837  0.3382
    1MOL0     C    6   6.062   4.715   6.021  0.1611 -0.3384 -0.3947
    1MOL0     C    7   5.967   4.814   6.047  0.4976 -0.3550  0.2753
    1MOL0     O    8   5.831   4.807   6.005  0.3077  0.2204 -0.4678
    1MOL0     C    9   5.766   4.933   5.969 -0.2277 -0.0545 -0.2314
    1MOL0     C   10   5.650   4.899   5.872 -0.9188  0.4090 -0.3920
    1MOL0     C   11   5.534   4.834   5.945  0.6499  0.7120 -0.6485
    1MOL0     C   12   5.454   4.776   5.829  0.1896 -0.7475  0.0521
    1MOL0     C   13   5.329   4.709   5.875  0.8224 -0.4960  0.0301
    1MOL0     C   14   5.279   4.596   5.782  0.2885 -0.3540 -0.0899
    1MOL0     C   15   5.262   4.630   5.632  0.3952 -0.6564  0.5833
    1MOL0     C   16   5.165   4.749   5.600  0.1973  0.4512  0.2956
    1MOL0     N   17   5.033   4.738   5.665  0.1180 -0.2438 -0.8803
    1MOL0     C   18   4.954   4.624   5.668  0.3887  0.1340 -0.1145
    1MOL0     C   19   4.846   4.674   5.731  0.0849  0.0853 -0.2999
    1MOL0     C   20   4.714   4.612   5.761 -0.7251 -0.3404  0.0682
    1MOL0     C   21   4.597   4.688   5.697  0.0331 -0.2146  0.1616
    1MOL0     C   22   4.472   4.638   5.774 -0.0489  0.2787  0.2016
    1MOL0     C   23   4.356   4.679   5.684 -0.6678  0.3297  1.0276
    1MOL0     O   24   4.349   4.827   5.674  0.0308  0.2563 -0.3479
    1MOL0     C   25   4.260   4.876   5.576  0.3124  0.5896 -1.9468
    1MOL0     C   26   4.174   4.798   5.502  1.1422  0.8356  0.3998
    1MOL0     C   27   4.092   4.855   5.403 -0.3020  0.2757 -0.3493
    1MOL0     C   28   4.104   4.989   5.378 -0.6240  0.3847  0.4985
    1MOL0     C   29   4.017   5.045   5.270  0.4054  0.0928  0.3072
    1MOL0     O   30   3.956   4.957   5.183  0.3363  0.6069 -0.0308
    1MOL0     C   31   3.884   4.998   5.074 -0.1147  0.4051 -1.0093
    1MOL0     C   32   3.755   4.940   5.049 -0.6324  0.3206  0.4939
    1MOL0     C   33   3.681   4.988   4.939 -0.3942  0.1493 -0.9379
    1MOL0     C   34   3.731   5.080   4.839 -0.3055 -0.2755  0.3814
    1MOL0     O   35   3.669   5.113   4.716 -0.3280  0.1503 -0.0201
    1MOL0     C   36   3.530   5.082   4.696 -0.0090 -0.4518 -0.0719
    1MOL0     C   37   3.487   5.138   4.560  0.7058 -0.2653  1.2085
    1MOL0     C   38   3.342   5.113   4.517  0.7486 -0.0695 -0.0470
    1MOL0     C   39   3.305   5.174   4.376  0.5114  0.0443 -0.3523
    1MOL0     C   40   3.157   5.172   4.356  0.6366  0.1647 -0.3142
    1MOL0     C   41   3.105   5.220   4.220  0.3227  0.0636 -0.1202
    1MOL0     C   42   2.954   5.244   4.228 -0.4863  0.2827 -0.2543
    1MOL0     C   43   2.903   5.291   4.086  0.2325  0.5826  0.7923
    1MOL0    Cl   44   2.720   5.319   4.117  0.1080  0.2360  0.0653
    1MOL0     C   45   3.857   5.127   4.871 -0.4586  1.2739 -0.0025
    1MOL0     C   46   3.934   5.094   4.993 -0.4382 -0.2374  0.1794
    1MOL0     O   47   4.014   5.166   5.261 -0.4066  0.6694 -0.0228
    1MOL0     C   48   4.176   5.069   5.467  0.0763 -0.6240  0.9020
    1MOL0     C   49   4.247   5.015   5.568  0.7567  0.8545 -0.3185
    1MOL0     N   50   4.867   4.802   5.780  0.8336  0.4285  1.0242
    1MOL0     N   51   4.972   4.845   5.725 -0.7683 -0.4789 -0.2854
    1MOL0     C   52   6.008   4.923   6.133 -0.2655  0.5351 -0.3595
    1MOL0     C   53   6.137   4.916   6.194 -0.4573  0.5848 -0.3730
    1MOL0     C   54   6.529   4.731   6.366  0.3672 -0.1552  0.1262
    1MOL0     C   55   6.629   4.803   6.298  0.0140 -0.0244  0.2532
    1MOL0     C   56   6.764   4.818   6.351 -0.3301 -0.5048 -0.4701
    1MOL0     C   57   6.799   4.761   6.469 -1.1186 -0.2913 -0.0151
    1MOL0     O   58   6.926   4.782   6.519 -0.5940  0.3112  0.0653
    1MOL0     C   59   7.029   4.860   6.455 -0.0711  0.6452  0.2157
    1MOL0     C   60   7.142   4.880   6.549 -0.4443  0.0594  0.5026
    1MOL0     C   61   7.266   4.952   6.486  1.1484 -1.3302  0.4985
    1MOL0     C   62   7.325   5.043   6.581  0.1437  0.5442  0.0256
    1MOL0     C   63   7.444   5.105   6.522 -0.2760 -0.9901  0.5568
    1MOL0     C   64   7.535   5.163   6.461 -0.3844 -0.2118  0.0674
    1MOL0     C   65   6.703   4.686   6.533 -0.1038  0.3713  0.4433
    1MOL0     C   66   6.566   4.683   6.494 -0.2486 -0.1182  0.3549
    1MOL0     H   67   6.263   4.631   6.077  0.4880  1.0058 -2.2695
    1MOL0     H   68   6.023   4.633   5.963 -0.6711  0.4915 -1.0415
    1MOL0     H   69   5.840   4.997   5.921 -0.6984  1.2550  0.7413
    1MOL0     H   70   5.723   4.969   6.063 -2.1568 -2.2610 -0.1758
    1MOL0     H   71   5.683   4.841   5.785 -1.6355  1.0020 -1.0769
    1MOL0     H   72   5.607   4.997   5.847  0.1548  0.8215 -0.6541
    1MOL0     H   73   5.469   4.897   6.005  0.4317  2.4300 -2.5726
    1MOL0     H   74   5.576   4.751   6.003  0.8012  1.1815 -0.0782
    1MOL0     H   75   5.431   4.853   5.755  0.4924  0.4235  1.1365
    1MOL0     H   76   5.522   4.704   5.782 -0.0988 -0.6502 -0.5183
    1MOL0     H   77   5.249   4.782   5.890 -2.1901 -3.7540  1.2632
    1MOL0     H   78   5.351   4.663   5.972 -1.4846 -0.1385  0.7933
    1MOL0     H   79   5.183   4.558   5.819  0.7721 -1.1600  0.3464
    1MOL0     H   80   5.351   4.516   5.798 -0.0194 -0.8618 -1.1567
    1MOL0     H   81   5.362   4.657   5.597  0.2194 -0.6690  0.0686
    1MOL0     H   82   5.230   4.546   5.569  0.1435  1.2726 -2.0491
    1MOL0     H   83   5.146   4.750   5.492 -0.0362  0.0913  0.3342
    1MOL0     H   84   5.215   4.843   5.625 -0.7317  1.4685 -1.4596
    1MOL0     H   85   4.977   4.527   5.624 -0.8650 -1.0707  1.7449
    1MOL0     H   86   4.706   4.606   5.870  0.6227 -1.9160  0.1294
    1MOL0     H   87   4.706   4.508   5.728 -0.0158 -0.4347  0.1654
    1MOL0     H   88   4.600   4.671   5.589 -0.4549  2.8309 -0.4278
    1MOL0     H   89   4.616   4.795   5.703 -2.4644  0.3334 -0.4216
    1MOL0     H   90   4.460   4.532   5.795 -0.1118  0.4802  1.2187
    1MOL0     H   91   4.465   4.695   5.867  2.8977  3.3983 -1.2287
    1MOL0     H   92   4.258   4.649   5.724 -0.7303  2.7608  2.9418
    1MOL0     H   93   4.378   4.636   5.586 -0.6407  0.0885  1.1412
    1MOL0     H   94   4.160   4.690   5.508  0.9521  0.8065 -0.4406
    1MOL0     H   95   4.020   4.798   5.346  0.0191  0.6565 -1.1580
    1MOL0     H   96   3.719   4.854   5.104  0.8643 -0.7395 -0.0927
    1MOL0     H   97   3.580   4.952   4.919 -0.3255 -0.8125  0.3133
    1MOL0     H   98   3.471   5.124   4.778  2.0763  1.9307  0.3301
    1MOL0     H   99   3.522   4.973   4.698 -0.6673 -0.4071  1.4998
    1MOL0     H  100   3.552   5.088   4.487  1.8074 -2.8105  3.7558
    1MOL0     H  101   3.512   5.245   4.562 -1.6596  0.3507  2.0410
    1MOL0     H  102   3.281   5.179   4.580 -0.6449 -0.4761 -0.9190
    1MOL0     H  103   3.306   5.010   4.528  0.3623  0.2460  1.9170
    1MOL0     H  104   3.332   5.280   4.379  1.1522 -0.1322  0.5150
    1MOL0     H  105   3.357   5.120   4.296 -3.0610  0.0153 -2.8469
    1MOL0     H  106   3.111   5.229   4.437 -5.5678 -2.7725 -1.2600
    1MOL0     H  107   3.112   5.073   4.358  0.4489  0.2643  1.1910
    1MOL0     H  108   3.128   5.153   4.137 -1.3188  0.3385 -0.8326
    1MOL0     H  109   3.156   5.315   4.201 -0.1092  0.1013 -1.1126
    1MOL0     H  110   2.900   5.155   4.260 -0.8241  0.5466 -0.0931
    1MOL0     H  111   2.924   5.327   4.292 -0.5501  0.6773 -0.7829
    1MOL0     H  112   2.919   5.218   4.006  3.9052  1.2985  0.7123
    1MOL0     H  113   2.961   5.372   4.043  2.6450 -2.6305 -2.6415
    1MOL0     H  114   3.910   5.184   4.795  2.0936 -2.1862 -1.0581
    1MOL0     H  115   4.028   5.149   4.998 -0.9865  0.7323  0.1940
    1MOL0     H  116   4.169   5.176   5.452  0.0382 -0.9340 -1.7759
    1MOL0     H  117   4.306   5.075   5.636  1.7111  4.1759 -3.7461
    1MOL0     H  118   5.946   5.007   6.164 -0.2369 -0.0533  1.3778
    1MOL0     H  119   6.173   5.006   6.242  3.0939 -0.2599 -1.1172
    1MOL0     H  120   6.596   4.850   6.207  1.3988  0.0675 -0.2250
    1MOL0     H  121   6.837   4.877   6.296  0.8350  0.0837  1.5844
    1MOL0     H  122   6.994   4.955   6.412  2.1880  0.4233 -2.4191
    1MOL0     H  123   7.060   4.816   6.360 -4.4959 -2.3149 -0.1716
    1MOL0     H  124   7.101   4.924   6.640 -0.2037  1.2136  0.0715
    1MOL0     H  125   7.173   4.779   6.579  0.6191  0.6231  1.3971
    1MOL0     H  126   7.231   5.012   6.401 -0.9385 -0.6107  1.7923
    1MOL0     H  127   7.336   4.875   6.453  1.9811 -1.1991  1.9157
    1MOL0     H  128   7.264   5.131   6.603  0.2892  0.9889 -1.2729
    1MOL0     H  129   7.344   4.987   6.673 -1.6572 -0.5559 -0.2293
    1MOL0     H  130   7.612   5.208   6.401 -1.6177 -1.4320 -2.6005
    1MOL0     H  131   6.741   4.659   6.631  0.9837  0.7489  0.1398
    1MOL0     H  132   6.498   4.633   6.562 -2.4691  2.9649  0.6476
    2MOL0     O  133   8.081   8.770   9.737 -0.3441 -0.1462  0.6370
    2MOL0     C  134   8.101   8.674   9.658  0.0340 -0.0314 -0.2342
    2MOL0     O  135   8.000   8.601   9.592 -0.3988  0.0121 -0.7377
    2MOL0     C  136   7.865   8.631   9.629 -0.1451  0.3630 -0.1603
    2MOL0     C  137   7.809   8.664   9.752  0.2215 -0.5011  0.4229
    2MOL0     C  138   7.666   8.675   9.756 -0.4167  0.0925 -0.2830
    2MOL0     C  139   7.589   8.659   9.640  0.8795 -0.2557  0.2013
    2MOL0     O  140   7.449   8.673   9.637  0.3450  0.2351  0.1320
    2MOL0     C  141   7.391   8.786   9.691  0.0168 -0.8292 -0.6793
    2MOL0     C  142   7.234   8.794   9.665  0.1655  0.5010 -0.1324
    2MOL0     C  143   7.172   8.681   9.748 -1.0366 -0.1843  0.1293
    2MOL0     C  144   7.034   8.655   9.707  0.2987  1.1921  0.1842
    2MOL0     C  145   6.969   8.537   9.772  0.5756  0.6657  0.3987
    2MOL0     C  146   7.026   8.390   9.735 -0.2752 -1.0086  0.1251
    2MOL0     C  147   6.935   8.285   9.782  0.4097 -0.6960  0.4702
    2MOL0     C  148   6.827   8.266   9.675 -0.0517  0.6794 -0.4665
    2MOL0     N  149   6.767   8.132   9.696 -0.4030 -0.6528 -0.9722
    2MOL0     C  150   6.738   8.063   9.817 -0.3549  0.0863 -0.2916
    2MOL0     C  151   6.722   7.937   9.781  0.2212  0.2271 -0.1690
    2MOL0     C  152   6.701   7.817   9.866 -0.2977 -0.6556  0.1915
    2MOL0     C  153   6.551   7.769   9.886 -0.6241 -0.4639 -0.3122
    2MOL0     C  154   6.466   7.869   9.966 -0.0678  0.0331 -0.0908
    2MOL0     C  155   6.316   7.840   9.963  0.5599 -0.5092  0.5726
    2MOL0     O  156   6.280   7.717  10.037 -0.4451 -0.3169 -0.2503
    2MOL0     C  157   6.148   7.692  10.022  0.1451  0.3392  1.1769
    2MOL0     C  158   6.112   7.581   9.943 -0.5499  0.4920 -0.4516
    2MOL0     C  159   5.983   7.540   9.935  0.4837  0.2731  0.4092
    2MOL0     C  160   5.881   7.612   9.994  0.1492 -0.2940 -0.2270
    2MOL0     C  161   5.749   7.575   9.979 -0.0925  0.2603  0.1578
    2MOL0     O  162   5.725   7.445   9.937  0.3147 -0.3218  0.2614
    2MOL0     C  163   5.598   7.412   9.888 -0.7643  0.4415  0.2856
    2MOL0     C  164   5.474   7.464   9.922  0.3206  0.3718  0.1474
    2MOL0     C  165   5.354   7.406   9.879  0.3750 -1.1241  0.0802
    2MOL0     C  166   5.355   7.296   9.778  0.7828 -0.1031 -0.2144
    2MOL0     O  167   5.236   7.246   9.720 -0.8451  0.1148 -0.4969
    2MOL0     C  168   5.119   7.286   9.783 -0.0445  0.5745  0.3629
    2MOL0     C  169   5.001   7.206   9.737 -0.2157  1.3779  0.3516
    2MOL0     C  170   4.893   7.209   9.838  0.6930  0.4620 -0.5884
    2MOL0     C  171   4.770   7.126   9.797  0.1315  0.2761 -0.2956
    2MOL0     C  172   4.641   7.155   9.876  0.6219  0.0040 -0.4218
    2MOL0     C  173   4.642   7.086  10.017 -0.4223 -1.0170  0.2781
    2MOL0     C  174   4.513   7.108  10.094 -0.8522  0.3000  0.1483
    2MOL0     C  175   4.391   7.066  10.008 -0.0009 -0.9981 -0.2608
    2MOL0    Cl  176   4.404   6.898   9.938  0.1123 -0.2756 -0.7244
    2MOL0     C  177   5.480   7.236   9.750  0.2123  0.0435 -0.6832
    2MOL0     C  178   5.596   7.298   9.811  0.2843 -0.4149  0.0866
    2MOL0     O  179   5.665   7.666   9.986 -0.4172 -0.5289  0.3435
    2MOL0     C  180   5.916   7.721  10.075  1.1013 -0.3322  0.9616
    2MOL0     C  181   6.049   7.758  10.095 -0.1312 -0.9824 -0.4422
    2MOL0     N  182   6.737   7.928   9.643 -0.6840  0.1087 -0.2588
    2MOL0     N  183   6.772   8.041   9.604  0.1624  0.1145 -0.3519
    2MOL0     C  184   7.650   8.636   9.519  0.1397  0.7988  0.7942
    2MOL0     C  185   7.786   8.619   9.516  1.0036 -0.7607  0.4609
    2MOL0     C  186   8.240   8.631   9.643  0.0934 -0.0709 -0.0404
    2MOL0     C  187   8.346   8.694   9.717 -0.7257  0.4686  0.3966
    2MOL0     C  188   8.480   8.642   9.716  0.0087 -0.7743  0.1928
    2MOL0     C  189   8.512   8.532   9.642  0.2857 -0.1082 -0.0039
    2MOL0     O  190   8.641   8.469   9.639  0.3199  0.2357 -0.0348
    2MOL0     C  191   8.734   8.532   9.740  0.2426  0.2560  0.5473
    2MOL0     C  192   8.865   8.453   9.751 -0.0130 -1.0136  0.5031
    2MOL0     C  193   8.981   8.529   9.802  0.2422 -0.1128  0.6211
    2MOL0     C  194   9.127   8.480   9.779  0.4445 -0.2564 -0.3865
    2MOL0     C  195   9.235   8.547   9.857  0.4315 -0.4763 -0.0055
    2MOL0     C  196   9.327   8.602   9.910  0.2022 -0.3663  0.2556
    2MOL0     C  197   8.406   8.469   9.567 -0.5766 -0.3947 -1.4132
    2MOL0     C  198   8.278   8.520   9.564  0.1988  0.3668 -0.0651
    2MOL0     H  199   7.872   8.669   9.840  1.2820 -1.6528 -0.2478
    2MOL0     H  200   7.610   8.704   9.844  1.3994  0.8440  0.6760
    2MOL0     H  201   7.435   8.879   9.655  1.2010 -1.0300  0.2121
    2MOL0     H  202   7.392   8.784   9.800 -1.9468  2.5404 -0.4736
    2MOL0     H  203   7.209   8.783   9.559  2.3983  2.4988 -0.9318
    2MOL0     H  204   7.201   8.891   9.703  1.0448  1.4602 -1.7464
    2MOL0     H  205   7.171   8.721   9.849 -2.7227 -2.5840  1.1710
    2MOL0     H  206   7.228   8.588   9.756  2.2688  1.6765  0.2312
    2MOL0     H  207   6.979   8.749   9.719  1.2367  1.9541 -1.2077
    2MOL0     H  208   7.039   8.615   9.605  2.5855 -2.3608  1.5047
    2MOL0     H  209   6.864   8.542   9.741  0.5384  1.2558  0.6140
    2MOL0     H  210   6.973   8.545   9.881  2.4803  3.1944  0.2319
    2MOL0     H  211   7.111   8.382   9.803  1.1293  3.8679 -0.6906
    2MOL0     H  212   7.061   8.389   9.631 -0.8875  1.0499 -0.1528
    2MOL0     H  213   6.993   8.193   9.786  1.1451 -0.2334  0.5453
    2MOL0     H  214   6.879   8.298   9.875 -0.7075 -2.3473  0.0859
    2MOL0     H  215   6.853   8.278   9.569 -0.5553  0.0297 -0.6732
    2MOL0     H  216   6.749   8.343   9.679 -0.8548 -0.0537 -1.5004
    2MOL0     H  217   6.754   8.098   9.918 -1.9648  1.1574 -0.3663
    2MOL0     H  218   6.736   7.845   9.966  2.5826 -3.5106  0.1673
    2MOL0     H  219   6.770   7.740   9.828  1.2024  1.6156 -1.9737
    2MOL0     H  220   6.543   7.680   9.949 -0.1201 -1.0331 -1.0379
    2MOL0     H  221   6.495   7.755   9.793  0.8207 -1.6801 -1.0453
    2MOL0     H  222   6.485   7.851  10.072 -1.0570  0.0472  0.1061
    2MOL0     H  223   6.482   7.975   9.942  1.7988  0.3325  2.1225
    2MOL0     H  224   6.287   7.822   9.860 -3.2773 -2.7919  1.8298
    2MOL0     H  225   6.272   7.931  10.004 -0.9648 -0.9186 -0.0762
    2MOL0     H  226   6.184   7.516   9.894  0.9466  0.9495  1.0311
    2MOL0     H  227   5.962   7.449   9.881 -0.9001  0.1289  1.1478
    2MOL0     H  228   5.456   7.554   9.978  1.7451  0.7985 -0.0614
    2MOL0     H  229   5.260   7.454   9.904  1.6488  0.8427  1.3403
    2MOL0     H  230   5.103   7.393   9.769  0.6398  0.4641 -1.4407
    2MOL0     H  231   5.123   7.272   9.892 -2.3556  1.8276  0.6790
    2MOL0     H  232   5.042   7.106   9.719  0.5757  1.9253 -1.0934
    2MOL0     H  233   4.950   7.233   9.644 -1.5447 -3.1059 -0.4279
    2MOL0     H  234   4.858   7.307   9.872  4.5940  0.3323  5.3878
    2MOL0     H  235   4.931   7.162   9.930 -0.0405 -0.0386 -0.5318
    2MOL0     H  236   4.739   7.156   9.697  1.4912 -0.4619 -0.9713
    2MOL0     H  237   4.793   7.019   9.794  2.2723  0.7051 -0.8791
    2MOL0     H  238   4.557   7.121   9.815 -0.5348  3.5738 -1.0399
    2MOL0     H  239   4.624   7.262   9.884 -0.5192 -0.2800  1.8256
    2MOL0     H  240   4.727   7.135  10.065  1.4561 -1.5696 -2.3006
    2MOL0     H  241   4.671   6.981  10.010 -0.2949 -0.8992 -1.4053
    2MOL0     H  242   4.519   7.042  10.181  1.8192 -1.3962 -1.1999
    2MOL0     H  243   4.500   7.211  10.128 -0.8301 -0.4215  2.5597
    2MOL0     H  244   4.373   7.137   9.927  1.2743 -2.0862 -1.5457
    2MOL0     H  245   4.300   7.071  10.068  1.4855 -2.9481  2.3401
    2MOL0     H  246   5.496   7.156   9.679 -1.6146 -1.2998  0.3651
    2MOL0     H  247   5.696   7.256   9.799  0.6292 -0.2233  2.0329
    2MOL0     H  248   5.839   7.779  10.124  1.4055  0.3994  0.5924
    2MOL0     H  249   6.069   7.854  10.142  1.5871 -0.8333 -1.3759
    2MOL0     H  250   7.584   8.623   9.433  1.3942  0.1509 -0.1077
    2MOL0     H  251   7.834   8.604   9.419  0.5446 -1.6416  0.3608
    2MOL0     H  252   8.330   8.787   9.771 -0.5920  1.3866 -1.1042
    2MOL0     H  253   8.552   8.681   9.788  0.0629 -0.2416 -0.1442
    2MOL0     H  254   8.679   8.547   9.833  3.0329 -1.7360  2.6921
    2MOL0     H  255   8.765   8.633   9.710  1.2641 -0.5710 -1.4044
    2MOL0     H  256   8.857   8.370   9.821  1.0820  0.1349  2.0599
    2MOL0     H  257   8.890   8.413   9.652  3.0675 -0.8256  1.0934
    2MOL0     H  258   8.969   8.523   9.910 -0.4127 -0.0190  0.5567
    2MOL0     H  259   8.989   8.629   9.758  1.4346  0.7739  2.7166
    2MOL0     H  260   9.142   8.378   9.816 -0.9893 -0.6700 -0.9086
    2MOL0     H  261   9.158   8.477   9.674  0.5443 -0.2509 -0.3575
    2MOL0     H  262   9.419   8.643   9.945  0.6000 -0.9180 -0.1296
    2MOL0     H  263   8.430   8.374   9.521  3.1871  0.2080 -0.9769
    2MOL0     H  264   8.203   8.482   9.495  0.4532  2.1343 -1.3956
    3MOL0     O  265  10.921   4.741   5.547  0.9302  0.1867  0.4787
    3MOL0     C  266  10.817   4.678   5.550  0.7270 -1.0301 -0.8093
    3MOL0     O  267  10.766   4.604   5.452  0.1087  0.8288 -0.0697
    3MOL0     C  268  10.815   4.631   5.324 -0.6297 -0.1528  0.8343
    3MOL0     C  269  10.826   4.762   5.268 -0.4157 -0.6579 -0.5614
    3MOL0     C  270  10.875   4.780   5.136  0.4475 -0.1767 -0.2025
    3MOL0     C  271  10.891   4.672   5.055  0.8797 -0.3432 -0.2266
    3MOL0     O  272  10.912   4.685   4.925 -0.2554 -0.1621 -0.4136
    3MOL0     C  273  11.017   4.606   4.863  0.0115  0.2657 -0.0808
    3MOL0     C  274  11.098   4.713   4.784  0.1598  0.4238  0.0341
    3MOL0     C  275  11.221   4.666   4.707  0.3899  0.6338  0.1116
    3MOL0     C  276  11.320   4.581   4.789  0.2346  0.2869 -0.9359
    3MOL0     C  277  11.438   4.535   4.706 -0.5561 -0.4750  0.3400
    3MOL0     C  278  11.544   4.632   4.645 -0.9174  0.4726 -0.0568
    3MOL0     C  279  11.676   4.560   4.613  0.4104  0.2928  0.1863
    3MOL0     C  280  11.667   4.422   4.538  0.3617  0.3988 -0.7622
    3MOL0     N  281  11.799   4.370   4.532 -0.2079 -0.3461 -0.0932
    3MOL0     C  282  11.906   4.437   4.482 -0.2846 -0.8321  0.8840
    3MOL0     C  283  12.013   4.351   4.491 -0.3812  0.0019  0.3653
    3MOL0     C  284  12.152   4.391   4.439 -0.0613  0.2789  0.2641
    3MOL0     C  285  12.262   4.397   4.540 -0.0572  0.1232  0.4471
    3MOL0     C  286  12.254   4.524   4.628 -0.4153 -0.7467  0.0915
    3MOL0     C  287  12.132   4.553   4.722 -0.1249  0.0555  0.0790
    3MOL0     O  288  12.155   4.680   4.790  0.2619  0.2992 -0.8951
    3MOL0     C  289  12.071   4.708   4.897  1.1926 -0.1104 -0.3758
    3MOL0     C  290  11.956   4.635   4.941 -0.4621  1.0168  0.2407
    3MOL0     C  291  11.882   4.684   5.048  0.8237 -1.0663  0.2511
    3MOL0     C  292  11.917   4.800   5.115 -0.0774 -0.7201 -0.0575
    3MOL0     C  293  11.831   4.858   5.221  0.6280  0.9217 -0.0910
    3MOL0     O  294  11.717   4.803   5.259  0.8455 -0.5018 -0.3020
    3MOL0     C  295  11.664   4.822   5.383 -0.4901 -0.3498  0.1497
    3MOL0     C  296  11.632   4.942   5.437 -0.0260 -0.4936 -0.6018
    3MOL0     C  297  11.547   4.937   5.548  0.3563 -0.1033  0.4621
    3MOL0     C  298  11.506   4.824   5.613 -0.0060  0.5757 -0.5747
    3MOL0     O  299  11.426   4.849   5.724  0.3947 -0.2748  0.6298
    3MOL0     C  300  11.346   4.739   5.772  0.2096  0.1740 -0.9151
    3MOL0     C  301  11.303   4.778   5.917 -0.2059 -0.0472  0.3890
    3MOL0     C  302  11.202   4.892   5.923  0.7940 -0.8868 -0.0540
    3MOL0     C  303  11.155   4.931   6.062 -0.5071 -1.0011  0.7782
    3MOL0     C  304  11.028   5.032   6.062  0.1335 -0.1607  0.5836
    3MOL0     C  305  10.976   5.026   6.205 -0.9734 -0.4036 -0.1255
    3MOL0     C  306  10.854   5.119   6.225 -0.1444  0.7425  0.1322
    3MOL0     C  307  10.823   5.131   6.378 -0.2782  0.2986  1.1922
    3MOL0    Cl  308  10.805   4.958   6.451 -0.5103  0.3595 -0.1944
    3MOL0     C  309  11.541   4.698   5.552  0.8638 -0.7227  0.1742
    3MOL0     C  310  11.618   4.701   5.434  0.9158  0.0075 -1.4284
    3MOL0     O  311  11.883   4.955   5.275 -0.3545  0.1663  0.5643
    3MOL0     C  312  12.035   4.864   5.082  0.6813  0.2396  0.1038
    3MOL0     C  313  12.111   4.821   4.972  0.2803 -0.6130 -0.1503
    3MOL0     N  314  11.972   4.229   4.547 -0.0258 -0.4009  0.6886
    3MOL0     N  315  11.845   4.249   4.575 -0.6265 -0.8022 -0.2977
    3MOL0     C  316  10.878   4.546   5.108  0.4931  0.9054  0.9675
    3MOL0     C  317  10.841   4.521   5.243 -0.7647  0.9475  0.7406
    3MOL0     C  318  10.763   4.675   5.692 -0.1407 -0.3923  0.3317
    3MOL0     C  319  10.630   4.636   5.719  0.0175  0.6299  0.6391
    3MOL0     C  320  10.573   4.644   5.846 -0.0811 -0.5117  0.2057
    3MOL0     C  321  10.647   4.693   5.950 -0.2713  0.8214 -1.0203
    3MOL0     O  322  10.581   4.697   6.068 -0.5763  0.4225  0.0626
    3MOL0     C  323  10.620   4.783   6.178 -0.5125 -0.2804  0.1289
    3MOL0     C  324  10.507   4.795   6.276  0.1093  0.0981  0.2542
    3MOL0     C  325  10.405   4.904   6.240 -1.2182 -0.4039 -0.7725
    3MOL0     C  326  10.297   4.910   6.350  0.3912 -0.1779 -0.1051
    3MOL0     C  327  10.198   4.809   6.315  0.6757 -0.2505  0.3950
    3MOL0     C  328  10.108   4.731   6.284 -0.2693  1.3735  0.6886
    3MOL0     C  329  10.778   4.747   5.930  0.2473 -0.1726  0.7130
    3MOL0     C  330  10.833   4.738   5.802 -0.6508  0.2221 -0.4154
    3MOL0     H  331  10.801   4.849   5.327 -2.1722 -1.7903  0.4539
    3MOL0     H  332  10.882   4.882   5.100 -0.1748  0.7312  2.0367
    3MOL0     H  333  10.971   4.537   4.792 -2.4798 -1.5780  3.0651
    3MOL0     H  334  11.081   4.552   4.934  0.7779 -0.4866 -1.2938
    3MOL0     H  335  11.121   4.789   4.859  0.1183  1.4642 -0.9867
    3MOL0     H  336  11.024   4.763   4.721 -0.8771 -0.2842  0.6529
    3MOL0     H  337  11.255   4.765   4.674  1.7860  0.2171  0.2301
    3MOL0     H  338  11.203   4.610   4.615 -2.1820  1.2120  0.1944
    3MOL0     H  339  11.352   4.627   4.884 -1.1135 -1.0497  0.2167
    3MOL0     H  340  11.266   4.498   4.836  1.3530 -1.5202 -2.7156
    3MOL0     H  341  11.396   4.466   4.632 -0.2143  0.0164 -0.3174
    3MOL0     H  342  11.493   4.474   4.779 -0.9427 -0.3225  0.7653
    3MOL0     H  343  11.563   4.714   4.715  0.2275  0.3329 -0.1872
    3MOL0     H  344  11.495   4.667   4.553 -3.3168  0.4658  1.1205
    3MOL0     H  345  11.747   4.628   4.565  0.3974 -0.1346 -0.4496
    3MOL0     H  346  11.734   4.541   4.704  0.0923 -3.9463 -0.3078
    3MOL0     H  347  11.628   4.426   4.436 -0.5156 -0.4727 -0.4757
    3MOL0     H  348  11.595   4.360   4.591 -0.4900  3.3286  1.7803
    3MOL0     H  349  11.913   4.538   4.444 -0.9212 -1.0166  0.2630
    3MOL0     H  350  12.150   4.490   4.392  3.6735  0.3419 -0.0415
    3MOL0     H  351  12.192   4.321   4.365 -0.6765  0.7609 -0.5404
    3MOL0     H  352  12.364   4.393   4.501 -0.1541 -0.0445  0.2103
    3MOL0     H  353  12.249   4.317   4.613 -2.9134 -0.2232 -0.3197
    3MOL0     H  354  12.342   4.518   4.693  0.6327  1.0661 -1.0833
    3MOL0     H  355  12.273   4.612   4.567  0.7238 -0.6759  0.5170
    3MOL0     H  356  12.124   4.472   4.795 -3.5136  0.0960 -0.1028
    3MOL0     H  357  12.039   4.562   4.666 -0.9993  0.2229  1.5104
    3MOL0     H  358  11.932   4.539   4.896 -0.7353  1.1844  0.0215
    3MOL0     H  359  11.797   4.625   5.081  0.6619 -0.7464  0.4075
    3MOL0     H  360  11.650   5.036   5.386  0.8134  1.0143  2.2437
    3MOL0     H  361  11.513   5.034   5.584 -0.7154  0.5482 -2.1159
    3MOL0     H  362  11.399   4.643   5.780 -0.4129 -0.0894  0.3369
    3MOL0     H  363  11.262   4.733   5.703  0.9364 -1.7084 -1.7228
    3MOL0     H  364  11.394   4.806   5.970  0.0812  2.2844 -1.1618
    3MOL0     H  365  11.256   4.686   5.953 -0.0896 -0.2165  0.1164
    3MOL0     H  366  11.110   4.863   5.871 -1.6088 -0.2891  3.5554
    3MOL0     H  367  11.236   4.975   5.860 -1.3979 -2.2074 -3.2675
    3MOL0     H  368  11.140   4.830   6.101 -0.9512 -1.4723 -0.5329
    3MOL0     H  369  11.231   4.986   6.119 -1.1674  1.9623 -0.9900
    3MOL0     H  370  10.948   4.994   5.998  0.4538  0.7392 -0.3790
    3MOL0     H  371  11.058   5.132   6.031 -0.3056  0.2118  1.3451
    3MOL0     H  372  11.055   5.044   6.278 -0.5382 -2.7104  0.0269
    3MOL0     H  373  10.948   4.923   6.229 -1.0471  0.1371  2.3525
    3MOL0     H  374  10.886   5.217   6.188  3.4652 -0.5813 -0.6450
    3MOL0     H  375  10.770   5.074   6.171 -1.1194  1.8260  0.7064
    3MOL0     H  376  10.729   5.183   6.399 -0.1062  0.6473  1.0979
    3MOL0     H  377  10.905   5.186   6.423  0.3879  0.9144 -0.6970
    3MOL0     H  378  11.486   4.610   5.585 -0.8086  0.0186 -0.5279
    3MOL0     H  379  11.634   4.605   5.386 -1.8665  0.1519 -2.8502
    3MOL0     H  380  12.069   4.957   5.126 -0.5348  0.9500 -0.4196
    3MOL0     H  381  12.199   4.879   4.945 -1.8383  2.3723 -1.1834
    3MOL0     H  382  10.891   4.462   5.040 -5.2139 -0.1580  0.7053
    3MOL0     H  383  10.833   4.419   5.278  1.8949 -1.0490 -3.5565
    3MOL0     H  384  10.566   4.608   5.636  0.5917  1.0110  0.0542
    3MOL0     H  385  10.466   4.625   5.853 -0.6039  1.5582 -0.9432
    3MOL0     H  386  10.636   4.886   6.143 -2.9227  1.2564  3.0324
    3MOL0     H  387  10.714   4.753   6.224 -1.0252 -0.0712  1.3338
    3MOL0     H  388  10.458   4.697   6.277  0.7568 -0.2555 -0.9453
    3MOL0     H  389  10.536   4.812   6.380 -0.1648 -0.2591  0.3896
    3MOL0     H  390  10.360   4.879   6.143 -0.4651  1.5745 -1.6875
    3MOL0     H  391  10.467   4.993   6.224  0.7529 -1.8890 -1.7805
    3MOL0     H  392  10.331   4.902   6.453 -2.1357  0.4309  0.8507
    3MOL0     H  393  10.246   5.006   6.343 -0.4307 -0.5631  0.4372
    3MOL0     H  394  10.035   4.653   6.272  1.3597 -0.0154 -0.7444
    3MOL0     H  395  10.829   4.796   6.013 -0.4601  2.7366 -0.4390
    3MOL0     H  396  10.937   4.765   5.793 -0.2926 -0.2865  1.7189
    4MOL0     O  397   3.777   5.679   3.592  0.4100 -0.4396 -0.5738
    4MOL0     C  398   3.688   5.640   3.676  0.3638 -0.2522  0.2016
    4MOL0     O  399   3.719   5.603   3.801  0.0454  0.4866 -0.5350
    4MOL0     C  400   3.853   5.590   3.836 -0.0943  0.0538  0.6354
    4MOL0     C  401   3.925   5.703   3.872  0.5862  0.2777  0.8757
    4MOL0     C  402   4.058   5.695   3.917  0.4262  0.2843 -0.8992
    4MOL0     C  403   4.118   5.565   3.929 -0.1546 -0.3039  0.1626
    4MOL0     O  404   4.241   5.551   3.978  0.1247  0.0480 -0.5450
    4MOL0     C  405   4.331   5.669   3.967 -0.0198  0.1251 -0.9538
    4MOL0     C  406   4.474   5.622   4.001 -0.1930  0.0429 -0.4356
    4MOL0     C  407   4.484   5.572   4.141  0.3243 -0.1874 -0.5745
    4MOL0     C  408   4.636   5.561   4.191  0.1718 -0.1146  0.4043
    4MOL0     C  409   4.657   5.489   4.323 -0.2522 -0.5508  0.0563
    4MOL0     C  410   4.808   5.501   4.365  0.4165  0.8385 -0.1380
    4MOL0     C  411   4.826   5.425   4.493  0.1362 -0.6668  0.2038
    4MOL0     C  412   4.965   5.465   4.557 -0.4845 -0.2899  0.5252
    4MOL0     N  413   5.087   5.389   4.522 -0.0399  0.1742  0.1131
    4MOL0     C  414   5.084   5.265   4.461  0.1575 -0.0978 -0.1440
    4MOL0     C  415   5.220   5.237   4.444 -0.5813 -0.9927 -0.3682
    4MOL0     C  416   5.277   5.115   4.384  0.4918  0.5908  0.2678
    4MOL0     C  417   5.299   5.132   4.234 -0.3355  0.4132  0.0183
    4MOL0     C  418   5.171   5.160   4.155 -0.1159 -0.2000 -0.6673
    4MOL0     C  419   5.076   5.054   4.165 -0.2126  0.6642 -0.1555
    4MOL0     O  420   4.948   5.118   4.164  0.8334  0.4466  0.3250
    4MOL0     C  421   4.875   5.141   4.054 -0.6186  0.0706  0.3564
    4MOL0     C  422   4.918   5.121   3.919  0.0384  0.4241 -0.5042
    4MOL0     C  423   4.827   5.149   3.815 -0.6695  0.9777  0.2111
    4MOL0     C  424   4.691   5.186   3.841 -0.2983  0.0393 -0.7758
    4MOL0     C  425   4.606   5.237   3.731 -0.4566 -0.6912 -0.4654
    4MOL0     O  426   4.464   5.234   3.734 -0.2015 -0.5367 -0.2518
    4MOL0     C  427   4.377   5.267   3.640 -0.3605 -0.6796 -0.0123
    4MOL0     C  428   4.400   5.339   3.514 -0.0005  0.0144 -1.1031
    4MOL0     C  429   4.287   5.386   3.449  0.3992 -0.3020  0.2062
    4MOL0     C  430   4.162   5.360   3.492  1.0610 -0.2418 -0.1755
    4MOL0     O  431   4.062   5.412   3.409 -0.8924 -0.2439  0.1440
    4MOL0     C  432   3.930   5.423   3.457  0.1347 -1.0138  0.2258
    4MOL0     C  433   3.827   5.308   3.454 -0.1814 -0.0235  0.2111
    4MOL0     C  434   3.695   5.355   3.514 -0.5332 -0.4585 -0.2001
    4MOL0     C  435   3.590   5.251   3.504 -0.0073  0.0263 -0.2070
    4MOL0     C  436   3.446   5.306   3.522  0.8120  0.6503  0.7312
    4MOL0     C  437   3.341   5.191   3.510 -0.0055  0.1242 -0.4982
    4MOL0     C  438   3.199   5.264   3.529 -0.6451  0.7209  0.5266
    4MOL0     C  439   3.107   5.195   3.434  0.5545  0.2765  0.9723
    4MOL0    Cl  440   3.068   5.042   3.508  0.1118 -0.3111  0.4980
    4MOL0     C  441   4.138   5.288   3.613 -0.1158  0.1286  0.5944
    4MOL0     C  442   4.243   5.248   3.692 -0.6363  0.2590  0.0687
    4MOL0     O  443   4.663   5.284   3.635  0.0165  0.4246 -0.5452
    4MOL0     C  444   4.649   5.208   3.975 -0.5410  0.0769 -0.0036
    4MOL0     C  445   4.746   5.192   4.077  0.3053 -0.9754  0.5060
    4MOL0     N  446   5.293   5.343   4.498 -1.5481  0.3863 -0.1988
    4MOL0     N  447   5.218   5.433   4.533  0.3741  0.4372 -0.3749
    4MOL0     C  448   4.039   5.448   3.898  0.3819  0.5156 -0.2568
    4MOL0     C  449   3.907   5.458   3.855  0.6571 -0.5263  0.9017
    4MOL0     C  450   3.551   5.677   3.634  0.0429  0.3257  0.7650
    4MOL0     C  451   3.440   5.611   3.691  0.3030  0.8941  0.6406
    4MOL0     C  452   3.309   5.650   3.672  0.4243 -0.1722  0.1494
    4MOL0     C  453   3.281   5.745   3.567 -0.1188 -0.3159  0.7544
    4MOL0     O  454   3.158   5.778   3.540 -0.2727 -0.1585 -0.0686
    4MOL0     C  455   3.098   5.877   3.628 -0.9696  1.2717  0.9425
    4MOL0     C  456   2.982   5.953   3.553 -0.6064  0.2313  0.4215
    4MOL0     C  457   2.885   5.867   3.476  0.7831 -0.3106  0.0754
    4MOL0     C  458   2.796   5.762   3.551  0.3885  0.1773 -0.3288
    4MOL0     C  459   2.872   5.646   3.584 -0.6646 -0.3392  0.2137
    4MOL0     C  460   2.943   5.555   3.617  0.0440  0.0001  0.7291
    4MOL0     C  461   3.388   5.802   3.496  0.2544 -0.2855 -0.4731
    4MOL0     C  462   3.521   5.777   3.533 -0.0808  0.6666 -0.4147
    4MOL0     H  463   3.868   5.795   3.873  1.5223  0.9122 -0.4516
    4MOL0     H  464   4.117   5.783   3.941  3.8329 -2.2579  0.9520
    4MOL0     H  465   4.305   5.738   4.048  2.4215 -0.7540  0.7064
    4MOL0     H  466   4.321   5.725   3.874 -3.4883  1.1086 -0.1361
    4MOL0     H  467   4.541   5.709   3.995 -2.4504  1.9305  0.3723
    4MOL0     H  468   4.506   5.544   3.931 -1.0052 -0.3606 -0.3713
    4MOL0     H  469   4.433   5.476   4.154  0.7569 -0.2575  0.8161
    4MOL0     H  470   4.422   5.640   4.200  1.2921  0.0193  0.2316
    4MOL0     H  471   4.691   5.505   4.114  0.1308  2.0940 -1.3459
    4MOL0     H  472   4.677   5.662   4.199  0.7023 -0.4655  2.9434
    4MOL0     H  473   4.622   5.387   4.305  0.7660 -1.0302  0.6688
    4MOL0     H  474   4.592   5.527   4.403  1.7166  1.3911  0.8448
    4MOL0     H  475   4.823   5.607   4.387 -2.0343  1.1090  0.5495
    4MOL0     H  476   4.872   5.468   4.283  0.6279  1.2086 -0.1239
    4MOL0     H  477   4.754   5.466   4.565  2.1183 -1.2454  2.6777
    4MOL0     H  478   4.799   5.320   4.478 -1.6662 -0.1971 -0.0877
    4MOL0     H  479   4.952   5.433   4.661 -0.1658  0.8348  0.9196
    4MOL0     H  480   4.981   5.571   4.536  0.6040 -0.0504  2.3932
    4MOL0     H  481   4.997   5.205   4.436 -3.0079  3.9392  0.0815
    4MOL0     H  482   5.218   5.028   4.413  1.5599  0.6320  2.8284
    4MOL0     H  483   5.375   5.089   4.424  1.3035 -0.6423 -2.3226
    4MOL0     H  484   5.348   5.043   4.193 -1.6905 -0.2787 -0.1587
    4MOL0     H  485   5.370   5.214   4.222  0.7800 -0.8048 -2.5774
    4MOL0     H  486   5.118   5.252   4.184 -1.0863 -0.7704 -0.5955
    4MOL0     H  487   5.193   5.189   4.052  1.5869 -2.8211 -1.1096
    4MOL0     H  488   5.088   4.985   4.249  1.2683  0.7340 -0.2843
    4MOL0     H  489   5.105   4.992   4.079  0.2005  1.2163 -0.4206
    4MOL0     H  490   5.019   5.093   3.891 -0.3029 -0.3165 -1.0214
    4MOL0     H  491   4.858   5.136   3.712 -1.6104  0.0460  0.0357
    4MOL0     H  492   4.491   5.364   3.460  0.6822  0.1257  0.0523
    4MOL0     H  493   4.293   5.440   3.355  1.0720 -0.0290  0.4010
    4MOL0     H  494   3.888   5.514   3.411  2.3774 -0.1472 -0.2309
    4MOL0     H  495   3.939   5.455   3.561  1.2898 -1.8117  0.3822
    4MOL0     H  496   3.871   5.226   3.511  0.0251  0.1085  0.2416
    4MOL0     H  497   3.816   5.264   3.354  1.7057  1.4191 -0.7063
    4MOL0     H  498   3.662   5.445   3.462 -1.7995 -0.9436 -0.2709
    4MOL0     H  499   3.707   5.383   3.619 -1.5641  0.8459 -0.4063
    4MOL0     H  500   3.598   5.218   3.399  3.5107  2.3493 -0.8573
    4MOL0     H  501   3.626   5.175   3.574  3.8974  1.1761 -0.7395
    4MOL0     H  502   3.430   5.388   3.451 -2.4503  0.5464  1.2066
    4MOL0     H  503   3.436   5.354   3.619 -0.8110  1.0094  0.4228
    4MOL0     H  504   3.351   5.107   3.579 -3.3188 -0.5972 -0.7200
    4MOL0     H  505   3.358   5.149   3.410  2.4922  1.6213 -0.7848
    4MOL0     H  506   3.157   5.232   3.624 -3.2595 -0.3421 -0.8880
    4MOL0     H  507   3.199   5.372   3.510 -0.8376  0.4105 -1.4695
    4MOL0     H  508   3.142   5.181   3.331 -1.1323  0.6965  0.3017
    4MOL0     H  509   3.015   5.253   3.421 -0.0553 -0.2535  2.6882
    4MOL0     H  510   4.034   5.273   3.640 -1.7250  1.3058 -3.9768
    4MOL0     H  511   4.228   5.208   3.792  2.9070  0.0788  0.6398
    4MOL0     H  512   4.545   5.233   3.996 -1.6723 -1.8164 -2.8544
    4MOL0     H  513   4.720   5.206   4.181 -1.9558  3.7424 -0.4592
    4MOL0     H  514   4.095   5.356   3.914 -0.5597 -0.3785 -1.8483
    4MOL0     H  515   3.847   5.371   3.829  0.2151 -0.0016  0.1319
    4MOL0     H  516   3.469   5.539   3.767  0.8337  1.3256  0.8517
    4MOL0     H  517   3.231   5.586   3.713 -0.5207  0.1908 -1.0234
    4MOL0     H  518   3.165   5.961   3.648  0.2907  0.5785 -0.2206
    4MOL0     H  519   3.066   5.837   3.724  0.2394 -1.3135  0.3530
    4MOL0     H  520   2.925   6.007   3.629  2.5796  1.1788  2.3778
    4MOL0     H  521   3.031   6.027   3.488 -2.9530  3.9497  2.5280
    4MOL0     H  522   2.944   5.815   3.400  2.3918  1.7245 -0.1735
    4MOL0     H  523   2.821   5.934   3.418  1.5750  1.2433  0.9432
    4MOL0     H  524   2.745   5.810   3.635  0.1513  0.0944 -0.4234
    4MOL0     H  525   2.716   5.729   3.484  0.2462  0.8330 -0.4972
    4MOL0     H  526   3.006   5.470   3.636 -1.1006 -0.4910  2.5365
    4MOL0     H  527   3.366   5.864   3.410 -0.6106  1.3311  0.8578
    4MOL0     H  528   3.597   5.837   3.482 -1.5036  0.9612 -2.2936
    5MOL0     O  529   6.104   0.594   9.913 -0.1784 -1.3616 -0.0603
    5MOL0     C  530   6.212   0.637   9.956  0.9112 -0.1101 -0.0544
    5MOL0     O  531   6.228   0.748  10.031 -0.4954 -0.2172 -0.0301
    5MOL0     C  532   6.123   0.827  10.067  0.4866 -0.4657 -0.7037
    5MOL0     C  533   6.128   0.959  10.022  0.5190 -0.3564  0.4453
    5MOL0     C  534   6.013   1.045  10.050  0.5895 -0.0065  0.0552
    5MOL0     C  535   5.908   0.998  10.131 -0.3094  0.3806 -0.3164
    5MOL0     O  536   5.800   1.078  10.167 -0.1479 -0.3298  0.6417
    5MOL0     C  537   5.849   1.201  10.223  0.0827  0.0516  0.1595
    5MOL0     C  538   5.760   1.237  10.347  0.0532 -0.5880 -0.6802
    5MOL0     C  539   5.620   1.292  10.316 -0.3543 -0.0233 -0.3383
    5MOL0     C  540   5.554   1.335  10.445 -0.3646 -0.7317  0.0581
    5MOL0     C  541   5.396   1.348  10.447  0.1609  0.5825  0.2701
    5MOL0     C  542   5.352   1.476  10.369 -0.0192  0.0158 -0.7056
    5MOL0     C  543   5.205   1.498  10.352 -0.0620 -0.2973  0.4732
    5MOL0     C  544   5.140   1.396  10.262 -0.3252  0.3585 -0.4682
    5MOL0     N  545   5.001   1.421  10.247  0.2515 -0.0309  0.9061
    5MOL0     C  546   4.921   1.336  10.162  0.1964 -0.2130 -0.4047
    5MOL0     C  547   4.792   1.374  10.189 -0.5619  0.0544 -0.3114
    5MOL0     C  548   4.670   1.341  10.108 -0.2260  0.1475  0.4430
    5MOL0     C  549   4.538   1.365  10.187 -0.8481  0.3499  0.9052
    5MOL0     C  550   4.410   1.327  10.095 -0.9088 -0.4477  0.1173
    5MOL0     C  551   4.276   1.347  10.164 -0.2354  0.1154 -0.5232
    5MOL0     O  552   4.184   1.287  10.073 -0.1329 -0.3506  0.3811
    5MOL0     C  553   4.053   1.303  10.096 -0.3201  0.0674 -0.3057
    5MOL0     C  554   3.966   1.340   9.990 -0.6549  0.5164 -0.2555
    5MOL0     C  555   3.827   1.330  10.011  0.0863  0.5236 -0.1791
    5MOL0     C  556   3.766   1.298  10.132 -0.3133  0.3678 -0.5513
    5MOL0     C  557   3.623   1.286  10.148  0.1839 -0.2834  0.9566
    5MOL0     O  558   3.551   1.350  10.052 -0.7016  0.4744  0.2521
    5MOL0     C  559   3.415   1.368  10.064 -0.1407  0.0316  0.7969
    5MOL0     C  560   3.366   1.495  10.099 -0.0229  0.5647 -1.0325
    5MOL0     C  561   3.229   1.519  10.118  0.3565 -0.2775  0.0268
    5MOL0     C  562   3.136   1.419  10.102  1.3504 -0.0897  0.6157
    5MOL0     O  563   3.003   1.439  10.112  0.0197 -0.3308 -0.2009
    5MOL0     C  564   2.942   1.460  10.241  0.1119 -0.5084  0.3257
    5MOL0     C  565   2.791   1.479  10.232  0.5187 -0.3571 -0.2696
    5MOL0     C  566   2.762   1.605  10.147 -0.7818 -0.4567  0.1214
    5MOL0     C  567   2.829   1.735  10.195  0.1162  0.4327 -0.7265
    5MOL0     C  568   2.783   1.858  10.114  0.1616 -0.8526  0.1419
    5MOL0     C  569   2.842   1.854   9.970 -0.0482  0.7667  0.7116
    5MOL0     C  570   3.001   1.869   9.964  0.4348  0.2636  0.5000
    5MOL0     C  571   3.061   1.997  10.024  0.4355 -1.2371  0.4638
    5MOL0    Cl  572   2.946   2.142  10.002 -0.0082  0.1964 -0.4393
    5MOL0     C  573   3.185   1.292  10.073  0.7603  0.1703  0.1386
    5MOL0     C  574   3.319   1.268  10.044  0.1875 -0.1430 -0.8986
    5MOL0     O  575   3.580   1.226  10.241 -0.0394 -0.0655  0.1162
    5MOL0     C  576   3.855   1.273  10.237 -0.9528 -0.3200 -0.4100
    5MOL0     C  577   3.992   1.274  10.220 -0.5142  0.5828  0.9086
    5MOL0     N  578   4.798   1.453  10.301  0.9274  0.3452 -1.0702
    5MOL0     N  579   4.922   1.482  10.329  1.1640 -0.3437 -0.2898
    5MOL0     C  580   5.906   0.862  10.171  0.0981 -0.2188 -0.2239
    5MOL0     C  581   6.012   0.776  10.146 -0.1805  0.1024 -0.2612
    5MOL0     C  582   6.334   0.558   9.919  0.1587  0.1900 -0.0890
    5MOL0     C  583   6.320   0.433   9.872 -0.0621  0.2746 -0.1674
    5MOL0     C  584   6.442   0.369   9.827 -0.1701 -0.2752  0.7151
    5MOL0     C  585   6.570   0.430   9.842 -0.0011 -0.0193 -0.2429
    5MOL0     O  586   6.681   0.356   9.809  0.2444  0.2007  0.3004
    5MOL0     C  587   6.810   0.400   9.835 -0.4643 -0.4538 -0.2768
    5MOL0     C  588   6.911   0.305   9.778  0.3223  0.2245  0.1586
    5MOL0     C  589   6.930   0.181   9.860 -0.2590  0.2273  0.2926
    5MOL0     C  590   7.008   0.200   9.995  0.2934 -0.5825  0.4939
    5MOL0     C  591   7.134   0.257   9.956  0.4804  0.2895  0.3845
    5MOL0     C  592   7.238   0.293   9.921 -0.4501 -0.5789  0.3214
    5MOL0     C  593   6.577   0.560   9.897  0.7353 -0.0133  0.0304
    5MOL0     C  594   6.455   0.621   9.925 -0.3435  0.5611 -0.1313
    5MOL0     H  595   6.217   0.993   9.970  0.3748  0.5271  0.7645
    5MOL0     H  596   6.014   1.145  10.009 -1.3625 -0.5325 -1.4200
    5MOL0     H  597   5.826   1.283  10.154  0.1917 -1.0808 -1.2542
    5MOL0     H  598   5.950   1.184  10.261  0.2503 -1.7166 -0.9888
    5MOL0     H  599   5.812   1.322  10.393 -1.7797  1.0123 -1.4243
    5MOL0     H  600   5.744   1.156  10.418 -2.9333 -1.0985 -1.7881
    5MOL0     H  601   5.561   1.207  10.281 -2.8656  2.1103 -1.6735
    5MOL0     H  602   5.616   1.376  10.246  0.5996 -1.2220 -1.9008
    5MOL0     H  603   5.582   1.257  10.517  3.3247  1.8447  1.7621
    5MOL0     H  604   5.601   1.429  10.474 -2.5957  0.3807  0.2677
    5MOL0     H  605   5.359   1.353  10.550 -0.2002 -0.7751  0.2296
    5MOL0     H  606   5.352   1.256  10.408  1.8935 -0.0121 -0.3349
    5MOL0     H  607   5.394   1.480  10.268  0.0314 -0.6461 -0.7154
    5MOL0     H  608   5.395   1.566  10.413 -1.5735  2.1501 -3.2749
    5MOL0     H  609   5.149   1.492  10.446 -0.7417 -0.0326  0.0828
    5MOL0     H  610   5.193   1.597  10.310  0.7983 -0.1211  0.6132
    5MOL0     H  611   5.149   1.296  10.305 -2.3641 -0.1491 -1.1295
    5MOL0     H  612   5.190   1.401  10.165 -0.1125 -2.7614 -0.6248
    5MOL0     H  613   4.963   1.271  10.087  1.7999  0.1752  0.1182
    5MOL0     H  614   4.677   1.242  10.062  1.8568  0.5784 -0.2717
    5MOL0     H  615   4.675   1.421  10.034 -0.1349  1.0448  1.3946
    5MOL0     H  616   4.520   1.468  10.219 -1.3971  0.8330 -0.8261
    5MOL0     H  617   4.536   1.299  10.274  0.5050  1.2435  1.6572
    5MOL0     H  618   4.419   1.391  10.006  0.7697 -0.0467  0.5386
    5MOL0     H  619   4.421   1.223  10.063 -0.7526 -1.0548  1.9980
    5MOL0     H  620   4.239   1.446  10.189 -1.9495 -1.0314  1.9235
    5MOL0     H  621   4.259   1.304  10.263  0.4978  0.2130 -0.3500
    5MOL0     H  622   4.012   1.368   9.895  1.5419 -5.3736 -1.3549
    5MOL0     H  623   3.777   1.351   9.917  3.7434 -0.4271 -2.5200
    5MOL0     H  624   3.435   1.577  10.118 -0.8157  0.2261  6.4265
    5MOL0     H  625   3.199   1.620  10.147 -0.1509 -0.8924  1.7767
    5MOL0     H  626   2.995   1.541  10.292  0.2501 -0.0629 -0.5050
    5MOL0     H  627   2.952   1.373  10.307 -1.5768 -1.9443 -1.1883
    5MOL0     H  628   2.752   1.498  10.332  3.3641  2.1585  0.5006
    5MOL0     H  629   2.752   1.388  10.184  0.9639  1.1368 -3.8207
    5MOL0     H  630   2.655   1.628  10.141 -0.2894  2.5154  1.2096
    5MOL0     H  631   2.790   1.591  10.042  0.6083  2.6577 -0.0353
    5MOL0     H  632   2.798   1.752  10.298 -0.9201  0.3001 -1.0034
    5MOL0     H  633   2.938   1.727  10.192 -0.0146 -2.8603 -0.4548
    5MOL0     H  634   2.811   1.950  10.167  0.6843 -2.6523  3.2779
    5MOL0     H  635   2.675   1.850  10.103  0.0941 -0.7874  0.7304
    5MOL0     H  636   2.788   1.922   9.904 -2.5460 -0.1741  1.6509
    5MOL0     H  637   2.817   1.755   9.929 -3.1897  1.8350 -0.1897
    5MOL0     H  638   3.048   1.781  10.010  1.1676 -0.1216 -0.9232
    5MOL0     H  639   3.025   1.863   9.858  0.7793  1.1904  0.5235
    5MOL0     H  640   3.156   2.018   9.974 -0.0484  0.0464  0.0536
    5MOL0     H  641   3.082   1.978  10.130  3.5157  1.5479  0.5021
    5MOL0     H  642   3.123   1.205  10.055 -1.0373  1.6386 -1.1069
    5MOL0     H  643   3.365   1.172  10.021  2.9623  1.3779 -2.0675
    5MOL0     H  644   3.823   1.249  10.337  1.6628 -3.1719 -0.0745
    5MOL0     H  645   4.051   1.246  10.307  1.6501 -0.5511 -0.8203
    5MOL0     H  646   5.828   0.808  10.225  0.6128 -1.6233 -0.8371
    5MOL0     H  647   6.022   0.680  10.195 -1.5358 -0.5241 -1.1494
    5MOL0     H  648   6.223   0.385   9.861  0.6583 -1.5010  0.8260
    5MOL0     H  649   6.431   0.272   9.780 -1.8608  1.1195 -2.0219
    5MOL0     H  650   6.829   0.408   9.943  2.2461  1.1879 -0.7622
    5MOL0     H  651   6.822   0.503   9.800  0.8128  0.7634  3.3100
    5MOL0     H  652   6.873   0.272   9.681  1.1163 -0.5624  0.0972
    5MOL0     H  653   7.009   0.352   9.760  0.7420 -0.0340  1.6761
    5MOL0     H  654   6.994   0.116   9.801  2.9293  4.5311 -1.5719
    5MOL0     H  655   6.834   0.135   9.885  1.3563 -2.4167  2.0534
    5MOL0     H  656   6.954   0.273  10.056  0.1528 -0.5799  0.3667
    5MOL0     H  657   7.020   0.114  10.061 -1.4763  0.1063  1.7999
    5MOL0     H  658   7.335   0.309   9.879 -0.7869 -1.4197 -0.8385
    5MOL0     H  659   6.674   0.606   9.915  0.8104 -0.4097  0.6683
    5MOL0     H  660   6.456   0.728   9.944 -1.3155  0.6238 -0.3768
    6MOL0     O  661   5.649   3.585   5.063  0.4508 -0.5194 -1.6831
    6MOL0     C  662   5.689   3.493   5.133 -0.3214  0.0176  0.5164
    6MOL0     O  663   5.637   3.365   5.133  0.5046 -0.7526  0.4602
    6MOL0     C  664   5.526   3.332   5.070 -0.1653  0.2831  0.7204
    6MOL0     C  665   5.501   3.195   5.061  0.0554  0.1939 -1.0798
    6MOL0     C  666   5.393   3.133   5.000 -0.2111  0.3885 -0.0319
    6MOL0     C  667   5.295   3.211   4.942 -0.4768 -1.1714 -0.4042
    6MOL0     O  668   5.195   3.169   4.859  0.1328 -0.5956  0.1406
    6MOL0     C  669   5.137   3.051   4.907  0.4128  0.0769 -0.7473
    6MOL0     C  670   5.010   3.039   4.823  0.2386  0.1720  0.1830
    6MOL0     C  671   5.036   2.965   4.696  0.0383  0.2226  0.4499
    6MOL0     C  672   4.905   2.988   4.607 -0.6215  0.5246 -0.0205
    6MOL0     C  673   4.890   2.872   4.505 -0.6964  0.4893 -0.6827
    6MOL0     C  674   4.775   2.911   4.412 -0.3696 -0.2019  0.5607
    6MOL0     C  675   4.704   2.787   4.359  0.0385 -0.7882  0.0662
    6MOL0     C  676   4.783   2.716   4.250  0.4325 -0.3914 -0.0435
    6MOL0     N  677   4.693   2.617   4.179 -0.1929 -0.4739  0.0279
    6MOL0     C  678   4.629   2.509   4.242  0.2050  0.1667  0.1204
    6MOL0     C  679   4.550   2.454   4.141  0.1186 -0.2223  0.0420
    6MOL0     C  680   4.462   2.333   4.169 -0.3665 -0.2581  0.4166
    6MOL0     C  681   4.333   2.364   4.242  1.1276  0.4636  0.5649
    6MOL0     C  682   4.225   2.428   4.148 -0.0032  0.1880 -0.2625
    6MOL0     C  683   4.090   2.455   4.210 -0.1143  0.1581 -0.0010
    6MOL0     O  684   4.100   2.542   4.324  0.0630 -0.8360 -0.2320
    6MOL0     C  685   3.989   2.564   4.392  0.0777  0.6210  0.3253
    6MOL0     C  686   3.883   2.627   4.333  0.1597 -0.3010 -0.2038
    6MOL0     C  687   3.766   2.661   4.402 -0.1706  0.7117 -0.6709
    6MOL0     C  688   3.759   2.606   4.533 -0.5437  0.0279 -0.6457
    6MOL0     C  689   3.641   2.637   4.620  0.1882 -0.4002 -1.2086
    6MOL0     O  690   3.549   2.725   4.567  0.1127 -0.7822  0.0842
    6MOL0     C  691   3.428   2.716   4.633 -0.1617  0.0494 -0.0873
    6MOL0     C  692   3.408   2.772   4.759  0.0679  0.1993  0.7159
    6MOL0     C  693   3.287   2.749   4.826  0.2466 -0.2199  0.2604
    6MOL0     C  694   3.191   2.663   4.775 -0.1336  0.5403  0.2543
    6MOL0     O  695   3.080   2.657   4.847 -0.2180 -1.2281 -0.3874
    6MOL0     C  696   2.991   2.558   4.807  0.5657  0.1266 -0.3283
    6MOL0     C  697   2.877   2.563   4.898  0.3493  0.3983  0.4852
    6MOL0     C  698   2.758   2.476   4.848 -0.0011  0.2590 -0.4118
    6MOL0     C  699   2.654   2.481   4.955  0.3719  0.2647  0.8487
    6MOL0     C  700   2.532   2.399   4.919  0.6799  0.2372 -0.2393
    6MOL0     C  701   2.416   2.445   5.012  0.2203  0.1229  0.2422
    6MOL0     C  702   2.280   2.390   4.968  0.7570  0.6405 -1.0824
    6MOL0     C  703   2.193   2.419   5.093  0.2048 -0.3787 -0.1037
    6MOL0    Cl  704   2.020   2.388   5.058  0.4470  0.5525  0.0512
    6MOL0     C  705   3.213   2.606   4.649  0.5166  0.1339 -0.6455
    6MOL0     C  706   3.336   2.623   4.583  0.4741 -0.2247  0.0040
    6MOL0     O  707   3.648   2.600   4.740  1.4223  0.6529 -0.5241
    6MOL0     C  708   3.866   2.537   4.594 -0.5809  0.8088 -0.4009
    6MOL0     C  709   3.982   2.525   4.529 -0.3354 -1.1315 -0.1733
    6MOL0     N  710   4.568   2.525   4.025  0.7361 -0.9645  0.0448
    6MOL0     N  711   4.648   2.623   4.050 -0.0972 -0.0051 -0.0204
    6MOL0     C  712   5.310   3.352   4.953 -0.0918 -0.1462  0.3111
    6MOL0     C  713   5.419   3.413   5.010 -0.2065 -0.2576 -0.6435
    6MOL0     C  714   5.797   3.520   5.234 -0.0704  0.0127 -0.3056
    6MOL0     C  715   5.873   3.637   5.226  0.0602 -0.0686 -0.8312
    6MOL0     C  716   5.970   3.678   5.324 -0.0514 -0.1352  0.6048
    6MOL0     C  717   5.991   3.586   5.433  0.3983 -0.1542  0.3493
    6MOL0     O  718   6.078   3.623   5.529  0.8289 -0.2254  0.3962
    6MOL0     C  719   6.131   3.531   5.628 -0.1845  0.7711 -0.1422
    6MOL0     C  720   6.209   3.608   5.739 -0.3004  0.0924 -0.2053
    6MOL0     C  721   6.271   3.528   5.864  0.6662 -0.0394 -0.4269
    6MOL0     C  722   6.395   3.444   5.829  0.3311  0.5675  0.1859
    6MOL0     C  723   6.442   3.364   5.944  0.6663 -0.3851  0.2122
    6MOL0     C  724   6.481   3.306   6.034 -0.0892  0.0952 -0.3048
    6MOL0     C  725   5.913   3.463   5.436 -0.3262  0.9298 -0.4826
    6MOL0     C  726   5.821   3.433   5.341 -0.1584  0.0820  0.4590
    6MOL0     H  727   5.574   3.125   5.100  1.0704 -0.5714 -4.0621
    6MOL0     H  728   5.392   3.024   5.001  0.0618  0.2205 -3.8752
    6MOL0     H  729   5.120   3.073   5.012  1.0324 -0.6340 -0.4915
    6MOL0     H  730   5.190   2.956   4.894 -0.4012 -0.4009 -0.6684
    6MOL0     H  731   4.973   3.135   4.785 -3.6669 -2.6003 -4.0353
    6MOL0     H  732   4.942   2.981   4.886  1.6911  0.2155  1.8753
    6MOL0     H  733   5.059   2.860   4.714 -2.6772 -0.9674 -2.0619
    6MOL0     H  734   5.128   2.995   4.645  0.4539 -1.3736  0.2224
    6MOL0     H  735   4.825   2.986   4.681  0.5210  0.4567  1.2586
    6MOL0     H  736   4.906   3.081   4.549 -2.0477 -1.2437 -3.1619
    6MOL0     H  737   4.866   2.784   4.566  0.7186 -0.5380 -1.5358
    6MOL0     H  738   4.985   2.847   4.457 -0.9198 -2.2507  0.1173
    6MOL0     H  739   4.809   2.972   4.327 -2.7923  0.4395 -0.0280
    6MOL0     H  740   4.703   2.978   4.461  0.2147  1.1365 -0.3475
    6MOL0     H  741   4.666   2.716   4.433 -2.2948  1.0607  0.7842
    6MOL0     H  742   4.610   2.821   4.313  0.9534  2.5788  0.4381
    6MOL0     H  743   4.864   2.655   4.290  0.6059  0.1144  0.3839
    6MOL0     H  744   4.832   2.786   4.182  0.6351 -1.7374 -1.3326
    6MOL0     H  745   4.635   2.475   4.345  1.2653  0.0054  0.0117
    6MOL0     H  746   4.523   2.265   4.231 -0.4759 -0.7349  0.0102
    6MOL0     H  747   4.434   2.275   4.081  0.1499  0.0277  0.0661
    6MOL0     H  748   4.346   2.423   4.333 -0.8536 -0.2707  1.3763
    6MOL0     H  749   4.280   2.271   4.264 -0.7598  1.5375  0.8052
    6MOL0     H  750   4.251   2.526   4.109 -0.0446 -0.6187 -2.4770
    6MOL0     H  751   4.216   2.357   4.066  0.2973 -1.4997  1.0972
    6MOL0     H  752   4.044   2.363   4.246 -0.3254  0.7178  1.2297
    6MOL0     H  753   4.026   2.495   4.131  1.9687  1.2423 -1.2353
    6MOL0     H  754   3.883   2.651   4.227  1.3191 -1.6177 -0.5272
    6MOL0     H  755   3.683   2.709   4.351 -1.5799 -0.8037  0.1221
    6MOL0     H  756   3.490   2.828   4.803  0.7193 -1.0117  1.0916
    6MOL0     H  757   3.273   2.796   4.922  0.9426  1.1593 -0.2867
    6MOL0     H  758   3.035   2.457   4.804 -0.3751 -0.4442  2.4323
    6MOL0     H  759   2.949   2.584   4.709  1.4763 -2.4269 -1.4899
    6MOL0     H  760   2.851   2.669   4.914 -0.8274 -0.0305  1.5520
    6MOL0     H  761   2.916   2.524   4.993 -2.4457  0.7908  1.8947
    6MOL0     H  762   2.795   2.375   4.829 -2.3862 -0.7348 -0.1421
    6MOL0     H  763   2.709   2.505   4.754 -1.2070 -2.0397 -0.5726
    6MOL0     H  764   2.690   2.445   5.053  1.5153 -1.7438 -0.2401
    6MOL0     H  765   2.621   2.584   4.967  0.9677  0.7891 -1.6088
    6MOL0     H  766   2.545   2.290   4.919  0.2176  0.1765 -0.9197
    6MOL0     H  767   2.507   2.421   4.815 -2.3600  0.1603  0.3999
    6MOL0     H  768   2.400   2.552   4.995  0.3643 -0.0184 -0.8258
    6MOL0     H  769   2.440   2.427   5.118  1.0932 -0.2506 -0.0105
    6MOL0     H  770   2.250   2.428   4.870  2.3223 -1.2164 -2.3544
    6MOL0     H  771   2.289   2.282   4.956 -1.4153 -0.7335  5.4334
    6MOL0     H  772   2.198   2.522   5.131  1.0435 -1.3886  2.8218
    6MOL0     H  773   2.227   2.356   5.176  1.2881 -0.4176 -0.5685
    6MOL0     H  774   3.141   2.534   4.611  1.1686 -2.3858  2.4502
    6MOL0     H  775   3.352   2.574   4.488 -1.5117 -0.2441 -0.3547
    6MOL0     H  776   3.870   2.492   4.693 -0.3098  2.8357  0.5553
    6MOL0     H  777   4.064   2.470   4.574  1.1619  1.0245 -0.1119
    6MOL0     H  778   5.241   3.415   4.898  1.0438  0.4127 -0.5254
    6MOL0     H  779   5.417   3.521   5.023 -1.6871 -0.4947  1.5023
    6MOL0     H  780   5.845   3.708   5.148 -1.6431  0.6845  0.3911
    6MOL0     H  781   6.036   3.763   5.312  1.1153 -1.3697 -4.0777
    6MOL0     H  782   6.178   3.450   5.572  2.9756  1.8502  0.7620
    6MOL0     H  783   6.039   3.492   5.673  1.2608 -2.4559  0.3437
    6MOL0     H  784   6.290   3.669   5.698 -0.3719  1.7202  1.8697
    6MOL0     H  785   6.136   3.680   5.777  1.1146  1.3815  0.2123
    6MOL0     H  786   6.197   3.457   5.903  1.4456 -1.3076 -1.1801
    6MOL0     H  787   6.284   3.592   5.952 -2.3727  2.7967 -1.8629
    6MOL0     H  788   6.379   3.370   5.749  2.8686 -1.2617  1.2629
    6MOL0     H  789   6.472   3.516   5.801 -0.6158  0.7217 -2.2740
    6MOL0     H  790   6.520   3.256   6.121 -0.2332 -0.5433 -0.6020
    6MOL0     H  791   5.934   3.383   5.506 -2.1171 -0.4314 -1.4148
    6MOL0     H  792   5.777   3.336   5.362  1.0037 -0.1457  1.9671
    7MOL0     O  793   6.402   2.356   9.288 -0.2070 -0.0325  0.1505
    7MOL0     C  794   6.454   2.451   9.223 -0.4887  0.8172  0.6951
    7MOL0     O  795   6.395   2.512   9.108  0.3300  0.6017 -0.1346
    7MOL0     C  796   6.277   2.466   9.055 -0.0519 -0.3176  0.0160
    7MOL0     C  797   6.272   2.459   8.911  0.9176  0.2281 -0.2425
    7MOL0     C  798   6.162   2.405   8.853 -0.1854 -0.0094 -0.1315
    7MOL0     C  799   6.042   2.374   8.923 -0.6067  0.1890  0.0795
    7MOL0     O  800   5.927   2.344   8.847 -0.4850  0.5753  0.6800
    7MOL0     C  801   5.810   2.301   8.920 -0.4757 -1.2101 -0.2465
    7MOL0     C  802   5.715   2.428   8.909 -0.1134 -0.9822  0.7161
    7MOL0     C  803   5.563   2.401   8.939  0.5640  1.0287 -0.6798
    7MOL0     C  804   5.542   2.306   9.064  1.0137 -0.1545  0.8278
    7MOL0     C  805   5.398   2.300   9.105 -0.3398 -0.5565  0.2998
    7MOL0     C  806   5.359   2.435   9.179  0.5838  0.7954  0.3116
    7MOL0     C  807   5.227   2.421   9.259  0.2575  1.0246  0.1054
    7MOL0     C  808   5.244   2.332   9.382 -0.0397  0.4745  0.2678
    7MOL0     N  809   5.116   2.273   9.412  0.6350 -0.4654 -0.7735
    7MOL0     C  810   5.012   2.345   9.461 -0.2183  0.7149  1.0452
    7MOL0     C  811   4.901   2.270   9.435 -0.6555 -0.3005  0.3893
    7MOL0     C  812   4.766   2.312   9.444 -0.2532 -0.1936  0.3712
    7MOL0     C  813   4.688   2.199   9.512 -0.1434  1.0345 -0.3043
    7MOL0     C  814   4.563   2.256   9.564  0.0485  0.2849 -0.6968
    7MOL0     C  815   4.458   2.287   9.460 -0.2119  0.7436  0.7827
    7MOL0     O  816   4.369   2.392   9.494  0.9853 -0.4559 -0.8609
    7MOL0     C  817   4.261   2.422   9.416 -0.7976  0.5215  1.4855
    7MOL0     C  818   4.160   2.506   9.461 -0.6475 -0.1249 -0.1578
    7MOL0     C  819   4.054   2.532   9.378  0.0105  0.6841 -0.9865
    7MOL0     C  820   4.029   2.464   9.257  0.4694 -0.2042  0.2376
    7MOL0     C  821   3.902   2.490   9.175 -1.1525  0.8874 -0.8866
    7MOL0     O  822   3.793   2.539   9.240 -0.3760 -0.1826  0.1220
    7MOL0     C  823   3.664   2.563   9.180  0.1702 -0.6818 -0.4037
    7MOL0     C  824   3.620   2.507   9.062  0.0855 -0.1116 -0.1138
    7MOL0     C  825   3.490   2.528   9.013 -0.0238  0.9968  0.3354
    7MOL0     C  826   3.401   2.605   9.083  0.0999  0.1405 -0.5139
    7MOL0     O  827   3.270   2.626   9.033  0.4410  0.3103 -0.3197
    7MOL0     C  828   3.187   2.712   9.119  0.8311  0.5299 -0.1317
    7MOL0     C  829   3.050   2.729   9.057  0.6120  0.0661  0.0499
    7MOL0     C  830   2.966   2.607   9.027 -0.3200  0.2898  0.2908
    7MOL0     C  831   2.848   2.646   8.944  0.3327 -0.1624  0.1867
    7MOL0     C  832   2.787   2.514   8.892 -0.0679  0.6066 -1.3223
    7MOL0     C  833   2.651   2.535   8.827  0.2165 -0.2682 -0.3759
    7MOL0     C  834   2.593   2.397   8.780 -0.5138  0.1756  0.1927
    7MOL0     C  835   2.493   2.418   8.665  0.9683  0.3261 -0.2010
    7MOL0    Cl  836   2.428   2.253   8.615 -0.1139 -0.2400 -0.1627
    7MOL0     C  837   3.441   2.649   9.215 -0.4281 -0.0549 -0.1695
    7MOL0     C  838   3.574   2.642   9.254 -0.4677 -0.2703 -0.8149
    7MOL0     O  839   3.895   2.441   9.061  0.3416  0.2503  0.4722
    7MOL0     C  840   4.141   2.388   9.204  0.5401 -0.4398  0.0644
    7MOL0     C  841   4.253   2.363   9.286 -0.1613  0.8982 -0.5424
    7MOL0     N  842   4.947   2.158   9.362  0.0976 -0.2788 -0.4289
    7MOL0     N  843   5.071   2.160   9.352  0.1547 -0.1652  0.4209
    7MOL0     C  844   6.055   2.383   9.062  0.6257  0.8689  0.2761
    7MOL0     C  845   6.161   2.431   9.129 -0.3316  0.2168 -0.0379
    7MOL0     C  846   6.596   2.487   9.248 -0.3626  0.8377  0.2734
    7MOL0     C  847   6.669   2.568   9.152  0.1066  0.1690 -0.3788
    7MOL0     C  848   6.800   2.600   9.187 -0.2370  0.3077  0.0268
    7MOL0     C  849   6.856   2.574   9.311  0.3180  0.1456 -0.2173
    7MOL0     O  850   6.986   2.626   9.318  0.4309  0.0065 -0.1380
    7MOL0     C  851   7.082   2.544   9.389 -0.7554 -0.0846 -0.5707
    7MOL0     C  852   7.145   2.449   9.288  0.1742 -0.3553 -0.3114
    7MOL0     C  853   7.269   2.506   9.216 -0.4394  0.4234  0.0130
    7MOL0     C  854   7.393   2.416   9.252 -0.5808 -0.0931 -0.4959
    7MOL0     C  855   7.510   2.454   9.166 -0.7982  0.8334  0.0364
    7MOL0     C  856   7.618   2.471   9.111  0.1057 -0.5638 -0.4088
    7MOL0     C  857   6.777   2.513   9.409 -0.6310  0.2323 -0.2643
    7MOL0     C  858   6.651   2.473   9.383  0.6214  0.6412  0.9415
    7MOL0     H  859   6.360   2.487   8.854 -0.0910  1.2825 -1.3324
    7MOL0     H  860   6.153   2.389   8.746 -0.4816 -3.4735  0.2948
    7MOL0     H  861   5.827   2.272   9.024  1.8932 -1.3361 -0.6113
    7MOL0     H  862   5.767   2.215   8.869 -1.0089 -2.9501  2.8804
    7MOL0     H  863   5.699   2.465   8.807 -3.1783 -2.2130  0.6186
    7MOL0     H  864   5.749   2.505   8.979 -0.7359 -2.4133  2.6660
    7MOL0     H  865   5.517   2.347   8.856 -2.4617  3.0066 -0.4616
    7MOL0     H  866   5.493   2.485   8.950 -2.4091 -1.4553  0.7401
    7MOL0     H  867   5.566   2.204   9.032 -2.2566 -0.6258 -0.4778
    7MOL0     H  868   5.611   2.340   9.143 -2.0705  1.0690  3.2397
    7MOL0     H  869   5.386   2.210   9.165  0.3788 -0.3466  0.7667
    7MOL0     H  870   5.330   2.279   9.022 -0.9742 -0.4551  0.7834
    7MOL0     H  871   5.338   2.518   9.111 -1.0302  0.1536 -0.0185
    7MOL0     H  872   5.433   2.473   9.251 -2.4705 -0.8409  4.7268
    7MOL0     H  873   5.192   2.519   9.293  1.1795  0.7698  1.9523
    7MOL0     H  874   5.151   2.370   9.200 -1.8036  2.7378  1.1428
    7MOL0     H  875   5.269   2.390   9.471 -0.2961  2.9311 -1.1652
    7MOL0     H  876   5.323   2.258   9.368  0.0476  0.5943  0.1247
    7MOL0     H  877   5.018   2.450   9.488  0.1548  0.3937  2.3092
    7MOL0     H  878   4.715   2.330   9.349 -3.5272  4.4424  2.6071
    7MOL0     H  879   4.760   2.409   9.495  1.6238  0.5132 -0.6698
    7MOL0     H  880   4.739   2.155   9.598  0.3878 -1.6904 -1.9076
    7MOL0     H  881   4.674   2.124   9.433  1.4994  1.2400 -0.8258
    7MOL0     H  882   4.516   2.184   9.632  0.5630 -1.9071 -2.5456
    7MOL0     H  883   4.584   2.352   9.613 -0.9493 -0.5101  1.4118
    7MOL0     H  884   4.405   2.195   9.432 -2.0775  2.0755 -0.3420
    7MOL0     H  885   4.501   2.311   9.362 -0.4481 -0.1489  0.4505
    7MOL0     H  886   4.174   2.548   9.560  1.3151 -0.9658 -0.0271
    7MOL0     H  887   3.973   2.601   9.400 -2.0297 -1.6971 -0.5884
    7MOL0     H  888   3.685   2.451   8.996  1.3436 -1.0767  1.8278
    7MOL0     H  889   3.460   2.500   8.913  1.1777  1.4706 -0.1855
    7MOL0     H  890   3.222   2.814   9.134 -0.1947  0.8321  0.2889
    7MOL0     H  891   3.164   2.650   9.207 -0.9290 -1.9317 -2.1813
    7MOL0     H  892   3.080   2.772   8.961 -1.7334 -0.2803 -0.9072
    7MOL0     H  893   2.987   2.804   9.106  0.0058 -0.2020 -0.3060
    7MOL0     H  894   2.946   2.566   9.126  1.2130  1.7070  1.2571
    7MOL0     H  895   3.032   2.543   8.968  1.8329  1.4455  1.3025
    7MOL0     H  896   2.781   2.707   9.004  1.7018  0.8621  0.7382
    7MOL0     H  897   2.886   2.703   8.859 -2.6045  1.2393 -0.2955
    7MOL0     H  898   2.786   2.451   8.981  3.9482  2.1077 -0.0197
    7MOL0     H  899   2.860   2.467   8.825 -0.8641 -0.8603 -1.2140
    7MOL0     H  900   2.667   2.605   8.745 -2.3895  1.6621  0.6197
    7MOL0     H  901   2.591   2.585   8.904  1.2346 -0.9923  0.9422
    7MOL0     H  902   2.672   2.326   8.755 -1.9880 -1.2752 -0.5223
    7MOL0     H  903   2.543   2.350   8.865 -3.5877 -1.8387 -2.5108
    7MOL0     H  904   2.541   2.473   8.583  0.1187  0.9518 -0.2856
    7MOL0     H  905   2.413   2.488   8.691  0.1157 -0.1674 -1.4081
    7MOL0     H  906   3.384   2.720   9.275 -2.2033 -0.4292 -1.3346
    7MOL0     H  907   3.614   2.702   9.335 -0.5003 -2.9999  1.3598
    7MOL0     H  908   4.149   2.342   9.106  1.4731  1.5354 -0.8594
    7MOL0     H  909   4.328   2.297   9.244  2.4304  1.1635  3.1405
    7MOL0     H  910   5.979   2.359   9.136  1.7635 -0.5755  1.0499
    7MOL0     H  911   6.162   2.436   9.237 -0.4160 -1.3816  0.0591
    7MOL0     H  912   6.622   2.601   9.060 -4.5028  2.4817  2.3879
    7MOL0     H  913   6.861   2.650   9.112  1.0791 -0.5835  0.4558
    7MOL0     H  914   7.036   2.490   9.472  0.2023 -0.0209  0.0113
    7MOL0     H  915   7.153   2.611   9.438 -0.6170 -1.3125  0.9842
    7MOL0     H  916   7.163   2.357   9.344 -2.2904  0.4508  2.0361
    7MOL0     H  917   7.068   2.416   9.218 -0.7755  1.7761 -0.3266
    7MOL0     H  918   7.279   2.607   9.254 -0.5592 -0.2881  2.0605
    7MOL0     H  919   7.269   2.499   9.106  0.3463  1.1705 -0.0448
    7MOL0     H  920   7.437   2.438   9.350  1.4191 -1.5537 -0.9929
    7MOL0     H  921   7.373   2.310   9.239  1.8158 -0.7995  0.8744
    7MOL0     H  922   7.718   2.473   9.074  0.6528 -0.9302  1.0024
    7MOL0     H  923   6.818   2.502   9.509  1.8639  1.0886 -1.1399
    7MOL0     H  924   6.594   2.436   9.468 -1.4353 -1.2766 -1.0908
    8MOL0     O  925   5.304   8.949   1.462 -0.1303  0.3699 -0.0868
    8MOL0     C  926   5.328   8.959   1.581  0.5749 -0.2450 -0.1466
    8MOL0     O  927   5.230   8.951   1.682  0.1040 -0.8096 -0.5812
    8MOL0     C  928   5.099   8.941   1.651  0.0258 -0.2228  1.5395
    8MOL0     C  929   5.029   8.819   1.671 -0.1106 -0.2668 -0.0040
    8MOL0     C  930   4.890   8.814   1.651  0.4511 -0.1979 -0.0400
    8MOL0     C  931   4.816   8.924   1.601  0.4475  0.3608  0.7137
    8MOL0     O  932   4.686   8.905   1.576 -0.0710  0.0177 -0.7092
    8MOL0     C  933   4.620   9.004   1.493 -0.4196  0.9421  0.1983
    8MOL0     C  934   4.468   8.981   1.503  0.9028 -0.2394 -0.3324
    8MOL0     C  935   4.395   9.081   1.408  0.7882 -0.1329 -0.7774
    8MOL0     C  936   4.240   9.055   1.422 -0.2539  0.1701 -0.0969
    8MOL0     C  937   4.143   9.136   1.324  0.3140  0.6317 -0.1930
    8MOL0     C  938   4.151   9.290   1.358  0.1725  0.1810 -0.2846
    8MOL0     C  939   4.008   9.343   1.346  0.4730 -0.2777 -0.5600
    8MOL0     C  940   3.988   9.493   1.387 -0.3192  0.4765 -0.1093
    8MOL0     N  941   3.847   9.532   1.391 -0.0062  0.8499 -0.1971
    8MOL0     C  942   3.755   9.485   1.482 -0.2941 -0.1497 -0.5506
    8MOL0     C  943   3.638   9.536   1.441 -0.4794  0.2213 -0.1220
    8MOL0     C  944   3.516   9.517   1.524  0.8212  0.6117 -0.3678
    8MOL0     C  945   3.384   9.514   1.450  0.0075  0.6109  0.7455
    8MOL0     C  946   3.264   9.531   1.537 -0.5927  0.3492  0.2427
    8MOL0     C  947   3.130   9.563   1.463 -0.1457 -0.0038 -0.0714
    8MOL0     O  948   3.035   9.584   1.562 -0.6966 -0.1639 -0.0607
    8MOL0     C  949   2.973   9.704   1.578 -0.3928 -0.5742  0.4698
    8MOL0     C  950   3.031   9.828   1.569  0.8093  0.0888  0.2186
    8MOL0     C  951   2.967   9.946   1.591  0.5395  0.1883  0.9093
    8MOL0     C  952   2.820   9.958   1.604  0.1520  0.1808 -1.0962
    8MOL0     C  953   2.749  10.086   1.620 -0.3137  0.1457  0.5986
    8MOL0     O  954   2.617  10.090   1.608  0.6439  0.6445 -0.4996
    8MOL0     C  955   2.542  10.211   1.610  0.7246  1.1498  0.5747
    8MOL0     C  956   2.589  10.341   1.576 -0.4682 -0.2884  0.1850
    8MOL0     C  957   2.502  10.451   1.607 -0.7630  0.5835  0.5447
    8MOL0     C  958   2.379  10.430   1.658  0.3327  0.9097  0.9134
    8MOL0     O  959   2.294  10.528   1.697  0.5770 -0.4430 -0.5403
    8MOL0     C  960   2.283  10.643   1.612 -0.7713  0.8541 -1.0412
    8MOL0     C  961   2.136  10.680   1.585  0.2919 -0.7886 -0.6719
    8MOL0     C  962   2.044  10.660   1.717  0.1503  0.6374  0.2489
    8MOL0     C  963   1.908  10.697   1.685  0.3379  0.1640 -0.0769
    8MOL0     C  964   1.820  10.696   1.817 -0.1860  0.3139  0.4430
    8MOL0     C  965   1.666  10.705   1.793 -0.2551 -1.5358  0.2342
    8MOL0     C  966   1.590  10.708   1.930 -0.2714 -0.4617 -0.0408
    8MOL0     C  967   1.436  10.739   1.920  0.4403 -0.3178 -0.7613
    8MOL0    Cl  968   1.373  10.770   2.085  0.0843  0.1673  0.0369
    8MOL0     C  969   2.337  10.301   1.689 -0.7613 -0.2849 -0.1127
    8MOL0     C  970   2.412  10.190   1.656 -0.4890 -0.0392  1.1661
    8MOL0     O  971   2.818  10.182   1.629 -0.4810  0.3443 -0.3029
    8MOL0     C  972   2.765   9.832   1.624  0.7192 -0.8298 -0.8984
    8MOL0     C  973   2.836   9.705   1.604  0.5357 -0.5624 -0.2654
    8MOL0     N  974   3.653   9.606   1.328 -0.5501  0.7180 -0.4342
    8MOL0     N  975   3.781   9.613   1.301  0.7687 -0.1799  0.4053
    8MOL0     C  976   4.888   9.042   1.587  0.4179 -0.0280  0.2977
    8MOL0     C  977   5.025   9.050   1.611 -0.5546  0.5860  0.2887
    8MOL0     C  978   5.471   8.974   1.619 -0.4334 -0.6315  0.1125
    8MOL0     C  979   5.575   8.924   1.540 -0.6408  0.3014 -0.0832
    8MOL0     C  980   5.707   8.913   1.600 -0.5276 -0.2587  0.7556
    8MOL0     C  981   5.732   8.975   1.723 -1.0149 -0.0303 -0.5291
    8MOL0     O  982   5.864   8.966   1.770  0.6974 -0.1383  0.6039
    8MOL0     C  983   5.897   9.001   1.907 -0.2128 -0.6718  1.0703
    8MOL0     C  984   6.045   8.956   1.946  0.6883 -0.4716  0.3307
    8MOL0     C  985   6.060   8.960   2.104 -0.3400  0.2079  0.3208
    8MOL0     C  986   6.210   8.954   2.154 -0.1886  0.0215  0.0031
    8MOL0     C  987   6.304   9.021   2.071 -1.0328 -0.1209  0.0061
    8MOL0     C  988   6.398   9.066   2.009  0.6144 -0.1003  0.0821
    8MOL0     C  989   5.626   9.034   1.804 -0.3923  0.6401 -0.0767
    8MOL0     C  990   5.500   9.030   1.746  0.4698 -0.2160 -0.3037
    8MOL0     H  991   5.079   8.730   1.706 -2.2058 -2.0402 -1.2733
    8MOL0     H  992   4.846   8.717   1.674  3.3111 -1.3594  1.0209
    8MOL0     H  993   4.644   8.982   1.388 -0.9926 -2.8311  0.7217
    8MOL0     H  994   4.637   9.109   1.518  0.6454  1.0695 -0.9275
    8MOL0     H  995   4.432   8.984   1.606 -0.1330 -2.2858 -0.5903
    8MOL0     H  996   4.447   8.885   1.455  0.0699  0.8873 -2.3624
    8MOL0     H  997   4.431   9.074   1.305  0.1219 -0.1038 -1.0176
    8MOL0     H  998   4.414   9.184   1.439  0.1490 -1.0653  3.1796
    8MOL0     H  999   4.227   8.948   1.404 -0.6467  0.1263  0.4208
    8MOL0     H 1000   4.206   9.077   1.524  1.5131 -1.8051  0.9805
    8MOL0     H 1001   4.044   9.098   1.353  1.0945  0.5897  2.7118
    8MOL0     H 1002   4.173   9.116   1.221 -1.3724  0.7734 -0.7372
    8MOL0     H 1003   4.215   9.339   1.284  2.1110 -3.3767 -1.2420
    8MOL0     H 1004   4.193   9.315   1.456 -0.1573 -0.3618 -0.0024
    8MOL0     H 1005   3.970   9.327   1.244 -0.1293 -3.4143  0.0646
    8MOL0     H 1006   3.954   9.283   1.419  2.4136 -1.0866  0.2625
    8MOL0     H 1007   4.032   9.555   1.308  0.1729 -2.5671 -2.4302
    8MOL0     H 1008   4.030   9.513   1.485 -0.7239  2.7288 -0.3479
    8MOL0     H 1009   3.770   9.423   1.569 -2.0078 -0.0061 -0.1177
    8MOL0     H 1010   3.515   9.592   1.603  0.1322  0.4142 -0.1816
    8MOL0     H 1011   3.525   9.421   1.576 -3.1947 -0.4137 -1.1832
    8MOL0     H 1012   3.388   9.414   1.405  3.4225 -0.2835  2.6994
    8MOL0     H 1013   3.385   9.592   1.373 -0.9288 -0.2831 -0.2118
    8MOL0     H 1014   3.249   9.451   1.611  0.2062  0.7625  0.8572
    8MOL0     H 1015   3.287   9.617   1.600  2.5007  0.8949 -1.4369
    8MOL0     H 1016   3.103   9.471   1.411  1.5129 -1.0183  0.7532
    8MOL0     H 1017   3.124   9.644   1.389 -4.4433 -0.6988 -0.7214
    8MOL0     H 1018   3.136   9.836   1.543  0.7172  1.6153  0.2163
    8MOL0     H 1019   3.024  10.036   1.572 -0.4269  0.4533 -0.9624
    8MOL0     H 1020   2.691  10.357   1.543  0.1357 -2.0313  1.0768
    8MOL0     H 1021   2.536  10.551   1.582  0.8064 -0.4103 -1.7102
    8MOL0     H 1022   2.329  10.637   1.513 -0.0164 -4.1661 -0.6352
    8MOL0     H 1023   2.332  10.717   1.676 -0.4862 -2.0122  2.3346
    8MOL0     H 1024   2.097  10.618   1.504  0.4664 -0.8251 -0.7285
    8MOL0     H 1025   2.127  10.785   1.554 -1.0080 -0.8000 -0.3867
    8MOL0     H 1026   2.086  10.713   1.803  0.2569  0.9384  0.0174
    8MOL0     H 1027   2.051  10.554   1.739  0.9310 -0.3370 -3.8137
    8MOL0     H 1028   1.901  10.795   1.637 -1.2326 -0.7313 -1.7952
    8MOL0     H 1029   1.873  10.623   1.613  1.8749  0.0681 -0.7586
    8MOL0     H 1030   1.858  10.775   1.884  1.8094 -1.4628  1.5377
    8MOL0     H 1031   1.848  10.611   1.880  2.2132 -0.6023 -1.6831
    8MOL0     H 1032   1.636  10.628   1.721  0.5191 -0.8540 -0.8466
    8MOL0     H 1033   1.636  10.799   1.746 -2.3389 -1.5236  1.4615
    8MOL0     H 1034   1.608  10.611   1.978  2.4021  0.1704  0.3848
    8MOL0     H 1035   1.649  10.770   1.998  1.0309 -1.8569  0.1679
    8MOL0     H 1036   1.400  10.640   1.890  1.0629 -1.0613  0.8229
    8MOL0     H 1037   1.410  10.821   1.853 -2.8011 -0.6342 -0.0711
    8MOL0     H 1038   2.239  10.294   1.736 -0.2680 -0.1696  0.9773
    8MOL0     H 1039   2.381  10.091   1.689  2.0302 -0.8249  1.4112
    8MOL0     H 1040   2.660   9.814   1.646  1.0175 -2.3222 -0.5767
    8MOL0     H 1041   2.780   9.613   1.614  0.5654 -0.5147  0.4095
    8MOL0     H 1042   4.839   9.131   1.549 -2.7158 -0.9514  1.7817
    8MOL0     H 1043   5.081   9.142   1.619  3.8602 -1.5871 -2.1840
    8MOL0     H 1044   5.559   8.881   1.442 -1.2945  2.3314 -0.9162
    8MOL0     H 1045   5.796   8.886   1.544  1.1360  1.5680  2.3737
    8MOL0     H 1046   5.823   8.945   1.964 -1.2855  1.2344  1.6450
    8MOL0     H 1047   5.883   9.109   1.916  1.6068 -0.2315 -0.6188
    8MOL0     H 1048   6.071   8.864   1.893  2.1883  0.4169 -0.5438
    8MOL0     H 1049   6.110   9.034   1.906 -0.2422 -0.5865 -1.4943
    8MOL0     H 1050   6.004   8.886   2.162 -0.0913 -0.1028  0.1627
    8MOL0     H 1051   6.017   9.054   2.141  1.0709  1.6466 -1.5177
    8MOL0     H 1052   6.216   8.988   2.258  1.6052  2.1287 -0.7206
    8MOL0     H 1053   6.245   8.851   2.154 -2.1450 -0.7091 -1.5958
    8MOL0     H 1054   6.470   9.128   1.959  1.9460 -0.1698  1.8185
    8MOL0     H 1055   5.643   9.067   1.906 -2.5159  1.5723  0.0439
    8MOL0     H 1056   5.423   9.064   1.815  2.2177  0.2467  1.5442
    9MOL0     O 1057   1.031   7.336   8.840 -0.1165 -0.4387  1.1303
    9MOL0     C 1058   1.053   7.220   8.836  0.3374 -0.4575 -0.3867
    9MOL0     O 1059   0.962   7.124   8.877  0.3528 -0.3109  0.3462
    9MOL0     C 1060   0.826   7.159   8.869  0.2022  0.9824 -0.5575
    9MOL0     C 1061   0.777   7.245   8.771  0.2496  0.0810  1.1541
    9MOL0     C 1062   0.646   7.276   8.762  0.0029  0.7412  0.4457
    9MOL0     C 1063   0.554   7.227   8.858 -0.5509  0.4234  0.4271
    9MOL0     O 1064   0.424   7.254   8.862  0.5870  0.7393 -0.2666
    9MOL0     C 1065   0.368   7.356   8.775  1.0542  0.4282 -0.2446
    9MOL0     C 1066   0.218   7.352   8.799 -0.0814 -0.6681 -0.2298
    9MOL0     C 1067   0.146   7.258   8.706 -0.7224  0.8963  0.3178
    9MOL0     C 1068   0.001   7.253   8.741 -0.1811 -0.1183 -0.0766
    9MOL0     C 1069  -0.077   7.166   8.648  0.4994  0.4355  0.2376
    9MOL0     C 1070  -0.218   7.136   8.706  0.4453  1.0547  0.8718
    9MOL0     C 1071  -0.323   7.067   8.614 -0.0949  0.8704 -0.3982
    9MOL0     C 1072  -0.373   7.154   8.505 -0.4458 -0.5499  0.5503
    9MOL0     N 1073  -0.468   7.095   8.407  0.5263  0.4687  0.2196
    9MOL0     C 1074  -0.549   7.174   8.335  0.6791  0.0008  0.2263
    9MOL0     C 1075  -0.603   7.081   8.249  0.2265  0.6488  0.2721
    9MOL0     C 1076  -0.705   7.114   8.139 -0.8733 -0.7536 -0.6253
    9MOL0     C 1077  -0.852   7.120   8.195 -0.3393  0.0186 -0.1784
    9MOL0     C 1078  -0.969   7.138   8.086 -0.0677  0.3408  0.2304
    9MOL0     C 1079  -1.111   7.122   8.137  0.1444  0.3890  0.9188
    9MOL0     O 1080  -1.189   7.141   8.020  0.3010 -0.4807  0.6469
    9MOL0     C 1081  -1.327   7.124   8.032 -0.1253 -0.2379  0.4507
    9MOL0     C 1082  -1.395   7.097   8.150 -0.0290  0.4861  0.3355
    9MOL0     C 1083  -1.537   7.076   8.152 -0.8107 -0.6337  0.5404
    9MOL0     C 1084  -1.610   7.088   8.033 -0.4968 -0.2289 -0.3500
    9MOL0     C 1085  -1.756   7.090   8.041 -0.0015 -0.8324  0.7447
    9MOL0     O 1086  -1.827   7.144   7.938 -0.8860 -0.3376 -0.2527
    9MOL0     C 1087  -1.963   7.159   7.952  0.2278  0.3769 -0.6893
    9MOL0     C 1088  -2.059   7.075   7.885  0.0403 -0.5344  0.5326
    9MOL0     C 1089  -2.196   7.094   7.910  0.4489 -0.6235  0.1537
    9MOL0     C 1090  -2.243   7.203   7.989 -0.5446  0.1902  0.5738
    9MOL0     O 1091  -2.374   7.232   7.977  0.0214 -0.4419 -0.5563
    9MOL0     C 1092  -2.425   7.340   8.054  1.0526  0.7569  0.3863
    9MOL0     C 1093  -2.565   7.374   7.998  0.7849  0.0108  0.0266
    9MOL0     C 1094  -2.629   7.464   8.110 -0.4696 -0.0422  0.0207
    9MOL0     C 1095  -2.737   7.544   8.058 -0.0997  0.3137 -0.0658
    9MOL0     C 1096  -2.818   7.615   8.168  0.2106  0.3517  0.0178
    9MOL0     C 1097  -2.913   7.708   8.099 -0.9284 -0.2073  0.3059
    9MOL0     C 1098  -2.997   7.796   8.189  0.1639  1.0504  0.0829
    9MOL0     C 1099  -3.127   7.827   8.127  0.1795 -0.1489  0.4024
    9MOL0    Cl 1100  -3.098   7.923   7.982 -0.1675 -0.4532 -0.0039
    9MOL0     C 1101  -2.137   7.281   8.049  0.5337 -0.1797 -0.2601
    9MOL0     C 1102  -2.003   7.254   8.041 -0.9338  0.7771  0.4317
    9MOL0     O 1103  -1.809   7.053   8.149 -0.2941 -0.2888  0.9918
    9MOL0     C 1104  -1.537   7.114   7.916  0.2191  0.0482 -0.4608
    9MOL0     C 1105  -1.402   7.145   7.913 -0.5683 -0.3173 -0.2681
    9MOL0     N 1106  -0.550   6.950   8.266  0.1572 -1.2024 -0.0647
    9MOL0     N 1107  -0.467   6.964   8.364  0.2622 -0.3351  0.5447
    9MOL0     C 1108   0.605   7.140   8.958  0.2515  0.3036  0.3532
    9MOL0     C 1109   0.738   7.098   8.959  0.5125 -0.4332 -0.8703
    9MOL0     C 1110   1.188   7.174   8.822 -0.4296 -0.5225  0.9253
    9MOL0     C 1111   1.292   7.261   8.784  0.0869  0.2919 -1.3758
    9MOL0     C 1112   1.430   7.229   8.786  0.4797 -0.7790  0.2965
    9MOL0     C 1113   1.462   7.095   8.817 -0.0144 -0.6608 -0.5301
    9MOL0     O 1114   1.588   7.041   8.797  0.2471 -0.4515 -0.2808
    9MOL0     C 1115   1.699   7.119   8.855 -0.5194  0.0659  0.4877
    9MOL0     C 1116   1.700   7.120   9.002  0.0642 -0.7755 -0.0929
    9MOL0     C 1117   1.720   6.976   9.056 -0.1862  0.3370 -0.3078
    9MOL0     C 1118   1.750   6.973   9.210 -0.8364 -0.0744  0.1232
    9MOL0     C 1119   1.742   6.837   9.267  0.5439  0.4977 -0.1911
    9MOL0     C 1120   1.738   6.734   9.328  0.5531 -0.4454  0.7700
    9MOL0     C 1121   1.368   7.008   8.857  0.2969 -0.3164 -0.3354
    9MOL0     C 1122   1.232   7.049   8.856  0.3390 -0.2811 -0.0523
    9MOL0     H 1123   0.841   7.293   8.697 -1.5616  0.6002 -0.1463
    9MOL0     H 1124   0.601   7.343   8.689 -2.7675 -1.3480  0.0749
    9MOL0     H 1125   0.382   7.340   8.667  0.4784  2.6876 -0.7057
    9MOL0     H 1126   0.403   7.455   8.804  0.5146  0.7308 -0.6017
    9MOL0     H 1127   0.188   7.456   8.782  0.4846 -0.0866  2.0415
    9MOL0     H 1128   0.194   7.328   8.903 -1.8910  0.5689 -0.3112
    9MOL0     H 1129   0.189   7.158   8.715  0.8005  1.6836  2.6520
    9MOL0     H 1130   0.151   7.290   8.601  0.9639 -3.0812 -1.0232
    9MOL0     H 1131  -0.012   7.215   8.843 -2.5434 -1.8919 -0.9264
    9MOL0     H 1132  -0.046   7.351   8.736 -2.7140 -1.2882 -1.3345
    9MOL0     H 1133  -0.018   7.076   8.630  1.4800  0.4031  3.0730
    9MOL0     H 1134  -0.096   7.224   8.557  0.6093 -1.1866 -0.8586
    9MOL0     H 1135  -0.266   7.227   8.744  0.5299  1.8234 -0.7822
    9MOL0     H 1136  -0.202   7.068   8.790 -1.6761  1.3762  1.6072
    9MOL0     H 1137  -0.287   6.970   8.577 -0.8902  0.9982 -1.5585
    9MOL0     H 1138  -0.413   7.044   8.672 -1.9105  1.6479 -2.7549
    9MOL0     H 1139  -0.287   7.189   8.446 -0.5693 -1.0877  0.0391
    9MOL0     H 1140  -0.411   7.247   8.547 -1.0186 -0.2232 -0.6464
    9MOL0     H 1141  -0.568   7.281   8.343 -0.1466 -0.1963  0.9972
    9MOL0     H 1142  -0.694   7.040   8.059 -0.9424 -0.6364 -0.7435
    9MOL0     H 1143  -0.679   7.214   8.103  0.0746 -0.8941 -0.3477
    9MOL0     H 1144  -0.853   7.210   8.257  1.4972  0.7856 -1.2003
    9MOL0     H 1145  -0.870   7.029   8.254  2.2181 -0.3166  0.2080
    9MOL0     H 1146  -0.956   7.239   8.045 -1.7430  1.7601  2.9120
    9MOL0     H 1147  -0.959   7.062   8.008 -1.6259  0.3964 -0.0525
    9MOL0     H 1148  -1.136   7.179   8.226  1.2935 -0.3136  1.7156
    9MOL0     H 1149  -1.120   7.019   8.173  0.3351 -0.2052 -0.6365
    9MOL0     H 1150  -1.340   7.093   8.244  0.1526 -1.6357  0.1806
    9MOL0     H 1151  -1.579   7.043   8.247  1.6174 -1.5571  1.4088
    9MOL0     H 1152  -2.038   6.999   7.810 -2.6299 -1.7525  0.9067
    9MOL0     H 1153  -2.267   7.031   7.856  0.4634 -0.7433  0.2737
    9MOL0     H 1154  -2.368   7.430   8.028 -0.2950  1.9735  1.5157
    9MOL0     H 1155  -2.430   7.318   8.161 -1.2532  3.1902  0.8764
    9MOL0     H 1156  -2.626   7.287   7.973 -0.3253  0.8930 -0.4360
    9MOL0     H 1157  -2.549   7.427   7.904  0.5844  0.0706  0.0237
    9MOL0     H 1158  -2.550   7.529   8.150  0.4878 -1.0557 -0.1673
    9MOL0     H 1159  -2.662   7.409   8.199  1.1482  0.2810  0.8605
    9MOL0     H 1160  -2.679   7.609   7.991  0.8999  1.8268  2.1613
    9MOL0     H 1161  -2.808   7.489   7.996  1.2609 -0.9534 -0.5390
    9MOL0     H 1162  -2.749   7.654   8.243 -0.0254 -1.5114  1.2533
    9MOL0     H 1163  -2.877   7.542   8.223  1.2142  0.8861  1.9008
    9MOL0     H 1164  -2.978   7.652   8.031 -0.9610  0.1364  0.0499
    9MOL0     H 1165  -2.859   7.784   8.041 -0.8837  0.6839  1.4626
    9MOL0     H 1166  -3.027   7.746   8.282  0.0391  4.0271  1.7889
    9MOL0     H 1167  -2.948   7.889   8.218 -0.8480  1.9612 -1.0420
    9MOL0     H 1168  -3.179   7.879   8.208 -0.6370 -0.0416 -0.1790
    9MOL0     H 1169  -3.182   7.735   8.106 -2.0879  1.5850 -1.9046
    9MOL0     H 1170  -2.164   7.367   8.111 -2.5253 -0.2198 -1.3654
    9MOL0     H 1171  -1.927   7.310   8.094  1.5510  0.5347 -2.6396
    9MOL0     H 1172  -1.592   7.117   7.822 -0.4547  3.5277 -0.0843
    9MOL0     H 1173  -1.356   7.154   7.816  0.6342 -1.4207  0.1715
    9MOL0     H 1174   0.528   7.118   9.031 -0.5100  2.1983  0.1726
    9MOL0     H 1175   0.779   7.030   9.034 -1.7962 -1.5758 -0.5591
    9MOL0     H 1176   1.273   7.365   8.759 -0.4078  0.5922  0.1564
    9MOL0     H 1177   1.493   7.313   8.758  0.7435  0.2534  3.5894
    9MOL0     H 1178   1.689   7.223   8.822  0.8591  0.3863  0.9944
    9MOL0     H 1179   1.790   7.072   8.816 -0.6500 -1.1749  1.6181
    9MOL0     H 1180   1.777   7.190   9.037 -0.9022  1.8996 -2.8436
    9MOL0     H 1181   1.602   7.155   9.036 -0.3866 -1.0689 -1.0563
    9MOL0     H 1182   1.798   6.916   9.009  0.3882 -0.3913  1.5023
    9MOL0     H 1183   1.640   6.901   9.052  0.5602 -0.4533 -0.8183
    9MOL0     H 1184   1.849   7.016   9.225 -0.9751  0.2709  0.0447
    9MOL0     H 1185   1.676   7.037   9.258 -0.9343  0.3441 -0.5674
    9MOL0     H 1186   1.737   6.642   9.383  0.2852 -0.0797  1.3991
    9MOL0     H 1187   1.403   6.908   8.881 -0.7546 -0.0147  2.9112
    9MOL0     H 1188   1.159   6.980   8.896 -0.7427  0.9857  0.2082
   10MOL0     O 1189   7.211   2.702   5.361 -0.4179 -0.4411  0.2922
   10MOL0     C 1190   7.284   2.692   5.263  0.7408  0.2492 -0.1987
   10MOL0     O 1191   7.254   2.723   5.133  0.4732  0.0551  0.6095
   10MOL0     C 1192   7.133   2.758   5.085  0.4623 -0.3005  0.1757
   10MOL0     C 1193   7.032   2.815   5.160 -0.3701 -0.0465  0.9621
   10MOL0     C 1194   6.905   2.827   5.110  0.0478 -0.3445 -0.7342
   10MOL0     C 1195   6.876   2.784   4.979  0.1247 -0.3564 -0.1143
   10MOL0     O 1196   6.751   2.792   4.934  0.7199 -0.6868  0.2407
   10MOL0     C 1197   6.661   2.692   4.990 -0.5348  0.2547  0.7396
   10MOL0     C 1198   6.687   2.558   4.918  0.4281 -0.3269  0.3757
   10MOL0     C 1199   6.603   2.444   4.976  1.3441 -0.3035 -0.4690
   10MOL0     C 1200   6.452   2.463   4.932 -0.2316  0.7563  0.1512
   10MOL0     C 1201   6.358   2.350   4.973 -0.9608  0.2327 -0.2640
   10MOL0     C 1202   6.406   2.222   4.896  0.4572 -0.2756 -0.8796
   10MOL0     C 1203   6.309   2.108   4.904 -0.4153 -0.1768 -0.3982
   10MOL0     C 1204   6.379   1.968   4.881 -0.2334 -0.1039 -0.0470
   10MOL0     N 1205   6.293   1.850   4.899  0.4210 -0.5541  0.1594
   10MOL0     C 1206   6.286   1.772   5.018 -0.4159 -0.0627  0.6834
   10MOL0     C 1207   6.189   1.681   4.989 -0.0102 -0.4274 -0.9520
   10MOL0     C 1208   6.128   1.578   5.081 -0.8935 -0.0566 -0.0639
   10MOL0     C 1209   6.197   1.439   5.079 -0.0063 -0.1366 -0.2660
   10MOL0     C 1210   6.155   1.341   5.194  0.1610 -0.8005  0.2342
   10MOL0     C 1211   6.023   1.266   5.160  0.7975 -0.1102 -0.7124
   10MOL0     O 1212   5.926   1.369   5.172  0.5248  0.1877 -0.0939
   10MOL0     C 1213   5.797   1.328   5.134  0.5446 -0.2363  0.5663
   10MOL0     C 1214   5.757   1.195   5.118  0.3044 -0.7893  0.2045
   10MOL0     C 1215   5.623   1.163   5.086 -0.8233  0.7752 -0.2920
   10MOL0     C 1216   5.522   1.257   5.074 -0.3970 -0.5345  0.3235
   10MOL0     C 1217   5.391   1.222   5.017 -0.6792  0.1527  0.8036
   10MOL0     O 1218   5.389   1.103   4.950 -0.5300 -0.2540 -0.1274
   10MOL0     C 1219   5.269   1.041   4.921 -0.6173 -0.2454  0.4074
   10MOL0     C 1220   5.260   0.950   4.812  0.1740  0.1155 -0.1789
   10MOL0     C 1221   5.142   0.878   4.789  0.6029 -0.4546  1.4205
   10MOL0     C 1222   5.019   0.899   4.861 -0.4483 -0.9453 -0.2101
   10MOL0     O 1223   4.898   0.840   4.834  0.0306 -0.3913  0.1689
   10MOL0     C 1224   4.893   0.761   4.721 -0.0920 -0.6163  0.3340
   10MOL0     C 1225   4.758   0.704   4.693  1.6244  1.0577  0.0104
   10MOL0     C 1226   4.737   0.553   4.671 -0.3530  0.0892  0.0420
   10MOL0     C 1227   4.580   0.535   4.639 -0.1996  0.4791 -0.3255
   10MOL0     C 1228   4.539   0.398   4.619 -0.1671  0.0550  0.2189
   10MOL0     C 1229   4.387   0.383   4.581  0.6708  0.3552 -0.0982
   10MOL0     C 1230   4.341   0.242   4.539 -1.4455 -0.2155  0.7621
   10MOL0     C 1231   4.193   0.242   4.501 -0.8901 -0.1579  0.0036
   10MOL0    Cl 1232   4.182   0.137   4.353  0.3691  0.3605 -0.2016
   10MOL0     C 1233   5.024   0.991   4.968 -1.0112  0.4261 -0.3832
   10MOL0     C 1234   5.151   1.057   5.001 -0.0167  0.8765 -1.5131
   10MOL0     O 1235   5.301   1.303   5.034 -0.7597 -0.1613 -0.2842
   10MOL0     C 1236   5.563   1.391   5.099 -0.0247  0.1165  0.2040
   10MOL0     C 1237   5.693   1.426   5.132  0.2065  0.2806 -0.6412
   10MOL0     N 1238   6.140   1.718   4.868  0.1010 -0.0451 -0.3134
   10MOL0     N 1239   6.196   1.816   4.808 -0.9203 -0.0317  0.2970
   10MOL0     C 1240   6.983   2.735   4.901  0.4799  0.4936  0.5838
   10MOL0     C 1241   7.113   2.720   4.951  0.1513  0.1629 -0.3209
   10MOL0     C 1242   7.412   2.630   5.286  0.4321  0.0489 -0.0032
   10MOL0     C 1243   7.514   2.648   5.186  0.7685 -0.2707  0.3204
   10MOL0     C 1244   7.639   2.608   5.218  0.0148 -0.1371 -0.2104
   10MOL0     C 1245   7.675   2.534   5.330 -0.1792  0.3070 -1.2728
   10MOL0     O 1246   7.799   2.494   5.341 -0.1487  0.2888 -0.2503
   10MOL0     C 1247   7.837   2.433   5.467  0.3415 -0.2701  0.3602
   10MOL0     C 1248   7.986   2.397   5.452 -0.1045 -0.7005 -0.5748
   10MOL0     C 1249   8.059   2.361   5.592 -0.1258  0.7668  0.3365
   10MOL0     C 1250   8.205   2.394   5.580  0.1037  0.6988  0.5065
   10MOL0     C 1251   8.280   2.335   5.693  0.9923 -0.3637 -0.9000
   10MOL0     C 1252   8.346   2.282   5.787  0.7500  0.1399  0.0930
   10MOL0     C 1253   7.570   2.510   5.426  0.4533  0.1655 -0.1044
   10MOL0     C 1254   7.439   2.562   5.403 -0.4752  0.3326  0.2916
   10MOL0     H 1255   7.053   2.835   5.264 -1.2061 -1.3724  1.4117
   10MOL0     H 1256   6.821   2.858   5.171 -0.3042 -0.5060 -1.1286
   10MOL0     H 1257   6.558   2.721   5.009 -0.6056 -1.9260  5.0714
   10MOL0     H 1258   6.686   2.675   5.095 -1.7571  0.1787  1.0281
   10MOL0     H 1259   6.793   2.533   4.934  1.0804  2.3246  0.6661
   10MOL0     H 1260   6.658   2.570   4.813  1.1139  3.4914  0.4752
   10MOL0     H 1261   6.596   2.443   5.085  1.0989  0.2591 -0.4702
   10MOL0     H 1262   6.638   2.348   4.938 -1.3151 -1.5814  0.0995
   10MOL0     H 1263   6.415   2.559   4.967  0.1162  0.5783  1.0305
   10MOL0     H 1264   6.450   2.479   4.824  0.7960 -0.2650 -0.0443
   10MOL0     H 1265   6.258   2.381   4.942 -0.8722  3.8546  2.4667
   10MOL0     H 1266   6.368   2.323   5.079  1.2908 -0.7404 -0.6714
   10MOL0     H 1267   6.503   2.200   4.944  1.3009 -1.1773 -2.8955
   10MOL0     H 1268   6.424   2.247   4.791 -1.0698  1.7757 -0.6956
   10MOL0     H 1269   6.256   2.109   5.000  0.1474  1.0147 -0.0784
   10MOL0     H 1270   6.232   2.117   4.827  0.6100  0.7159 -1.3577
   10MOL0     H 1271   6.465   1.956   4.947  0.2835  1.4217 -0.4229
   10MOL0     H 1272   6.419   1.976   4.779  4.3157  2.3848  1.6524
   10MOL0     H 1273   6.354   1.790   5.101  0.1559  1.3060 -0.0484
   10MOL0     H 1274   6.021   1.582   5.056 -0.7451  2.0605 -0.5768
   10MOL0     H 1275   6.141   1.615   5.183 -0.3108  1.0788 -0.5352
   10MOL0     H 1276   6.301   1.470   5.095 -0.2455  1.1450 -1.0600
   10MOL0     H 1277   6.201   1.395   4.979 -1.4619  0.5193 -0.6402
   10MOL0     H 1278   6.237   1.268   5.185  1.1833  0.4856 -1.6699
   10MOL0     H 1279   6.151   1.387   5.293 -0.1467 -0.6100  0.1349
   10MOL0     H 1280   6.004   1.184   5.230 -3.5410 -0.6970 -2.2522
   10MOL0     H 1281   6.025   1.225   5.059 -0.3675 -1.7085 -0.1303
   10MOL0     H 1282   5.825   1.111   5.112  0.8576 -0.2750 -1.3955
   10MOL0     H 1283   5.598   1.059   5.069 -0.1517  0.2104  1.7796
   10MOL0     H 1284   5.342   0.938   4.742 -0.4684 -0.1600 -0.9007
   10MOL0     H 1285   5.146   0.805   4.708 -1.2364  1.1071 -0.1654
   10MOL0     H 1286   4.953   0.672   4.739 -0.5517 -1.2552 -1.1162
   10MOL0     H 1287   4.928   0.807   4.628 -1.6478 -1.0029 -0.4795
   10MOL0     H 1288   4.723   0.755   4.603  1.9568 -0.8374 -1.2484
   10MOL0     H 1289   4.698   0.733   4.779 -0.2192  2.1899 -1.5808
   10MOL0     H 1290   4.778   0.498   4.756 -0.7990  0.2658  0.3793
   10MOL0     H 1291   4.799   0.531   4.584 -1.0748  0.1787 -0.5063
   10MOL0     H 1292   4.530   0.577   4.727  1.9394  0.3981  0.9966
   10MOL0     H 1293   4.548   0.590   4.550 -0.5996 -0.1057 -0.5459
   10MOL0     H 1294   4.546   0.360   4.721  1.6121  1.5089  0.6860
   10MOL0     H 1295   4.605   0.339   4.556  1.5399 -0.9620  2.8005
   10MOL0     H 1296   4.349   0.461   4.515  1.9190  0.9506 -0.1401
   10MOL0     H 1297   4.327   0.392   4.672  2.4625  2.8199  0.9567
   10MOL0     H 1298   4.404   0.203   4.459 -2.5718  0.4679 -0.4926
   10MOL0     H 1299   4.344   0.169   4.621 -1.1307 -1.8888 -0.6834
   10MOL0     H 1300   4.154   0.342   4.479  1.2767  1.0484  1.2577
   10MOL0     H 1301   4.147   0.199   4.591 -1.4720 -1.8293 -1.0501
   10MOL0     H 1302   4.945   1.006   5.040  1.1187 -1.6205  2.6301
   10MOL0     H 1303   5.149   1.128   5.084 -1.7526 -1.5478  0.7049
   10MOL0     H 1304   5.501   1.477   5.075  0.1164 -0.0689 -0.8484
   10MOL0     H 1305   5.720   1.530   5.149  1.6652  0.1302 -1.8511
   10MOL0     H 1306   6.952   2.731   4.797 -1.8661  2.2812  1.1129
   10MOL0     H 1307   7.201   2.695   4.894  0.1551  1.0192 -0.6977
   10MOL0     H 1308   7.488   2.687   5.088  1.5785 -2.1869 -0.7076
   10MOL0     H 1309   7.719   2.621   5.146  0.5609  0.2202  0.4541
   10MOL0     H 1310   7.788   2.337   5.482  1.3291 -1.6565 -3.8858
   10MOL0     H 1311   7.825   2.506   5.548  3.0590 -1.6696  2.1563
   10MOL0     H 1312   8.005   2.326   5.371 -0.3469 -0.4194 -0.8809
   10MOL0     H 1313   8.023   2.491   5.409  0.8174 -1.5365 -1.7040
   10MOL0     H 1314   8.041   2.254   5.606  1.5555  0.1057 -1.8533
   10MOL0     H 1315   8.012   2.422   5.669 -1.1225 -2.2501  2.2992
   10MOL0     H 1316   8.231   2.343   5.487 -1.7422 -0.3899  0.5442
   10MOL0     H 1317   8.230   2.501   5.579  0.8820  0.5172 -0.5778
   10MOL0     H 1318   8.402   2.240   5.868  1.5798  2.2975  0.7196
   10MOL0     H 1319   7.581   2.463   5.523 -0.7074 -2.3388 -1.0962
   10MOL0     H 1320   7.366   2.551   5.483  1.1772 -2.6613  1.5742
   11MOL0     O 1321   4.579   9.428   0.165  0.0596 -0.1285 -0.1344
   11MOL0     C 1322   4.659   9.517   0.194  0.0557  0.8444  0.7469
   11MOL0     O 1323   4.631   9.617   0.282  0.5196  0.7371 -0.0691
   11MOL0     C 1324   4.498   9.652   0.306 -0.4107 -1.8345 -0.0896
   11MOL0     C 1325   4.459   9.658   0.436  0.4909 -0.3388  1.3964
   11MOL0     C 1326   4.327   9.694   0.475 -0.2782 -0.1444  0.5972
   11MOL0     C 1327   4.229   9.729   0.376  0.0482  0.6089 -0.2249
   11MOL0     O 1328   4.099   9.751   0.428  0.3747 -0.2041  0.2592
   11MOL0     C 1329   4.005   9.825   0.340 -0.4836  1.0536 -0.5474
   11MOL0     C 1330   3.882   9.855   0.420  0.6844  0.0802 -0.2625
   11MOL0     C 1331   3.891   9.964   0.528 -0.3168  0.1098 -0.1333
   11MOL0     C 1332   3.757   9.967   0.601  0.2481 -0.6107 -0.2981
   11MOL0     C 1333   3.745  10.074   0.709  0.1084  0.3728  0.6005
   11MOL0     C 1334   3.692  10.015   0.850 -0.9697  0.7178  0.0710
   11MOL0     C 1335   3.656  10.119   0.955 -0.4020  0.6913  0.5272
   11MOL0     C 1336   3.626  10.054   1.096 -0.5598  0.8145  0.5732
   11MOL0     N 1337   3.491   9.997   1.125 -0.2950  0.1927  0.3519
   11MOL0     C 1338   3.379  10.066   1.154  1.6324 -0.3068  0.8211
   11MOL0     C 1339   3.288   9.975   1.185  0.5193  0.0205  0.0973
   11MOL0     C 1340   3.151  10.001   1.243  0.0658 -0.5577  0.1812
   11MOL0     C 1341   3.094  10.140   1.214 -0.4851  0.2600 -0.0442
   11MOL0     C 1342   2.942  10.139   1.243  0.0009  0.2776 -0.1565
   11MOL0     C 1343   2.908  10.290   1.247  0.2741  0.7792 -0.7037
   11MOL0     O 1344   2.760  10.282   1.244 -0.0935 -0.1450 -0.2073
   11MOL0     C 1345   2.696  10.407   1.254  0.0988 -0.7281 -0.0469
   11MOL0     C 1346   2.556  10.400   1.251 -0.3023  0.3015 -0.0797
   11MOL0     C 1347   2.487  10.517   1.247  0.7222  0.3798 -0.0059
   11MOL0     C 1348   2.540  10.646   1.259 -0.8549  0.1508 -0.4700
   11MOL0     C 1349   2.458  10.763   1.268 -0.3688 -0.4687  0.4226
   11MOL0     O 1350   2.324  10.738   1.239  0.3686 -0.1578  0.0030
   11MOL0     C 1351   2.218  10.831   1.238  0.2741  0.7451 -0.2983
   11MOL0     C 1352   2.228  10.972   1.241 -0.0439  0.5941 -0.2946
   11MOL0     C 1353   2.115  11.049   1.236  0.5998 -0.5925 -0.3690
   11MOL0     C 1354   1.993  10.994   1.206 -0.3182 -0.4830 -0.2047
   11MOL0     O 1355   1.889  11.066   1.172  0.0879 -0.1771 -0.0994
   11MOL0     C 1356   1.842  11.176   1.248 -0.2485  0.0405  0.2386
   11MOL0     C 1357   1.884  11.302   1.174  0.0183  0.2072  0.4811
   11MOL0     C 1358   1.809  11.340   1.049  0.7818  0.5504  0.4376
   11MOL0     C 1359   1.668  11.378   1.069 -0.0294 -0.4325  0.5650
   11MOL0     C 1360   1.628  11.485   1.173 -0.3636 -0.1514  0.1282
   11MOL0     C 1361   1.477  11.533   1.174  0.4107 -0.2208 -0.4844
   11MOL0     C 1362   1.391  11.417   1.196 -0.2319 -0.1804 -0.3147
   11MOL0     C 1363   1.242  11.442   1.208  0.0824  0.9620 -0.6069
   11MOL0    Cl 1364   1.188  11.563   1.342 -0.4776 -0.1687 -0.3317
   11MOL0     C 1365   1.980  10.855   1.202  0.0310 -0.4222 -0.3411
   11MOL0     C 1366   2.093  10.777   1.219  0.0673 -0.2376  0.3105
   11MOL0     O 1367   2.497  10.867   1.322  0.8301  0.0718  0.1321
   11MOL0     C 1368   2.681  10.651   1.273  0.5164 -0.7336 -0.1938
   11MOL0     C 1369   2.758  10.534   1.266  0.5227 -0.2627 -0.7294
   11MOL0     N 1370   3.344   9.849   1.183  0.1318 -0.2545  0.3230
   11MOL0     N 1371   3.466   9.865   1.153 -0.0092 -0.0082  0.1280
   11MOL0     C 1372   4.273   9.721   0.245 -0.0273  0.8101 -0.0881
   11MOL0     C 1373   4.405   9.682   0.213 -0.0878 -0.2185  0.5334
   11MOL0     C 1374   4.798   9.499   0.147  0.2507  1.0254 -0.1590
   11MOL0     C 1375   4.831   9.400   0.052  0.5879  0.0278 -0.0989
   11MOL0     C 1376   4.967   9.371   0.037 -0.8565  0.2407 -0.2318
   11MOL0     C 1377   5.066   9.425   0.123 -0.0668  0.8859  0.0326
   11MOL0     O 1378   5.196   9.369   0.119  0.6090  0.2032  0.2428
   11MOL0     C 1379   5.302   9.427   0.192 -0.4534  0.1867 -0.1444
   11MOL0     C 1380   5.440   9.362   0.155 -0.1904  0.4384 -0.3329
   11MOL0     C 1381   5.434   9.204   0.135  0.0037  0.5699 -0.0350
   11MOL0     C 1382   5.409   9.138   0.276  0.3980  0.6061  0.2706
   11MOL0     C 1383   5.469   9.005   0.277  0.1538  0.4873  1.0123
   11MOL0     C 1384   5.550   8.911   0.262 -0.4142 -0.5861 -0.1283
   11MOL0     C 1385   5.031   9.521   0.212 -0.2598  0.0844 -1.1676
   11MOL0     C 1386   4.901   9.562   0.225 -0.5776 -1.0000  0.2679
   11MOL0     H 1387   4.524   9.630   0.519  1.6127  2.5662  1.6215
   11MOL0     H 1388   4.299   9.698   0.580 -0.0653 -0.8137  0.6818
   11MOL0     H 1389   3.980   9.762   0.254  3.2582 -1.2339 -0.1581
   11MOL0     H 1390   4.053   9.917   0.306  0.8748  0.5457 -0.0269
   11MOL0     H 1391   3.856   9.759   0.465  1.4557 -1.1403 -2.3235
   11MOL0     H 1392   3.793   9.867   0.357 -0.6737 -2.7363  0.9606
   11MOL0     H 1393   3.922  10.064   0.494  2.9374  0.3964  2.9911
   11MOL0     H 1394   3.967   9.938   0.602 -0.6756  2.9675  1.3875
   11MOL0     H 1395   3.680   9.979   0.525  2.3131  2.8526 -2.1141
   11MOL0     H 1396   3.730   9.870   0.644  0.9709 -0.3734  0.7343
   11MOL0     H 1397   3.679  10.153   0.672 -0.7049 -0.7979 -0.5617
   11MOL0     H 1398   3.839  10.125   0.730 -0.2055  1.2384 -0.0266
   11MOL0     H 1399   3.767   9.945   0.887  0.5493  1.8377 -0.7671
   11MOL0     H 1400   3.604   9.956   0.823  1.2380 -2.3065 -1.1464
   11MOL0     H 1401   3.736  10.194   0.954  1.7459 -1.4581  1.2583
   11MOL0     H 1402   3.563  10.159   0.914 -0.2743 -0.7597 -1.3179
   11MOL0     H 1403   3.645  10.126   1.177 -1.3576 -0.9179  2.3770
   11MOL0     H 1404   3.704   9.978   1.109  1.0212  1.8842 -1.8087
   11MOL0     H 1405   3.374  10.174   1.168 -1.0051  0.1827 -2.4935
   11MOL0     H 1406   3.143   9.981   1.350 -0.1725 -0.2774  0.2175
   11MOL0     H 1407   3.083   9.926   1.202  1.6443 -1.5531 -0.7116
   11MOL0     H 1408   3.107  10.155   1.107 -0.2022  3.6895  0.3565
   11MOL0     H 1409   3.148  10.216   1.271 -0.0919  1.1220 -1.5298
   11MOL0     H 1410   2.888  10.086   1.164 -1.3472 -3.0972  2.7375
   11MOL0     H 1411   2.921  10.089   1.338 -1.3000  1.4222  0.1962
   11MOL0     H 1412   2.955  10.333   1.158  2.0597 -2.3300 -1.4168
   11MOL0     H 1413   2.941  10.339   1.339  0.9303 -0.6194 -0.1638
   11MOL0     H 1414   2.516  10.302   1.224 -1.7302  1.3194 -1.8853
   11MOL0     H 1415   2.381  10.497   1.237  0.3412  1.5949  1.1919
   11MOL0     H 1416   2.320  11.029   1.250  0.1757  1.2647 -4.6463
   11MOL0     H 1417   2.130  11.156   1.240  2.3242 -0.8176  0.3418
   11MOL0     H 1418   1.876  11.177   1.352  1.9565  1.9761 -0.4254
   11MOL0     H 1419   1.734  11.164   1.259 -0.3379  1.5998  1.3624
   11MOL0     H 1420   1.993  11.297   1.165  0.2301 -1.2603  2.8227
   11MOL0     H 1421   1.855  11.385   1.239 -2.0712  0.0338 -0.1624
   11MOL0     H 1422   1.823  11.264   0.971  0.7157 -0.5712  1.4936
   11MOL0     H 1423   1.859  11.434   1.024 -0.1159  1.0340  0.4346
   11MOL0     H 1424   1.638  11.411   0.969  3.6160 -1.7194 -1.1091
   11MOL0     H 1425   1.606  11.288   1.080  1.0193 -1.2419  0.0608
   11MOL0     H 1426   1.702  11.564   1.159  0.0829 -0.3393  1.2997
   11MOL0     H 1427   1.655  11.451   1.273  1.2931  1.8954  0.4503
   11MOL0     H 1428   1.443  11.575   1.079  0.4440 -2.0723 -1.3462
   11MOL0     H 1429   1.478  11.616   1.246  1.3922 -0.2748 -0.4199
   11MOL0     H 1430   1.402  11.341   1.118 -0.5808 -0.1955 -0.3503
   11MOL0     H 1431   1.415  11.367   1.291  0.4337 -0.4972 -0.6433
   11MOL0     H 1432   1.191  11.348   1.233  0.3797  0.7253 -0.8758
   11MOL0     H 1433   1.214  11.471   1.106  3.1147 -0.0000 -1.8344
   11MOL0     H 1434   1.884  10.805   1.197  0.0190 -0.9066  2.9510
   11MOL0     H 1435   2.083  10.672   1.195  0.3980 -0.3111  0.4919
   11MOL0     H 1436   2.731  10.747   1.260  0.1957 -0.7587 -1.8079
   11MOL0     H 1437   2.865  10.533   1.280  0.7058 -1.2414 -1.9862
   11MOL0     H 1438   4.214   9.741   0.156 -0.5453 -1.0499 -0.2042
   11MOL0     H 1439   4.430   9.686   0.107  0.1751  0.6294  0.6177
   11MOL0     H 1440   4.750   9.353  -0.003  0.5094 -0.7835  0.6848
   11MOL0     H 1441   4.994   9.296  -0.036 -1.1188  1.5928 -1.7864
   11MOL0     H 1442   5.284   9.408   0.299  0.6101 -0.8941 -0.1362
   11MOL0     H 1443   5.312   9.534   0.172  1.5714  0.0804  0.1450
   11MOL0     H 1444   5.473   9.400   0.058 -0.1967 -1.4143 -1.1073
   11MOL0     H 1445   5.505   9.386   0.239 -1.5255  1.0674  0.5552
   11MOL0     H 1446   5.530   9.174   0.093 -0.1248  1.4172 -0.9887
   11MOL0     H 1447   5.356   9.172   0.065 -0.2635 -3.1915  1.7292
   11MOL0     H 1448   5.458   9.183   0.362  1.0296  0.7130 -0.1369
   11MOL0     H 1449   5.302   9.147   0.292 -0.0460 -0.7622 -1.5069
   11MOL0     H 1450   5.621   8.831   0.249  1.0743  0.2784  2.0684
   11MOL0     H 1451   5.103   9.561   0.283  0.6785 -2.5454 -0.5151
   11MOL0     H 1452   4.875   9.639   0.297 -0.6365 -0.6301 -0.1449
   12MOL0     O 1453   7.346   2.767   9.576 -0.8000  0.0323  0.7494
   12MOL0     C 1454   7.350   2.880   9.537  0.1639 -0.1581  0.8129
   12MOL0     O 1455   7.263   2.987   9.574 -0.0287  0.4304  0.8370
   12MOL0     C 1456   7.143   2.956   9.622 -0.3759  0.2001  0.4158
   12MOL0     C 1457   7.094   2.998   9.742 -0.4787 -1.2147 -0.3999
   12MOL0     C 1458   6.959   2.968   9.781 -0.5978  0.0322  0.7743
   12MOL0     C 1459   6.873   2.906   9.686  0.4555  0.0088  0.3826
   12MOL0     O 1460   6.736   2.883   9.699 -0.1545 -0.2270 -0.0415
   12MOL0     C 1461   6.662   2.945   9.812 -0.3905  0.2296  0.7200
   12MOL0     C 1462   6.512   2.966   9.778  0.1154 -0.1186  0.1890
   12MOL0     C 1463   6.431   3.090   9.819 -0.4924 -0.0336 -0.1367
   12MOL0     C 1464   6.273   3.065   9.809 -0.1985  0.4922 -0.7694
   12MOL0     C 1465   6.169   3.176   9.862 -0.7468 -0.0645 -0.3615
   12MOL0     C 1466   6.022   3.125   9.853 -0.0557 -0.1240 -1.0952
   12MOL0     C 1467   5.923   3.244   9.887  0.8553 -0.0759  0.0549
   12MOL0     C 1468   5.777   3.195   9.860 -0.2992  0.4704 -0.3378
   12MOL0     N 1469   5.676   3.291   9.870 -0.0496 -0.3381  0.8822
   12MOL0     C 1470   5.599   3.289   9.980  0.2083  0.5337 -0.4712
   12MOL0     C 1471   5.524   3.396   9.958 -0.5747  0.0963 -0.0388
   12MOL0     C 1472   5.420   3.438  10.053  0.2132  0.5515 -0.2981
   12MOL0     C 1473   5.299   3.472   9.970 -0.9266 -0.2544  0.6211
   12MOL0     C 1474   5.181   3.491  10.063 -0.6294 -0.4393 -0.0087
   12MOL0     C 1475   5.068   3.582  10.000 -0.6962  0.3808  0.5059
   12MOL0     O 1476   4.950   3.559  10.068 -0.0501 -0.2541 -0.1115
   12MOL0     C 1477   4.842   3.623  10.008 -0.4688  0.8819  0.3755
   12MOL0     C 1478   4.848   3.724   9.905  0.4934  0.2611 -1.3775
   12MOL0     C 1479   4.723   3.768   9.851  0.0426  0.2796  0.1783
   12MOL0     C 1480   4.600   3.726   9.902 -0.6827 -0.5825 -0.0583
   12MOL0     C 1481   4.479   3.791   9.859  0.2554 -0.0061  0.1392
   12MOL0     O 1482   4.371   3.782   9.936 -0.6374 -0.4440  0.1043
   12MOL0     C 1483   4.260   3.858   9.904 -0.0519  0.1988  0.0877
   12MOL0     C 1484   4.167   3.826   9.808 -0.3202  0.7888  1.3828
   12MOL0     C 1485   4.052   3.902   9.781 -0.5069  0.5700 -0.5231
   12MOL0     C 1486   4.029   4.021   9.854 -0.7675 -0.0362  0.4961
   12MOL0     O 1487   3.921   4.108   9.848 -0.1325  0.5227 -0.5590
   12MOL0     C 1488   3.807   4.039   9.802 -0.3280  0.0957  0.1980
   12MOL0     C 1489   3.683   4.129   9.825  0.2365 -0.4401 -0.2291
   12MOL0     C 1490   3.549   4.079   9.773 -0.0553  0.8149 -0.2563
   12MOL0     C 1491   3.441   4.191   9.771  0.7879  0.2953  1.0342
   12MOL0     C 1492   3.300   4.140   9.773 -0.4927  0.7626  0.0930
   12MOL0     C 1493   3.208   4.255   9.756 -0.3508  1.3215  0.4056
   12MOL0     C 1494   3.060   4.223   9.800 -0.2520  0.5926 -0.0053
   12MOL0     C 1495   2.967   4.342   9.794  0.6543 -1.6060  1.2030
   12MOL0    Cl 1496   2.997   4.461   9.649 -0.4892 -0.0763  0.1124
   12MOL0     C 1497   4.120   4.049   9.953  0.6637  1.2559  0.0487
   12MOL0     C 1498   4.231   3.972   9.977  0.4844 -0.1967  0.3824
   12MOL0     O 1499   4.480   3.844   9.747  0.0248  0.6495 -0.2198
   12MOL0     C 1500   4.598   3.631  10.004  0.4210  0.0751  1.0015
   12MOL0     C 1501   4.722   3.578  10.054  0.1683 -0.2314  0.4398
   12MOL0     N 1502   5.560   3.457   9.834  0.5125 -0.1527 -0.7786
   12MOL0     N 1503   5.664   3.400   9.792 -0.6469 -0.4192 -0.4619
   12MOL0     C 1504   6.925   2.862   9.559 -0.5737 -0.4237  0.3231
   12MOL0     C 1505   7.055   2.889   9.527  0.0364  0.3021 -0.7011
   12MOL0     C 1506   7.467   2.917   9.452  0.5580 -0.7958  0.3905
   12MOL0     C 1507   7.442   3.026   9.359 -0.8599 -0.2195  0.1198
   12MOL0     C 1508   7.549   3.063   9.274  0.0988 -0.5855  0.6352
   12MOL0     C 1509   7.674   2.999   9.270  0.2954  1.1916 -0.0166
   12MOL0     O 1510   7.759   3.056   9.183 -0.1797  0.5062  0.2336
   12MOL0     C 1511   7.877   2.982   9.141 -0.4986  0.0783  0.1118
   12MOL0     C 1512   7.988   3.005   9.243  0.2157 -0.3422 -0.9743
   12MOL0     C 1513   8.130   2.978   9.195  0.0946 -0.2429  0.1680
   12MOL0     C 1514   8.234   3.039   9.292 -0.4668  0.5583 -0.6016
   12MOL0     C 1515   8.363   3.028   9.229  0.6060 -0.1485  0.0091
   12MOL0     C 1516   8.467   2.998   9.180 -0.6764  0.0910  0.2144
   12MOL0     C 1517   7.679   2.875   9.349 -0.3414 -0.2400  0.5938
   12MOL0     C 1518   7.584   2.839   9.444  1.1404  0.4686 -0.8896
   12MOL0     H 1519   7.160   3.041   9.817 -0.3081  1.6799 -2.0642
   12MOL0     H 1520   6.929   2.990   9.883  3.7282 -0.6582  2.4003
   12MOL0     H 1521   6.709   3.042   9.827  0.2271 -0.1634  1.3608
   12MOL0     H 1522   6.672   2.883   9.901 -0.7416  1.6016  1.7372
   12MOL0     H 1523   6.471   2.869   9.810 -0.2220 -1.4325 -3.6358
   12MOL0     H 1524   6.494   2.949   9.671 -0.5168 -1.3975  0.4734
   12MOL0     H 1525   6.458   3.171   9.751 -0.3852 -1.4959 -1.9207
   12MOL0     H 1526   6.468   3.119   9.918  1.6305  0.1092 -0.9315
   12MOL0     H 1527   6.246   3.053   9.704  0.9913  0.0769 -1.0397
   12MOL0     H 1528   6.253   2.966   9.852  2.9838  0.7968  1.8095
   12MOL0     H 1529   6.191   3.261   9.798  0.4007 -0.3578 -0.3710
   12MOL0     H 1530   6.192   3.206   9.965 -1.6062  0.8581 -0.4177
   12MOL0     H 1531   6.013   3.041   9.924  4.5866  0.6779  0.7962
   12MOL0     H 1532   5.996   3.090   9.753  1.0160  0.5943 -1.6435
   12MOL0     H 1533   5.924   3.283   9.989 -4.3784 -1.2356  0.8601
   12MOL0     H 1534   5.948   3.322   9.814  0.5769  0.0762  0.1187
   12MOL0     H 1535   5.753   3.110   9.925 -1.0781 -0.5182 -1.8472
   12MOL0     H 1536   5.774   3.155   9.758 -0.0861 -2.0229  0.5576
   12MOL0     H 1537   5.608   3.220  10.063  0.4527  1.3879  0.2161
   12MOL0     H 1538   5.462   3.523  10.107  0.3477 -0.0733  0.6106
   12MOL0     H 1539   5.392   3.360  10.124 -0.7586  1.7261  0.6358
   12MOL0     H 1540   5.282   3.391   9.898 -2.4654 -0.7307  1.4844
   12MOL0     H 1541   5.318   3.569   9.923 -2.1486 -1.1727 -1.9804
   12MOL0     H 1542   5.146   3.391  10.088  1.4972 -1.0398  0.7223
   12MOL0     H 1543   5.214   3.535  10.157  0.4857 -2.0848  0.4194
   12MOL0     H 1544   5.061   3.546   9.896 -0.1262 -1.0409  0.9314
   12MOL0     H 1545   5.096   3.687   9.997 -0.7151  0.5407 -4.7447
   12MOL0     H 1546   4.927   3.780   9.858  0.4455  0.1596 -1.5795
   12MOL0     H 1547   4.732   3.836   9.767 -0.5250  1.2048  0.8461
   12MOL0     H 1548   4.183   3.734   9.752 -3.1619  0.6475  0.6080
   12MOL0     H 1549   3.977   3.873   9.708 -1.2893  0.7350  0.1925
   12MOL0     H 1550   3.786   3.944   9.852  0.3673 -0.3117 -0.2660
   12MOL0     H 1551   3.817   4.033   9.694 -2.3826  1.7092 -0.1397
   12MOL0     H 1552   3.690   4.223   9.768  2.0166 -0.3381  0.1040
   12MOL0     H 1553   3.677   4.162   9.929 -1.6311 -0.2444 -0.3735
   12MOL0     H 1554   3.516   3.998   9.840  1.3681 -1.3378 -2.0075
   12MOL0     H 1555   3.562   4.042   9.671 -2.1000  0.4654 -0.4246
   12MOL0     H 1556   3.462   4.254   9.857 -1.7354  1.5301  0.8195
   12MOL0     H 1557   3.448   4.251   9.679 -3.3195 -0.3723  0.1054
   12MOL0     H 1558   3.296   4.097   9.873 -0.5625  0.5251 -0.0121
   12MOL0     H 1559   3.287   4.063   9.697  3.7084 -2.2443  2.0377
   12MOL0     H 1560   3.203   4.294   9.654  0.3039  1.4546  0.4167
   12MOL0     H 1561   3.250   4.336   9.817  2.1271  0.5076 -0.0979
   12MOL0     H 1562   3.017   4.140   9.742 -1.9777  1.8345 -0.5923
   12MOL0     H 1563   3.076   4.183   9.900  4.7334  1.2716 -0.2542
   12MOL0     H 1564   2.973   4.403   9.884 -1.3885 -0.5111  0.6746
   12MOL0     H 1565   2.861   4.312   9.796  0.2972 -1.0317 -2.1550
   12MOL0     H 1566   4.098   4.141  10.007 -1.5034  1.7151 -1.5124
   12MOL0     H 1567   4.302   4.010  10.050 -0.8877 -0.2315  1.7880
   12MOL0     H 1568   4.505   3.590  10.042  1.3534 -0.7057  2.5949
   12MOL0     H 1569   4.723   3.509  10.137 -0.3700  1.0725  1.5864
   12MOL0     H 1570   6.865   2.808   9.487  2.2249 -1.0567 -1.7419
   12MOL0     H 1571   7.091   2.869   9.427 -0.1430  0.6826 -0.8450
   12MOL0     H 1572   7.350   3.081   9.340 -0.8959 -0.5215 -0.6353
   12MOL0     H 1573   7.525   3.152   9.218 -0.4183 -0.1818  1.4800
   12MOL0     H 1574   7.905   3.020   9.042 -1.3035  0.6719  0.0976
   12MOL0     H 1575   7.855   2.876   9.129 -0.8837 -0.2087  2.7914
   12MOL0     H 1576   7.974   3.108   9.276  1.6814 -0.4751  0.1894
   12MOL0     H 1577   7.969   2.938   9.328  0.6207  1.7119  0.8328
   12MOL0     H 1578   8.146   3.014   9.093  1.5376  0.4014  0.5906
   12MOL0     H 1579   8.146   2.870   9.194  1.4466 -0.2311  4.0426
   12MOL0     H 1580   8.203   3.142   9.309 -1.8024  0.2751 -1.1750
   12MOL0     H 1581   8.235   2.983   9.386  1.7695 -2.0907 -2.0196
   12MOL0     H 1582   8.549   2.958   9.125  0.5246  1.4900  0.8921
   12MOL0     H 1583   7.767   2.814   9.333  1.4106  2.4876 -0.9328
   12MOL0     H 1584   7.601   2.757   9.513 -1.3175  1.6067  1.2248
   13MOL0     O 1585   3.410  10.179   5.952 -0.5165  0.1281  0.9492
   13MOL0     C 1586   3.505  10.105   5.987  0.3666 -1.0017 -0.1186
   13MOL0     O 1587   3.492  10.010   6.087  0.1925  0.4615  0.1631
   13MOL0     C 1588   3.375  10.012   6.161 -0.2517  0.1374  0.2763
   13MOL0     C 1589   3.300   9.899   6.179  0.2170  0.4891  0.8544
   13MOL0     C 1590   3.187   9.900   6.264  0.5446  0.3551 -0.1762
   13MOL0     C 1591   3.165  10.006   6.348 -0.6252 -0.1346  1.6473
   13MOL0     O 1592   3.061  10.022   6.437 -0.2609  0.3436 -0.4910
   13MOL0     C 1593   2.972   9.913   6.469  0.0677 -0.3959  1.1491
   13MOL0     C 1594   2.872   9.958   6.569  1.4680  0.0394 -0.3037
   13MOL0     C 1595   2.769   9.846   6.610  0.2585  0.1674 -0.0362
   13MOL0     C 1596   2.666   9.908   6.705  0.7171  0.3048  0.7176
   13MOL0     C 1597   2.543   9.810   6.721  0.3055  0.0884 -0.3411
   13MOL0     C 1598   2.427   9.866   6.800  1.0143  0.2021 -0.4902
   13MOL0     C 1599   2.338   9.947   6.695  0.4006  0.0878 -0.3635
   13MOL0     C 1600   2.188   9.971   6.754 -0.9989  0.3754  0.5378
   13MOL0     N 1601   2.181  10.050   6.877  0.1700 -0.5428  0.1954
   13MOL0     C 1602   2.195   9.995   7.006 -0.7274 -0.2207 -0.5501
   13MOL0     C 1603   2.196  10.104   7.079 -0.1025  0.3466 -0.8330
   13MOL0     C 1604   2.211  10.111   7.228  0.3063 -0.6956 -0.0198
   13MOL0     C 1605   2.325  10.216   7.264  0.4806  0.9090  0.1892
   13MOL0     C 1606   2.355  10.227   7.417  0.4029  0.3723 -0.8417
   13MOL0     C 1607   2.237  10.268   7.502  0.1035 -0.8821 -0.3862
   13MOL0     O 1608   2.207  10.405   7.485  1.1948 -0.3611  0.0336
   13MOL0     C 1609   2.070  10.450   7.506  0.2738 -0.1922  1.0545
   13MOL0     C 1610   2.046  10.577   7.452  1.2363  0.2343 -0.4987
   13MOL0     C 1611   1.917  10.635   7.459 -0.1678 -0.3420 -0.3033
   13MOL0     C 1612   1.823  10.575   7.546 -0.0950  0.1578  0.8918
   13MOL0     C 1613   1.687  10.625   7.572  0.2076 -1.3177  0.5485
   13MOL0     O 1614   1.594  10.550   7.642 -0.4430  0.0930 -0.3365
   13MOL0     C 1615   1.465  10.597   7.667  0.0749 -0.2898 -0.7615
   13MOL0     C 1616   1.455  10.694   7.775  0.0561  0.1613  0.8016
   13MOL0     C 1617   1.333  10.740   7.814  1.0481  0.7153 -0.1440
   13MOL0     C 1618   1.215  10.683   7.763  0.2378 -0.3838 -0.3844
   13MOL0     O 1619   1.094  10.723   7.801  0.8762  0.0965  0.2070
   13MOL0     C 1620   1.071  10.795   7.930  0.4005  0.7635  0.0576
   13MOL0     C 1621   1.036  10.936   7.888 -0.4004  0.2792 -0.6178
   13MOL0     C 1622   0.924  10.937   7.784  0.6434 -0.7057  0.0729
   13MOL0     C 1623   0.887  11.077   7.737 -0.5192 -0.8305  0.3889
   13MOL0     C 1624   0.992  11.141   7.634  0.2015  0.2562  0.4552
   13MOL0     C 1625   0.975  11.079   7.494 -0.3977 -0.7704  0.3480
   13MOL0     C 1626   0.837  11.110   7.426  0.4088  0.3918 -0.4477
   13MOL0     C 1627   0.814  11.256   7.391  0.3186 -0.2420  0.1427
   13MOL0    Cl 1628   0.663  11.282   7.300  0.3565  0.5273 -0.5043
   13MOL0     C 1629   1.221  10.593   7.660 -0.1641  0.3334 -0.2578
   13MOL0     C 1630   1.345  10.540   7.620 -0.3140  0.2744 -0.2793
   13MOL0     O 1631   1.656  10.730   7.519 -0.6571 -0.0647  0.1811
   13MOL0     C 1632   1.852  10.455   7.606 -0.2388  0.5217  0.1797
   13MOL0     C 1633   1.973  10.389   7.584 -0.2490  0.2431  0.9528
   13MOL0     N 1634   2.183  10.217   6.997 -0.2376 -0.2149 -0.5757
   13MOL0     N 1635   2.177  10.186   6.876  0.9798  0.5693 -0.1795
   13MOL0     C 1636   3.254  10.114   6.339 -0.3250 -0.2225 -0.0588
   13MOL0     C 1637   3.346  10.122   6.243  0.2263  0.4296 -0.3861
   13MOL0     C 1638   3.636  10.138   5.919  0.0934  0.3037  0.3736
   13MOL0     C 1639   3.743  10.047   5.938 -1.5936 -0.8504 -0.1140
   13MOL0     C 1640   3.871  10.063   5.867  1.0632  0.7030 -0.4383
   13MOL0     C 1641   3.887  10.171   5.787  0.7391 -0.4943 -0.5339
   13MOL0     O 1642   4.003  10.171   5.703  0.6551 -0.1283  0.0673
   13MOL0     C 1643   4.126  10.113   5.751  0.9440  0.7615  0.2623
   13MOL0     C 1644   4.235  10.163   5.658  0.2711  0.4358 -0.3587
   13MOL0     C 1645   4.293  10.300   5.701 -0.2899 -0.0091 -0.3723
   13MOL0     C 1646   4.431  10.316   5.635  0.8032 -0.2432 -0.7876
   13MOL0     C 1647   4.534  10.232   5.685  0.2462  0.0572  0.2724
   13MOL0     C 1648   4.625  10.161   5.723  0.3639 -0.0766  0.0275
   13MOL0     C 1649   3.783  10.262   5.760  0.4297  0.5207  0.0542
   13MOL0     C 1650   3.659  10.247   5.831  0.0119 -0.0515 -0.3013
   13MOL0     H 1651   3.314   9.821   6.105 -0.8809  0.5543  0.5561
   13MOL0     H 1652   3.123   9.812   6.267  0.6504  0.2563 -0.8051
   13MOL0     H 1653   3.031   9.827   6.502  0.2646 -0.7845 -0.1666
   13MOL0     H 1654   2.913   9.891   6.380  1.7112 -1.7189  0.3178
   13MOL0     H 1655   2.816  10.040   6.522 -0.6841 -1.0134  0.3010
   13MOL0     H 1656   2.922   9.998   6.657  1.8309  2.3088 -1.4588
   13MOL0     H 1657   2.817   9.757   6.652  0.4694  1.2089  2.0786
   13MOL0     H 1658   2.727   9.807   6.517  3.6291 -3.8076 -0.1604
   13MOL0     H 1659   2.702   9.918   6.808 -0.3214 -1.8627  1.3472
   13MOL0     H 1660   2.622   9.998   6.660  0.4014  1.1023  2.5282
   13MOL0     H 1661   2.584   9.733   6.787 -1.6368 -0.6099  0.1097
   13MOL0     H 1662   2.512   9.770   6.624  0.3192  0.9036 -0.6870
   13MOL0     H 1663   2.470   9.922   6.883  3.0563 -2.1362  0.1628
   13MOL0     H 1664   2.365   9.786   6.842  0.5926 -2.0695 -4.7810
   13MOL0     H 1665   2.376  10.048   6.680  2.8055 -0.3688  1.9345
   13MOL0     H 1666   2.333   9.907   6.594  0.6378 -0.3506 -0.2027
   13MOL0     H 1667   2.143   9.873   6.773 -0.9366 -0.5153 -3.1990
   13MOL0     H 1668   2.118  10.012   6.681 -2.2113 -0.9521  0.8948
   13MOL0     H 1669   2.199   9.891   7.037  0.6422  0.1172  0.4832
   13MOL0     H 1670   2.236  10.011   7.263  3.1757 -0.6358 -1.6096
   13MOL0     H 1671   2.117  10.142   7.275  0.6406 -0.2933  0.3933
   13MOL0     H 1672   2.286  10.308   7.219 -3.2857 -0.1395  0.9897
   13MOL0     H 1673   2.414  10.178   7.213 -0.8852 -1.9220 -0.2695
   13MOL0     H 1674   2.377  10.126   7.454 -3.5038 -0.0942  0.7910
   13MOL0     H 1675   2.441  10.291   7.435  0.2324  0.1017  1.1428
   13MOL0     H 1676   2.269  10.265   7.607 -0.6877  3.3075  0.1695
   13MOL0     H 1677   2.142  10.214   7.501 -1.9387  2.3662  0.3321
   13MOL0     H 1678   2.107  10.642   7.389 -0.4422  1.5144 -0.9180
   13MOL0     H 1679   1.885  10.729   7.415 -0.1140  0.7730  1.8716
   13MOL0     H 1680   1.549  10.733   7.812  1.6800 -0.9577 -1.8326
   13MOL0     H 1681   1.334  10.824   7.883 -0.0637  0.2719  0.4342
   13MOL0     H 1682   1.153  10.789   8.002  0.0438  0.0586  0.4159
   13MOL0     H 1683   0.982  10.757   7.982  2.0318  0.4162  2.7634
   13MOL0     H 1684   1.124  10.973   7.835  1.7021 -2.3822  0.7727
   13MOL0     H 1685   1.013  10.998   7.975  0.0880  2.9214 -2.2531
   13MOL0     H 1686   0.837  10.896   7.836  1.2650 -0.8563  1.0170
   13MOL0     H 1687   0.946  10.875   7.696 -0.8596 -1.7498  0.4049
   13MOL0     H 1688   0.783  11.084   7.703 -0.4869  3.5253  0.5486
   13MOL0     H 1689   0.888  11.150   7.820  1.1605  0.2838 -0.5582
   13MOL0     H 1690   1.096  11.126   7.664  0.5206  0.3313 -0.5777
   13MOL0     H 1691   0.972  11.249   7.624  1.7421  0.7530  2.2978
   13MOL0     H 1692   0.991  10.971   7.491 -2.9201 -1.1775 -0.9581
   13MOL0     H 1693   1.053  11.117   7.426  0.4219 -0.9127  1.1814
   13MOL0     H 1694   0.835  11.037   7.344  2.2027  2.2218 -2.2225
   13MOL0     H 1695   0.753  11.093   7.494  1.1610  1.4169  0.7634
   13MOL0     H 1696   0.902  11.292   7.337 -0.0384  1.7952  0.8226
   13MOL0     H 1697   0.811  11.313   7.484 -0.8243 -0.6116  0.3480
   13MOL0     H 1698   1.126  10.566   7.615  0.0332 -1.8918  0.5665
   13MOL0     H 1699   1.346  10.456   7.552  3.2993  1.4585 -1.9158
   13MOL0     H 1700   1.781  10.403   7.669 -1.2290 -0.8310 -1.9120
   13MOL0     H 1701   1.993  10.292   7.629  0.3232 -0.3867 -0.5801
   13MOL0     H 1702   3.235  10.193   6.412  3.1423 -0.1443  0.9224
   13MOL0     H 1703   3.410  10.210   6.253  2.0537 -1.0003  1.3269
   13MOL0     H 1704   3.727   9.951   5.987 -1.1337 -1.4070 -1.0202
   13MOL0     H 1705   3.947   9.986   5.880 -0.2839 -0.9749 -1.8962
   13MOL0     H 1706   4.124  10.004   5.746  0.4158  0.8264 -1.7180
   13MOL0     H 1707   4.139  10.144   5.855 -0.7770 -0.8305  1.0198
   13MOL0     H 1708   4.315  10.089   5.654 -0.7595 -0.9174  2.1075
   13MOL0     H 1709   4.190  10.174   5.559 -1.0648 -2.1478 -0.1115
   13MOL0     H 1710   4.292  10.302   5.811 -2.9393 -1.5165 -0.2933
   13MOL0     H 1711   4.221  10.370   5.658 -0.4494 -1.4125 -2.4775
   13MOL0     H 1712   4.425  10.304   5.527  0.9778  0.0111 -0.8246
   13MOL0     H 1713   4.477  10.411   5.662 -1.8675  0.5320  1.5509
   13MOL0     H 1714   4.708  10.096   5.739 -0.6067 -1.2606  0.4575
   13MOL0     H 1715   3.789  10.337   5.681  1.0393 -1.0873 -1.4962
   13MOL0     H 1716   3.568  10.300   5.805 -1.1261 -2.2255 -1.0949
   14MOL0     O 1717   6.188   0.972   0.687 -0.8883 -0.5313 -0.8840
   14MOL0     C 1718   6.239   0.931   0.789  0.4998 -0.2654  0.3791
   14MOL0     O 1719   6.172   0.884   0.905  0.2573 -0.6616  0.7516
   14MOL0     C 1720   6.034   0.875   0.902 -0.3287  0.3743  1.3356
   14MOL0     C 1721   5.977   0.745   0.889 -0.8089 -0.2918 -0.2406
   14MOL0     C 1722   5.837   0.733   0.898  0.0604 -0.6017  0.9271
   14MOL0     C 1723   5.761   0.847   0.918 -0.2118 -0.7646 -0.4720
   14MOL0     O 1724   5.624   0.833   0.919  0.1137 -0.0996 -0.8864
   14MOL0     C 1725   5.541   0.912   1.002 -0.1661 -0.6043  0.1903
   14MOL0     C 1726   5.402   0.833   1.024  0.2399 -0.1051 -0.5741
   14MOL0     C 1727   5.325   0.879   1.139 -0.4245  0.1188  0.1361
   14MOL0     C 1728   5.215   0.971   1.088  0.7077  0.2108  0.2211
   14MOL0     C 1729   5.115   0.990   1.202  0.5143 -0.1796  0.2847
   14MOL0     C 1730   4.998   1.085   1.166  0.2965 -0.1359 -0.2366
   14MOL0     C 1731   4.881   1.089   1.269 -0.5855  0.3860  0.8071
   14MOL0     C 1732   4.910   1.154   1.401 -0.5841  0.2499 -0.0630
   14MOL0     N 1733   4.786   1.160   1.478 -0.4180  0.0337  0.6034
   14MOL0     C 1734   4.731   1.283   1.516  0.5082  0.6000  0.8790
   14MOL0     C 1735   4.624   1.242   1.590  0.4064 -0.3514 -0.2570
   14MOL0     C 1736   4.518   1.332   1.637 -0.7914  0.1435  0.0257
   14MOL0     C 1737   4.374   1.297   1.592  0.2820  0.3480 -0.0496
   14MOL0     C 1738   4.352   1.299   1.442 -0.1889 -0.0198 -0.6800
   14MOL0     C 1739   4.199   1.320   1.416 -0.3984 -0.0600  0.3714
   14MOL0     O 1740   4.150   1.457   1.445  0.5019 -0.1366 -0.3244
   14MOL0     C 1741   4.014   1.483   1.418  0.1780 -0.3084 -0.5791
   14MOL0     C 1742   3.932   1.399   1.338  0.6445 -0.6710 -1.2735
   14MOL0     C 1743   3.796   1.425   1.304 -0.2270 -0.2219 -0.8932
   14MOL0     C 1744   3.738   1.548   1.344 -0.4770  0.1988 -0.8163
   14MOL0     C 1745   3.599   1.581   1.309 -0.2718  0.7209 -0.5088
   14MOL0     O 1746   3.543   1.696   1.360  0.5764 -0.1448  0.4732
   14MOL0     C 1747   3.400   1.701   1.362  0.0593 -0.7045  0.1244
   14MOL0     C 1748   3.342   1.813   1.295 -0.5015 -0.1122  0.4579
   14MOL0     C 1749   3.205   1.835   1.281  0.7744 -0.3708  0.6710
   14MOL0     C 1750   3.121   1.738   1.346  0.3865  0.4213  0.3332
   14MOL0     O 1751   2.983   1.762   1.347  0.2295  0.6965  0.2966
   14MOL0     C 1752   2.923   1.752   1.483  1.6249  0.8791  0.7823
   14MOL0     C 1753   2.795   1.817   1.472 -0.0173  0.4646  0.2212
   14MOL0     C 1754   2.808   1.968   1.491  0.4958 -0.9093 -0.1542
   14MOL0     C 1755   2.677   2.049   1.494  0.6458  0.3243 -0.0496
   14MOL0     C 1756   2.614   2.055   1.353  0.1874  0.5384  0.1179
   14MOL0     C 1757   2.477   2.135   1.347 -0.3208  0.7100 -0.9485
   14MOL0     C 1758   2.436   2.141   1.203  0.8050  0.0125 -0.2900
   14MOL0     C 1759   2.304   2.216   1.172 -0.9746 -0.2891 -0.2816
   14MOL0    Cl 1760   2.309   2.267   0.993  0.1716  0.4309  0.2708
   14MOL0     C 1761   3.176   1.621   1.402 -0.0780  0.0631  0.4336
   14MOL0     C 1762   3.312   1.608   1.408  0.2497  1.0310 -0.2702
   14MOL0     O 1763   3.537   1.491   1.244 -0.3346 -0.1742 -0.3785
   14MOL0     C 1764   3.825   1.634   1.418 -0.2223  0.1998  0.1515
   14MOL0     C 1765   3.954   1.600   1.455 -0.3580 -0.6994 -0.4425
   14MOL0     N 1766   4.622   1.108   1.609  0.3501  0.3046  0.0465
   14MOL0     N 1767   4.719   1.058   1.539 -0.4288  0.1743 -0.2450
   14MOL0     C 1768   5.818   0.970   0.931  0.5137  0.7283 -0.1666
   14MOL0     C 1769   5.957   0.988   0.930  0.5771 -0.3972  0.0770
   14MOL0     C 1770   6.383   0.941   0.806  0.1228 -0.5490 -0.2339
   14MOL0     C 1771   6.446   0.912   0.930  0.3136  0.0274  0.3831
   14MOL0     C 1772   6.587   0.900   0.949  0.3933 -0.8378 -0.4480
   14MOL0     C 1773   6.668   0.910   0.837  0.6332 -0.2130 -0.0658
   14MOL0     O 1774   6.804   0.879   0.828 -0.4726 -0.4594  0.9347
   14MOL0     C 1775   6.863   0.837   0.952 -0.7881  0.8579 -0.3230
   14MOL0     C 1776   7.003   0.790   0.912  0.1504 -0.3142  0.1323
   14MOL0     C 1777   7.087   0.902   0.846  0.1563 -0.4220 -0.6490
   14MOL0     C 1778   7.220   0.858   0.793  0.1450  0.1779 -0.6413
   14MOL0     C 1779   7.296   0.805   0.911  0.5775  0.5427 -0.4496
   14MOL0     C 1780   7.371   0.764   0.996 -0.7419 -0.0819  0.0593
   14MOL0     C 1781   6.614   0.958   0.720  0.5628  0.3595 -0.2976
   14MOL0     C 1782   6.476   0.981   0.704  0.9374 -0.2424  0.0764
   14MOL0     H 1783   6.027   0.649   0.888  0.1498  0.1730  0.6133
   14MOL0     H 1784   5.796   0.632   0.898 -0.1285 -0.6121 -2.2730
   14MOL0     H 1785   5.519   1.008   0.953  2.0438  0.5286  1.2922
   14MOL0     H 1786   5.584   0.919   1.102 -0.3763 -1.8623  0.3856
   14MOL0     H 1787   5.420   0.730   1.055 -0.6955  0.5171  2.3836
   14MOL0     H 1788   5.347   0.835   0.929  1.4500  1.7786 -1.2999
   14MOL0     H 1789   5.386   0.929   1.215  0.6463 -1.6249  0.4789
   14MOL0     H 1790   5.275   0.798   1.192 -0.4784  0.4129  0.5450
   14MOL0     H 1791   5.253   1.072   1.070  1.4060  0.0812  0.8980
   14MOL0     H 1792   5.171   0.944   0.992 -1.0576  1.6826  0.5728
   14MOL0     H 1793   5.163   1.031   1.291 -0.8628  0.6299  0.6968
   14MOL0     H 1794   5.062   0.895   1.218 -2.6499  1.3188 -0.4249
   14MOL0     H 1795   4.960   1.064   1.065  1.8658 -1.6041 -0.5814
   14MOL0     H 1796   5.043   1.184   1.155 -1.7304  0.7831 -0.6412
   14MOL0     H 1797   4.803   1.150   1.224 -0.8243  1.1194  2.1629
   14MOL0     H 1798   4.849   0.986   1.287  2.0014 -0.1460  2.9067
   14MOL0     H 1799   4.955   1.253   1.389  0.4844 -0.3267 -1.0787
   14MOL0     H 1800   4.986   1.095   1.454 -1.3768 -1.2066 -0.4937
   14MOL0     H 1801   4.760   1.380   1.478  1.3243 -0.2446 -0.7573
   14MOL0     H 1802   4.544   1.428   1.591 -1.8341  0.0396 -0.8086
   14MOL0     H 1803   4.531   1.329   1.745  5.6680  1.7583 -0.2932
   14MOL0     H 1804   4.323   1.377   1.645 -1.6929 -0.7846 -0.1549
   14MOL0     H 1805   4.335   1.201   1.627 -0.2486 -0.7554 -3.3100
   14MOL0     H 1806   4.400   1.389   1.402  0.3663 -0.3889 -0.8711
   14MOL0     H 1807   4.394   1.210   1.394  1.6162  0.0362  0.6959
   14MOL0     H 1808   4.146   1.248   1.479  0.6118 -1.1682 -0.0283
   14MOL0     H 1809   4.177   1.296   1.312  0.3855 -0.5025  0.3038
   14MOL0     H 1810   3.976   1.305   1.309  0.2666 -1.2914  0.0853
   14MOL0     H 1811   3.730   1.351   1.259  0.3049 -2.6493  1.9984
   14MOL0     H 1812   3.412   1.878   1.242 -0.0291 -0.2314  0.9204
   14MOL0     H 1813   3.167   1.932   1.248  0.3317 -0.8861 -0.3666
   14MOL0     H 1814   2.986   1.794   1.562 -0.5771  2.1028  1.9741
   14MOL0     H 1815   2.902   1.649   1.514  1.4919  1.2067  1.8235
   14MOL0     H 1816   2.727   1.790   1.553 -1.2608  0.1134 -0.9108
   14MOL0     H 1817   2.738   1.800   1.381  1.0440 -2.0356 -0.0654
   14MOL0     H 1818   2.867   2.007   1.407  1.5538 -4.3148 -1.1633
   14MOL0     H 1819   2.853   1.982   1.590 -2.4837 -1.2325  1.3723
   14MOL0     H 1820   2.596   2.021   1.562 -0.3959  1.8992 -0.5869
   14MOL0     H 1821   2.721   2.143   1.529  5.3337 -1.6533  0.1815
   14MOL0     H 1822   2.591   1.955   1.316  4.2519 -0.3322 -0.5728
   14MOL0     H 1823   2.694   2.108   1.300  0.6183 -0.2403 -0.0160
   14MOL0     H 1824   2.493   2.237   1.385  0.1486  1.3013 -2.6514
   14MOL0     H 1825   2.401   2.093   1.412  1.4964  2.2534  2.4804
   14MOL0     H 1826   2.523   2.195   1.164  0.6581  1.0130  0.7101
   14MOL0     H 1827   2.424   2.041   1.161 -0.5688  0.7312 -1.6902
   14MOL0     H 1828   2.286   2.311   1.225  0.5561  0.4978 -1.1151
   14MOL0     H 1829   2.220   2.150   1.194  1.7566 -3.6455  0.8874
   14MOL0     H 1830   3.105   1.543   1.426 -1.2305  0.6179 -1.0530
   14MOL0     H 1831   3.347   1.513   1.446 -1.8249  0.1275 -0.4774
   14MOL0     H 1832   3.787   1.729   1.456 -2.2475  0.5105 -2.3672
   14MOL0     H 1833   4.003   1.670   1.523 -1.3023  1.1905 -1.6133
   14MOL0     H 1834   5.746   1.050   0.940 -0.9104 -0.4109 -1.0011
   14MOL0     H 1835   6.006   1.084   0.946  0.5389 -0.6144  1.6021
   14MOL0     H 1836   6.388   0.893   1.020  2.1588 -1.6557  1.3183
   14MOL0     H 1837   6.620   0.893   1.052 -2.1308 -0.1306  0.4860
   14MOL0     H 1838   6.800   0.756   0.991 -1.0875  0.6853 -1.1357
   14MOL0     H 1839   6.857   0.918   1.025 -2.1477 -0.9832  1.7272
   14MOL0     H 1840   7.056   0.753   1.000  1.0199 -0.4263 -0.4246
   14MOL0     H 1841   7.003   0.711   0.836 -1.3686  3.7278 -4.5791
   14MOL0     H 1842   7.105   0.983   0.917 -2.2758  0.3143 -0.7938
   14MOL0     H 1843   7.037   0.942   0.758  0.8410 -1.2922 -1.4568
   14MOL0     H 1844   7.210   0.773   0.724  1.6321  1.8226 -3.0207
   14MOL0     H 1845   7.279   0.941   0.755  1.1125  0.0978  0.5962
   14MOL0     H 1846   7.423   0.745   1.088  0.3601 -3.5779 -1.1615
   14MOL0     H 1847   6.684   0.977   0.639  1.0232  2.9181  0.5960
   14MOL0     H 1848   6.454   1.010   0.601  0.9842  1.7975  0.6115
   15MOL0     O 1849   1.241   9.166   2.207  0.3609 -0.0705 -0.0765
   15MOL0     C 1850   1.254   9.054   2.259 -0.7527 -0.6225  0.0586
   15MOL0     O 1851   1.229   9.019   2.384  0.0204  0.9579  0.6549
   15MOL0     C 1852   1.157   9.104   2.459 -0.6539 -0.5930 -0.4712
   15MOL0     C 1853   1.211   9.162   2.573  0.0492  1.0931  0.1077
   15MOL0     C 1854   1.143   9.244   2.664  0.4041  0.1782 -0.3362
   15MOL0     C 1855   1.009   9.262   2.649  0.7910 -0.7040  0.8396
   15MOL0     O 1856   0.944   9.329   2.755  0.3126 -0.0526  0.2497
   15MOL0     C 1857   0.858   9.246   2.822 -0.3459 -0.1833 -0.6456
   15MOL0     C 1858   0.717   9.289   2.790  0.6078 -0.3840  0.3715
   15MOL0     C 1859   0.619   9.230   2.898 -0.3035  0.5239  0.3394
   15MOL0     C 1860   0.480   9.268   2.851  0.8754  0.5669  0.4827
   15MOL0     C 1861   0.370   9.179   2.925 -1.2728 -0.2837  0.1405
   15MOL0     C 1862   0.232   9.186   2.866 -0.9789  0.0524 -0.0802
   15MOL0     C 1863   0.132   9.104   2.945 -0.1634  0.4135  0.2933
   15MOL0     C 1864  -0.006   9.089   2.883  0.6741  0.3334  0.4021
   15MOL0     N 1865  -0.070   8.954   2.911 -0.1347  0.4562 -0.0862
   15MOL0     C 1866  -0.180   8.925   2.993 -1.0091 -0.6054 -0.4051
   15MOL0     C 1867  -0.201   8.789   2.993 -0.0578 -0.7809  0.5517
   15MOL0     C 1868  -0.309   8.724   3.070 -0.3107 -0.4290 -0.7295
   15MOL0     C 1869  -0.398   8.646   2.972 -0.0908  0.2675  0.0672
   15MOL0     C 1870  -0.529   8.586   3.034  0.8254 -0.6172  0.0055
   15MOL0     C 1871  -0.611   8.685   3.117  0.7489 -0.0014  0.1037
   15MOL0     O 1872  -0.754   8.666   3.100 -0.1832 -0.7259  0.0413
   15MOL0     C 1873  -0.826   8.584   3.187  0.0705  0.6470  0.0954
   15MOL0     C 1874  -0.775   8.525   3.304  0.6897 -0.4961 -0.3809
   15MOL0     C 1875  -0.865   8.464   3.401  0.9199 -1.2969 -0.3688
   15MOL0     C 1876  -1.005   8.442   3.368 -1.1266 -0.4305  0.0016
   15MOL0     C 1877  -1.102   8.365   3.453 -0.3582 -0.1234 -0.2710
   15MOL0     O 1878  -1.229   8.375   3.409 -0.3872 -0.2798 -0.4254
   15MOL0     C 1879  -1.324   8.288   3.447 -0.3997  0.6036 -0.1270
   15MOL0     C 1880  -1.429   8.254   3.357  0.0647  0.3061 -0.7140
   15MOL0     C 1881  -1.542   8.181   3.407 -0.3074  0.8082  0.0145
   15MOL0     C 1882  -1.547   8.131   3.540 -0.4833  0.1749  0.2787
   15MOL0     O 1883  -1.650   8.050   3.589 -0.2551 -0.0947 -0.3512
   15MOL0     C 1884  -1.783   8.066   3.543  0.1770 -1.1766 -0.8901
   15MOL0     C 1885  -1.880   8.025   3.658  0.1426 -0.0398  1.1360
   15MOL0     C 1886  -1.842   8.091   3.790  0.5388 -0.5800 -0.0811
   15MOL0     C 1887  -1.881   8.236   3.777 -0.1819  0.8894 -0.1895
   15MOL0     C 1888  -1.881   8.307   3.911  0.1854  0.2932  0.2984
   15MOL0     C 1889  -1.910   8.452   3.900 -0.4091  0.0312  0.0547
   15MOL0     C 1890  -1.895   8.521   4.036 -0.2615 -0.3456 -0.2931
   15MOL0     C 1891  -1.968   8.657   4.037 -0.1862  0.8213  0.1190
   15MOL0    Cl 1892  -1.887   8.776   3.932  0.0913  0.0892 -0.3607
   15MOL0     C 1893  -1.444   8.166   3.623 -0.6863  0.0183  0.4655
   15MOL0     C 1894  -1.331   8.233   3.577 -0.3379 -0.4211 -0.5678
   15MOL0     O 1895  -1.064   8.296   3.547 -1.0011  0.0437 -0.5639
   15MOL0     C 1896  -1.050   8.508   3.247  0.2260 -0.4508 -0.7732
   15MOL0     C 1897  -0.967   8.583   3.170 -0.4672  0.0734  1.2690
   15MOL0     N 1898  -0.109   8.736   2.907  0.3931  0.0357 -0.2911
   15MOL0     N 1899  -0.021   8.835   2.878 -0.1964  0.3839  0.2733
   15MOL0     C 1900   0.942   9.214   2.540  0.2360  0.0619 -0.2689
   15MOL0     C 1901   1.014   9.134   2.446 -0.4791  0.3632 -0.3786
   15MOL0     C 1902   1.314   8.959   2.162  0.2933  0.2454 -0.7059
   15MOL0     C 1903   1.361   9.000   2.041 -0.2993 -0.1273  1.5486
   15MOL0     C 1904   1.411   8.898   1.950 -0.7467  0.2493 -0.6276
   15MOL0     C 1905   1.422   8.764   1.997 -0.1682 -0.2736  0.1893
   15MOL0     O 1906   1.493   8.670   1.922  0.3956  0.1234  0.7444
   15MOL0     C 1907   1.538   8.712   1.799  0.7154  0.0099 -0.2531
   15MOL0     C 1908   1.609   8.612   1.715 -0.0743 -0.1466 -0.2867
   15MOL0     C 1909   1.511   8.498   1.668 -0.7697 -0.7882  0.4061
   15MOL0     C 1910   1.381   8.533   1.600 -0.1591 -0.0023 -1.9800
   15MOL0     C 1911   1.318   8.407   1.574  0.4772  0.8622 -0.6090
   15MOL0     C 1912   1.253   8.311   1.559  0.4423 -0.0937  0.1573
   15MOL0     C 1913   1.372   8.723   2.116  0.5304 -0.3947 -0.1298
   15MOL0     C 1914   1.321   8.828   2.201 -0.1300  0.5330 -0.1144
   15MOL0     H 1915   1.319   9.147   2.570  0.6873  4.6741  0.0890
   15MOL0     H 1916   1.203   9.288   2.743  0.9794 -0.8208 -0.2078
   15MOL0     H 1917   0.888   9.265   2.925 -0.6310 -1.7256 -0.2467
   15MOL0     H 1918   0.878   9.140   2.806 -1.1712 -0.5678  0.6460
   15MOL0     H 1919   0.687   9.246   2.694  0.5167  0.1208  0.1669
   15MOL0     H 1920   0.717   9.397   2.772  4.0057  0.1145  2.4168
   15MOL0     H 1921   0.634   9.265   3.001  0.3486 -0.0309  0.4397
   15MOL0     H 1922   0.623   9.121   2.897 -0.5793  0.4785 -2.5125
   15MOL0     H 1923   0.461   9.369   2.891 -0.8399  0.3677  0.2324
   15MOL0     H 1924   0.467   9.260   2.743 -2.2627  2.2513  0.6090
   15MOL0     H 1925   0.364   9.218   3.027  0.3329 -2.1987  1.0307
   15MOL0     H 1926   0.411   9.078   2.933 -1.2502 -0.1574  1.8570
   15MOL0     H 1927   0.246   9.146   2.765 -0.2733 -1.7106  0.6836
   15MOL0     H 1928   0.196   9.289   2.854 -0.4318  0.3791  0.9329
   15MOL0     H 1929   0.161   8.998   2.941  1.7112  0.9297 -1.1400
   15MOL0     H 1930   0.114   9.132   3.050 -0.9729 -4.2402  1.6293
   15MOL0     H 1931  -0.009   9.101   2.774  1.4474  0.1830  0.3559
   15MOL0     H 1932  -0.079   9.157   2.927  1.0714 -1.5498  4.3974
   15MOL0     H 1933  -0.234   8.997   3.053  2.3383  0.7337  1.2174
   15MOL0     H 1934  -0.362   8.789   3.141  0.2734 -3.1866  2.5462
   15MOL0     H 1935  -0.277   8.644   3.138  2.0721  0.4238 -0.7674
   15MOL0     H 1936  -0.336   8.570   2.925 -1.2786  0.4399 -1.9080
   15MOL0     H 1937  -0.409   8.723   2.895  0.1230 -0.1922 -0.4359
   15MOL0     H 1938  -0.585   8.543   2.950 -1.0129  0.1527  0.7817
   15MOL0     H 1939  -0.500   8.505   3.101  0.2834 -0.2246  0.7321
   15MOL0     H 1940  -0.595   8.787   3.080  0.0745  0.6585  1.5286
   15MOL0     H 1941  -0.574   8.689   3.220  3.8258 -1.6526 -0.8299
   15MOL0     H 1942  -0.672   8.544   3.334 -0.0235 -0.9258  2.7277
   15MOL0     H 1943  -0.824   8.435   3.497 -1.0085 -0.8286  0.6324
   15MOL0     H 1944  -1.423   8.292   3.255  0.3456  2.1986 -0.0353
   15MOL0     H 1945  -1.629   8.166   3.344  0.9537  0.8255 -1.7863
   15MOL0     H 1946  -1.805   7.999   3.459 -1.0493 -2.0298  0.0806
   15MOL0     H 1947  -1.801   8.170   3.515  0.6642 -0.8473 -0.0088
   15MOL0     H 1948  -1.875   7.916   3.661  1.3596 -0.1285 -1.5623
   15MOL0     H 1949  -1.985   8.052   3.645  0.1480  0.8203  2.6512
   15MOL0     H 1950  -1.734   8.080   3.805  0.9776  1.0845 -1.6252
   15MOL0     H 1951  -1.880   8.041   3.879  0.4539  2.1270  1.4925
   15MOL0     H 1952  -1.802   8.284   3.719 -1.3175 -0.1079 -2.7149
   15MOL0     H 1953  -1.979   8.246   3.729 -0.7965  0.1582  0.8875
   15MOL0     H 1954  -1.779   8.297   3.951  0.0388  0.2032  0.6536
   15MOL0     H 1955  -1.952   8.261   3.980 -0.2893  1.4937  0.6157
   15MOL0     H 1956  -2.014   8.464   3.867 -0.6622  0.1089  0.8544
   15MOL0     H 1957  -1.845   8.500   3.827 -0.2202  0.1814  0.3176
   15MOL0     H 1958  -1.955   8.455   4.099 -5.0287  1.8568 -2.0191
   15MOL0     H 1959  -1.793   8.536   4.072 -0.8774  0.9499  1.0486
   15MOL0     H 1960  -1.973   8.696   4.139  2.0322  3.7807 -0.7821
   15MOL0     H 1961  -2.071   8.645   4.003 -0.3398 -3.4178  1.4484
   15MOL0     H 1962  -1.452   8.132   3.726 -1.6470 -1.7524 -0.1562
   15MOL0     H 1963  -1.266   8.252   3.661  0.7952 -6.6672  0.4051
   15MOL0     H 1964  -1.148   8.498   3.202  0.3275  0.5293 -1.2492
   15MOL0     H 1965  -1.007   8.643   3.089 -0.9453  1.8529  2.7374
   15MOL0     H 1966   0.834   9.230   2.539 -0.0850 -1.6513  1.2290
   15MOL0     H 1967   0.967   9.091   2.358  0.3822  0.4680 -0.9090
   15MOL0     H 1968   1.367   9.106   2.016  2.1275 -0.3265  1.0316
   15MOL0     H 1969   1.428   8.923   1.846 -0.3444  1.7186 -0.2402
   15MOL0     H 1970   1.604   8.798   1.811  0.5016  0.1977 -0.4374
   15MOL0     H 1971   1.453   8.741   1.738 -0.6836 -1.3841  0.9579
   15MOL0     H 1972   1.645   8.657   1.622  1.3238 -2.5865 -1.0189
   15MOL0     H 1973   1.695   8.567   1.766 -0.9461 -1.3630  0.1566
   15MOL0     H 1974   1.490   8.435   1.755  1.2563  0.5018  1.9407
   15MOL0     H 1975   1.560   8.449   1.583  1.6865 -0.4801  1.5509
   15MOL0     H 1976   1.321   8.596   1.666  2.8181 -0.2258  1.2725
   15MOL0     H 1977   1.391   8.600   1.514 -2.5883  1.4444 -1.2193
   15MOL0     H 1978   1.186   8.232   1.531 -2.2873  1.9959  0.3821
   15MOL0     H 1979   1.398   8.621   2.144  3.0464 -0.1447 -1.2773
   15MOL0     H 1980   1.293   8.800   2.302 -1.9057  1.0587 -0.4234
   16MOL0     O 1981   3.445  10.747   0.144 -0.0239 -0.5379  0.3310
   16MOL0     C 1982   3.514  10.664   0.080  0.5677 -0.9020 -0.5403
   16MOL0     O 1983   3.488  10.533   0.062  0.5467 -0.7182  0.3214
   16MOL0     C 1984   3.361  10.481   0.083 -0.2981  0.7502 -0.1082
   16MOL0     C 1985   3.246  10.539   0.025 -0.5690  0.4917 -0.1492
   16MOL0     C 1986   3.116  10.489   0.054 -0.4403  0.6302 -0.2451
   16MOL0     C 1987   3.097  10.394   0.155 -0.1807  0.5774 -0.0873
   16MOL0     O 1988   2.967  10.355   0.189 -0.4841  0.0514  0.2955
   16MOL0     C 1989   2.860  10.410   0.110 -0.5434  1.1896 -0.5987
   16MOL0     C 1990   2.728  10.382   0.187 -0.5743  0.2406  1.0397
   16MOL0     C 1991   2.599  10.433   0.102  0.2504 -0.3846 -0.8398
   16MOL0     C 1992   2.483  10.426   0.199  0.7146 -0.3274 -0.2869
   16MOL0     C 1993   2.350  10.456   0.128  0.1668 -0.1504  0.3611
   16MOL0     C 1994   2.231  10.448   0.220  0.4276 -0.1818  0.7376
   16MOL0     C 1995   2.100  10.510   0.169  0.8149  0.5592 -0.5571
   16MOL0     C 1996   2.002  10.525   0.285  0.4427  0.7610 -0.1296
   16MOL0     N 1997   1.869  10.568   0.236 -0.6381  0.6363 -0.4373
   16MOL0     C 1998   1.761  10.491   0.223  0.1775  0.3270  0.5759
   16MOL0     C 1999   1.662  10.581   0.186 -0.4839  0.3478  0.0555
   16MOL0     C 2000   1.520  10.557   0.200  0.2283  0.0607 -0.1287
   16MOL0     C 2001   1.480  10.460   0.091 -0.7899  0.8400  0.2660
   16MOL0     C 2002   1.335  10.409   0.114 -0.0357 -0.5578  0.4577
   16MOL0     C 2003   1.213  10.496   0.071 -0.5623  0.5970  0.9382
   16MOL0     O 2004   1.179  10.575   0.181 -0.1441 -0.2215  0.3319
   16MOL0     C 2005   1.041  10.608   0.202 -1.2105 -0.1126 -1.3847
   16MOL0     C 2006   0.934  10.591   0.118 -0.0208  0.9883  0.3966
   16MOL0     C 2007   0.808  10.624   0.154  0.0373 -0.3934 -0.0764
   16MOL0     C 2008   0.781  10.677   0.291 -0.3404  0.0126  0.6541
   16MOL0     C 2009   0.645  10.715   0.322  0.0905  0.6739 -0.1662
   16MOL0     O 2010   0.619  10.743   0.454  0.3725 -0.1688  0.0124
   16MOL0     C 2011   0.486  10.781   0.480  0.2726  0.6058 -0.9669
   16MOL0     C 2012   0.421  10.707   0.578 -0.0224  0.0744  0.2697
   16MOL0     C 2013   0.289  10.725   0.612  0.3831  0.7103 -0.1894
   16MOL0     C 2014   0.214  10.828   0.556  0.1484  0.5748 -0.0136
   16MOL0     O 2015   0.078  10.852   0.563  0.1590 -0.4884  0.5692
   16MOL0     C 2016  -0.001  10.771   0.648  0.3594 -0.9522  0.5552
   16MOL0     C 2017  -0.138  10.840   0.671 -0.1194 -0.1707 -0.1585
   16MOL0     C 2018  -0.218  10.755   0.769 -0.1735 -0.1178  0.0052
   16MOL0     C 2019  -0.334  10.846   0.819 -0.5028 -0.7482  0.0144
   16MOL0     C 2020  -0.441  10.751   0.862  0.8343 -0.0723  0.4008
   16MOL0     C 2021  -0.550  10.821   0.946 -0.4523  0.3935  0.0173
   16MOL0     C 2022  -0.673  10.734   0.962  0.4518  0.6396 -0.3308
   16MOL0     C 2023  -0.799  10.823   1.010  0.3291  0.6810  0.3682
   16MOL0    Cl 2024  -0.943  10.707   1.007  0.0064  0.5353 -0.0142
   16MOL0     C 2025   0.277  10.910   0.460  0.1069 -0.4426  0.6273
   16MOL0     C 2026   0.412  10.885   0.429 -0.1113  0.5245  0.3594
   16MOL0     O 2027   0.560  10.699   0.236  0.4364 -0.7918  0.2971
   16MOL0     C 2028   0.889  10.705   0.374 -0.5984  0.3393  0.5342
   16MOL0     C 2029   1.015  10.660   0.330 -0.0209  0.5909  0.2274
   16MOL0     N 2030   1.718  10.699   0.152 -0.2314 -0.0197  0.5002
   16MOL0     N 2031   1.842  10.695   0.186  0.2630 -0.2732  0.6224
   16MOL0     C 2032   3.204  10.347   0.231 -0.2644 -0.0292  0.1260
   16MOL0     C 2033   3.335  10.385   0.184 -0.0881  0.2885  0.5512
   16MOL0     C 2034   3.634  10.720   0.017 -0.7158 -0.4579  0.1065
   16MOL0     C 2035   3.724  10.629  -0.050  0.0862  0.3512  0.5132
   16MOL0     C 2036   3.852  10.671  -0.091 -0.1639  0.5502 -0.3417
   16MOL0     C 2037   3.892  10.807  -0.062  0.5205  0.6527  0.3727
   16MOL0     O 2038   3.997  10.872  -0.103 -0.6475 -0.5089 -0.2547
   16MOL0     C 2039   4.104  10.794  -0.163 -0.2528  0.4353 -0.1407
   16MOL0     C 2040   4.219  10.788  -0.057 -0.0419  0.8612  0.1051
   16MOL0     C 2041   4.350  10.737  -0.124 -0.6578  0.0404 -0.2293
   16MOL0     C 2042   4.464  10.715  -0.037  0.6781  0.2271 -0.3318
   16MOL0     C 2043   4.452  10.601   0.055  0.1155 -0.1174  0.1792
   16MOL0     C 2044   4.428  10.496   0.114 -0.4744 -0.5245 -0.5043
   16MOL0     C 2045   3.795  10.883   0.001  0.0087 -0.4313  0.0358
   16MOL0     C 2046   3.672  10.848   0.043 -0.8339  0.4438  0.4396
   16MOL0     H 2047   3.270  10.608  -0.055  0.2824  0.0506 -0.2855
   16MOL0     H 2048   3.031  10.526  -0.003 -1.4351 -1.6844 -0.3660
   16MOL0     H 2049   2.857  10.358   0.014 -0.7796  0.2953 -0.1255
   16MOL0     H 2050   2.867  10.519   0.104  2.6575  1.0440 -0.7461
   16MOL0     H 2051   2.734  10.433   0.283  2.0293  2.6931 -0.2891
   16MOL0     H 2052   2.720  10.274   0.203 -2.7171 -0.0420 -1.3762
   16MOL0     H 2053   2.580  10.375   0.012  0.1435 -0.4861 -0.7525
   16MOL0     H 2054   2.616  10.535   0.066  1.9041 -0.7034 -1.0228
   16MOL0     H 2055   2.468  10.324   0.234 -0.8866  0.5483  1.7732
   16MOL0     H 2056   2.490  10.493   0.285 -1.5435 -1.1893  0.6235
   16MOL0     H 2057   2.338  10.392   0.041 -0.2038  1.3487 -0.7318
   16MOL0     H 2058   2.353  10.558   0.088 -0.8239  0.1124  0.9181
   16MOL0     H 2059   2.259  10.497   0.314 -0.3889  1.7190  0.0305
   16MOL0     H 2060   2.220  10.340   0.237  0.2239 -0.4414 -0.8894
   16MOL0     H 2061   2.124  10.606   0.123 -0.3573 -0.0343 -2.5178
   16MOL0     H 2062   2.061  10.441   0.093  0.9275  2.5510 -2.5257
   16MOL0     H 2063   2.035  10.599   0.358 -0.9796  1.4480 -0.1285
   16MOL0     H 2064   2.007  10.430   0.338 -0.4351  1.3901  1.1406
   16MOL0     H 2065   1.739  10.394   0.267 -1.4600  0.5611  0.3201
   16MOL0     H 2066   1.462  10.650   0.201  0.0088 -0.0752 -0.0804
   16MOL0     H 2067   1.495  10.513   0.297 -1.1415  1.5322  0.2388
   16MOL0     H 2068   1.556  10.382   0.102  0.0525  1.6974  0.7270
   16MOL0     H 2069   1.483  10.505  -0.008 -0.5694 -2.7521 -1.5221
   16MOL0     H 2070   1.340  10.317   0.056  1.5951  1.3917 -2.7943
   16MOL0     H 2071   1.328  10.383   0.220  4.3442  1.0011  1.3313
   16MOL0     H 2072   1.135  10.431   0.029  0.7943  0.6469 -1.8575
   16MOL0     H 2073   1.250  10.567  -0.003 -1.9077 -0.4976 -0.8610
   16MOL0     H 2074   0.948  10.533   0.028  0.5020 -2.1894  2.3693
   16MOL0     H 2075   0.723  10.614   0.087  1.1341  1.7578 -1.9498
   16MOL0     H 2076   0.477  10.628   0.627  0.3900  0.3027  0.1770
   16MOL0     H 2077   0.237  10.671   0.691 -0.0996 -0.4889 -1.2942
   16MOL0     H 2078   0.054  10.757   0.741  2.2567 -0.2568 -0.4197
   16MOL0     H 2079  -0.015  10.674   0.599 -0.8838 -0.3170 -0.4178
   16MOL0     H 2080  -0.191  10.844   0.575  2.6948  0.7832 -1.8058
   16MOL0     H 2081  -0.119  10.943   0.703  1.1586 -0.8824  1.4688
   16MOL0     H 2082  -0.152  10.735   0.854 -0.2944  2.1487  0.7034
   16MOL0     H 2083  -0.253  10.656   0.740 -1.0800 -0.3464  1.7405
   16MOL0     H 2084  -0.292  10.902   0.903  0.4370 -0.2781 -0.7554
   16MOL0     H 2085  -0.367  10.920   0.746 -0.6053  0.3603  1.1357
   16MOL0     H 2086  -0.410  10.654   0.901 -0.8036 -1.5266 -1.6654
   16MOL0     H 2087  -0.494  10.727   0.769  0.3599  2.1657  0.0498
   16MOL0     H 2088  -0.582  10.912   0.894 -0.0017 -0.2087 -1.3750
   16MOL0     H 2089  -0.514  10.838   1.048  1.1785 -1.8187 -0.1065
   16MOL0     H 2090  -0.695  10.685   0.867 -3.7108  1.8724 -0.1877
   16MOL0     H 2091  -0.667  10.651   1.034 -3.4891  1.5350  1.2768
   16MOL0     H 2092  -0.816  10.900   0.935 -2.7942  0.2950  0.5599
   16MOL0     H 2093  -0.788  10.873   1.107 -0.6372  0.7399  0.4526
   16MOL0     H 2094   0.227  10.992   0.409 -1.6178 -2.1445 -0.5818
   16MOL0     H 2095   0.466  10.947   0.359 -1.0791  0.0512 -0.8413
   16MOL0     H 2096   0.891  10.746   0.475  1.8693 -1.2754  1.2313
   16MOL0     H 2097   1.098  10.673   0.398  0.8087  0.2149 -0.7053
   16MOL0     H 2098   3.201  10.278   0.315  0.2390  0.1713  0.3162
   16MOL0     H 2099   3.422  10.350   0.240  0.6554  1.2545  0.0104
   16MOL0     H 2100   3.703  10.526  -0.075  2.3497  0.6528 -3.5452
   16MOL0     H 2101   3.922  10.600  -0.134  0.0185  0.2514  0.4394
   16MOL0     H 2102   4.130  10.854  -0.251  0.2216 -0.2885 -0.5014
   16MOL0     H 2103   4.077  10.691  -0.187 -3.2324  0.4276  2.5078
   16MOL0     H 2104   4.243  10.874   0.006  2.1250 -0.8102  1.7458
   16MOL0     H 2105   4.194  10.711   0.015 -0.5704  2.2668  1.4742
   16MOL0     H 2106   4.389  10.809  -0.197 -0.0687  1.0470  1.0425
   16MOL0     H 2107   4.328  10.647  -0.184 -0.5794  1.0936 -1.9189
   16MOL0     H 2108   4.552  10.691  -0.097  0.0712 -0.0711 -1.1148
   16MOL0     H 2109   4.486  10.810   0.014 -1.9008 -0.0692  1.5115
   16MOL0     H 2110   4.405  10.420   0.186 -0.2709  1.2683  1.5363
   16MOL0     H 2111   3.815  10.989   0.011 -1.1776 -0.0551 -1.3427
   16MOL0     H 2112   3.612  10.927   0.089  0.0230  1.6749 -0.4853
   17MOL0     O 2113   6.409  10.962   5.420 -0.0097 -0.2170 -0.2392
   17MOL0     C 2114   6.381  10.877   5.331  0.0616  0.4823  0.0801
   17MOL0     O 2115   6.401  10.746   5.336  0.1134  0.2591 -0.1501
   17MOL0     C 2116   6.471  10.699   5.442  1.5748 -0.5926 -0.2913
   17MOL0     C 2117   6.609  10.705   5.438  0.1877 -1.2967 -0.8941
   17MOL0     C 2118   6.673  10.649   5.549  0.1277 -0.9940 -0.4602
   17MOL0     C 2119   6.612  10.609   5.665  0.0616  0.5626  0.3183
   17MOL0     O 2120   6.682  10.568   5.774  0.0280 -0.3366  0.3909
   17MOL0     C 2121   6.613  10.550   5.897  0.1734 -0.3225 -0.4242
   17MOL0     C 2122   6.722  10.537   6.009  0.0134  0.3139 -0.3629
   17MOL0     C 2123   6.666  10.470   6.131  0.3778  0.8222 -0.2142
   17MOL0     C 2124   6.764  10.425   6.236  0.4055 -0.7929 -0.4792
   17MOL0     C 2125   6.692  10.399   6.366  0.0285  1.1916 -0.5501
   17MOL0     C 2126   6.753  10.298   6.465 -0.1550  0.1380 -0.5148
   17MOL0     C 2127   6.651  10.263   6.571 -0.6531 -0.2249  0.1084
   17MOL0     C 2128   6.707  10.167   6.677  0.5612  0.8177  0.2009
   17MOL0     N 2129   6.599  10.118   6.757 -0.6341 -0.2850 -0.4413
   17MOL0     C 2130   6.618  10.003   6.826  0.1003  1.0330  0.0612
   17MOL0     C 2131   6.499   9.973   6.885 -0.4396 -0.2544 -0.3284
   17MOL0     C 2132   6.469   9.837   6.955  0.2553 -0.7131  0.6131
   17MOL0     C 2133   6.563   9.821   7.071 -1.2261  0.7397 -0.8351
   17MOL0     C 2134   6.546   9.944   7.167 -0.1518  0.3380 -0.5872
   17MOL0     C 2135   6.605   9.922   7.303  0.5021  0.3431  0.1785
   17MOL0     O 2136   6.554   9.813   7.383  0.9749 -0.2299  0.4726
   17MOL0     C 2137   6.420   9.778   7.378  0.5082 -0.1758 -0.1189
   17MOL0     C 2138   6.315   9.859   7.411 -0.2411  0.4243 -0.4003
   17MOL0     C 2139   6.181   9.819   7.399 -0.7484  0.5843 -0.0167
   17MOL0     C 2140   6.151   9.681   7.381 -0.2308  1.2584  0.7223
   17MOL0     C 2141   6.015   9.614   7.402 -0.2083 -0.6559  0.5064
   17MOL0     O 2142   5.926   9.694   7.474  0.5708 -0.0053 -0.0833
   17MOL0     C 2143   5.791   9.662   7.505 -0.6657  0.1316  1.1814
   17MOL0     C 2144   5.723   9.732   7.604 -0.8651  0.4926  0.0638
   17MOL0     C 2145   5.590   9.709   7.636  0.3749  0.2643  0.9034
   17MOL0     C 2146   5.519   9.615   7.564  0.5871  0.9931 -0.4927
   17MOL0     O 2147   5.385   9.597   7.605  0.3767 -0.5126  0.1365
   17MOL0     C 2148   5.295   9.534   7.507 -0.1399 -0.7520 -0.7334
   17MOL0     C 2149   5.152   9.575   7.545  0.1284 -0.4230 -0.3482
   17MOL0     C 2150   5.043   9.500   7.468  0.6318  0.6572  0.4250
   17MOL0     C 2151   4.900   9.533   7.506 -0.2921  0.6381  0.5451
   17MOL0     C 2152   4.788   9.471   7.414  0.1604 -0.4809  0.1233
   17MOL0     C 2153   4.797   9.318   7.419  1.0256 -0.5098 -0.1116
   17MOL0     C 2154   4.691   9.263   7.318 -0.8001 -0.1901  0.3881
   17MOL0     C 2155   4.550   9.328   7.341 -0.1469  1.1820 -0.8586
   17MOL0    Cl 2156   4.484   9.316   7.500 -0.1705 -0.1302 -0.6048
   17MOL0     C 2157   5.588   9.533   7.471  0.7097  0.2226  1.2750
   17MOL0     C 2158   5.724   9.563   7.438  0.4931  0.2123 -0.1781
   17MOL0     O 2159   5.989   9.513   7.337 -0.0132  0.1631 -0.2317
   17MOL0     C 2160   6.257   9.599   7.350 -0.6229  0.2822 -0.0752
   17MOL0     C 2161   6.392   9.643   7.343  0.8314  0.3299 -0.8003
   17MOL0     N 2162   6.415  10.082   6.860  0.4316 -0.6962  0.1190
   17MOL0     N 2163   6.476  10.171   6.788 -0.1046  0.2936 -0.0428
   17MOL0     C 2164   6.472  10.601   5.661 -0.1907 -0.0151 -0.3846
   17MOL0     C 2165   6.401  10.648   5.550 -0.2331  0.2452  0.4898
   17MOL0     C 2166   6.312  10.927   5.216 -0.0237  0.0150 -0.5721
   17MOL0     C 2167   6.231  10.848   5.134  0.3928 -0.2425 -0.0977
   17MOL0     C 2168   6.194  10.894   5.010  0.8670  0.2177 -0.3047
   17MOL0     C 2169   6.241  11.024   4.970  0.5507  0.1729  0.4358
   17MOL0     O 2170   6.216  11.095   4.855 -0.3970  0.3177 -0.1484
   17MOL0     C 2171   6.132  11.047   4.755  1.3678  0.0674 -0.2010
   17MOL0     C 2172   6.207  10.991   4.633 -0.4010  0.5348 -0.0328
   17MOL0     C 2173   6.331  10.898   4.685  0.9356 -0.2344 -0.5327
   17MOL0     C 2174   6.388  10.829   4.560  0.4584  0.0565  0.1855
   17MOL0     C 2175   6.524  10.771   4.579  0.6924  0.0054  1.0473
   17MOL0     C 2176   6.624  10.709   4.612 -0.9998  0.2893 -0.3261
   17MOL0     C 2177   6.307  11.101   5.064  0.5416  0.3615 -0.1678
   17MOL0     C 2178   6.339  11.058   5.183 -0.0794 -0.1163  0.6328
   17MOL0     H 2179   6.666  10.737   5.351 -0.2221 -1.9500 -1.4053
   17MOL0     H 2180   6.782  10.646   5.551  0.1233 -1.3053 -0.6268
   17MOL0     H 2181   6.548  10.463   5.887  0.0079 -0.6252  2.4801
   17MOL0     H 2182   6.548  10.635   5.919  2.5888  2.1989 -2.3310
   17MOL0     H 2183   6.771  10.633   6.026  1.3024 -0.3077 -0.4516
   17MOL0     H 2184   6.797  10.464   5.976  0.1172 -0.8494  2.2070
   17MOL0     H 2185   6.630  10.375   6.090  0.8176  0.6329 -0.1665
   17MOL0     H 2186   6.583  10.524   6.177  1.0748 -0.5973  3.0070
   17MOL0     H 2187   6.809  10.331   6.205 -1.8013 -1.7584 -0.9129
   17MOL0     H 2188   6.843  10.501   6.244 -0.5950  0.1384  1.0068
   17MOL0     H 2189   6.598  10.351   6.339  0.5797 -0.3306  0.1039
   17MOL0     H 2190   6.665  10.489   6.423 -2.4352 -1.0329  2.0669
   17MOL0     H 2191   6.844  10.345   6.503 -0.2250  0.9357 -1.3216
   17MOL0     H 2192   6.784  10.206   6.415  2.1639 -0.2079  1.3709
   17MOL0     H 2193   6.615  10.356   6.617  2.4344  0.9024  0.4877
   17MOL0     H 2194   6.563  10.219   6.523 -0.1765 -1.9959  0.8062
   17MOL0     H 2195   6.786  10.213   6.738  1.6022  0.3036 -0.7145
   17MOL0     H 2196   6.757  10.087   6.621 -0.6967  0.4064 -0.3693
   17MOL0     H 2197   6.708   9.944   6.825  0.3710  1.3772  1.4511
   17MOL0     H 2198   6.481   9.760   6.878 -0.9524  1.4594 -1.9368
   17MOL0     H 2199   6.365   9.832   6.990  0.6842 -2.1897  1.7332
   17MOL0     H 2200   6.668   9.805   7.045 -1.4585 -0.3480 -1.1618
   17MOL0     H 2201   6.542   9.728   7.124  0.4076  0.4177 -0.6845
   17MOL0     H 2202   6.597  10.026   7.116 -2.3088  0.6941 -2.3089
   17MOL0     H 2203   6.445   9.985   7.178 -0.2988  0.3674 -1.8599
   17MOL0     H 2204   6.576  10.014   7.355 -3.4625 -0.7835  0.2720
   17MOL0     H 2205   6.713   9.917   7.283  0.7294  4.3718 -0.5523
   17MOL0     H 2206   6.315   9.961   7.448 -2.7200  0.3295  0.0411
   17MOL0     H 2207   6.102   9.881   7.439 -0.2059  0.0867  1.9006
   17MOL0     H 2208   5.779   9.810   7.655 -1.1259 -0.4666  1.8748
   17MOL0     H 2209   5.539   9.756   7.719 -1.1622  2.0163 -0.9224
   17MOL0     H 2210   5.317   9.427   7.517 -1.2939 -0.8810  0.7076
   17MOL0     H 2211   5.309   9.570   7.404  0.2032  0.3148 -0.3272
   17MOL0     H 2212   5.154   9.684   7.538  2.9609 -0.1573  2.1664
   17MOL0     H 2213   5.147   9.545   7.650  2.2464 -0.2659 -0.1488
   17MOL0     H 2214   5.062   9.393   7.475 -4.0122 -0.2692  2.8392
   17MOL0     H 2215   5.059   9.528   7.363  2.2115  2.5445  1.0905
   17MOL0     H 2216   4.878   9.489   7.604  1.3314  0.1001  0.7028
   17MOL0     H 2217   4.887   9.640   7.523  0.1931  0.6785  0.6938
   17MOL0     H 2218   4.795   9.504   7.310  0.1953 -3.8050 -1.0325
   17MOL0     H 2219   4.690   9.508   7.447  0.0456 -1.1009  0.4832
   17MOL0     H 2220   4.771   9.276   7.517  2.9084  0.9057  1.0646
   17MOL0     H 2221   4.892   9.272   7.391  1.1719 -1.1889  1.4027
   17MOL0     H 2222   4.727   9.282   7.217 -0.4886  0.4476  0.6100
   17MOL0     H 2223   4.694   9.157   7.345 -0.0214 -0.3505 -0.2945
   17MOL0     H 2224   4.484   9.274   7.272 -1.2798  1.3054  0.0861
   17MOL0     H 2225   4.549   9.433   7.310  3.5537  1.5785 -0.0936
   17MOL0     H 2226   5.537   9.446   7.430  1.5884 -0.1849  1.0304
   17MOL0     H 2227   5.767   9.488   7.373 -1.2502 -1.4975  0.5571
   17MOL0     H 2228   6.238   9.496   7.320 -2.2805  1.7415 -5.1215
   17MOL0     H 2229   6.474   9.578   7.313  0.5727 -0.6095  0.4496
   17MOL0     H 2230   6.414  10.583   5.751 -0.8835 -2.7287 -1.2709
   17MOL0     H 2231   6.294  10.636   5.543 -0.5042  2.5883 -0.1599
   17MOL0     H 2232   6.196  10.749   5.163  1.2024 -0.2474  0.9023
   17MOL0     H 2233   6.129  10.835   4.947  3.1854 -1.6090 -1.1423
   17MOL0     H 2234   6.071  11.134   4.727 -0.1974 -1.2116 -0.9313
   17MOL0     H 2235   6.067  10.966   4.791  2.5064 -0.1259  1.5012
   17MOL0     H 2236   6.141  10.939   4.563 -0.4150 -2.9688  2.3690
   17MOL0     H 2237   6.254  11.072   4.577 -1.2590  2.1527  1.4774
   17MOL0     H 2238   6.312  10.823   4.762  0.5113  1.8594  1.5333
   17MOL0     H 2239   6.396  10.970   4.735  0.4354 -0.2949  0.2115
   17MOL0     H 2240   6.327  10.750   4.516  1.2736  0.9750 -2.8299
   17MOL0     H 2241   6.390  10.903   4.480 -2.6617  2.0435  1.7174
   17MOL0     H 2242   6.695  10.639   4.649 -1.5197  0.2374  0.6051
   17MOL0     H 2243   6.332  11.200   5.028  1.0246  0.6932  1.0591
   17MOL0     H 2244   6.386  11.131   5.248  2.0053 -0.8822  0.0473
   18MOL0     O 2245   7.074   0.488   0.305  0.3334 -0.2211 -0.3525
   18MOL0     C 2246   7.141   0.391   0.314 -0.7492  0.3369 -0.2744
   18MOL0     O 2247   7.093   0.263   0.309  0.3826  0.5527  0.2607
   18MOL0     C 2248   6.960   0.227   0.305 -0.7824  0.7700  0.2269
   18MOL0     C 2249   6.941   0.100   0.250  0.0057  1.3531  1.0366
   18MOL0     C 2250   6.805   0.049   0.236 -0.5264 -0.5110 -0.6648
   18MOL0     C 2251   6.699   0.121   0.295  0.5652 -0.2866  0.2342
   18MOL0     O 2252   6.573   0.062   0.275  0.0450 -0.5663 -0.4169
   18MOL0     C 2253   6.543  -0.074   0.290 -0.1650  0.1889 -0.0014
   18MOL0     C 2254   6.397  -0.115   0.298  0.0861  0.2674  0.1990
   18MOL0     C 2255   6.317  -0.017   0.382 -0.5595  0.3588 -0.4156
   18MOL0     C 2256   6.166  -0.055   0.376  0.0632 -0.4118 -0.7194
   18MOL0     C 2257   6.072   0.046   0.445 -0.0681 -1.0743  0.1175
   18MOL0     C 2258   5.924  -0.006   0.439  0.0064 -0.0643 -0.3670
   18MOL0     C 2259   5.887  -0.115   0.536 -0.3288 -0.2189  0.7653
   18MOL0     C 2260   5.901  -0.088   0.688 -0.2301 -0.1041  0.3269
   18MOL0     N 2261   5.813  -0.175   0.768 -0.4643  0.6640 -0.1207
   18MOL0     C 2262   5.721  -0.147   0.860 -0.1144  0.8123  0.4100
   18MOL0     C 2263   5.670  -0.268   0.887  0.6249 -0.0910 -0.3926
   18MOL0     C 2264   5.561  -0.294   0.984 -0.1846 -0.7707  0.0897
   18MOL0     C 2265   5.487  -0.427   0.963 -0.0961 -0.1381 -0.0317
   18MOL0     C 2266   5.351  -0.415   1.035  0.4448 -0.0250 -0.1059
   18MOL0     C 2267   5.281  -0.555   1.033 -0.3589 -0.2064 -0.7862
   18MOL0     O 2268   5.156  -0.538   1.111 -0.2526  0.4955 -0.0728
   18MOL0     C 2269   5.046  -0.491   1.049  0.1040 -0.2061 -0.3471
   18MOL0     C 2270   4.930  -0.510   1.128  0.0548  0.3975  0.3476
   18MOL0     C 2271   4.815  -0.453   1.084  0.2397  0.4085 -0.9804
   18MOL0     C 2272   4.809  -0.369   0.968 -1.2324  0.4570 -0.7926
   18MOL0     C 2273   4.680  -0.315   0.934  0.8908  0.0624  0.6192
   18MOL0     O 2274   4.680  -0.193   0.869 -0.5175  0.3387 -0.6573
   18MOL0     C 2275   4.576  -0.096   0.867 -0.4385 -0.2900  0.0476
   18MOL0     C 2276   4.444  -0.124   0.845  0.1771 -0.0596  0.8861
   18MOL0     C 2277   4.352  -0.011   0.846 -0.3245 -0.6925  0.0468
   18MOL0     C 2278   4.396   0.121   0.864  0.3007  0.3799  0.1230
   18MOL0     O 2279   4.309   0.221   0.887  0.2186  0.9251 -0.8425
   18MOL0     C 2280   4.165   0.201   0.864 -0.3101  0.1028 -0.4552
   18MOL0     C 2281   4.083   0.328   0.854  1.1300  0.8297 -0.1307
   18MOL0     C 2282   3.926   0.312   0.869 -0.1740 -0.3965 -0.2186
   18MOL0     C 2283   3.865   0.451   0.854 -0.1479 -0.3558  0.1305
   18MOL0     C 2284   3.711   0.447   0.840  0.0299  0.7463  0.3639
   18MOL0     C 2285   3.648   0.395   0.959 -0.1756 -0.6741 -0.2930
   18MOL0     C 2286   3.503   0.374   0.929  0.5250  0.2108 -0.2920
   18MOL0     C 2287   3.441   0.293   1.039 -0.1224  0.3203 -0.5608
   18MOL0    Cl 2288   3.525   0.145   1.079  0.1969 -0.3656  0.5309
   18MOL0     C 2289   4.540   0.136   0.873  0.3399 -1.0062  0.2990
   18MOL0     C 2290   4.624   0.034   0.866  0.1963  0.8538 -0.2634
   18MOL0     O 2291   4.577  -0.373   0.973  0.0989  0.3291 -0.0914
   18MOL0     C 2292   4.924  -0.353   0.895 -0.2700  0.0362 -0.6192
   18MOL0     C 2293   5.043  -0.427   0.926 -0.5307  0.2059  0.2136
   18MOL0     N 2294   5.727  -0.371   0.816  0.0662 -0.4582  0.2722
   18MOL0     N 2295   5.819  -0.315   0.743  0.1750  0.4512 -0.0899
   18MOL0     C 2296   6.723   0.247   0.340  0.5720  0.7630  0.1099
   18MOL0     C 2297   6.855   0.294   0.348 -0.3738 -0.0654  0.9004
   18MOL0     C 2298   7.290   0.406   0.314  0.3135 -0.6000 -0.4048
   18MOL0     C 2299   7.345   0.521   0.284 -0.1219 -0.0158 -0.7268
   18MOL0     C 2300   7.487   0.540   0.285 -0.1841 -0.3527  0.4695
   18MOL0     C 2301   7.573   0.432   0.328 -0.0423 -0.1685  0.8266
   18MOL0     O 2302   7.706   0.433   0.320  0.7268  0.4170  0.2219
   18MOL0     C 2303   7.776   0.549   0.287 -0.1005  0.0809  0.4611
   18MOL0     C 2304   7.923   0.548   0.324 -0.3993  0.3346 -0.4303
   18MOL0     C 2305   7.954   0.623   0.449  0.5370 -0.2370  1.0135
   18MOL0     C 2306   8.095   0.597   0.504  0.5803 -0.0900  0.2051
   18MOL0     C 2307   8.122   0.661   0.629 -0.0994 -0.4381 -0.2494
   18MOL0     C 2308   8.152   0.714   0.735  0.6696  0.0093 -0.5562
   18MOL0     C 2309   7.511   0.314   0.353  0.4437  0.2119  0.1500
   18MOL0     C 2310   7.371   0.305   0.353 -0.3106 -0.6372 -0.2513
   18MOL0     H 2311   7.016   0.051   0.190 -0.8728  2.6468 -1.2791
   18MOL0     H 2312   6.785  -0.031   0.166  2.5488 -0.3115 -1.9203
   18MOL0     H 2313   6.584  -0.120   0.381 -2.5791 -1.5445  0.3245
   18MOL0     H 2314   6.576  -0.123   0.198 -1.1354 -0.2982 -0.1123
   18MOL0     H 2315   6.385  -0.212   0.349 -0.3853 -0.4142 -1.1532
   18MOL0     H 2316   6.356  -0.122   0.197  2.3292 -2.1358 -0.6520
   18MOL0     H 2317   6.331   0.087   0.351 -0.2884  0.7289  0.8764
   18MOL0     H 2318   6.349  -0.020   0.487 -2.1218  2.5530  0.1900
   18MOL0     H 2319   6.140  -0.065   0.270 -0.8124  0.8552 -0.6446
   18MOL0     H 2320   6.157  -0.155   0.417  0.8984  0.4115  1.6534
   18MOL0     H 2321   6.066   0.141   0.392 -0.2139 -0.2780  1.4890
   18MOL0     H 2322   6.097   0.080   0.546 -0.9584 -0.9644  0.3095
   18MOL0     H 2323   5.910  -0.042   0.336  1.2351  2.0674 -1.3451
   18MOL0     H 2324   5.845   0.068   0.443 -0.6836 -0.7222 -1.2145
   18MOL0     H 2325   5.784  -0.143   0.514  0.5398 -3.0732 -0.0323
   18MOL0     H 2326   5.952  -0.200   0.514  2.6409  2.1704 -0.4386
   18MOL0     H 2327   5.877   0.017   0.705 -3.1428 -0.7551  0.7942
   18MOL0     H 2328   6.001  -0.118   0.720 -0.3760 -1.8803 -0.7053
   18MOL0     H 2329   5.692  -0.048   0.895 -0.4941  0.9990 -0.3999
   18MOL0     H 2330   5.490  -0.211   0.980  0.6042 -0.1016 -0.1710
   18MOL0     H 2331   5.616  -0.295   1.078  2.3293 -1.0093 -1.3108
   18MOL0     H 2332   5.549  -0.510   0.999  1.0016  0.5018 -0.3835
   18MOL0     H 2333   5.471  -0.454   0.858 -0.8228 -3.1726  0.7453
   18MOL0     H 2334   5.370  -0.377   1.136  0.5715 -1.7045  0.5328
   18MOL0     H 2335   5.286  -0.347   0.980 -1.1754  0.1318  1.8876
   18MOL0     H 2336   5.342  -0.627   1.089 -3.3398 -0.5769  2.3374
   18MOL0     H 2337   5.266  -0.585   0.929 -1.8144 -1.3098 -0.3024
   18MOL0     H 2338   4.930  -0.565   1.222  1.1569 -0.3888 -0.0913
   18MOL0     H 2339   4.724  -0.478   1.140  1.5119 -0.6533  0.7306
   18MOL0     H 2340   4.417  -0.228   0.826 -0.0940  0.0677  0.5573
   18MOL0     H 2341   4.254  -0.038   0.807  0.2838 -1.7375 -0.8455
   18MOL0     H 2342   4.123   0.150   0.951 -0.1296  0.6266 -0.0527
   18MOL0     H 2343   4.153   0.153   0.766 -1.8896  0.8057 -0.6274
   18MOL0     H 2344   4.105   0.380   0.760  0.6636 -1.2310 -1.4549
   18MOL0     H 2345   4.117   0.392   0.936  1.4697 -0.8371  1.0865
   18MOL0     H 2346   3.901   0.279   0.971 -0.5416 -0.5785 -0.3650
   18MOL0     H 2347   3.883   0.244   0.794 -0.6181  0.0339 -0.3630
   18MOL0     H 2348   3.878   0.515   0.942  2.2892 -2.2472  1.2533
   18MOL0     H 2349   3.907   0.511   0.772 -0.2634  2.3967  1.9422
   18MOL0     H 2350   3.684   0.398   0.746  2.0023 -1.0336  0.6602
   18MOL0     H 2351   3.683   0.552   0.833 -0.3857  0.5591 -1.3582
   18MOL0     H 2352   3.665   0.469   1.038  0.6444 -0.4496 -0.6602
   18MOL0     H 2353   3.703   0.303   0.981 -0.1665 -0.3467  1.1327
   18MOL0     H 2354   3.443   0.462   0.904  0.3392 -0.5630 -2.8091
   18MOL0     H 2355   3.500   0.307   0.843  2.5960  1.2911 -1.2761
   18MOL0     H 2356   3.338   0.272   1.007 -0.2946 -0.4161  0.4029
   18MOL0     H 2357   3.434   0.354   1.130  2.4992  0.0263 -0.0880
   18MOL0     H 2358   4.573   0.238   0.885 -0.0347 -0.5377 -2.0629
   18MOL0     H 2359   4.731   0.054   0.872 -0.3333  3.6131  2.4061
   18MOL0     H 2360   4.928  -0.293   0.804  0.7781 -0.8681 -1.1998
   18MOL0     H 2361   5.128  -0.412   0.860  1.9148  0.6137  3.2408
   18MOL0     H 2362   6.635   0.306   0.362 -1.1434 -1.8381  0.5967
   18MOL0     H 2363   6.882   0.385   0.400  1.0293 -1.4182  2.6746
   18MOL0     H 2364   7.285   0.608   0.262 -0.5440  0.0188  0.4992
   18MOL0     H 2365   7.527   0.638   0.260  2.9400 -1.2274  1.6757
   18MOL0     H 2366   7.733   0.640   0.329  1.6211  0.3503  1.8071
   18MOL0     H 2367   7.775   0.559   0.178  0.9574 -1.2629  0.2887
   18MOL0     H 2368   7.961   0.448   0.346  1.9198  1.0856 -0.8110
   18MOL0     H 2369   7.980   0.603   0.249 -0.5534  0.4873 -0.4360
   18MOL0     H 2370   7.884   0.597   0.530  1.4497  1.2793  2.3651
   18MOL0     H 2371   7.946   0.731   0.431  0.5709 -0.5799 -1.3009
   18MOL0     H 2372   8.093   0.490   0.524  0.2268  0.1118  1.3286
   18MOL0     H 2373   8.170   0.615   0.426  0.0863 -0.1201 -0.2848
   18MOL0     H 2374   8.169   0.777   0.820  1.1290 -0.5970 -0.1914
   18MOL0     H 2375   7.569   0.229   0.386  0.8635 -0.2157 -1.5963
   18MOL0     H 2376   7.313   0.216   0.372 -0.1693 -0.5591  0.5818
   19MOL0     O 2377   6.056   9.744   9.630 -0.6158 -0.0770 -0.0098
   19MOL0     C 2378   6.071   9.735   9.754  0.4491  0.5394 -0.3048
   19MOL0     O 2379   5.972   9.758   9.850 -0.5576  0.1224  0.5959
   19MOL0     C 2380   5.840   9.750   9.815 -0.0100  0.5998 -0.5357
   19MOL0     C 2381   5.788   9.664   9.710  0.3761 -0.2899 -0.0544
   19MOL0     C 2382   5.652   9.626   9.714  0.2781 -0.0012  0.3521
   19MOL0     C 2383   5.566   9.681   9.808  0.2349 -0.4727  1.1211
   19MOL0     O 2384   5.431   9.643   9.795 -0.5810  0.4155 -0.3748
   19MOL0     C 2385   5.351   9.737   9.859 -0.7378 -0.7692 -0.5225
   19MOL0     C 2386   5.220   9.703   9.793  0.0469  0.3470 -0.5112
   19MOL0     C 2387   5.107   9.796   9.854 -0.8432  0.0470  0.0165
   19MOL0     C 2388   4.971   9.736   9.822  0.0508  0.1050  0.2110
   19MOL0     C 2389   4.850   9.824   9.847  0.6719  0.0385  0.3388
   19MOL0     C 2390   4.810   9.839   9.992  0.3104  0.1360 -0.5749
   19MOL0     C 2391   4.658   9.856  10.012  0.6112 -0.1557  0.1925
   19MOL0     C 2392   4.572   9.767   9.929  0.1204 -0.6285 -0.1056
   19MOL0     N 2393   4.435   9.792   9.973 -0.2251 -0.0238  0.4082
   19MOL0     C 2394   4.346   9.884   9.925  0.0905 -0.3370  0.1861
   19MOL0     C 2395   4.235   9.868   9.998 -0.4900 -0.9386 -0.7076
   19MOL0     C 2396   4.102   9.943  10.003  0.5975 -0.0447  0.5157
   19MOL0     C 2397   3.996   9.894   9.903  0.1986  0.8208  0.2178
   19MOL0     C 2398   3.955   9.741   9.935  0.3939  1.0945 -0.4338
   19MOL0     C 2399   3.888   9.672   9.811 -0.3210 -0.2947  0.2656
   19MOL0     O 2400   3.749   9.704   9.808 -0.3358  0.4665 -0.2403
   19MOL0     C 2401   3.660   9.638   9.722  0.9519  0.0056 -0.1788
   19MOL0     C 2402   3.518   9.680   9.725 -0.3713 -0.3541 -0.2571
   19MOL0     C 2403   3.428   9.618   9.640 -0.1174 -0.6918  1.1078
   19MOL0     C 2404   3.467   9.521   9.543  0.0947 -1.1033 -0.6312
   19MOL0     C 2405   3.362   9.468   9.444 -0.8942 -0.3841 -0.1042
   19MOL0     O 2406   3.421   9.383   9.345 -0.6534 -1.0042  0.4604
   19MOL0     C 2407   3.339   9.333   9.246 -0.3080  0.0968  0.3293
   19MOL0     C 2408   3.233   9.247   9.282 -0.4145 -0.7521  0.5460
   19MOL0     C 2409   3.166   9.180   9.178  0.2895 -0.4375  0.4477
   19MOL0     C 2410   3.184   9.204   9.039 -0.2646 -1.0560 -0.3284
   19MOL0     O 2411   3.111   9.149   8.935  0.3431 -0.5895  0.4939
   19MOL0     C 2412   3.013   9.039   8.963  0.2504  0.3740  0.6219
   19MOL0     C 2413   2.998   8.951   8.834 -0.4241  0.0040 -0.6985
   19MOL0     C 2414   2.901   9.011   8.732  0.8168  0.1066 -0.0920
   19MOL0     C 2415   2.935   8.963   8.595  0.0664 -0.2646 -0.1241
   19MOL0     C 2416   3.051   9.044   8.532  0.0738  0.1207 -0.3392
   19MOL0     C 2417   3.107   8.954   8.420  0.3702 -0.3350 -0.7778
   19MOL0     C 2418   3.200   9.029   8.331 -0.3395  0.2899 -0.5665
   19MOL0     C 2419   3.293   8.934   8.241  0.4198 -0.6531  0.3088
   19MOL0    Cl 2420   3.429   8.859   8.333 -0.4575 -0.4507  0.1924
   19MOL0     C 2421   3.280   9.299   9.011 -0.1130  0.5965  0.7220
   19MOL0     C 2422   3.358   9.358   9.112  0.6585 -1.2658 -0.4821
   19MOL0     O 2423   3.244   9.506   9.450 -0.8488  0.7438 -0.3380
   19MOL0     C 2424   3.603   9.484   9.542  0.3472 -0.6703  0.1175
   19MOL0     C 2425   3.698   9.525   9.636 -0.5227  0.4174 -0.7496
   19MOL0     N 2426   4.264   9.773  10.096  0.0184  0.2468 -0.7732
   19MOL0     N 2427   4.387   9.727  10.077  0.2985  0.3734 -0.2309
   19MOL0     C 2428   5.619   9.762   9.911  0.4049  0.0395  0.1449
   19MOL0     C 2429   5.749   9.806   9.910 -0.9815  0.8013 -0.7695
   19MOL0     C 2430   6.204   9.706   9.808  0.5186 -0.1731  0.7389
   19MOL0     C 2431   6.313   9.662   9.715  0.8783  0.4201  0.4095
   19MOL0     C 2432   6.444   9.663   9.758  1.0982 -0.2763 -0.7075
   19MOL0     C 2433   6.476   9.709   9.902 -0.5245  0.1934  1.1638
   19MOL0     O 2434   6.602   9.713   9.953  0.4044  0.1512 -0.2393
   19MOL0     C 2435   6.718   9.708   9.874  0.0221 -0.3939  0.5110
   19MOL0     C 2436   6.838   9.679   9.976 -0.1553  0.5325 -0.1116
   19MOL0     C 2437   6.843   9.534  10.011  0.1255  0.5702 -0.5156
   19MOL0     C 2438   6.895   9.443   9.902  0.4952  0.3693 -0.7385
   19MOL0     C 2439   7.016   9.506   9.846  0.0972  0.9778  0.6043
   19MOL0     C 2440   7.120   9.548   9.805  0.2924  0.3287 -0.4547
   19MOL0     C 2441   6.368   9.733   9.984 -0.1195  0.2807  0.4370
   19MOL0     C 2442   6.239   9.746   9.938  0.8535 -0.8314  0.4169
   19MOL0     H 2443   5.854   9.615   9.639 -1.9150  0.6702 -3.0962
   19MOL0     H 2444   5.625   9.550   9.642 -0.0849  0.3477  0.1110
   19MOL0     H 2445   5.385   9.839   9.841  0.2617 -0.9074  0.4735
   19MOL0     H 2446   5.338   9.721   9.966  1.1462  2.0456  0.2220
   19MOL0     H 2447   5.200   9.601   9.829  0.6226 -1.2506 -4.2847
   19MOL0     H 2448   5.228   9.683   9.686  1.2409  0.2282 -0.4157
   19MOL0     H 2449   5.110   9.893   9.803 -0.4578 -0.7864 -1.6173
   19MOL0     H 2450   5.128   9.825   9.957  1.6924  3.8777 -1.3293
   19MOL0     H 2451   4.968   9.703   9.717  0.2733 -1.2494  0.6036
   19MOL0     H 2452   4.957   9.639   9.871  0.2289  0.0301  0.1179
   19MOL0     H 2453   4.775   9.765   9.794 -0.5835  0.9662  1.0251
   19MOL0     H 2454   4.863   9.922   9.799  0.1677 -0.6897 -1.3667
   19MOL0     H 2455   4.861   9.925  10.037  0.7467  1.5995 -3.6560
   19MOL0     H 2456   4.823   9.745  10.046  0.8982 -0.3478 -1.5294
   19MOL0     H 2457   4.640   9.839  10.118  0.8714 -0.6401  0.1586
   19MOL0     H 2458   4.638   9.957   9.973 -1.6033 -0.9554 -0.9032
   19MOL0     H 2459   4.608   9.663   9.931  2.7104  0.1768 -0.9518
   19MOL0     H 2460   4.582   9.796   9.824 -0.1192 -0.5816 -0.1154
   19MOL0     H 2461   4.346   9.932   9.828 -1.7030 -1.5850 -0.4868
   19MOL0     H 2462   4.119  10.049   9.983 -0.5085 -0.3057 -2.3972
   19MOL0     H 2463   4.063   9.943  10.105 -0.4978  0.9190  0.1284
   19MOL0     H 2464   4.032   9.902   9.800  0.7054 -1.1727  0.1993
   19MOL0     H 2465   3.906   9.954   9.920 -1.0929 -1.2775  1.2809
   19MOL0     H 2466   4.048   9.693   9.966  0.3377 -1.2064 -3.3579
   19MOL0     H 2467   3.881   9.739  10.016 -0.6431 -1.9119 -1.3020
   19MOL0     H 2468   3.904   9.565   9.829  3.4584  0.1961  0.7362
   19MOL0     H 2469   3.928   9.695   9.712  0.0011  0.3197  0.5314
   19MOL0     H 2470   3.500   9.756   9.800  1.7321  0.7426 -0.7725
   19MOL0     H 2471   3.328   9.660   9.644  0.5076  0.7569  2.3159
   19MOL0     H 2472   3.204   9.220   9.383 -0.3233  0.6977  0.9864
   19MOL0     H 2473   3.081   9.119   9.206 -1.6314  1.5972 -0.6772
   19MOL0     H 2474   2.914   9.076   8.989  0.0503 -0.8665  1.7410
   19MOL0     H 2475   3.050   8.979   9.047  1.8841 -0.1585 -0.4352
   19MOL0     H 2476   2.958   8.854   8.866  2.3995 -0.2928  2.4541
   19MOL0     H 2477   3.096   8.937   8.788 -0.0079  1.2852 -0.2515
   19MOL0     H 2478   2.908   9.121   8.735  0.9062  0.1737 -1.9333
   19MOL0     H 2479   2.798   8.998   8.766  0.6428  2.9258  0.7165
   19MOL0     H 2480   2.956   8.856   8.598  1.6029 -0.0754 -2.1953
   19MOL0     H 2481   2.855   8.985   8.524 -0.5670 -1.2036  0.2719
   19MOL0     H 2482   3.126   9.070   8.606 -0.6257  1.7132 -0.1555
   19MOL0     H 2483   3.012   9.139   8.494  0.0144  0.4635  0.5614
   19MOL0     H 2484   3.025   8.917   8.358 -0.6230 -1.3087  1.0731
   19MOL0     H 2485   3.165   8.873   8.463  0.0064  1.8307  4.5696
   19MOL0     H 2486   3.152   9.099   8.262  0.0778  1.4837  0.3242
   19MOL0     H 2487   3.275   9.078   8.394  3.0422 -2.8325 -1.8297
   19MOL0     H 2488   3.339   8.999   8.166  1.6650 -0.9970  0.7546
   19MOL0     H 2489   3.230   8.862   8.187 -1.6888 -0.2842  2.1193
   19MOL0     H 2490   3.285   9.325   8.906 -2.0030 -1.0174  0.1755
   19MOL0     H 2491   3.433   9.433   9.087 -0.5339  0.7364  1.6076
   19MOL0     H 2492   3.622   9.403   9.471 -0.2311 -0.8298  0.1416
   19MOL0     H 2493   3.802   9.496   9.635 -0.6150 -0.0852  1.0729
   19MOL0     H 2494   5.551   9.795   9.989  0.2860 -0.1457  0.1212
   19MOL0     H 2495   5.786   9.867   9.992 -0.3146  1.0665 -1.2570
   19MOL0     H 2496   6.294   9.636   9.612 -1.9563  2.3925  0.3268
   19MOL0     H 2497   6.504   9.643   9.669 -1.8233 -1.6795 -2.5146
   19MOL0     H 2498   6.729   9.811   9.838 -0.6991  0.0864  1.6319
   19MOL0     H 2499   6.710   9.637   9.791 -0.2873 -0.4912  0.6234
   19MOL0     H 2500   6.936   9.714   9.944 -0.1056 -1.0097 -1.8800
   19MOL0     H 2501   6.820   9.742  10.063  2.4285  2.3255 -0.7702
   19MOL0     H 2502   6.748   9.498  10.051  1.4267 -1.3096  1.0553
   19MOL0     H 2503   6.915   9.536  10.093  0.4028  0.6263 -0.7572
   19MOL0     H 2504   6.923   9.348   9.949 -0.1759 -0.1941 -1.4595
   19MOL0     H 2505   6.822   9.423   9.823 -4.6473 -2.5242  4.0107
   19MOL0     H 2506   7.220   9.577   9.779  0.7027  2.4665  2.9543
   19MOL0     H 2507   6.392   9.749  10.089 -0.4052 -1.6203  0.8207
   19MOL0     H 2508   6.166   9.792  10.004  1.4038  1.7876 -0.6780
   20MOL0     O 2509   4.943   3.463   8.905 -0.5524  0.1269 -0.3054
   20MOL0     C 2510   4.998   3.349   8.934  0.2694 -0.2892  0.2280
   20MOL0     O 2511   4.940   3.231   8.960  0.7077 -0.2435 -0.8795
   20MOL0     C 2512   4.807   3.240   8.977 -0.4331 -0.5098 -0.2107
   20MOL0     C 2513   4.712   3.161   8.910  0.2817 -0.0478 -0.1788
   20MOL0     C 2514   4.573   3.179   8.923  0.2395  0.7017 -0.6182
   20MOL0     C 2515   4.524   3.280   9.009 -0.4585  0.9958  0.8038
   20MOL0     O 2516   4.395   3.311   9.035 -0.4881  0.4264  0.4789
   20MOL0     C 2517   4.301   3.231   8.960  0.2829 -0.0782  0.9138
   20MOL0     C 2518   4.162   3.276   8.995 -0.3839 -0.0492 -0.4434
   20MOL0     C 2519   4.053   3.207   8.916  0.3706 -0.4276  0.6120
   20MOL0     C 2520   3.914   3.205   8.972 -0.2523 -0.5189 -0.1018
   20MOL0     C 2521   3.865   3.350   8.989 -0.5923 -0.8955 -0.1728
   20MOL0     C 2522   3.716   3.365   9.025  0.1501 -1.2478  0.3032
   20MOL0     C 2523   3.679   3.514   9.036 -0.2104 -0.6087  0.7495
   20MOL0     C 2524   3.536   3.536   9.092 -0.4402  0.1095  0.6741
   20MOL0     N 2525   3.499   3.679   9.101 -0.4938 -0.2389  0.5823
   20MOL0     C 2526   3.571   3.776   9.163 -0.5038  1.0904 -0.2109
   20MOL0     C 2527   3.516   3.892   9.123  0.1679  0.3829 -0.5598
   20MOL0     C 2528   3.570   4.020   9.169  0.2210  0.6707 -0.0802
   20MOL0     C 2529   3.554   4.028   9.317  0.1941 -0.2272  0.1212
   20MOL0     C 2530   3.406   4.008   9.351  0.3158  0.4416  0.0691
   20MOL0     C 2531   3.311   4.114   9.281  0.1264 -0.0903  0.4055
   20MOL0     O 2532   3.199   4.148   9.372 -0.1510  0.2196 -0.3189
   20MOL0     C 2533   3.091   4.214   9.319  0.8176  0.1282 -0.1943
   20MOL0     C 2534   3.075   4.249   9.189 -0.7704 -0.2372 -0.1719
   20MOL0     C 2535   2.958   4.312   9.136 -0.2092  0.1523 -0.1515
   20MOL0     C 2536   2.853   4.336   9.233  0.7856 -0.0256  0.6481
   20MOL0     C 2537   2.726   4.395   9.178  0.3532 -0.0642  0.3990
   20MOL0     O 2538   2.616   4.407   9.261 -0.2482  0.5182  0.4820
   20MOL0     C 2539   2.496   4.427   9.203  0.0760  0.2256 -0.2594
   20MOL0     C 2540   2.463   4.499   9.091 -0.3054 -0.9783  1.1035
   20MOL0     C 2541   2.328   4.507   9.031 -0.0285  1.0727 -0.5325
   20MOL0     C 2542   2.228   4.438   9.102 -0.7036  0.6088  0.4887
   20MOL0     O 2543   2.107   4.455   9.058  0.2358  0.7341  0.3425
   20MOL0     C 2544   2.023   4.339   9.063 -0.2027 -0.8513  0.3538
   20MOL0     C 2545   1.894   4.397   9.000  0.1700  0.1883 -0.2603
   20MOL0     C 2546   1.762   4.326   9.039 -0.7205  0.3353 -0.7193
   20MOL0     C 2547   1.644   4.402   8.975  0.3972 -0.4872 -0.3950
   20MOL0     C 2548   1.507   4.342   9.011 -0.3083 -1.4336 -0.3103
   20MOL0     C 2549   1.392   4.423   8.956 -0.8986  0.0731 -0.4046
   20MOL0     C 2550   1.259   4.384   9.007  0.7604  0.3093 -0.3646
   20MOL0     C 2551   1.159   4.478   8.956 -0.3954 -1.2084 -0.0782
   20MOL0    Cl 2552   1.016   4.451   9.051  0.1002 -0.0066 -0.6223
   20MOL0     C 2553   2.255   4.369   9.219  0.1878 -0.2277  0.5359
   20MOL0     C 2554   2.389   4.368   9.264 -0.2946  0.5789 -0.0969
   20MOL0     O 2555   2.724   4.419   9.056 -1.0872  0.2242  0.2396
   20MOL0     C 2556   2.857   4.294   9.363  0.9577 -0.0604  0.3518
   20MOL0     C 2557   2.978   4.237   9.405  0.3467 -0.6756  0.2701
   20MOL0     N 2558   3.414   3.867   9.033  0.3016  0.1554 -0.6731
   20MOL0     N 2559   3.407   3.738   9.014 -0.0967 -0.9205  0.5860
   20MOL0     C 2560   4.610   3.355   9.070  0.1408 -0.9905  0.5907
   20MOL0     C 2561   4.748   3.339   9.062  0.1736 -0.6114 -0.0416
   20MOL0     C 2562   5.147   3.345   8.945  0.7481  0.6638  0.7305
   20MOL0     C 2563   5.225   3.456   8.945 -0.2542 -0.1823  0.4357
   20MOL0     C 2564   5.360   3.454   8.931 -0.7697 -0.7151 -0.3245
   20MOL0     C 2565   5.430   3.331   8.932  0.6459 -0.1918  0.0845
   20MOL0     O 2566   5.564   3.331   8.936  0.0489 -0.5077 -0.5710
   20MOL0     C 2567   5.637   3.413   8.842 -0.0581  0.1050  0.6151
   20MOL0     C 2568   5.733   3.331   8.755 -0.2705  0.2863 -0.4403
   20MOL0     C 2569   5.850   3.252   8.838 -0.3474  0.2883 -0.2710
   20MOL0     C 2570   5.943   3.179   8.750 -0.1162  0.5988 -0.3654
   20MOL0     C 2571   6.038   3.273   8.692 -0.0457 -0.0772 -1.1595
   20MOL0     C 2572   6.121   3.352   8.648  0.2375 -0.2272  0.6054
   20MOL0     C 2573   5.351   3.217   8.933 -0.1052  0.9526 -0.6592
   20MOL0     C 2574   5.212   3.219   8.941 -1.0698  0.4748  0.7887
   20MOL0     H 2575   4.760   3.086   8.847  2.9376  1.9927 -0.7561
   20MOL0     H 2576   4.503   3.111   8.877  2.1286 -1.9419  0.2103
   20MOL0     H 2577   4.311   3.125   8.986  1.6774 -0.0868  0.4375
   20MOL0     H 2578   4.315   3.238   8.852 -0.3043 -0.5077  0.8060
   20MOL0     H 2579   4.163   3.384   8.977  2.4293  0.0296 -0.2634
   20MOL0     H 2580   4.146   3.273   9.103 -1.2864 -1.0471 -0.5929
   20MOL0     H 2581   4.086   3.102   8.916  1.5947 -0.1108  3.1094
   20MOL0     H 2582   4.056   3.258   8.819 -1.8053 -1.2735  0.0433
   20MOL0     H 2583   3.837   3.147   8.919 -0.6674  0.6015 -0.7506
   20MOL0     H 2584   3.912   3.169   9.076 -0.3925 -2.1447 -0.6363
   20MOL0     H 2585   3.887   3.406   8.898 -0.8429 -0.1603  0.2144
   20MOL0     H 2586   3.925   3.397   9.068  2.1474 -3.1151 -0.8033
   20MOL0     H 2587   3.696   3.321   9.124  1.0359  1.9806  2.0496
   20MOL0     H 2588   3.659   3.307   8.952  1.5654  0.6299 -2.4342
   20MOL0     H 2589   3.738   3.561   9.116 -2.0576  3.0403  0.1947
   20MOL0     H 2590   3.693   3.574   8.946  0.6109  0.8263  1.7953
   20MOL0     H 2591   3.541   3.493   9.193  2.2348 -0.0907  0.5150
   20MOL0     H 2592   3.463   3.479   9.033  1.3327 -1.8833  0.2682
   20MOL0     H 2593   3.661   3.770   9.223  0.3125  1.5015 -1.3688
   20MOL0     H 2594   3.528   4.108   9.119 -0.9244  0.3806  0.3386
   20MOL0     H 2595   3.675   4.038   9.145  0.9786 -2.3489  0.6058
   20MOL0     H 2596   3.595   4.121   9.357  2.4460 -1.4310  0.7984
   20MOL0     H 2597   3.612   3.949   9.366  1.4599  0.3493 -0.4121
   20MOL0     H 2598   3.366   3.908   9.333 -0.3661  0.9222 -1.1652
   20MOL0     H 2599   3.392   4.028   9.458 -3.7881  2.3842 -0.6402
   20MOL0     H 2600   3.276   4.079   9.184 -1.3535 -0.0394  0.9051
   20MOL0     H 2601   3.368   4.207   9.264  0.7993 -0.3908  0.9551
   20MOL0     H 2602   3.153   4.239   9.114  0.2052 -1.9054  0.9882
   20MOL0     H 2603   2.959   4.329   9.029 -0.6239 -1.7451 -0.4962
   20MOL0     H 2604   2.543   4.559   9.049  0.0948 -0.6133  2.3412
   20MOL0     H 2605   2.296   4.557   8.941 -0.5129  0.0127 -0.9725
   20MOL0     H 2606   2.000   4.305   9.165  1.7626  3.8868  2.7210
   20MOL0     H 2607   2.062   4.255   9.005  0.2590 -0.6163  0.3143
   20MOL0     H 2608   1.910   4.393   8.892 -2.2524 -0.4021 -0.6637
   20MOL0     H 2609   1.874   4.498   9.036 -0.8503 -0.0269 -0.1922
   20MOL0     H 2610   1.738   4.340   9.145 -1.3927  0.1977 -0.8497
   20MOL0     H 2611   1.753   4.218   9.022  2.2815 -0.2512  0.7628
   20MOL0     H 2612   1.655   4.505   9.011 -0.5727 -1.3755  2.7396
   20MOL0     H 2613   1.641   4.407   8.866 -0.9817 -2.1653 -0.4701
   20MOL0     H 2614   1.495   4.338   9.120  0.4708 -2.2224 -0.2421
   20MOL0     H 2615   1.502   4.237   8.979 -0.1996 -1.1970 -1.0971
   20MOL0     H 2616   1.397   4.418   8.846  0.3443  1.7651 -0.4674
   20MOL0     H 2617   1.417   4.525   8.985 -1.3604  0.7699 -2.2766
   20MOL0     H 2618   1.233   4.282   8.980 -0.4407 -0.0360  1.8101
   20MOL0     H 2619   1.253   4.404   9.115 -1.3252  0.0850 -0.3977
   20MOL0     H 2620   1.141   4.471   8.849  0.8520 -0.6850 -0.3420
   20MOL0     H 2621   1.201   4.575   8.983  0.4588 -1.5180 -0.2509
   20MOL0     H 2622   2.174   4.325   9.276 -1.2875 -0.1219 -1.3663
   20MOL0     H 2623   2.412   4.309   9.352  1.9210  0.2721 -0.8243
   20MOL0     H 2624   2.782   4.305   9.440 -1.2341  1.4621 -1.8030
   20MOL0     H 2625   2.987   4.200   9.507  2.0540  0.2763  0.5097
   20MOL0     H 2626   4.565   3.440   9.120  0.7477  1.4497 -2.6335
   20MOL0     H 2627   4.810   3.395   9.132 -0.2477  1.0441 -0.9436
   20MOL0     H 2628   5.185   3.557   8.950 -0.2222 -0.0560 -1.3072
   20MOL0     H 2629   5.416   3.546   8.942 -1.7884  0.2027 -2.2051
   20MOL0     H 2630   5.694   3.477   8.910 -1.7533  1.3818  0.9004
   20MOL0     H 2631   5.573   3.474   8.778  0.4331  1.5099  1.4289
   20MOL0     H 2632   5.665   3.259   8.708 -0.0867 -0.0065 -0.2572
   20MOL0     H 2633   5.781   3.394   8.679  2.7171 -0.7238  0.4582
   20MOL0     H 2634   5.799   3.176   8.897  1.2608 -0.1650  0.5963
   20MOL0     H 2635   5.912   3.313   8.905  0.6755 -0.6092 -0.3695
   20MOL0     H 2636   5.992   3.106   8.813 -0.0769  1.6457  0.8556
   20MOL0     H 2637   5.878   3.126   8.679 -2.8033 -0.3880  2.6193
   20MOL0     H 2638   6.201   3.414   8.612  0.7989 -0.2319  1.7899
   20MOL0     H 2639   5.397   3.120   8.924  1.4374  1.7580 -2.0259
   20MOL0     H 2640   5.173   3.117   8.938  0.0180  0.0727 -0.0618
   21MOL0     O 2641   5.234   9.355   8.284 -0.4480 -0.7174 -0.5036
   21MOL0     C 2642   5.264   9.467   8.331 -0.7696  0.3500 -0.6737
   21MOL0     O 2643   5.164   9.558   8.372 -0.6105 -0.4195  0.5804
   21MOL0     C 2644   5.032   9.525   8.362  0.3835 -0.1355  0.0331
   21MOL0     C 2645   4.957   9.575   8.252 -1.0616  0.6699  0.1527
   21MOL0     C 2646   4.823   9.544   8.239  0.5249  0.2399 -0.0895
   21MOL0     C 2647   4.758   9.455   8.337 -0.4003  0.1326  0.6463
   21MOL0     O 2648   4.631   9.407   8.318  0.0336 -0.1120  0.7117
   21MOL0     C 2649   4.608   9.281   8.259  1.2341  1.0929  0.1943
   21MOL0     C 2650   4.528   9.295   8.131 -1.0659  0.1659  0.6848
   21MOL0     C 2651   4.494   9.147   8.079 -0.2732 -0.0890  0.1715
   21MOL0     C 2652   4.379   9.160   7.975  0.2103 -0.2920 -0.0227
   21MOL0     C 2653   4.238   9.146   8.043 -0.1677 -0.2807  0.3513
   21MOL0     C 2654   4.132   9.118   7.935  0.0515 -0.8060 -0.7623
   21MOL0     C 2655   4.001   9.056   7.999 -0.3927 -0.1495 -0.2627
   21MOL0     C 2656   3.900   9.040   7.888  0.3545  0.1266 -0.4906
   21MOL0     N 2657   3.781   8.963   7.936 -1.0169  0.1584  0.0479
   21MOL0     C 2658   3.770   8.829   7.948 -0.3991  0.6557  0.0128
   21MOL0     C 2659   3.650   8.807   7.999 -0.1033 -0.0856  0.6367
   21MOL0     C 2660   3.612   8.660   8.024 -0.0990 -0.2049 -0.3688
   21MOL0     C 2661   3.476   8.643   7.955 -0.3283  0.9071  0.6675
   21MOL0     C 2662   3.400   8.527   8.022 -0.5146  0.1180  0.6345
   21MOL0     C 2663   3.256   8.510   7.957 -0.6800  0.1503  1.3575
   21MOL0     O 2664   3.160   8.621   7.967 -0.7082  0.6542 -0.6275
   21MOL0     C 2665   3.092   8.629   8.086 -0.5136 -1.2476 -0.2961
   21MOL0     C 2666   3.130   8.566   8.212  0.3422  0.2691 -0.3503
   21MOL0     C 2667   3.042   8.590   8.324 -0.9568  0.1007  0.3623
   21MOL0     C 2668   2.926   8.661   8.315  0.2858  0.5468  0.0370
   21MOL0     C 2669   2.822   8.663   8.428  0.6181  0.3952  0.4049
   21MOL0     O 2670   2.722   8.750   8.414  0.8284 -0.5893  0.5130
   21MOL0     C 2671   2.619   8.761   8.502 -0.5395  0.1741 -0.1342
   21MOL0     C 2672   2.534   8.652   8.501  0.0498 -0.1443 -0.3288
   21MOL0     C 2673   2.407   8.661   8.568  0.1391  0.0762  0.0646
   21MOL0     C 2674   2.370   8.775   8.634  0.2719  0.6295 -0.3940
   21MOL0     O 2675   2.235   8.784   8.678 -0.1113 -0.2801  0.2026
   21MOL0     C 2676   2.189   8.908   8.743 -0.5004  1.2091 -0.6343
   21MOL0     C 2677   2.038   8.878   8.763  0.6394 -0.3836 -0.4257
   21MOL0     C 2678   2.020   8.783   8.883  0.6574  1.3531 -0.1408
   21MOL0     C 2679   1.869   8.738   8.890  0.7228 -0.5677 -0.2062
   21MOL0     C 2680   1.841   8.627   8.992 -0.6824 -0.0667  0.7658
   21MOL0     C 2681   1.686   8.615   8.999  0.1736  0.3930  1.0279
   21MOL0     C 2682   1.606   8.563   8.887  0.1555  0.6749 -0.0184
   21MOL0     C 2683   1.461   8.529   8.925  0.3914 -0.9281 -0.0839
   21MOL0    Cl 2684   1.383   8.685   8.978  0.4896  0.0692  0.1823
   21MOL0     C 2685   2.468   8.881   8.638  0.1056 -0.0465  0.3932
   21MOL0     C 2686   2.586   8.873   8.569 -0.2406  0.4049  0.1383
   21MOL0     O 2687   2.839   8.596   8.527 -0.2886  0.9797  0.0565
   21MOL0     C 2688   2.893   8.717   8.194 -0.1333 -0.4162  0.6501
   21MOL0     C 2689   2.974   8.706   8.081 -0.0882  0.4530  0.0489
   21MOL0     N 2690   3.586   8.922   8.016 -0.3610  0.3541  0.4309
   21MOL0     N 2691   3.665   9.023   7.990 -0.6048  0.3594  0.8571
   21MOL0     C 2692   4.841   9.404   8.436  0.9064 -0.6019 -1.7260
   21MOL0     C 2693   4.973   9.439   8.454 -0.4894 -0.2374 -0.1106
   21MOL0     C 2694   5.404   9.509   8.333 -0.4919 -0.1448 -1.2965
   21MOL0     C 2695   5.433   9.639   8.361 -0.0026 -0.3176 -0.0321
   21MOL0     C 2696   5.574   9.674   8.373  0.5939  0.4375 -0.4838
   21MOL0     C 2697   5.673   9.574   8.361 -0.1062  0.4743  0.5340
   21MOL0     O 2698   5.808   9.618   8.367 -0.2319  0.3951 -0.8436
   21MOL0     C 2699   5.912   9.528   8.380  0.1500  0.0473 -0.6805
   21MOL0     C 2700   6.045   9.608   8.388 -0.3867 -0.0967 -0.6052
   21MOL0     C 2701   6.179   9.530   8.401 -0.5560  0.0191  0.5079
   21MOL0     C 2702   6.313   9.611   8.408  0.6444  0.4367 -0.6717
   21MOL0     C 2703   6.336   9.689   8.286 -0.3783 -0.5829 -0.2455
   21MOL0     C 2704   6.368   9.742   8.181  0.6218  0.5717 -0.3309
   21MOL0     C 2705   5.639   9.448   8.324  1.1007  1.3792 -0.5413
   21MOL0     C 2706   5.505   9.415   8.309 -0.2605  0.3147 -0.0516
   21MOL0     H 2707   5.007   9.634   8.176 -1.0978  1.1350  0.4914
   21MOL0     H 2708   4.752   9.585   8.168  1.4291  3.1153  0.5206
   21MOL0     H 2709   4.557   9.222   8.335 -0.7275  0.2257 -1.6888
   21MOL0     H 2710   4.695   9.224   8.226 -0.7881 -1.4065 -1.1663
   21MOL0     H 2711   4.574   9.345   8.046  0.1587  0.0365  1.2543
   21MOL0     H 2712   4.432   9.344   8.150  0.5295  2.5429  3.4072
   21MOL0     H 2713   4.464   9.082   8.161 -0.9819 -0.5448 -0.4368
   21MOL0     H 2714   4.583   9.107   8.028 -0.4363  1.2441 -1.2353
   21MOL0     H 2715   4.377   9.247   7.909 -1.8857 -1.5647 -1.7131
   21MOL0     H 2716   4.408   9.081   7.906 -0.9433 -0.2214 -0.5952
   21MOL0     H 2717   4.217   9.238   8.099 -0.0823  0.5053 -0.8653
   21MOL0     H 2718   4.241   9.070   8.121 -0.7040 -3.1961 -2.2720
   21MOL0     H 2719   4.171   9.048   7.861  0.5645 -0.4859 -0.7956
   21MOL0     H 2720   4.110   9.209   7.877  0.4415 -1.8289 -2.5704
   21MOL0     H 2721   4.016   8.956   8.039 -1.5188 -0.0076  0.5694
   21MOL0     H 2722   3.967   9.120   8.081  0.1468 -1.7162  1.2427
   21MOL0     H 2723   3.944   8.986   7.804 -1.1296 -1.4038 -0.3368
   21MOL0     H 2724   3.886   9.143   7.853  3.8159  0.0391 -2.6669
   21MOL0     H 2725   3.843   8.752   7.925 -3.1704 -2.5362  1.0716
   21MOL0     H 2726   3.595   8.651   8.131  2.2310  0.1844  0.0649
   21MOL0     H 2727   3.691   8.589   7.998  0.0458 -0.7507  1.4827
   21MOL0     H 2728   3.498   8.604   7.855 -3.3008 -0.0885  0.3065
   21MOL0     H 2729   3.425   8.739   7.945 -0.1728  0.9467  0.2346
   21MOL0     H 2730   3.457   8.434   8.026  1.7760  1.4750  1.0151
   21MOL0     H 2731   3.384   8.547   8.128 -1.3231 -1.4983  0.8571
   21MOL0     H 2732   3.209   8.419   7.997 -1.5222 -0.1014 -0.1185
   21MOL0     H 2733   3.270   8.487   7.851  1.8045  2.0745  1.1920
   21MOL0     H 2734   3.221   8.506   8.214  1.1915  1.5446  1.0943
   21MOL0     H 2735   3.053   8.532   8.416 -0.2092 -2.6951 -1.3590
   21MOL0     H 2736   2.564   8.557   8.457 -1.4969  0.1092 -2.0687
   21MOL0     H 2737   2.340   8.576   8.574 -1.0781  1.0957  2.8250
   21MOL0     H 2738   2.202   8.997   8.681  2.7846 -1.2236 -3.9185
   21MOL0     H 2739   2.237   8.919   8.841  0.3742 -0.3739 -0.8451
   21MOL0     H 2740   2.001   8.853   8.664  0.5039  1.9880 -1.0269
   21MOL0     H 2741   1.986   8.972   8.785 -0.0117 -0.7236 -0.5267
   21MOL0     H 2742   2.042   8.835   8.976  0.2790  2.3814 -0.6030
   21MOL0     H 2743   2.087   8.698   8.871 -2.2010 -0.8697 -1.4855
   21MOL0     H 2744   1.809   8.829   8.899  1.4619 -0.2627  2.7358
   21MOL0     H 2745   1.836   8.700   8.793 -0.5067 -2.0419  0.7617
   21MOL0     H 2746   1.876   8.639   9.095  0.5125 -3.3173  0.8656
   21MOL0     H 2747   1.890   8.540   8.947 -0.7964  0.6408 -0.8065
   21MOL0     H 2748   1.642   8.714   9.017  0.2741  0.8136 -0.8799
   21MOL0     H 2749   1.663   8.552   9.086  0.1202  1.4447  1.8049
   21MOL0     H 2750   1.600   8.642   8.811  0.6212  0.3109 -0.4359
   21MOL0     H 2751   1.656   8.478   8.840  0.3705 -1.1476  3.2708
   21MOL0     H 2752   1.470   8.462   9.010 -3.7397 -1.1489  0.3923
   21MOL0     H 2753   1.403   8.480   8.846 -0.9683  0.9007 -0.3004
   21MOL0     H 2754   2.435   8.972   8.688 -3.0092 -2.5473  3.3262
   21MOL0     H 2755   2.640   8.968   8.569  0.0887  0.2265 -0.6236
   21MOL0     H 2756   2.813   8.788   8.180  3.7604  4.0911 -1.6872
   21MOL0     H 2757   2.946   8.765   7.994  1.9545  0.0033 -0.9780
   21MOL0     H 2758   4.805   9.325   8.502 -1.2796  3.6030  2.8261
   21MOL0     H 2759   5.034   9.407   8.537 -0.6396 -0.2067  0.0114
   21MOL0     H 2760   5.358   9.716   8.376 -0.4068 -0.3523 -1.7129
   21MOL0     H 2761   5.600   9.775   8.401 -1.2844  0.8067  0.0611
   21MOL0     H 2762   5.914   9.464   8.291 -1.3430  1.7833 -2.0506
   21MOL0     H 2763   5.892   9.473   8.472 -1.2861  0.9042 -0.4522
   21MOL0     H 2764   6.040   9.663   8.294 -1.4904  0.9872  0.0583
   21MOL0     H 2765   6.041   9.685   8.466 -2.4218  0.8813 -1.6058
   21MOL0     H 2766   6.180   9.470   8.310  0.7990  2.3980 -1.1288
   21MOL0     H 2767   6.161   9.465   8.488 -0.2947  0.4902  0.9207
   21MOL0     H 2768   6.305   9.684   8.489 -2.7169 -0.6374  0.1601
   21MOL0     H 2769   6.393   9.538   8.420  0.1365 -0.4686 -2.4745
   21MOL0     H 2770   6.402   9.800   8.098  3.4272 -2.0441 -1.1725
   21MOL0     H 2771   5.708   9.371   8.291  1.1244  1.7346 -1.3367
   21MOL0     H 2772   5.486   9.312   8.284 -2.5297  0.7483 -0.3217
   22MOL0     O 2773   5.616   1.520   3.192 -0.3982  0.1544 -0.3146
   22MOL0     C 2774   5.654   1.405   3.213 -0.3395 -0.4940 -0.3051
   22MOL0     O 2775   5.573   1.316   3.269  0.3528  0.4434 -0.2738
   22MOL0     C 2776   5.447   1.335   3.284 -0.3435  0.6374 -0.0572
   22MOL0     C 2777   5.366   1.236   3.228 -1.6220 -1.1772  0.1963
   22MOL0     C 2778   5.230   1.235   3.255  1.3142 -0.5988  0.6817
   22MOL0     C 2779   5.163   1.327   3.339  0.2016 -0.3413 -1.1565
   22MOL0     O 2780   5.027   1.330   3.362  0.2182  0.4807  0.1588
   22MOL0     C 2781   4.943   1.302   3.242 -0.0901 -0.2110  0.1627
   22MOL0     C 2782   4.790   1.300   3.269  0.7376 -0.6960  0.4286
   22MOL0     C 2783   4.733   1.441   3.306 -0.1172  0.2006  0.6697
   22MOL0     C 2784   4.580   1.447   3.288 -0.3575  0.3119  0.3294
   22MOL0     C 2785   4.528   1.559   3.378  0.3487 -0.5471  0.0286
   22MOL0     C 2786   4.379   1.580   3.360  0.2628  0.0543 -0.4636
   22MOL0     C 2787   4.319   1.666   3.479  0.9416  0.0599  0.1134
   22MOL0     C 2788   4.193   1.741   3.430 -1.1508 -0.4936 -0.6224
   22MOL0     N 2789   4.127   1.800   3.543  0.0188 -0.4174 -0.3531
   22MOL0     C 2790   4.173   1.886   3.638  0.5047  0.0510  0.3426
   22MOL0     C 2791   4.079   1.891   3.733 -0.4967  0.2754 -0.3170
   22MOL0     C 2792   4.091   1.957   3.871 -0.1816 -0.1690 -0.5425
   22MOL0     C 2793   3.969   2.058   3.876  0.5654  0.1625 -0.2450
   22MOL0     C 2794   3.964   2.128   4.010  0.9345  0.4675  0.7262
   22MOL0     C 2795   3.859   2.242   4.025 -0.1241 -0.0067 -0.3369
   22MOL0     O 2796   3.833   2.283   4.157  0.2782  0.3162  1.1225
   22MOL0     C 2797   3.705   2.256   4.196 -0.5944 -0.2580  0.1352
   22MOL0     C 2798   3.613   2.354   4.213 -0.5443  0.1356 -0.1629
   22MOL0     C 2799   3.485   2.327   4.242 -0.0588  0.1470  0.0100
   22MOL0     C 2800   3.435   2.194   4.253 -0.8533  0.2613  0.4756
   22MOL0     C 2801   3.292   2.161   4.289 -0.8628  0.0259  0.3191
   22MOL0     O 2802   3.267   2.032   4.323  0.3431 -0.3895 -0.1099
   22MOL0     C 2803   3.139   1.981   4.330 -0.0489  0.0752  0.6193
   22MOL0     C 2804   3.023   2.030   4.261 -0.7362 -0.2920  0.3176
   22MOL0     C 2805   2.900   1.973   4.287 -0.0361  0.6929  1.1379
   22MOL0     C 2806   2.883   1.863   4.373  1.0791  0.0831 -1.4720
   22MOL0     O 2807   2.759   1.808   4.383  0.5226 -0.5516 -0.2768
   22MOL0     C 2808   2.715   1.763   4.511 -0.0612 -0.0184  0.4292
   22MOL0     C 2809   2.559   1.734   4.500 -0.3994  0.1559 -0.4131
   22MOL0     C 2810   2.502   1.716   4.645 -0.4775 -0.1592  0.5819
   22MOL0     C 2811   2.362   1.657   4.654 -0.0379  0.4372 -0.3133
   22MOL0     C 2812   2.336   1.609   4.792 -0.0789  0.5842  0.4293
   22MOL0     C 2813   2.187   1.590   4.822 -0.7737 -0.2805 -0.3193
   22MOL0     C 2814   2.159   1.558   4.966 -0.0692 -0.1424 -0.1445
   22MOL0     C 2815   2.229   1.643   5.075 -0.4120 -0.1859  0.3823
   22MOL0    Cl 2816   2.146   1.626   5.239 -0.1583 -0.1621  0.3046
   22MOL0     C 2817   3.001   1.809   4.434 -0.3311 -0.8023 -0.1959
   22MOL0     C 2818   3.123   1.868   4.412 -0.7561 -0.0269 -0.8855
   22MOL0     O 2819   3.210   2.258   4.282  0.6893 -0.0986  0.1799
   22MOL0     C 2820   3.537   2.091   4.248  0.0540  0.5834 -1.5336
   22MOL0     C 2821   3.670   2.125   4.232  0.2992  0.3607  0.0005
   22MOL0     N 2822   3.974   1.804   3.701  0.2444 -0.4138  0.6343
   22MOL0     N 2823   4.004   1.762   3.581  1.0454 -1.1545 -0.0594
   22MOL0     C 2824   5.256   1.420   3.408  0.4610  0.1950 -0.6608
   22MOL0     C 2825   5.394   1.430   3.376 -0.7429  0.1134  0.8764
   22MOL0     C 2826   5.797   1.382   3.205  0.7694 -0.7874  0.3390
   22MOL0     C 2827   5.865   1.458   3.115  0.2924  0.7060 -0.2999
   22MOL0     C 2828   5.997   1.420   3.079 -0.5327 -1.4063  0.2569
   22MOL0     C 2829   6.063   1.308   3.148  0.1016  0.1380  1.0995
   22MOL0     O 2830   6.196   1.280   3.133 -0.1145  0.3041 -0.1754
   22MOL0     C 2831   6.261   1.332   3.022 -0.9589 -0.5511  0.2312
   22MOL0     C 2832   6.395   1.255   2.998 -0.5367 -0.3215 -0.1685
   22MOL0     C 2833   6.387   1.105   2.981 -0.4471 -0.2718  0.3405
   22MOL0     C 2834   6.297   1.064   2.864 -0.4104 -0.3834 -0.3191
   22MOL0     C 2835   6.352   1.094   2.727 -1.2865  0.5598 -0.3151
   22MOL0     C 2836   6.393   1.118   2.616 -0.0240 -0.2242 -0.0543
   22MOL0     C 2837   5.987   1.239   3.244 -0.1026  0.3033  0.7548
   22MOL0     C 2838   5.851   1.274   3.271  0.0743 -1.3393  0.1366
   22MOL0     H 2839   5.417   1.159   3.171  0.1198 -0.8390  1.2084
   22MOL0     H 2840   5.169   1.161   3.203 -0.2098  2.3315 -2.0696
   22MOL0     H 2841   4.973   1.214   3.184 -2.4357 -1.5773  0.8799
   22MOL0     H 2842   4.962   1.394   3.187  2.5488  1.1125  3.0142
   22MOL0     H 2843   4.766   1.227   3.347 -0.5093  0.4315  1.1441
   22MOL0     H 2844   4.738   1.269   3.178  1.1575  1.9500 -0.8268
   22MOL0     H 2845   4.775   1.521   3.246 -2.9040  2.2169  1.2120
   22MOL0     H 2846   4.768   1.466   3.407 -0.4460  2.1345  0.3417
   22MOL0     H 2847   4.567   1.463   3.181 -0.9818  1.2584  0.5327
   22MOL0     H 2848   4.519   1.361   3.318  0.0716 -0.4216 -0.8424
   22MOL0     H 2849   4.584   1.652   3.390  0.0277 -0.0987 -1.7103
   22MOL0     H 2850   4.543   1.521   3.479  1.3280  1.2867  0.6023
   22MOL0     H 2851   4.323   1.486   3.368  0.4763  0.0443  1.8672
   22MOL0     H 2852   4.361   1.619   3.260  0.7570 -2.3821 -1.5956
   22MOL0     H 2853   4.289   1.593   3.556 -0.3521  0.0014 -0.4194
   22MOL0     H 2854   4.390   1.732   3.530  0.8146  1.3151 -1.2685
   22MOL0     H 2855   4.116   1.679   3.382 -3.0612  2.2071 -1.2843
   22MOL0     H 2856   4.217   1.821   3.360  0.6386 -0.1195  0.3638
   22MOL0     H 2857   4.272   1.932   3.640  0.0682  1.1749 -1.7807
   22MOL0     H 2858   4.183   2.012   3.892 -1.8162  1.5991  2.8244
   22MOL0     H 2859   4.079   1.887   3.954  1.5777 -1.2788 -1.1885
   22MOL0     H 2860   3.878   2.001   3.857 -0.3971  1.7988 -0.6995
   22MOL0     H 2861   3.975   2.131   3.795 -1.8900  1.1185  0.3438
   22MOL0     H 2862   3.942   2.051   4.085  0.7032  1.5389  1.8015
   22MOL0     H 2863   4.062   2.168   4.034  1.1807  0.6117 -0.4585
   22MOL0     H 2864   3.765   2.211   3.978 -0.8318 -2.1018  2.1863
   22MOL0     H 2865   3.905   2.320   3.964 -0.4574  0.0332 -0.5452
   22MOL0     H 2866   3.634   2.459   4.193  2.4623 -0.3544  0.0176
   22MOL0     H 2867   3.406   2.400   4.258 -2.4011 -2.5620  1.7811
   22MOL0     H 2868   3.029   2.115   4.195 -0.9581  1.3824  2.3615
   22MOL0     H 2869   2.818   2.014   4.229 -1.1363 -0.3679  1.8905
   22MOL0     H 2870   2.729   1.852   4.571 -1.4560 -0.0673  0.8703
   22MOL0     H 2871   2.778   1.682   4.550 -3.4386 -2.4294  1.3350
   22MOL0     H 2872   2.549   1.646   4.436  1.6278 -0.9220  0.6374
   22MOL0     H 2873   2.507   1.810   4.441 -1.0838  0.0331  0.0204
   22MOL0     H 2874   2.510   1.811   4.698 -1.5363  1.1932 -1.5498
   22MOL0     H 2875   2.576   1.655   4.698 -1.1444 -0.6218  0.9829
   22MOL0     H 2876   2.293   1.741   4.640 -0.3478  0.2997  0.3502
   22MOL0     H 2877   2.339   1.576   4.584  1.1745 -0.2093  0.0122
   22MOL0     H 2878   2.393   1.665   4.866  0.2342 -2.0650  2.3167
   22MOL0     H 2879   2.392   1.516   4.802  3.0285  2.1539 -0.8900
   22MOL0     H 2880   2.154   1.515   4.749  0.2771  0.1365 -1.2547
   22MOL0     H 2881   2.140   1.681   4.784 -0.9971  0.1627  0.9856
   22MOL0     H 2882   2.051   1.551   4.978  0.1291 -1.5945  1.0496
   22MOL0     H 2883   2.199   1.459   4.987  1.7487  0.3604 -0.9999
   22MOL0     H 2884   2.229   1.748   5.045 -0.3075 -0.6162 -1.2490
   22MOL0     H 2885   2.330   1.601   5.085 -0.8158 -1.2132  0.3301
   22MOL0     H 2886   3.002   1.717   4.491  1.5270 -1.4539 -1.1602
   22MOL0     H 2887   3.204   1.822   4.466 -2.6311  0.0215  2.2025
   22MOL0     H 2888   3.517   1.986   4.264  2.1985  0.5492  1.8935
   22MOL0     H 2889   3.747   2.048   4.229  0.3767  0.3573  1.3708
   22MOL0     H 2890   5.215   1.492   3.478 -0.5392 -0.9617 -0.0273
   22MOL0     H 2891   5.454   1.509   3.421  3.0682 -0.9946 -1.7132
   22MOL0     H 2892   5.804   1.535   3.068 -0.8617  0.2429  0.3897
   22MOL0     H 2893   6.048   1.476   3.001 -0.4037 -0.6689  0.8660
   22MOL0     H 2894   6.288   1.435   3.047 -0.1513  0.1239 -2.9383
   22MOL0     H 2895   6.213   1.338   2.924  2.1958  0.1263 -1.4064
   22MOL0     H 2896   6.460   1.304   2.926  1.0910 -2.1170 -0.0205
   22MOL0     H 2897   6.451   1.279   3.089 -0.5763  1.3331 -0.5527
   22MOL0     H 2898   6.351   1.065   3.076 -0.1364 -1.2078  0.0756
   22MOL0     H 2899   6.484   1.056   2.966 -0.7294 -0.1833 -2.3336
   22MOL0     H 2900   6.287   0.955   2.869  0.2482 -0.3911  2.8423
   22MOL0     H 2901   6.197   1.103   2.885 -1.8733 -1.5762 -4.2030
   22MOL0     H 2902   6.430   1.126   2.516 -2.4638 -1.5766 -1.1499
   22MOL0     H 2903   6.035   1.165   3.308  1.3375  0.4777 -0.0945
   22MOL0     H 2904   5.787   1.222   3.341 -0.9845 -1.6457 -1.0094
   23MOL0     O 2905   5.037   6.813   4.975  0.3013 -0.2051 -0.7182
   23MOL0     C 2906   4.945   6.829   5.057  0.6107  0.6609  0.2821
   23MOL0     O 2907   4.949   6.799   5.190  0.3470 -0.2025 -0.2529
   23MOL0     C 2908   5.058   6.751   5.268  0.0080 -0.5859  0.1168
   23MOL0     C 2909   5.182   6.704   5.209  0.0597  0.3648  0.1612
   23MOL0     C 2910   5.287   6.656   5.290  0.0117 -0.5109  0.0378
   23MOL0     C 2911   5.269   6.655   5.430  0.0642 -0.1304 -0.6290
   23MOL0     O 2912   5.379   6.604   5.497 -0.1437 -0.0047 -0.0181
   23MOL0     C 2913   5.406   6.654   5.630  0.1716 -1.2441 -0.7558
   23MOL0     C 2914   5.560   6.673   5.666  0.1737  0.7717  0.5875
   23MOL0     C 2915   5.648   6.742   5.565 -0.4275  0.2442 -0.0313
   23MOL0     C 2916   5.583   6.876   5.521  0.0812  0.2691 -0.2244
   23MOL0     C 2917   5.684   6.966   5.446 -0.0428  0.0690 -0.2128
   23MOL0     C 2918   5.620   7.108   5.423  0.0701  0.5592 -0.0035
   23MOL0     C 2919   5.717   7.205   5.350 -0.3864 -0.0848 -0.6898
   23MOL0     C 2920   5.844   7.224   5.432 -0.3532 -0.6339 -0.2292
   23MOL0     N 2921   5.822   7.281   5.567  0.1817  0.4321  0.2455
   23MOL0     C 2922   5.779   7.406   5.603  0.3256  0.3432 -0.0494
   23MOL0     C 2923   5.751   7.397   5.736 -0.3187 -0.6854  0.7524
   23MOL0     C 2924   5.680   7.503   5.820  0.4161  0.4027  0.2694
   23MOL0     C 2925   5.528   7.471   5.801  0.2437  0.6819 -0.5673
   23MOL0     C 2926   5.433   7.575   5.869 -0.2396  0.7512 -0.2483
   23MOL0     C 2927   5.280   7.552   5.861  0.5500 -0.1992  0.1153
   23MOL0     O 2928   5.242   7.577   5.726  0.5051 -0.1628  0.5586
   23MOL0     C 2929   5.104   7.578   5.692 -0.4653 -0.7826 -0.6812
   23MOL0     C 2930   5.008   7.588   5.791 -0.0640  0.3942 -0.0306
   23MOL0     C 2931   4.873   7.599   5.759  0.7797  0.1343  0.1533
   23MOL0     C 2932   4.839   7.606   5.627  0.9590  0.3791 -0.4610
   23MOL0     C 2933   4.695   7.605   5.584  0.7541  0.5469  0.7885
   23MOL0     O 2934   4.596   7.617   5.690  0.5036  0.2055  0.1683
   23MOL0     C 2935   4.475   7.653   5.651  0.6116 -1.3429 -0.1222
   23MOL0     C 2936   4.455   7.778   5.590 -0.6051 -0.9709  0.4519
   23MOL0     C 2937   4.333   7.816   5.544  0.8097 -0.3144 -0.1415
   23MOL0     C 2938   4.216   7.740   5.574  0.5835 -0.0518 -0.2728
   23MOL0     O 2939   4.087   7.767   5.533 -0.8001  0.5627  0.6687
   23MOL0     C 2940   4.063   7.797   5.398  0.3918 -0.8885  0.4092
   23MOL0     C 2941   3.927   7.759   5.346  0.1522  0.7349 -0.6667
   23MOL0     C 2942   3.808   7.811   5.432 -0.3380 -0.1767 -0.7249
   23MOL0     C 2943   3.704   7.706   5.448  0.3820  0.2538  0.2035
   23MOL0     C 2944   3.601   7.749   5.553  0.3230  0.4529 -0.4087
   23MOL0     C 2945   3.454   7.688   5.535 -0.6349  1.1982  0.5925
   23MOL0     C 2946   3.342   7.752   5.614 -0.4986 -0.7963  0.3655
   23MOL0     C 2947   3.329   7.913   5.577  0.6826 -0.1490  0.2643
   23MOL0    Cl 2948   3.159   7.963   5.594  0.6121 -0.7691  0.0950
   23MOL0     C 2949   4.241   7.628   5.645  0.3546  2.0304 -0.5236
   23MOL0     C 2950   4.363   7.577   5.686 -0.0969 -0.0311  0.3276
   23MOL0     O 2951   4.667   7.597   5.464  0.3765  0.4770  0.4154
   23MOL0     C 2952   4.941   7.612   5.532  0.3761 -0.5093  0.0998
   23MOL0     C 2953   5.070   7.602   5.562 -0.5565 -0.0132 -0.3772
   23MOL0     N 2954   5.788   7.274   5.774 -0.5739 -0.7552  0.1488
   23MOL0     N 2955   5.816   7.199   5.674  0.3634 -0.1338 -0.2524
   23MOL0     C 2956   5.145   6.697   5.487 -0.2901 -0.6112  0.5956
   23MOL0     C 2957   5.045   6.740   5.404  0.5969  0.0243 -0.9871
   23MOL0     C 2958   4.806   6.878   5.015 -0.2848  0.2780  0.2871
   23MOL0     C 2959   4.800   6.915   4.880  0.2446 -0.7250 -0.3218
   23MOL0     C 2960   4.675   6.956   4.834  0.7719 -1.0280  0.1257
   23MOL0     C 2961   4.564   6.978   4.921 -0.9164 -0.2480 -0.5791
   23MOL0     O 2962   4.446   7.024   4.870  0.2965 -0.0629  0.0204
   23MOL0     C 2963   4.330   7.030   4.951  0.1210 -0.1045 -0.1414
   23MOL0     C 2964   4.206   7.062   4.867 -0.3837 -0.5083 -0.4193
   23MOL0     C 2965   4.113   7.168   4.934 -0.6770 -0.0996  0.4284
   23MOL0     C 2966   4.006   7.210   4.831  0.5492 -0.7079  0.1114
   23MOL0     C 2967   3.908   7.103   4.794 -0.5909 -0.2005 -0.6982
   23MOL0     C 2968   3.829   7.012   4.790  0.4942 -0.7482 -0.4881
   23MOL0     C 2969   4.578   6.936   5.057 -0.2461 -1.2376  0.0149
   23MOL0     C 2970   4.702   6.892   5.102  0.0898 -0.4344  0.4674
   23MOL0     H 2971   5.195   6.700   5.102  1.8819 -1.4765  0.3729
   23MOL0     H 2972   5.376   6.619   5.242 -1.1570 -0.7081 -2.0976
   23MOL0     H 2973   5.351   6.591   5.701 -3.9433 -0.2498 -2.7461
   23MOL0     H 2974   5.354   6.750   5.631  0.3101 -1.1453  1.3385
   23MOL0     H 2975   5.603   6.576   5.691  0.7085  1.0963  0.9520
   23MOL0     H 2976   5.567   6.727   5.761  1.3160 -1.9537  2.1684
   23MOL0     H 2977   5.665   6.680   5.476 -1.0674 -0.3232  0.2372
   23MOL0     H 2978   5.744   6.757   5.615  0.2962 -2.4897 -0.4459
   23MOL0     H 2979   5.499   6.855   5.455  0.0806  1.0113 -0.4621
   23MOL0     H 2980   5.540   6.927   5.608 -0.5391 -0.1223 -0.2924
   23MOL0     H 2981   5.726   6.925   5.355 -0.4967  0.7518 -0.7417
   23MOL0     H 2982   5.758   6.988   5.524  0.7922  3.0990 -1.7172
   23MOL0     H 2983   5.583   7.150   5.517  1.0970 -0.0785  0.7122
   23MOL0     H 2984   5.535   7.095   5.356 -1.2748  1.9164  1.3346
   23MOL0     H 2985   5.744   7.179   5.247  2.4546 -0.7804  0.1433
   23MOL0     H 2986   5.677   7.306   5.345  2.1245  0.9807 -0.3995
   23MOL0     H 2987   5.911   7.293   5.380  1.1289  1.7604  4.2269
   23MOL0     H 2988   5.894   7.127   5.439  1.9653  0.5330  0.6581
   23MOL0     H 2989   5.754   7.489   5.537 -2.1052  0.5744  1.0659
   23MOL0     H 2990   5.712   7.600   5.783 -0.5933  0.7179  0.1955
   23MOL0     H 2991   5.718   7.490   5.922  2.1995  1.3916 -0.2379
   23MOL0     H 2992   5.494   7.373   5.836  0.1113  0.7952 -0.3798
   23MOL0     H 2993   5.499   7.473   5.695  3.6431 -0.0577 -1.6526
   23MOL0     H 2994   5.465   7.585   5.973 -0.3889  0.2178 -0.1508
   23MOL0     H 2995   5.467   7.667   5.820  4.3045 -0.5778 -0.1071
   23MOL0     H 2996   5.236   7.634   5.919  1.6809  1.1568 -0.8713
   23MOL0     H 2997   5.249   7.452   5.890 -2.2371  0.0669 -1.6291
   23MOL0     H 2998   5.041   7.575   5.894  2.1069 -2.3715 -0.9496
   23MOL0     H 2999   4.797   7.590   5.836  1.2199  0.0704  0.5834
   23MOL0     H 3000   4.532   7.854   5.589 -1.9526  0.4259  0.3407
   23MOL0     H 3001   4.327   7.914   5.497 -3.9767 -0.4377 -0.3335
   23MOL0     H 3002   4.141   7.743   5.344  2.0754 -1.5197  3.2544
   23MOL0     H 3003   4.075   7.906   5.398 -0.0811 -0.8377  0.1943
   23MOL0     H 3004   3.927   7.649   5.341  3.3379  0.5763  0.5573
   23MOL0     H 3005   3.911   7.796   5.245 -5.3750  0.7946 -0.0881
   23MOL0     H 3006   3.761   7.904   5.398  1.6213  1.2352  0.2577
   23MOL0     H 3007   3.852   7.836   5.529 -1.4497  2.5245 -0.8197
   23MOL0     H 3008   3.654   7.684   5.353 -1.3944 -0.4947  1.2474
   23MOL0     H 3009   3.750   7.610   5.472  0.3888  0.6006  1.6681
   23MOL0     H 3010   3.583   7.857   5.552  0.6495  0.5499  1.0725
   23MOL0     H 3011   3.637   7.714   5.651 -3.2387 -3.2055 -0.1365
   23MOL0     H 3012   3.458   7.582   5.560  1.2374  0.7571 -1.3106
   23MOL0     H 3013   3.435   7.689   5.428 -5.1552 -0.3372  1.1639
   23MOL0     H 3014   3.248   7.703   5.588  0.2686 -1.2436 -1.7469
   23MOL0     H 3015   3.349   7.730   5.721 -1.8505 -1.6907  0.2971
   23MOL0     H 3016   3.350   7.929   5.471  1.8987  1.6046  0.7347
   23MOL0     H 3017   3.392   7.974   5.643 -1.3115  0.2587  1.9067
   23MOL0     H 3018   4.154   7.568   5.672  0.6131  2.1261  0.5602
   23MOL0     H 3019   4.390   7.485   5.737  1.7746  0.8047  0.9136
   23MOL0     H 3020   4.910   7.627   5.429 -0.8686 -2.0331  0.2157
   23MOL0     H 3021   5.143   7.617   5.482  0.0967 -2.9267 -0.4268
   23MOL0     H 3022   5.122   6.685   5.593  1.5112 -3.8876  0.7577
   23MOL0     H 3023   4.948   6.757   5.450  0.0669  0.2296 -2.1566
   23MOL0     H 3024   4.875   6.914   4.801 -0.9253  0.0912 -1.4783
   23MOL0     H 3025   4.676   6.979   4.728  1.4190 -1.6267 -0.0019
   23MOL0     H 3026   4.350   7.108   5.025 -0.5893  0.4156 -0.4909
   23MOL0     H 3027   4.316   6.937   5.007 -4.3003  1.4424  1.7723
   23MOL0     H 3028   4.242   7.097   4.770  1.0973  0.0051  0.2794
   23MOL0     H 3029   4.148   6.970   4.853 -1.6493  0.2262 -0.1120
   23MOL0     H 3030   4.158   7.265   4.957  3.5605 -1.4404 -1.2117
   23MOL0     H 3031   4.068   7.135   5.028 -4.0199  1.7327 -0.3821
   23MOL0     H 3032   3.947   7.295   4.867 -1.3119 -0.9761 -2.0507
   23MOL0     H 3033   4.068   7.250   4.750  0.6616  2.5783  1.6646
   23MOL0     H 3034   3.756   6.933   4.790  1.1026 -1.5391  3.3676
   23MOL0     H 3035   4.495   6.945   5.126 -0.5606 -0.0466 -0.4843
   23MOL0     H 3036   4.718   6.867   5.207  0.4990  4.6028  1.8392
   24MOL0     O 3037   0.629   8.774   2.975 -0.1716  0.6298  0.0352
   24MOL0     C 3038   0.523   8.750   2.929  0.7225 -0.3414 -0.5917
   24MOL0     O 3039   0.472   8.778   2.802  0.1264 -0.3846 -0.4777
   24MOL0     C 3040   0.536   8.846   2.707 -0.7226 -0.0156  0.9576
   24MOL0     C 3041   0.452   8.913   2.621  0.0654 -0.4226 -0.0118
   24MOL0     C 3042   0.516   8.991   2.522  0.2476 -0.5289  0.1890
   24MOL0     C 3043   0.656   8.993   2.501  0.6158  0.4659  0.3131
   24MOL0     O 3044   0.723   9.050   2.386  0.3111  0.2948 -0.2430
   24MOL0     C 3045   0.636   9.084   2.269 -0.2908 -0.1376 -0.6886
   24MOL0     C 3046   0.722   9.119   2.151  0.1309 -0.7547  0.7103
   24MOL0     C 3047   0.776   9.005   2.067 -0.0384 -0.3075  0.1272
   24MOL0     C 3048   0.876   9.058   1.962 -0.2688  0.0243 -0.0150
   24MOL0     C 3049   0.948   8.944   1.885 -0.6017 -0.3153  0.0150
   24MOL0     C 3050   1.052   9.003   1.784  0.7031 -0.1170 -0.7977
   24MOL0     C 3051   1.091   8.892   1.694 -0.3246  1.0127  0.5848
   24MOL0     C 3052   1.175   8.913   1.567  0.8633 -0.1840 -0.4907
   24MOL0     N 3053   1.306   8.980   1.599  0.7876 -0.8671 -0.0371
   24MOL0     C 3054   1.323   9.113   1.642  0.1390  1.1448 -0.3910
   24MOL0     C 3055   1.455   9.133   1.632 -0.3831 -1.0433  0.6597
   24MOL0     C 3056   1.535   9.253   1.647  0.1854 -0.2909  0.4625
   24MOL0     C 3057   1.509   9.307   1.781 -0.2877  0.2591 -0.3865
   24MOL0     C 3058   1.624   9.392   1.845  0.0485  0.3228 -0.0980
   24MOL0     C 3059   1.637   9.386   1.994  0.1621  0.0614  0.3035
   24MOL0     O 3060   1.698   9.265   2.024  0.2501  0.2615 -0.2137
   24MOL0     C 3061   1.670   9.196   2.142 -0.0768 -0.5943 -0.4290
   24MOL0     C 3062   1.690   9.054   2.130 -0.2010 -0.0432 -0.0783
   24MOL0     C 3063   1.652   8.979   2.236  0.0587  0.3205 -0.1053
   24MOL0     C 3064   1.600   9.033   2.356  0.4379 -0.2746  0.8537
   24MOL0     C 3065   1.553   8.943   2.468 -1.0915 -0.3223  0.2603
   24MOL0     O 3066   1.544   9.001   2.595 -0.4806 -0.0969  0.2998
   24MOL0     C 3067   1.508   8.918   2.692  0.1188  0.7586  0.3096
   24MOL0     C 3068   1.609   8.875   2.778  0.6983  0.2796  0.1936
   24MOL0     C 3069   1.567   8.778   2.876  0.7256  0.8425 -0.5411
   24MOL0     C 3070   1.436   8.732   2.898 -0.5429 -0.4603  0.8073
   24MOL0     O 3071   1.383   8.663   3.005 -0.1951 -1.0473 -1.0611
   24MOL0     C 3072   1.446   8.535   3.030  0.1614 -0.4344 -0.4055
   24MOL0     C 3073   1.378   8.435   2.940 -0.4725  0.2053 -0.1105
   24MOL0     C 3074   1.237   8.410   2.984 -0.1026 -0.0448 -0.7433
   24MOL0     C 3075   1.160   8.308   2.897 -0.1697  0.0359  0.0393
   24MOL0     C 3076   1.014   8.266   2.927  0.5568  0.9694 -1.0285
   24MOL0     C 3077   0.915   8.380   2.884 -0.5871 -0.4762 -0.3090
   24MOL0     C 3078   0.772   8.350   2.935  0.4608 -0.2678  0.5891
   24MOL0     C 3079   0.672   8.448   2.881 -0.6482  0.3305 -0.1298
   24MOL0    Cl 3080   0.514   8.368   2.876 -0.5950  0.1256 -0.3819
   24MOL0     C 3081   1.345   8.795   2.814  0.4785  0.5483 -0.1534
   24MOL0     C 3082   1.372   8.874   2.708 -0.5457  0.9056  0.1071
   24MOL0     O 3083   1.540   8.826   2.435 -0.1701 -0.0062 -0.0453
   24MOL0     C 3084   1.581   9.172   2.373 -0.3908  0.4346  0.4182
   24MOL0     C 3085   1.621   9.255   2.265  0.7151 -0.5865 -0.2982
   24MOL0     N 3086   1.514   9.013   1.605 -0.9493 -0.5520  0.2738
   24MOL0     N 3087   1.426   8.924   1.563 -0.1553  0.0015  0.1206
   24MOL0     C 3088   0.736   8.917   2.587  0.4263 -0.2246  0.1574
   24MOL0     C 3089   0.678   8.840   2.688  0.0520  0.8203  0.2039
   24MOL0     C 3090   0.424   8.688   3.022 -0.2013  0.6063 -0.1475
   24MOL0     C 3091   0.456   8.630   3.145 -1.0391 -1.1829  0.0154
   24MOL0     C 3092   0.363   8.564   3.226 -0.3661 -0.2612 -0.6162
   24MOL0     C 3093   0.231   8.578   3.192  0.7884  0.2570 -0.1942
   24MOL0     O 3094   0.126   8.532   3.272 -0.1052 -0.2796  0.6730
   24MOL0     C 3095   0.155   8.448   3.380  0.5752 -0.4696  0.2284
   24MOL0     C 3096   0.020   8.405   3.437  0.2624  0.3025 -0.1743
   24MOL0     C 3097  -0.046   8.511   3.531 -0.5647  0.8645 -0.0370
   24MOL0     C 3098   0.058   8.615   3.585 -0.2460  0.4645 -0.1302
   24MOL0     C 3099  -0.001   8.689   3.697 -0.5207  0.0030  0.3558
   24MOL0     C 3100  -0.047   8.754   3.789  0.4772  0.6810  0.4773
   24MOL0     C 3101   0.198   8.641   3.075  0.5207  0.0086 -0.8511
   24MOL0     C 3102   0.291   8.686   2.989  0.1964 -0.2780 -0.3700
   24MOL0     H 3103   0.344   8.907   2.635 -0.0653  2.0533  0.4332
   24MOL0     H 3104   0.456   9.067   2.472  1.6507  1.1491  0.9363
   24MOL0     H 3105   0.571   9.168   2.296 -0.9632 -0.3843 -1.5128
   24MOL0     H 3106   0.581   8.994   2.242  2.3379 -0.9382 -4.0602
   24MOL0     H 3107   0.800   9.183   2.193  0.2697 -0.7389  0.4356
   24MOL0     H 3108   0.670   9.186   2.081  0.7129 -0.8881  0.1418
   24MOL0     H 3109   0.692   8.951   2.022 -1.3539  1.0539  0.8568
   24MOL0     H 3110   0.829   8.929   2.125 -1.9655 -2.8685 -1.2208
   24MOL0     H 3111   0.822   9.122   1.892  2.5771  3.2895  0.5265
   24MOL0     H 3112   0.954   9.127   1.996  0.5839 -0.6131 -0.6449
   24MOL0     H 3113   0.875   8.888   1.825  1.9193 -0.2593 -3.4073
   24MOL0     H 3114   1.001   8.886   1.961 -1.1503  0.3702  0.9283
   24MOL0     H 3115   1.138   9.048   1.834 -0.3996  0.0894  0.9615
   24MOL0     H 3116   1.007   9.081   1.723 -5.2322 -1.8889  0.7187
   24MOL0     H 3117   1.158   8.833   1.757 -1.2061 -0.3476  0.2703
   24MOL0     H 3118   1.004   8.838   1.656  0.1679  1.0491 -0.6330
   24MOL0     H 3119   1.120   8.973   1.495 -0.4233  1.3487  1.6597
   24MOL0     H 3120   1.190   8.817   1.516 -3.5529  0.1811 -3.0205
   24MOL0     H 3121   1.243   9.184   1.660  0.7605  2.0716 -1.2194
   24MOL0     H 3122   1.504   9.334   1.580 -0.0094 -0.0745  0.8082
   24MOL0     H 3123   1.641   9.228   1.636 -0.6952 -4.4006 -0.3745
   24MOL0     H 3124   1.493   9.223   1.850  2.1337  1.1448  1.4274
   24MOL0     H 3125   1.420   9.370   1.793 -0.3439  0.0460  0.3716
   24MOL0     H 3126   1.720   9.373   1.796 -0.6323  3.7800 -3.1960
   24MOL0     H 3127   1.608   9.494   1.810  2.4027 -0.1797 -3.0343
   24MOL0     H 3128   1.544   9.407   2.047 -0.1256  0.1849 -0.2468
   24MOL0     H 3129   1.707   9.463   2.026 -0.1149  1.0367 -1.3061
   24MOL0     H 3130   1.728   9.016   2.036 -4.0038 -0.7822 -1.5043
   24MOL0     H 3131   1.662   8.871   2.224  2.2650  0.4781 -0.1368
   24MOL0     H 3132   1.716   8.882   2.758  0.7233 -1.9043 -0.7603
   24MOL0     H 3133   1.643   8.736   2.941 -0.3798 -0.7446 -0.2215
   24MOL0     H 3134   1.447   8.504   3.134  0.0850 -2.0031 -0.8441
   24MOL0     H 3135   1.550   8.531   2.995 -0.4979  0.7463 -2.7416
   24MOL0     H 3136   1.432   8.340   2.938 -2.1410 -0.8706  1.7525
   24MOL0     H 3137   1.377   8.476   2.838 -0.8771  0.8885  0.1599
   24MOL0     H 3138   1.182   8.505   2.989 -2.8292 -1.5653  0.9689
   24MOL0     H 3139   1.227   8.371   3.086  1.2154 -1.3662 -1.0847
   24MOL0     H 3140   1.160   8.337   2.791  1.9176 -3.5556 -1.1157
   24MOL0     H 3141   1.213   8.212   2.891  3.6139  2.0094 -0.9980
   24MOL0     H 3142   0.992   8.224   3.025 -2.7283 -0.6353 -2.2990
   24MOL0     H 3143   0.978   8.182   2.867 -2.0776  1.7435 -0.6439
   24MOL0     H 3144   0.923   8.380   2.775 -0.6040  2.9997 -0.4151
   24MOL0     H 3145   0.942   8.471   2.938  0.7848 -1.9968  1.7190
   24MOL0     H 3146   0.732   8.252   2.909  0.5989 -0.4579  1.0797
   24MOL0     H 3147   0.756   8.368   3.042 -0.6015  1.2112  0.2128
   24MOL0     H 3148   0.699   8.483   2.781  1.0324 -0.9524 -0.1753
   24MOL0     H 3149   0.674   8.531   2.952  3.2798 -0.7032  1.2769
   24MOL0     H 3150   1.248   8.750   2.831 -0.0698  0.5503 -2.8598
   24MOL0     H 3151   1.301   8.893   2.628 -1.9894  1.2930  1.4302
   24MOL0     H 3152   1.545   9.223   2.462 -0.9216  1.4334 -0.3483
   24MOL0     H 3153   1.610   9.362   2.274  1.0672 -0.2484 -2.8998
   24MOL0     H 3154   0.839   8.906   2.556 -0.2769 -2.5784 -1.6248
   24MOL0     H 3155   0.739   8.769   2.743 -1.2717 -1.1988 -0.7935
   24MOL0     H 3156   0.562   8.620   3.165 -0.7874 -2.8169 -1.8697
   24MOL0     H 3157   0.400   8.511   3.314  4.5474 -2.1636 -3.4465
   24MOL0     H 3158   0.227   8.492   3.449 -0.1000 -1.3130  1.4996
   24MOL0     H 3159   0.210   8.359   3.351  2.2214  0.5432  0.1224
   24MOL0     H 3160  -0.038   8.383   3.347 -1.1719  1.7022  0.3627
   24MOL0     H 3161   0.030   8.305   3.479  1.1414  0.1005 -0.8409
   24MOL0     H 3162  -0.076   8.453   3.619  1.3573 -3.8630 -2.1312
   24MOL0     H 3163  -0.135   8.554   3.484 -1.3442 -2.5742 -2.0532
   24MOL0     H 3164   0.145   8.568   3.632 -1.0047  0.0727  0.9071
   24MOL0     H 3165   0.091   8.676   3.500  1.5617 -3.4980 -2.5554
   24MOL0     H 3166  -0.082   8.806   3.876 -0.3861  0.8965  0.0063
   24MOL0     H 3167   0.096   8.648   3.039 -0.3617  1.4457  1.6745
   24MOL0     H 3168   0.250   8.716   2.893 -3.7821 -3.2405  0.1503
   25MOL0     O 3169   7.448   0.513   9.990  0.9070 -0.4385  0.0682
   25MOL0     C 3170   7.500   0.626   9.980  0.5727  0.4695  0.1620
   25MOL0     O 3171   7.462   0.730   9.904 -0.1131 -0.0655  0.7451
   25MOL0     C 3172   7.337   0.729   9.845  0.0277  0.8182 -0.6460
   25MOL0     C 3173   7.214   0.693   9.910 -0.8032  0.3257 -0.4146
   25MOL0     C 3174   7.093   0.669   9.836 -0.1808  0.4846  0.6670
   25MOL0     C 3175   7.100   0.688   9.698 -0.6694 -0.1055 -0.1428
   25MOL0     O 3176   6.981   0.664   9.633  0.0901  0.1150 -0.1810
   25MOL0     C 3177   6.987   0.629   9.493  0.1710  0.4954  0.2296
   25MOL0     C 3178   6.862   0.552   9.439 -0.6174 -0.3102  0.0617
   25MOL0     C 3179   6.730   0.622   9.463 -0.4032 -0.3046 -0.4478
   25MOL0     C 3180   6.615   0.525   9.441  0.1538  0.5040 -0.0249
   25MOL0     C 3181   6.479   0.589   9.464  0.6230  0.1784 -0.3129
   25MOL0     C 3182   6.372   0.486   9.432 -0.7078 -0.4078  0.2924
   25MOL0     C 3183   6.224   0.544   9.429  0.0672  0.1745 -0.4481
   25MOL0     C 3184   6.108   0.446   9.397 -0.3697  0.1580 -0.6100
   25MOL0     N 3185   5.981   0.502   9.444 -0.0368  0.1499  0.3473
   25MOL0     C 3186   5.937   0.526   9.571 -0.4568 -0.2547  0.8932
   25MOL0     C 3187   5.819   0.575   9.560 -0.2921  0.4988 -0.1215
   25MOL0     C 3188   5.723   0.596   9.677 -0.5411 -0.8724 -0.7847
   25MOL0     C 3189   5.690   0.458   9.752 -0.2187  0.1098  0.5281
   25MOL0     C 3190   5.584   0.382   9.674  0.3141  0.5167 -0.5658
   25MOL0     C 3191   5.564   0.235   9.728  0.0221 -0.2048 -0.2036
   25MOL0     O 3192   5.522   0.230   9.866 -0.2413 -0.0684 -0.2476
   25MOL0     C 3193   5.391   0.199   9.890 -0.1967 -0.6981 -1.4049
   25MOL0     C 3194   5.285   0.235   9.807  0.0352  0.2080 -1.3242
   25MOL0     C 3195   5.149   0.217   9.845  0.0294  0.9384 -0.4604
   25MOL0     C 3196   5.116   0.153   9.963 -0.1435  0.2233 -0.4030
   25MOL0     C 3197   4.976   0.137  10.007  0.3561  1.1241 -0.7068
   25MOL0     O 3198   4.955   0.040  10.101 -0.3808 -0.5526  0.1881
   25MOL0     C 3199   4.829   0.016  10.130  0.1972  0.1694  0.4861
   25MOL0     C 3200   4.753   0.095  10.220 -0.5561  1.3185  0.0437
   25MOL0     C 3201   4.621   0.057  10.266  0.4467  0.5093 -0.1874
   25MOL0     C 3202   4.558  -0.062  10.208  0.4812 -1.3014 -0.6136
   25MOL0     O 3203   4.430  -0.106  10.234  0.5360  0.2730  0.3851
   25MOL0     C 3204   4.338  -0.009  10.280 -0.7085 -0.3189  0.0290
   25MOL0     C 3205   4.192  -0.039  10.243  1.0496  0.1294 -0.4151
   25MOL0     C 3206   4.179  -0.071  10.099  0.1255  0.6845  0.5039
   25MOL0     C 3207   4.034  -0.046  10.052 -0.3240 -0.2020  0.3319
   25MOL0     C 3208   4.012  -0.052   9.902 -0.0695 -0.0261  0.8734
   25MOL0     C 3209   3.882   0.010   9.856  0.0885  0.1102 -0.1520
   25MOL0     C 3210   3.890   0.041   9.700  0.4728 -0.1218 -0.0930
   25MOL0     C 3211   3.749   0.053   9.639 -0.2992 -0.8267  0.5824
   25MOL0    Cl 3212   3.642   0.153   9.731 -0.2194 -0.2213 -0.2155
   25MOL0     C 3213   4.634  -0.135  10.118  0.6659  0.3780 -0.3455
   25MOL0     C 3214   4.762  -0.099  10.082 -0.3626  0.4676  0.6309
   25MOL0     O 3215   4.890   0.203   9.952 -0.1790  0.0215  0.4626
   25MOL0     C 3216   5.221   0.113  10.046  0.2251 -0.1802  0.3186
   25MOL0     C 3217   5.358   0.150  10.016  0.8100 -0.0919 -0.7539
   25MOL0     N 3218   5.774   0.587   9.428 -0.0792 -0.1313 -0.4369
   25MOL0     N 3219   5.877   0.542   9.360 -0.1145  0.0501 -0.4690
   25MOL0     C 3220   7.220   0.746   9.642  1.0803 -0.0739  0.6452
   25MOL0     C 3221   7.337   0.769   9.717  0.0925 -0.4026 -0.0616
   25MOL0     C 3222   7.627   0.640  10.047 -0.4702  0.5711 -0.4339
   25MOL0     C 3223   7.664   0.580  10.175 -0.3761 -0.1985 -0.3938
   25MOL0     C 3224   7.778   0.610  10.243 -0.0463 -0.3362  0.0083
   25MOL0     C 3225   7.867   0.700  10.192  0.2350  0.0507  0.7249
   25MOL0     O 3226   7.972   0.719  10.276  0.2348 -0.0110  0.2621
   25MOL0     C 3227   8.063   0.819  10.220  0.0517 -0.8126  0.2832
   25MOL0     C 3228   8.183   0.834  10.303  0.2477 -1.5619  0.9640
   25MOL0     C 3229   8.289   0.716  10.285 -0.8278 -0.2946 -0.0342
   25MOL0     C 3230   8.420   0.743  10.360  0.4856  0.0868 -0.4586
   25MOL0     C 3231   8.501   0.843  10.292  0.1265  0.5038  0.4118
   25MOL0     C 3232   8.571   0.898  10.212 -0.0967 -0.6253  0.3193
   25MOL0     C 3233   7.846   0.744  10.058 -0.0976  0.5351  0.6987
   25MOL0     C 3234   7.726   0.715   9.985  0.3399  0.2477 -0.8505
   25MOL0     H 3235   7.200   0.659  10.012 -0.4818 -2.1313 -1.1287
   25MOL0     H 3236   7.003   0.624   9.876  0.9838 -2.1080  0.5615
   25MOL0     H 3237   7.079   0.573   9.474 -0.2494 -0.0348 -0.3082
   25MOL0     H 3238   7.002   0.718   9.431  0.1361  0.2539 -0.1285
   25MOL0     H 3239   6.857   0.451   9.482 -0.5897 -1.3009 -2.1610
   25MOL0     H 3240   6.871   0.553   9.330 -0.4228  2.8193  0.0074
   25MOL0     H 3241   6.734   0.706   9.393  0.6635 -1.0913 -1.3597
   25MOL0     H 3242   6.716   0.658   9.565  0.2713 -1.2658  0.0016
   25MOL0     H 3243   6.624   0.499   9.335 -0.6936  5.0784 -1.4121
   25MOL0     H 3244   6.619   0.437   9.506 -0.3140  0.8598  0.4913
   25MOL0     H 3245   6.463   0.682   9.410  0.2718  1.1486  1.4012
   25MOL0     H 3246   6.462   0.614   9.569 -1.3856 -0.5381 -0.4216
   25MOL0     H 3247   6.380   0.412   9.512 -0.0184  1.5367  2.1131
   25MOL0     H 3248   6.403   0.452   9.333  0.7609 -1.1272  0.9819
   25MOL0     H 3249   6.208   0.577   9.532 -0.8432 -0.7280 -0.2800
   25MOL0     H 3250   6.227   0.625   9.356  1.1918  1.1855  0.6926
   25MOL0     H 3251   6.126   0.346   9.436  1.6869  0.0492 -1.7152
   25MOL0     H 3252   6.105   0.437   9.288 -0.1579 -1.1795 -0.5163
   25MOL0     H 3253   5.996   0.508   9.661  1.8883  1.0938 -0.2934
   25MOL0     H 3254   5.632   0.644   9.641 -0.0398  2.1358  1.5875
   25MOL0     H 3255   5.765   0.668   9.748 -3.6984 -0.2805  0.6869
   25MOL0     H 3256   5.663   0.469   9.858 -0.4795 -2.7252  0.8327
   25MOL0     H 3257   5.785   0.405   9.745 -0.2114  0.3569 -1.8328
   25MOL0     H 3258   5.490   0.439   9.671  0.6799  1.1417 -0.4148
   25MOL0     H 3259   5.611   0.376   9.568  2.5298 -1.2528  0.0217
   25MOL0     H 3260   5.661   0.186   9.718 -0.3302 -0.7200 -1.2464
   25MOL0     H 3261   5.495   0.179   9.664 -1.6973  1.3607  0.1878
   25MOL0     H 3262   5.302   0.285   9.713 -0.7431 -0.5150 -1.8664
   25MOL0     H 3263   5.072   0.244   9.773 -0.4730 -3.5334 -1.9575
   25MOL0     H 3264   4.802   0.183  10.262 -2.4880  2.3686  0.2355
   25MOL0     H 3265   4.572   0.125  10.335 -0.1928  1.6077 -1.6766
   25MOL0     H 3266   4.363   0.087  10.234 -1.3969  0.9178  2.1221
   25MOL0     H 3267   4.344   0.012  10.388  2.5195 -1.0261  0.1016
   25MOL0     H 3268   4.132   0.047  10.274  1.7900  0.7617 -0.6744
   25MOL0     H 3269   4.161  -0.121  10.307 -1.5866  1.2630 -0.1325
   25MOL0     H 3270   4.198  -0.174  10.068 -1.7793  0.6486 -0.6899
   25MOL0     H 3271   4.247  -0.009  10.040  1.3601 -0.6747  0.4470
   25MOL0     H 3272   3.965  -0.120  10.093  1.1898 -1.9074 -0.0696
   25MOL0     H 3273   4.009   0.053  10.091  1.6152 -0.8069  3.5583
   25MOL0     H 3274   4.011  -0.155   9.865  1.3441  1.2481 -3.2185
   25MOL0     H 3275   4.096   0.003   9.858  0.7174 -0.5415  1.7022
   25MOL0     H 3276   3.866   0.110   9.899 -0.5610 -0.5128  1.0937
   25MOL0     H 3277   3.796  -0.047   9.892  1.2954 -0.6054  1.6864
   25MOL0     H 3278   3.944   0.136   9.694 -0.9285  0.6797 -0.5382
   25MOL0     H 3279   3.941  -0.040   9.646  2.0606 -2.0991  3.9909
   25MOL0     H 3280   3.703  -0.046   9.626 -3.1889  0.6500 -1.6979
   25MOL0     H 3281   3.762   0.086   9.535  1.4865 -1.4000  0.5824
   25MOL0     H 3282   4.578  -0.222  10.087 -0.3743  0.3059  1.5306
   25MOL0     H 3283   4.816  -0.162  10.012 -0.8757  0.1823  0.4885
   25MOL0     H 3284   5.192   0.070  10.140 -1.0204  0.3611  0.1955
   25MOL0     H 3285   5.436   0.129  10.088  1.3342 -2.4177 -1.8927
   25MOL0     H 3286   7.218   0.760   9.534  1.6405 -1.4705  0.4329
   25MOL0     H 3287   7.428   0.800   9.668  0.7092 -0.0131  1.2939
   25MOL0     H 3288   7.597   0.510  10.225  1.4255 -1.2714  0.6317
   25MOL0     H 3289   7.801   0.554  10.334 -1.5243 -1.4972 -0.2900
   25MOL0     H 3290   8.010   0.915  10.218  0.4326 -0.5852  0.7735
   25MOL0     H 3291   8.089   0.803  10.115 -1.7350 -0.5540 -0.2340
   25MOL0     H 3292   8.237   0.926  10.279 -1.5503 -0.6609  0.2406
   25MOL0     H 3293   8.159   0.839  10.410  0.8437 -0.3988  1.0528
   25MOL0     H 3294   8.306   0.718  10.177 -0.1433  0.1577  0.0731
   25MOL0     H 3295   8.241   0.624  10.319  1.5522 -1.3793  0.5721
   25MOL0     H 3296   8.403   0.777  10.463  0.3063 -0.3056 -0.3566
   25MOL0     H 3297   8.476   0.651  10.379  0.5211  0.6329  2.7521
   25MOL0     H 3298   8.623   0.937  10.127 -2.7696  1.8798 -0.3635
   25MOL0     H 3299   7.924   0.804  10.014  2.2581 -1.3766  1.9688
   25MOL0     H 3300   7.697   0.769   9.896 -4.2151 -3.1407 -1.8120
   26MOL0     O 3301   4.455   8.260   0.553  0.7063  0.5570  0.5567
   26MOL0     C 3302   4.435   8.145   0.595  0.8111 -0.8397 -0.5635
   26MOL0     O 3303   4.527   8.061   0.647  0.2513  0.7516 -0.5597
   26MOL0     C 3304   4.656   8.098   0.624 -0.3076  0.1298 -0.0043
   26MOL0     C 3305   4.714   8.033   0.507  0.1327  0.3607 -1.3342
   26MOL0     C 3306   4.854   8.052   0.486 -1.1076 -0.3194 -0.0978
   26MOL0     C 3307   4.937   8.136   0.567 -0.3569 -0.3839  0.0138
   26MOL0     O 3308   5.071   8.137   0.535  0.5161  0.1697  0.0085
   26MOL0     C 3309   5.162   8.217   0.611 -0.2594 -0.4982 -0.1384
   26MOL0     C 3310   5.306   8.177   0.566  0.4775 -0.3041  0.1244
   26MOL0     C 3311   5.417   8.248   0.648  0.4092  0.3092  0.2001
   26MOL0     C 3312   5.559   8.182   0.627  0.5102 -0.2090  0.6954
   26MOL0     C 3313   5.648   8.222   0.738 -0.2778 -0.3552 -0.1020
   26MOL0     C 3314   5.794   8.193   0.720  0.2064 -0.0905 -0.0561
   26MOL0     C 3315   5.880   8.232   0.838  0.4396 -0.7756 -0.3828
   26MOL0     C 3316   6.021   8.185   0.829 -0.6000  1.0549  0.3036
   26MOL0     N 3317   6.097   8.254   0.715  0.3222  0.3569 -1.2966
   26MOL0     C 3318   6.103   8.387   0.693 -0.3977 -0.7845 -0.2554
   26MOL0     C 3319   6.193   8.394   0.595 -0.1910  0.8488 -0.0183
   26MOL0     C 3320   6.228   8.522   0.528  0.9964 -0.7207  0.8393
   26MOL0     C 3321   6.118   8.610   0.481  0.0992  0.2474  0.4573
   26MOL0     C 3322   6.059   8.557   0.353 -0.3205 -0.6612  0.0586
   26MOL0     C 3323   5.965   8.665   0.296  0.5367  0.3330  1.0252
   26MOL0     O 3324   5.832   8.653   0.351 -0.4604 -0.1448 -0.2838
   26MOL0     C 3325   5.747   8.561   0.315  0.0097 -0.6941 -0.3024
   26MOL0     C 3326   5.773   8.454   0.226  0.3184  0.4116  0.2419
   26MOL0     C 3327   5.676   8.373   0.180  0.3823 -0.5441  0.0757
   26MOL0     C 3328   5.539   8.386   0.227  0.0951 -0.2812 -0.2448
   26MOL0     C 3329   5.437   8.282   0.191 -1.2581 -0.2851  0.5652
   26MOL0     O 3330   5.482   8.182   0.113  0.0189  0.6274  0.3874
   26MOL0     C 3331   5.389   8.091   0.070 -0.3259 -0.0640  1.0087
   26MOL0     C 3332   5.288   8.034   0.153 -0.1870  1.6505  0.2241
   26MOL0     C 3333   5.193   7.946   0.095  0.8575  0.1860 -1.1680
   26MOL0     C 3334   5.195   7.915  -0.039 -1.0331  0.3839  0.1545
   26MOL0     O 3335   5.095   7.841  -0.101  0.7663  0.0309  0.0582
   26MOL0     C 3336   5.088   7.699  -0.069 -0.3196  0.2478 -0.0618
   26MOL0     C 3337   4.981   7.637  -0.151  0.2163 -0.8604  0.7767
   26MOL0     C 3338   4.841   7.705  -0.120  0.0109  0.6148 -0.3140
   26MOL0     C 3339   4.724   7.637  -0.192 -0.1427  0.0383 -1.3599
   26MOL0     C 3340   4.584   7.689  -0.152  0.5486  0.4679 -0.0843
   26MOL0     C 3341   4.468   7.637  -0.236 -0.1408  0.2009 -0.4278
   26MOL0     C 3342   4.340   7.682  -0.181 -0.4152 -0.5283  1.5414
   26MOL0     C 3343   4.219   7.651  -0.280 -1.0453 -0.4196  0.7771
   26MOL0    Cl 3344   4.218   7.749  -0.436 -0.3493 -0.0705  0.3953
   26MOL0     C 3345   5.299   7.963  -0.124  0.3554  0.6622  0.4933
   26MOL0     C 3346   5.399   8.039  -0.069  0.4874 -0.2997  0.4071
   26MOL0     O 3347   5.320   8.304   0.222  0.2400  0.3664 -0.4229
   26MOL0     C 3348   5.515   8.490   0.318  0.8043  0.5071  0.2620
   26MOL0     C 3349   5.613   8.577   0.362 -0.1769  0.1121 -0.0131
   26MOL0     N 3350   6.244   8.275   0.558 -0.8747  0.7840  0.7735
   26MOL0     N 3351   6.182   8.190   0.632 -0.2431 -1.0239  0.3855
   26MOL0     C 3352   4.868   8.200   0.676 -0.0986 -0.4735  0.5173
   26MOL0     C 3353   4.732   8.183   0.699  0.1753 -0.0416 -0.3081
   26MOL0     C 3354   4.291   8.103   0.597  0.9558  0.1789  1.1270
   26MOL0     C 3355   4.265   7.976   0.643 -0.0954  0.1494 -0.3149
   26MOL0     C 3356   4.132   7.938   0.651  0.1712 -0.2717  0.1849
   26MOL0     C 3357   4.025   8.015   0.600  0.0531  0.0649  0.2915
   26MOL0     O 3358   3.910   7.953   0.593 -0.0912  0.4180 -0.3908
   26MOL0     C 3359   3.799   8.044   0.597 -0.4573 -0.0533 -0.5431
   26MOL0     C 3360   3.680   7.950   0.635 -1.0347  0.4859 -0.1158
   26MOL0     C 3361   3.554   8.017   0.678  0.4377  0.0947  0.0518
   26MOL0     C 3362   3.434   7.925   0.662  0.2810  0.0595 -1.0487
   26MOL0     C 3363   3.433   7.803   0.742 -1.0416  0.9123 -1.1261
   26MOL0     C 3364   3.426   7.704   0.806 -0.3907  0.2585 -0.3745
   26MOL0     C 3365   4.050   8.147   0.569 -0.6469  0.5027 -0.5995
   26MOL0     C 3366   4.184   8.192   0.560 -0.3195  0.5352 -0.0309
   26MOL0     H 3367   4.662   7.950   0.461 -0.5647 -1.1968  1.9873
   26MOL0     H 3368   4.901   7.985   0.415 -0.9588  0.1133 -0.4094
   26MOL0     H 3369   5.157   8.194   0.718 -0.8108 -1.2028 -0.3061
   26MOL0     H 3370   5.139   8.320   0.582  0.2816 -0.4249 -0.3092
   26MOL0     H 3371   5.320   8.193   0.459 -1.5169  0.7558 -0.0219
   26MOL0     H 3372   5.322   8.073   0.596  1.7469  0.0531  0.7746
   26MOL0     H 3373   5.401   8.252   0.756 -1.2004  0.3813 -0.0235
   26MOL0     H 3374   5.429   8.349   0.608  1.1408  0.3129  0.3992
   26MOL0     H 3375   5.554   8.073   0.638 -2.6490 -0.2594 -0.1636
   26MOL0     H 3376   5.598   8.193   0.526 -0.8366 -3.5843 -0.3475
   26MOL0     H 3377   5.610   8.191   0.836 -1.1510  0.8588 -0.0315
   26MOL0     H 3378   5.635   8.331   0.743 -2.3732 -0.5369 -0.6913
   26MOL0     H 3379   5.838   8.242   0.633  2.9752 -1.1759  0.6314
   26MOL0     H 3380   5.807   8.085   0.708  2.0322  0.1489 -0.4999
   26MOL0     H 3381   5.870   8.340   0.847 -1.2407 -0.8490 -1.0669
   26MOL0     H 3382   5.841   8.178   0.925 -0.3709  0.2143 -0.1174
   26MOL0     H 3383   6.025   8.077   0.809 -0.1369  0.6442  2.3509
   26MOL0     H 3384   6.086   8.191   0.917  1.3659  1.3742 -1.1151
   26MOL0     H 3385   6.075   8.476   0.749  5.9936  1.5807  0.0108
   26MOL0     H 3386   6.292   8.499   0.442 -0.8269 -1.6343 -0.3532
   26MOL0     H 3387   6.275   8.584   0.605  1.4269  0.4454 -0.3409
   26MOL0     H 3388   6.166   8.704   0.450  1.0102 -1.2576 -3.2859
   26MOL0     H 3389   6.046   8.620   0.562  0.5258 -1.2074  1.0597
   26MOL0     H 3390   6.131   8.522   0.278  1.3753 -2.4530  2.3894
   26MOL0     H 3391   5.996   8.468   0.371  1.5402 -2.3238 -1.1820
   26MOL0     H 3392   5.968   8.655   0.187  0.9778 -2.0205  1.2136
   26MOL0     H 3393   6.006   8.765   0.312  0.8452  0.5281 -0.7873
   26MOL0     H 3394   5.873   8.434   0.189  0.0247 -0.1501 -0.2536
   26MOL0     H 3395   5.700   8.291   0.113 -0.9778 -1.8233  1.1097
   26MOL0     H 3396   5.280   8.063   0.257  1.6285 -1.5345  1.3791
   26MOL0     H 3397   5.121   7.903   0.164 -0.7942 -0.9171 -3.4622
   26MOL0     H 3398   5.068   7.696   0.039 -1.6463  0.9701 -0.2670
   26MOL0     H 3399   5.187   7.660  -0.095 -0.4606 -0.4600  0.4196
   26MOL0     H 3400   4.977   7.530  -0.129 -2.9838 -1.4950 -2.0474
   26MOL0     H 3401   5.008   7.647  -0.257 -0.1602  2.6112  0.9148
   26MOL0     H 3402   4.847   7.810  -0.151 -2.5300  0.3242 -2.0514
   26MOL0     H 3403   4.831   7.705  -0.011  0.4208  3.7419 -0.1822
   26MOL0     H 3404   4.735   7.652  -0.300  2.4448 -1.2442 -1.3391
   26MOL0     H 3405   4.733   7.530  -0.169  0.3515 -0.0108 -1.7606
   26MOL0     H 3406   4.589   7.798  -0.140  3.9342  0.3952  0.0148
   26MOL0     H 3407   4.558   7.662  -0.049 -0.2112  1.7182  0.0701
   26MOL0     H 3408   4.457   7.529  -0.231  0.5329  0.1102  4.4134
   26MOL0     H 3409   4.479   7.682  -0.335 -0.3410  0.2018 -0.4506
   26MOL0     H 3410   4.318   7.617  -0.096 -1.4184 -0.4641  1.3417
   26MOL0     H 3411   4.338   7.789  -0.159 -1.5389  0.0430 -0.9804
   26MOL0     H 3412   4.127   7.676  -0.227  0.2217  1.4967  2.2424
   26MOL0     H 3413   4.225   7.544  -0.299 -1.2651 -0.1674 -0.8973
   26MOL0     H 3414   5.289   7.946  -0.231 -0.4048  1.5672  0.4049
   26MOL0     H 3415   5.472   8.075  -0.140 -3.3376  1.5298 -3.0122
   26MOL0     H 3416   5.423   8.497   0.375 -0.6606  3.8216 -2.1709
   26MOL0     H 3417   5.581   8.660   0.424 -0.4913  0.7335 -0.9895
   26MOL0     H 3418   4.924   8.264   0.743  1.0552 -1.0550  0.1448
   26MOL0     H 3419   4.685   8.243   0.777 -1.2935  0.5325 -1.5827
   26MOL0     H 3420   4.349   7.927   0.690  2.0700  3.2127 -0.6517
   26MOL0     H 3421   4.100   7.845   0.697  1.8997 -0.6900  0.6058
   26MOL0     H 3422   3.783   8.100   0.504  0.6565  0.9104 -0.1739
   26MOL0     H 3423   3.815   8.119   0.674  1.1715 -0.8393 -0.0778
   26MOL0     H 3424   3.665   7.883   0.550 -2.5075 -1.3226  1.4905
   26MOL0     H 3425   3.710   7.894   0.725  2.2032 -2.3248 -2.6605
   26MOL0     H 3426   3.528   8.099   0.610 -3.7956  0.2482  1.5688
   26MOL0     H 3427   3.560   8.061   0.778 -1.6829  2.3081 -0.6846
   26MOL0     H 3428   3.342   7.975   0.690  0.5147  1.5544 -2.7239
   26MOL0     H 3429   3.430   7.910   0.553  2.6856  2.3305 -1.5557
   26MOL0     H 3430   3.400   7.618   0.865  1.2924  0.1524  0.2503
   26MOL0     H 3431   3.973   8.220   0.547 -0.4016  1.2081  0.8323
   26MOL0     H 3432   4.205   8.293   0.526  1.6218  0.3986  0.6243
   27MOL0     O 3433   3.304  10.387   6.568  0.1272  0.2948  0.5219
   27MOL0     C 3434   3.298  10.502   6.535 -0.2708 -0.0608  0.6522
   27MOL0     O 3435   3.182  10.583   6.532  0.6012 -0.1027  0.3097
   27MOL0     C 3436   3.053  10.536   6.521  0.0745 -0.0414  0.1264
   27MOL0     C 3437   2.956  10.630   6.472 -0.3585  0.0732  0.2883
   27MOL0     C 3438   2.821  10.603   6.471 -0.0506 -0.8312  0.2786
   27MOL0     C 3439   2.776  10.489   6.523  0.4503  0.3314  0.3264
   27MOL0     O 3440   2.643  10.457   6.548 -0.5346  0.3287  0.7750
   27MOL0     C 3441   2.547  10.560   6.575  0.3674 -0.1596  1.3107
   27MOL0     C 3442   2.422  10.500   6.640  1.1174 -0.0720 -0.8045
   27MOL0     C 3443   2.307  10.465   6.552  0.5834  0.3279 -0.5455
   27MOL0     C 3444   2.182  10.442   6.633  0.0771 -0.8874  0.2117
   27MOL0     C 3445   2.047  10.422   6.554  0.3054 -0.2640 -0.1088
   27MOL0     C 3446   1.920  10.420   6.650 -0.0803 -0.8923  0.2724
   27MOL0     C 3447   1.800  10.397   6.560 -0.3251 -0.6686  0.5424
   27MOL0     C 3448   1.668  10.418   6.646  0.0864 -0.3816 -0.3665
   27MOL0     N 3449   1.538  10.417   6.579 -0.0818 -0.0113  0.1929
   27MOL0     C 3450   1.493  10.303   6.515  0.2845  0.5097 -0.1952
   27MOL0     C 3451   1.372  10.341   6.468  0.6692 -0.6067 -0.5688
   27MOL0     C 3452   1.285  10.253   6.384  0.8837 -0.4557 -0.0135
   27MOL0     C 3453   1.132  10.277   6.393  0.5365  0.0053  0.2184
   27MOL0     C 3454   1.094  10.376   6.290  0.2611 -0.1197  0.1970
   27MOL0     C 3455   0.945  10.399   6.292  0.2517  0.0815 -0.2333
   27MOL0     O 3456   0.908  10.517   6.218 -0.2303  0.2650  0.1255
   27MOL0     C 3457   0.780  10.554   6.219  1.1208 -1.0344 -0.2162
   27MOL0     C 3458   0.676  10.480   6.278  0.3937 -0.2572 -0.1695
   27MOL0     C 3459   0.541  10.523   6.270 -1.1188 -0.3846 -0.2104
   27MOL0     C 3460   0.505  10.652   6.221 -0.1276 -0.3868  0.2023
   27MOL0     C 3461   0.373  10.716   6.214 -0.7564  0.0326  1.2567
   27MOL0     O 3462   0.360  10.845   6.164  0.8058 -0.5696 -0.1799
   27MOL0     C 3463   0.244  10.917   6.162 -1.1859 -0.6294  0.1713
   27MOL0     C 3464   0.107  10.883   6.162  0.2583  0.2868 -0.5431
   27MOL0     C 3465   0.006  10.977   6.152 -0.3475 -0.2565  1.1382
   27MOL0     C 3466   0.035  11.115   6.148 -0.0809 -0.5397  0.4665
   27MOL0     O 3467  -0.072  11.194   6.142 -0.1051 -0.1535  0.1239
   27MOL0     C 3468  -0.047  11.333   6.113  0.2505 -0.5418  0.3351
   27MOL0     C 3469  -0.180  11.402   6.066  0.5391 -0.1427 -0.7285
   27MOL0     C 3470  -0.279  11.396   6.172 -0.0605  0.5159  0.4877
   27MOL0     C 3471  -0.410  11.462   6.133  0.8154 -0.9603 -0.1358
   27MOL0     C 3472  -0.509  11.479   6.243 -0.2295  0.4528 -0.3597
   27MOL0     C 3473  -0.651  11.522   6.209  0.3326  0.3201 -0.1089
   27MOL0     C 3474  -0.734  11.412   6.159  0.4278  0.9053 -0.2311
   27MOL0     C 3475  -0.733  11.384   6.018 -0.9470 -0.5686 -0.2985
   27MOL0    Cl 3476  -0.732  11.209   5.969  0.5365  0.6717 -0.3278
   27MOL0     C 3477   0.164  11.153   6.140 -0.2564 -0.0493  0.1913
   27MOL0     C 3478   0.276  11.056   6.156 -0.8576  0.0600  0.1867
   27MOL0     O 3479   0.279  10.641   6.243  1.0004  0.0457  0.5837
   27MOL0     C 3480   0.612  10.723   6.165 -0.2341  0.0937  0.4007
   27MOL0     C 3481   0.745  10.676   6.167  0.1431 -0.1698  0.9644
   27MOL0     N 3482   1.351  10.481   6.504 -0.6719  0.1788  0.6398
   27MOL0     N 3483   1.460  10.518   6.568 -0.2794  0.0942  0.4372
   27MOL0     C 3484   2.863  10.388   6.548 -0.4217 -0.0708  1.3153
   27MOL0     C 3485   2.998  10.407   6.544  0.3209  0.6699  0.0394
   27MOL0     C 3486   3.424  10.572   6.503  0.3087 -0.1162  1.0322
   27MOL0     C 3487   3.424  10.712   6.465  0.1093  0.1588  0.0460
   27MOL0     C 3488   3.542  10.778   6.435  0.1227 -0.5797  0.2992
   27MOL0     C 3489   3.666  10.699   6.441  0.3569  0.3436  0.3535
   27MOL0     O 3490   3.783  10.765   6.431  0.5744  0.2735  1.0395
   27MOL0     C 3491   3.879  10.692   6.351 -0.6982 -1.1727 -0.7465
   27MOL0     C 3492   4.014  10.775   6.354 -0.3443 -1.1023  0.2679
   27MOL0     C 3493   4.088  10.743   6.484  0.3748 -0.3654  0.6852
   27MOL0     C 3494   4.232  10.811   6.488  0.0262 -0.0821  0.4292
   27MOL0     C 3495   4.311  10.772   6.609 -0.4310 -0.1511  0.1074
   27MOL0     C 3496   4.382  10.729   6.699 -0.1792  0.1448  0.0055
   27MOL0     C 3497   3.663  10.559   6.472  0.2833 -0.1263  0.1212
   27MOL0     C 3498   3.543  10.503   6.508  0.1581  0.5333 -0.1946
   27MOL0     H 3499   2.980  10.734   6.452  0.0072 -0.3360 -1.5686
   27MOL0     H 3500   2.756  10.684   6.440  0.8175 -0.1134  0.3102
   27MOL0     H 3501   2.523  10.602   6.477 -1.9207 -2.5931  0.7245
   27MOL0     H 3502   2.592  10.636   6.639  1.6337  1.3704 -1.2257
   27MOL0     H 3503   2.388  10.581   6.705 -0.6277  1.0573 -2.9947
   27MOL0     H 3504   2.440  10.415   6.707 -3.7565 -0.5943  0.2382
   27MOL0     H 3505   2.335  10.374   6.497  1.2546 -0.8631  1.6643
   27MOL0     H 3506   2.293  10.547   6.480  4.0348  1.1582 -0.4658
   27MOL0     H 3507   2.213  10.364   6.703  0.2859 -0.8726  0.1354
   27MOL0     H 3508   2.165  10.526   6.700 -4.1240 -0.6281 -0.8523
   27MOL0     H 3509   2.057  10.337   6.486 -3.1662  2.1927 -4.1975
   27MOL0     H 3510   2.027  10.505   6.485 -1.0652 -2.0263 -1.9516
   27MOL0     H 3511   1.897  10.507   6.712 -0.6739 -2.8959  3.0493
   27MOL0     H 3512   1.933  10.328   6.708  1.2693 -0.3932  0.7926
   27MOL0     H 3513   1.809  10.476   6.486  0.1995  0.3641  1.6671
   27MOL0     H 3514   1.799  10.296   6.518 -0.5573  0.5430 -2.6114
   27MOL0     H 3515   1.673  10.516   6.695 -0.7904  0.5705 -2.0642
   27MOL0     H 3516   1.657  10.338   6.719 -2.0779 -0.7514 -1.0100
   27MOL0     H 3517   1.527  10.201   6.533  0.6375  0.9379  1.7680
   27MOL0     H 3518   1.306  10.150   6.415  1.3249 -0.1935  0.5695
   27MOL0     H 3519   1.320  10.271   6.282  2.7743 -0.6656  0.5676
   27MOL0     H 3520   1.104  10.301   6.496 -0.7183 -0.9204  0.1105
   27MOL0     H 3521   1.084  10.180   6.376  1.1070 -0.3715  0.7186
   27MOL0     H 3522   1.137  10.475   6.307  0.1174  0.7932 -3.9176
   27MOL0     H 3523   1.116  10.335   6.192 -0.9883 -1.0610  0.2794
   27MOL0     H 3524   0.913  10.399   6.397 -0.5702 -0.8726 -0.4704
   27MOL0     H 3525   0.898  10.313   6.243 -0.9076  0.9595 -0.7221
   27MOL0     H 3526   0.690  10.381   6.318 -0.1009 -1.6370 -3.1235
   27MOL0     H 3527   0.478  10.440   6.300  1.2462 -3.0507 -2.0523
   27MOL0     H 3528   0.089  10.776   6.171 -0.3686  0.5391  2.1121
   27MOL0     H 3529  -0.094  10.938   6.136  1.2491 -4.3127 -0.1134
   27MOL0     H 3530   0.023  11.347   6.030 -0.6044  0.1693 -0.2896
   27MOL0     H 3531  -0.006  11.391   6.196  0.1973 -1.2625  0.8770
   27MOL0     H 3532  -0.207  11.366   5.966  2.0209 -1.1362 -0.7963
   27MOL0     H 3533  -0.155  11.507   6.046 -0.9369 -0.1234 -2.7995
   27MOL0     H 3534  -0.225  11.433   6.260  1.6705 -0.7877  0.0439
   27MOL0     H 3535  -0.302  11.290   6.190  0.1382  0.0402 -1.7974
   27MOL0     H 3536  -0.383  11.559   6.091 -1.1470 -0.8831 -1.3426
   27MOL0     H 3537  -0.458  11.400   6.058  1.8596  0.5116 -2.0988
   27MOL0     H 3538  -0.457  11.546   6.312  1.6517  1.1134 -2.2931
   27MOL0     H 3539  -0.507  11.385   6.300  0.8451  0.9562  0.4628
   27MOL0     H 3540  -0.659  11.607   6.140  0.5029  0.2230 -0.2510
   27MOL0     H 3541  -0.695  11.567   6.298 -1.8081  1.2778 -1.5811
   27MOL0     H 3542  -0.710  11.318   6.209  0.9450  1.5776  0.8243
   27MOL0     H 3543  -0.840  11.423   6.183  0.7736 -0.9652  2.5892
   27MOL0     H 3544  -0.645  11.436   5.981 -0.1802  1.3015  3.6318
   27MOL0     H 3545  -0.809  11.434   5.957  1.0373 -1.7366 -4.0700
   27MOL0     H 3546   0.183  11.259   6.129  0.1709 -0.2307 -0.8977
   27MOL0     H 3547   0.377  11.093   6.140 -0.6753 -0.4450  0.1743
   27MOL0     H 3548   0.593  10.812   6.106 -0.5368 -0.1554  0.1236
   27MOL0     H 3549   0.824  10.732   6.118  0.4596 -0.0833  1.5652
   27MOL0     H 3550   2.821  10.289   6.558 -0.1270 -0.7331 -2.4178
   27MOL0     H 3551   3.058  10.331   6.593  0.8176  1.5171  0.7732
   27MOL0     H 3552   3.336  10.775   6.467  1.1309  1.6000  0.4162
   27MOL0     H 3553   3.540  10.884   6.413  0.0632 -1.0485 -2.1809
   27MOL0     H 3554   3.848  10.700   6.246 -1.3207 -0.1012 -0.4961
   27MOL0     H 3555   3.897  10.586   6.374 -1.8058 -0.6586  3.0391
   27MOL0     H 3556   4.079  10.744   6.272  0.2418 -0.1337  0.3472
   27MOL0     H 3557   4.005  10.884   6.342 -1.3496 -1.4656 -3.9326
   27MOL0     H 3558   4.093  10.634   6.493  0.1839 -0.4479 -0.1417
   27MOL0     H 3559   4.029  10.782   6.567 -0.1298  1.5623 -0.5014
   27MOL0     H 3560   4.287  10.779   6.400  0.7220  0.4342  0.6699
   27MOL0     H 3561   4.231  10.921   6.489  1.2712 -0.0558 -0.2143
   27MOL0     H 3562   4.440  10.693   6.781  0.5193  1.7549  0.2496
   27MOL0     H 3563   3.749  10.493   6.469 -0.3735 -1.0254  0.7297
   27MOL0     H 3564   3.542  10.403   6.550  0.5431  0.9322  0.7886
   28MOL0     O 3565   5.549   2.954   7.007  0.0881 -0.3831  0.6621
   28MOL0     C 3566   5.557   3.013   7.114  0.0085  0.3667  0.8897
   28MOL0     O 3567   5.458   3.085   7.170 -0.2948 -0.3653 -0.5102
   28MOL0     C 3568   5.331   3.093   7.116  0.2395  0.2240  0.1634
   28MOL0     C 3569   5.283   3.221   7.100  0.3801 -0.4494  0.0782
   28MOL0     C 3570   5.149   3.241   7.068  0.7283 -0.0416  0.3134
   28MOL0     C 3571   5.060   3.131   7.031 -0.3112 -0.2178  0.7372
   28MOL0     O 3572   4.933   3.153   6.985  0.1998  0.8519  0.1751
   28MOL0     C 3573   4.825   3.070   7.045 -0.1537  0.2338  0.2950
   28MOL0     C 3574   4.685   3.129   7.026  0.3988 -0.2676  0.5659
   28MOL0     C 3575   4.570   3.033   7.061  0.6658  0.5052  0.4887
   28MOL0     C 3576   4.437   3.082   7.004 -0.2123  0.1769 -0.6907
   28MOL0     C 3577   4.319   2.985   7.041  0.4828 -0.3897  0.8137
   28MOL0     C 3578   4.188   3.037   6.984 -0.2609  0.0240 -0.4532
   28MOL0     C 3579   4.073   2.951   7.029 -0.6033 -0.7436 -0.6579
   28MOL0     C 3580   3.951   3.029   6.991 -0.0719 -0.3218 -1.2151
   28MOL0     N 3581   3.837   2.933   6.995 -0.0037  0.4908 -0.5468
   28MOL0     C 3582   3.784   2.890   7.115  0.1815 -0.6729  0.0682
   28MOL0     C 3583   3.696   2.799   7.068  0.5903 -0.1503  0.3333
   28MOL0     C 3584   3.602   2.729   7.162  0.3752 -0.3692  0.4533
   28MOL0     C 3585   3.480   2.818   7.180 -0.4878  0.1511 -0.0577
   28MOL0     C 3586   3.372   2.751   7.262  0.5473 -0.2907 -0.2795
   28MOL0     C 3587   3.251   2.850   7.274  0.4243  0.8846 -0.1177
   28MOL0     O 3588   3.174   2.800   7.381  0.8960 -0.6371  0.1374
   28MOL0     C 3589   3.037   2.778   7.362  0.1764 -0.1469  0.6138
   28MOL0     C 3590   2.972   2.735   7.477 -1.3506  0.0629  0.3053
   28MOL0     C 3591   2.828   2.708   7.476 -0.8495 -0.9721  0.2501
   28MOL0     C 3592   2.758   2.734   7.357 -0.0522  0.2376 -0.2259
   28MOL0     C 3593   2.608   2.703   7.364  0.3925 -0.1914 -0.0436
   28MOL0     O 3594   2.535   2.750   7.259 -0.1224  0.2655 -0.0683
   28MOL0     C 3595   2.396   2.758   7.258  0.0537 -0.7553 -0.5418
   28MOL0     C 3596   2.343   2.855   7.178  1.1047 -0.2891 -1.6153
   28MOL0     C 3597   2.206   2.874   7.195  0.4485 -0.0657  0.7247
   28MOL0     C 3598   2.127   2.797   7.271 -0.3728  0.4883 -0.3006
   28MOL0     O 3599   1.996   2.825   7.286 -0.1592  0.4498  0.1663
   28MOL0     C 3600   1.911   2.732   7.219  0.0325 -0.0647 -0.2341
   28MOL0     C 3601   1.778   2.810   7.183 -0.5122  0.0927  0.3987
   28MOL0     C 3602   1.688   2.716   7.113  0.1768  0.5514  0.9074
   28MOL0     C 3603   1.566   2.794   7.045 -0.1250  0.2705  1.0587
   28MOL0     C 3604   1.458   2.835   7.153 -0.4573 -0.3971 -0.2699
   28MOL0     C 3605   1.329   2.873   7.094  1.8973  0.2642 -1.1507
   28MOL0     C 3606   1.211   2.850   7.201 -0.8052 -0.0369  1.0181
   28MOL0     C 3607   1.135   2.720   7.164 -0.2354  0.6233 -0.4068
   28MOL0    Cl 3608   1.227   2.576   7.218 -0.2126 -0.1235 -0.4182
   28MOL0     C 3609   2.180   2.683   7.331 -0.1592  1.0320  0.2489
   28MOL0     C 3610   2.314   2.661   7.319  0.0112 -0.6202  0.2429
   28MOL0     O 3611   2.563   2.656   7.467  0.4397  0.0844  0.1637
   28MOL0     C 3612   2.828   2.775   7.242  0.3453  0.5035 -0.3341
   28MOL0     C 3613   2.962   2.797   7.242 -0.4294  0.2705  0.6447
   28MOL0     N 3614   3.689   2.795   6.924 -0.4435  0.3321  0.1954
   28MOL0     N 3615   3.784   2.874   6.883 -0.0919  0.1536  0.4735
   28MOL0     C 3616   5.116   3.003   7.050  0.5109  0.6031  0.7369
   28MOL0     C 3617   5.253   2.983   7.086  0.6703  0.3089 -0.2596
   28MOL0     C 3618   5.695   3.008   7.174  1.3122  1.3270 -0.3821
   28MOL0     C 3619   5.721   3.079   7.291  0.3076 -0.0505 -0.2646
   28MOL0     C 3620   5.840   3.066   7.359 -0.2519  0.8554 -0.3093
   28MOL0     C 3621   5.942   2.996   7.306 -0.6372 -0.0894  0.9465
   28MOL0     O 3622   6.065   2.988   7.373  0.0258  0.2095 -0.0660
   28MOL0     C 3623   6.186   3.009   7.300  0.0489  0.1323 -0.3296
   28MOL0     C 3624   6.275   3.093   7.382 -0.2822 -0.4655  0.2050
   28MOL0     C 3625   6.364   3.019   7.483  0.5764  0.5514  0.1737
   28MOL0     C 3626   6.501   3.083   7.505 -0.1209 -0.5228  0.2606
   28MOL0     C 3627   6.572   2.986   7.594 -0.0949  0.3051  0.2895
   28MOL0     C 3628   6.623   2.894   7.657  0.1335 -0.2553  0.0395
   28MOL0     C 3629   5.924   2.932   7.180  0.5041 -0.3503  0.2753
   28MOL0     C 3630   5.796   2.932   7.118  0.0760 -0.0162 -0.0819
   28MOL0     H 3631   5.344   3.308   7.121  1.8831 -1.6878  1.1051
   28MOL0     H 3632   5.116   3.343   7.055  3.2960  1.2304  2.7364
   28MOL0     H 3633   4.835   3.056   7.153 -0.9815  1.4834  0.5441
   28MOL0     H 3634   4.836   2.968   7.007 -2.6432 -0.9257  2.3692
   28MOL0     H 3635   4.680   3.156   6.920 -1.0654 -0.9696  0.4289
   28MOL0     H 3636   4.669   3.221   7.084  0.8306  0.4046 -0.3736
   28MOL0     H 3637   4.560   3.020   7.170  2.0564 -0.7215  0.5086
   28MOL0     H 3638   4.591   2.934   7.020 -1.7944  0.3729 -0.5995
   28MOL0     H 3639   4.420   3.182   7.044  0.8890 -0.7004  2.2212
   28MOL0     H 3640   4.449   3.086   6.896 -1.7015  0.1849 -0.8792
   28MOL0     H 3641   4.298   2.994   7.148 -1.6383 -0.4134  0.4531
   28MOL0     H 3642   4.344   2.884   7.008  0.1948  0.7506 -3.3623
   28MOL0     H 3643   4.188   3.047   6.875  0.8690 -1.4303 -0.6225
   28MOL0     H 3644   4.177   3.138   7.024 -0.6938  0.6675 -2.1143
   28MOL0     H 3645   4.073   2.851   6.985 -1.1640 -1.1091  0.1484
   28MOL0     H 3646   4.081   2.934   7.137 -0.9693 -0.4005 -0.5716
   28MOL0     H 3647   3.965   3.059   6.887  0.6176  0.8178 -0.8129
   28MOL0     H 3648   3.935   3.116   7.055 -0.4626 -2.6566  2.1483
   28MOL0     H 3649   3.821   2.909   7.215  0.9106 -0.6018 -0.2115
   28MOL0     H 3650   3.645   2.689   7.255  3.1654  3.0091  0.8107
   28MOL0     H 3651   3.568   2.642   7.105 -0.2235  0.0877  0.1016
   28MOL0     H 3652   3.434   2.846   7.085 -2.2515 -1.5379  0.2605
   28MOL0     H 3653   3.531   2.899   7.234 -0.3444 -1.1592  1.8600
   28MOL0     H 3654   3.344   2.661   7.206  0.0866 -1.1328  1.2246
   28MOL0     H 3655   3.417   2.719   7.357 -1.0783  1.1049  1.0215
   28MOL0     H 3656   3.194   2.868   7.183 -0.8066  1.6323  0.7800
   28MOL0     H 3657   3.277   2.948   7.316  0.3311 -0.2138  2.7254
   28MOL0     H 3658   3.036   2.704   7.559  4.5004  0.1311 -3.7014
   28MOL0     H 3659   2.787   2.655   7.562  1.0358 -0.8345  1.2942
   28MOL0     H 3660   2.413   2.919   7.124  1.4233 -0.9984 -2.0532
   28MOL0     H 3661   2.153   2.964   7.164  0.2313 -0.4507 -0.0492
   28MOL0     H 3662   1.883   2.648   7.283 -0.8454 -0.4485 -1.1108
   28MOL0     H 3663   1.963   2.693   7.131 -2.6373  0.2766 -2.0668
   28MOL0     H 3664   1.794   2.896   7.117 -0.2098  0.7537  1.3083
   28MOL0     H 3665   1.730   2.852   7.272 -2.0162  1.4262 -0.9656
   28MOL0     H 3666   1.637   2.643   7.176 -0.1353 -0.4924 -0.5115
   28MOL0     H 3667   1.742   2.667   7.032 -1.5810 -0.6538  0.4063
   28MOL0     H 3668   1.599   2.882   6.990  0.7092  0.2431  1.5003
   28MOL0     H 3669   1.514   2.737   6.967 -0.3243  0.6350  0.9239
   28MOL0     H 3670   1.499   2.915   7.214 -0.9776  2.5746 -3.5066
   28MOL0     H 3671   1.450   2.751   7.222  1.2599  0.1990  0.7095
   28MOL0     H 3672   1.319   2.805   7.008  1.3570 -0.7829 -0.2945
   28MOL0     H 3673   1.327   2.979   7.070  1.0200  0.7004  0.6918
   28MOL0     H 3674   1.245   2.834   7.303  1.1484 -3.4428  0.0152
   28MOL0     H 3675   1.139   2.932   7.188  1.4604  1.8974 -0.0055
   28MOL0     H 3676   1.117   2.724   7.057 -0.5654  2.5881 -0.3159
   28MOL0     H 3677   1.039   2.708   7.216  0.1327 -0.5530  0.0276
   28MOL0     H 3678   2.118   2.601   7.365  1.4337 -0.0066  0.7803
   28MOL0     H 3679   2.354   2.569   7.361 -1.4438 -1.2652  0.2706
   28MOL0     H 3680   2.787   2.794   7.143  2.5780  1.5748 -1.1295
   28MOL0     H 3681   3.008   2.839   7.153 -0.2695 -1.1455  0.0271
   28MOL0     H 3682   5.044   2.924   7.030 -0.3254  1.7076 -0.7530
   28MOL0     H 3683   5.291   2.883   7.105 -1.8169 -0.8222 -0.7612
   28MOL0     H 3684   5.649   3.142   7.340  0.4328 -0.7028  0.7832
   28MOL0     H 3685   5.851   3.127   7.448 -0.7616  0.8564 -0.2415
   28MOL0     H 3686   6.159   3.056   7.205  0.7151 -3.8106 -2.7348
   28MOL0     H 3687   6.230   2.910   7.282  0.5100  0.3392 -0.3461
   28MOL0     H 3688   6.337   3.150   7.313  1.5796 -0.6060  1.6888
   28MOL0     H 3689   6.216   3.167   7.437  1.0685  2.5021 -2.0670
   28MOL0     H 3690   6.388   2.924   7.434 -0.7441 -0.6555  1.7536
   28MOL0     H 3691   6.322   3.004   7.583  1.9273 -1.3316  0.5289
   28MOL0     H 3692   6.558   3.082   7.412  0.2185 -0.6054  0.4649
   28MOL0     H 3693   6.501   3.186   7.540 -1.9247 -0.2900 -0.3252
   28MOL0     H 3694   6.663   2.801   7.694 -1.5748 -1.4632 -0.9929
   28MOL0     H 3695   6.004   2.881   7.128 -0.9620 -1.5498 -0.9343
   28MOL0     H 3696   5.788   2.858   7.038  0.0632 -0.2684  0.1504
   29MOL0     O 3697   3.488   4.832   3.942  0.6358 -0.0820  0.1586
   29MOL0     C 3698   3.412   4.734   3.917 -1.5639  0.6445 -0.4124
   29MOL0     O 3699   3.457   4.599   3.907  0.2146  0.3403 -0.7222
   29MOL0     C 3700   3.587   4.577   3.937 -0.0180  0.9318  0.3378
   29MOL0     C 3701   3.693   4.584   3.841  0.7690  0.1180 -0.0424
   29MOL0     C 3702   3.830   4.548   3.878  0.0817  0.2809 -0.0394
   29MOL0     C 3703   3.854   4.517   4.011  0.2348  1.1496 -0.4602
   29MOL0     O 3704   3.985   4.494   4.042 -0.1296 -0.5405 -0.8042
   29MOL0     C 3705   4.034   4.529   4.172 -0.2776 -0.0362  0.3204
   29MOL0     C 3706   4.180   4.576   4.172 -0.1633 -0.2009  0.2642
   29MOL0     C 3707   4.222   4.563   4.316 -0.0162 -0.0966  0.0143
   29MOL0     C 3708   4.370   4.626   4.333  0.3844 -0.2209 -0.4147
   29MOL0     C 3709   4.462   4.500   4.326  0.1306 -0.3762  0.1233
   29MOL0     C 3710   4.608   4.527   4.339  0.1014  0.6621 -0.4526
   29MOL0     C 3711   4.633   4.566   4.489  0.8737 -0.9562  0.2438
   29MOL0     C 3712   4.775   4.544   4.548 -0.4563 -0.7202  0.4688
   29MOL0     N 3713   4.817   4.401   4.517  0.7607  0.0545  0.7936
   29MOL0     C 3714   4.800   4.295   4.604 -0.2602 -0.2178 -0.0771
   29MOL0     C 3715   4.865   4.186   4.542  0.8216  0.0084 -0.0804
   29MOL0     C 3716   4.869   4.048   4.604 -0.5831 -0.3712  0.0900
   29MOL0     C 3717   4.733   3.972   4.576 -0.1869  0.6997 -0.8019
   29MOL0     C 3718   4.741   3.913   4.440 -0.1388 -0.6129 -0.6815
   29MOL0     C 3719   4.601   3.851   4.419  0.3768  0.0353 -0.4446
   29MOL0     O 3720   4.523   3.955   4.360 -0.0413  0.0509 -0.8239
   29MOL0     C 3721   4.386   3.931   4.376  0.6110 -0.5749 -0.1775
   29MOL0     C 3722   4.325   3.814   4.335 -1.0834  0.2398  0.0183
   29MOL0     C 3723   4.179   3.797   4.344 -0.9770 -0.9932 -0.2152
   29MOL0     C 3724   4.102   3.904   4.391 -0.5439 -0.1966 -0.5354
   29MOL0     C 3725   3.955   3.896   4.394 -0.4453  0.4661  0.3063
   29MOL0     O 3726   3.907   3.771   4.359  0.1386  0.1280  0.8140
   29MOL0     C 3727   3.783   3.735   4.332  0.7220  0.4538  0.5957
   29MOL0     C 3728   3.679   3.807   4.280 -0.8542 -0.0500 -0.4054
   29MOL0     C 3729   3.548   3.749   4.268  0.2089  0.1539 -0.0655
   29MOL0     C 3730   3.529   3.621   4.308  0.8889  0.2364  0.1829
   29MOL0     O 3731   3.408   3.553   4.302  0.6341 -0.2566  0.2404
   29MOL0     C 3732   3.299   3.614   4.248 -0.1913  0.3399  0.0759
   29MOL0     C 3733   3.185   3.513   4.274  0.5305  0.6782  0.7676
   29MOL0     C 3734   3.049   3.582   4.245 -0.2962  0.6260  0.4620
   29MOL0     C 3735   3.026   3.608   4.092  0.5416  0.4623 -0.0588
   29MOL0     C 3736   2.911   3.710   4.082  0.0945 -0.0088  0.0642
   29MOL0     C 3737   2.897   3.766   3.947 -0.2354 -0.2278  0.1581
   29MOL0     C 3738   2.795   3.877   3.925 -0.1431 -0.2145  0.6906
   29MOL0     C 3739   2.837   3.957   3.802 -0.1439 -0.7051 -0.7651
   29MOL0    Cl 3740   2.771   3.865   3.671 -0.5322 -0.1131 -0.2451
   29MOL0     C 3741   3.629   3.545   4.360  0.3345  0.7539  0.6647
   29MOL0     C 3742   3.757   3.601   4.364 -0.5981 -0.0055  0.1925
   29MOL0     O 3743   3.895   3.992   4.436 -0.1952  0.4112  0.2217
   29MOL0     C 3744   4.164   4.024   4.432 -0.2031  0.0917  0.4751
   29MOL0     C 3745   4.304   4.036   4.429 -0.8645  0.7167 -0.2561
   29MOL0     N 3746   4.935   4.226   4.431 -0.7709  0.3214 -0.1957
   29MOL0     N 3747   4.895   4.349   4.410  0.9934  0.3826  0.0107
   29MOL0     C 3748   3.751   4.511   4.103  0.3665 -0.3483  0.5406
   29MOL0     C 3749   3.615   4.544   4.067 -0.2696  0.5887 -0.5457
   29MOL0     C 3750   3.276   4.758   3.887  0.2354 -0.5498  1.1052
   29MOL0     C 3751   3.176   4.661   3.896 -0.1928  0.4103 -0.5014
   29MOL0     C 3752   3.050   4.693   3.863  0.3166  0.0886 -0.8348
   29MOL0     C 3753   3.014   4.824   3.821 -0.6860 -0.7601 -0.4839
   29MOL0     O 3754   2.900   4.878   3.769 -0.4118  0.0780 -0.3332
   29MOL0     C 3755   2.773   4.822   3.812  0.6492  1.0749 -0.3350
   29MOL0     C 3756   2.667   4.865   3.712 -0.1009  0.4377  0.7308
   29MOL0     C 3757   2.703   4.813   3.573 -0.5340 -0.5736  0.0246
   29MOL0     C 3758   2.598   4.745   3.493 -0.0477  0.4117 -0.3557
   29MOL0     C 3759   2.473   4.825   3.494  0.0986 -0.4842 -0.0808
   29MOL0     C 3760   2.382   4.913   3.510 -0.4309  1.4581  0.1762
   29MOL0     C 3761   3.113   4.917   3.822 -0.0552  0.5230  0.3804
   29MOL0     C 3762   3.245   4.885   3.850  0.2993  0.2602  0.1557
   29MOL0     H 3763   3.677   4.607   3.736 -0.3317 -1.7886 -0.3445
   29MOL0     H 3764   3.910   4.549   3.805  0.9097  1.1302  0.8350
   29MOL0     H 3765   4.020   4.445   4.242  0.2354 -0.8414 -0.5195
   29MOL0     H 3766   3.972   4.607   4.216 -2.7676 -0.9955 -1.2634
   29MOL0     H 3767   4.179   4.675   4.125 -0.4800 -1.3077 -2.1933
   29MOL0     H 3768   4.244   4.515   4.109 -0.4821  0.2750 -0.5335
   29MOL0     H 3769   4.218   4.458   4.347 -2.2833  0.3359  1.4230
   29MOL0     H 3770   4.153   4.618   4.381 -0.3882 -1.4299  0.7863
   29MOL0     H 3771   4.392   4.686   4.245 -0.0296  0.5423 -0.0026
   29MOL0     H 3772   4.378   4.677   4.429  1.5944 -0.1921 -0.5147
   29MOL0     H 3773   4.445   4.450   4.230 -0.0391 -2.6034  1.2347
   29MOL0     H 3774   4.440   4.424   4.402  1.6714 -0.4387  0.5386
   29MOL0     H 3775   4.649   4.599   4.269 -0.1782 -0.8116 -2.2023
   29MOL0     H 3776   4.660   4.432   4.322  2.8403  1.6709  1.5665
   29MOL0     H 3777   4.623   4.674   4.499  0.4614 -1.1427  2.0103
   29MOL0     H 3778   4.557   4.524   4.556 -1.9914  1.8943 -0.9791
   29MOL0     H 3779   4.796   4.549   4.655  0.9222  0.7034  0.1690
   29MOL0     H 3780   4.848   4.608   4.497  0.2104 -3.3025 -2.0637
   29MOL0     H 3781   4.750   4.288   4.700 -2.1741 -0.1388 -1.0207
   29MOL0     H 3782   4.889   4.060   4.711 -0.6584 -0.5342  0.1222
   29MOL0     H 3783   4.950   3.996   4.552 -0.2971 -0.6205  0.7700
   29MOL0     H 3784   4.652   4.045   4.573 -0.4624  0.3963 -0.8030
   29MOL0     H 3785   4.723   3.897   4.654  0.0096  0.2439 -1.2109
   29MOL0     H 3786   4.756   3.988   4.362  0.1710 -2.7060 -2.7328
   29MOL0     H 3787   4.810   3.830   4.429 -0.7852 -0.9712 -2.2841
   29MOL0     H 3788   4.557   3.814   4.512 -0.3506  0.0205 -0.7868
   29MOL0     H 3789   4.619   3.768   4.350  1.9415  1.3262 -1.6708
   29MOL0     H 3790   4.380   3.740   4.278 -0.6246 -0.7655  1.6997
   29MOL0     H 3791   4.156   3.705   4.292  2.7873 -0.4570 -3.3167
   29MOL0     H 3792   3.693   3.913   4.263  0.7363 -0.1499  0.0636
   29MOL0     H 3793   3.468   3.813   4.232  0.7764  1.7574  1.3667
   29MOL0     H 3794   3.322   3.636   4.143  1.4073 -0.1276  0.3002
   29MOL0     H 3795   3.268   3.706   4.299  1.1565  1.4414 -1.0056
   29MOL0     H 3796   3.182   3.477   4.377 -0.0496  2.6030  1.4680
   29MOL0     H 3797   3.201   3.429   4.207 -2.7597  0.3012  0.3152
   29MOL0     H 3798   3.040   3.677   4.299 -0.4504  0.7377  0.2421
   29MOL0     H 3799   2.968   3.524   4.292 -0.9990  0.1832 -1.2122
   29MOL0     H 3800   3.115   3.652   4.046  0.7316 -1.8094 -2.0696
   29MOL0     H 3801   2.987   3.527   4.029 -2.6208  2.0142 -0.3136
   29MOL0     H 3802   2.917   3.782   4.164 -1.5198 -0.6396  0.7885
   29MOL0     H 3803   2.815   3.659   4.094 -0.2231 -0.0094 -2.1654
   29MOL0     H 3804   2.862   3.687   3.879 -1.9071 -0.0515  0.7535
   29MOL0     H 3805   2.994   3.811   3.924 -0.5321  1.2734  1.6595
   29MOL0     H 3806   2.696   3.835   3.909 -0.6977  1.9776 -2.5427
   29MOL0     H 3807   2.801   3.954   4.003  3.2465  2.1187 -1.6075
   29MOL0     H 3808   2.942   3.985   3.797 -0.2006 -0.6166 -1.6661
   29MOL0     H 3809   2.784   4.053   3.796  2.1871  0.6484 -0.7229
   29MOL0     H 3810   3.612   3.446   4.399  2.8339  1.1792  3.1764
   29MOL0     H 3811   3.846   3.546   4.391  0.2698  0.1007 -2.1495
   29MOL0     H 3812   4.096   4.101   4.466 -0.7328 -0.5842  0.9682
   29MOL0     H 3813   4.347   4.130   4.459 -1.7577  1.7251 -1.9971
   29MOL0     H 3814   3.784   4.499   4.205  1.7962 -2.2384 -0.0898
   29MOL0     H 3815   3.537   4.539   4.142 -0.4311 -1.0781 -0.7866
   29MOL0     H 3816   3.188   4.554   3.913  0.3371  0.2839 -1.5768
   29MOL0     H 3817   2.974   4.615   3.859  1.7769 -1.4085 -0.7077
   29MOL0     H 3818   2.744   4.876   3.902 -1.0873  0.0953 -0.2668
   29MOL0     H 3819   2.774   4.714   3.829  0.2170  1.2308  0.7400
   29MOL0     H 3820   2.573   4.825   3.750 -0.6786 -0.5223 -1.5561
   29MOL0     H 3821   2.666   4.974   3.708  3.5832  0.5478 -1.5411
   29MOL0     H 3822   2.785   4.744   3.589 -1.0157 -0.5405  3.3413
   29MOL0     H 3823   2.750   4.894   3.516  0.2919 -1.5236 -0.6804
   29MOL0     H 3824   2.634   4.731   3.391 -1.4343 -0.6641 -0.7308
   29MOL0     H 3825   2.589   4.652   3.549 -0.5537  0.7149  0.0745
   29MOL0     H 3826   2.301   4.982   3.525 -2.8918 -0.8925 -1.4926
   29MOL0     H 3827   3.090   5.015   3.781 -0.1741  1.1214  1.8391
   29MOL0     H 3828   3.313   4.969   3.852  0.1030  0.4097  0.8910
   30MOL0     O 3829   2.741   2.020   4.816  0.5062  0.8591  0.4594
   30MOL0     C 3830   2.817   2.086   4.884 -0.3925 -0.2752  0.3662
   30MOL0     O 3831   2.803   2.118   5.017  0.3658 -0.1934  0.3119
   30MOL0     C 3832   2.681   2.099   5.086  0.2434  0.6448  0.0609
   30MOL0     C 3833   2.682   2.164   5.209  0.3664 -0.5681  1.4154
   30MOL0     C 3834   2.580   2.146   5.302 -0.3469  0.3745  0.3398
   30MOL0     C 3835   2.468   2.067   5.268 -0.4140 -0.5303  0.1091
   30MOL0     O 3836   2.355   2.048   5.346 -0.5070 -0.6904 -0.3433
   30MOL0     C 3837   2.342   2.138   5.460 -0.6420 -0.3233 -0.0499
   30MOL0     C 3838   2.222   2.107   5.537  0.1044  0.1454 -0.5664
   30MOL0     C 3839   2.100   2.138   5.447 -0.0783 -0.3374 -0.2403
   30MOL0     C 3840   1.967   2.138   5.528 -0.0126  0.4878  0.7056
   30MOL0     C 3841   1.848   2.158   5.445  0.5318  0.1105  1.0834
   30MOL0     C 3842   1.828   2.301   5.390 -1.3327 -0.0012  0.4876
   30MOL0     C 3843   1.681   2.298   5.330  0.2015  0.7281 -0.5575
   30MOL0     C 3844   1.665   2.180   5.223  0.4251 -0.8665  0.1593
   30MOL0     N 3845   1.542   2.199   5.149 -0.0645  0.3632  0.0732
   30MOL0     C 3846   1.534   2.283   5.045 -0.2121  0.0454  0.1203
   30MOL0     C 3847   1.418   2.257   4.988 -0.0511  0.1044 -0.7280
   30MOL0     C 3848   1.338   2.316   4.879  0.2016 -0.0904  0.2200
   30MOL0     C 3849   1.224   2.398   4.928 -0.4481 -1.3355 -0.6815
   30MOL0     C 3850   1.261   2.546   4.988 -0.7126  1.4921  0.2442
   30MOL0     C 3851   1.152   2.647   5.012 -0.9211  0.1721 -0.6298
   30MOL0     O 3852   1.048   2.580   5.091 -0.0524 -0.6123  0.4675
   30MOL0     C 3853   0.910   2.610   5.076 -0.5868 -0.0975 -0.5701
   30MOL0     C 3854   0.821   2.523   5.146 -1.3094 -0.2868 -1.0564
   30MOL0     C 3855   0.680   2.553   5.146 -0.5626 -0.5779 -0.7098
   30MOL0     C 3856   0.635   2.668   5.082  0.2321 -0.5239  0.1242
   30MOL0     C 3857   0.487   2.696   5.086 -0.1500  0.3922  0.1378
   30MOL0     O 3858   0.409   2.586   5.102 -0.3102 -0.4051  0.3112
   30MOL0     C 3859   0.289   2.601   5.165  0.3975  0.4129  0.1426
   30MOL0     C 3860   0.167   2.622   5.097  0.8901  0.6390  0.1722
   30MOL0     C 3861   0.043   2.615   5.164  0.0067  0.0357 -0.3836
   30MOL0     C 3862   0.041   2.595   5.299  0.2397  0.5850  0.1058
   30MOL0     O 3863  -0.077   2.584   5.366  0.3813  0.3006  0.1423
   30MOL0     C 3864  -0.204   2.563   5.296  0.8023  0.0560  0.6236
   30MOL0     C 3865  -0.303   2.519   5.394 -0.8233 -0.3605 -0.0940
   30MOL0     C 3866  -0.274   2.384   5.465  0.0281 -0.0237 -0.0255
   30MOL0     C 3867  -0.390   2.346   5.568 -0.8096 -1.7263 -0.1634
   30MOL0     C 3868  -0.363   2.218   5.641  0.2406  0.1328 -0.3416
   30MOL0     C 3869  -0.483   2.174   5.729 -0.1705  0.8996 -0.0015
   30MOL0     C 3870  -0.514   2.268   5.846  0.9126  0.2152 -0.0611
   30MOL0     C 3871  -0.621   2.203   5.938 -1.4252 -0.4493 -0.2049
   30MOL0    Cl 3872  -0.796   2.252   5.904  0.1007 -0.0406  0.1187
   30MOL0     C 3873   0.164   2.580   5.372 -0.3147  0.1390  0.2416
   30MOL0     C 3874   0.287   2.589   5.300 -0.5897 -0.3661  0.5155
   30MOL0     O 3875   0.439   2.813   5.087  0.3673 -0.3947  0.6175
   30MOL0     C 3876   0.723   2.756   5.024 -0.8311 -0.7666 -0.5718
   30MOL0     C 3877   0.862   2.725   5.013  0.7851 -0.4213 -0.6781
   30MOL0     N 3878   1.362   2.150   5.062  0.0179 -0.7740  0.3026
   30MOL0     N 3879   1.435   2.120   5.165 -0.1206  0.3727 -0.8273
   30MOL0     C 3880   2.461   1.999   5.145  0.0740 -0.5436  0.2326
   30MOL0     C 3881   2.574   2.015   5.057  0.4056  0.0238  0.4056
   30MOL0     C 3882   2.937   2.130   4.818 -0.2475  0.3328  0.2510
   30MOL0     C 3883   3.050   2.183   4.895 -0.6371 -1.2011 -0.7783
   30MOL0     C 3884   3.167   2.230   4.838  0.3169 -0.5084 -0.2439
   30MOL0     C 3885   3.178   2.231   4.697 -0.9824 -0.5139  0.4229
   30MOL0     O 3886   3.277   2.306   4.627 -0.1995 -0.9005 -0.9713
   30MOL0     C 3887   3.404   2.324   4.694  0.0643 -0.3478 -0.2302
   30MOL0     C 3888   3.480   2.196   4.719  0.8283 -0.3370  0.3046
   30MOL0     C 3889   3.622   2.216   4.748 -0.5179 -0.4177  0.0676
   30MOL0     C 3890   3.703   2.201   4.618 -0.3321  0.2573 -0.5767
   30MOL0     C 3891   3.846   2.205   4.655  0.0673 -0.3786  1.0227
   30MOL0     C 3892   3.964   2.203   4.672  0.0751 -0.3865  0.2528
   30MOL0     C 3893   3.070   2.187   4.617 -0.6246  0.5508 -0.7839
   30MOL0     C 3894   2.954   2.135   4.681  0.1766 -0.0050  0.2697
   30MOL0     H 3895   2.762   2.235   5.225  1.7321 -1.5302 -0.7249
   30MOL0     H 3896   2.591   2.200   5.396  0.8348  1.3419 -0.3114
   30MOL0     H 3897   2.331   2.238   5.416 -0.5892 -0.1182  0.3994
   30MOL0     H 3898   2.425   2.148   5.531 -0.7687  1.9917 -0.1329
   30MOL0     H 3899   2.222   2.168   5.628  3.1402 -1.4707  0.6642
   30MOL0     H 3900   2.234   2.004   5.573  2.4851  0.2774 -0.7931
   30MOL0     H 3901   2.091   2.069   5.362 -1.9072  0.1516 -0.4848
   30MOL0     H 3902   2.110   2.234   5.397 -3.5426 -0.5601 -1.6042
   30MOL0     H 3903   1.951   2.044   5.582 -0.4080  0.7058  0.9669
   30MOL0     H 3904   1.970   2.221   5.599 -0.5990  3.2456 -2.2254
   30MOL0     H 3905   1.757   2.140   5.503  0.0819 -1.4684 -0.0579
   30MOL0     H 3906   1.855   2.077   5.372  1.0839 -1.8955  3.2221
   30MOL0     H 3907   1.900   2.327   5.312 -0.6384  0.9093  1.4046
   30MOL0     H 3908   1.829   2.371   5.475 -0.3386 -3.6707  3.8305
   30MOL0     H 3909   1.612   2.275   5.412  0.7243 -2.2438 -0.8056
   30MOL0     H 3910   1.655   2.394   5.287 -1.3346 -0.3184 -2.0767
   30MOL0     H 3911   1.658   2.085   5.278 -2.5474 -1.4194 -0.9620
   30MOL0     H 3912   1.755   2.183   5.162 -0.0190  1.1372 -0.4466
   30MOL0     H 3913   1.608   2.358   5.021 -0.1810  0.0493  0.2321
   30MOL0     H 3914   1.308   2.229   4.820  1.8838  0.6229 -1.8250
   30MOL0     H 3915   1.398   2.373   4.807 -0.1296 -0.1334 -0.0916
   30MOL0     H 3916   1.154   2.340   4.989  0.6193 -1.2803  0.6398
   30MOL0     H 3917   1.169   2.429   4.839 -1.3182 -0.4239  0.1378
   30MOL0     H 3918   1.300   2.528   5.089  1.3949 -2.4866 -1.0647
   30MOL0     H 3919   1.341   2.587   4.926  1.1026 -0.7421  0.9778
   30MOL0     H 3920   1.110   2.676   4.915 -0.9053  0.8517 -0.4365
   30MOL0     H 3921   1.191   2.738   5.058  0.7749 -0.6665 -0.3259
   30MOL0     H 3922   0.863   2.435   5.193 -1.6926 -0.4428 -1.0086
   30MOL0     H 3923   0.609   2.485   5.193 -1.2086  0.3988 -0.2365
   30MOL0     H 3924   0.176   2.630   4.989 -1.2194  4.1958  0.0884
   30MOL0     H 3925  -0.054   2.632   5.117 -0.4138  1.3647  0.8833
   30MOL0     H 3926  -0.199   2.484   5.221  0.6038  1.2481 -0.6808
   30MOL0     H 3927  -0.237   2.656   5.248  0.7282 -0.7128 -0.8809
   30MOL0     H 3928  -0.404   2.517   5.352 -1.9414 -0.2954  2.4394
   30MOL0     H 3929  -0.308   2.601   5.467 -0.7838  0.3593 -0.8853
   30MOL0     H 3930  -0.182   2.397   5.522  1.1958  0.7133 -1.9702
   30MOL0     H 3931  -0.254   2.318   5.381  2.8824  0.6123  0.0469
   30MOL0     H 3932  -0.389   2.421   5.647  0.2685 -2.3594  0.4668
   30MOL0     H 3933  -0.487   2.339   5.518 -0.9024  3.3311 -1.1328
   30MOL0     H 3934  -0.272   2.224   5.702  1.2449 -0.2644 -1.7671
   30MOL0     H 3935  -0.351   2.148   5.558  0.1172  3.1672 -3.1075
   30MOL0     H 3936  -0.438   2.083   5.769 -0.5580  0.3511 -0.7816
   30MOL0     H 3937  -0.565   2.157   5.658  0.5054  2.9337 -1.3767
   30MOL0     H 3938  -0.416   2.273   5.893  1.4595  0.8040 -1.2362
   30MOL0     H 3939  -0.551   2.367   5.817  1.2262  1.0911  2.3246
   30MOL0     H 3940  -0.599   2.238   6.039  1.0343 -2.5555  0.1159
   30MOL0     H 3941  -0.602   2.095   5.945 -1.7521 -0.4730  0.4283
   30MOL0     H 3942   0.170   2.562   5.479 -0.0358  0.3600  0.2638
   30MOL0     H 3943   0.379   2.557   5.348  0.8495  3.0864  0.3572
   30MOL0     H 3944   0.701   2.856   4.989  3.0181 -0.1564 -1.6703
   30MOL0     H 3945   0.927   2.801   4.970  0.5180  1.1852  1.5456
   30MOL0     H 3946   2.376   1.933   5.132 -2.7411  2.3003  2.6550
   30MOL0     H 3947   2.576   1.949   4.971  0.6478 -1.6384  1.6310
   30MOL0     H 3948   3.046   2.181   5.003 -0.9946  1.4963 -0.6769
   30MOL0     H 3949   3.252   2.272   4.892  0.3528  0.1941 -0.8222
   30MOL0     H 3950   3.379   2.383   4.783 -2.6156 -0.5528 -0.7536
   30MOL0     H 3951   3.469   2.382   4.629  0.2027  2.8158  2.4495
   30MOL0     H 3952   3.439   2.141   4.804  4.0880 -0.7341  1.7535
   30MOL0     H 3953   3.465   2.128   4.635  1.0327  1.2230 -1.0642
   30MOL0     H 3954   3.653   2.150   4.829 -3.1324  1.7591  3.0680
   30MOL0     H 3955   3.637   2.316   4.788 -2.1661  0.7763 -2.0681
   30MOL0     H 3956   3.685   2.096   4.592  0.0691  0.1129 -0.2848
   30MOL0     H 3957   3.667   2.264   4.536 -2.6237 -1.3162 -0.8721
   30MOL0     H 3958   4.068   2.208   4.696 -0.1601  1.9352  1.0629
   30MOL0     H 3959   3.088   2.167   4.512 -0.3577 -2.2717 -0.2873
   30MOL0     H 3960   2.867   2.103   4.624 -0.7222 -2.0107  2.5642
   31MOL0     O 3961   6.212   6.620   8.482  0.4506 -0.1761 -0.2634
   31MOL0     C 3962   6.300   6.581   8.405  0.5967  0.9866 -0.8448
   31MOL0     O 3963   6.316   6.631   8.283  0.6878  0.2040  0.5489
   31MOL0     C 3964   6.230   6.732   8.250 -0.0133 -1.0131 -0.3031
   31MOL0     C 3965   6.118   6.701   8.184 -0.0907 -0.0981  0.0207
   31MOL0     C 3966   6.026   6.795   8.139  0.4061  0.4215 -0.0913
   31MOL0     C 3967   6.052   6.931   8.161  0.0539 -0.5530  0.2819
   31MOL0     O 3968   5.979   7.037   8.116  0.3699 -0.0323 -0.0310
   31MOL0     C 3969   5.866   7.006   8.033  0.7315  0.7310  0.4032
   31MOL0     C 3970   5.739   6.971   8.115 -0.4694 -0.9426 -0.3355
   31MOL0     C 3971   5.611   7.003   8.028  0.2055 -0.1893  0.3492
   31MOL0     C 3972   5.585   6.884   7.940  0.0781 -0.4342 -0.1495
   31MOL0     C 3973   5.454   6.916   7.871 -0.2217  0.1533  0.6098
   31MOL0     C 3974   5.333   6.884   7.949 -0.3104 -0.0930  0.2440
   31MOL0     C 3975   5.216   6.861   7.862 -0.0765  0.6535  0.5362
   31MOL0     C 3976   5.163   6.979   7.787 -0.9401 -0.3230  0.4243
   31MOL0     N 3977   5.057   6.938   7.694 -0.3246 -0.5235  2.0536
   31MOL0     C 3978   4.922   6.975   7.697  0.3676  0.5581 -0.2374
   31MOL0     C 3979   4.864   6.898   7.607 -0.2332  0.3295  0.2736
   31MOL0     C 3980   4.725   6.902   7.563  0.2043 -0.4656 -1.2495
   31MOL0     C 3981   4.681   6.793   7.454  0.4427  0.1470 -0.1255
   31MOL0     C 3982   4.526   6.800   7.435 -0.0066  0.2712  0.5505
   31MOL0     C 3983   4.476   6.689   7.354 -0.5186 -0.2631  0.2254
   31MOL0     O 3984   4.357   6.641   7.417 -0.0529  0.2711 -0.0563
   31MOL0     C 3985   4.239   6.694   7.377  0.3304  0.4511  0.4550
   31MOL0     C 3986   4.121   6.649   7.431 -0.3124 -0.4126 -0.3834
   31MOL0     C 3987   3.996   6.693   7.389 -0.2850  0.3565 -0.6041
   31MOL0     C 3988   3.986   6.784   7.289 -0.1885  0.8320 -0.3551
   31MOL0     C 3989   3.859   6.836   7.245  0.3729  0.6330 -0.6042
   31MOL0     O 3990   3.746   6.805   7.304 -0.0814 -0.5303 -0.2253
   31MOL0     C 3991   3.630   6.838   7.249 -0.9794 -1.3645 -0.4611
   31MOL0     C 3992   3.589   6.977   7.230  0.0147  0.2862 -0.0486
   31MOL0     C 3993   3.472   7.005   7.161  0.1240 -0.2254  0.4772
   31MOL0     C 3994   3.381   6.907   7.124  0.5377  0.3549 -0.4521
   31MOL0     O 3995   3.258   6.932   7.069  0.3221 -0.0445 -0.3490
   31MOL0     C 3996   3.158   7.033   7.105 -1.0063  0.1772  0.4913
   31MOL0     C 3997   3.128   7.032   7.255 -0.1444 -0.0691 -0.5088
   31MOL0     C 3998   3.043   7.154   7.289 -0.1464  0.6563  0.7336
   31MOL0     C 3999   2.891   7.130   7.252  0.2203 -0.0197  1.0166
   31MOL0     C 4000   2.817   7.259   7.234 -0.1591 -0.7956  0.6756
   31MOL0     C 4001   2.665   7.235   7.250 -0.8945 -0.0160  0.2242
   31MOL0     C 4002   2.596   7.370   7.249  0.6662  0.3441  0.4856
   31MOL0     C 4003   2.448   7.352   7.281  0.4316 -0.6179  0.0475
   31MOL0    Cl 4004   2.359   7.502   7.242  0.0052  0.5067  0.2023
   31MOL0     C 4005   3.418   6.769   7.155  0.8928  0.4822  0.6650
   31MOL0     C 4006   3.538   6.739   7.219 -0.1668  0.2643 -0.8969
   31MOL0     O 4007   3.870   6.921   7.149 -0.2877  0.5920 -0.7075
   31MOL0     C 4008   4.104   6.837   7.232  0.3031  1.1339 -0.1987
   31MOL0     C 4009   4.228   6.793   7.272 -0.2806 -0.1552 -0.3998
   31MOL0     N 4010   4.966   6.831   7.533 -0.0216 -0.6599  0.0914
   31MOL0     N 4011   5.081   6.863   7.582 -0.3248  0.1021 -0.8583
   31MOL0     C 4012   6.179   6.958   8.206  0.4828  0.2151 -0.5547
   31MOL0     C 4013   6.268   6.864   8.263  0.7475  1.2262  0.8484
   31MOL0     C 4014   6.393   6.484   8.456  0.4660  0.4348 -0.0204
   31MOL0     C 4015   6.359   6.412   8.572 -0.4608  0.0154 -0.0157
   31MOL0     C 4016   6.452   6.321   8.621 -0.3082  0.0717 -0.4079
   31MOL0     C 4017   6.569   6.286   8.566 -0.3541 -0.1061 -0.1693
   31MOL0     O 4018   6.648   6.196   8.629  0.7281  0.3460 -0.0840
   31MOL0     C 4019   6.655   6.066   8.574 -0.4566 -0.1258  0.9466
   31MOL0     C 4020   6.794   6.044   8.515  0.9317  0.9046 -0.1265
   31MOL0     C 4021   6.827   5.906   8.456  0.1001  0.6227 -0.4446
   31MOL0     C 4022   6.979   5.871   8.424  0.1208 -0.1718  0.6884
   31MOL0     C 4023   7.014   5.935   8.294  0.4674 -1.3941 -1.0130
   31MOL0     C 4024   7.039   5.998   8.194 -0.4906  0.6360  0.5777
   31MOL0     C 4025   6.602   6.350   8.442  0.1290 -0.7453 -0.1726
   31MOL0     C 4026   6.516   6.456   8.390  0.2214 -0.0469 -0.2974
   31MOL0     H 4027   6.083   6.599   8.171  0.5074 -0.4635  1.1041
   31MOL0     H 4028   5.943   6.747   8.087 -2.4155  1.9563  2.6477
   31MOL0     H 4029   5.892   6.927   7.963 -1.9322 -1.7364  2.0128
   31MOL0     H 4030   5.846   7.089   7.964 -0.2891  0.2447  0.1050
   31MOL0     H 4031   5.731   7.031   8.206 -0.2632 -2.9454  1.0566
   31MOL0     H 4032   5.747   6.866   8.143 -1.2966 -0.5711  1.4427
   31MOL0     H 4033   5.627   7.092   7.965  0.1149 -2.1628 -2.6454
   31MOL0     H 4034   5.523   7.018   8.091 -2.0481  0.4558 -2.7425
   31MOL0     H 4035   5.666   6.865   7.870  0.0292  1.0405 -0.6327
   31MOL0     H 4036   5.569   6.806   8.016  1.8465 -0.1555  0.5744
   31MOL0     H 4037   5.455   6.851   7.783  2.7744 -0.3149  0.8969
   31MOL0     H 4038   5.451   7.019   7.835  1.4783  0.2618  0.7272
   31MOL0     H 4039   5.297   6.964   8.014 -3.7077 -1.3110  0.0512
   31MOL0     H 4040   5.352   6.800   8.015  1.0125  0.6506  0.8416
   31MOL0     H 4041   5.234   6.778   7.793  0.9296 -0.6885  2.3420
   31MOL0     H 4042   5.129   6.835   7.923 -0.3837 -0.3927 -0.3186
   31MOL0     H 4043   5.243   7.030   7.733 -0.8425 -0.7808  0.1296
   31MOL0     H 4044   5.120   7.048   7.860 -0.2056 -0.7187  1.2451
   31MOL0     H 4045   4.861   7.048   7.751 -0.0184 -0.5174  0.8404
   31MOL0     H 4046   4.708   7.003   7.524 -0.2889  0.2641  0.7473
   31MOL0     H 4047   4.656   6.904   7.648 -2.0084 -0.3327 -2.9342
   31MOL0     H 4048   4.709   6.693   7.488 -0.3373 -0.1308 -0.2863
   31MOL0     H 4049   4.727   6.822   7.359  0.8240  0.6862  0.2112
   31MOL0     H 4050   4.466   6.815   7.526  1.0897 -0.1744  1.3604
   31MOL0     H 4051   4.510   6.896   7.384  0.7837 -0.5907 -1.3889
   31MOL0     H 4052   4.548   6.607   7.345  1.3833  1.4755 -1.3871
   31MOL0     H 4053   4.460   6.704   7.247  0.1075 -2.2969 -0.1864
   31MOL0     H 4054   4.130   6.584   7.517  0.2019 -2.0864 -1.6501
   31MOL0     H 4055   3.911   6.651   7.442  1.1087  0.6478  2.0392
   31MOL0     H 4056   3.664   7.049   7.263  0.2298  0.6343 -1.2368
   31MOL0     H 4057   3.440   7.108   7.149 -1.4714 -0.7848 -0.4286
   31MOL0     H 4058   3.076   7.018   7.034 -0.7846  0.5799  0.1417
   31MOL0     H 4059   3.200   7.130   7.075 -1.1849 -0.4304 -1.8950
   31MOL0     H 4060   3.221   7.056   7.308 -1.0169 -0.5692  1.3507
   31MOL0     H 4061   3.083   6.941   7.295 -2.2257  1.7051  1.5691
   31MOL0     H 4062   3.077   7.242   7.232 -1.7591  1.1369  0.4779
   31MOL0     H 4063   3.062   7.174   7.395 -0.6769  1.2812  0.7153
   31MOL0     H 4064   2.886   7.066   7.163  1.4397 -0.6976  1.4109
   31MOL0     H 4065   2.847   7.082   7.340  1.3064  1.8319  2.6526
   31MOL0     H 4066   2.834   7.293   7.131 -0.1490 -0.0663  0.9109
   31MOL0     H 4067   2.848   7.326   7.315 -1.8668  2.7960 -1.3618
   31MOL0     H 4068   2.649   7.179   7.343  2.0863 -5.8795 -2.2481
   31MOL0     H 4069   2.636   7.189   7.155  2.7954  1.5880 -1.9067
   31MOL0     H 4070   2.656   7.431   7.317  3.3898 -0.3953 -1.1189
   31MOL0     H 4071   2.605   7.411   7.148 -0.4606 -0.2635  0.1150
   31MOL0     H 4072   2.444   7.326   7.387 -1.2202  0.0595  0.1696
   31MOL0     H 4073   2.410   7.266   7.226 -0.4964 -0.2940  0.1722
   31MOL0     H 4074   3.349   6.688   7.131  1.0805  1.0063 -1.8203
   31MOL0     H 4075   3.550   6.635   7.247 -2.8704 -0.1744 -1.1434
   31MOL0     H 4076   4.113   6.917   7.159  1.1421 -0.4778 -1.9329
   31MOL0     H 4077   4.313   6.842   7.226  1.2399 -0.8081  1.5699
   31MOL0     H 4078   6.215   7.058   8.227  1.0590  0.2340 -1.5826
   31MOL0     H 4079   6.360   6.891   8.315 -0.0903  3.9079  1.1165
   31MOL0     H 4080   6.276   6.432   8.638 -0.0520  0.7082  0.2957
   31MOL0     H 4081   6.425   6.274   8.715  0.5460  1.7816  0.7541
   31MOL0     H 4082   6.581   6.052   8.494  1.6385  2.4464 -1.6247
   31MOL0     H 4083   6.634   5.993   8.654  0.6700  0.0769  1.4434
   31MOL0     H 4084   6.810   6.118   8.437 -1.9068  0.7367 -0.9798
   31MOL0     H 4085   6.867   6.054   8.596  1.3297  2.7026 -0.6674
   31MOL0     H 4086   6.767   5.894   8.365  1.2604 -3.5567 -0.8497
   31MOL0     H 4087   6.798   5.822   8.520  0.8360 -0.2684 -1.2514
   31MOL0     H 4088   7.048   5.908   8.500 -1.0845  0.7638  1.3563
   31MOL0     H 4089   6.995   5.764   8.413 -3.4474 -0.6828 -0.6582
   31MOL0     H 4090   7.052   6.049   8.100 -0.0508 -0.9646 -0.2755
   31MOL0     H 4091   6.701   6.341   8.397  0.2455 -2.4945  0.3867
   31MOL0     H 4092   6.544   6.519   8.307  1.5462 -2.0605 -1.4819
   32MOL0     O 4093   4.524   5.811   9.135  0.0906  0.0332 -0.5706
   32MOL0     C 4094   4.532   5.923   9.082 -0.5147 -0.1082  0.1505
   32MOL0     O 4095   4.443   5.986   9.009  0.5458  0.2011  0.4272
   32MOL0     C 4096   4.320   5.923   8.984 -0.0292 -0.3401 -0.0421
   32MOL0     C 4097   4.299   5.846   8.865 -0.3018 -0.3265 -0.2772
   32MOL0     C 4098   4.187   5.765   8.847  0.4986 -0.9817 -0.2268
   32MOL0     C 4099   4.091   5.772   8.946 -0.0075 -0.1204 -0.2613
   32MOL0     O 4100   3.976   5.703   8.907 -0.3942  0.2063  0.3389
   32MOL0     C 4101   3.885   5.664   9.014 -0.0441  0.2140 -0.5114
   32MOL0     C 4102   3.763   5.584   8.971  0.1465  0.9284  0.4633
   32MOL0     C 4103   3.670   5.661   8.877  0.2625  0.1182  0.1701
   32MOL0     C 4104   3.562   5.566   8.825 -0.0604 -0.7751  0.1563
   32MOL0     C 4105   3.498   5.636   8.701 -0.2121 -0.4778  0.2899
   32MOL0     C 4106   3.375   5.563   8.658 -0.2095  0.1996  0.3333
   32MOL0     C 4107   3.289   5.661   8.575 -0.4221 -0.5004 -0.5879
   32MOL0     C 4108   3.146   5.612   8.586  0.0161  0.7728  0.1101
   32MOL0     N 4109   3.049   5.678   8.491  0.3326  0.4999 -1.0029
   32MOL0     C 4110   3.030   5.811   8.472  0.3540  0.2001 -0.1393
   32MOL0     C 4111   2.908   5.818   8.406  0.2269 -0.3130 -0.2957
   32MOL0     C 4112   2.822   5.935   8.370  0.0777 -0.0509 -0.1197
   32MOL0     C 4113   2.787   6.014   8.494 -0.5733  0.0287 -0.0920
   32MOL0     C 4114   2.711   6.144   8.461  0.1842  0.6836 -1.1048
   32MOL0     C 4115   2.688   6.239   8.580  0.0238  0.2104 -0.0524
   32MOL0     O 4116   2.654   6.172   8.704 -0.5161 -0.0251  0.6197
   32MOL0     C 4117   2.532   6.129   8.736  0.4159  0.7334 -0.1558
   32MOL0     C 4118   2.416   6.202   8.702 -0.4806  1.2698  0.2701
   32MOL0     C 4119   2.291   6.161   8.751 -0.3377  0.2197 -0.6289
   32MOL0     C 4120   2.275   6.037   8.824 -0.3073 -0.3050 -0.5331
   32MOL0     C 4121   2.136   5.989   8.860  0.6839  0.0633 -0.6502
   32MOL0     O 4122   2.124   5.891   8.949 -0.5850  0.6944  0.3417
   32MOL0     C 4123   2.001   5.841   8.972  0.5941  0.2929  0.4598
   32MOL0     C 4124   1.946   5.834   9.103 -0.1091  0.5295  0.5749
   32MOL0     C 4125   1.812   5.795   9.117 -0.3974 -0.0964 -0.0807
   32MOL0     C 4126   1.734   5.746   9.004 -0.2752 -0.1154  0.8152
   32MOL0     O 4127   1.609   5.704   9.050  0.3063 -0.6035  0.1094
   32MOL0     C 4128   1.506   5.683   8.946 -0.0576 -0.0981 -0.0281
   32MOL0     C 4129   1.376   5.664   9.025 -0.0187  1.2457 -0.2686
   32MOL0     C 4130   1.307   5.793   9.052  0.4668  0.1730 -0.2430
   32MOL0     C 4131   1.185   5.764   9.146  0.2318 -0.4056 -0.0674
   32MOL0     C 4132   1.129   5.892   9.221 -0.1553 -0.3668  0.2242
   32MOL0     C 4133   1.000   5.882   9.309  0.1720  0.2626 -0.3515
   32MOL0     C 4134   1.007   5.761   9.404 -0.3443  0.4458  0.1934
   32MOL0     C 4135   0.866   5.742   9.471  0.0756 -0.0245  0.0022
   32MOL0    Cl 4136   0.885   5.629   9.624 -0.1451  0.3566  0.4650
   32MOL0     C 4137   1.783   5.749   8.870 -0.4529 -0.2077 -0.5506
   32MOL0     C 4138   1.920   5.791   8.861  0.5903  0.5827 -0.4832
   32MOL0     O 4139   2.044   6.044   8.804  0.4182 -0.0746  0.0619
   32MOL0     C 4140   2.389   5.965   8.853 -0.4469  0.4011  0.8728
   32MOL0     C 4141   2.513   6.010   8.812 -0.6720  0.1487 -1.0554
   32MOL0     N 4142   2.866   5.689   8.378 -0.0832  0.0200 -0.7052
   32MOL0     N 4143   2.953   5.608   8.427  0.3978 -0.1629 -0.1937
   32MOL0     C 4144   4.104   5.856   9.064  0.5745 -0.2057 -0.2784
   32MOL0     C 4145   4.217   5.936   9.089 -0.2090  0.5365  0.4280
   32MOL0     C 4146   4.660   5.990   9.117 -1.1020  0.2339  0.8696
   32MOL0     C 4147   4.692   6.115   9.044 -0.2101  0.3628  0.6255
   32MOL0     C 4148   4.814   6.174   9.074  0.0008 -1.1184  0.2074
   32MOL0     C 4149   4.913   6.117   9.152 -0.5753 -0.2270 -1.2034
   32MOL0     O 4150   5.039   6.175   9.172  0.4358 -0.0820  0.1985
   32MOL0     C 4151   5.049   6.318   9.146 -0.3703  0.6223  0.6165
   32MOL0     C 4152   5.196   6.355   9.177  0.2631 -0.2353 -0.4909
   32MOL0     C 4153   5.225   6.506   9.153  0.3779  0.6366 -0.1351
   32MOL0     C 4154   5.366   6.535   9.193  0.3593 -0.4298 -0.2671
   32MOL0     C 4155   5.457   6.547   9.082  0.4619 -0.1390 -0.3597
   32MOL0     C 4156   5.546   6.532   9.001 -0.7323 -0.3589 -0.4123
   32MOL0     C 4157   4.886   5.997   9.209 -0.4923  1.3147  0.1672
   32MOL0     C 4158   4.762   5.927   9.193  0.3330  0.1790 -0.7345
   32MOL0     H 4159   4.370   5.864   8.785 -0.0365 -0.7383 -0.1400
   32MOL0     H 4160   4.172   5.691   8.769 -4.2677 -1.0968  0.5117
   32MOL0     H 4161   3.856   5.746   9.081  3.1145 -0.0302  1.3547
   32MOL0     H 4162   3.943   5.601   9.081  0.5459  1.2065 -0.0639
   32MOL0     H 4163   3.710   5.541   9.056 -0.6726  0.0520 -0.4652
   32MOL0     H 4164   3.804   5.500   8.914  1.3626  1.2070  0.9004
   32MOL0     H 4165   3.740   5.685   8.796  0.0680  1.6169  0.4118
   32MOL0     H 4166   3.633   5.755   8.920  2.1531  1.0863 -0.1660
   32MOL0     H 4167   3.601   5.468   8.798  2.3490 -0.6858  2.8064
   32MOL0     H 4168   3.485   5.555   8.902  0.7477  0.4214  1.1751
   32MOL0     H 4169   3.570   5.616   8.621  0.6275  0.3757  0.8118
   32MOL0     H 4170   3.486   5.744   8.713 -0.2555 -0.0450 -2.9346
   32MOL0     H 4171   3.325   5.517   8.744  1.6756 -1.6416  0.5268
   32MOL0     H 4172   3.408   5.479   8.597  1.3827 -1.5209  3.3426
   32MOL0     H 4173   3.299   5.760   8.620  0.8957 -2.2266  3.3598
   32MOL0     H 4174   3.320   5.666   8.471 -0.9877  0.7689 -0.7119
   32MOL0     H 4175   3.109   5.630   8.687 -0.0045  3.0786 -0.2605
   32MOL0     H 4176   3.148   5.503   8.573  3.5844  0.8656 -1.1673
   32MOL0     H 4177   3.086   5.891   8.519 -0.9411  0.6486  0.6747
   32MOL0     H 4178   2.735   5.905   8.310  0.9868 -1.9793 -0.5387
   32MOL0     H 4179   2.885   6.003   8.312  0.9554  0.4514  1.3676
   32MOL0     H 4180   2.879   6.046   8.543  0.0249 -0.6522 -0.7495
   32MOL0     H 4181   2.737   5.954   8.571  4.2672  0.4987  3.8943
   32MOL0     H 4182   2.769   6.196   8.384  1.4002 -0.6439 -1.1181
   32MOL0     H 4183   2.614   6.122   8.415 -1.8499  3.7431  1.2680
   32MOL0     H 4184   2.615   6.312   8.544  1.8867 -0.3348 -6.1385
   32MOL0     H 4185   2.783   6.289   8.600  0.4174 -0.6801  0.3355
   32MOL0     H 4186   2.436   6.289   8.640  1.5081  0.8033  0.1841
   32MOL0     H 4187   2.204   6.221   8.724 -0.8958 -0.7753 -1.0849
   32MOL0     H 4188   2.005   5.868   9.188  1.2295  0.6637 -0.3797
   32MOL0     H 4189   1.752   5.790   9.207 -0.4161 -3.9396 -0.1238
   32MOL0     H 4190   1.534   5.593   8.892  2.0466 -0.3773  1.4019
   32MOL0     H 4191   1.485   5.766   8.878  0.6471 -1.2747 -1.7302
   32MOL0     H 4192   1.396   5.601   9.112  0.5275 -1.5687 -2.3003
   32MOL0     H 4193   1.312   5.608   8.957  1.6731  1.4242 -2.1097
   32MOL0     H 4194   1.268   5.841   8.962 -0.5770  2.2458  1.2263
   32MOL0     H 4195   1.380   5.859   9.101  0.3016 -1.6903  2.8022
   32MOL0     H 4196   1.102   5.719   9.091  0.9277 -0.0809 -1.4296
   32MOL0     H 4197   1.225   5.692   9.218 -0.3841  1.6359  2.4902
   32MOL0     H 4198   1.111   5.967   9.144 -3.0236 -1.1024  0.0535
   32MOL0     H 4199   1.204   5.932   9.289 -1.6722 -0.9509  2.3407
   32MOL0     H 4200   0.923   5.869   9.232  1.3702 -0.6076 -1.4330
   32MOL0     H 4201   0.983   5.978   9.358  1.8311  0.6694 -0.5058
   32MOL0     H 4202   1.015   5.666   9.351 -1.1854 -0.5343  1.7196
   32MOL0     H 4203   1.093   5.759   9.471  2.8305  0.4725 -3.5366
   32MOL0     H 4204   0.796   5.696   9.401 -0.1093 -0.8866  0.7439
   32MOL0     H 4205   0.828   5.839   9.504 -1.3482 -0.0432 -1.4470
   32MOL0     H 4206   1.730   5.708   8.785  2.4929 -4.4445 -0.6728
   32MOL0     H 4207   1.956   5.790   8.758 -1.8079  0.5530 -1.4058
   32MOL0     H 4208   2.391   5.872   8.910  1.2379 -1.6811 -2.2980
   32MOL0     H 4209   2.600   5.952   8.841 -0.8434  0.0267 -0.7732
   32MOL0     H 4210   4.029   5.862   9.142 -0.1755  0.2272 -1.0138
   32MOL0     H 4211   4.231   5.991   9.181  0.3567 -0.4499  0.9551
   32MOL0     H 4212   4.627   6.165   8.973  2.9192  2.1368 -1.2453
   32MOL0     H 4213   4.813   6.275   9.035  0.5427 -0.9918  0.5180
   32MOL0     H 4214   4.979   6.373   9.210  1.4379  1.7913  1.6806
   32MOL0     H 4215   5.030   6.341   9.041 -2.1209 -3.5164 -0.1636
   32MOL0     H 4216   5.220   6.336   9.282  1.3543  1.5092 -0.3821
   32MOL0     H 4217   5.255   6.296   9.105  1.3999 -0.3164  0.4716
   32MOL0     H 4218   5.150   6.551   9.218 -2.5059 -2.5403 -0.9987
   32MOL0     H 4219   5.211   6.535   9.049 -2.9776  0.3216  0.1405
   32MOL0     H 4220   5.371   6.623   9.258  2.3724  0.1894 -1.1755
   32MOL0     H 4221   5.411   6.463   9.263  2.3561  1.2662  0.3173
   32MOL0     H 4222   5.631   6.515   8.939  0.3719 -0.1918  0.9909
   32MOL0     H 4223   4.977   5.953   9.249 -0.5529  1.7113  0.7605
   32MOL0     H 4224   4.735   5.835   9.243  0.3349  1.8396  2.6539
   33MOL0     O 4225   8.012   2.669   5.041  0.2081 -0.3850  0.2593
   33MOL0     C 4226   8.006   2.772   4.975 -0.5537  0.3915 -0.1603
   33MOL0     O 4227   7.898   2.823   4.917 -0.8222 -0.0721 -0.7517
   33MOL0     C 4228   7.791   2.752   4.871  0.4824 -0.0828  0.2292
   33MOL0     C 4229   7.660   2.821   4.878 -0.6885 -0.1488 -1.1960
   33MOL0     C 4230   7.552   2.769   4.802 -0.4416 -0.0250 -0.3435
   33MOL0     C 4231   7.560   2.643   4.745 -0.5497  0.3893  0.4015
   33MOL0     O 4232   7.466   2.598   4.659  0.5830  0.1437  0.9028
   33MOL0     C 4233   7.443   2.464   4.630  0.1798 -0.2301 -0.8277
   33MOL0     C 4234   7.417   2.366   4.750 -0.6914  0.2146  0.1749
   33MOL0     C 4235   7.343   2.417   4.872  0.9570 -0.4725 -0.6607
   33MOL0     C 4236   7.371   2.353   5.010 -0.5117  0.1964 -0.6146
   33MOL0     C 4237   7.234   2.347   5.093  0.4248  0.1800  0.2137
   33MOL0     C 4238   7.247   2.266   5.228 -0.4371  0.0479 -0.4037
   33MOL0     C 4239   7.105   2.255   5.279 -0.0658 -0.4100 -0.1173
   33MOL0     C 4240   7.082   2.180   5.405  0.4084  0.4427 -0.0426
   33MOL0     N 4241   7.079   2.252   5.531  0.6314 -0.0850 -0.1223
   33MOL0     C 4242   7.142   2.367   5.563 -0.0868 -0.8729 -1.1515
   33MOL0     C 4243   7.146   2.368   5.697 -0.3488 -0.6156  0.8178
   33MOL0     C 4244   7.219   2.457   5.803 -0.6764 -0.2151 -0.0030
   33MOL0     C 4245   7.340   2.385   5.868 -0.3771 -0.6496  0.0047
   33MOL0     C 4246   7.474   2.433   5.797  0.1861 -0.6289  0.4616
   33MOL0     C 4247   7.591   2.348   5.837  0.2331 -0.9643 -0.5374
   33MOL0     O 4248   7.719   2.393   5.773  0.1368  0.0925  0.0078
   33MOL0     C 4249   7.824   2.397   5.858  0.2784  0.4677  0.5311
   33MOL0     C 4250   7.895   2.278   5.883 -0.0840  0.1611  0.0864
   33MOL0     C 4251   8.010   2.280   5.956  0.5426 -0.6868  0.3328
   33MOL0     C 4252   8.067   2.404   6.007  0.2190  0.4118  0.1799
   33MOL0     C 4253   8.198   2.416   6.073  0.5577 -0.0964  0.7604
   33MOL0     O 4254   8.274   2.530   6.053  1.0044  0.0518  0.1499
   33MOL0     C 4255   8.381   2.553   6.129  0.8912  0.5882  0.3509
   33MOL0     C 4256   8.496   2.573   6.062 -0.4919  0.0418  0.0921
   33MOL0     C 4257   8.619   2.624   6.124 -0.2603  0.0612 -0.1467
   33MOL0     C 4258   8.617   2.643   6.263 -0.4349  0.1741 -0.2712
   33MOL0     O 4259   8.729   2.670   6.341 -0.1491  0.4958 -0.4025
   33MOL0     C 4260   8.800   2.771   6.280 -0.2970 -0.9443 -0.3412
   33MOL0     C 4261   8.909   2.831   6.358 -0.1352 -0.0265  0.0287
   33MOL0     C 4262   9.022   2.732   6.381 -0.1065 -0.5976  0.2225
   33MOL0     C 4263   9.161   2.784   6.353 -1.0616  0.5470 -0.4014
   33MOL0     C 4264   9.196   2.901   6.453  0.2361 -0.4463  0.0921
   33MOL0     C 4265   9.340   2.940   6.466 -0.6697  0.5804 -0.1348
   33MOL0     C 4266   9.405   2.957   6.334  0.7487 -0.3114  0.2635
   33MOL0     C 4267   9.547   3.005   6.337  0.2741  0.4291  0.0383
   33MOL0    Cl 4268   9.627   3.002   6.174  0.2472 -0.2063 -0.4311
   33MOL0     C 4269   8.504   2.616   6.334 -0.2998 -0.3303 -0.1276
   33MOL0     C 4270   8.386   2.570   6.268 -0.5517 -0.3721  0.1694
   33MOL0     O 4271   8.242   2.316   6.126 -0.1739 -0.6994 -0.0191
   33MOL0     C 4272   7.992   2.522   5.978 -0.1919  0.2518 -0.6440
   33MOL0     C 4273   7.874   2.519   5.907  0.1325  0.5198  0.1912
   33MOL0     N 4274   7.071   2.261   5.744 -0.0866  0.0584  0.4666
   33MOL0     N 4275   7.018   2.206   5.642 -0.6739 -0.1294  0.5393
   33MOL0     C 4276   7.675   2.570   4.766  1.0403  0.6373 -0.3857
   33MOL0     C 4277   7.792   2.617   4.818  0.2283  0.2427 -0.7746
   33MOL0     C 4278   8.139   2.821   4.942 -0.1989  0.3963  0.1576
   33MOL0     C 4279   8.146   2.947   4.885 -0.1155 -0.6412 -0.4515
   33MOL0     C 4280   8.274   3.012   4.876 -0.1399 -0.1590 -0.2963
   33MOL0     C 4281   8.393   2.946   4.903 -0.6931  0.2069 -0.1763
   33MOL0     O 4282   8.520   2.994   4.871 -0.4654  0.0450 -0.4211
   33MOL0     C 4283   8.551   3.136   4.858 -1.4965 -0.1673 -1.0172
   33MOL0     C 4284   8.591   3.172   4.717  0.0243 -0.0371  0.9748
   33MOL0     C 4285   8.648   3.312   4.699  0.4926  0.2016 -0.2543
   33MOL0     C 4286   8.695   3.349   4.565  1.0554 -0.6233 -0.0119
   33MOL0     C 4287   8.828   3.299   4.531 -0.2128 -0.0099 -0.2265
   33MOL0     C 4288   8.933   3.259   4.484  0.8377 -0.0143  0.0360
   33MOL0     C 4289   8.385   2.813   4.933  0.2619  0.1858  0.0878
   33MOL0     C 4290   8.260   2.752   4.964  0.0427  0.5119 -1.2891
   33MOL0     H 4291   7.663   2.919   4.925 -1.2822 -0.4977 -0.3967
   33MOL0     H 4292   7.462   2.828   4.786 -0.6556 -0.0910  0.5804
   33MOL0     H 4293   7.526   2.429   4.567 -1.1445  0.4498 -3.0882
   33MOL0     H 4294   7.357   2.456   4.563 -2.7766  0.6905  2.5428
   33MOL0     H 4295   7.507   2.325   4.797  0.1388  1.0611 -0.6259
   33MOL0     H 4296   7.366   2.276   4.714  0.0202  0.3114 -1.1324
   33MOL0     H 4297   7.236   2.420   4.849  0.7860 -3.8005 -0.8153
   33MOL0     H 4298   7.372   2.519   4.897  2.5802 -1.5392  2.2518
   33MOL0     H 4299   7.420   2.257   4.989  0.8057  0.7071 -0.0093
   33MOL0     H 4300   7.447   2.404   5.070 -0.9992 -3.5894  3.8568
   33MOL0     H 4301   7.163   2.303   5.023  0.2733  0.0616  0.4398
   33MOL0     H 4302   7.205   2.449   5.121  1.4791  0.0291  2.0206
   33MOL0     H 4303   7.316   2.318   5.294 -1.0160  0.4454 -0.1029
   33MOL0     H 4304   7.292   2.170   5.203  0.2822  0.2253  0.1979
   33MOL0     H 4305   7.047   2.348   5.281 -0.2007 -0.5003  0.3037
   33MOL0     H 4306   7.046   2.196   5.208 -0.1468  0.6421 -0.9638
   33MOL0     H 4307   7.169   2.113   5.413  0.7010  0.8042 -0.1796
   33MOL0     H 4308   6.986   2.128   5.400 -0.0822  0.8415  3.0484
   33MOL0     H 4309   7.181   2.441   5.494  0.6271  0.5169  0.6449
   33MOL0     H 4310   7.152   2.484   5.885  1.7385  1.4537  1.5550
   33MOL0     H 4311   7.259   2.552   5.766  1.8030 -0.5702  1.5198
   33MOL0     H 4312   7.342   2.276   5.862 -2.8045 -0.6889 -1.2750
   33MOL0     H 4313   7.356   2.421   5.970  0.5361  1.1922 -0.7359
   33MOL0     H 4314   7.468   2.428   5.688 -0.5072  3.2441  0.1930
   33MOL0     H 4315   7.493   2.538   5.822  3.2941 -0.4117 -2.1721
   33MOL0     H 4316   7.565   2.245   5.811 -0.1207 -1.0100 -0.0254
   33MOL0     H 4317   7.602   2.352   5.946  0.2078 -2.4644 -0.4543
   33MOL0     H 4318   7.855   2.192   5.830  0.1684 -0.7332  1.3095
   33MOL0     H 4319   8.064   2.186   5.969  2.5044  0.5774  1.9071
   33MOL0     H 4320   8.509   2.558   5.956  2.2365 -0.5497  0.4321
   33MOL0     H 4321   8.707   2.642   6.064  0.9590 -0.8013  1.3097
   33MOL0     H 4322   8.744   2.859   6.245  0.6243  1.5069  3.6537
   33MOL0     H 4323   8.838   2.737   6.183  0.0778  3.6660 -2.1105
   33MOL0     H 4324   8.879   2.875   6.453  0.3371 -4.1421  2.3035
   33MOL0     H 4325   8.950   2.906   6.290 -1.9728  0.6947 -0.3473
   33MOL0     H 4326   9.010   2.648   6.313 -0.3393  0.9389 -1.7072
   33MOL0     H 4327   9.019   2.689   6.482  0.0446  1.4689  1.1751
   33MOL0     H 4328   9.224   2.697   6.370 -1.5853  0.4202  1.0139
   33MOL0     H 4329   9.165   2.810   6.247  0.3932  0.1716 -0.4561
   33MOL0     H 4330   9.161   2.874   6.552 -0.2693  0.3283  0.1354
   33MOL0     H 4331   9.126   2.979   6.423 -3.2735 -4.2706 -2.7608
   33MOL0     H 4332   9.391   2.856   6.515  0.0823 -0.0671 -1.9436
   33MOL0     H 4333   9.353   3.027   6.531  2.3100 -0.5709  0.9753
   33MOL0     H 4334   9.396   2.869   6.270  1.7227 -0.5149  0.3892
   33MOL0     H 4335   9.341   3.032   6.286 -2.3621 -1.3816  2.4409
   33MOL0     H 4336   9.590   2.926   6.400 -3.5053 -1.4788  0.5022
   33MOL0     H 4337   9.556   3.106   6.377  0.6473  0.4126 -0.0038
   33MOL0     H 4338   8.513   2.630   6.442  3.7302 -2.0714 -0.0399
   33MOL0     H 4339   8.294   2.560   6.325  0.0810 -0.7722  1.1238
   33MOL0     H 4340   8.031   2.618   6.008  3.0157 -0.5220 -1.8713
   33MOL0     H 4341   7.821   2.611   5.882  0.3070  0.8048  0.8559
   33MOL0     H 4342   7.680   2.468   4.729 -0.2911 -0.4898  2.2558
   33MOL0     H 4343   7.881   2.557   4.803 -0.6186 -0.4072 -3.8960
   33MOL0     H 4344   8.062   3.008   4.852  1.3403  0.7090 -1.8083
   33MOL0     H 4345   8.277   3.113   4.836 -1.2819  0.3433  0.8373
   33MOL0     H 4346   8.629   3.162   4.930 -2.6965  0.3764  0.1341
   33MOL0     H 4347   8.469   3.198   4.894 -0.7914 -0.7453  1.8286
   33MOL0     H 4348   8.670   3.102   4.689  2.1041  2.2375  0.7967
   33MOL0     H 4349   8.508   3.144   4.652  2.0437 -2.4713 -0.7673
   33MOL0     H 4350   8.732   3.341   4.764 -0.0937  0.2792  0.4758
   33MOL0     H 4351   8.558   3.369   4.725 -1.2693 -1.3358 -2.6275
   33MOL0     H 4352   8.636   3.310   4.482  2.0279 -0.3412 -0.8587
   33MOL0     H 4353   8.691   3.458   4.570  1.0798 -0.3983 -3.1189
   33MOL0     H 4354   9.023   3.258   4.425 -0.0373 -1.6838 -1.3527
   33MOL0     H 4355   8.474   2.751   4.926  0.1416  0.2000 -2.0506
   33MOL0     H 4356   8.265   2.646   4.986  0.1604 -0.0891 -3.8279
   34MOL0     O 4357  10.279   3.105   0.767 -0.1178  0.4672  0.0745
   34MOL0     C 4358  10.381   3.047   0.803 -0.1930  0.5040 -0.7625
   34MOL0     O 4359  10.393   2.914   0.833  1.0366  0.3645  0.2578
   34MOL0     C 4360  10.279   2.833   0.829 -0.4760 -1.0308  0.1857
   34MOL0     C 4361  10.163   2.844   0.903 -0.5684  0.0778  0.2932
   34MOL0     C 4362  10.054   2.756   0.888  0.0061  0.2070 -0.5857
   34MOL0     C 4363  10.060   2.650   0.799 -0.0005  0.8624  0.4665
   34MOL0     O 4364   9.943   2.580   0.789 -0.4431  0.4786  0.6226
   34MOL0     C 4365   9.939   2.457   0.716  0.1710  0.9885 -0.0790
   34MOL0     C 4366   9.796   2.402   0.707 -0.8260  0.1330  0.2062
   34MOL0     C 4367   9.701   2.497   0.641  0.4576  0.3565  0.4450
   34MOL0     C 4368   9.567   2.435   0.608 -0.2262 -0.4941  0.5304
   34MOL0     C 4369   9.465   2.535   0.565 -0.4170 -0.7785 -0.6345
   34MOL0     C 4370   9.333   2.470   0.524  0.9852  0.4010  0.6928
   34MOL0     C 4371   9.264   2.388   0.633 -0.0484  0.3860 -0.0302
   34MOL0     C 4372   9.127   2.327   0.595 -0.3320 -0.9066  0.5735
   34MOL0     N 4373   9.051   2.272   0.709 -0.9409  0.0730 -0.6848
   34MOL0     C 4374   8.948   2.339   0.771  0.8314 -0.3206 -0.0378
   34MOL0     C 4375   8.900   2.251   0.866 -0.4212  0.1110 -0.0004
   34MOL0     C 4376   8.803   2.273   0.975  0.7478  0.6248 -0.3430
   34MOL0     C 4377   8.654   2.254   0.936 -0.7054 -0.2357 -0.2942
   34MOL0     C 4378   8.607   2.383   0.859  0.2484 -0.4718 -0.9438
   34MOL0     C 4379   8.457   2.396   0.848 -1.1042  1.2652  0.9777
   34MOL0     O 4380   8.401   2.432   0.968  0.2543 -0.4705 -0.0553
   34MOL0     C 4381   8.264   2.428   0.980  0.0810  0.1781  0.2462
   34MOL0     C 4382   8.170   2.396   0.880 -0.8350  0.4289 -0.1209
   34MOL0     C 4383   8.035   2.407   0.895 -0.6942  0.8533 -0.0289
   34MOL0     C 4384   7.983   2.467   1.004  0.5032  0.8260  0.6354
   34MOL0     C 4385   7.835   2.501   1.013 -0.0912 -0.6422  0.5685
   34MOL0     O 4386   7.760   2.443   0.913  0.2407  0.7862 -0.1536
   34MOL0     C 4387   7.631   2.482   0.901  0.2075 -0.0406  1.0392
   34MOL0     C 4388   7.558   2.390   0.819 -0.6134 -0.3207  0.8822
   34MOL0     C 4389   7.420   2.411   0.794  0.1165 -0.4997 -0.1241
   34MOL0     C 4390   7.349   2.519   0.854  0.3072 -0.3534 -0.2942
   34MOL0     O 4391   7.216   2.550   0.850  0.1455 -1.0888  0.4596
   34MOL0     C 4392   7.132   2.486   0.749 -0.6095  0.0282 -0.3687
   34MOL0     C 4393   6.987   2.528   0.771  0.3747  0.1683 -0.0079
   34MOL0     C 4394   6.893   2.469   0.663 -0.8418 -0.6006  0.3441
   34MOL0     C 4395   6.745   2.484   0.705 -0.9718 -0.5050  0.6906
   34MOL0     C 4396   6.657   2.407   0.598 -0.6036  0.3836 -0.0617
   34MOL0     C 4397   6.514   2.467   0.592  0.1005  1.1081 -0.7897
   34MOL0     C 4398   6.413   2.369   0.516 -0.1156  0.2293  0.7443
   34MOL0     C 4399   6.274   2.417   0.544 -0.4577  0.4777 -0.3629
   34MOL0    Cl 4400   6.184   2.402   0.394  0.4730 -0.0443 -0.1503
   34MOL0     C 4401   7.424   2.612   0.927 -0.0092 -1.0831  0.6281
   34MOL0     C 4402   7.560   2.595   0.950  0.0822 -0.7868 -0.3103
   34MOL0     O 4403   7.799   2.574   1.100  0.6592  0.0873 -0.7274
   34MOL0     C 4404   8.068   2.487   1.116  0.2065  0.6734  0.1873
   34MOL0     C 4405   8.207   2.474   1.104  0.1269  0.0679 -0.0831
   34MOL0     N 4406   8.973   2.136   0.856  0.9794 -0.7990  0.2053
   34MOL0     N 4407   9.065   2.144   0.762  0.4972  0.2321  0.3390
   34MOL0     C 4408  10.176   2.640   0.720  0.5753 -0.2498 -0.6832
   34MOL0     C 4409  10.279   2.726   0.732 -0.2156  0.9860 -0.0499
   34MOL0     C 4410  10.517   3.118   0.814  0.4106 -0.5832 -1.0095
   34MOL0     C 4411  10.556   3.222   0.725  0.3617 -0.4629 -0.6115
   34MOL0     C 4412  10.678   3.285   0.745 -0.9330  0.2213 -0.4027
   34MOL0     C 4413  10.763   3.239   0.846  0.0673  0.3364 -0.7745
   34MOL0     O 4414  10.882   3.295   0.877  0.2231 -0.5303 -0.4358
   34MOL0     C 4415  10.899   3.435   0.871  0.5730 -0.1462 -0.5066
   34MOL0     C 4416  11.005   3.473   0.977  0.3929  0.5033 -0.4708
   34MOL0     C 4417  11.047   3.621   0.969 -0.2923  1.0737  0.1056
   34MOL0     C 4418  10.939   3.718   0.933  0.1494  0.3297 -0.0013
   34MOL0     C 4419  10.965   3.857   0.966 -1.0385 -0.7542  0.0456
   34MOL0     C 4420  10.983   3.975   1.006  0.2775  0.2786 -0.6939
   34MOL0     C 4421  10.735   3.129   0.922 -0.2236  0.9550  0.2133
   34MOL0     C 4422  10.611   3.068   0.907  0.0549 -0.0913 -0.1847
   34MOL0     H 4423  10.171   2.924   0.976  1.0486  0.0738  0.1741
   34MOL0     H 4424   9.966   2.781   0.947  0.0105  0.3339 -0.6327
   34MOL0     H 4425  10.005   2.388   0.770  0.5347  1.1478 -0.3121
   34MOL0     H 4426   9.972   2.477   0.614  0.0067  1.3049 -0.0731
   34MOL0     H 4427   9.769   2.376   0.810  2.3322 -4.4526  0.2103
   34MOL0     H 4428   9.800   2.309   0.649  0.0384  1.0122 -1.1847
   34MOL0     H 4429   9.747   2.524   0.546 -0.0079 -0.2567  0.0406
   34MOL0     H 4430   9.694   2.584   0.708  0.5962  0.6211  0.1196
   34MOL0     H 4431   9.582   2.361   0.528 -1.4032  1.9948 -2.1917
   34MOL0     H 4432   9.541   2.372   0.693 -1.6001 -2.1665 -1.0383
   34MOL0     H 4433   9.497   2.600   0.483 -0.1041  2.2638  1.7309
   34MOL0     H 4434   9.453   2.606   0.647  0.8714 -0.5583 -0.6100
   34MOL0     H 4435   9.360   2.403   0.442 -2.4837  0.8005 -0.9914
   34MOL0     H 4436   9.264   2.546   0.486  2.1304  1.1038 -0.0183
   34MOL0     H 4437   9.322   2.303   0.672 -2.3812 -1.5886 -0.6818
   34MOL0     H 4438   9.245   2.451   0.721  1.2324  1.6211 -0.6027
   34MOL0     H 4439   9.159   2.247   0.527 -2.6578 -0.1296 -1.5955
   34MOL0     H 4440   9.070   2.401   0.539  1.3099  1.1821  1.5383
   34MOL0     H 4441   8.930   2.444   0.750 -0.8265 -0.7578 -1.0075
   34MOL0     H 4442   8.810   2.374   1.014  1.3558 -0.5377  2.8529
   34MOL0     H 4443   8.823   2.203   1.057 -1.4136  1.6737  1.1727
   34MOL0     H 4444   8.601   2.237   1.030 -0.8247 -1.7666 -0.6107
   34MOL0     H 4445   8.638   2.155   0.892  0.3569 -2.1619  3.3040
   34MOL0     H 4446   8.627   2.477   0.912  1.7524 -0.3814 -1.6154
   34MOL0     H 4447   8.655   2.386   0.761  3.5326  1.6083  0.5539
   34MOL0     H 4448   8.419   2.304   0.804  2.5004  0.1255 -0.1554
   34MOL0     H 4449   8.441   2.484   0.784  2.3637  1.5695  0.2910
   34MOL0     H 4450   8.210   2.377   0.781  0.8339  2.2311  0.1534
   34MOL0     H 4451   7.973   2.375   0.812  1.1238  1.1681 -1.5582
   34MOL0     H 4452   7.603   2.299   0.781 -1.8957 -1.0195  0.9667
   34MOL0     H 4453   7.368   2.336   0.735  1.2969 -0.5150 -1.1909
   34MOL0     H 4454   7.142   2.378   0.764 -0.2258  0.3229  1.8477
   34MOL0     H 4455   7.175   2.512   0.652 -0.4362 -1.1078 -0.6137
   34MOL0     H 4456   6.980   2.637   0.774 -2.8269  0.0568 -0.2528
   34MOL0     H 4457   6.945   2.489   0.865 -0.6133 -0.4426 -0.6845
   34MOL0     H 4458   6.908   2.363   0.642  1.5383 -0.4265  0.9663
   34MOL0     H 4459   6.904   2.522   0.568 -1.8213 -0.5851  0.2238
   34MOL0     H 4460   6.734   2.441   0.805 -2.9659  2.1601  1.7378
   34MOL0     H 4461   6.721   2.591   0.705 -0.8735 -0.4772 -0.1799
   34MOL0     H 4462   6.653   2.301   0.626  1.1231  0.2256 -0.3317
   34MOL0     H 4463   6.693   2.409   0.495  0.3703 -0.6141  0.2363
   34MOL0     H 4464   6.509   2.559   0.533 -1.0688  1.6057  0.0475
   34MOL0     H 4465   6.476   2.498   0.690 -0.7815  1.6756 -1.2912
   34MOL0     H 4466   6.437   2.375   0.410 -0.1730  0.1728  0.7280
   34MOL0     H 4467   6.425   2.263   0.539 -1.0082  0.2271  1.2405
   34MOL0     H 4468   6.281   2.521   0.576  1.3210 -0.0894  1.2801
   34MOL0     H 4469   6.231   2.359   0.626 -0.9162  1.2698 -0.0346
   34MOL0     H 4470   7.367   2.701   0.953  0.3213  0.1251 -2.3545
   34MOL0     H 4471   7.615   2.673   1.001 -2.2506 -1.8776  4.4184
   34MOL0     H 4472   8.035   2.542   1.204 -0.9753 -0.4184  0.4800
   34MOL0     H 4473   8.262   2.503   1.193 -1.3046 -0.7139  1.1021
   34MOL0     H 4474  10.196   2.552   0.659 -0.8478 -0.4512 -0.9064
   34MOL0     H 4475  10.370   2.703   0.678  0.9565  3.9135  0.4489
   34MOL0     H 4476  10.493   3.264   0.647  1.5849  2.0473 -0.3777
   34MOL0     H 4477  10.705   3.356   0.667  2.4603 -1.3046 -0.7621
   34MOL0     H 4478  10.799   3.476   0.890  0.0655 -1.5886  0.0717
   34MOL0     H 4479  10.932   3.475   0.775  2.4745  0.1434  0.2155
   34MOL0     H 4480  10.963   3.463   1.078  1.4627 -1.8144 -0.2037
   34MOL0     H 4481  11.096   3.412   0.974 -0.2251 -0.4336 -0.5087
   34MOL0     H 4482  11.123   3.631   0.892 -0.0414  0.0179  0.2037
   34MOL0     H 4483  11.101   3.628   1.064  1.4584 -1.1138 -0.6275
   34MOL0     H 4484  10.929   3.716   0.824  0.7056 -0.2659 -0.0516
   34MOL0     H 4485  10.846   3.685   0.981  0.4388 -1.3969 -0.5528
   34MOL0     H 4486  10.995   4.069   1.056  1.9888  0.4600 -1.3809
   34MOL0     H 4487  10.810   3.079   0.984 -1.3623 -0.5102  0.4715
   34MOL0     H 4488  10.591   2.985   0.975  3.9949 -0.1898  1.0530
   35MOL0     O 4489   2.817   6.041   8.013 -0.1176  0.0479 -0.0783
   35MOL0     C 4490   2.854   5.925   7.999 -0.6082 -0.0731  0.3789
   35MOL0     O 4491   2.794   5.827   7.919  0.5006  0.5835 -0.4088
   35MOL0     C 4492   2.679   5.865   7.854 -0.2116  0.4110 -0.5776
   35MOL0     C 4493   2.568   5.850   7.933  0.3776  0.4818  0.2662
   35MOL0     C 4494   2.442   5.887   7.878 -0.6106 -0.0758  0.0651
   35MOL0     C 4495   2.432   5.928   7.746 -0.8718  0.8701 -0.1220
   35MOL0     O 4496   2.317   5.980   7.696  0.5033 -0.0225 -0.4020
   35MOL0     C 4497   2.234   5.866   7.657  0.8434 -0.5445 -1.1060
   35MOL0     C 4498   2.104   5.916   7.601  0.2956  0.2174 -0.6348
   35MOL0     C 4499   1.993   5.809   7.573  0.3934 -0.5753  0.3664
   35MOL0     C 4500   1.869   5.877   7.517 -0.3749 -0.6586 -0.3939
   35MOL0     C 4501   1.761   5.788   7.503  0.2546 -0.3315  0.3393
   35MOL0     C 4502   1.637   5.851   7.429  0.0026  0.8502  0.3376
   35MOL0     C 4503   1.506   5.766   7.406 -0.7876 -0.9573  0.4067
   35MOL0     C 4504   1.420   5.750   7.531 -0.1605  0.5838 -0.0702
   35MOL0     N 4505   1.321   5.860   7.530 -0.4919  0.1071  0.6122
   35MOL0     C 4506   1.192   5.861   7.489 -0.3225 -0.1049 -0.2893
   35MOL0     C 4507   1.148   5.986   7.485 -0.7638  0.0146 -0.5973
   35MOL0     C 4508   1.019   6.034   7.435  0.2617 -0.0077  0.2113
   35MOL0     C 4509   0.888   5.961   7.490  0.3057  0.0280  0.0193
   35MOL0     C 4510   0.801   5.915   7.372 -1.1935  0.1722  0.8038
   35MOL0     C 4511   0.747   6.026   7.281  0.3771 -0.1144 -0.2081
   35MOL0     O 4512   0.669   6.116   7.364  1.1053  0.0936 -0.4687
   35MOL0     C 4513   0.590   6.214   7.312 -0.1297 -0.2271 -0.5576
   35MOL0     C 4514   0.505   6.276   7.411 -0.8747 -0.4103  0.5811
   35MOL0     C 4515   0.412   6.369   7.376 -0.5348  0.4268 -0.2520
   35MOL0     C 4516   0.399   6.404   7.241  0.3451 -0.8098 -0.3927
   35MOL0     C 4517   0.293   6.509   7.204 -0.0069 -0.2121  0.3348
   35MOL0     O 4518   0.292   6.544   7.069 -0.0787 -0.2886 -0.7177
   35MOL0     C 4519   0.188   6.611   7.019 -0.5948 -0.4328 -0.3379
   35MOL0     C 4520   0.056   6.570   7.034 -0.8032  1.0246  0.3668
   35MOL0     C 4521  -0.057   6.646   6.998  0.0864 -0.3887 -0.2201
   35MOL0     C 4522  -0.033   6.761   6.925  0.9359 -1.0570  0.0047
   35MOL0     O 4523  -0.139   6.845   6.877 -0.5019 -0.6077  0.3640
   35MOL0     C 4524  -0.280   6.817   6.888 -0.3711  0.2375 -0.0454
   35MOL0     C 4525  -0.324   6.700   6.782  0.3006  0.1994  0.0164
   35MOL0     C 4526  -0.270   6.707   6.643  0.1622 -0.0833  0.5426
   35MOL0     C 4527  -0.343   6.609   6.547 -0.4221 -0.2731  0.1036
   35MOL0     C 4528  -0.308   6.638   6.398 -0.7496 -0.2223 -0.3970
   35MOL0     C 4529  -0.156   6.608   6.378  0.5060  0.1474 -0.9337
   35MOL0     C 4530  -0.128   6.615   6.227 -0.2437  0.8985 -0.6502
   35MOL0     C 4531  -0.030   6.508   6.178 -0.1305  0.6522 -0.2481
   35MOL0    Cl 4532   0.130   6.529   6.256 -0.2108 -0.1998 -0.6411
   35MOL0     C 4533   0.102   6.796   6.901  0.2794  0.2624  0.4560
   35MOL0     C 4534   0.214   6.728   6.958 -0.1947  0.0332  1.1911
   35MOL0     O 4535   0.217   6.553   7.288  0.2775  0.1920  0.1693
   35MOL0     C 4536   0.474   6.348   7.142 -0.1830  1.3202 -0.0652
   35MOL0     C 4537   0.581   6.258   7.179 -0.5912 -0.2866 -0.7832
   35MOL0     N 4538   1.254   6.071   7.531  0.1445  1.0630  0.5019
   35MOL0     N 4539   1.357   5.987   7.549 -0.2021  0.6603  0.2342
   35MOL0     C 4540   2.547   5.944   7.671 -0.7003 -0.3338  0.2313
   35MOL0     C 4541   2.671   5.915   7.727  0.1788  0.6420 -0.5338
   35MOL0     C 4542   2.982   5.896   8.060  0.1813 -0.3116  0.6684
   35MOL0     C 4543   3.029   5.762   8.087  0.3093 -0.5890 -0.6022
   35MOL0     C 4544   3.159   5.744   8.138 -0.9148  0.3818  0.1128
   35MOL0     C 4545   3.243   5.843   8.169  0.8002  0.3249  0.1545
   35MOL0     O 4546   3.366   5.802   8.201 -0.5577 -0.2600  0.2046
   35MOL0     C 4547   3.459   5.895   8.249  0.3994 -0.7332 -0.5292
   35MOL0     C 4548   3.429   5.951   8.388  0.1605 -0.3021 -0.3456
   35MOL0     C 4549   3.509   6.079   8.414  0.1804  1.1839  0.7302
   35MOL0     C 4550   3.663   6.062   8.425  0.0249  0.2405 -0.3006
   35MOL0     C 4551   3.738   6.187   8.401 -0.8766 -0.3069 -0.5760
   35MOL0     C 4552   3.812   6.282   8.371  0.2120 -0.1081  0.9586
   35MOL0     C 4553   3.199   5.975   8.148 -1.0128  0.0919 -0.9187
   35MOL0     C 4554   3.072   6.002   8.098 -0.0325 -0.4427 -0.1476
   35MOL0     H 4555   2.574   5.820   8.037 -0.9579  1.9163  0.7973
   35MOL0     H 4556   2.356   5.886   7.945 -1.2161  1.3299 -0.6540
   35MOL0     H 4557   2.209   5.810   7.748  2.1624  0.4455 -0.0981
   35MOL0     H 4558   2.285   5.792   7.594  2.4614 -2.6806  2.4158
   35MOL0     H 4559   2.144   5.951   7.505  1.5591  0.9452  0.1213
   35MOL0     H 4560   2.069   5.990   7.674 -2.8639 -3.6614  2.2383
   35MOL0     H 4561   1.966   5.769   7.672  0.4864  0.1003  0.6676
   35MOL0     H 4562   2.035   5.729   7.512  0.4603  0.7470 -1.3821
   35MOL0     H 4563   1.846   5.960   7.584  0.5506  0.9703 -2.0183
   35MOL0     H 4564   1.893   5.929   7.424 -1.2734  0.2822 -0.1152
   35MOL0     H 4565   1.727   5.769   7.605  1.3070  0.3092  0.8299
   35MOL0     H 4566   1.787   5.691   7.459  1.8970  0.1622  0.1609
   35MOL0     H 4567   1.675   5.874   7.328 -1.1044  3.4248  0.4278
   35MOL0     H 4568   1.614   5.948   7.474  2.7072  1.2588  0.9993
   35MOL0     H 4569   1.443   5.809   7.327 -1.6486  1.9102  2.4717
   35MOL0     H 4570   1.529   5.664   7.373 -3.1914 -1.8045  1.1849
   35MOL0     H 4571   1.481   5.758   7.621  0.3080  0.2104 -0.3494
   35MOL0     H 4572   1.375   5.650   7.529  1.0989 -0.0863  1.9850
   35MOL0     H 4573   1.127   5.775   7.474  0.5112 -1.5104  3.2344
   35MOL0     H 4574   1.022   6.044   7.326 -0.4636 -0.6031  0.1250
   35MOL0     H 4575   1.004   6.135   7.472 -1.2016  0.0398 -0.4257
   35MOL0     H 4576   0.828   6.026   7.554 -1.3107 -1.5257  0.1652
   35MOL0     H 4577   0.919   5.878   7.554 -0.6493 -0.0890  0.3420
   35MOL0     H 4578   0.868   5.843   7.324  2.3204  2.7419  1.4831
   35MOL0     H 4579   0.713   5.861   7.409 -0.5242 -0.9463  0.8131
   35MOL0     H 4580   0.677   5.988   7.207 -0.8021  0.2768  0.6742
   35MOL0     H 4581   0.830   6.076   7.229  0.0697  0.7970  0.1537
   35MOL0     H 4582   0.518   6.263   7.518  1.7869 -5.4598 -0.0454
   35MOL0     H 4583   0.359   6.416   7.458  1.1978  0.5238  0.8762
   35MOL0     H 4584   0.036   6.470   7.069  3.2422 -1.1892 -2.7259
   35MOL0     H 4585  -0.153   6.603   7.027 -0.6679  2.3742  1.7853
   35MOL0     H 4586  -0.343   6.904   6.869 -2.0063 -0.4779  1.7290
   35MOL0     H 4587  -0.301   6.780   6.989 -0.3542 -2.3965 -0.9489
   35MOL0     H 4588  -0.432   6.684   6.771  0.2873 -1.3173  1.8012
   35MOL0     H 4589  -0.299   6.614   6.845  2.9329  0.6396 -0.3420
   35MOL0     H 4590  -0.160   6.711   6.644  0.1187  2.4677  1.3540
   35MOL0     H 4591  -0.305   6.807   6.616 -2.5557 -0.9196  0.7628
   35MOL0     H 4592  -0.326   6.503   6.568  2.9886  0.2920  0.8133
   35MOL0     H 4593  -0.451   6.626   6.552 -0.6588 -1.1137 -1.6122
   35MOL0     H 4594  -0.339   6.736   6.361 -0.5887  1.0860  2.7221
   35MOL0     H 4595  -0.366   6.566   6.339 -1.3806 -1.5476  1.7423
   35MOL0     H 4596  -0.125   6.514   6.425 -1.3179 -0.2504 -0.4374
   35MOL0     H 4597  -0.097   6.687   6.426  1.6003 -0.5524 -1.0932
   35MOL0     H 4598  -0.216   6.599   6.164 -1.0206  0.3881  0.5150
   35MOL0     H 4599  -0.096   6.719   6.217  1.6450  0.4214  0.1076
   35MOL0     H 4600  -0.003   6.508   6.072 -1.4749  1.1041 -0.6185
   35MOL0     H 4601  -0.077   6.412   6.204 -0.2980  0.6506 -0.5502
   35MOL0     H 4602   0.123   6.877   6.832  0.7045 -0.5894 -0.4480
   35MOL0     H 4603   0.315   6.770   6.964  0.4738 -1.4402  0.6672
   35MOL0     H 4604   0.462   6.381   7.039 -1.0966  0.3443 -0.2791
   35MOL0     H 4605   0.644   6.224   7.098 -0.5115 -1.1450 -0.3809
   35MOL0     H 4606   2.537   5.974   7.567 -0.3805 -2.6627 -0.5275
   35MOL0     H 4607   2.762   5.924   7.668  1.8744 -1.6889  1.4927
   35MOL0     H 4608   2.955   5.686   8.064  1.3339 -2.3783  1.6919
   35MOL0     H 4609   3.188   5.643   8.165 -0.7093  0.9778  2.2870
   35MOL0     H 4610   3.469   5.976   8.176  0.8937  0.7961  1.1531
   35MOL0     H 4611   3.558   5.849   8.259  0.8602  0.4128  0.4783
   35MOL0     H 4612   3.324   5.968   8.409  0.0646  0.5357 -1.3832
   35MOL0     H 4613   3.467   5.887   8.468  0.7301  2.9995  2.2249
   35MOL0     H 4614   3.482   6.131   8.506  2.0811  0.1139  1.9635
   35MOL0     H 4615   3.481   6.152   8.337 -3.4720  1.8312  2.4775
   35MOL0     H 4616   3.683   6.030   8.528  0.1334  2.3288  0.3733
   35MOL0     H 4617   3.696   5.978   8.363  2.5002  0.0444  1.1470
   35MOL0     H 4618   3.884   6.361   8.359 -0.5130  0.3003 -0.9251
   35MOL0     H 4619   3.269   6.055   8.170 -2.1101  1.4047 -2.0173
   35MOL0     H 4620   3.049   6.108   8.099 -1.4005 -0.7133 -0.6395
   36MOL0     O 4621   9.968   2.340   1.106 -0.5471  0.2465 -0.6628
   36MOL0     C 4622  10.067   2.273   1.130  0.3352  0.1394 -0.0252
   36MOL0     O 4623  10.067   2.143   1.165 -0.3323 -0.0136  0.3156
   36MOL0     C 4624   9.961   2.061   1.179  1.0111 -0.2661 -0.3572
   36MOL0     C 4625   9.976   1.955   1.270 -0.4373  0.1956  0.0413
   36MOL0     C 4626   9.869   1.860   1.288 -0.1990 -0.1101 -1.3665
   36MOL0     C 4627   9.753   1.870   1.218 -0.1103 -0.1407 -0.5005
   36MOL0     O 4628   9.666   1.769   1.245  0.1611 -0.1869  0.3835
   36MOL0     C 4629   9.532   1.779   1.190 -0.1274 -1.3202  0.0964
   36MOL0     C 4630   9.443   1.675   1.254  0.6925  0.5542 -0.0358
   36MOL0     C 4631   9.296   1.693   1.211 -0.4815  0.2048  0.2133
   36MOL0     C 4632   9.220   1.568   1.268 -0.0258  0.4586 -0.2017
   36MOL0     C 4633   9.242   1.544   1.420 -0.0068  0.3350  0.1949
   36MOL0     C 4634   9.147   1.430   1.467  0.8931 -0.3002  0.8225
   36MOL0     C 4635   9.126   1.444   1.616 -0.2404 -1.0830 -0.3252
   36MOL0     C 4636   9.053   1.564   1.672 -0.1991 -0.6853  0.1942
   36MOL0     N 4637   8.915   1.575   1.616 -0.9155  0.0676  0.5952
   36MOL0     C 4638   8.820   1.485   1.643 -0.1179 -0.7261  0.1110
   36MOL0     C 4639   8.709   1.514   1.568  0.0708 -0.0456  0.6303
   36MOL0     C 4640   8.581   1.442   1.558  0.6713  0.2350 -0.6810
   36MOL0     C 4641   8.454   1.512   1.593 -0.4429  0.4282  0.5373
   36MOL0     C 4642   8.429   1.635   1.500 -0.0347 -0.7152 -0.4585
   36MOL0     C 4643   8.288   1.695   1.516  0.0468  0.6116  0.1186
   36MOL0     O 4644   8.177   1.603   1.510  0.1243  0.6241  0.0680
   36MOL0     C 4645   8.049   1.657   1.475 -0.7798  0.3981  0.0868
   36MOL0     C 4646   7.950   1.562   1.447 -0.1893 -0.9907  0.7042
   36MOL0     C 4647   7.825   1.600   1.395  0.0279  0.5079 -0.2104
   36MOL0     C 4648   7.802   1.736   1.367 -0.2631 -0.2212  0.7036
   36MOL0     C 4649   7.671   1.776   1.300  0.3640  0.3872 -0.4149
   36MOL0     O 4650   7.577   1.672   1.295  0.1820  0.4730 -0.3618
   36MOL0     C 4651   7.452   1.682   1.233 -0.2760  0.4006  0.2551
   36MOL0     C 4652   7.418   1.567   1.169 -0.3912 -0.1718  0.2089
   36MOL0     C 4653   7.298   1.564   1.104 -0.3857  0.4286  1.0380
   36MOL0     C 4654   7.219   1.674   1.088 -0.0670 -0.9354 -0.4419
   36MOL0     O 4655   7.100   1.658   1.027  0.0516  0.4010 -0.0293
   36MOL0     C 4656   6.995   1.765   1.028 -0.2552  0.6694  0.3173
   36MOL0     C 4657   6.858   1.696   0.988 -0.0904  0.1397  0.1134
   36MOL0     C 4658   6.757   1.808   0.968  0.2790 -0.4155 -0.7614
   36MOL0     C 4659   6.611   1.761   0.965  0.6438 -0.6163  0.3035
   36MOL0     C 4660   6.496   1.866   0.955  0.0484  0.0690 -0.2329
   36MOL0     C 4661   6.356   1.793   0.951  0.2968 -0.2379  0.6110
   36MOL0     C 4662   6.294   1.774   1.089 -0.2717 -0.1307  0.5582
   36MOL0     C 4663   6.137   1.741   1.088 -1.1851  0.1038 -0.5637
   36MOL0    Cl 4664   6.064   1.733   1.248  0.0788  0.0254 -0.1138
   36MOL0     C 4665   7.256   1.797   1.146  0.1241 -0.7048  0.8134
   36MOL0     C 4666   7.380   1.797   1.214  0.7949 -0.1206  0.2466
   36MOL0     O 4667   7.655   1.894   1.263 -0.2281 -0.7788 -0.2422
   36MOL0     C 4668   7.898   1.835   1.396  0.0194 -0.2668  0.1591
   36MOL0     C 4669   8.015   1.792   1.453 -0.8192  0.2830 -1.1754
   36MOL0     N 4670   8.751   1.623   1.494 -0.5349 -0.3412  1.0461
   36MOL0     N 4671   8.870   1.655   1.521 -0.6211 -0.3899 -0.5313
   36MOL0     C 4672   9.735   1.973   1.123 -1.0416  0.4686  0.0989
   36MOL0     C 4673   9.839   2.065   1.106  0.2842 -0.4870 -0.2644
   36MOL0     C 4674  10.194   2.327   1.089 -0.3875 -0.1528 -0.0065
   36MOL0     C 4675  10.209   2.453   1.034  0.3642  0.2582 -0.4473
   36MOL0     C 4676  10.328   2.514   1.016  0.8381 -0.2295 -0.1763
   36MOL0     C 4677  10.445   2.449   1.061 -0.7397 -0.3811 -0.2140
   36MOL0     O 4678  10.572   2.511   1.056  0.7851  0.5318  0.0249
   36MOL0     C 4679  10.595   2.625   0.969 -0.0774 -0.3785  0.1742
   36MOL0     C 4680  10.742   2.681   0.962  0.5667  0.5078  0.4879
   36MOL0     C 4681  10.833   2.593   0.879  0.3918  0.0030 -0.3500
   36MOL0     C 4682  10.980   2.629   0.904  0.2209  0.0531  0.2519
   36MOL0     C 4683  11.002   2.778   0.895  0.0004  0.8620  0.2012
   36MOL0     C 4684  11.032   2.893   0.889  0.0299  0.6678 -0.1232
   36MOL0     C 4685  10.440   2.327   1.114  0.4629  0.6902 -0.3649
   36MOL0     C 4686  10.312   2.261   1.128  0.6121  0.1819  0.0871
   36MOL0     H 4687  10.072   1.941   1.319 -0.2978  4.6134  1.4623
   36MOL0     H 4688   9.875   1.797   1.376  1.2367  1.7815 -0.0297
   36MOL0     H 4689   9.535   1.757   1.083 -0.6105 -0.5229 -0.0904
   36MOL0     H 4690   9.504   1.885   1.201 -0.8289 -1.3383 -1.3383
   36MOL0     H 4691   9.451   1.696   1.361 -0.4821 -1.8489  0.5702
   36MOL0     H 4692   9.478   1.572   1.242 -1.4798 -0.2703  0.3201
   36MOL0     H 4693   9.294   1.691   1.101 -0.4855  1.5758  0.1720
   36MOL0     H 4694   9.254   1.789   1.241  2.9310  2.1514 -0.6132
   36MOL0     H 4695   9.115   1.583   1.240  0.1873 -1.4857 -2.2926
   36MOL0     H 4696   9.254   1.481   1.211  0.8353 -0.0046  0.9880
   36MOL0     H 4697   9.229   1.639   1.473 -2.3281 -0.5247  1.3380
   36MOL0     H 4698   9.335   1.495   1.447 -1.3354 -1.7303  1.3422
   36MOL0     H 4699   9.188   1.330   1.445  1.6805  0.1470  0.1909
   36MOL0     H 4700   9.048   1.438   1.421  0.5307  1.4560  1.8078
   36MOL0     H 4701   9.084   1.349   1.650  2.7709 -1.5087  2.6048
   36MOL0     H 4702   9.225   1.450   1.661 -0.0577  0.7782 -0.8752
   36MOL0     H 4703   9.111   1.657   1.668 -3.4822  1.7075  2.5912
   36MOL0     H 4704   9.048   1.551   1.780  2.2070  0.5664  0.5276
   36MOL0     H 4705   8.839   1.411   1.720  1.1165  3.3605  4.1713
   36MOL0     H 4706   8.590   1.366   1.636  0.8446  0.2464 -0.6891
   36MOL0     H 4707   8.555   1.401   1.460 -0.4769  1.8493 -1.0987
   36MOL0     H 4708   8.456   1.549   1.696  0.7181 -1.2536  1.1600
   36MOL0     H 4709   8.372   1.440   1.592 -2.2852  2.2055  3.6916
   36MOL0     H 4710   8.504   1.713   1.516 -1.5507  0.4905  1.2060
   36MOL0     H 4711   8.444   1.598   1.399 -1.1047  0.4690 -1.0776
   36MOL0     H 4712   8.272   1.769   1.437 -0.5751  0.2814 -0.0729
   36MOL0     H 4713   8.280   1.759   1.604  1.4859  2.6893 -1.1593
   36MOL0     H 4714   7.975   1.457   1.457  0.0505 -1.0645 -0.4959
   36MOL0     H 4715   7.753   1.521   1.377 -1.3756  1.5595  0.6405
   36MOL0     H 4716   7.475   1.477   1.192  1.7084  1.1830  0.5630
   36MOL0     H 4717   7.249   1.473   1.070  0.9123  0.0593  0.1026
   36MOL0     H 4718   7.015   1.845   0.956  0.8109  1.1414  1.1003
   36MOL0     H 4719   6.993   1.806   1.129  0.1342 -0.1631  0.6777
   36MOL0     H 4720   6.832   1.633   1.074 -0.7233  0.9947  0.5673
   36MOL0     H 4721   6.855   1.637   0.897  0.3732  1.9462 -1.1354
   36MOL0     H 4722   6.781   1.863   0.877 -1.1883  2.1273  0.2578
   36MOL0     H 4723   6.766   1.876   1.054  0.6766  1.9693 -2.6014
   36MOL0     H 4724   6.595   1.675   0.899 -1.9662  0.1846 -0.2207
   36MOL0     H 4725   6.580   1.716   1.059 -1.5726 -3.6062 -1.6609
   36MOL0     H 4726   6.510   1.935   0.871  0.8391 -0.5592 -0.6263
   36MOL0     H 4727   6.497   1.926   1.047  1.3659 -1.3007  0.6995
   36MOL0     H 4728   6.381   1.700   0.900  4.3911  1.5284 -1.0819
   36MOL0     H 4729   6.284   1.836   0.881  1.8788  0.4207 -0.6899
   36MOL0     H 4730   6.342   1.683   1.127  0.2158 -0.0005  0.2605
   36MOL0     H 4731   6.329   1.854   1.153  1.7866 -0.3140 -0.2585
   36MOL0     H 4732   6.132   1.645   1.037  0.0175  0.0608 -0.6424
   36MOL0     H 4733   6.084   1.822   1.038 -0.1232  1.5133  0.4730
   36MOL0     H 4734   7.187   1.878   1.127 -0.3072 -0.9153  1.4381
   36MOL0     H 4735   7.417   1.893   1.248  0.5853 -0.2839  0.9412
   36MOL0     H 4736   7.887   1.941   1.379 -0.8670 -0.0624  1.7409
   36MOL0     H 4737   8.089   1.870   1.468  0.4344 -0.4833 -2.9682
   36MOL0     H 4738   9.651   1.975   1.055 -0.1208 -1.9728 -1.2792
   36MOL0     H 4739   9.827   2.140   1.029  2.2514  0.6244  0.4138
   36MOL0     H 4740  10.119   2.511   1.013 -1.4321 -2.2377 -0.1000
   36MOL0     H 4741  10.314   2.622   1.012  0.5204 -0.2060  1.0831
   36MOL0     H 4742  10.533   2.713   0.987 -1.4716 -1.4524  0.8878
   36MOL0     H 4743  10.568   2.588   0.870 -1.0636  0.9926 -0.1005
   36MOL0     H 4744  10.744   2.783   0.921  1.3867  0.2310 -0.2066
   36MOL0     H 4745  10.782   2.675   1.064  1.2163 -0.8545  0.1675
   36MOL0     H 4746  10.802   2.604   0.775 -2.6749  0.9251  0.5404
   36MOL0     H 4747  10.807   2.490   0.908 -3.2369 -0.3590 -3.9452
   36MOL0     H 4748  11.011   2.596   1.004 -0.0213  2.6836  1.3001
   36MOL0     H 4749  11.036   2.587   0.821  0.5176  0.8227  0.0558
   36MOL0     H 4750  11.041   2.998   0.904 -1.5636  0.7415  0.4530
   36MOL0     H 4751  10.527   2.272   1.149 -1.2792 -0.6754  2.1113
   36MOL0     H 4752  10.315   2.172   1.191  1.5881 -0.9785 -1.5117
   37MOL0     O 4753   7.464   7.610   4.484  0.2279 -0.4744  0.4223
   37MOL0     C 4754   7.385   7.555   4.406  0.9512  0.1119  0.0713
   37MOL0     O 4755   7.258   7.594   4.386 -0.9865 -0.1751 -0.1738
   37MOL0     C 4756   7.194   7.686   4.461  0.1791 -0.7191 -0.5354
   37MOL0     C 4757   7.082   7.733   4.394  0.1706  0.4641  0.4245
   37MOL0     C 4758   6.989   7.824   4.445 -0.5173  0.1337  0.0963
   37MOL0     C 4759   7.016   7.879   4.574  1.2266  0.0384  0.3839
   37MOL0     O 4760   6.918   7.965   4.630 -0.3719 -0.1085 -0.5133
   37MOL0     C 4761   6.899   8.093   4.562 -0.3728  0.3142  0.0892
   37MOL0     C 4762   6.767   8.148   4.607  0.6912  0.2441  0.2831
   37MOL0     C 4763   6.641   8.088   4.536  0.1774  0.2886 -0.0962
   37MOL0     C 4764   6.516   8.144   4.615 -0.0621  0.4175 -0.0326
   37MOL0     C 4765   6.482   8.044   4.723 -0.1720  0.1862 -0.6672
   37MOL0     C 4766   6.375   8.101   4.814  0.2467 -0.2246  0.3338
   37MOL0     C 4767   6.250   8.145   4.732 -0.3582  0.0791 -0.0612
   37MOL0     C 4768   6.129   8.171   4.818  0.0070 -0.1820  0.4185
   37MOL0     N 4769   6.000   8.176   4.745 -0.1965  0.0550  0.4746
   37MOL0     C 4770   5.881   8.141   4.797 -0.5499 -1.4911 -0.2255
   37MOL0     C 4771   5.786   8.184   4.713  0.4823  0.6533 -0.1684
   37MOL0     C 4772   5.638   8.177   4.730  0.1251  0.6288 -0.3913
   37MOL0     C 4773   5.575   8.297   4.667  0.3922 -0.1357 -0.2278
   37MOL0     C 4774   5.419   8.300   4.691  0.3759  0.1475 -0.8567
   37MOL0     C 4775   5.347   8.164   4.671  0.5050 -0.5401  0.5021
   37MOL0     O 4776   5.204   8.173   4.652  0.4774 -0.4009  0.0062
   37MOL0     C 4777   5.154   8.216   4.528 -0.6048  0.2970 -0.0270
   37MOL0     C 4778   5.229   8.260   4.421  0.6583 -0.2434  0.6148
   37MOL0     C 4779   5.163   8.297   4.303 -0.2407 -0.4500 -0.2265
   37MOL0     C 4780   5.026   8.294   4.287  0.0310  0.1274 -0.7134
   37MOL0     C 4781   4.958   8.311   4.161 -0.5023  0.6619  0.5467
   37MOL0     O 4782   4.830   8.273   4.170 -0.1970 -0.0744  0.0219
   37MOL0     C 4783   4.759   8.269   4.053 -0.1921 -0.3789 -0.1888
   37MOL0     C 4784   4.740   8.385   3.972  0.6831 -0.6561  0.5936
   37MOL0     C 4785   4.662   8.383   3.854  0.2632  0.1615  0.4849
   37MOL0     C 4786   4.597   8.257   3.827 -0.1384 -0.1640 -0.1719
   37MOL0     O 4787   4.531   8.250   3.709  0.3089 -0.6099 -0.1136
   37MOL0     C 4788   4.393   8.258   3.729  0.0535 -0.1161  1.1662
   37MOL0     C 4789   4.334   8.300   3.592  0.7002 -1.0202 -0.7494
   37MOL0     C 4790   4.331   8.196   3.485  0.4750  0.7412  0.4304
   37MOL0     C 4791   4.277   8.062   3.535 -0.3663 -0.1873 -0.3624
   37MOL0     C 4792   4.255   7.960   3.432 -0.7501 -0.7508 -0.1432
   37MOL0     C 4793   4.124   7.978   3.353 -0.1957  0.7860 -0.6269
   37MOL0     C 4794   3.998   7.969   3.441 -0.9876 -0.1423 -0.2989
   37MOL0     C 4795   3.865   7.955   3.362 -0.0271  0.2170  0.4224
   37MOL0    Cl 4796   3.855   7.815   3.249 -0.2128 -0.1204 -0.1662
   37MOL0     C 4797   4.597   8.151   3.918 -0.2527 -0.2906 -0.6162
   37MOL0     C 4798   4.682   8.157   4.033 -0.8555 -0.3471  0.0322
   37MOL0     O 4799   5.023   8.339   4.063  0.4520 -0.0035 -0.1719
   37MOL0     C 4800   4.958   8.273   4.409  0.9456  0.3199  0.2923
   37MOL0     C 4801   5.021   8.229   4.522 -0.8921 -0.9789 -0.5141
   37MOL0     N 4802   5.857   8.254   4.609  0.2054  0.2332  0.4289
   37MOL0     N 4803   5.984   8.252   4.634 -0.5741  0.5143  1.0624
   37MOL0     C 4804   7.140   7.846   4.634  0.0518  0.5017 -0.2285
   37MOL0     C 4805   7.222   7.746   4.588 -0.2356 -0.0605  0.0928
   37MOL0     C 4806   7.437   7.433   4.339  0.5521 -0.2039 -0.2494
   37MOL0     C 4807   7.350   7.369   4.244  0.1894 -0.0531 -0.7174
   37MOL0     C 4808   7.389   7.249   4.184 -0.3994  0.4864 -0.8082
   37MOL0     C 4809   7.518   7.192   4.215  0.9441 -0.7366  0.0626
   37MOL0     O 4810   7.543   7.082   4.140  0.3474  0.3529 -0.4702
   37MOL0     C 4811   7.671   7.022   4.140 -0.3432 -0.2701 -0.3807
   37MOL0     C 4812   7.672   6.893   4.058  0.3763  0.4161 -0.3032
   37MOL0     C 4813   7.639   6.923   3.909 -0.1680  0.7350  0.9597
   37MOL0     C 4814   7.660   6.802   3.811  0.4663  0.2157  0.2917
   37MOL0     C 4815   7.556   6.696   3.823  0.4272  0.7323 -0.7861
   37MOL0     C 4816   7.459   6.623   3.835  0.1156 -0.1747  0.3721
   37MOL0     C 4817   7.605   7.261   4.302  0.4637  0.6291 -0.0407
   37MOL0     C 4818   7.561   7.378   4.364 -0.2841  0.0803  0.5595
   37MOL0     H 4819   7.078   7.683   4.297  1.4952 -2.3400  1.7047
   37MOL0     H 4820   6.894   7.833   4.394 -0.9995  0.7925  1.0857
   37MOL0     H 4821   6.894   8.065   4.456  1.9628 -0.9250  0.2333
   37MOL0     H 4822   6.982   8.163   4.577 -0.5746  1.3315 -2.9376
   37MOL0     H 4823   6.760   8.254   4.583  1.5887  0.3263  0.3685
   37MOL0     H 4824   6.755   8.124   4.713  2.8199 -1.5655  0.1821
   37MOL0     H 4825   6.638   7.979   4.547 -3.8916  0.1649 -0.9250
   37MOL0     H 4826   6.638   8.123   4.432  0.3033  1.6432  0.3395
   37MOL0     H 4827   6.536   8.241   4.661  0.4588  0.1030  0.4053
   37MOL0     H 4828   6.430   8.150   4.547 -1.0762 -3.0652  0.7336
   37MOL0     H 4829   6.571   8.021   4.781 -1.0417  3.2400  2.2041
   37MOL0     H 4830   6.457   7.951   4.670  1.2923  0.8286 -2.6143
   37MOL0     H 4831   6.412   8.190   4.867 -0.1680  0.4813 -0.5268
   37MOL0     H 4832   6.342   8.032   4.892  2.1056 -0.7774  0.6590
   37MOL0     H 4833   6.282   8.233   4.675 -1.8418 -0.4313 -1.7626
   37MOL0     H 4834   6.223   8.064   4.663 -0.3246 -0.5895  0.6942
   37MOL0     H 4835   6.154   8.260   4.875 -0.0121 -0.4619  0.8741
   37MOL0     H 4836   6.114   8.083   4.882  1.1719 -0.3837  0.4456
   37MOL0     H 4837   5.866   8.088   4.890  2.2864  2.2210  2.6758
   37MOL0     H 4838   5.617   8.171   4.837  2.7549  0.6270  0.1935
   37MOL0     H 4839   5.602   8.080   4.694 -1.8866  1.9880 -2.2860
   37MOL0     H 4840   5.585   8.301   4.559  0.3933 -0.3075 -0.2347
   37MOL0     H 4841   5.636   8.384   4.693  0.2951  0.3958 -1.6725
   37MOL0     H 4842   5.405   8.330   4.795  0.9066 -1.0500 -0.4144
   37MOL0     H 4843   5.373   8.381   4.633 -0.8365  0.3542  0.3460
   37MOL0     H 4844   5.362   8.117   4.768  3.2105 -1.0836 -0.0778
   37MOL0     H 4845   5.387   8.098   4.592 -1.4460 -0.4823 -0.5924
   37MOL0     H 4846   5.337   8.263   4.407  0.6282 -0.1611  0.4035
   37MOL0     H 4847   5.226   8.335   4.223  3.2084 -1.1622  1.9085
   37MOL0     H 4848   4.794   8.479   3.978  1.3618 -1.0368  0.5555
   37MOL0     H 4849   4.632   8.460   3.784 -3.2836 -2.4284 -1.1682
   37MOL0     H 4850   4.367   8.327   3.810  4.6504  0.0915  2.7322
   37MOL0     H 4851   4.345   8.166   3.761 -2.2004  1.8783  4.0151
   37MOL0     H 4852   4.379   8.393   3.557  3.4738 -2.9483 -2.7109
   37MOL0     H 4853   4.228   8.328   3.600  0.6511 -1.5160  0.7300
   37MOL0     H 4854   4.433   8.189   3.445  0.3787 -0.2061  0.3300
   37MOL0     H 4855   4.268   8.236   3.405 -0.0698 -0.4702  0.2292
   37MOL0     H 4856   4.363   8.021   3.589  0.1903  1.6678  0.2200
   37MOL0     H 4857   4.184   8.073   3.590 -1.7754 -2.4083 -2.0998
   37MOL0     H 4858   4.267   7.860   3.474 -0.6801 -0.7550 -0.1724
   37MOL0     H 4859   4.337   7.982   3.363  2.0111 -4.5956  1.5382
   37MOL0     H 4860   4.112   7.894   3.284  0.8783 -1.1529  1.4016
   37MOL0     H 4861   4.120   8.075   3.304  0.4795  1.1389 -0.0079
   37MOL0     H 4862   4.007   7.902   3.527 -1.3301 -1.7855 -1.4863
   37MOL0     H 4863   3.987   8.061   3.499  2.7716 -0.1384  0.6766
   37MOL0     H 4864   3.844   8.040   3.296  2.5677  0.4964 -0.1752
   37MOL0     H 4865   3.781   7.939   3.430  1.9850 -4.0842  2.2609
   37MOL0     H 4866   4.527   8.071   3.896  0.1672 -1.1722  1.0286
   37MOL0     H 4867   4.694   8.064   4.087  3.6729 -0.6748 -1.1107
   37MOL0     H 4868   4.850   8.276   4.418  0.8551 -0.7143 -0.2312
   37MOL0     H 4869   4.973   8.209   4.618 -0.5429  1.4833  0.2332
   37MOL0     H 4870   7.169   7.902   4.722  2.1023 -1.8094  0.6550
   37MOL0     H 4871   7.294   7.701   4.657 -0.2174 -3.7351 -2.0431
   37MOL0     H 4872   7.254   7.414   4.221 -0.5974  0.9270  3.5822
   37MOL0     H 4873   7.336   7.195   4.106 -0.4983 -2.9545  1.3911
   37MOL0     H 4874   7.689   6.997   4.245  0.0923  4.1074  0.7885
   37MOL0     H 4875   7.749   7.089   4.102 -0.6187  0.1865 -0.1430
   37MOL0     H 4876   7.774   6.856   4.067  0.5837  0.5963 -1.6577
   37MOL0     H 4877   7.592   6.826   4.091  0.3800  1.1836  1.3662
   37MOL0     H 4878   7.705   7.006   3.882 -2.3142  1.7438 -1.7058
   37MOL0     H 4879   7.533   6.949   3.908 -0.2041  0.7022 -1.2514
   37MOL0     H 4880   7.664   6.836   3.706  0.8210 -1.4421 -0.2580
   37MOL0     H 4881   7.751   6.753   3.847 -0.5116 -1.3089  0.7397
   37MOL0     H 4882   7.369   6.569   3.856 -0.4302  0.2090 -0.8672
   37MOL0     H 4883   7.708   7.228   4.305 -0.5547 -2.8920  0.4236
   37MOL0     H 4884   7.643   7.420   4.422  0.2409  0.9020 -0.7138
   38MOL0     O 4885   7.404   5.001   8.508 -0.9783  0.5953 -0.2926
   38MOL0     C 4886   7.375   5.117   8.491  1.1653  0.2383 -0.5616
   38MOL0     O 4887   7.446   5.205   8.418  0.0458 -0.3471  0.3396
   38MOL0     C 4888   7.572   5.169   8.372  0.9921 -0.2940 -0.0767
   38MOL0     C 4889   7.613   5.177   8.240  0.3072 -0.5850 -0.0497
   38MOL0     C 4890   7.740   5.155   8.195 -0.1736  0.1475  0.8550
   38MOL0     C 4891   7.839   5.121   8.285  0.3445  0.7046  0.3878
   38MOL0     O 4892   7.968   5.105   8.237  0.0221 -0.4157 -0.5601
   38MOL0     C 4893   8.070   5.092   8.340  0.1068  0.2860  0.0974
   38MOL0     C 4894   8.209   5.099   8.259  0.0782 -0.6131 -0.3304
   38MOL0     C 4895   8.333   5.114   8.345  0.0360  0.0756 -0.0419
   38MOL0     C 4896   8.319   5.249   8.414 -0.0084 -0.6327  0.3510
   38MOL0     C 4897   8.463   5.304   8.440  0.5490 -0.5402  0.3873
   38MOL0     C 4898   8.542   5.217   8.528 -0.3516 -0.7693 -0.5900
   38MOL0     C 4899   8.483   5.197   8.671  1.0427 -0.0109 -0.0703
   38MOL0     C 4900   8.431   5.322   8.736 -0.1602  0.0584  0.9734
   38MOL0     N 4901   8.408   5.313   8.874  1.6047  0.6266  0.0025
   38MOL0     C 4902   8.288   5.263   8.928  0.0820  0.3783  0.6092
   38MOL0     C 4903   8.303   5.263   9.061 -0.1143  0.5063 -1.1516
   38MOL0     C 4904   8.190   5.225   9.153  0.0374 -0.6007  0.0014
   38MOL0     C 4905   8.203   5.075   9.166 -0.5942  0.2022 -0.3868
   38MOL0     C 4906   8.102   4.997   9.243 -0.0592 -0.2668 -0.7465
   38MOL0     C 4907   7.958   5.033   9.199 -0.0011  0.1665  0.4021
   38MOL0     O 4908   7.876   4.920   9.252 -0.3982 -0.2601 -0.6606
   38MOL0     C 4909   7.746   4.957   9.271 -0.1046  0.5002  0.4965
   38MOL0     C 4910   7.673   4.896   9.368 -0.0882  0.1474 -0.6242
   38MOL0     C 4911   7.532   4.921   9.382  0.1532  0.9671 -0.6092
   38MOL0     C 4912   7.465   5.000   9.298  0.5853  0.1899 -0.4002
   38MOL0     C 4913   7.315   5.013   9.290  0.3320  0.6033 -0.0338
   38MOL0     O 4914   7.268   5.091   9.190 -0.9729 -0.0685  0.5771
   38MOL0     C 4915   7.139   5.123   9.177 -0.0174 -0.1282 -0.6548
   38MOL0     C 4916   7.040   5.131   9.284 -0.1603  0.0365  0.3318
   38MOL0     C 4917   6.915   5.185   9.252  0.3552 -0.2250  0.1259
   38MOL0     C 4918   6.872   5.202   9.118 -0.2567 -0.2490 -0.2888
   38MOL0     O 4919   6.752   5.266   9.084 -0.2063  0.5518  0.1921
   38MOL0     C 4920   6.633   5.204   9.135 -0.3871 -0.3855 -0.2286
   38MOL0     C 4921   6.586   5.099   9.036  0.0588  0.4855  0.1855
   38MOL0     C 4922   6.440   5.037   9.072 -0.1727 -0.1703  0.5210
   38MOL0     C 4923   6.428   4.968   9.204 -0.0992  0.2405 -0.1052
   38MOL0     C 4924   6.279   4.930   9.239 -0.8073 -0.1855  0.2927
   38MOL0     C 4925   6.217   4.844   9.128 -0.0388 -0.5440 -0.6372
   38MOL0     C 4926   6.068   4.805   9.156  0.6325  0.5675 -0.4725
   38MOL0     C 4927   6.025   4.704   9.042  0.5061 -0.0078  0.2908
   38MOL0    Cl 4928   5.850   4.685   9.055 -0.2415 -0.0525 -0.0699
   38MOL0     C 4929   6.959   5.183   9.010  0.2417 -0.0554  0.0867
   38MOL0     C 4930   7.094   5.144   9.044  0.1676  1.0568  0.2850
   38MOL0     O 4931   7.248   4.941   9.360 -1.2445  0.4831  0.8729
   38MOL0     C 4932   7.537   5.061   9.198 -0.4311  0.3484 -0.2039
   38MOL0     C 4933   7.679   5.042   9.188 -0.7499 -0.2802  1.2676
   38MOL0     N 4934   8.425   5.326   9.088 -0.3318  0.5450  0.0367
   38MOL0     N 4935   8.485   5.353   8.977 -0.4302  0.5794 -0.2934
   38MOL0     C 4936   7.805   5.121   8.428  1.1150  0.0856  0.6924
   38MOL0     C 4937   7.674   5.138   8.471  1.0823  0.0764 -0.1790
   38MOL0     C 4938   7.247   5.165   8.543  0.9501  0.7093 -0.1056
   38MOL0     C 4939   7.161   5.074   8.599 -0.3167  0.1487 -0.3184
   38MOL0     C 4940   7.027   5.117   8.641  0.9214 -0.1395 -0.1504
   38MOL0     C 4941   6.987   5.250   8.625 -0.1880 -0.3528 -0.0032
   38MOL0     O 4942   6.862   5.299   8.661 -0.4260 -0.1914  0.0847
   38MOL0     C 4943   6.749   5.209   8.656  0.0971 -0.5627 -0.0342
   38MOL0     C 4944   6.627   5.287   8.673 -0.2834 -0.3453 -0.3971
   38MOL0     C 4945   6.506   5.199   8.650 -0.0367 -0.1592  0.9502
   38MOL0     C 4946   6.397   5.307   8.676  0.1405  0.7343  0.5644
   38MOL0     C 4947   6.263   5.255   8.668 -0.2974 -0.1298  0.1465
   38MOL0     C 4948   6.151   5.208   8.653  0.2628 -0.1180 -0.3528
   38MOL0     C 4949   7.074   5.337   8.562  0.9496 -0.5434  0.8631
   38MOL0     C 4950   7.201   5.298   8.522  0.2871  0.0124  0.1547
   38MOL0     H 4951   7.545   5.213   8.163  0.9336 -0.2973 -0.4766
   38MOL0     H 4952   7.766   5.164   8.090  0.4968  1.2451  1.0896
   38MOL0     H 4953   8.063   4.998   8.396  0.8027  0.3537  0.3067
   38MOL0     H 4954   8.066   5.176   8.409 -1.1279 -0.9837  1.6573
   38MOL0     H 4955   8.210   5.183   8.190  3.2475 -1.0291 -0.9128
   38MOL0     H 4956   8.225   5.005   8.206  1.6227 -0.0469 -0.9019
   38MOL0     H 4957   8.420   5.096   8.281 -0.7440 -2.4109 -0.5256
   38MOL0     H 4958   8.345   5.037   8.423 -4.7957 -2.6478 -1.5456
   38MOL0     H 4959   8.270   5.317   8.344  1.7388 -1.0670 -1.3833
   38MOL0     H 4960   8.262   5.237   8.506 -1.2692  1.2078 -0.1577
   38MOL0     H 4961   8.450   5.403   8.484  2.1011 -1.3777  2.9757
   38MOL0     H 4962   8.525   5.312   8.351 -0.4089  2.0780 -0.1306
   38MOL0     H 4963   8.634   5.274   8.547 -2.0186  1.2410  2.2271
   38MOL0     H 4964   8.573   5.127   8.475  0.8438  0.2066 -1.6016
   38MOL0     H 4965   8.398   5.129   8.670  0.9262  0.1382 -1.0351
   38MOL0     H 4966   8.570   5.171   8.732  2.1712  0.8606 -1.2247
   38MOL0     H 4967   8.336   5.348   8.688 -0.3889 -3.6410 -0.9340
   38MOL0     H 4968   8.504   5.398   8.709 -0.3155  0.6562  2.2022
   38MOL0     H 4969   8.210   5.223   8.864  0.1250  2.2309 -0.6904
   38MOL0     H 4970   8.098   5.259   9.105  1.2291 -0.5091 -2.3445
   38MOL0     H 4971   8.205   5.278   9.248 -1.3475 -0.5782  0.2281
   38MOL0     H 4972   8.302   5.046   9.202 -0.8293  0.2578  0.3139
   38MOL0     H 4973   8.210   5.027   9.068  0.4805 -1.1489  0.3134
   38MOL0     H 4974   8.114   4.890   9.225 -0.4627 -0.4552  0.0804
   38MOL0     H 4975   8.117   5.018   9.349 -0.5401  3.0542 -1.2299
   38MOL0     H 4976   7.950   5.019   9.090 -0.4794 -0.8987  0.5632
   38MOL0     H 4977   7.928   5.132   9.232 -1.6041 -0.4292  0.8061
   38MOL0     H 4978   7.707   4.827   9.444  0.7465 -0.1567 -1.2576
   38MOL0     H 4979   7.480   4.866   9.460 -0.2987 -2.6342 -3.2193
   38MOL0     H 4980   7.082   5.109   9.382 -0.4958  1.3411  0.7856
   38MOL0     H 4981   6.850   5.226   9.329  0.9166  2.9226 -0.9558
   38MOL0     H 4982   6.556   5.282   9.140 -1.8566 -1.4914 -3.0069
   38MOL0     H 4983   6.644   5.165   9.236  1.4277  0.5395 -0.0471
   38MOL0     H 4984   6.656   5.015   9.040  0.4604  0.8284  3.9436
   38MOL0     H 4985   6.579   5.151   8.940  1.4414 -0.1384 -0.2715
   38MOL0     H 4986   6.432   4.963   8.991  3.0966 -0.9482  0.7888
   38MOL0     H 4987   6.363   5.114   9.065  0.5810  0.5756  0.2870
   38MOL0     H 4988   6.490   4.878   9.209  1.5264  1.3817  2.0990
   38MOL0     H 4989   6.468   5.026   9.288  2.3353 -0.6526 -0.5665
   38MOL0     H 4990   6.219   5.020   9.253  0.1132  0.0152  3.9435
   38MOL0     H 4991   6.277   4.868   9.329  0.7763 -2.3193 -1.0279
   38MOL0     H 4992   6.282   4.757   9.113  0.2104 -0.2868 -1.0424
   38MOL0     H 4993   6.223   4.907   9.039  1.2882 -2.1518 -1.7651
   38MOL0     H 4994   6.068   4.758   9.255  3.2648 -0.9266 -1.0792
   38MOL0     H 4995   5.994   4.886   9.153 -2.5231 -2.1265 -1.2561
   38MOL0     H 4996   6.080   4.609   9.048  3.0221  1.4120  1.2177
   38MOL0     H 4997   6.050   4.747   8.945 -2.2892 -0.9115 -0.9221
   38MOL0     H 4998   6.942   5.203   8.904 -1.5620 -1.4587  0.0676
   38MOL0     H 4999   7.171   5.143   8.967  2.0752  2.7020  2.0480
   38MOL0     H 5000   7.492   5.125   9.123 -0.7145  0.7025  0.2638
   38MOL0     H 5001   7.732   5.096   9.111 -1.2774 -2.4015 -0.6861
   38MOL0     H 5002   7.873   5.089   8.506  2.1868  0.7685  0.0657
   38MOL0     H 5003   7.651   5.145   8.576 -2.1207  1.8248 -0.8587
   38MOL0     H 5004   7.193   4.973   8.622  1.4743  0.5663 -0.8174
   38MOL0     H 5005   6.948   5.053   8.680  0.6501  0.6885  0.6811
   38MOL0     H 5006   6.758   5.140   8.740 -1.2208 -1.3102 -0.4730
   38MOL0     H 5007   6.743   5.168   8.555  0.4580 -0.0079 -0.2904
   38MOL0     H 5008   6.629   5.329   8.774  1.0346  0.7322 -0.8432
   38MOL0     H 5009   6.638   5.367   8.600  1.8918 -0.3405 -0.1451
   38MOL0     H 5010   6.507   5.108   8.710 -0.2963 -0.0850  1.0684
   38MOL0     H 5011   6.510   5.173   8.544 -1.1497 -1.5143  1.2225
   38MOL0     H 5012   6.395   5.347   8.778 -0.8962  1.7139  0.1823
   38MOL0     H 5013   6.400   5.388   8.603 -2.3707  0.2722 -0.1442
   38MOL0     H 5014   6.061   5.153   8.635  1.4694 -2.7658  1.0736
   38MOL0     H 5015   7.033   5.436   8.545  3.6222  0.6115  0.6808
   38MOL0     H 5016   7.269   5.374   8.486 -0.7090 -0.3695 -2.8379
   39MOL0     O 5017   9.886   4.953  10.636  0.2791 -0.0725  0.7958
   39MOL0     C 5018   9.892   5.005  10.527  0.3021  0.8181  0.8754
   39MOL0     O 5019   9.786   5.047  10.457 -0.2771 -0.3517  0.2199
   39MOL0     C 5020   9.655   5.039  10.493 -0.1107  0.2743 -0.3286
   39MOL0     C 5021   9.562   5.011  10.388  0.3627 -0.0340  0.5312
   39MOL0     C 5022   9.425   5.017  10.417  1.0243 -0.0039 -0.3720
   39MOL0     C 5023   9.379   5.044  10.548  0.6460 -0.1513 -0.1195
   39MOL0     O 5024   9.244   5.069  10.575 -0.2618  0.5067  0.7368
   39MOL0     C 5025   9.153   5.089  10.464  0.6145 -0.6282 -0.6331
   39MOL0     C 5026   9.012   5.137  10.514 -0.3301  0.4088  0.1323
   39MOL0     C 5027   8.944   5.023  10.602 -0.0026 -0.3162  0.8796
   39MOL0     C 5028   8.808   5.068  10.658  0.3152 -0.8053  0.0114
   39MOL0     C 5029   8.717   4.953  10.704 -0.1734  0.1586  0.2299
   39MOL0     C 5030   8.585   4.996  10.751 -0.0789 -0.0236  0.0642
   39MOL0     C 5031   8.570   5.054  10.899  0.1788 -0.9370  0.5824
   39MOL0     C 5032   8.426   5.063  10.957 -0.2495  0.9805  0.6845
   39MOL0     N 5033   8.390   4.938  11.020  0.3181  0.0989 -0.3299
   39MOL0     C 5034   8.423   4.903  11.149  0.3472  0.3857 -0.3759
   39MOL0     C 5035   8.347   4.798  11.187 -0.3822 -1.2594 -0.1883
   39MOL0     C 5036   8.347   4.740  11.328  0.4823  0.1453 -0.4829
   39MOL0     C 5037   8.198   4.713  11.379  0.4433  0.2834  0.5525
   39MOL0     C 5038   8.142   4.587  11.317 -0.5304  0.6281 -0.4298
   39MOL0     C 5039   7.994   4.563  11.352  0.0331 -0.6507 -0.7808
   39MOL0     O 5040   7.910   4.621  11.257  0.0887 -0.2951  0.1202
   39MOL0     C 5041   7.773   4.634  11.285  0.6528 -0.1396  0.6723
   39MOL0     C 5042   7.703   4.687  11.176 -0.2404  0.3742  0.0919
   39MOL0     C 5043   7.567   4.707  11.180  0.5444  0.1678 -0.0682
   39MOL0     C 5044   7.490   4.665  11.296 -0.8889  0.6103 -0.3629
   39MOL0     C 5045   7.344   4.675  11.281 -0.1810  0.0443  0.4739
   39MOL0     O 5046   7.280   4.784  11.219 -0.2549  0.2519  0.5381
   39MOL0     C 5047   7.140   4.790  11.218  0.6624  0.0202  0.1458
   39MOL0     C 5048   7.052   4.771  11.328 -0.1029 -0.7185  0.6521
   39MOL0     C 5049   6.917   4.801  11.313 -0.2544  0.5609 -0.0783
   39MOL0     C 5050   6.858   4.827  11.187  0.1207  0.1906  0.0312
   39MOL0     O 5051   6.731   4.854  11.170  0.6708  0.3869 -0.1051
   39MOL0     C 5052   6.671   4.913  11.292  0.6373 -0.7226 -0.0906
   39MOL0     C 5053   6.530   4.967  11.255  0.0214  0.5290 -0.3068
   39MOL0     C 5054   6.457   5.024  11.371  0.1873 -0.6161  0.8704
   39MOL0     C 5055   6.319   5.067  11.335 -0.0800 -1.1172 -0.2085
   39MOL0     C 5056   6.261   5.145  11.459  0.6282  0.2342 -0.8115
   39MOL0     C 5057   6.131   5.222  11.434 -0.2437 -0.5252  0.1260
   39MOL0     C 5058   6.104   5.313  11.559 -0.4381  0.8274  0.2976
   39MOL0     C 5059   6.050   5.456  11.533 -0.6843 -0.3288  1.1774
   39MOL0    Cl 5060   5.893   5.451  11.455 -0.6990 -0.2122  0.2032
   39MOL0     C 5061   6.940   4.843  11.084  0.0218 -0.7411  0.1337
   39MOL0     C 5062   7.075   4.837  11.104 -0.3938  0.2176 -0.0946
   39MOL0     O 5063   7.282   4.580  11.330  0.5619 -1.4718  0.3540
   39MOL0     C 5064   7.561   4.619  11.412 -0.2136  0.3537  0.4356
   39MOL0     C 5065   7.704   4.601  11.401  1.0196  0.0615 -0.2735
   39MOL0     N 5066   8.288   4.752  11.070 -0.0648  0.2743  0.0473
   39MOL0     N 5067   8.305   4.840  10.977 -0.2870  0.3242 -0.1623
   39MOL0     C 5068   9.469   5.074  10.644 -0.7062  0.5005 -0.4057
   39MOL0     C 5069   9.606   5.063  10.622  0.1402  0.5075 -0.6581
   39MOL0     C 5070  10.022   5.012  10.448  0.1578 -0.6668 -0.3109
   39MOL0     C 5071  10.142   4.981  10.518  0.9944 -0.0860  0.6944
   39MOL0     C 5072  10.271   4.986  10.447  0.6649 -0.0760 -0.1929
   39MOL0     C 5073  10.277   5.018  10.314 -0.4498  0.1898 -0.1863
   39MOL0     O 5074  10.401   5.010  10.263 -0.5132  0.1459 -0.3342
   39MOL0     C 5075  10.423   5.040  10.125  0.0834  0.0502 -0.9228
   39MOL0     C 5076  10.576   5.038  10.094  0.9561 -0.2514 -1.0218
   39MOL0     C 5077  10.595   5.074   9.940  0.3162 -0.3217  0.1462
   39MOL0     C 5078  10.736   5.043   9.897  0.7955 -0.3782  0.6572
   39MOL0     C 5079  10.766   5.085   9.758  0.7781  0.3125 -1.2074
   39MOL0     C 5080  10.791   5.125   9.649  0.4644 -0.0127  0.5013
   39MOL0     C 5081  10.161   5.066  10.247 -0.1361 -0.7413 -0.9095
   39MOL0     C 5082  10.032   5.057  10.315  0.1928 -0.0592 -0.5234
   39MOL0     H 5083   9.595   4.992  10.287  0.4716 -1.6414  0.8396
   39MOL0     H 5084   9.359   5.007  10.331  1.7963  2.2168 -1.3064
   39MOL0     H 5085   9.142   4.985  10.430 -0.3641 -1.7731  2.8195
   39MOL0     H 5086   9.196   5.157  10.389 -1.3745  0.1885 -1.0914
   39MOL0     H 5087   8.953   5.153  10.423 -0.0318 -0.7292 -0.2862
   39MOL0     H 5088   9.025   5.235  10.561  0.2908 -0.0381  0.9137
   39MOL0     H 5089   9.016   4.998  10.680  3.7489  0.8109 -1.9009
   39MOL0     H 5090   8.938   4.932  10.543  1.4403 -1.5734  2.5660
   39MOL0     H 5091   8.819   5.131  10.748  2.4591 -0.9216 -0.1128
   39MOL0     H 5092   8.758   5.124  10.579 -0.6466  0.2120  1.2780
   39MOL0     H 5093   8.774   4.906  10.785  2.0814 -0.7105 -1.7568
   39MOL0     H 5094   8.698   4.878  10.626 -1.1726  1.7927 -1.1592
   39MOL0     H 5095   8.520   4.908  10.752 -2.5258  1.5100 -2.9135
   39MOL0     H 5096   8.530   5.062  10.682 -0.2494 -0.3539 -0.1192
   39MOL0     H 5097   8.639   4.998  10.963  3.0990 -0.3777 -1.8251
   39MOL0     H 5098   8.603   5.158  10.892 -1.7646 -0.3462 -0.5886
   39MOL0     H 5099   8.347   5.081  10.883 -0.1337  0.0068  0.3128
   39MOL0     H 5100   8.411   5.138  11.036  2.6931 -0.4339  2.7675
   39MOL0     H 5101   8.490   4.958  11.215 -1.0855  5.3865 -2.5498
   39MOL0     H 5102   8.379   4.821  11.394  0.4605  1.5231 -2.0909
   39MOL0     H 5103   8.413   4.654  11.342  2.6658  1.7842 -0.2749
   39MOL0     H 5104   8.139   4.801  11.354  1.6159  0.8271 -0.4250
   39MOL0     H 5105   8.185   4.704  11.487 -2.4186  1.3596  0.3712
   39MOL0     H 5106   8.148   4.591  11.208  0.3080  2.9213 -0.3637
   39MOL0     H 5107   8.205   4.500  11.340 -0.6890  0.5754 -0.1921
   39MOL0     H 5108   7.966   4.601  11.451  1.2157 -2.0997  0.1558
   39MOL0     H 5109   7.980   4.456  11.371  0.8252 -1.1268 -2.6427
   39MOL0     H 5110   7.768   4.717  11.094 -1.4719 -0.5828 -1.2915
   39MOL0     H 5111   7.510   4.751  11.099 -0.6230  4.0576  2.5692
   39MOL0     H 5112   7.083   4.736  11.426 -0.3765 -0.3397  0.8794
   39MOL0     H 5113   6.857   4.786  11.402 -2.1768  1.0174 -1.2339
   39MOL0     H 5114   6.736   4.984  11.343  1.6243  0.3044 -2.6093
   39MOL0     H 5115   6.663   4.832  11.365  2.4578 -3.1222 -2.3208
   39MOL0     H 5116   6.482   4.878  11.214  0.6852 -0.8834  1.7872
   39MOL0     H 5117   6.533   5.045  11.178  0.3266 -1.3786 -2.3084
   39MOL0     H 5118   6.521   5.099  11.418 -0.3265 -0.5577  1.4978
   39MOL0     H 5119   6.434   4.945  11.443 -0.4116 -1.3877 -0.1483
   39MOL0     H 5120   6.333   5.141  11.256 -1.9191 -1.2349 -0.6918
   39MOL0     H 5121   6.254   4.983  11.307  0.8293 -1.4530 -1.3654
   39MOL0     H 5122   6.341   5.214  11.489  1.0278 -0.8823  0.8041
   39MOL0     H 5123   6.250   5.077  11.544  0.8487  1.4618  0.2429
   39MOL0     H 5124   6.047   5.153  11.425  1.4316 -2.4965 -1.4671
   39MOL0     H 5125   6.131   5.269  11.335 -2.2712 -2.1156 -0.7025
   39MOL0     H 5126   6.038   5.267  11.632  0.2130 -1.5187 -0.5145
   39MOL0     H 5127   6.194   5.343  11.613 -0.4890  2.3776 -0.4137
   39MOL0     H 5128   6.129   5.511  11.482 -1.1673  0.6310  1.4457
   39MOL0     H 5129   6.034   5.508  11.628 -1.9852 -1.1417  1.4308
   39MOL0     H 5130   6.904   4.879  10.988 -3.7750 -2.9474  0.5427
   39MOL0     H 5131   7.139   4.867  11.022 -1.5239  0.7228 -0.8100
   39MOL0     H 5132   7.499   4.601  11.500 -0.0571  0.4178  0.5592
   39MOL0     H 5133   7.758   4.555  11.483  0.8275 -4.2172 -2.2469
   39MOL0     H 5134   9.436   5.105  10.743  1.1142 -1.9990  1.1142
   39MOL0     H 5135   9.679   5.082  10.701 -0.2357  0.9305 -0.4058
   39MOL0     H 5136  10.128   4.958  10.624  0.2271 -0.4070  0.5316
   39MOL0     H 5137  10.349   4.939  10.505 -0.2862 -1.6140 -0.0955
   39MOL0     H 5138  10.389   5.141  10.102 -0.2699  0.1860  0.1645
   39MOL0     H 5139  10.381   4.961  10.062  0.8546 -0.9279 -0.2479
   39MOL0     H 5140  10.622   5.125  10.142  3.2873 -1.1005 -1.6342
   39MOL0     H 5141  10.619   4.944  10.129  0.4118  0.1177  0.7899
   39MOL0     H 5142  10.572   5.179   9.919 -3.4672 -1.4082 -2.1293
   39MOL0     H 5143  10.531   5.025   9.867 -0.5669  0.6223  0.2645
   39MOL0     H 5144  10.798   5.105   9.962 -0.8090  0.9712  0.9731
   39MOL0     H 5145  10.757   4.940   9.925  0.3869 -1.3385 -2.1933
   39MOL0     H 5146  10.811   5.150   9.547  1.0571 -2.3083 -0.0086
   39MOL0     H 5147  10.159   5.090  10.142  2.7903  1.5556 -0.5684
   39MOL0     H 5148   9.949   5.086  10.252  0.3768  1.4623 -0.1069
   40MOL0     O 5149   7.487   8.163   8.373  0.0331  0.4755 -0.3083
   40MOL0     C 5150   7.493   8.123   8.491  1.2035 -0.4933 -0.0765
   40MOL0     O 5151   7.383   8.118   8.572 -0.0097  0.0533  0.5932
   40MOL0     C 5152   7.262   8.167   8.534  0.4864 -0.5005 -0.9492
   40MOL0     C 5153   7.244   8.308   8.505  0.2566  0.5454  0.7180
   40MOL0     C 5154   7.115   8.361   8.482 -0.2891  0.5967  0.3108
   40MOL0     C 5155   7.005   8.278   8.475  0.4137 -0.0997  0.3465
   40MOL0     O 5156   6.881   8.324   8.437 -0.5384  0.4312  0.5306
   40MOL0     C 5157   6.763   8.267   8.487  0.1251  0.7780 -0.9262
   40MOL0     C 5158   6.653   8.366   8.515  0.2726 -0.1714 -0.9571
   40MOL0     C 5159   6.513   8.299   8.538 -0.1007  0.2738 -0.2312
   40MOL0     C 5160   6.390   8.397   8.556 -0.8183  0.5311  0.8661
   40MOL0     C 5161   6.252   8.326   8.538 -0.9852  0.4805 -0.7334
   40MOL0     C 5162   6.235   8.310   8.384  0.3054  0.5990 -0.7671
   40MOL0     C 5163   6.087   8.314   8.346 -0.2494  0.0783 -0.5394
   40MOL0     C 5164   5.993   8.233   8.429 -0.5850 -0.2023  0.7878
   40MOL0     N 5165   5.869   8.224   8.353  1.0806 -0.2830  0.4931
   40MOL0     C 5166   5.822   8.125   8.275  0.0974  0.2809  0.2669
   40MOL0     C 5167   5.703   8.161   8.233 -0.6616  0.2694  0.9911
   40MOL0     C 5168   5.620   8.072   8.140  0.5059 -0.0392  0.0387
   40MOL0     C 5169   5.468   8.109   8.118  0.7132 -0.8197 -0.2241
   40MOL0     C 5170   5.386   8.059   8.237  0.5858  0.9977 -0.0780
   40MOL0     C 5171   5.240   8.055   8.191 -0.6392  0.2499  0.4318
   40MOL0     O 5172   5.227   7.958   8.089  0.2431  0.2752 -0.5409
   40MOL0     C 5173   5.099   7.933   8.035  0.4145 -0.6719  0.0425
   40MOL0     C 5174   5.096   7.835   7.936  0.7079  0.5978  0.3677
   40MOL0     C 5175   4.987   7.798   7.873  0.6485  1.0179 -0.4578
   40MOL0     C 5176   4.864   7.850   7.915 -0.2869  0.2457  0.4739
   40MOL0     C 5177   4.731   7.818   7.850  0.0991 -0.0022 -0.5833
   40MOL0     O 5178   4.617   7.833   7.928 -1.0048  0.1004 -0.2810
   40MOL0     C 5179   4.503   7.823   7.858 -0.0868  0.1450 -0.5145
   40MOL0     C 5180   4.403   7.737   7.906 -0.0817 -0.3793 -0.5302
   40MOL0     C 5181   4.288   7.721   7.837  1.0547 -0.6972  0.1388
   40MOL0     C 5182   4.256   7.805   7.726 -0.7178  0.8308 -0.4399
   40MOL0     O 5183   4.133   7.812   7.670 -0.4657 -0.2076  0.0134
   40MOL0     C 5184   4.048   7.702   7.685  0.1716  0.2119  0.0332
   40MOL0     C 5185   3.935   7.725   7.583  0.1038 -0.3227 -0.1977
   40MOL0     C 5186   3.977   7.723   7.432 -1.0741 -1.1454 -0.5405
   40MOL0     C 5187   4.065   7.610   7.382  0.4030  0.4476  0.1257
   40MOL0     C 5188   4.065   7.599   7.231  0.0468  0.3699  0.9596
   40MOL0     C 5189   4.108   7.727   7.150 -0.5963  0.4507 -0.0364
   40MOL0     C 5190   4.208   7.685   7.040 -0.7079  0.6843  1.0303
   40MOL0     C 5191   4.345   7.656   7.104  0.3583  0.3217 -0.1825
   40MOL0    Cl 5192   4.482   7.649   6.984 -0.0910 -0.6382  0.1023
   40MOL0     C 5193   4.350   7.896   7.691  0.5919  0.6642  0.4229
   40MOL0     C 5194   4.469   7.913   7.762 -0.5215 -0.7089 -0.3144
   40MOL0     O 5195   4.734   7.791   7.728 -0.6046  0.3107  0.4258
   40MOL0     C 5196   4.864   7.953   8.010  0.1095  0.2267 -0.7628
   40MOL0     C 5197   4.983   7.990   8.071 -0.5379  0.3901  0.2874
   40MOL0     N 5198   5.670   8.282   8.284 -1.0449  0.1533  0.2352
   40MOL0     N 5199   5.772   8.321   8.349 -0.6403  0.3709 -0.5169
   40MOL0     C 5200   7.013   8.145   8.513  0.2780 -0.6137 -0.9350
   40MOL0     C 5201   7.133   8.087   8.544 -0.2166  0.1226  0.8506
   40MOL0     C 5202   7.621   8.069   8.552  0.0965 -0.2986 -0.4567
   40MOL0     C 5203   7.637   8.034   8.688  0.4053 -0.9608  0.6785
   40MOL0     C 5204   7.752   7.964   8.725  0.9327 -0.1924 -0.0826
   40MOL0     C 5205   7.859   7.954   8.638 -0.5579  0.7023 -0.0479
   40MOL0     O 5206   7.981   7.903   8.698  0.1100 -0.1411  0.3007
   40MOL0     C 5207   8.019   7.770   8.655  0.5589  0.0809 -0.4835
   40MOL0     C 5208   8.061   7.693   8.773  0.4919 -0.0404  0.1243
   40MOL0     C 5209   8.187   7.754   8.835  1.7005  0.2556  0.0965
   40MOL0     C 5210   8.325   7.689   8.787 -0.7062  0.1319  0.1476
   40MOL0     C 5211   8.367   7.748   8.654  0.2298  0.1193 -0.4008
   40MOL0     C 5212   8.394   7.799   8.541  0.0260 -0.6609 -0.5223
   40MOL0     C 5213   7.840   7.996   8.509 -0.2082  0.3516 -0.1894
   40MOL0     C 5214   7.718   8.041   8.462 -0.6484  0.0509 -0.2493
   40MOL0     H 5215   7.329   8.374   8.499  0.5549  0.0277 -1.7851
   40MOL0     H 5216   7.106   8.462   8.446  3.6150  1.1795  0.4543
   40MOL0     H 5217   6.783   8.200   8.572  2.7418  1.1029 -1.2135
   40MOL0     H 5218   6.719   8.200   8.412 -0.8380  0.1863  0.1101
   40MOL0     H 5219   6.640   8.437   8.433  1.5427  0.8396 -0.3329
   40MOL0     H 5220   6.687   8.428   8.599 -2.3294  0.4899 -0.3155
   40MOL0     H 5221   6.514   8.240   8.630  0.1546 -1.3523 -1.2461
   40MOL0     H 5222   6.495   8.226   8.458 -1.8059 -1.6659  1.7905
   40MOL0     H 5223   6.390   8.453   8.650 -4.9308  2.1263  0.1472
   40MOL0     H 5224   6.398   8.486   8.493  0.6796  0.8281  1.4376
   40MOL0     H 5225   6.182   8.395   8.585 -0.3135  0.7729 -0.1666
   40MOL0     H 5226   6.250   8.233   8.597 -0.1455  1.3458  0.7054
   40MOL0     H 5227   6.283   8.215   8.361 -1.4340 -2.4499  5.9222
   40MOL0     H 5228   6.284   8.395   8.335  1.7654  1.0665  1.3929
   40MOL0     H 5229   6.047   8.416   8.346 -2.1206 -0.5998  0.1013
   40MOL0     H 5230   6.076   8.283   8.242 -0.6523 -1.6636 -0.0097
   40MOL0     H 5231   5.972   8.300   8.514 -0.7846  1.3386 -0.4320
   40MOL0     H 5232   6.029   8.137   8.465 -1.9204 -1.1177 -0.2391
   40MOL0     H 5233   5.872   8.032   8.253  1.0992  0.8928 -0.1045
   40MOL0     H 5234   5.615   7.971   8.181  0.0250 -0.0174  0.0440
   40MOL0     H 5235   5.670   8.075   8.043  2.9042 -1.6327  1.1328
   40MOL0     H 5236   5.428   8.087   8.019  0.3737 -0.6763 -0.1244
   40MOL0     H 5237   5.459   8.218   8.116  0.5759 -0.7152  2.2898
   40MOL0     H 5238   5.416   7.958   8.264  1.6762  1.5995  1.0973
   40MOL0     H 5239   5.396   8.124   8.324 -0.6301 -0.2673  1.0483
   40MOL0     H 5240   5.202   8.147   8.146 -0.5634 -1.7993 -4.3732
   40MOL0     H 5241   5.172   8.029   8.273  0.0179 -1.4418  0.4736
   40MOL0     H 5242   5.193   7.791   7.916 -0.6053 -2.9112  1.1062
   40MOL0     H 5243   4.984   7.717   7.801  2.0700 -1.6976  2.2845
   40MOL0     H 5244   4.413   7.674   7.994  0.4550  0.8528  0.3153
   40MOL0     H 5245   4.204   7.665   7.877  1.3581  0.6661  2.9275
   40MOL0     H 5246   4.004   7.703   7.785  0.2772 -0.8410  0.0997
   40MOL0     H 5247   4.098   7.605   7.690  0.0077  0.1201 -0.1090
   40MOL0     H 5248   3.892   7.821   7.613  2.6752  1.0128 -0.4902
   40MOL0     H 5249   3.861   7.648   7.607 -1.2158  0.8970 -0.2192
   40MOL0     H 5250   4.041   7.810   7.417  0.5295 -2.5471 -2.2805
   40MOL0     H 5251   3.898   7.730   7.357  0.4623 -2.1450 -2.3326
   40MOL0     H 5252   4.162   7.612   7.433 -0.2942 -2.4443  1.7765
   40MOL0     H 5253   4.018   7.517   7.415  1.6057 -0.4901 -0.7148
   40MOL0     H 5254   3.960   7.580   7.206 -0.6498  3.2065  1.4287
   40MOL0     H 5255   4.112   7.508   7.193  0.8168  1.1523 -0.0097
   40MOL0     H 5256   4.157   7.794   7.221 -0.3877  1.0522 -0.7324
   40MOL0     H 5257   4.023   7.772   7.098 -0.2894 -0.6800 -1.5985
   40MOL0     H 5258   4.176   7.594   6.988  0.0938  0.6849  0.5241
   40MOL0     H 5259   4.204   7.760   6.961  0.8301 -0.8835 -0.6137
   40MOL0     H 5260   4.339   7.558   7.153  2.0208  0.1040 -0.3575
   40MOL0     H 5261   4.358   7.737   7.176 -0.4045  2.0840 -1.9460
   40MOL0     H 5262   4.339   7.963   7.606  2.2099  0.5605  0.1014
   40MOL0     H 5263   4.529   7.999   7.737 -4.1401  2.7994  1.7993
   40MOL0     H 5264   4.773   8.003   8.040  0.3415  0.3745 -0.2964
   40MOL0     H 5265   4.998   8.060   8.151  3.4267  0.2098 -0.1320
   40MOL0     H 5266   6.926   8.080   8.517  0.7663 -1.3010 -1.0975
   40MOL0     H 5267   7.132   7.983   8.572  1.6289 -0.1149  0.1847
   40MOL0     H 5268   7.559   8.044   8.762 -0.6385  0.6304 -0.5674
   40MOL0     H 5269   7.758   7.925   8.827  0.6672 -0.3405 -0.1239
   40MOL0     H 5270   8.100   7.778   8.582 -1.3939 -0.3325 -2.8214
   40MOL0     H 5271   7.937   7.716   8.606 -1.6610  2.5597  0.2487
   40MOL0     H 5272   7.972   7.686   8.835  0.7727 -0.5458  0.4770
   40MOL0     H 5273   8.073   7.588   8.745 -0.5862 -0.6118  1.6891
   40MOL0     H 5274   8.182   7.744   8.943  0.7774 -0.3634  0.0116
   40MOL0     H 5275   8.193   7.860   8.810  0.8983 -0.1796 -2.3157
   40MOL0     H 5276   8.404   7.726   8.852 -0.8539  2.4997 -0.8889
   40MOL0     H 5277   8.321   7.580   8.797  0.5192  0.0399 -0.2399
   40MOL0     H 5278   8.405   7.850   8.448 -0.5874 -1.2608 -0.9341
   40MOL0     H 5279   7.923   7.991   8.440 -1.1589  2.5256 -1.5958
   40MOL0     H 5280   7.709   8.073   8.359 -3.4976  2.3771  0.6105
   41MOL0     O 5281   8.116   5.397   7.196  0.2868  0.1021  0.0731
   41MOL0     C 5282   8.003   5.438   7.174 -0.9751  0.8967 -0.2632
   41MOL0     O 5283   7.976   5.556   7.120  0.0090 -0.1256 -0.0081
   41MOL0     C 5284   8.071   5.643   7.080  0.3646  1.4235 -1.0652
   41MOL0     C 5285   8.054   5.721   6.965  0.4210 -0.9106 -0.1715
   41MOL0     C 5286   8.146   5.808   6.908  0.4513  0.2714  0.0152
   41MOL0     C 5287   8.261   5.828   6.977 -0.0157 -0.3716 -0.4551
   41MOL0     O 5288   8.351   5.918   6.923 -0.3130 -0.1597 -0.4204
   41MOL0     C 5289   8.485   5.943   6.982  0.3035  0.2116  0.6003
   41MOL0     C 5290   8.483   6.023   7.115  0.2707 -0.8122  0.3841
   41MOL0     C 5291   8.620   6.081   7.142 -0.5395  0.1052 -0.9030
   41MOL0     C 5292   8.642   6.198   7.051 -0.4693 -0.5835 -0.6592
   41MOL0     C 5293   8.782   6.211   7.010  0.7417 -0.5738 -0.0836
   41MOL0     C 5294   8.878   6.244   7.128  0.3094  0.2310 -0.5650
   41MOL0     C 5295   9.027   6.234   7.088  0.2802  1.4222  0.3057
   41MOL0     C 5296   9.066   6.338   6.993 -0.6020  0.0018  0.1516
   41MOL0     N 5297   9.219   6.350   6.977 -0.0425 -1.0431 -1.4188
   41MOL0     C 5298   9.283   6.467   7.012 -0.3085 -0.2253 -0.3265
   41MOL0     C 5299   9.406   6.450   6.956  0.3690  0.7220  0.5663
   41MOL0     C 5300   9.505   6.557   6.952 -0.0220 -0.3093  0.0622
   41MOL0     C 5301   9.498   6.651   6.835 -0.7401 -0.5232  0.6766
   41MOL0     C 5302   9.414   6.776   6.875 -0.2224  0.5598 -0.7521
   41MOL0     C 5303   9.386   6.865   6.755 -0.3038 -0.4484 -0.6867
   41MOL0     O 5304   9.263   6.951   6.775  0.0151 -0.2844  0.4233
   41MOL0     C 5305   9.146   6.888   6.790 -0.0152  0.3357 -0.1371
   41MOL0     C 5306   9.106   6.766   6.730 -0.4584  0.0722  0.0538
   41MOL0     C 5307   8.976   6.720   6.762 -0.9330  0.1413  0.2007
   41MOL0     C 5308   8.881   6.788   6.833  0.0598 -0.3374  0.7128
   41MOL0     C 5309   8.739   6.742   6.845  0.2064  0.0720  0.7121
   41MOL0     O 5310   8.642   6.819   6.890 -0.7959  0.1938 -0.1546
   41MOL0     C 5311   8.517   6.770   6.894  0.2078  0.1371 -0.6796
   41MOL0     C 5312   8.451   6.696   6.793  0.5910  0.2811  0.0443
   41MOL0     C 5313   8.332   6.634   6.822  0.0327 -0.4176 -0.8038
   41MOL0     C 5314   8.268   6.666   6.948 -0.1459 -0.0365 -0.6123
   41MOL0     O 5315   8.145   6.625   6.992 -0.1424  0.2255 -0.0522
   41MOL0     C 5316   8.068   6.542   6.907 -0.3835 -0.0518  0.2317
   41MOL0     C 5317   7.943   6.499   6.979  0.2630 -0.7276  0.1034
   41MOL0     C 5318   7.870   6.395   6.898  0.4914  0.2619  0.9406
   41MOL0     C 5319   7.921   6.254   6.893 -0.0953 -0.8195 -0.0373
   41MOL0     C 5320   7.946   6.189   7.026  0.0206 -0.0346 -0.4829
   41MOL0     C 5321   7.859   6.067   7.030 -0.0724  0.0915  0.5848
   41MOL0     C 5322   7.894   5.978   7.149  0.7280 -0.5050  0.5363
   41MOL0     C 5323   7.807   5.845   7.146 -0.2459 -0.6734 -0.2789
   41MOL0    Cl 5324   7.637   5.862   7.183  0.0509  0.5179  0.4471
   41MOL0     C 5325   8.333   6.746   7.035 -0.5951  0.6772 -0.3661
   41MOL0     C 5326   8.453   6.810   7.009  0.2189  0.9550 -0.2610
   41MOL0     O 5327   8.720   6.627   6.808 -0.6035 -0.0109  0.1709
   41MOL0     C 5328   8.920   6.903   6.894  0.0916  0.5929 -0.2180
   41MOL0     C 5329   9.053   6.954   6.875  0.1585  0.5386 -0.2373
   41MOL0     N 5330   9.403   6.329   6.892 -0.3066  0.2167 -0.2488
   41MOL0     N 5331   9.293   6.276   6.898 -0.2187 -0.0390  0.9360
   41MOL0     C 5332   8.287   5.758   7.095 -0.1289  0.0545 -0.2318
   41MOL0     C 5333   8.200   5.658   7.142 -0.7618 -0.4837 -0.1488
   41MOL0     C 5334   7.887   5.366   7.213  0.5937 -0.2338 -0.2681
   41MOL0     C 5335   7.897   5.231   7.253 -0.5152 -0.9323 -0.7307
   41MOL0     C 5336   7.785   5.156   7.287  0.5007  0.3703 -0.9125
   41MOL0     C 5337   7.657   5.213   7.292  0.2991  0.0288 -0.6903
   41MOL0     O 5338   7.542   5.158   7.339 -0.0702 -0.8465  0.0884
   41MOL0     C 5339   7.540   5.023   7.391 -1.1281  0.7546  0.5774
   41MOL0     C 5340   7.541   4.931   7.274 -0.1888 -0.7326  0.0659
   41MOL0     C 5341   7.410   4.936   7.201 -0.5030  0.0817 -0.6192
   41MOL0     C 5342   7.425   4.872   7.064  0.3686 -0.7172 -0.8355
   41MOL0     C 5343   7.309   4.902   6.986  0.1759  0.1552  0.3974
   41MOL0     C 5344   7.200   4.915   6.925 -0.4144  0.5289  0.3004
   41MOL0     C 5345   7.646   5.344   7.246  0.4314  0.4687  1.5155
   41MOL0     C 5346   7.757   5.418   7.206 -0.4944  0.1944 -0.2374
   41MOL0     H 5347   7.958   5.709   6.915  1.2288 -0.4797 -1.8992
   41MOL0     H 5348   8.126   5.869   6.821  1.0698 -1.1013 -1.1283
   41MOL0     H 5349   8.541   6.004   6.911  3.0220  1.8678  3.8611
   41MOL0     H 5350   8.533   5.845   6.993 -1.3257 -0.8469 -1.0778
   41MOL0     H 5351   8.458   5.969   7.207 -0.0829  0.4997  1.0826
   41MOL0     H 5352   8.411   6.105   7.117  0.9910 -0.1776  1.7115
   41MOL0     H 5353   8.698   6.005   7.143  1.1507  1.7260  0.8056
   41MOL0     H 5354   8.622   6.106   7.249  3.3547 -4.7359  0.5398
   41MOL0     H 5355   8.584   6.181   6.960 -0.3447 -1.4757 -0.5782
   41MOL0     H 5356   8.618   6.295   7.095  0.6850 -0.2860 -0.6493
   41MOL0     H 5357   8.798   6.282   6.928 -0.2649 -2.6330 -2.2111
   41MOL0     H 5358   8.804   6.113   6.966  6.4606 -0.5464  1.8590
   41MOL0     H 5359   8.846   6.179   7.210 -1.5345 -0.8280 -2.0401
   41MOL0     H 5360   8.854   6.344   7.164 -2.6962 -0.6640  0.2441
   41MOL0     H 5361   9.085   6.237   7.181  1.2193  1.0100 -0.2546
   41MOL0     H 5362   9.035   6.134   7.045  1.5404  0.5257  2.4557
   41MOL0     H 5363   9.027   6.437   7.020  3.4483  1.1084  2.9849
   41MOL0     H 5364   9.026   6.315   6.894 -2.9923 -0.8438  1.2418
   41MOL0     H 5365   9.239   6.538   7.081  1.4969  1.1010 -0.4734
   41MOL0     H 5366   9.600   6.504   6.955  0.0659 -0.1672 -0.1948
   41MOL0     H 5367   9.493   6.614   7.045  2.1511 -3.0968  2.2519
   41MOL0     H 5368   9.445   6.600   6.754  0.0514 -0.0425 -0.1632
   41MOL0     H 5369   9.595   6.682   6.794 -0.6807  0.9902  1.8796
   41MOL0     H 5370   9.317   6.740   6.913 -0.0447  0.7821 -0.0829
   41MOL0     H 5371   9.475   6.822   6.954  0.8081 -0.8194 -0.7025
   41MOL0     H 5372   9.385   6.810   6.661  1.0649  0.6557 -1.3888
   41MOL0     H 5373   9.470   6.934   6.744 -1.7504  1.1873 -2.2703
   41MOL0     H 5374   9.176   6.710   6.669 -0.1550  1.3029 -0.7620
   41MOL0     H 5375   8.939   6.632   6.712  0.6623 -0.4628  0.0371
   41MOL0     H 5376   8.501   6.674   6.699  0.2968  1.9721 -0.5369
   41MOL0     H 5377   8.295   6.579   6.736 -0.0091  1.9616 -2.3988
   41MOL0     H 5378   8.129   6.454   6.887 -0.2239  0.6323 -2.9105
   41MOL0     H 5379   8.046   6.595   6.813  0.4423 -1.7420 -0.9604
   41MOL0     H 5380   7.880   6.587   6.991 -1.0639 -1.5565 -0.6210
   41MOL0     H 5381   7.969   6.459   7.078 -1.5469 -0.6609  0.6331
   41MOL0     H 5382   7.850   6.432   6.797  1.5068 -1.7681 -0.0638
   41MOL0     H 5383   7.772   6.372   6.942 -0.6768 -0.6866 -1.8865
   41MOL0     H 5384   7.854   6.203   6.824 -0.2254 -0.7572  0.0412
   41MOL0     H 5385   8.020   6.265   6.849 -0.4642  0.8165 -0.5512
   41MOL0     H 5386   7.923   6.248   7.115  0.1047 -1.3893  0.4723
   41MOL0     H 5387   8.047   6.147   7.029  0.4416  1.0103  0.9112
   41MOL0     H 5388   7.880   6.017   6.935 -0.2451  0.8161  0.1635
   41MOL0     H 5389   7.755   6.100   7.041  0.4341  1.4893  1.3529
   41MOL0     H 5390   7.999   5.947   7.148  0.7697 -0.3472 -0.0162
   41MOL0     H 5391   7.886   6.034   7.243  0.2343  0.3644 -0.0147
   41MOL0     H 5392   7.842   5.780   7.226 -2.7166  0.2127  1.6597
   41MOL0     H 5393   7.811   5.794   7.050 -1.0585  1.0136 -1.2615
   41MOL0     H 5394   8.277   6.754   7.128 -1.4747  0.2416 -0.8471
   41MOL0     H 5395   8.501   6.881   7.076  0.6966 -1.0487  1.6419
   41MOL0     H 5396   8.858   6.953   6.967  0.1997 -1.3509  1.2726
   41MOL0     H 5397   9.090   7.040   6.931  1.2314  0.0796 -0.2176
   41MOL0     H 5398   8.378   5.774   7.152  0.6206 -0.1422 -1.3441
   41MOL0     H 5399   8.219   5.609   7.237 -1.7746 -0.1100  0.2586
   41MOL0     H 5400   7.998   5.192   7.261  0.5243  1.5715 -0.8885
   41MOL0     H 5401   7.788   5.050   7.310  2.8812  0.0218 -2.4185
   41MOL0     H 5402   7.452   4.998   7.452 -0.9818  0.7372  0.7853
   41MOL0     H 5403   7.631   5.009   7.450 -0.2352  0.0882 -0.9108
   41MOL0     H 5404   7.624   4.949   7.205 -0.7557 -0.4122 -0.5432
   41MOL0     H 5405   7.557   4.836   7.325  3.2415 -0.1969  0.2412
   41MOL0     H 5406   7.382   5.042   7.194 -0.7464  0.1113  0.6608
   41MOL0     H 5407   7.331   4.883   7.254  0.0232  2.1864  2.5320
   41MOL0     H 5408   7.509   4.916   7.009  0.2446 -1.6343 -1.7783
   41MOL0     H 5409   7.441   4.765   7.076  0.0324 -0.8446 -1.5139
   41MOL0     H 5410   7.106   4.922   6.874 -0.3597 -0.5113  0.0397
   41MOL0     H 5411   7.549   5.380   7.212  0.0304 -2.0482 -0.2875
   41MOL0     H 5412   7.730   5.514   7.164 -0.7228  0.8657  1.4120
   42MOL0     O 5413   5.407   4.149   8.059 -0.2725  0.4438 -0.4460
   42MOL0     C 5414   5.517   4.111   8.033 -0.3567 -0.1556  1.5691
   42MOL0     O 5415   5.560   3.980   8.020 -0.5899 -0.0880  0.4904
   42MOL0     C 5416   5.472   3.878   8.002 -0.3518  0.1740  0.6339
   42MOL0     C 5417   5.352   3.883   7.931  0.3222 -0.4285 -0.5386
   42MOL0     C 5418   5.259   3.775   7.933 -0.0964 -0.0270  0.1124
   42MOL0     C 5419   5.289   3.664   8.005  0.3214 -0.6998 -1.1919
   42MOL0     O 5420   5.190   3.567   8.009 -0.7889  0.6423  0.2618
   42MOL0     C 5421   5.189   3.460   8.102 -0.3793 -0.0749  1.1045
   42MOL0     C 5422   5.242   3.323   8.035  0.9623 -0.9053  0.4387
   42MOL0     C 5423   5.360   3.246   8.097 -0.7168 -0.4499 -0.4980
   42MOL0     C 5424   5.348   3.221   8.242  0.8007 -0.2402  0.3405
   42MOL0     C 5425   5.468   3.125   8.289  0.1338 -0.1715 -0.0707
   42MOL0     C 5426   5.447   3.066   8.427  0.6610  0.1861 -0.5074
   42MOL0     C 5427   5.583   3.007   8.477  0.2488 -0.0143 -0.7667
   42MOL0     C 5428   5.573   2.954   8.627 -0.0028  1.1162  0.0576
   42MOL0     N 5429   5.545   2.806   8.633 -0.0474  0.5739 -0.6321
   42MOL0     C 5430   5.417   2.754   8.639 -0.3988 -0.0098 -0.2832
   42MOL0     C 5431   5.430   2.619   8.660 -0.1400  0.2433  0.9258
   42MOL0     C 5432   5.330   2.508   8.681  0.9518 -0.4918  0.2796
   42MOL0     C 5433   5.361   2.396   8.580 -0.7015  0.6913  0.5003
   42MOL0     C 5434   5.365   2.432   8.432 -0.3476 -0.6266  0.1542
   42MOL0     C 5435   5.246   2.516   8.383  0.0991 -0.1358 -0.4254
   42MOL0     O 5436   5.130   2.447   8.430  0.2538  0.2749  0.8589
   42MOL0     C 5437   5.004   2.472   8.390 -0.4935 -0.3488  0.1702
   42MOL0     C 5438   4.969   2.512   8.259 -0.3231 -0.2391 -0.5548
   42MOL0     C 5439   4.843   2.556   8.222  0.1969  0.1063 -0.0842
   42MOL0     C 5440   4.741   2.549   8.315  0.0447 -0.5365 -0.8328
   42MOL0     C 5441   4.600   2.595   8.277  0.3395 -0.1962  0.1710
   42MOL0     O 5442   4.577   2.670   8.169 -0.0279 -0.1861 -0.6424
   42MOL0     C 5443   4.453   2.719   8.156 -0.4782  0.2879  0.2266
   42MOL0     C 5444   4.393   2.716   8.033 -0.6097  0.0988 -0.5184
   42MOL0     C 5445   4.275   2.786   8.017  0.4025  0.5612 -0.4875
   42MOL0     C 5446   4.220   2.872   8.116  0.1482 -0.7695 -0.7464
   42MOL0     O 5447   4.107   2.939   8.089 -0.3577 -0.2194 -0.6717
   42MOL0     C 5448   4.130   3.074   8.116 -0.0612 -0.8493 -0.0561
   42MOL0     C 5449   4.036   3.161   8.022 -0.5001  0.3157 -0.0179
   42MOL0     C 5450   3.894   3.104   8.014 -0.7123  1.2389 -0.2081
   42MOL0     C 5451   3.794   3.205   7.957 -0.5787  0.1706  0.2117
   42MOL0     C 5452   3.649   3.181   8.001  0.4655  1.3762  0.6369
   42MOL0     C 5453   3.598   3.044   7.954 -0.3374 -0.8687  0.5150
   42MOL0     C 5454   3.442   3.016   7.964 -0.2750 -1.3443  0.1038
   42MOL0     C 5455   3.382   2.913   7.872  0.0503  0.7691 -0.0640
   42MOL0    Cl 5456   3.467   2.750   7.887  0.4059  0.3600 -0.0332
   42MOL0     C 5457   4.289   2.870   8.242  0.9575 -0.1585  0.0009
   42MOL0     C 5458   4.398   2.793   8.255  0.3822 -0.3973 -0.0808
   42MOL0     O 5459   4.509   2.547   8.349 -1.0759 -0.2377 -0.3611
   42MOL0     C 5460   4.771   2.505   8.442  0.3929 -0.3826  0.7944
   42MOL0     C 5461   4.903   2.470   8.479  0.4654  0.2542 -0.5215
   42MOL0     N 5462   5.566   2.594   8.648 -0.4157  0.1608  0.4940
   42MOL0     N 5463   5.630   2.700   8.632 -0.1045  0.2254 -0.1538
   42MOL0     C 5464   5.419   3.644   8.064  0.2002 -0.3111  0.0041
   42MOL0     C 5465   5.511   3.760   8.063  0.0497 -0.4358 -0.6755
   42MOL0     C 5466   5.622   4.213   8.013  0.9852 -0.0915  0.1196
   42MOL0     C 5467   5.589   4.347   8.007 -0.8498 -0.3154 -0.1072
   42MOL0     C 5468   5.704   4.441   8.014  0.0182 -0.4418 -0.7439
   42MOL0     C 5469   5.838   4.399   8.016  0.1016 -0.8015  0.2111
   42MOL0     O 5470   5.946   4.489   8.010  0.4191  0.3923 -0.3644
   42MOL0     C 5471   5.924   4.626   7.999 -0.2631 -0.6734 -0.1964
   42MOL0     C 5472   6.055   4.708   8.000 -0.1221 -0.0090  0.3216
   42MOL0     C 5473   6.162   4.659   8.106 -0.4476 -0.0689 -0.5584
   42MOL0     C 5474   6.283   4.763   8.110  0.2963 -0.5076 -0.1499
   42MOL0     C 5475   6.365   4.771   7.984 -0.2653  0.0252  0.7666
   42MOL0     C 5476   6.421   4.787   7.876 -0.4730  1.1102  0.7339
   42MOL0     C 5477   5.857   4.266   7.995 -0.4267  0.2291  0.0238
   42MOL0     C 5478   5.754   4.172   8.004 -0.3879  0.2536  0.4651
   42MOL0     H 5479   5.320   3.980   7.893  1.4507  1.4421  2.8892
   42MOL0     H 5480   5.160   3.781   7.891  0.5184 -2.3411 -1.9188
   42MOL0     H 5481   5.090   3.426   8.135  0.9401 -2.7529  2.6705
   42MOL0     H 5482   5.256   3.481   8.186  1.0548  1.3961 -0.3359
   42MOL0     H 5483   5.271   3.343   7.931  0.4494 -1.2713  0.2169
   42MOL0     H 5484   5.156   3.255   8.030  0.7266 -0.5454 -0.8939
   42MOL0     H 5485   5.457   3.291   8.073 -1.9313  0.7079 -3.6733
   42MOL0     H 5486   5.360   3.152   8.042 -1.7872 -0.4308 -0.5414
   42MOL0     H 5487   5.350   3.306   8.310 -1.2603 -0.1558  0.3403
   42MOL0     H 5488   5.249   3.176   8.244  0.9383 -0.8809  5.3398
   42MOL0     H 5489   5.562   3.180   8.284 -0.0398  0.4472  2.3872
   42MOL0     H 5490   5.466   3.044   8.215 -1.2722  0.6749 -1.0122
   42MOL0     H 5491   5.363   2.995   8.420 -0.3856  1.4367 -0.9324
   42MOL0     H 5492   5.418   3.143   8.499  1.2615 -1.4823  1.6188
   42MOL0     H 5493   5.603   2.917   8.418  1.4606 -0.7690  0.7334
   42MOL0     H 5494   5.657   3.087   8.469  1.3178 -1.0496 -1.5967
   42MOL0     H 5495   5.504   3.017   8.684 -1.6632  0.6861 -1.4181
   42MOL0     H 5496   5.668   2.964   8.682 -1.4613  0.5233  2.8964
   42MOL0     H 5497   5.322   2.806   8.631  0.2156  1.3066  0.6056
   42MOL0     H 5498   5.232   2.551   8.660  1.1302 -0.6088 -0.8611
   42MOL0     H 5499   5.346   2.469   8.783  0.8612 -0.9015  0.1403
   42MOL0     H 5500   5.273   2.332   8.577 -1.3201  1.5400  0.3946
   42MOL0     H 5501   5.444   2.330   8.608 -0.5850  0.2742 -0.7376
   42MOL0     H 5502   5.455   2.487   8.405 -1.3004  1.6556  1.3677
   42MOL0     H 5503   5.367   2.334   8.384 -1.5312 -1.0885  0.9926
   42MOL0     H 5504   5.239   2.527   8.274 -2.2640 -1.6135 -0.4951
   42MOL0     H 5505   5.240   2.619   8.420  1.1565 -0.0917 -0.3462
   42MOL0     H 5506   5.040   2.530   8.179  0.9092 -0.8643  0.3521
   42MOL0     H 5507   4.838   2.604   8.125  3.4139  0.5053 -0.1570
   42MOL0     H 5508   4.444   2.660   7.955  2.1623 -0.7285  1.7296
   42MOL0     H 5509   4.219   2.761   7.927  1.2618 -2.0307 -0.3840
   42MOL0     H 5510   4.232   3.108   8.093  0.2483 -2.1593 -0.6871
   42MOL0     H 5511   4.103   3.103   8.218 -1.1084 -2.0345  0.0294
   42MOL0     H 5512   4.066   3.172   7.918  0.9042 -0.0834  0.3186
   42MOL0     H 5513   4.032   3.265   8.057  0.2327  1.4131 -2.9598
   42MOL0     H 5514   3.857   3.080   8.114 -1.6070 -0.0293 -0.8183
   42MOL0     H 5515   3.908   3.017   7.950 -0.4113  0.5783  0.7387
   42MOL0     H 5516   3.821   3.308   7.985  0.5849  0.1499 -0.7446
   42MOL0     H 5517   3.807   3.199   7.849  1.5007 -2.1479  0.4902
   42MOL0     H 5518   3.583   3.252   7.949 -1.5403  1.1099  2.6626
   42MOL0     H 5519   3.640   3.192   8.109  1.6684 -0.8656  1.0211
   42MOL0     H 5520   3.655   2.967   8.007  1.3600  0.6582  1.0119
   42MOL0     H 5521   3.631   3.033   7.851 -1.3533 -0.7328  0.1665
   42MOL0     H 5522   3.426   2.993   8.070  0.2863 -0.4824  0.3874
   42MOL0     H 5523   3.387   3.109   7.948  2.0814  0.1894  0.3868
   42MOL0     H 5524   3.370   2.939   7.766 -1.2377  1.3884  0.2113
   42MOL0     H 5525   3.279   2.897   7.906 -0.5904 -1.1278 -2.5610
   42MOL0     H 5526   4.249   2.931   8.323 -1.1623  1.4699 -2.1103
   42MOL0     H 5527   4.446   2.793   8.353  0.2758 -0.3165 -0.0297
   42MOL0     H 5528   4.696   2.497   8.519  1.4581 -1.6535  1.7425
   42MOL0     H 5529   4.922   2.429   8.578 -1.2921 -1.2449 -0.7401
   42MOL0     H 5530   5.448   3.550   8.108  1.3878 -0.4341 -0.9982
   42MOL0     H 5531   5.601   3.754   8.123 -1.1925 -0.0785  1.3094
   42MOL0     H 5532   5.486   4.382   8.004 -1.3646 -1.6880  0.6597
   42MOL0     H 5533   5.693   4.549   8.011 -1.3247 -0.5851 -3.5713
   42MOL0     H 5534   5.861   4.665   8.080  1.5109  0.9000  0.5177
   42MOL0     H 5535   5.867   4.635   7.906  1.0909  0.1707 -0.9695
   42MOL0     H 5536   6.108   4.691   7.906 -3.2983  0.0909 -1.6611
   42MOL0     H 5537   6.037   4.813   8.025  1.9118 -0.4442  4.5375
   42MOL0     H 5538   6.210   4.562   8.087  0.6228  0.5373 -1.0300
   42MOL0     H 5539   6.123   4.663   8.208  2.0932 -1.7044  0.5685
   42MOL0     H 5540   6.238   4.861   8.128 -1.2046 -1.2535  0.2712
   42MOL0     H 5541   6.347   4.763   8.199  0.8368  1.6523 -0.4668
   42MOL0     H 5542   6.464   4.795   7.779 -1.4624 -1.1152  0.0567
   42MOL0     H 5543   5.958   4.227   7.986 -0.5372  0.2228 -1.5190
   42MOL0     H 5544   5.783   4.067   8.000 -1.6504 -0.0934 -0.3074
   43MOL0     O 5545   4.370  10.652   0.461  0.1741 -0.2650 -0.2166
   43MOL0     C 5546   4.436  10.762   0.463  0.6099 -0.1702  0.7164
   43MOL0     O 5547   4.395  10.891   0.436  0.8300 -0.0359  0.0475
   43MOL0     C 5548   4.257  10.893   0.442 -0.2404 -0.8544 -0.0333
   43MOL0     C 5549   4.186  10.899   0.321  0.5894  0.5568  0.7100
   43MOL0     C 5550   4.049  10.897   0.322 -0.0164  0.2798 -0.3980
   43MOL0     C 5551   3.980  10.903   0.451  0.5545 -0.0618  0.5044
   43MOL0     O 5552   3.848  10.885   0.472  0.7834  0.6867  0.1338
   43MOL0     C 5553   3.758  10.944   0.367 -0.6146  0.1520 -0.0440
   43MOL0     C 5554   3.643  11.005   0.438  0.1227 -0.8061  0.4145
   43MOL0     C 5555   3.553  11.078   0.335 -0.3005  0.4999  0.9131
   43MOL0     C 5556   3.422  11.111   0.400 -0.1478 -0.4588  1.0064
   43MOL0     C 5557   3.315  11.174   0.312  0.3392  0.3132  0.0767
   43MOL0     C 5558   3.226  11.080   0.240  0.5167  0.3418  0.5306
   43MOL0     C 5559   3.131  11.155   0.138 -0.3611 -0.0594  0.3862
   43MOL0     C 5560   3.045  11.277   0.198  0.9477  0.5890  1.0695
   43MOL0     N 5561   2.933  11.312   0.109 -0.2139  0.0766 -0.1712
   43MOL0     C 5562   2.833  11.224   0.093 -0.5892  0.4452 -0.4072
   43MOL0     C 5563   2.769  11.266  -0.012  0.8309 -0.9142  1.3221
   43MOL0     C 5564   2.647  11.215  -0.076  0.0877  1.0920  0.6640
   43MOL0     C 5565   2.512  11.271  -0.020 -0.3704 -0.4826 -0.4594
   43MOL0     C 5566   2.388  11.186  -0.042  0.0444  0.2340  0.5824
   43MOL0     C 5567   2.251  11.255  -0.001 -0.4491  0.1601 -0.1411
   43MOL0     O 5568   2.157  11.176  -0.075  0.5725  0.0712  0.4055
   43MOL0     C 5569   2.033  11.237  -0.085 -1.2722  0.3609 -0.5407
   43MOL0     C 5570   1.956  11.221  -0.201  0.5785  0.2839 -0.1863
   43MOL0     C 5571   1.828  11.278  -0.208  0.0984 -0.0872 -0.3354
   43MOL0     C 5572   1.781  11.360  -0.107 -0.0275 -0.9639 -0.7829
   43MOL0     C 5573   1.647  11.439  -0.118 -0.0750  0.8892  0.5975
   43MOL0     O 5574   1.590  11.443  -0.238  0.2254  0.2670  0.1708
   43MOL0     C 5575   1.457  11.468  -0.248 -0.3396  0.2421 -0.7523
   43MOL0     C 5576   1.363  11.371  -0.218 -0.1102 -0.1031 -0.1079
   43MOL0     C 5577   1.227  11.402  -0.219 -0.4109 -0.1514 -0.9598
   43MOL0     C 5578   1.183  11.538  -0.224 -0.1602  0.2023  0.2500
   43MOL0     O 5579   1.049  11.569  -0.214  0.3837 -0.2933 -0.1438
   43MOL0     C 5580   0.971  11.482  -0.130  0.2537  0.0107 -0.4133
   43MOL0     C 5581   0.829  11.543  -0.130  0.7648 -0.0823  0.3854
   43MOL0     C 5582   0.735  11.448  -0.049  0.0668  0.2620  0.6322
   43MOL0     C 5583   0.738  11.469   0.103  0.5389 -0.0783 -0.0733
   43MOL0     C 5584   0.683  11.360   0.187  0.9880 -0.0397 -0.0863
   43MOL0     C 5585   0.787  11.331   0.292  0.0892 -0.2859  1.2588
   43MOL0     C 5586   0.734  11.288   0.434  0.2295  0.0688  0.1802
   43MOL0     C 5587   0.694  11.142   0.436  0.0509 -0.2526 -0.5343
   43MOL0    Cl 5588   0.840  11.037   0.385  0.3429  0.0580 -0.0383
   43MOL0     C 5589   1.279  11.636  -0.235 -0.5870 -0.0646 -0.4639
   43MOL0     C 5590   1.415  11.601  -0.254 -1.2886 -0.5276  0.1878
   43MOL0     O 5591   1.606  11.489  -0.022  0.0547 -0.7277  0.6202
   43MOL0     C 5592   1.857  11.364   0.015  0.1566 -0.1329  0.3647
   43MOL0     C 5593   1.982  11.307   0.024 -0.5161  0.9315  0.0598
   43MOL0     N 5594   2.824  11.385  -0.062  0.5626 -0.2549  0.0175
   43MOL0     N 5595   2.937  11.402   0.010 -0.0114 -1.1683 -0.5906
   43MOL0     C 5596   4.055  10.905   0.569 -0.0973 -0.7464 -0.0123
   43MOL0     C 5597   4.195  10.912   0.563  0.7873 -0.6424  0.1493
   43MOL0     C 5598   4.581  10.752   0.494  0.2518  0.0299  0.9233
   43MOL0     C 5599   4.653  10.632   0.473 -0.0129  0.0897 -0.5569
   43MOL0     C 5600   4.798  10.622   0.505 -0.0240 -0.3300 -0.1384
   43MOL0     C 5601   4.873  10.732   0.563 -0.9263 -0.1066  0.1211
   43MOL0     O 5602   5.006  10.734   0.572  0.1372  0.0278 -0.3867
   43MOL0     C 5603   5.083  10.609   0.599  0.8079  0.7367  0.5426
   43MOL0     C 5604   5.163  10.592   0.473  0.1669 -0.6969  0.2808
   43MOL0     C 5605   5.220  10.458   0.467 -1.0560 -0.0045 -0.4031
   43MOL0     C 5606   5.345  10.459   0.383 -0.7073  0.7018 -0.1299
   43MOL0     C 5607   5.446  10.359   0.417  1.1649  0.3657 -0.2842
   43MOL0     C 5608   5.543  10.296   0.452  0.3871  0.3444  0.3279
   43MOL0     C 5609   4.803  10.849   0.583  0.5772  0.4914  0.8773
   43MOL0     C 5610   4.663  10.850   0.553  0.1928 -0.6788 -0.0125
   43MOL0     H 5611   4.236  10.887   0.225 -1.5897 -1.0549 -0.3164
   43MOL0     H 5612   3.995  10.893   0.227  0.1583 -0.5693 -0.4784
   43MOL0     H 5613   3.729  10.869   0.291 -0.8862  0.3402 -0.1297
   43MOL0     H 5614   3.815  11.025   0.321  0.7810 -1.1258 -0.6415
   43MOL0     H 5615   3.682  11.077   0.510  1.0424  1.5705 -2.2490
   43MOL0     H 5616   3.585  10.925   0.486 -0.0280 -0.5541  0.6507
   43MOL0     H 5617   3.525  11.011   0.253  0.2825  1.7015 -0.3200
   43MOL0     H 5618   3.599  11.163   0.283 -1.7604  0.4172 -0.5953
   43MOL0     H 5619   3.379  11.024   0.450 -0.1223 -1.1848 -0.1805
   43MOL0     H 5620   3.447  11.185   0.476  1.4639 -0.1246  0.1996
   43MOL0     H 5621   3.368  11.235   0.239 -0.8927 -0.7959 -1.8375
   43MOL0     H 5622   3.244  11.232   0.371 -0.3980  0.3406 -0.8127
   43MOL0     H 5623   3.160  11.025   0.308 -1.4444  0.9600 -0.7985
   43MOL0     H 5624   3.289  11.011   0.182  0.9168 -0.4281  1.8387
   43MOL0     H 5625   3.190  11.196   0.056 -1.2097  0.2938 -0.0658
   43MOL0     H 5626   3.061  11.086   0.089  2.4800 -3.3905  0.6800
   43MOL0     H 5627   3.109  11.365   0.207  1.8516  0.0640 -0.0810
   43MOL0     H 5628   2.995  11.247   0.291 -0.2979  0.4076  0.3705
   43MOL0     H 5629   2.807  11.143   0.160  0.3061  2.4931  2.6622
   43MOL0     H 5630   2.645  11.111  -0.043  0.3916  0.9860  0.3555
   43MOL0     H 5631   2.657  11.215  -0.185  0.2610 -1.0465  0.6394
   43MOL0     H 5632   2.499  11.366  -0.074 -4.0408 -0.3311  0.4143
   43MOL0     H 5633   2.529  11.281   0.087  0.8532  0.0860 -0.6889
   43MOL0     H 5634   2.388  11.154  -0.147  0.7332 -1.2690  1.0103
   43MOL0     H 5635   2.415  11.094   0.011  3.3565  0.0586 -1.1278
   43MOL0     H 5636   2.243  11.359  -0.032 -0.3742  0.1652 -0.1439
   43MOL0     H 5637   2.246  11.249   0.108  1.1161 -0.5251 -0.0845
   43MOL0     H 5638   2.002  11.151  -0.270  0.3360  1.2168 -1.3042
   43MOL0     H 5639   1.774  11.253  -0.299 -1.4352 -1.8980  0.9952
   43MOL0     H 5640   1.415  11.276  -0.219  2.8648  1.3905 -1.6279
   43MOL0     H 5641   1.151  11.328  -0.200 -1.4204  0.7971 -1.2089
   43MOL0     H 5642   1.015  11.474  -0.030 -2.8160 -1.5640  0.9287
   43MOL0     H 5643   0.955  11.380  -0.165 -0.4749 -0.4682  1.2331
   43MOL0     H 5644   0.787  11.557  -0.230 -1.9591 -2.6434  1.0308
   43MOL0     H 5645   0.832  11.641  -0.082  3.4145 -0.8882  2.0367
   43MOL0     H 5646   0.760  11.346  -0.079 -1.2839 -0.0845  0.6284
   43MOL0     H 5647   0.633  11.456  -0.087  0.3703 -2.1600 -0.8687
   43MOL0     H 5648   0.839  11.503   0.128  1.0758 -0.2034 -1.9685
   43MOL0     H 5649   0.679  11.560   0.118 -0.3895 -0.5321 -0.8966
   43MOL0     H 5650   0.651  11.265   0.143 -1.4540 -0.9620  3.2273
   43MOL0     H 5651   0.597  11.406   0.236  1.5242 -0.5384  1.3918
   43MOL0     H 5652   0.836  11.425   0.320 -1.4609  1.6939 -1.9796
   43MOL0     H 5653   0.856  11.255   0.256  1.8889  1.1063  1.6175
   43MOL0     H 5654   0.822  11.307   0.496 -0.2647 -1.5088  1.4310
   43MOL0     H 5655   0.651  11.352   0.468  2.3910  2.1498  1.8592
   43MOL0     H 5656   0.613  11.122   0.366 -1.5053 -0.7979  1.3376
   43MOL0     H 5657   0.651  11.118   0.534  1.2987 -0.2028  0.0584
   43MOL0     H 5658   1.253  11.741  -0.234  0.1105  0.1316 -1.2837
   43MOL0     H 5659   1.487  11.681  -0.270 -0.5582 -0.6502  2.4580
   43MOL0     H 5660   1.820  11.406   0.108 -1.1757  0.2199 -0.2970
   43MOL0     H 5661   2.040  11.321   0.115  0.1193  0.7106 -0.3060
   43MOL0     H 5662   3.998  10.908   0.662 -1.6827 -2.3195 -0.8510
   43MOL0     H 5663   4.250  10.915   0.656 -1.0901  2.2001  1.3087
   43MOL0     H 5664   4.617  10.543   0.422 -0.1375 -0.0039 -0.3135
   43MOL0     H 5665   4.846  10.530   0.475 -1.8463 -1.8343  1.3306
   43MOL0     H 5666   5.009  10.530   0.608  1.5428 -0.1761 -0.9975
   43MOL0     H 5667   5.141  10.598   0.691 -0.0916 -0.7921  0.9610
   43MOL0     H 5668   5.111  10.609   0.378 -1.2904  1.4674  1.3698
   43MOL0     H 5669   5.234  10.675   0.475 -1.6865  0.9510  1.0666
   43MOL0     H 5670   5.147  10.387   0.428 -2.2996  0.4176  1.0247
   43MOL0     H 5671   5.254  10.409   0.559 -1.4991 -4.0914 -2.2024
   43MOL0     H 5672   5.314  10.435   0.281 -1.0754  2.6257 -0.5135
   43MOL0     H 5673   5.396  10.555   0.378  0.2581  0.2108  0.0586
   43MOL0     H 5674   5.615  10.230   0.496 -0.6697 -1.0465  0.0677
   43MOL0     H 5675   4.853  10.944   0.603  2.9943  0.0436 -2.3035
   43MOL0     H 5676   4.619  10.948   0.573 -4.4355 -2.8508  1.8249
   44MOL0     O 5677   8.406   2.746   1.381  0.3477 -0.1760  0.8465
   44MOL0     C 5678   8.503   2.717   1.453  0.0432  0.1987 -0.2194
   44MOL0     O 5679   8.499   2.744   1.588 -0.6692  0.3077  0.1599
   44MOL0     C 5680   8.395   2.806   1.646 -0.6917 -0.0591  0.5540
   44MOL0     C 5681   8.268   2.752   1.654 -0.5350  0.0047  0.6783
   44MOL0     C 5682   8.166   2.816   1.719  0.0759  0.5451 -0.5377
   44MOL0     C 5683   8.178   2.945   1.771 -0.4685 -0.3107 -0.2768
   44MOL0     O 5684   8.083   3.033   1.830 -0.8393  1.2073 -0.5559
   44MOL0     C 5685   7.986   2.955   1.905  0.7734  0.1303 -0.5836
   44MOL0     C 5686   7.903   3.064   1.967 -0.1516  0.2273 -0.5638
   44MOL0     C 5687   7.842   3.014   2.099 -0.3662  0.4398 -1.1852
   44MOL0     C 5688   7.739   2.907   2.073  0.8599 -0.4918  0.1039
   44MOL0     C 5689   7.714   2.818   2.193  0.1780  0.6603  0.2823
   44MOL0     C 5690   7.666   2.903   2.328  0.1317 -0.5593 -0.0618
   44MOL0     C 5691   7.533   2.989   2.296 -0.3411 -0.4424 -1.0272
   44MOL0     C 5692   7.460   3.024   2.421  0.7585 -0.0713 -0.0939
   44MOL0     N 5693   7.387   2.908   2.466  0.0084 -0.3437 -1.0722
   44MOL0     C 5694   7.256   2.883   2.437  0.0820  0.4984 -0.3722
   44MOL0     C 5695   7.224   2.776   2.509  0.8589 -0.2893 -0.3580
   44MOL0     C 5696   7.102   2.690   2.507 -0.8564  0.2469  0.5362
   44MOL0     C 5697   6.990   2.745   2.598  0.2433 -0.5044  0.6754
   44MOL0     C 5698   7.029   2.736   2.747 -0.0600  0.2010  0.3293
   44MOL0     C 5699   7.015   2.600   2.809 -0.1546 -0.4504  0.0474
   44MOL0     O 5700   6.955   2.610   2.942 -0.5309  0.2004  0.2059
   44MOL0     C 5701   6.822   2.628   2.973  0.7256  0.6153  0.1524
   44MOL0     C 5702   6.727   2.590   2.881 -0.6671  0.6920  0.5773
   44MOL0     C 5703   6.597   2.610   2.903  0.6570  0.3482  0.0544
   44MOL0     C 5704   6.550   2.670   3.030 -0.8621 -0.1511  0.3343
   44MOL0     C 5705   6.409   2.703   3.051 -0.0189  0.2892 -0.0925
   44MOL0     O 5706   6.327   2.679   2.935 -0.4769 -0.7319  0.2605
   44MOL0     C 5707   6.187   2.712   2.950  0.7703 -0.1507 -0.0352
   44MOL0     C 5708   6.101   2.620   2.897  1.8954 -0.3441 -0.5559
   44MOL0     C 5709   5.960   2.638   2.904 -0.4139 -0.2262 -0.1185
   44MOL0     C 5710   5.908   2.751   2.978 -0.7724  0.2039 -0.1947
   44MOL0     O 5711   5.778   2.794   2.997 -0.2195 -0.0753 -0.2069
   44MOL0     C 5712   5.671   2.725   2.941 -0.1655 -0.0455 -0.3422
   44MOL0     C 5713   5.543   2.811   2.966  1.0814  0.9503  0.6952
   44MOL0     C 5714   5.418   2.734   2.930 -0.2761  0.5382  0.4555
   44MOL0     C 5715   5.286   2.817   2.946  0.6927  0.5875  0.0916
   44MOL0     C 5716   5.232   2.788   3.087  0.4038 -0.2355 -0.6447
   44MOL0     C 5717   5.097   2.853   3.102  0.1972  0.7541  0.5871
   44MOL0     C 5718   4.982   2.771   3.056 -0.2363  0.7221  0.4374
   44MOL0     C 5719   4.864   2.853   3.086 -0.4720  0.2705 -0.0854
   44MOL0    Cl 5720   4.722   2.759   3.019 -0.4395  0.1493 -0.1258
   44MOL0     C 5721   6.007   2.838   3.040  0.1503  0.2899 -0.2184
   44MOL0     C 5722   6.144   2.824   3.023 -0.1407  0.9283 -0.0156
   44MOL0     O 5723   6.366   2.732   3.167 -1.0673 -0.5518 -0.0736
   44MOL0     C 5724   6.652   2.696   3.121 -0.6574  0.8239 -0.0114
   44MOL0     C 5725   6.783   2.682   3.085  0.7368 -0.4006  0.7456
   44MOL0     N 5726   7.337   2.742   2.586 -0.3083  0.6016 -0.9778
   44MOL0     N 5727   7.427   2.827   2.554 -0.7820 -0.1565 -0.3836
   44MOL0     C 5728   8.306   2.994   1.761 -0.1516 -0.2072 -0.6490
   44MOL0     C 5729   8.415   2.928   1.709  0.5019  0.2363 -0.0399
   44MOL0     C 5730   8.628   2.677   1.392 -0.0998  0.3011 -0.6152
   44MOL0     C 5731   8.743   2.646   1.477 -0.6576 -0.6092  0.2610
   44MOL0     C 5732   8.856   2.602   1.414 -0.2569  0.1455  0.4860
   44MOL0     C 5733   8.861   2.567   1.275  0.0976 -0.8396 -0.6650
   44MOL0     O 5734   8.980   2.510   1.232 -0.6175 -0.0055  0.3732
   44MOL0     C 5735   9.029   2.382   1.279  0.2879  0.1849 -0.1439
   44MOL0     C 5736   9.112   2.306   1.165 -0.1292  1.9503  0.0234
   44MOL0     C 5737   9.254   2.340   1.156 -0.6862  0.0151  0.3126
   44MOL0     C 5738   9.314   2.318   1.014 -0.1552 -0.6122  0.0715
   44MOL0     C 5739   9.451   2.366   1.015  0.4470 -0.6032 -0.0886
   44MOL0     C 5740   9.570   2.409   1.031  0.2801  0.3996 -0.1269
   44MOL0     C 5741   8.747   2.588   1.201  0.7052  0.0642  0.2692
   44MOL0     C 5742   8.636   2.647   1.253 -0.2198  0.1070 -0.5708
   44MOL0     H 5743   8.249   2.660   1.599  0.0047 -0.3737  1.1128
   44MOL0     H 5744   8.071   2.764   1.727 -0.1821  1.2708  2.2170
   44MOL0     H 5745   8.036   2.888   1.976  0.5469  1.1008  0.5255
   44MOL0     H 5746   7.914   2.902   1.842  0.2033 -1.0028  0.9559
   44MOL0     H 5747   7.815   3.087   1.907 -0.7579 -1.0163 -0.1605
   44MOL0     H 5748   7.964   3.154   1.986 -2.0013  2.0714 -2.7948
   44MOL0     H 5749   7.791   3.085   2.165 -0.0914 -1.4172  1.1226
   44MOL0     H 5750   7.929   2.986   2.158 -2.0606 -1.0188  0.7459
   44MOL0     H 5751   7.647   2.951   2.034  1.2583 -1.7379 -2.4354
   44MOL0     H 5752   7.773   2.838   1.994 -1.3188 -2.7329  0.9903
   44MOL0     H 5753   7.805   2.760   2.208  0.4101  0.9020 -0.1676
   44MOL0     H 5754   7.643   2.741   2.163  0.6204 -0.0296  0.9904
   44MOL0     H 5755   7.744   2.965   2.373 -0.6036 -0.9012  1.7783
   44MOL0     H 5756   7.635   2.832   2.406  0.2256  2.9426  3.4743
   44MOL0     H 5757   7.566   3.081   2.247  0.2144 -0.7489 -1.2388
   44MOL0     H 5758   7.480   2.933   2.219  3.6983 -1.8188 -3.1004
   44MOL0     H 5759   7.394   3.110   2.402 -1.0629 -1.3796  0.0472
   44MOL0     H 5760   7.535   3.057   2.494 -0.3861  2.6122 -0.0161
   44MOL0     H 5761   7.194   2.928   2.360 -0.1238 -1.4975 -1.4378
   44MOL0     H 5762   7.130   2.593   2.548  0.9702  1.2906  1.9202
   44MOL0     H 5763   7.076   2.683   2.401  0.5166  1.8670  0.0547
   44MOL0     H 5764   6.893   2.695   2.584 -0.8898  1.9223 -0.9507
   44MOL0     H 5765   6.979   2.850   2.571 -2.3145 -1.0100 -0.6168
   44MOL0     H 5766   7.133   2.769   2.762  0.0459 -0.4944  1.1876
   44MOL0     H 5767   6.967   2.803   2.807 -0.8875  0.0063 -0.2912
   44MOL0     H 5768   7.119   2.567   2.816  0.0341  0.1362  0.0151
   44MOL0     H 5769   6.963   2.529   2.743 -2.8356 -0.1646  1.6872
   44MOL0     H 5770   6.760   2.559   2.782 -0.3299  2.8110 -0.0203
   44MOL0     H 5771   6.531   2.580   2.823  0.7331 -3.0920  1.0889
   44MOL0     H 5772   6.136   2.533   2.843 -1.5164 -1.4165 -1.3028
   44MOL0     H 5773   5.894   2.575   2.845 -1.5884  0.6853  0.1932
   44MOL0     H 5774   5.667   2.624   2.984  0.7324  0.6859  1.5639
   44MOL0     H 5775   5.685   2.728   2.832  2.0030  3.2346 -0.1148
   44MOL0     H 5776   5.553   2.906   2.914  1.4897  0.2619 -0.5164
   44MOL0     H 5777   5.534   2.830   3.074  0.9990 -0.2613  0.9171
   44MOL0     H 5778   5.412   2.642   2.990 -1.4540  2.6822  3.9154
   44MOL0     H 5779   5.428   2.715   2.823  1.1204  0.1940  0.6316
   44MOL0     H 5780   5.301   2.923   2.921  0.5173  1.1221  2.0750
   44MOL0     H 5781   5.213   2.790   2.869  0.0739  1.1260  0.4802
   44MOL0     H 5782   5.293   2.827   3.169 -0.3781 -0.7359  0.1981
   44MOL0     H 5783   5.216   2.680   3.103  0.7154  0.0327  1.9113
   44MOL0     H 5784   5.093   2.952   3.057  1.9784  0.8384  0.5449
   44MOL0     H 5785   5.094   2.880   3.208 -1.2966 -3.9209  2.0152
   44MOL0     H 5786   4.993   2.736   2.953  0.4959 -0.2376  0.8252
   44MOL0     H 5787   4.968   2.681   3.116  0.0894  2.6914  3.6767
   44MOL0     H 5788   4.877   2.952   3.040 -0.1302  0.9080  1.3274
   44MOL0     H 5789   4.856   2.863   3.194  2.5801 -1.4453  0.4280
   44MOL0     H 5790   5.964   2.922   3.094  2.1085  0.4393  1.2217
   44MOL0     H 5791   6.217   2.895   3.058  0.9969  0.1346 -0.7044
   44MOL0     H 5792   6.633   2.747   3.215 -1.4340 -0.4908  0.5762
   44MOL0     H 5793   6.870   2.703   3.147  0.5317  2.6750  0.1688
   44MOL0     H 5794   8.323   3.092   1.805 -0.6073 -0.3606 -0.1186
   44MOL0     H 5795   8.511   2.979   1.715  0.7507 -0.1558 -0.6309
   44MOL0     H 5796   8.741   2.656   1.585  0.7891 -1.4068  0.3811
   44MOL0     H 5797   8.944   2.591   1.476 -1.7387 -3.2058  2.2207
   44MOL0     H 5798   8.941   2.321   1.306 -1.0527  2.6169  1.3806
   44MOL0     H 5799   9.097   2.395   1.364 -0.0521 -0.9398  0.3276
   44MOL0     H 5800   9.101   2.199   1.182 -4.4013  2.1031 -0.6480
   44MOL0     H 5801   9.063   2.322   1.069 -1.5015  1.8319  0.6798
   44MOL0     H 5802   9.308   2.282   1.232 -0.4592 -1.5722 -1.0104
   44MOL0     H 5803   9.268   2.447   1.176 -1.3437  1.1965 -4.3326
   44MOL0     H 5804   9.309   2.211   0.990  2.9856 -1.2023  1.6539
   44MOL0     H 5805   9.252   2.372   0.941 -0.2748 -0.1896  0.4893
   44MOL0     H 5806   9.671   2.442   1.044  0.4353 -0.1117 -0.0142
   44MOL0     H 5807   8.745   2.555   1.098  0.6782  1.5806 -0.2442
   44MOL0     H 5808   8.550   2.654   1.187  0.0111 -0.8377 -0.9805
   45MOL0     O 5809   1.793  10.774   8.529  0.3162 -0.0444  0.2569
   45MOL0     C 5810   1.829  10.671   8.470  0.1084  0.9491  0.6817
   45MOL0     O 5811   1.746  10.571   8.417  1.0506 -0.4876  0.3227
   45MOL0     C 5812   1.609  10.570   8.423  0.2070  0.4314 -0.0394
   45MOL0     C 5813   1.524  10.651   8.504  0.0104  0.0699 -0.2675
   45MOL0     C 5814   1.396  10.661   8.479  0.4799 -0.6567  0.2499
   45MOL0     C 5815   1.332  10.592   8.375 -0.2462  0.8788 -0.9151
   45MOL0     O 5816   1.197  10.616   8.348 -0.1811 -0.5266 -0.0413
   45MOL0     C 5817   1.134  10.532   8.245 -0.6026  0.6730  0.0957
   45MOL0     C 5818   0.992  10.564   8.214 -0.2716  0.1761  0.5850
   45MOL0     C 5819   0.909  10.533   8.333  0.2404  0.7389 -0.1901
   45MOL0     C 5820   0.755  10.531   8.315  0.5312  0.0754 -0.2385
   45MOL0     C 5821   0.676  10.502   8.440  0.2104 -0.6979  0.0374
   45MOL0     C 5822   0.528  10.484   8.418  0.6875  0.2184  0.2296
   45MOL0     C 5823   0.455  10.610   8.375  0.0738 -0.3881  0.0589
   45MOL0     C 5824   0.302  10.609   8.390 -0.2919  0.8464 -0.4820
   45MOL0     N 5825   0.263  10.482   8.334 -0.0335  0.0842  0.3826
   45MOL0     C 5826   0.209  10.480   8.206 -0.7471  0.6592 -0.4371
   45MOL0     C 5827   0.160  10.354   8.204  0.1175 -0.2348  0.0088
   45MOL0     C 5828   0.096  10.293   8.079  0.9653  0.2363  0.7672
   45MOL0     C 5829  -0.058  10.269   8.093  0.5111  0.6635 -0.1606
   45MOL0     C 5830  -0.123  10.232   7.965 -0.6125 -0.2750  0.1312
   45MOL0     C 5831  -0.274  10.203   7.948  1.1180  0.0029  0.4129
   45MOL0     O 5832  -0.355  10.317   7.967  0.2045  0.3327 -0.2033
   45MOL0     C 5833  -0.490  10.305   7.937 -0.2687 -0.7020 -0.1729
   45MOL0     C 5834  -0.569  10.202   7.980  0.2920 -0.5440  0.8737
   45MOL0     C 5835  -0.696  10.188   7.932  0.7190 -0.2417  0.3844
   45MOL0     C 5836  -0.767  10.294   7.858  0.2150  0.4670 -0.3851
   45MOL0     C 5837  -0.906  10.266   7.819  0.1999  1.1513  0.4526
   45MOL0     O 5838  -0.956  10.330   7.708  0.1123  0.6190  0.2050
   45MOL0     C 5839  -1.088  10.354   7.699  0.6607 -0.6628  0.3900
   45MOL0     C 5840  -1.169  10.385   7.806  0.5167  0.1547  1.1245
   45MOL0     C 5841  -1.299  10.426   7.775  0.0131 -0.0214 -0.2670
   45MOL0     C 5842  -1.347  10.440   7.646  0.2906 -1.0537  0.0966
   45MOL0     O 5843  -1.478  10.476   7.645 -0.1716  0.6223 -0.4272
   45MOL0     C 5844  -1.562  10.486   7.522 -0.7825  0.0911 -0.1858
   45MOL0     C 5845  -1.703  10.510   7.566  0.1581  0.0102  0.5111
   45MOL0     C 5846  -1.815  10.490   7.456 -0.6488  0.3806 -0.0411
   45MOL0     C 5847  -1.813  10.606   7.355 -0.4208 -0.3649 -1.4850
   45MOL0     C 5848  -1.915  10.585   7.253 -0.1913 -0.2018  1.3027
   45MOL0     C 5849  -1.908  10.708   7.157 -0.2947  0.5920 -0.6307
   45MOL0     C 5850  -2.003  10.702   7.040 -0.4382 -0.1333 -0.3253
   45MOL0     C 5851  -1.980  10.819   6.938  0.8130  0.4367 -0.2065
   45MOL0    Cl 5852  -1.997  10.978   7.015 -0.0422 -0.2206 -0.4554
   45MOL0     C 5853  -1.258  10.417   7.544 -0.3003 -0.1738 -0.5416
   45MOL0     C 5854  -1.130  10.359   7.567  0.3179 -0.2135 -1.0103
   45MOL0     O 5855  -0.978  10.180   7.877  0.5340  0.1684  0.0836
   45MOL0     C 5856  -0.687  10.408   7.832 -0.6497 -0.6439 -0.1489
   45MOL0     C 5857  -0.550  10.414   7.875  0.5013 -0.2107  0.0085
   45MOL0     N 5858   0.185  10.283   8.328  0.4812 -0.1174 -0.1471
   45MOL0     N 5859   0.230  10.373   8.408  0.4561 -0.2875 -0.5721
   45MOL0     C 5860   1.410  10.485   8.320  0.2288 -0.0195 -0.1833
   45MOL0     C 5861   1.545  10.470   8.345  0.2775  0.2019  0.3846
   45MOL0     C 5862   1.973  10.642   8.450  0.6639  0.1468 -0.1669
   45MOL0     C 5863   2.016  10.549   8.358  0.0765  0.7123  0.0851
   45MOL0     C 5864   2.152  10.526   8.340 -0.0360 -0.0568 -1.1854
   45MOL0     C 5865   2.251  10.599   8.410 -0.4727  0.2660 -0.3435
   45MOL0     O 5866   2.388  10.587   8.405  0.0201 -0.3864  0.3573
   45MOL0     C 5867   2.446  10.509   8.305 -0.2066  0.6690 -0.4095
   45MOL0     C 5868   2.589  10.456   8.333  0.1931  0.0896  0.1444
   45MOL0     C 5869   2.656  10.401   8.207 -0.1393 -0.1354 -0.5695
   45MOL0     C 5870   2.748  10.275   8.237 -0.2092 -0.3728 -0.0153
   45MOL0     C 5871   2.859  10.322   8.321  0.2987  0.2664 -0.3947
   45MOL0     C 5872   2.956  10.334   8.392 -0.3695  0.4479  0.2575
   45MOL0     C 5873   2.206  10.684   8.506 -0.2239 -1.6623 -0.0921
   45MOL0     C 5874   2.073  10.716   8.518  0.1923  0.1085 -0.1744
   45MOL0     H 5875   1.555  10.705   8.593 -2.7735 -0.5173  1.1723
   45MOL0     H 5876   1.326  10.716   8.542  0.5177  0.0161 -0.2757
   45MOL0     H 5877   1.143  10.432   8.287  1.5663 -0.0582 -1.8708
   45MOL0     H 5878   1.183  10.547   8.148 -0.8890  0.9553 -0.0058
   45MOL0     H 5879   0.960  10.497   8.134 -0.8426 -0.4784  1.3375
   45MOL0     H 5880   0.993  10.669   8.184  1.1019 -0.2952 -1.1521
   45MOL0     H 5881   0.945  10.595   8.416  0.7804 -3.0686  2.6835
   45MOL0     H 5882   0.943  10.433   8.359  1.0295  1.3685  1.3003
   45MOL0     H 5883   0.728  10.629   8.275 -0.9419 -1.1026 -2.3577
   45MOL0     H 5884   0.741  10.464   8.229  4.8750 -1.3186 -0.0909
   45MOL0     H 5885   0.694  10.586   8.508 -2.5354  1.6934 -1.9354
   45MOL0     H 5886   0.707  10.407   8.485  1.1526 -1.2164 -1.6095
   45MOL0     H 5887   0.488  10.461   8.517 -0.4757 -2.2019 -0.7289
   45MOL0     H 5888   0.499  10.399   8.355 -1.5289  0.5337  0.7389
   45MOL0     H 5889   0.493  10.699   8.424 -0.9483  2.3260 -3.6277
   45MOL0     H 5890   0.467  10.624   8.267 -2.3969  1.6860 -0.0465
   45MOL0     H 5891   0.260  10.697   8.341  2.1234  2.5857  0.3838
   45MOL0     H 5892   0.277  10.629   8.495 -0.3055  0.9334 -0.5010
   45MOL0     H 5893   0.194  10.559   8.132 -1.1913 -1.2518 -2.5022
   45MOL0     H 5894   0.152  10.202   8.055  2.3802  1.3915 -0.5173
   45MOL0     H 5895   0.116  10.364   7.998 -0.0567  0.8062  1.0007
   45MOL0     H 5896  -0.110  10.362   8.120  0.2089  0.9616 -1.6723
   45MOL0     H 5897  -0.072  10.186   8.162 -3.1379 -0.0908 -1.5959
   45MOL0     H 5898  -0.103  10.318   7.900 -0.2891  0.8521  1.6648
   45MOL0     H 5899  -0.076  10.145   7.919 -0.1298 -0.0471  0.1849
   45MOL0     H 5900  -0.304  10.121   8.014 -0.0962 -2.2690 -2.6915
   45MOL0     H 5901  -0.306  10.167   7.850 -0.3253  3.7741 -0.6417
   45MOL0     H 5902  -0.512  10.123   8.028  2.5889  2.1091  2.8654
   45MOL0     H 5903  -0.746  10.091   7.928 -1.5032  0.8576 -0.6056
   45MOL0     H 5904  -1.127  10.395   7.906 -2.1088  2.2715  2.1604
   45MOL0     H 5905  -1.362  10.460   7.856 -0.1163 -0.3213 -0.2427
   45MOL0     H 5906  -1.555  10.397   7.459 -1.4903 -1.7240  2.1570
   45MOL0     H 5907  -1.522  10.570   7.464  0.9377 -0.5551  0.0010
   45MOL0     H 5908  -1.705  10.610   7.611  0.7617 -0.0195  0.6245
   45MOL0     H 5909  -1.713  10.441   7.651  0.1622 -0.0381  0.4725
   45MOL0     H 5910  -1.913  10.472   7.501  0.1578 -0.8713  1.2918
   45MOL0     H 5911  -1.795  10.397   7.403 -1.0555 -0.3401  1.0268
   45MOL0     H 5912  -1.820  10.701   7.410  0.1802 -1.6945  1.0371
   45MOL0     H 5913  -1.716  10.599   7.304  0.2110 -1.8736 -0.1700
   45MOL0     H 5914  -2.017  10.570   7.288 -1.0671 -3.3005 -1.8928
   45MOL0     H 5915  -1.891  10.496   7.193  0.5842  2.2171 -2.3189
   45MOL0     H 5916  -1.803  10.707   7.127 -0.0616 -0.9394  0.1143
   45MOL0     H 5917  -1.929  10.802   7.208  0.5573  1.6119 -2.0973
   45MOL0     H 5918  -1.993  10.611   6.981  4.7216  0.1074 -0.3269
   45MOL0     H 5919  -2.105  10.714   7.076  0.2321  0.0509  1.6782
   45MOL0     H 5920  -2.058  10.816   6.861  1.3030  1.1461 -0.7420
   45MOL0     H 5921  -1.883  10.820   6.888  1.0714  0.4921  0.2841
   45MOL0     H 5922  -1.285  10.431   7.440  1.7567 -0.7303 -1.1905
   45MOL0     H 5923  -1.046  10.347   7.499  1.2102  0.7879 -0.1317
   45MOL0     H 5924  -0.723  10.499   7.786 -1.0027  0.2032  1.7063
   45MOL0     H 5925  -0.493  10.505   7.881  2.3012 -1.2676 -0.3045
   45MOL0     H 5926   1.365  10.422   8.245 -2.1766  0.3359  0.8898
   45MOL0     H 5927   1.609  10.401   8.290  0.7302 -0.4683  1.7243
   45MOL0     H 5928   1.944  10.491   8.300 -1.8610  0.4711  2.6034
   45MOL0     H 5929   2.178  10.449   8.268 -2.4686  0.0535 -2.2700
   45MOL0     H 5930   2.454  10.563   8.210 -0.6360 -0.1942 -0.9503
   45MOL0     H 5931   2.391  10.415   8.292 -0.1524  0.3819  1.2571
   45MOL0     H 5932   2.641  10.545   8.371 -0.6628  0.4053  0.6170
   45MOL0     H 5933   2.590  10.387   8.418 -0.8061  0.1224  0.1951
   45MOL0     H 5934   2.715  10.482   8.163 -1.5143  2.0833  1.3841
   45MOL0     H 5935   2.573  10.366   8.145 -0.8573 -1.2518  0.9569
   45MOL0     H 5936   2.697  10.191   8.285  0.4403 -1.2143 -0.7633
   45MOL0     H 5937   2.794  10.238   8.145  0.4612  0.1492  0.1086
   45MOL0     H 5938   3.038  10.342   8.460 -1.1019  1.8636  1.0287
   45MOL0     H 5939   2.283  10.736   8.562 -1.0896 -0.6444  0.1766
   45MOL0     H 5940   2.054  10.787   8.597  1.2143  1.1469 -0.8368
   46MOL0     O 5941   5.076   7.287   8.801  0.1783 -0.1430  0.0813
   46MOL0     C 5942   5.161   7.231   8.732 -0.5589  0.1949 -0.3467
   46MOL0     O 5943   5.132   7.124   8.651  0.3074 -0.1774  0.6052
   46MOL0     C 5944   4.996   7.110   8.607 -0.4540 -0.8670 -0.8663
   46MOL0     C 5945   4.905   7.218   8.567  0.0370  0.3942  0.4061
   46MOL0     C 5946   4.785   7.186   8.505 -0.1616 -0.4116  0.0194
   46MOL0     C 5947   4.742   7.061   8.487 -0.4918 -0.1807  0.5142
   46MOL0     O 5948   4.620   7.052   8.424 -0.1512  0.0940  0.4998
   46MOL0     C 5949   4.569   6.920   8.393  0.4764 -0.2722  0.0521
   46MOL0     C 5950   4.436   6.926   8.321 -0.0754  0.5123 -0.8889
   46MOL0     C 5951   4.323   7.002   8.390 -0.0999 -0.1494 -0.4361
   46MOL0     C 5952   4.198   6.989   8.288 -0.0489 -0.3203 -0.5735
   46MOL0     C 5953   4.073   7.057   8.356  0.4533  0.1303 -1.3197
   46MOL0     C 5954   4.073   7.205   8.336  0.3064  0.6891 -0.1201
   46MOL0     C 5955   4.032   7.236   8.199  1.2666  0.3186  0.2566
   46MOL0     C 5956   4.009   7.384   8.181  0.3007 -0.2910 -0.6709
   46MOL0     N 5957   3.928   7.388   8.063  0.3632  0.4249  0.1511
   46MOL0     C 5958   3.797   7.416   8.055  1.0374  0.6659 -0.2016
   46MOL0     C 5959   3.760   7.411   7.924 -0.4343  0.2451  0.7136
   46MOL0     C 5960   3.630   7.429   7.851  0.6174 -0.3222  1.2332
   46MOL0     C 5961   3.580   7.576   7.857 -0.6799 -0.0565 -0.4809
   46MOL0     C 5962   3.466   7.615   7.757 -0.2721  0.0940  0.2679
   46MOL0     C 5963   3.329   7.590   7.811  0.0996 -0.8009  0.4042
   46MOL0     O 5964   3.308   7.699   7.900  0.5923 -0.3272  0.3438
   46MOL0     C 5965   3.194   7.700   7.978 -0.6595  0.6197  0.2694
   46MOL0     C 5966   3.158   7.828   8.035  0.7714 -0.7432 -0.8251
   46MOL0     C 5967   3.030   7.839   8.090 -0.9321 -0.5357  0.5615
   46MOL0     C 5968   2.947   7.728   8.105  0.7115 -0.0962  0.4338
   46MOL0     C 5969   2.819   7.754   8.167  0.1484 -0.0468 -0.0292
   46MOL0     O 5970   2.822   7.843   8.276 -0.2802 -0.9004  0.0339
   46MOL0     C 5971   2.710   7.918   8.311 -0.6088  0.3415  0.6071
   46MOL0     C 5972   2.631   7.973   8.217  0.1276  0.6642 -0.8645
   46MOL0     C 5973   2.520   8.057   8.259  0.4338 -0.2388  0.1002
   46MOL0     C 5974   2.493   8.076   8.395  0.6288 -0.7317  0.9814
   46MOL0     O 5975   2.388   8.163   8.433  0.7416  0.7863  0.9348
   46MOL0     C 5976   2.302   8.101   8.531  0.4037  0.4313 -0.0671
   46MOL0     C 5977   2.175   8.184   8.559  0.1282  0.7050  0.7606
   46MOL0     C 5978   2.216   8.334   8.597  0.5005 -0.2994  0.0401
   46MOL0     C 5979   2.113   8.404   8.693 -0.0239  0.0237  0.1415
   46MOL0     C 5980   1.961   8.376   8.657 -0.1034 -0.4320 -0.1804
   46MOL0     C 5981   1.923   8.438   8.522  0.3271  0.2466  0.6974
   46MOL0     C 5982   1.906   8.588   8.542 -0.3581 -0.8699  0.6737
   46MOL0     C 5983   1.929   8.654   8.399 -0.0888 -0.4738  0.5728
   46MOL0    Cl 5984   1.808   8.628   8.279 -0.3281  0.2232 -0.2468
   46MOL0     C 5985   2.582   8.032   8.488 -0.3689 -0.4435 -0.3719
   46MOL0     C 5986   2.683   7.946   8.445  0.8459  0.9936  0.3003
   46MOL0     O 5987   2.723   7.687   8.131  0.2669  0.1167  0.2053
   46MOL0     C 5988   2.992   7.604   8.058  0.2719 -1.2348 -0.1402
   46MOL0     C 5989   3.105   7.594   7.987  0.0732  0.6422 -0.3022
   46MOL0     N 5990   3.875   7.384   7.848  0.0812  0.4938 -0.8593
   46MOL0     N 5991   3.976   7.376   7.933 -0.2742 -0.1786 -0.1581
   46MOL0     C 5992   4.812   6.956   8.543  0.0821 -0.0778 -0.5900
   46MOL0     C 5993   4.935   6.979   8.604 -0.6439  0.6753 -0.2810
   46MOL0     C 5994   5.306   7.260   8.761 -0.4568 -0.7264 -0.0735
   46MOL0     C 5995   5.405   7.170   8.713  0.9278 -0.4322 -0.6181
   46MOL0     C 5996   5.542   7.198   8.735  0.4771 -0.1025 -0.5412
   46MOL0     C 5997   5.584   7.306   8.813  0.0493  0.0738  0.4926
   46MOL0     O 5998   5.718   7.336   8.808 -0.1614 -0.2306 -0.5698
   46MOL0     C 5999   5.766   7.457   8.876 -0.1045  0.0425 -0.0746
   46MOL0     C 6000   5.820   7.422   9.012  0.2819 -0.9167  0.8485
   46MOL0     C 6001   5.975   7.385   9.019 -1.1497  0.0967  0.3317
   46MOL0     C 6002   6.002   7.350   9.168 -0.1888 -0.5142  0.9275
   46MOL0     C 6003   6.138   7.291   9.197  0.2648 -0.1965 -0.1118
   46MOL0     C 6004   6.239   7.234   9.241  0.0874  0.6618 -0.0723
   46MOL0     C 6005   5.483   7.386   8.876  0.2892  0.2252 -0.0564
   46MOL0     C 6006   5.346   7.361   8.850 -1.1259  0.3529  0.8338
   46MOL0     H 6007   4.938   7.320   8.583 -0.0606  0.3409  0.9587
   46MOL0     H 6008   4.720   7.267   8.473 -3.7628 -2.2378  2.1155
   46MOL0     H 6009   4.559   6.868   8.489  0.9121 -0.0632  0.2151
   46MOL0     H 6010   4.646   6.864   8.338  1.2836 -0.1575  1.0431
   46MOL0     H 6011   4.398   6.823   8.322  1.7163 -0.1901 -1.1228
   46MOL0     H 6012   4.453   6.962   8.219 -1.7663 -1.4258 -1.9079
   46MOL0     H 6013   4.356   7.102   8.420 -3.1355  1.0386 -0.6674
   46MOL0     H 6014   4.288   6.943   8.476 -0.4443  0.5209 -0.1121
   46MOL0     H 6015   4.222   7.051   8.201 -2.1247  1.3203 -0.0601
   46MOL0     H 6016   4.187   6.886   8.255 -1.4727  0.9462 -4.6679
   46MOL0     H 6017   4.072   7.039   8.464  1.8169  0.7015 -1.2006
   46MOL0     H 6018   3.985   7.004   8.319 -0.5491 -1.7175  3.0907
   46MOL0     H 6019   4.175   7.243   8.347 -0.3843  2.2238  1.3677
   46MOL0     H 6020   4.003   7.245   8.409  1.6024 -0.0340  1.5844
   46MOL0     H 6021   4.111   7.212   8.127 -1.1324  0.9510 -2.8311
   46MOL0     H 6022   3.942   7.181   8.171  2.1497 -1.2378  0.3552
   46MOL0     H 6023   4.094   7.449   8.160 -0.4747  1.0701  0.2017
   46MOL0     H 6024   3.960   7.428   8.268  1.5327 -2.1719  1.0578
   46MOL0     H 6025   3.729   7.432   8.138 -1.8393 -0.2422 -2.2224
   46MOL0     H 6026   3.561   7.360   7.899  0.0317 -0.7986 -0.2284
   46MOL0     H 6027   3.646   7.400   7.747 -1.8033  0.8732  0.4552
   46MOL0     H 6028   3.653   7.655   7.836 -2.2470  1.6870  0.3034
   46MOL0     H 6029   3.545   7.611   7.955 -1.5132  0.7127 -1.0371
   46MOL0     H 6030   3.467   7.720   7.729 -0.6611  0.7368  2.4261
   46MOL0     H 6031   3.487   7.554   7.669 -1.0842 -2.2431  1.6140
   46MOL0     H 6032   3.332   7.494   7.862  4.5401 -2.0805 -1.7073
   46MOL0     H 6033   3.256   7.593   7.730 -2.1709 -1.5757  2.3281
   46MOL0     H 6034   3.221   7.916   8.034 -0.5008  0.1943 -1.1429
   46MOL0     H 6035   2.988   7.934   8.123  0.0534  0.7423 -1.6617
   46MOL0     H 6036   2.645   7.958   8.111 -1.9702  1.1844 -1.2639
   46MOL0     H 6037   2.441   8.088   8.192 -0.4512 -0.3772  1.0440
   46MOL0     H 6038   2.357   8.102   8.626 -1.1786  0.6803  0.8773
   46MOL0     H 6039   2.274   7.996   8.514  1.1122 -0.2773  2.5516
   46MOL0     H 6040   2.120   8.138   8.642  0.8228  0.5771  1.1694
   46MOL0     H 6041   2.109   8.178   8.473 -1.8548 -2.3297  2.3047
   46MOL0     H 6042   2.246   8.399   8.514 -3.1473 -1.1892 -2.1916
   46MOL0     H 6043   2.306   8.323   8.659  0.7518 -2.2911 -0.5998
   46MOL0     H 6044   2.137   8.370   8.794  0.0223  0.3770  0.2515
   46MOL0     H 6045   2.143   8.509   8.693  0.4064 -0.0942  0.2081
   46MOL0     H 6046   1.903   8.406   8.744  1.2763 -2.6924  1.6499
   46MOL0     H 6047   1.935   8.269   8.652 -2.5463  0.1588 -2.2759
   46MOL0     H 6048   1.833   8.389   8.485  2.8638 -3.8616 -0.7379
   46MOL0     H 6049   2.001   8.435   8.446  0.7215  1.8513  0.9917
   46MOL0     H 6050   1.809   8.612   8.586  0.4012 -1.1709  2.6201
   46MOL0     H 6051   1.983   8.630   8.607  0.3040 -3.3625  1.6342
   46MOL0     H 6052   2.025   8.624   8.357  0.9768  4.1976 -0.9698
   46MOL0     H 6053   1.936   8.763   8.411 -2.5039 -0.4050  2.0149
   46MOL0     H 6054   2.565   8.053   8.593  1.5395 -0.2374 -0.0839
   46MOL0     H 6055   2.744   7.916   8.530  1.3985  2.9365  0.6235
   46MOL0     H 6056   2.932   7.514   8.074  2.3014 -2.4639  1.0459
   46MOL0     H 6057   3.146   7.503   7.945 -0.3687  0.3994 -0.2135
   46MOL0     H 6058   4.774   6.855   8.549 -0.7256  0.2081 -0.7155
   46MOL0     H 6059   4.999   6.893   8.623 -1.9168 -0.3216 -0.3668
   46MOL0     H 6060   5.386   7.081   8.654  2.6120 -2.6656  1.9857
   46MOL0     H 6061   5.615   7.135   8.686  0.9968  0.6145 -0.6966
   46MOL0     H 6062   5.684   7.529   8.890 -2.1814 -2.2028  0.0100
   46MOL0     H 6063   5.837   7.500   8.805 -1.1060 -0.3233 -1.3512
   46MOL0     H 6064   5.805   7.503   9.084  3.0799  0.1316  0.4089
   46MOL0     H 6065   5.758   7.334   9.033 -0.9485  0.4377  3.2974
   46MOL0     H 6066   6.039   7.470   8.995 -0.1489 -1.4071 -2.8774
   46MOL0     H 6067   6.003   7.305   8.950  0.7955 -0.9722  2.2418
   46MOL0     H 6068   5.989   7.444   9.221 -0.1777  1.0943 -1.7265
   46MOL0     H 6069   5.922   7.284   9.203 -1.1944 -0.6048 -1.3208
   46MOL0     H 6070   6.314   7.169   9.281 -0.3598  0.7660  0.9688
   46MOL0     H 6071   5.502   7.463   8.950  2.6542  0.5365 -0.8998
   46MOL0     H 6072   5.272   7.425   8.898 -0.7370 -0.5047  2.6761
   47MOL0     O 6073   9.593   9.278   8.431 -0.0832  0.0494 -0.6043
   47MOL0     C 6074   9.557   9.388   8.457 -0.0267  0.3869 -0.4289
   47MOL0     O 6075   9.432   9.438   8.418  0.3635  0.0528 -0.1457
   47MOL0     C 6076   9.330   9.348   8.380 -1.6108 -0.0444 -0.0783
   47MOL0     C 6077   9.216   9.338   8.455 -0.5768  0.0697 -0.3329
   47MOL0     C 6078   9.116   9.241   8.433 -0.1334  1.1237  0.8055
   47MOL0     C 6079   9.124   9.155   8.318 -0.0742  0.3579  0.3585
   47MOL0     O 6080   9.032   9.059   8.280  0.3908  0.2234  0.3208
   47MOL0     C 6081   8.923   9.016   8.373 -0.2699  0.0935  0.3935
   47MOL0     C 6082   8.866   8.884   8.313 -0.2404  0.1393  0.3100
   47MOL0     C 6083   8.731   8.835   8.388 -0.0969  0.1565  0.6246
   47MOL0     C 6084   8.747   8.803   8.537 -0.9282  0.0659 -0.6809
   47MOL0     C 6085   8.615   8.814   8.629  0.0922 -0.1153  0.1210
   47MOL0     C 6086   8.497   8.754   8.566 -0.0980  0.9753  0.1745
   47MOL0     C 6087   8.395   8.712   8.681  1.1245  0.0063 -0.0898
   47MOL0     C 6088   8.276   8.630   8.632 -0.2299 -0.3673 -0.2550
   47MOL0     N 6089   8.190   8.706   8.541 -0.2127  0.7285 -0.1415
   47MOL0     C 6090   8.078   8.778   8.582  0.6390  0.7177  1.1960
   47MOL0     C 6091   8.019   8.804   8.459 -0.0023 -0.7571  0.1797
   47MOL0     C 6092   7.888   8.878   8.445 -0.3178  0.7829 -0.6540
   47MOL0     C 6093   7.884   9.020   8.504  0.1843 -0.4906 -0.6095
   47MOL0     C 6094   7.923   9.129   8.396 -0.4580 -1.0368  0.5154
   47MOL0     C 6095   8.079   9.121   8.370  1.5311  0.1759 -0.2632
   47MOL0     O 6096   8.159   9.091   8.487  0.2572  0.3367  0.4210
   47MOL0     C 6097   8.293   9.125   8.490  0.7230 -0.3484 -0.1257
   47MOL0     C 6098   8.342   9.118   8.617 -0.5139 -1.3625  0.0971
   47MOL0     C 6099   8.475   9.149   8.648  0.8073 -0.5918 -0.5491
   47MOL0     C 6100   8.564   9.189   8.549 -0.4993 -0.5026 -0.0812
   47MOL0     C 6101   8.704   9.218   8.575  0.2219  1.5849 -0.5856
   47MOL0     O 6102   8.758   9.146   8.676  0.2260 -0.0129 -1.5715
   47MOL0     C 6103   8.881   9.177   8.730 -0.3331 -0.6959 -0.3753
   47MOL0     C 6104   8.929   9.310   8.752  0.1110 -0.1904  0.0073
   47MOL0     C 6105   9.055   9.338   8.796  0.0069 -0.4360  0.8138
   47MOL0     C 6106   9.144   9.235   8.819  0.1351  0.0859  0.4894
   47MOL0     O 6107   9.270   9.277   8.861 -0.5574  0.2076  0.8676
   47MOL0     C 6108   9.374   9.206   8.791 -0.4605 -1.0223  0.4890
   47MOL0     C 6109   9.496   9.300   8.786  1.0529  0.1648  0.2969
   47MOL0     C 6110   9.563   9.299   8.928 -0.6217 -0.0877  0.3256
   47MOL0     C 6111   9.687   9.394   8.933 -0.4205 -0.3261  0.2514
   47MOL0     C 6112   9.765   9.376   9.067 -0.6560 -0.3762  0.1104
   47MOL0     C 6113   9.881   9.469   9.076  0.0108 -0.4844 -0.7030
   47MOL0     C 6114  10.000   9.451   8.970 -0.2405 -0.7021  0.6406
   47MOL0     C 6115  10.062   9.587   8.943 -0.0984 -0.7020 -0.6627
   47MOL0    Cl 6116  10.155   9.657   9.093  0.0383  0.2361  0.3326
   47MOL0     C 6117   9.097   9.102   8.820  0.9993  0.0611 -0.1720
   47MOL0     C 6118   8.965   9.072   8.773 -0.4973 -0.6401 -0.3557
   47MOL0     O 6119   8.759   9.302   8.507 -0.1162  0.8120  0.4897
   47MOL0     C 6120   8.505   9.204   8.419 -0.5609  0.1753 -0.3348
   47MOL0     C 6121   8.367   9.163   8.387  0.6573  0.2912 -0.0513
   47MOL0     N 6122   8.102   8.760   8.354  0.2145 -0.2594 -0.0638
   47MOL0     N 6123   8.194   8.689   8.407  0.0738  0.3455  0.4207
   47MOL0     C 6124   9.237   9.170   8.239 -0.4609 -0.6616  0.7148
   47MOL0     C 6125   9.342   9.259   8.270  0.7491  0.6891 -0.3343
   47MOL0     C 6126   9.660   9.488   8.502  0.4222  0.0388 -0.0223
   47MOL0     C 6127   9.781   9.454   8.555  0.0403  0.6092  0.6637
   47MOL0     C 6128   9.858   9.546   8.621 -0.6373  0.2033  0.4478
   47MOL0     C 6129   9.822   9.683   8.632 -0.7232 -0.4194  0.3754
   47MOL0     O 6130   9.913   9.768   8.699  0.1195  0.2929 -0.1730
   47MOL0     C 6131   9.920   9.904   8.682 -0.8548 -0.1132  0.3442
   47MOL0     C 6132  10.050   9.930   8.591 -0.0103  0.6333  0.4182
   47MOL0     C 6133  10.162   9.881   8.667  0.0446  0.9928 -0.5228
   47MOL0     C 6134  10.287   9.884   8.580 -0.3782 -0.0856 -0.5331
   47MOL0     C 6135  10.323  10.025   8.551  0.6302  0.6890  0.3389
   47MOL0     C 6136  10.338  10.140   8.533  0.2835 -0.2996  0.3744
   47MOL0     C 6137   9.700   9.725   8.577 -0.2059  0.2751 -0.1542
   47MOL0     C 6138   9.623   9.622   8.518  0.4655 -0.4628  0.0843
   47MOL0     H 6139   9.199   9.410   8.535 -1.4292 -0.4553 -0.0275
   47MOL0     H 6140   9.027   9.228   8.494 -2.0296 -1.9016 -2.2886
   47MOL0     H 6141   8.844   9.091   8.383 -0.1387 -0.0018  2.6347
   47MOL0     H 6142   8.956   8.994   8.475  2.2036  2.0731  0.1291
   47MOL0     H 6143   8.946   8.809   8.311  0.6724  1.0679  1.2268
   47MOL0     H 6144   8.837   8.887   8.208 -0.0232 -3.3249  0.0331
   47MOL0     H 6145   8.698   8.744   8.337 -0.2404  0.9755 -0.7962
   47MOL0     H 6146   8.658   8.913   8.364 -0.5615 -0.3000  0.5158
   47MOL0     H 6147   8.778   8.698   8.542  0.0037  0.3172 -1.0624
   47MOL0     H 6148   8.831   8.863   8.572 -0.8915  0.8898 -2.0859
   47MOL0     H 6149   8.603   8.922   8.635  0.3372 -0.0941  0.2312
   47MOL0     H 6150   8.650   8.781   8.727  1.3799  0.4189 -0.1399
   47MOL0     H 6151   8.524   8.671   8.500  0.8624 -1.0279  2.8971
   47MOL0     H 6152   8.441   8.831   8.513  0.8679  1.0348 -0.7785
   47MOL0     H 6153   8.449   8.647   8.752 -1.3747 -0.5431  1.4194
   47MOL0     H 6154   8.359   8.798   8.739  2.7682  2.4421 -2.4478
   47MOL0     H 6155   8.218   8.585   8.712  0.5413 -3.1142 -1.1431
   47MOL0     H 6156   8.301   8.539   8.578 -0.5965 -0.7613  0.2296
   47MOL0     H 6157   8.035   8.815   8.675  0.3681 -0.3065  1.4876
   47MOL0     H 6158   7.809   8.826   8.502 -1.3637  2.4871 -0.4871
   47MOL0     H 6159   7.855   8.880   8.341 -2.1136  3.7973 -0.1489
   47MOL0     H 6160   7.940   9.020   8.598 -0.7629  0.4839 -0.0193
   47MOL0     H 6161   7.778   9.027   8.530 -0.1452 -0.1605 -1.9705
   47MOL0     H 6162   7.869   9.114   8.302  0.2986  0.0420 -0.1194
   47MOL0     H 6163   7.886   9.227   8.428  0.2289 -0.7611  0.4697
   47MOL0     H 6164   8.103   9.216   8.322 -2.9499  1.5245 -0.3209
   47MOL0     H 6165   8.086   9.043   8.294 -1.4502  0.4064 -0.9123
   47MOL0     H 6166   8.280   9.090   8.701  0.3185  2.0664  2.0451
   47MOL0     H 6167   8.513   9.148   8.750  0.1720 -3.3344 -0.2659
   47MOL0     H 6168   8.863   9.392   8.727 -1.4077 -0.2402  3.2620
   47MOL0     H 6169   9.079   9.442   8.814 -0.4911 -0.3927  1.2668
   47MOL0     H 6170   9.353   9.184   8.686  0.0454 -0.6243  0.3012
   47MOL0     H 6171   9.403   9.119   8.851  2.0466  1.6026  3.4477
   47MOL0     H 6172   9.451   9.395   8.755  2.9903  0.6163 -1.3544
   47MOL0     H 6173   9.559   9.262   8.705 -0.8118 -3.5605  0.3920
   47MOL0     H 6174   9.590   9.196   8.953  2.9194 -0.6959 -4.6054
   47MOL0     H 6175   9.494   9.337   9.005  1.4963 -1.2492  2.9819
   47MOL0     H 6176   9.755   9.364   8.853  0.5651  0.0122  0.9328
   47MOL0     H 6177   9.658   9.495   8.901  0.2649 -0.2639 -0.1804
   47MOL0     H 6178   9.806   9.276   9.079  0.9912  0.5389  2.8786
   47MOL0     H 6179   9.692   9.389   9.147 -0.3702 -1.7422  0.6039
   47MOL0     H 6180   9.921   9.471   9.178  2.0220 -0.1612 -1.4389
   47MOL0     H 6181   9.845   9.571   9.065  1.4631  0.1743  0.3018
   47MOL0     H 6182  10.079   9.387   9.009  0.0280 -0.6429  0.2071
   47MOL0     H 6183   9.962   9.413   8.874 -0.8162  0.9252  0.1869
   47MOL0     H 6184   9.988   9.659   8.908 -1.3296 -1.2526  0.6966
   47MOL0     H 6185  10.134   9.575   8.861  1.9765 -1.8162  1.1915
   47MOL0     H 6186   9.146   9.015   8.860  0.3182  0.3639  1.3741
   47MOL0     H 6187   8.929   8.970   8.771  0.0488 -0.9612  2.1137
   47MOL0     H 6188   8.576   9.234   8.343 -0.6719  0.5682 -0.2862
   47MOL0     H 6189   8.311   9.163   8.294 -2.6435  2.5905  1.7103
   47MOL0     H 6190   9.248   9.100   8.157  3.5709  1.5768 -0.9479
   47MOL0     H 6191   9.427   9.267   8.204 -0.3413  3.2250 -1.6002
   47MOL0     H 6192   9.807   9.349   8.551  0.5220  0.7721 -2.2368
   47MOL0     H 6193   9.954   9.512   8.659  0.0746 -0.6631 -1.9709
   47MOL0     H 6194   9.925   9.956   8.778  0.7581  1.5390 -0.5368
   47MOL0     H 6195   9.829   9.933   8.629  0.0080  0.2883 -0.9692
   47MOL0     H 6196  10.036   9.888   8.492 -1.7533  5.0661 -1.4957
   47MOL0     H 6197  10.062  10.037   8.570 -2.0287  0.6575 -0.9228
   47MOL0     H 6198  10.152   9.773   8.683  1.0640  0.7238 -1.5636
   47MOL0     H 6199  10.175   9.937   8.761 -1.2831  1.4868 -0.6136
   47MOL0     H 6200  10.367   9.834   8.636 -1.4968 -3.2341 -1.5248
   47MOL0     H 6201  10.270   9.828   8.488  0.3715 -1.1477 -0.0423
   47MOL0     H 6202  10.347  10.245   8.514 -1.1619  0.4260  3.0755
   47MOL0     H 6203   9.675   9.830   8.572 -1.3699  0.0796  1.0302
   47MOL0     H 6204   9.522   9.650   8.493  0.0594 -2.4008 -0.6289
   48MOL0     O 6205   0.081   7.520   5.645 -0.2727  0.7399 -0.2659
   48MOL0     C 6206   0.131   7.446   5.559  0.1926  0.4342  0.3759
   48MOL0     O 6207   0.057   7.375   5.465 -0.2009 -0.2412  0.1452
   48MOL0     C 6208  -0.084   7.370   5.464 -0.3868 -0.2566  0.0848
   48MOL0     C 6209  -0.134   7.332   5.332  0.9815 -0.2411 -0.1337
   48MOL0     C 6210  -0.273   7.329   5.320 -0.6329  0.4278 -0.1899
   48MOL0     C 6211  -0.359   7.343   5.428 -0.3626 -0.2300 -0.6129
   48MOL0     O 6212  -0.493   7.336   5.394  0.5326 -0.7265  0.5226
   48MOL0     C 6213  -0.593   7.392   5.477  0.4711  0.3684  0.1181
   48MOL0     C 6214  -0.713   7.408   5.396  0.1644 -0.0099 -0.3455
   48MOL0     C 6215  -0.771   7.271   5.361  0.2888  0.5463  0.3549
   48MOL0     C 6216  -0.901   7.295   5.287 -0.6253  0.4016  0.0512
   48MOL0     C 6217  -0.957   7.176   5.194 -0.3758 -0.3634 -0.2636
   48MOL0     C 6218  -1.000   7.060   5.280 -0.0921 -0.4333  0.0152
   48MOL0     C 6219  -1.061   6.928   5.217 -0.0617 -0.3888 -0.4532
   48MOL0     C 6220  -1.185   6.957   5.139  0.4527 -0.7716  0.3105
   48MOL0     N 6221  -1.254   6.836   5.092  0.0230 -0.7452 -0.1016
   48MOL0     C 6222  -1.382   6.825   5.062 -0.0266 -0.2088  0.5396
   48MOL0     C 6223  -1.408   6.692   5.027 -0.3819 -0.8327  0.2709
   48MOL0     C 6224  -1.545   6.624   4.986  1.0398 -0.8450  0.3498
   48MOL0     C 6225  -1.504   6.498   4.897  0.5250 -0.4266  0.0183
   48MOL0     C 6226  -1.613   6.420   4.822 -0.4952  0.3466  0.1751
   48MOL0     C 6227  -1.697   6.344   4.921  0.1774 -0.2246  0.4627
   48MOL0     O 6228  -1.788   6.257   4.844 -0.0840 -0.2806 -0.3377
   48MOL0     C 6229  -1.874   6.172   4.916 -0.0080  0.0807 -0.4213
   48MOL0     C 6230  -1.945   6.080   4.841 -0.3286 -0.4446  0.7638
   48MOL0     C 6231  -2.050   6.004   4.892 -0.1088  0.3378 -0.4418
   48MOL0     C 6232  -2.088   6.023   5.029 -0.0607 -0.0496 -0.2193
   48MOL0     C 6233  -2.203   5.950   5.089  0.5009 -0.2208 -0.2535
   48MOL0     O 6234  -2.178   5.900   5.213  0.3668  0.0411 -0.3762
   48MOL0     C 6235  -2.257   5.814   5.281  1.3436 -0.0448  0.7452
   48MOL0     C 6236  -2.208   5.688   5.317  0.1624 -0.3148 -0.1091
   48MOL0     C 6237  -2.301   5.591   5.371 -0.3165 -0.1745 -0.4315
   48MOL0     C 6238  -2.442   5.622   5.387  0.4181  0.4405  0.2981
   48MOL0     O 6239  -2.523   5.520   5.431 -0.2586 -0.1784 -0.3014
   48MOL0     C 6240  -2.668   5.543   5.435  0.0143 -0.0356  0.5996
   48MOL0     C 6241  -2.736   5.415   5.486 -0.0223  0.2026  0.4522
   48MOL0     C 6242  -2.703   5.366   5.621 -0.3945 -0.2765  1.1166
   48MOL0     C 6243  -2.804   5.277   5.691 -0.2184 -0.0764 -0.1894
   48MOL0     C 6244  -2.932   5.340   5.753  0.1292 -0.3826 -0.3418
   48MOL0     C 6245  -3.034   5.219   5.792  0.7515 -0.4378 -0.0543
   48MOL0     C 6246  -3.174   5.264   5.804  0.4895 -0.1762 -0.1588
   48MOL0     C 6247  -3.236   5.296   5.666 -0.1913  0.0890  0.8685
   48MOL0    Cl 6248  -3.408   5.256   5.645 -0.4637 -0.4778  0.3827
   48MOL0     C 6249  -2.478   5.761   5.366 -0.7586 -0.4353  0.5017
   48MOL0     C 6250  -2.392   5.855   5.311 -0.3147  0.5149  0.4239
   48MOL0     O 6251  -2.298   5.928   5.016  0.1752  0.0608 -1.0037
   48MOL0     C 6252  -2.012   6.110   5.106 -0.2640  0.3034  0.3955
   48MOL0     C 6253  -1.908   6.181   5.048 -0.5177  0.2340 -0.9311
   48MOL0     N 6254  -1.290   6.622   5.045  0.2725 -0.4208 -0.1903
   48MOL0     N 6255  -1.203   6.710   5.077 -0.7516 -0.4250  0.7865
   48MOL0     C 6256  -0.308   7.366   5.560 -0.6139  0.6977  0.2886
   48MOL0     C 6257  -0.168   7.380   5.573 -0.2965  0.3128 -1.2289
   48MOL0     C 6258   0.273   7.417   5.557 -0.8155 -0.7211  0.3933
   48MOL0     C 6259   0.337   7.317   5.481  0.6104  0.2689 -0.4413
   48MOL0     C 6260   0.478   7.294   5.483  0.3641 -0.1593 -0.0174
   48MOL0     C 6261   0.552   7.380   5.569 -0.0595  0.3171  0.1518
   48MOL0     O 6262   0.690   7.369   5.589  0.7989 -0.3655  0.3828
   48MOL0     C 6263   0.748   7.262   5.514 -0.0453  0.1197  0.3480
   48MOL0     C 6264   0.896   7.268   5.533 -0.7710  0.2507 -0.6388
   48MOL0     C 6265   0.950   7.132   5.478  0.8174 -0.0317  0.2752
   48MOL0     C 6266   1.104   7.139   5.450 -0.0262  0.4405  0.4877
   48MOL0     C 6267   1.174   7.187   5.568  0.2044  0.5837 -0.4281
   48MOL0     C 6268   1.236   7.237   5.663  0.2777  0.0462 -0.1418
   48MOL0     C 6269   0.487   7.486   5.635  0.2748 -0.2884  0.7449
   48MOL0     C 6270   0.354   7.507   5.624 -0.5099  0.6442  0.8010
   48MOL0     H 6271  -0.072   7.327   5.244  0.9298 -1.2504 -0.1288
   48MOL0     H 6272  -0.314   7.327   5.220 -1.6530 -1.4095  0.2227
   48MOL0     H 6273  -0.556   7.482   5.528  3.4309 -0.2304 -0.7656
   48MOL0     H 6274  -0.618   7.342   5.571  0.5898  1.3646  0.6985
   48MOL0     H 6275  -0.699   7.468   5.305 -3.0681 -0.8609 -1.5270
   48MOL0     H 6276  -0.789   7.447   5.463  1.1210 -1.0024  1.3774
   48MOL0     H 6277  -0.796   7.224   5.456 -1.1688  0.3776 -0.0857
   48MOL0     H 6278  -0.702   7.205   5.306 -0.1376  0.0478  0.4111
   48MOL0     H 6279  -0.980   7.341   5.348 -2.1060 -2.9515  0.8759
   48MOL0     H 6280  -0.877   7.366   5.208 -0.0216 -1.5223 -1.5702
   48MOL0     H 6281  -0.877   7.143   5.128 -0.7768 -0.8150 -0.5374
   48MOL0     H 6282  -1.041   7.206   5.130 -1.2911 -0.2618  0.9314
   48MOL0     H 6283  -1.067   7.097   5.357  0.7365  0.4759  0.3264
   48MOL0     H 6284  -0.906   7.036   5.331  0.6498  1.1577 -0.5310
   48MOL0     H 6285  -0.987   6.874   5.157 -0.3192 -2.8423  1.2837
   48MOL0     H 6286  -1.075   6.853   5.296 -0.6559 -1.8412 -1.8768
   48MOL0     H 6287  -1.171   7.029   5.057 -2.6020 -0.1806  0.1773
   48MOL0     H 6288  -1.260   7.007   5.202  1.4986 -0.9553  1.7376
   48MOL0     H 6289  -1.461   6.899   5.067 -0.7702 -0.9370 -0.0645
   48MOL0     H 6290  -1.606   6.691   4.925 -2.9392 -2.9383  1.6714
   48MOL0     H 6291  -1.611   6.603   5.070  1.0732  1.9153  1.1712
   48MOL0     H 6292  -1.456   6.427   4.965 -0.1432 -0.5439  0.3693
   48MOL0     H 6293  -1.435   6.537   4.821  0.3052  1.6118  0.8221
   48MOL0     H 6294  -1.677   6.488   4.765  0.5452 -1.0767 -2.9345
   48MOL0     H 6295  -1.559   6.352   4.755  1.2003  0.3771  1.4308
   48MOL0     H 6296  -1.757   6.415   4.977 -2.2488 -0.8548 -1.1647
   48MOL0     H 6297  -1.630   6.291   4.990  4.1873  2.5256 -0.9664
   48MOL0     H 6298  -1.920   6.071   4.736 -3.5935 -0.9302 -0.0543
   48MOL0     H 6299  -2.092   5.923   4.833 -0.9290 -0.5406  1.2518
   48MOL0     H 6300  -2.108   5.655   5.292 -0.8012 -3.0253 -0.6858
   48MOL0     H 6301  -2.278   5.490   5.402 -2.3805 -0.0418  1.7943
   48MOL0     H 6302  -2.710   5.560   5.335 -0.1755 -0.6800  0.5620
   48MOL0     H 6303  -2.702   5.621   5.504  2.3124  0.6145  1.0776
   48MOL0     H 6304  -2.733   5.327   5.421 -1.1547  0.0485  0.5923
   48MOL0     H 6305  -2.842   5.442   5.478  0.4566  1.8391 -0.9039
   48MOL0     H 6306  -2.681   5.459   5.674 -2.0089  2.3328 -2.3641
   48MOL0     H 6307  -2.617   5.301   5.598 -0.7025 -0.8070  1.4434
   48MOL0     H 6308  -2.844   5.202   5.623 -4.0203  1.5728 -0.0144
   48MOL0     H 6309  -2.745   5.231   5.771 -2.6562 -1.5596  0.8783
   48MOL0     H 6310  -2.980   5.402   5.677 -0.1851 -1.3099 -0.9241
   48MOL0     H 6311  -2.906   5.399   5.841  2.1894  1.0982 -1.8459
   48MOL0     H 6312  -3.020   5.184   5.895  0.3710  2.0357  0.9128
   48MOL0     H 6313  -3.025   5.132   5.726 -2.9513  0.2975 -1.7458
   48MOL0     H 6314  -3.233   5.187   5.854 -1.1724  1.8140  1.1307
   48MOL0     H 6315  -3.186   5.351   5.869 -0.1180  0.1606 -0.7049
   48MOL0     H 6316  -3.175   5.249   5.588  0.3882 -0.2547  1.5210
   48MOL0     H 6317  -3.228   5.403   5.642 -0.7914 -0.3617 -1.6500
   48MOL0     H 6318  -2.583   5.781   5.387 -0.7094 -0.4326  0.7461
   48MOL0     H 6319  -2.433   5.952   5.285  0.2675  0.1818 -2.0134
   48MOL0     H 6320  -2.021   6.120   5.214  2.3921 -1.3140  0.8502
   48MOL0     H 6321  -1.848   6.242   5.115 -0.6375 -0.4791 -0.1523
   48MOL0     H 6322  -0.372   7.375   5.648 -0.5225 -2.2844  0.7968
   48MOL0     H 6323  -0.139   7.408   5.673  1.6283  0.2325 -1.7220
   48MOL0     H 6324   0.290   7.251   5.408  1.5545 -3.3538  1.9342
   48MOL0     H 6325   0.509   7.209   5.423  0.5712 -2.5292  3.1580
   48MOL0     H 6326   0.730   7.260   5.406  0.0432 -0.5535  0.3424
   48MOL0     H 6327   0.704   7.170   5.554  2.3242 -0.5914  1.4530
   48MOL0     H 6328   0.935   7.351   5.473 -0.8108 -0.4315 -1.6436
   48MOL0     H 6329   0.924   7.269   5.638 -2.9435  0.0416 -0.0041
   48MOL0     H 6330   0.901   7.114   5.382  1.0192 -1.7057  0.4599
   48MOL0     H 6331   0.935   7.056   5.555  3.6211  0.7242  1.7149
   48MOL0     H 6332   1.131   7.036   5.426 -0.0508 -0.0687  2.4448
   48MOL0     H 6333   1.129   7.199   5.362 -1.3865  1.7548  0.9525
   48MOL0     H 6334   1.273   7.282   5.753  1.6396  1.1210 -1.2169
   48MOL0     H 6335   0.543   7.557   5.695 -1.6772  0.0678  2.2738
   48MOL0     H 6336   0.305   7.586   5.680 -3.1795 -1.5415  1.7715
   49MOL0     O 6337   8.174   8.151   2.939 -0.0562 -0.2158 -0.3627
   49MOL0     C 6338   8.125   8.043   2.967  0.2317  0.3325 -0.5236
   49MOL0     O 6339   8.023   7.973   2.898  0.4314  0.3729  0.2731
   49MOL0     C 6340   7.960   8.026   2.783  0.3009 -0.0805 -0.0419
   49MOL0     C 6341   7.963   8.160   2.745  1.0438 -0.9747  0.0616
   49MOL0     C 6342   7.880   8.199   2.639 -0.0170  0.4708  0.9889
   49MOL0     C 6343   7.798   8.104   2.567 -0.2308  0.0069  0.1458
   49MOL0     O 6344   7.719   8.149   2.468 -0.2059  0.0231 -0.8818
   49MOL0     C 6345   7.763   8.100   2.344 -0.2376  0.5563  0.7839
   49MOL0     C 6346   7.686   8.168   2.232 -0.3356  0.0595 -1.0043
   49MOL0     C 6347   7.533   8.149   2.238  0.9998  0.0241 -0.0825
   49MOL0     C 6348   7.455   8.213   2.131  0.7578  0.3089  0.3596
   49MOL0     C 6349   7.306   8.166   2.122  0.1760  0.0527  0.5146
   49MOL0     C 6350   7.225   8.205   2.250 -0.1256  0.1614 -0.2009
   49MOL0     C 6351   7.067   8.169   2.231  0.0614 -0.5863  0.7186
   49MOL0     C 6352   6.974   8.215   2.346 -0.3135  0.4800  1.1046
   49MOL0     N 6353   6.828   8.207   2.309 -0.1261 -0.0518 -0.6105
   49MOL0     C 6354   6.763   8.258   2.194 -0.1071 -0.7170  0.1338
   49MOL0     C 6355   6.647   8.194   2.179  0.2769 -0.6615 -0.4528
   49MOL0     C 6356   6.552   8.217   2.061  0.1024 -0.1762  0.8634
   49MOL0     C 6357   6.430   8.301   2.101 -0.8105 -0.0406  0.0536
   49MOL0     C 6358   6.320   8.227   2.173 -0.4987 -0.7593 -0.2354
   49MOL0     C 6359   6.216   8.330   2.234 -0.2091 -0.4492  0.5585
   49MOL0     O 6360   6.149   8.421   2.132 -0.0394 -0.4236  0.5260
   49MOL0     C 6361   6.050   8.506   2.176 -0.2607 -0.2806  0.1151
   49MOL0     C 6362   6.014   8.520   2.302  0.2056  0.1094  0.2527
   49MOL0     C 6363   5.903   8.592   2.339 -0.7985 -0.3321 -0.0851
   49MOL0     C 6364   5.826   8.657   2.245 -0.1450 -0.3024  0.3406
   49MOL0     C 6365   5.717   8.743   2.284  0.3094 -0.5531 -0.5032
   49MOL0     O 6366   5.695   8.752   2.418 -0.9960 -0.0652  0.3855
   49MOL0     C 6367   5.596   8.820   2.475  0.4251  0.1107 -0.3038
   49MOL0     C 6368   5.475   8.852   2.411  0.0820  0.0662  0.3924
   49MOL0     C 6369   5.382   8.936   2.473  0.2377  0.3078  0.0621
   49MOL0     C 6370   5.395   8.975   2.605  0.4826  0.0882  0.2725
   49MOL0     O 6371   5.297   9.054   2.656  0.1308  0.2566  0.5610
   49MOL0     C 6372   5.324   9.095   2.794  0.2650 -0.0635  0.1892
   49MOL0     C 6373   5.219   9.207   2.834 -0.2971 -0.3842  0.0107
   49MOL0     C 6374   5.084   9.136   2.853  0.6260 -1.1763  0.2878
   49MOL0     C 6375   4.968   9.229   2.904 -0.8561 -0.4962  0.6634
   49MOL0     C 6376   4.832   9.160   2.887 -0.4933 -0.1809  0.1328
   49MOL0     C 6377   4.724   9.221   2.982 -0.5794 -0.0198 -1.0254
   49MOL0     C 6378   4.576   9.179   2.964  0.2412  0.7225  0.3702
   49MOL0     C 6379   4.523   9.223   2.833  0.5785 -0.0239  0.4877
   49MOL0    Cl 6380   4.358   9.153   2.804 -0.1405  0.1122 -0.3163
   49MOL0     C 6381   5.501   8.921   2.673  0.3080  0.2424 -0.0866
   49MOL0     C 6382   5.607   8.848   2.614  0.0700  0.0919  0.0672
   49MOL0     O 6383   5.669   8.824   2.200  0.3097  0.8332  0.4158
   49MOL0     C 6384   5.864   8.637   2.111  0.1617 -0.5480 -0.5312
   49MOL0     C 6385   5.974   8.557   2.069 -0.2963 -0.0752 -0.1546
   49MOL0     N 6386   6.629   8.109   2.290 -0.7072 -0.4837  0.3267
   49MOL0     N 6387   6.742   8.110   2.356 -0.1730 -0.3715 -0.6469
   49MOL0     C 6388   7.796   7.972   2.608 -0.2505  0.0340  0.0369
   49MOL0     C 6389   7.873   7.931   2.719 -0.1465  0.9427 -0.4090
   49MOL0     C 6390   8.175   7.987   3.094  0.7223 -0.5343  0.0055
   49MOL0     C 6391   8.251   8.059   3.183 -0.5638 -0.5394 -0.9610
   49MOL0     C 6392   8.297   7.999   3.302 -0.6993 -0.3453 -0.7930
   49MOL0     C 6393   8.273   7.864   3.329  0.0878  0.7565  0.0104
   49MOL0     O 6394   8.297   7.812   3.454  0.1522  0.3041 -0.3142
   49MOL0     C 6395   8.355   7.680   3.472  0.8479 -0.3897  0.4668
   49MOL0     C 6396   8.264   7.575   3.526  0.6691 -0.7487 -1.1949
   49MOL0     C 6397   8.333   7.440   3.540 -0.3592 -0.2437  0.0869
   49MOL0     C 6398   8.248   7.314   3.583  0.1435 -0.7004  0.6039
   49MOL0     C 6399   8.170   7.342   3.707 -0.3327  0.2118  0.3555
   49MOL0     C 6400   8.103   7.378   3.805  1.5068  0.1954  0.2361
   49MOL0     C 6401   8.201   7.789   3.236  0.9785 -0.0088  0.2690
   49MOL0     C 6402   8.149   7.842   3.118  0.2851 -0.4611  0.6235
   49MOL0     H 6403   8.013   8.239   2.799  0.3743 -0.9914  0.7194
   49MOL0     H 6404   7.877   8.305   2.617 -0.0505  0.5731  1.4768
   49MOL0     H 6405   7.747   7.992   2.346 -0.2587  0.5568  0.5901
   49MOL0     H 6406   7.863   8.135   2.318 -0.5456 -1.2764 -3.7459
   49MOL0     H 6407   7.727   8.129   2.138 -0.8247 -1.2985 -0.6891
   49MOL0     H 6408   7.706   8.275   2.230 -0.0181  0.0631  0.8612
   49MOL0     H 6409   7.501   8.194   2.332  2.8562  2.1468 -0.3899
   49MOL0     H 6410   7.498   8.045   2.231  2.0563 -0.4052  0.8161
   49MOL0     H 6411   7.461   8.322   2.136 -0.0945  0.4937 -1.5340
   49MOL0     H 6412   7.506   8.182   2.039  1.2046 -0.6654  0.9280
   49MOL0     H 6413   7.302   8.059   2.097  1.8278  0.4625 -1.7940
   49MOL0     H 6414   7.259   8.222   2.041  0.4232 -3.4569 -2.2794
   49MOL0     H 6415   7.234   8.312   2.269 -0.6119  0.4047 -1.2510
   49MOL0     H 6416   7.264   8.161   2.342  0.5208  3.3883  1.2005
   49MOL0     H 6417   7.030   8.224   2.144 -1.2866 -0.1656  1.5255
   49MOL0     H 6418   7.063   8.060   2.229  2.8525 -0.7445 -0.5128
   49MOL0     H 6419   6.985   8.323   2.359  3.2976  0.5697 -1.2180
   49MOL0     H 6420   7.003   8.165   2.439 -1.0471  2.3997  2.4248
   49MOL0     H 6421   6.804   8.332   2.125  1.7620 -0.1036  1.8171
   49MOL0     H 6422   6.524   8.122   2.014 -2.1054  0.8665 -0.0699
   49MOL0     H 6423   6.596   8.277   1.981 -0.5468  0.1180  0.7215
   49MOL0     H 6424   6.390   8.339   2.006  0.2887 -1.1117 -0.8692
   49MOL0     H 6425   6.467   8.388   2.157  1.6104 -0.8746 -0.1283
   49MOL0     H 6426   6.280   8.149   2.107  3.1611 -2.4937 -0.6222
   49MOL0     H 6427   6.363   8.164   2.251 -1.1114 -2.3174 -1.1054
   49MOL0     H 6428   6.263   8.378   2.320  1.9501 -0.2935 -0.6250
   49MOL0     H 6429   6.133   8.271   2.275 -2.4940  0.6651 -2.1212
   49MOL0     H 6430   6.063   8.470   2.385  0.0846  0.5702  0.6069
   49MOL0     H 6431   5.867   8.589   2.441 -2.9900  2.0384 -0.6796
   49MOL0     H 6432   5.460   8.832   2.305 -2.4582  1.4232  0.4234
   49MOL0     H 6433   5.298   8.981   2.422 -0.5701 -0.0522  1.0642
   49MOL0     H 6434   5.424   9.138   2.802 -0.5206  1.8397  0.1644
   49MOL0     H 6435   5.318   9.006   2.857  0.4049  0.7742  1.4184
   49MOL0     H 6436   5.216   9.286   2.758  2.1900 -0.0343  0.1685
   49MOL0     H 6437   5.251   9.246   2.931  0.7663 -3.3975  1.0088
   49MOL0     H 6438   5.094   9.050   2.921  4.8836 -1.4098 -0.4008
   49MOL0     H 6439   5.060   9.097   2.753  0.8741 -0.0753 -0.2144
   49MOL0     H 6440   4.991   9.242   3.010  0.7403 -0.2423  0.3215
   49MOL0     H 6441   4.964   9.323   2.848 -0.6615 -1.3308 -0.7853
   49MOL0     H 6442   4.837   9.053   2.905  0.1426 -0.7310 -2.8442
   49MOL0     H 6443   4.795   9.173   2.785 -0.3153  1.7837  0.2771
   49MOL0     H 6444   4.745   9.326   2.964  0.7965  0.1728  1.2993
   49MOL0     H 6445   4.749   9.211   3.088 -1.2276  1.5554 -0.7077
   49MOL0     H 6446   4.564   9.071   2.977  0.9817  0.3491 -1.6581
   49MOL0     H 6447   4.526   9.230   3.047  1.3632  3.0698 -0.3057
   49MOL0     H 6448   4.583   9.184   2.750 -0.9422 -2.1795  0.3001
   49MOL0     H 6449   4.530   9.332   2.834  3.4540 -0.1270 -0.2288
   49MOL0     H 6450   5.512   8.940   2.779 -2.7636 -0.2811  0.4057
   49MOL0     H 6451   5.681   8.813   2.685 -0.2241 -0.9691 -0.1369
   49MOL0     H 6452   5.824   8.705   2.037  1.2819  1.6310  0.7509
   49MOL0     H 6453   5.986   8.524   1.966 -1.0755 -0.8312 -0.0169
   49MOL0     H 6454   7.731   7.896   2.564 -0.6837 -0.2732  1.1762
   49MOL0     H 6455   7.866   7.831   2.759  0.1444  1.3013  0.5866
   49MOL0     H 6456   8.254   8.167   3.178 -2.1744 -0.3203  1.2286
   49MOL0     H 6457   8.329   8.066   3.381 -2.5132 -0.8947  0.4792
   49MOL0     H 6458   8.439   7.679   3.542 -0.7005  0.7188  2.4728
   49MOL0     H 6459   8.385   7.648   3.372  0.9211 -0.0284  0.3740
   49MOL0     H 6460   8.220   7.601   3.623  1.4297 -0.6148 -0.8765
   49MOL0     H 6461   8.175   7.577   3.463 -1.2437  2.6942  1.2436
   49MOL0     H 6462   8.419   7.452   3.607  2.0537 -0.4587 -2.7943
   49MOL0     H 6463   8.377   7.416   3.443  1.5773  0.5475  0.7200
   49MOL0     H 6464   8.181   7.287   3.500  0.5845 -0.1068  0.0465
   49MOL0     H 6465   8.319   7.233   3.598  0.8619 -0.1859  0.0455
   49MOL0     H 6466   8.045   7.424   3.882  1.6551  2.6660 -1.0208
   49MOL0     H 6467   8.190   7.682   3.253  1.8890 -0.4755 -1.7165
   49MOL0     H 6468   8.095   7.781   3.047 -0.1225 -0.2351  0.7319
   50MOL0     O 6469   2.642   6.764   2.138 -0.2688  0.7990  0.1154
   50MOL0     C 6470   2.576   6.776   2.245 -0.3075 -0.2246  0.8417
   50MOL0     O 6471   2.485   6.686   2.295 -0.4911  0.0466  0.1381
   50MOL0     C 6472   2.438   6.580   2.230  0.2572 -0.7450 -0.6015
   50MOL0     C 6473   2.305   6.563   2.236 -0.2367 -0.0347  0.1315
   50MOL0     C 6474   2.239   6.449   2.178 -1.0851  0.8893 -0.6126
   50MOL0     C 6475   2.321   6.349   2.124  0.6004  0.7988 -0.0354
   50MOL0     O 6476   2.262   6.237   2.068 -0.2435 -0.7258 -1.0934
   50MOL0     C 6477   2.231   6.236   1.928  0.6604 -0.9062 -0.1007
   50MOL0     C 6478   2.347   6.194   1.840 -0.7997 -0.6105 -0.6742
   50MOL0     C 6479   2.311   6.119   1.710 -0.9166 -0.3630  0.4700
   50MOL0     C 6480   2.224   6.209   1.622 -0.3756  0.3780  0.1827
   50MOL0     C 6481   2.208   6.147   1.480 -0.4486 -0.1042 -0.1099
   50MOL0     C 6482   2.342   6.163   1.406  0.0650  0.0240 -0.6836
   50MOL0     C 6483   2.327   6.103   1.254 -0.0678  0.0479  0.2275
   50MOL0     C 6484   2.457   6.056   1.199  0.3636 -1.9266 -0.8391
   50MOL0     N 6485   2.552   6.169   1.180  0.0508 -0.1872 -0.2126
   50MOL0     C 6486   2.656   6.178   1.270 -0.3759 -0.1105 -0.1830
   50MOL0     C 6487   2.754   6.256   1.218  0.3867 -0.2614  0.1591
   50MOL0     C 6488   2.870   6.322   1.283 -1.2798 -0.1189 -0.2625
   50MOL0     C 6489   3.007   6.249   1.297 -0.2988 -0.2510 -0.1039
   50MOL0     C 6490   3.075   6.237   1.156  0.1275  0.0874  0.7235
   50MOL0     C 6491   3.210   6.165   1.167  0.5290  0.1260 -0.7142
   50MOL0     O 6492   3.309   6.256   1.214 -0.2602 -0.9265 -0.0745
   50MOL0     C 6493   3.439   6.210   1.235  0.4563  0.0951  0.9004
   50MOL0     C 6494   3.533   6.295   1.296  0.2633 -0.1906  0.2255
   50MOL0     C 6495   3.653   6.246   1.328 -0.9453 -0.1596 -0.8577
   50MOL0     C 6496   3.699   6.122   1.291 -0.9328  0.2049 -0.4452
   50MOL0     C 6497   3.841   6.079   1.306 -0.2318  0.4329  0.4454
   50MOL0     O 6498   3.885   5.975   1.222  1.0669 -0.1704 -0.4221
   50MOL0     C 6499   4.015   5.937   1.241 -0.1249 -0.7444 -1.0813
   50MOL0     C 6500   4.065   5.893   1.364 -0.2258 -0.2943  1.1344
   50MOL0     C 6501   4.207   5.876   1.380 -0.5932  0.0542  0.3985
   50MOL0     C 6502   4.299   5.914   1.272 -0.0875  0.1475  0.7167
   50MOL0     O 6503   4.430   5.902   1.267 -0.2177 -0.0457  0.9790
   50MOL0     C 6504   4.479   5.787   1.336 -0.8764 -0.1105  0.4365
   50MOL0     C 6505   4.633   5.793   1.334  0.4222  0.1503  0.2539
   50MOL0     C 6506   4.690   5.796   1.185 -0.1247 -1.1611 -0.1922
   50MOL0     C 6507   4.848   5.777   1.196  0.3081  0.2040 -0.1887
   50MOL0     C 6508   4.892   5.755   1.049  0.1707 -0.0889  0.8906
   50MOL0     C 6509   5.039   5.717   1.047 -0.2334 -0.6247 -0.3728
   50MOL0     C 6510   5.064   5.691   0.902 -0.8983 -0.1586  0.3528
   50MOL0     C 6511   5.194   5.620   0.894 -0.6529 -0.8181 -0.0700
   50MOL0    Cl 6512   5.232   5.576   0.726 -0.2376  0.3321 -0.1298
   50MOL0     C 6513   4.237   5.964   1.159  0.2939 -1.0126  0.6523
   50MOL0     C 6514   4.104   5.974   1.140 -0.1076  0.4557  0.1732
   50MOL0     O 6515   3.909   6.140   1.391  0.0499  0.7611  0.3572
   50MOL0     C 6516   3.618   6.047   1.212  0.4197 -0.0278 -0.6186
   50MOL0     C 6517   3.487   6.084   1.191  0.3207 -0.1967  0.1191
   50MOL0     N 6518   2.716   6.279   1.089  0.0491  0.3928  0.3167
   50MOL0     N 6519   2.598   6.233   1.074 -0.0146  0.8228 -0.7719
   50MOL0     C 6520   2.463   6.363   2.127  0.4511  0.2861 -0.5510
   50MOL0     C 6521   2.516   6.478   2.179  0.6255  0.3729  0.3467
   50MOL0     C 6522   2.608   6.898   2.323  0.6291  1.0368 -0.6986
   50MOL0     C 6523   2.734   6.950   2.324 -0.0224  0.1629  0.1637
   50MOL0     C 6524   2.770   7.055   2.405 -1.6470  0.4829 -1.5848
   50MOL0     C 6525   2.675   7.108   2.494  0.4696 -0.3165  0.7140
   50MOL0     O 6526   2.721   7.208   2.567  0.9581 -0.6304 -0.1741
   50MOL0     C 6527   2.694   7.204   2.705 -0.4972 -0.6648 -0.7214
   50MOL0     C 6528   2.749   7.312   2.796 -0.1243  0.6981 -0.4390
   50MOL0     C 6529   2.906   7.336   2.799  1.0641  0.3745  1.0783
   50MOL0     C 6530   2.991   7.221   2.832 -0.0329 -1.0446  0.1192
   50MOL0     C 6531   2.998   7.197   2.972 -0.0091 -0.2776 -0.1677
   50MOL0     C 6532   2.992   7.174   3.093 -0.1440  0.5561  0.4723
   50MOL0     C 6533   2.545   7.060   2.499  0.6760  0.3788  1.2037
   50MOL0     C 6534   2.513   6.952   2.417 -0.1538 -0.2074  0.4019
   50MOL0     H 6535   2.246   6.643   2.279  2.1633  2.1873 -0.4644
   50MOL0     H 6536   2.132   6.430   2.177 -0.8580 -0.5309  0.2278
   50MOL0     H 6537   2.189   6.334   1.903  0.3126 -1.1911 -0.6601
   50MOL0     H 6538   2.153   6.163   1.904 -0.0165  0.4989 -2.5188
   50MOL0     H 6539   2.419   6.137   1.899  0.9890  2.2386  0.0949
   50MOL0     H 6540   2.407   6.282   1.814  0.4034 -1.5383 -1.1386
   50MOL0     H 6541   2.269   6.020   1.728 -0.7863 -0.4902  0.0753
   50MOL0     H 6542   2.410   6.107   1.664 -0.5664  4.2113 -0.4550
   50MOL0     H 6543   2.122   6.220   1.660 -1.1726 -1.8936 -1.1121
   50MOL0     H 6544   2.281   6.303   1.622 -0.0990  0.2855 -2.2727
   50MOL0     H 6545   2.129   6.200   1.426 -3.4144  0.6681  4.4192
   50MOL0     H 6546   2.185   6.042   1.498  1.8925 -0.2119  3.1128
   50MOL0     H 6547   2.416   6.093   1.446  0.9042  1.8786  1.1470
   50MOL0     H 6548   2.384   6.263   1.414 -0.9631  0.4809 -0.8417
   50MOL0     H 6549   2.254   6.022   1.250 -1.5029  1.3361 -0.7642
   50MOL0     H 6550   2.287   6.181   1.188  0.2311 -0.7896 -0.9624
   50MOL0     H 6551   2.437   6.016   1.099  0.4544  1.2644 -2.2330
   50MOL0     H 6552   2.507   5.977   1.257 -1.1683 -1.8947  0.5800
   50MOL0     H 6553   2.655   6.125   1.365  1.0227 -2.6960 -1.5130
   50MOL0     H 6554   2.845   6.335   1.389  0.5652  1.2748  0.0524
   50MOL0     H 6555   2.886   6.421   1.238 -1.4427  0.8812  1.7405
   50MOL0     H 6556   3.001   6.150   1.345  4.3096 -0.7613 -0.1801
   50MOL0     H 6557   3.058   6.322   1.360  1.1512  3.1754 -4.7418
   50MOL0     H 6558   3.008   6.190   1.082 -2.4386  5.0414 -0.5444
   50MOL0     H 6559   3.099   6.337   1.119 -1.5023 -0.0782 -0.9527
   50MOL0     H 6560   3.231   6.137   1.063 -1.5904  0.3824 -1.2607
   50MOL0     H 6561   3.205   6.074   1.226  0.8385 -0.4416 -1.5497
   50MOL0     H 6562   3.501   6.387   1.344  1.6527  1.2711 -1.5185
   50MOL0     H 6563   3.723   6.316   1.373 -1.0429  0.3929 -1.5461
   50MOL0     H 6564   4.009   5.857   1.449  1.9829 -3.9534  1.2846
   50MOL0     H 6565   4.245   5.858   1.480 -0.1281  1.8862  0.5891
   50MOL0     H 6566   4.435   5.695   1.296 -0.8747  0.3027 -0.5352
   50MOL0     H 6567   4.452   5.783   1.442  1.2748  2.2877  1.1837
   50MOL0     H 6568   4.657   5.700   1.385 -3.4609 -1.2552 -0.1751
   50MOL0     H 6569   4.672   5.884   1.381 -0.6978  1.2900 -0.9235
   50MOL0     H 6570   4.667   5.886   1.128  3.4022 -0.7049 -1.1429
   50MOL0     H 6571   4.642   5.713   1.133 -0.4829 -1.1727  0.1500
   50MOL0     H 6572   4.878   5.875   1.235 -1.2534  0.2644  0.9890
   50MOL0     H 6573   4.879   5.698   1.265  0.3078 -0.7387 -1.2316
   50MOL0     H 6574   4.877   5.848   0.994 -1.5661 -0.5574  0.5190
   50MOL0     H 6575   4.832   5.677   1.003 -2.3154  1.7024  0.9172
   50MOL0     H 6576   5.066   5.621   1.093  1.4226 -1.2105 -2.3848
   50MOL0     H 6577   5.104   5.800   1.076 -0.3614  1.0213 -4.1416
   50MOL0     H 6578   4.990   5.629   0.851 -0.5136 -0.1224 -0.2657
   50MOL0     H 6579   5.074   5.776   0.834  2.7752 -2.1087 -1.8702
   50MOL0     H 6580   5.195   5.529   0.955  0.7593 -1.6098 -1.2193
   50MOL0     H 6581   5.272   5.683   0.938 -0.1745 -2.5922  1.7815
   50MOL0     H 6582   4.288   5.991   1.068 -1.6917  0.4137 -0.1147
   50MOL0     H 6583   4.068   6.022   1.050 -1.8793 -1.3397 -0.1466
   50MOL0     H 6584   3.648   5.951   1.171 -1.1020 -0.6345 -0.3593
   50MOL0     H 6585   3.422   6.028   1.125 -1.1537  1.0541  0.4306
   50MOL0     H 6586   2.529   6.289   2.083 -1.1929 -1.2459 -0.5886
   50MOL0     H 6587   2.625   6.482   2.181  0.6519  2.9716 -1.2318
   50MOL0     H 6588   2.814   6.915   2.259 -0.5898  1.2763 -1.1995
   50MOL0     H 6589   2.871   7.094   2.416 -1.5888 -0.2728  1.0368
   50MOL0     H 6590   2.721   7.106   2.744  1.6778  0.1505 -0.0163
   50MOL0     H 6591   2.585   7.206   2.715 -0.6626  0.3063 -2.3630
   50MOL0     H 6592   2.707   7.407   2.761  2.1792  1.3103 -1.7497
   50MOL0     H 6593   2.715   7.296   2.899 -1.1370  0.9265 -0.7282
   50MOL0     H 6594   2.911   7.421   2.868 -0.9699  1.1913  0.2994
   50MOL0     H 6595   2.941   7.378   2.705  2.6179  0.1144  1.5150
   50MOL0     H 6596   2.949   7.136   2.778  2.2506 -0.5715 -2.5772
   50MOL0     H 6597   3.090   7.250   2.797 -0.9788 -0.8719 -2.6740
   50MOL0     H 6598   3.016   7.163   3.197  0.8672 -0.5654  0.1493
   50MOL0     H 6599   2.463   7.106   2.553 -1.4835  0.4601 -1.8761
   50MOL0     H 6600   2.415   6.912   2.439  0.3506 -2.1252 -0.6204
   51MOL0     O 6601   1.619  10.564   2.334  0.4658 -0.1852  0.3732
   51MOL0     C 6602   1.708  10.490   2.372  0.4445  0.8880  0.3177
   51MOL0     O 6603   1.691  10.384   2.461  0.1459  0.9373  0.3013
   51MOL0     C 6604   1.565  10.353   2.508 -0.6253 -0.5883  0.3562
   51MOL0     C 6605   1.461  10.439   2.562 -0.1519  0.3796  0.1440
   51MOL0     C 6606   1.334  10.387   2.607  0.1626  0.2145  0.1651
   51MOL0     C 6607   1.315  10.246   2.606  0.5408  0.3348 -0.1346
   51MOL0     O 6608   1.203  10.188   2.651 -0.4002  0.6026  0.1814
   51MOL0     C 6609   1.085  10.264   2.673  0.3097  0.2512 -0.5314
   51MOL0     C 6610   1.005  10.167   2.751  0.0622  0.4218  0.2521
   51MOL0     C 6611   0.872  10.243   2.793  0.2123 -0.1989 -0.2198
   51MOL0     C 6612   0.770  10.266   2.677 -0.3205  0.6279  0.4800
   51MOL0     C 6613   0.631  10.317   2.728 -0.3666  0.7280  0.2106
   51MOL0     C 6614   0.542  10.319   2.613  0.5248  0.3050  0.1744
   51MOL0     C 6615   0.391  10.306   2.650  0.6785 -0.2541 -0.6572
   51MOL0     C 6616   0.341  10.422   2.739 -0.4980 -0.2950  0.3747
   51MOL0     N 6617   0.195  10.431   2.752  0.1471 -0.2016 -1.0266
   51MOL0     C 6618   0.108  10.329   2.763 -0.5171  0.7126  0.3543
   51MOL0     C 6619  -0.008  10.393   2.765  0.3792  0.4849 -0.4705
   51MOL0     C 6620  -0.149  10.332   2.767  0.0682 -0.7715 -0.2592
   51MOL0     C 6621  -0.252  10.428   2.848 -0.6025 -0.2333 -0.3202
   51MOL0     C 6622  -0.390  10.369   2.856  0.4048  0.2800 -0.1294
   51MOL0     C 6623  -0.493  10.473   2.886 -0.6599  0.0091 -0.4235
   51MOL0     O 6624  -0.620  10.404   2.899  0.1876 -0.7242 -0.4868
   51MOL0     C 6625  -0.749  10.467   2.890 -1.1104 -0.4153  0.1949
   51MOL0     C 6626  -0.849  10.377   2.883 -0.2854 -0.0998  0.3379
   51MOL0     C 6627  -0.981  10.415   2.909  0.4672  0.6149 -0.0634
   51MOL0     C 6628  -1.010  10.550   2.923  0.4114  0.0895  0.1438
   51MOL0     C 6629  -1.148  10.576   2.966  0.4470  0.5702  0.5269
   51MOL0     O 6630  -1.243  10.481   2.956  0.6158  0.7201  0.2103
   51MOL0     C 6631  -1.360  10.492   3.030 -0.0366 -0.4569 -0.8682
   51MOL0     C 6632  -1.466  10.558   2.969  0.7295 -0.6201 -0.1081
   51MOL0     C 6633  -1.578  10.590   3.046  0.4796  0.4279 -0.6229
   51MOL0     C 6634  -1.586  10.549   3.183 -0.3549  0.8608  1.5442
   51MOL0     O 6635  -1.701  10.583   3.254 -0.4682 -0.0009  0.2210
   51MOL0     C 6636  -1.699  10.720   3.277 -0.0893 -0.3531  0.1360
   51MOL0     C 6637  -1.761  10.765   3.407 -0.4111 -0.5926  0.1336
   51MOL0     C 6638  -1.886  10.849   3.391 -0.5123  0.2871 -0.8544
   51MOL0     C 6639  -1.940  10.908   3.524  0.4872 -0.8837  0.2690
   51MOL0     C 6640  -2.074  10.977   3.505  0.6406  0.7255 -0.0027
   51MOL0     C 6641  -2.198  10.881   3.488 -0.2393 -0.2886 -0.0501
   51MOL0     C 6642  -2.320  10.974   3.482 -0.2089 -0.3806 -0.0361
   51MOL0     C 6643  -2.453  10.897   3.473 -0.0774  0.7035 -0.3484
   51MOL0    Cl 6644  -2.477  10.840   3.306  0.5659  0.3654 -0.1325
   51MOL0     C 6645  -1.467  10.494   3.247 -0.9496  0.4342  0.2970
   51MOL0     C 6646  -1.357  10.460   3.169 -0.7448  0.7019 -0.7723
   51MOL0     O 6647  -1.165  10.687   3.017 -0.5058 -0.0053 -0.3378
   51MOL0     C 6648  -0.907  10.647   2.918 -0.2106 -0.4352  0.3800
   51MOL0     C 6649  -0.775  10.601   2.902  0.7500  0.3235  0.0745
   51MOL0     N 6650   0.002  10.532   2.759 -0.4201 -0.0512  0.6445
   51MOL0     N 6651   0.129  10.557   2.753  0.1550 -0.3623 -0.7717
   51MOL0     C 6652   1.421  10.166   2.566 -0.2581  1.4798  0.4266
   51MOL0     C 6653   1.537  10.220   2.513  0.5868 -0.3639  0.0494
   51MOL0     C 6654   1.846  10.508   2.312 -0.6068  0.0698  0.5453
   51MOL0     C 6655   1.876  10.571   2.188  0.1197  0.0346  0.0385
   51MOL0     C 6656   2.008  10.601   2.143 -0.3784  0.0177 -0.3653
   51MOL0     C 6657   2.109  10.543   2.214  0.3613  0.1527  0.2633
   51MOL0     O 6658   2.245  10.535   2.177 -0.6327 -0.0917 -0.0830
   51MOL0     C 6659   2.278  10.573   2.048  0.0525  0.3583  0.1781
   51MOL0     C 6660   2.427  10.528   2.006 -0.4065  0.2626  0.3686
   51MOL0     C 6661   2.523  10.515   2.127 -0.7463  0.0079 -0.0112
   51MOL0     C 6662   2.669  10.536   2.082  0.9227 -0.5735  0.5724
   51MOL0     C 6663   2.694  10.421   1.996  0.5641 -0.2889 -0.1217
   51MOL0     C 6664   2.731  10.331   1.920  0.0060  0.2123  0.2194
   51MOL0     C 6665   2.083  10.467   2.330  0.9717  0.2700  0.0843
   51MOL0     C 6666   1.954  10.456   2.378  0.0987 -0.4616  0.7361
   51MOL0     H 6667   1.483  10.544   2.579  1.5932  0.6096 -2.9509
   51MOL0     H 6668   1.254  10.459   2.623  1.0944  1.4361 -0.5152
   51MOL0     H 6669   1.025  10.283   2.584 -3.1310 -1.3234  1.2467
   51MOL0     H 6670   1.113  10.342   2.745  0.3860 -2.4733  2.6413
   51MOL0     H 6671   1.064  10.127   2.834 -0.4786  0.2116  0.5421
   51MOL0     H 6672   0.982  10.080   2.688 -0.6463  1.1451 -0.5109
   51MOL0     H 6673   0.894  10.345   2.826  1.4742 -0.2048 -0.9706
   51MOL0     H 6674   0.816  10.191   2.871  2.6688 -2.2880  0.2856
   51MOL0     H 6675   0.817  10.332   2.603  2.6839 -1.5801  0.2370
   51MOL0     H 6676   0.767  10.169   2.626  0.9980 -0.1266  1.7489
   51MOL0     H 6677   0.636  10.415   2.777  2.4891  0.8339 -0.0974
   51MOL0     H 6678   0.592  10.250   2.804 -3.0916 -0.8396 -2.3581
   51MOL0     H 6679   0.556  10.237   2.542 -1.9801  0.5115 -0.6305
   51MOL0     H 6680   0.564  10.407   2.553  1.0996 -0.2992 -0.5284
   51MOL0     H 6681   0.320  10.309   2.567 -2.6438 -0.0073  1.9780
   51MOL0     H 6682   0.373  10.207   2.694  0.3415  0.0532 -0.0874
   51MOL0     H 6683   0.367  10.521   2.701  1.2410 -0.6984  0.4471
   51MOL0     H 6684   0.401  10.426   2.830  1.0565  1.4506 -0.6539
   51MOL0     H 6685   0.133  10.224   2.763 -0.3946  0.6936 -1.7437
   51MOL0     H 6686  -0.139  10.230   2.806  2.3401 -1.7958 -3.1327
   51MOL0     H 6687  -0.180  10.326   2.663 -0.3029 -2.0677 -0.1023
   51MOL0     H 6688  -0.248  10.530   2.811 -0.1921 -0.6977 -1.6171
   51MOL0     H 6689  -0.209  10.423   2.949 -0.8071 -0.2584 -0.2335
   51MOL0     H 6690  -0.412  10.322   2.760  1.9809  1.7998 -1.2960
   51MOL0     H 6691  -0.398  10.301   2.942  0.4092  2.5535  1.7710
   51MOL0     H 6692  -0.506  10.535   2.797  0.5680  0.8187 -0.0488
   51MOL0     H 6693  -0.470  10.531   2.975 -2.3041  0.7408 -0.4379
   51MOL0     H 6694  -0.816  10.276   2.859 -3.4584 -1.2926  0.5199
   51MOL0     H 6695  -1.049  10.331   2.917  0.2439  0.7197 -0.7402
   51MOL0     H 6696  -1.464  10.587   2.864 -0.2768  1.9611  0.5078
   51MOL0     H 6697  -1.662  10.641   3.001  2.0265  2.2743 -1.5430
   51MOL0     H 6698  -1.738  10.774   3.191  1.6099  3.1135  1.3461
   51MOL0     H 6699  -1.599  10.766   3.277 -0.5242  0.7569 -2.3892
   51MOL0     H 6700  -1.690  10.829   3.461  1.0054 -2.2342  0.3140
   51MOL0     H 6701  -1.779  10.678   3.471  0.4529 -1.2271 -0.4457
   51MOL0     H 6702  -1.971  10.802   3.340 -0.7763 -1.7834  1.3359
   51MOL0     H 6703  -1.857  10.936   3.331  2.4695  1.4595  1.9737
   51MOL0     H 6704  -1.963  10.823   3.589 -0.0900  0.0554  1.3263
   51MOL0     H 6705  -1.863  10.973   3.567  0.5146 -0.8922  0.2314
   51MOL0     H 6706  -2.079  11.037   3.413 -2.4471 -1.1432 -1.2257
   51MOL0     H 6707  -2.097  11.049   3.584 -1.4722 -1.2202  1.2779
   51MOL0     H 6708  -2.211  10.806   3.566 -0.7982 -1.2385 -1.0182
   51MOL0     H 6709  -2.181  10.826   3.395  3.2310 -0.9268  0.8342
   51MOL0     H 6710  -2.331  11.047   3.563  0.5279 -0.5085  0.1863
   51MOL0     H 6711  -2.318  11.023   3.385 -0.0668  1.1186  0.7039
   51MOL0     H 6712  -2.532  10.966   3.506 -0.9743 -0.6507  0.4200
   51MOL0     H 6713  -2.452  10.808   3.536 -3.4374  0.8184  0.0545
   51MOL0     H 6714  -1.469  10.478   3.355 -2.6909 -2.9453 -0.1288
   51MOL0     H 6715  -1.272  10.414   3.219 -0.2011  1.2211 -1.2037
   51MOL0     H 6716  -0.933  10.751   2.931  0.9709 -0.2487  1.4882
   51MOL0     H 6717  -0.698  10.677   2.911  1.0310  0.0214  0.2115
   51MOL0     H 6718   1.421  10.058   2.577  1.1474  1.3566 -0.5074
   51MOL0     H 6719   1.622  10.158   2.485  1.9504  1.4532 -0.0211
   51MOL0     H 6720   1.789  10.605   2.133 -0.0571 -1.7351 -0.8104
   51MOL0     H 6721   2.029  10.650   2.049  1.1652  0.6817  0.2783
   51MOL0     H 6722   2.268  10.682   2.044  0.7233  0.4133 -0.2136
   51MOL0     H 6723   2.202  10.525   1.985  0.0693  2.3719 -1.4834
   51MOL0     H 6724   2.426  10.433   1.952 -0.5294  1.6213 -2.1479
   51MOL0     H 6725   2.454  10.601   1.929 -1.6747 -1.0383 -1.3806
   51MOL0     H 6726   2.516  10.419   2.179  1.1845  2.3842  5.3747
   51MOL0     H 6727   2.498  10.593   2.199 -3.4584 -0.8420  0.1115
   51MOL0     H 6728   2.692  10.628   2.026  1.3401 -0.0628  1.5474
   51MOL0     H 6729   2.738  10.541   2.167  0.2601  0.3241  1.0794
   51MOL0     H 6730   2.769  10.245   1.868 -3.6991 -0.8723 -0.9836
   51MOL0     H 6731   2.175  10.442   2.382  1.5668  2.1496  0.0312
   51MOL0     H 6732   1.938  10.403   2.472 -1.4554  0.3730  0.9839
   52MOL0     O 6733   3.885   1.431   8.927 -0.1803 -0.4216  0.5225
   52MOL0     C 6734   3.912   1.355   9.016  0.8657  0.8928 -0.1941
   52MOL0     O 6735   3.810   1.288   9.096  0.0660  0.3005  0.3777
   52MOL0     C 6736   3.676   1.314   9.083 -0.4461 -0.5133 -0.5118
   52MOL0     C 6737   3.580   1.223   9.136  0.0222  1.0919 -0.1368
   52MOL0     C 6738   3.445   1.246   9.140 -0.3238 -0.5800 -0.7926
   52MOL0     C 6739   3.390   1.363   9.097 -1.0566  1.4329  0.3758
   52MOL0     O 6740   3.255   1.368   9.089  0.2706 -0.5930 -0.6982
   52MOL0     C 6741   3.203   1.450   9.190  0.6455 -0.2408 -0.4497
   52MOL0     C 6742   3.054   1.438   9.201 -0.1958 -0.6706 -0.6140
   52MOL0     C 6743   2.996   1.457   9.065 -0.0749 -0.5091  0.5573
   52MOL0     C 6744   2.847   1.456   9.076  0.8531 -0.5166  0.3010
   52MOL0     C 6745   2.788   1.578   9.146  0.4354  0.1929 -0.3426
   52MOL0     C 6746   2.640   1.552   9.133  0.1297 -0.3881 -0.1236
   52MOL0     C 6747   2.561   1.664   9.211  1.1804 -0.1034 -0.0486
   52MOL0     C 6748   2.414   1.622   9.193 -0.1876 -0.2375  0.2862
   52MOL0     N 6749   2.332   1.717   9.265 -0.8691 -0.4006 -0.0327
   52MOL0     C 6750   2.271   1.682   9.384 -0.0550 -0.0872 -0.1161
   52MOL0     C 6751   2.184   1.781   9.414 -0.3925  0.1723  1.1477
   52MOL0     C 6752   2.096   1.787   9.537 -0.1223 -0.0978 -0.2413
   52MOL0     C 6753   2.169   1.850   9.665  0.5774 -0.0891  0.2057
   52MOL0     C 6754   2.071   1.846   9.772  0.9410 -0.9918 -0.3281
   52MOL0     C 6755   2.127   1.942   9.883 -1.1889 -0.4407 -1.1546
   52MOL0     O 6756   2.058   1.926  10.010  0.3053 -0.1113  0.3591
   52MOL0     C 6757   1.930   1.962  10.011  0.6269 -0.4278 -0.0738
   52MOL0     C 6758   1.861   1.909  10.119 -0.0376 -0.7606  0.4735
   52MOL0     C 6759   1.727   1.937  10.155 -0.1721 -0.0755 -0.4301
   52MOL0     C 6760   1.654   2.019  10.069  0.0616  0.5265 -0.0007
   52MOL0     C 6761   1.514   2.049  10.096  0.2777  0.0472 -0.2630
   52MOL0     O 6762   1.453   2.116   9.998  0.4630  0.5438 -0.0001
   52MOL0     C 6763   1.325   2.146   9.992 -0.8181 -0.3921 -0.4079
   52MOL0     C 6764   1.220   2.098  10.060 -0.4964  0.6312 -0.7671
   52MOL0     C 6765   1.096   2.153  10.044  0.9830 -0.2374  0.7661
   52MOL0     C 6766   1.076   2.266   9.968 -0.2125 -0.2188  0.3931
   52MOL0     O 6767   0.967   2.355   9.967 -0.1973  0.0089 -0.0584
   52MOL0     C 6768   0.846   2.302  10.024 -0.5961 -0.3720  0.2296
   52MOL0     C 6769   0.740   2.414  10.039  0.3010  0.0312  0.4466
   52MOL0     C 6770   0.668   2.439   9.906 -0.0859 -0.8341  0.3045
   52MOL0     C 6771   0.541   2.348   9.882 -0.4434  0.0704  0.1048
   52MOL0     C 6772   0.496   2.388   9.741 -0.0004  0.3692 -0.2686
   52MOL0     C 6773   0.360   2.310   9.723 -0.5571  0.1411 -0.1518
   52MOL0     C 6774   0.287   2.360   9.595  0.9919 -0.2376  0.2477
   52MOL0     C 6775   0.171   2.259   9.553  0.1160 -0.2840  0.7547
   52MOL0    Cl 6776   0.054   2.226   9.686  0.1687 -0.1539  0.0430
   52MOL0     C 6777   1.187   2.318   9.899 -0.3468 -0.3472  0.4532
   52MOL0     C 6778   1.308   2.249   9.897 -0.4541 -0.1610  0.2558
   52MOL0     O 6779   1.465   2.011  10.205  0.6326  0.5563 -0.7295
   52MOL0     C 6780   1.718   2.075   9.958 -0.4657  0.5169 -0.4946
   52MOL0     C 6781   1.859   2.051   9.929  0.3880 -0.2023  0.7745
   52MOL0     N 6782   2.212   1.878   9.322 -0.2547  0.0753  0.2408
   52MOL0     N 6783   2.292   1.841   9.233 -0.1733  0.4820 -0.0344
   52MOL0     C 6784   3.473   1.455   9.026 -0.5722 -0.4386 -0.1148
   52MOL0     C 6785   3.619   1.433   9.020 -0.3548 -0.1029  0.0861
   52MOL0     C 6786   4.045   1.297   9.025 -0.4143  1.1835 -0.4994
   52MOL0     C 6787   4.140   1.326   8.928 -0.4892  0.4062  0.5950
   52MOL0     C 6788   4.272   1.279   8.952  0.1498  0.1287 -0.0042
   52MOL0     C 6789   4.307   1.204   9.068 -0.1850  0.4159 -0.4378
   52MOL0     O 6790   4.437   1.154   9.089 -0.5273  0.1862  0.1996
   52MOL0     C 6791   4.534   1.171   8.985 -0.4128 -0.0988 -0.4586
   52MOL0     C 6792   4.686   1.142   9.019 -0.7723 -0.8203  0.0833
   52MOL0     C 6793   4.730   1.188   9.163  0.1027  0.1184  1.4204
   52MOL0     C 6794   4.881   1.164   9.186  0.1046  0.6807 -0.2047
   52MOL0     C 6795   4.960   1.220   9.082 -0.5055  0.2309 -0.0873
   52MOL0     C 6796   5.001   1.262   8.976 -0.1925  0.2506 -0.2446
   52MOL0     C 6797   4.210   1.177   9.163 -0.0160  0.2728 -0.0531
   52MOL0     C 6798   4.083   1.225   9.144  0.7239 -0.0146 -0.1696
   52MOL0     H 6799   3.626   1.132   9.174  1.4482  1.6596 -0.4397
   52MOL0     H 6800   3.387   1.164   9.183  1.0137 -0.2534  1.7986
   52MOL0     H 6801   3.236   1.551   9.162  2.0458 -1.3621 -3.1878
   52MOL0     H 6802   3.247   1.420   9.286 -1.5260 -1.2800  0.2714
   52MOL0     H 6803   3.019   1.509   9.277  0.0218 -1.1287 -0.0783
   52MOL0     H 6804   3.034   1.338   9.240 -0.3149  0.6007  2.9065
   52MOL0     H 6805   3.015   1.367   9.006 -2.5431 -0.9079  0.2456
   52MOL0     H 6806   3.034   1.547   9.016  1.8182 -0.4284  2.0498
   52MOL0     H 6807   2.808   1.464   8.974  0.5690  3.5401  0.5809
   52MOL0     H 6808   2.807   1.361   9.115 -0.2212  0.4263  1.5715
   52MOL0     H 6809   2.807   1.673   9.094 -2.3730  1.3300  0.4842
   52MOL0     H 6810   2.817   1.578   9.251  1.0894 -4.8797 -0.3189
   52MOL0     H 6811   2.603   1.453   9.161  1.9862 -1.4586 -1.2868
   52MOL0     H 6812   2.613   1.562   9.027 -0.5326  0.1806  0.0875
   52MOL0     H 6813   2.581   1.665   9.319 -2.0398 -3.2063  0.7844
   52MOL0     H 6814   2.585   1.764   9.172 -0.9220  1.1540  1.6797
   52MOL0     H 6815   2.392   1.522   9.232  0.0799  0.5965  2.7844
   52MOL0     H 6816   2.390   1.629   9.087 -0.6634 -0.7946  0.3527
   52MOL0     H 6817   2.284   1.587   9.435 -2.3057  0.6506  2.0219
   52MOL0     H 6818   2.059   1.688   9.568 -0.9498  0.6768  1.3980
   52MOL0     H 6819   2.014   1.856   9.516  0.5026  0.0415 -2.4590
   52MOL0     H 6820   2.198   1.954   9.645  1.9499 -0.8876 -2.3804
   52MOL0     H 6821   2.260   1.799   9.699  0.0387  0.6926  3.1109
   52MOL0     H 6822   1.972   1.882   9.745  0.9122  0.3964  1.4648
   52MOL0     H 6823   2.058   1.744   9.810  0.0773 -0.9292 -0.4351
   52MOL0     H 6824   2.112   2.048   9.857 -5.7638 -0.8536 -0.9116
   52MOL0     H 6825   2.232   1.926   9.909 -1.0157 -0.1860 -1.6638
   52MOL0     H 6826   1.910   1.837  10.183 -2.1090 -2.0746  0.6643
   52MOL0     H 6827   1.680   1.878  10.233 -0.4441  0.1026 -0.4583
   52MOL0     H 6828   1.249   2.014  10.123  4.3394  1.3356 -1.7003
   52MOL0     H 6829   1.016   2.099  10.093 -0.6179  0.0218 -1.4308
   52MOL0     H 6830   0.867   2.264  10.125 -3.8294 -1.2631  0.6906
   52MOL0     H 6831   0.797   2.217   9.975 -1.5601 -0.2499  0.9447
   52MOL0     H 6832   0.793   2.503  10.073  1.1117  0.7261 -2.3524
   52MOL0     H 6833   0.662   2.391  10.112  0.2037 -2.6380 -0.3818
   52MOL0     H 6834   0.725   2.429   9.813 -0.1421 -1.1246  0.2974
   52MOL0     H 6835   0.628   2.540   9.909  0.0277 -0.7550 -0.7193
   52MOL0     H 6836   0.549   2.239   9.882 -1.5188 -0.0291  0.5102
   52MOL0     H 6837   0.462   2.368   9.956  0.7311 -3.9520  2.8058
   52MOL0     H 6838   0.578   2.356   9.677 -1.8252  0.4620 -2.7874
   52MOL0     H 6839   0.466   2.492   9.724 -1.4000 -0.2634 -1.9099
   52MOL0     H 6840   0.286   2.320   9.803 -0.3411 -1.7993  0.3357
   52MOL0     H 6841   0.383   2.204   9.711  0.8712  0.6634 -3.1936
   52MOL0     H 6842   0.233   2.454   9.608  0.5836 -0.2571 -1.1028
   52MOL0     H 6843   0.357   2.384   9.515 -1.2608  1.7468 -1.2954
   52MOL0     H 6844   0.218   2.165   9.521  1.1326  0.4312  0.0655
   52MOL0     H 6845   0.118   2.301   9.467  0.1558  1.4135  1.5293
   52MOL0     H 6846   1.177   2.403   9.833  0.9369  0.3777  1.1435
   52MOL0     H 6847   1.393   2.292   9.845 -0.1232 -2.2267 -1.0622
   52MOL0     H 6848   1.671   2.145   9.890  1.0108  1.6622 -0.3925
   52MOL0     H 6849   1.899   2.088   9.835 -0.2996 -0.0324  0.5417
   52MOL0     H 6850   3.439   1.551   8.989  3.2746  1.2211  0.2043
   52MOL0     H 6851   3.685   1.508   8.978  0.8299  0.7538  3.1675
   52MOL0     H 6852   4.111   1.370   8.833  1.5878 -0.5501 -0.5493
   52MOL0     H 6853   4.347   1.295   8.875 -0.7524 -2.7240 -1.6396
   52MOL0     H 6854   4.530   1.277   8.960  1.8909  0.0618 -0.3735
   52MOL0     H 6855   4.505   1.108   8.900  1.4951  0.0714 -1.2985
   52MOL0     H 6856   4.705   1.035   9.013 -0.3609 -0.7060 -0.7910
   52MOL0     H 6857   4.759   1.181   8.948  0.1422  1.0756  1.9455
   52MOL0     H 6858   4.670   1.136   9.238  1.9210 -0.7937  2.3119
   52MOL0     H 6859   4.709   1.293   9.180  0.4208  0.2325  1.1174
   52MOL0     H 6860   4.907   1.225   9.272 -1.1020  0.3303  0.4315
   52MOL0     H 6861   4.906   1.058   9.192 -0.1270  0.5693 -1.0613
   52MOL0     H 6862   5.041   1.319   8.896  0.0725  0.3766 -0.0249
   52MOL0     H 6863   4.233   1.119   9.252  0.1216 -1.1538 -0.9938
   52MOL0     H 6864   4.008   1.207   9.220 -0.1855 -1.6829 -1.3972
   53MOL0     O 6865  10.901   8.706   6.964  0.4715 -0.8096  0.6956
   53MOL0     C 6866  10.961   8.693   7.069  0.7512 -0.6627  0.4154
   53MOL0     O 6867  10.896   8.666   7.196  0.1038 -0.3535  0.4707
   53MOL0     C 6868  10.759   8.669   7.206  0.7232  0.1479 -0.1160
   53MOL0     C 6869  10.709   8.645   7.333 -1.0486 -0.2175 -1.0945
   53MOL0     C 6870  10.580   8.648   7.380  0.6538 -0.0112 -0.2108
   53MOL0     C 6871  10.490   8.687   7.276 -0.4972  0.0531 -1.2325
   53MOL0     O 6872  10.357   8.712   7.303  0.2231 -0.3210 -0.9539
   53MOL0     C 6873  10.292   8.647   7.408 -0.5692 -0.8505 -0.2265
   53MOL0     C 6874  10.153   8.714   7.428  0.0148 -0.2574 -0.2651
   53MOL0     C 6875  10.061   8.736   7.302 -0.0538 -0.8949  0.6324
   53MOL0     C 6876  10.052   8.617   7.203  0.4307  0.5544  0.5162
   53MOL0     C 6877   9.940   8.645   7.094  0.0600  0.4549 -1.2115
   53MOL0     C 6878   9.962   8.556   6.973 -0.2337  0.0925  0.4535
   53MOL0     C 6879   9.847   8.538   6.873  0.3249 -0.3530 -0.3357
   53MOL0     C 6880   9.729   8.452   6.919 -0.6602  0.0018 -1.3202
   53MOL0     N 6881   9.643   8.531   6.999 -0.7216  0.6666  0.2471
   53MOL0     C 6882   9.554   8.621   6.942 -0.1813  0.1472  0.2112
   53MOL0     C 6883   9.465   8.651   7.036  0.1013 -0.3984 -0.2953
   53MOL0     C 6884   9.343   8.736   7.006  0.5185  0.6988 -0.8101
   53MOL0     C 6885   9.363   8.891   6.994  0.9118  0.2251 -0.0462
   53MOL0     C 6886   9.262   8.967   6.900  0.6169  0.0547 -0.4155
   53MOL0     C 6887   9.116   8.919   6.939 -0.4600 -0.3861  0.2148
   53MOL0     O 6888   9.038   9.012   6.865 -0.2777 -0.0533 -0.4126
   53MOL0     C 6889   8.905   8.986   6.845 -0.8536  0.5399  0.4876
   53MOL0     C 6890   8.823   8.894   6.905 -0.7752 -0.7452  0.0134
   53MOL0     C 6891   8.688   8.885   6.874  0.3506 -0.1101 -0.2352
   53MOL0     C 6892   8.631   8.960   6.775 -0.1361  0.0658 -1.0635
   53MOL0     C 6893   8.488   8.959   6.744  0.0022 -0.4246  0.1563
   53MOL0     O 6894   8.448   8.983   6.614 -0.2215 -0.0497  0.9606
   53MOL0     C 6895   8.314   8.998   6.589 -0.4131  0.4223 -0.1561
   53MOL0     C 6896   8.212   9.039   6.682  0.4676 -0.2421  0.1487
   53MOL0     C 6897   8.077   9.048   6.638 -0.2075  0.1688 -0.0963
   53MOL0     C 6898   8.028   9.014   6.506  0.0062  0.2886 -0.3533
   53MOL0     O 6899   7.892   9.017   6.472 -0.7146 -0.1230  0.2723
   53MOL0     C 6900   7.859   8.994   6.334  0.0517 -0.1238 -0.3098
   53MOL0     C 6901   7.705   8.989   6.321 -0.3618  0.0974 -0.3433
   53MOL0     C 6902   7.661   8.996   6.178 -0.0362 -0.2821 -0.5154
   53MOL0     C 6903   7.522   9.068   6.179 -0.1400  0.0812 -0.0791
   53MOL0     C 6904   7.472   9.077   6.037 -0.1598 -1.0590 -0.5000
   53MOL0     C 6905   7.330   9.148   6.019 -0.7255  0.4117  0.0411
   53MOL0     C 6906   7.324   9.292   6.068  0.0886 -1.6182 -0.2103
   53MOL0     C 6907   7.192   9.351   6.030  0.7697  0.0589  0.0234
   53MOL0    Cl 6908   7.156   9.401   5.854  0.2357 -0.2544 -0.0642
   53MOL0     C 6909   8.134   8.979   6.418 -0.3518  0.5579  0.3058
   53MOL0     C 6910   8.267   8.977   6.458 -0.2858 -0.3224 -0.5269
   53MOL0     O 6911   8.417   8.934   6.837 -0.3352 -0.1204 -0.8958
   53MOL0     C 6912   8.713   9.049   6.709 -0.4226 -0.7225  0.0936
   53MOL0     C 6913   8.843   9.057   6.745 -0.2444 -0.8210 -0.5403
   53MOL0     N 6914   9.505   8.584   7.157 -0.9671 -0.1550 -0.4972
   53MOL0     N 6915   9.616   8.522   7.130 -0.9714 -0.8758  0.0122
   53MOL0     C 6916  10.530   8.727   7.152 -0.1955 -0.7067 -1.1031
   53MOL0     C 6917  10.662   8.711   7.112 -0.3968  0.0992  0.5777
   53MOL0     C 6918  11.107   8.698   7.077  0.3169 -0.3022 -1.0672
   53MOL0     C 6919  11.175   8.697   7.198 -0.0739  0.5059  0.6030
   53MOL0     C 6920  11.317   8.688   7.206  0.3291 -1.6919 -0.5787
   53MOL0     C 6921  11.395   8.683   7.092  0.1758  0.7476  1.1672
   53MOL0     O 6922  11.524   8.646   7.079  0.4736  0.0737 -0.2515
   53MOL0     C 6923  11.599   8.675   7.199  0.5290  0.0324  0.1797
   53MOL0     C 6924  11.749   8.650   7.176  0.0048  0.3540 -0.0343
   53MOL0     C 6925  11.771   8.517   7.098  0.1721 -0.0461  0.5703
   53MOL0     C 6926  11.923   8.481   7.079  0.8745 -0.7185  0.3655
   53MOL0     C 6927  12.015   8.498   7.195  0.4827  1.7345 -0.1723
   53MOL0     C 6928  12.096   8.503   7.277 -0.0182 -0.6162  0.3195
   53MOL0     C 6929  11.323   8.681   6.971  1.1807 -0.7155 -0.2988
   53MOL0     C 6930  11.188   8.703   6.963  0.0076  0.0654  0.1650
   53MOL0     H 6931  10.793   8.638   7.402 -3.1875  0.9129  1.8219
   53MOL0     H 6932  10.542   8.621   7.478 -1.7359  0.1348 -1.0303
   53MOL0     H 6933  10.351   8.626   7.498  0.6709 -2.6729 -1.4200
   53MOL0     H 6934  10.275   8.547   7.368 -1.3774 -0.4902 -0.8199
   53MOL0     H 6935  10.165   8.801   7.493  1.3665 -0.0170 -0.7982
   53MOL0     H 6936  10.094   8.654   7.497 -2.4814  1.6978 -0.5439
   53MOL0     H 6937  10.102   8.812   7.235 -2.1337 -0.6879 -0.4711
   53MOL0     H 6938   9.963   8.777   7.329  0.4847  0.6526  0.3381
   53MOL0     H 6939  10.150   8.608   7.155  0.9606  0.6772  1.5439
   53MOL0     H 6940  10.026   8.523   7.251 -2.6136  0.7516 -0.5275
   53MOL0     H 6941   9.940   8.751   7.065  3.5942  1.0412  0.3157
   53MOL0     H 6942   9.841   8.627   7.136  0.8452 -0.4568  0.3115
   53MOL0     H 6943   9.993   8.459   7.013 -0.7158 -0.1806  0.1650
   53MOL0     H 6944  10.051   8.597   6.924 -0.5851 -0.7736 -0.9474
   53MOL0     H 6945   9.808   8.639   6.858 -0.2000  0.2825  4.0860
   53MOL0     H 6946   9.884   8.495   6.779  1.0004 -0.6139  0.0374
   53MOL0     H 6947   9.769   8.364   6.969  1.8662  0.3182 -2.6023
   53MOL0     H 6948   9.671   8.412   6.835 -0.2862 -2.6391 -0.4190
   53MOL0     H 6949   9.554   8.636   6.834  1.0300 -1.4902 -0.0628
   53MOL0     H 6950   9.267   8.699   7.075  2.3409  2.0424  2.1306
   53MOL0     H 6951   9.304   8.705   6.909  2.1356 -2.0067 -0.7094
   53MOL0     H 6952   9.461   8.913   6.952  1.8333 -0.4360  1.6333
   53MOL0     H 6953   9.346   8.935   7.093  0.4466  0.3674 -0.1871
   53MOL0     H 6954   9.262   9.073   6.927  0.5152  0.1392 -0.7463
   53MOL0     H 6955   9.290   8.949   6.796 -0.9811  0.2815 -0.9114
   53MOL0     H 6956   9.104   8.943   7.046  1.3793  5.1694 -0.4678
   53MOL0     H 6957   9.090   8.816   6.914 -0.4831  0.2564 -2.7367
   53MOL0     H 6958   8.869   8.826   6.975 -1.7199 -2.6167 -1.1096
   53MOL0     H 6959   8.619   8.831   6.937 -2.1773  0.2360 -2.5392
   53MOL0     H 6960   8.230   9.042   6.789 -0.3815 -0.9899  0.3202
   53MOL0     H 6961   7.995   9.081   6.702  0.6678 -0.3011  1.3212
   53MOL0     H 6962   7.902   8.900   6.300 -0.6141  0.0232 -1.6127
   53MOL0     H 6963   7.910   9.069   6.273  0.1398 -0.9371 -1.2524
   53MOL0     H 6964   7.673   9.079   6.375 -2.4565 -1.3465  0.9467
   53MOL0     H 6965   7.644   8.910   6.366  0.5930 -0.5513 -0.1602
   53MOL0     H 6966   7.660   8.898   6.129  2.5973  0.1969 -1.7092
   53MOL0     H 6967   7.722   9.068   6.122 -0.6977  0.6960  0.0052
   53MOL0     H 6968   7.447   9.016   6.238 -1.2022  1.3728 -0.2394
   53MOL0     H 6969   7.531   9.165   6.227 -0.1192  0.5273 -0.9601
   53MOL0     H 6970   7.471   8.980   5.988 -0.7632  0.4542 -3.7347
   53MOL0     H 6971   7.534   9.150   5.984 -1.5175  0.9938  0.6100
   53MOL0     H 6972   7.258   9.087   6.074  1.3021 -1.4812  0.7116
   53MOL0     H 6973   7.320   9.150   5.910  2.8801 -1.8679 -0.5082
   53MOL0     H 6974   7.331   9.298   6.177 -1.4746 -0.4733 -0.1360
   53MOL0     H 6975   7.407   9.347   6.025 -0.2514  0.3235  1.4535
   53MOL0     H 6976   7.198   9.450   6.076  4.2883 -0.6504  1.3900
   53MOL0     H 6977   7.110   9.294   6.074  1.0961 -1.0351 -0.7380
   53MOL0     H 6978   8.109   8.953   6.316 -1.4576 -1.0895  0.9326
   53MOL0     H 6979   8.351   8.942   6.399  3.1365 -1.4395  4.4259
   53MOL0     H 6980   8.678   9.113   6.628 -1.1746 -0.4136  0.6415
   53MOL0     H 6981   8.907   9.134   6.702 -1.3276  1.4838  1.6983
   53MOL0     H 6982  10.462   8.772   7.080  1.2916 -0.1473 -2.1985
   53MOL0     H 6983  10.684   8.724   7.006  0.8042  0.4717  0.8619
   53MOL0     H 6984  11.114   8.709   7.287 -0.7162 -1.6708  0.5052
   53MOL0     H 6985  11.367   8.691   7.303 -2.2556  2.3908  0.9351
   53MOL0     H 6986  11.561   8.613   7.281 -2.7117  1.2328 -0.2817
   53MOL0     H 6987  11.584   8.780   7.224  2.2191  0.9631 -2.2839
   53MOL0     H 6988  11.784   8.734   7.115 -1.7145  0.6904 -0.6234
   53MOL0     H 6989  11.796   8.654   7.275  0.5817 -2.7521 -0.1011
   53MOL0     H 6990  11.730   8.538   6.999 -1.9586  1.3539  1.6591
   53MOL0     H 6991  11.719   8.434   7.147 -0.6811 -0.7614 -1.4284
   53MOL0     H 6992  11.920   8.376   7.050 -1.6579 -0.2529 -1.4205
   53MOL0     H 6993  11.959   8.541   6.995 -0.2843 -1.5993 -0.7941
   53MOL0     H 6994  12.184   8.507   7.338 -0.6412  0.2108  1.1778
   53MOL0     H 6995  11.380   8.672   6.879  2.4300 -0.5285  0.4266
   53MOL0     H 6996  11.145   8.697   6.863 -1.2425 -1.9678  0.7714
   54MOL0     O 6997   5.359   8.357   6.551  0.4955 -0.4755  0.2816
   54MOL0     C 6998   5.429   8.358   6.451  0.8835 -0.0596 -0.7627
   54MOL0     O 6999   5.379   8.371   6.318  0.4395 -0.4382  0.2117
   54MOL0     C 7000   5.246   8.390   6.300  0.4372  0.7845  0.0142
   54MOL0     C 7001   5.179   8.290   6.220 -0.2580 -0.5411  0.4208
   54MOL0     C 7002   5.045   8.307   6.189  0.5592 -0.4221 -0.2480
   54MOL0     C 7003   4.974   8.418   6.235 -0.4663 -0.4287  0.1997
   54MOL0     O 7004   4.838   8.438   6.209  0.0982  0.2523  0.2611
   54MOL0     C 7005   4.748   8.463   6.319 -0.7642  0.4675  0.0905
   54MOL0     C 7006   4.609   8.421   6.267 -0.2157  0.7445  0.2893
   54MOL0     C 7007   4.575   8.282   6.317  0.5610  0.4209  0.3070
   54MOL0     C 7008   4.429   8.243   6.272 -0.1380  0.2438  0.4743
   54MOL0     C 7009   4.405   8.216   6.122 -0.1657  0.0065  0.1401
   54MOL0     C 7010   4.260   8.187   6.084 -0.6785 -0.4747  0.3586
   54MOL0     C 7011   4.177   8.314   6.078  0.1056  0.2061 -0.1099
   54MOL0     C 7012   4.038   8.262   6.073  0.0423  0.8329 -0.4700
   54MOL0     N 7013   3.940   8.372   6.054 -0.6994 -0.2687  0.4437
   54MOL0     C 7014   3.846   8.396   6.155 -0.2791 -1.2959 -0.2626
   54MOL0     C 7015   3.750   8.467   6.098 -0.4005 -0.2792 -0.4309
   54MOL0     C 7016   3.631   8.511   6.168  0.2682  0.2513 -0.8373
   54MOL0     C 7017   3.567   8.377   6.225  0.7252 -0.0862  0.2392
   54MOL0     C 7018   3.526   8.276   6.116 -0.1872  0.2319  0.2526
   54MOL0     C 7019   3.430   8.173   6.182  0.5463  0.3207 -0.1995
   54MOL0     O 7020   3.361   8.086   6.084 -0.7533 -0.2760  0.2665
   54MOL0     C 7021   3.229   8.049   6.107 -0.2426  0.2212  0.7558
   54MOL0     C 7022   3.159   8.043   6.226  0.3800 -0.1944 -0.6857
   54MOL0     C 7023   3.032   7.979   6.241  0.0571 -0.1464  0.2527
   54MOL0     C 7024   2.982   7.908   6.124  1.1356  0.2718  0.1892
   54MOL0     C 7025   2.858   7.829   6.151  0.1051  0.8093  0.0376
   54MOL0     O 7026   2.819   7.753   6.046 -0.0432 -1.0765 -0.0038
   54MOL0     C 7027   2.700   7.678   6.062  0.1726  0.1683 -0.0484
   54MOL0     C 7028   2.700   7.539   6.058 -0.2062 -0.5092  0.2068
   54MOL0     C 7029   2.583   7.468   6.062  0.0303 -0.2427  0.0587
   54MOL0     C 7030   2.459   7.546   6.047  0.1615 -0.5817  0.3307
   54MOL0     O 7031   2.339   7.479   6.048 -0.2812 -0.0425  0.0728
   54MOL0     C 7032   2.243   7.508   5.945 -0.0119  0.1210  0.3419
   54MOL0     C 7033   2.158   7.387   5.901  0.1197  0.5206 -0.1753
   54MOL0     C 7034   2.243   7.260   5.869  0.6619 -0.1503 -0.1935
   54MOL0     C 7035   2.149   7.148   5.816  0.2141  0.1643 -0.2958
   54MOL0     C 7036   2.234   7.020   5.788  0.1918 -1.2138 -0.0416
   54MOL0     C 7037   2.289   6.965   5.919  0.0662  0.1744  1.2212
   54MOL0     C 7038   2.446   6.942   5.907 -0.3872  0.3698 -0.3821
   54MOL0     C 7039   2.491   6.859   5.785  0.4018 -0.3904 -0.9617
   54MOL0    Cl 7040   2.390   6.716   5.760 -0.0085 -0.4085  0.0435
   54MOL0     C 7041   2.454   7.685   6.054 -0.3650 -0.2854 -0.8569
   54MOL0     C 7042   2.577   7.748   6.064  0.6250 -0.1642  0.1249
   54MOL0     O 7043   2.795   7.835   6.256  0.4502  0.5861 -0.1304
   54MOL0     C 7044   3.053   7.903   6.008 -0.6055  0.6580 -0.2399
   54MOL0     C 7045   3.174   7.973   6.000  0.0101  0.2881 -0.1904
   54MOL0     N 7046   3.784   8.466   5.962  0.1136  0.0684  0.2860
   54MOL0     N 7047   3.895   8.414   5.936 -0.1968 -0.4405  0.0169
   54MOL0     C 7048   5.043   8.515   6.310 -0.2392  1.1015  0.3179
   54MOL0     C 7049   5.177   8.505   6.344 -0.0003  0.1620  0.0096
   54MOL0     C 7050   5.576   8.371   6.467 -0.4002  1.0511 -0.0895
   54MOL0     C 7051   5.645   8.322   6.588  0.3865 -0.7487  0.2793
   54MOL0     C 7052   5.782   8.319   6.588 -0.2155 -0.1764  0.5602
   54MOL0     C 7053   5.863   8.350   6.472  0.1576  0.0920 -0.0651
   54MOL0     O 7054   6.001   8.336   6.466 -0.6134 -0.7150 -0.4729
   54MOL0     C 7055   6.072   8.322   6.589  1.3037  0.5450 -0.2200
   54MOL0     C 7056   6.223   8.311   6.565  0.1710 -1.1817 -1.1100
   54MOL0     C 7057   6.279   8.444   6.515 -0.1017  0.0683  0.0743
   54MOL0     C 7058   6.328   8.533   6.629  0.6710 -0.4343 -0.0264
   54MOL0     C 7059   6.406   8.656   6.585  0.7511 -0.5756 -0.4874
   54MOL0     C 7060   6.470   8.756   6.558 -0.3681  0.0647  0.7598
   54MOL0     C 7061   5.786   8.387   6.351  0.5295  0.2952 -0.2238
   54MOL0     C 7062   5.644   8.405   6.354 -0.6276 -0.5494 -0.4227
   54MOL0     H 7063   5.242   8.210   6.183 -0.2899 -0.5036  0.2870
   54MOL0     H 7064   5.007   8.228   6.125 -0.3533 -2.0060  2.0939
   54MOL0     H 7065   4.738   8.570   6.340 -5.7575 -0.1487  2.3175
   54MOL0     H 7066   4.780   8.409   6.408 -1.4679  0.3235  0.2608
   54MOL0     H 7067   4.599   8.427   6.158 -1.0086 -2.5342  0.1029
   54MOL0     H 7068   4.541   8.492   6.316  1.9751  1.5315  2.3595
   54MOL0     H 7069   4.583   8.287   6.426 -1.1412 -0.6420  0.5079
   54MOL0     H 7070   4.640   8.204   6.277 -3.1512 -2.0924 -1.3472
   54MOL0     H 7071   4.407   8.149   6.324  1.3567 -0.6024 -0.3581
   54MOL0     H 7072   4.363   8.324   6.306  3.3365  2.3116  2.8762
   54MOL0     H 7073   4.468   8.128   6.105 -1.2881 -1.2618  2.1387
   54MOL0     H 7074   4.442   8.303   6.066 -1.6094 -0.2594 -1.3284
   54MOL0     H 7075   4.228   8.110   6.155  1.3798 -2.0107 -0.3266
   54MOL0     H 7076   4.265   8.137   5.987  1.4463 -0.3527  0.3612
   54MOL0     H 7077   4.193   8.380   6.164 -1.2734  0.0660  0.2729
   54MOL0     H 7078   4.204   8.363   5.984  0.1997 -2.7399 -1.7156
   54MOL0     H 7079   4.016   8.217   6.171 -1.7156  0.2919 -1.0753
   54MOL0     H 7080   4.026   8.192   5.990 -6.4465 -0.6736  1.1991
   54MOL0     H 7081   3.834   8.354   6.254 -1.2302 -1.2281 -0.3393
   54MOL0     H 7082   3.564   8.559   6.096  0.7064 -0.9006 -2.0657
   54MOL0     H 7083   3.652   8.572   6.257  2.4180 -3.0574  1.1393
   54MOL0     H 7084   3.480   8.412   6.281  1.3186 -0.1201  1.2165
   54MOL0     H 7085   3.632   8.330   6.300 -0.0377  0.2913  1.1507
   54MOL0     H 7086   3.461   8.325   6.043 -1.1802  0.2666  1.1346
   54MOL0     H 7087   3.615   8.229   6.073  0.2526 -0.4908  1.8583
   54MOL0     H 7088   3.363   8.219   6.255 -0.0379 -0.1259 -0.4423
   54MOL0     H 7089   3.494   8.110   6.244  0.7917  0.0036 -0.7588
   54MOL0     H 7090   3.210   8.081   6.313 -0.1175  0.0490 -0.4958
   54MOL0     H 7091   2.986   7.962   6.337  2.4463 -0.8722  1.3387
   54MOL0     H 7092   2.794   7.488   6.074 -0.4102 -0.3314  2.2403
   54MOL0     H 7093   2.573   7.360   6.064 -0.1568 -0.3034  3.7483
   54MOL0     H 7094   2.290   7.555   5.858 -2.5124 -0.4811 -1.4666
   54MOL0     H 7095   2.169   7.578   5.986  2.1245  2.3332  0.6129
   54MOL0     H 7096   2.098   7.413   5.813 -0.5579 -0.7260 -0.0928
   54MOL0     H 7097   2.090   7.357   5.982 -1.8525 -1.8580 -2.5242
   54MOL0     H 7098   2.299   7.217   5.952  2.7228 -2.9418 -2.8074
   54MOL0     H 7099   2.320   7.291   5.797  1.0381  0.6531  0.5237
   54MOL0     H 7100   2.069   7.126   5.887 -0.8159 -2.8605 -2.2315
   54MOL0     H 7101   2.095   7.174   5.724 -0.0168 -2.1034 -0.8522
   54MOL0     H 7102   2.316   7.045   5.720  0.3547 -2.4984 -0.3356
   54MOL0     H 7103   2.168   6.941   5.751 -0.9257 -0.5777  0.5439
   54MOL0     H 7104   2.250   6.865   5.936 -0.6935 -0.0810 -1.4880
   54MOL0     H 7105   2.267   7.030   6.004 -1.7486  1.1082  0.0992
   54MOL0     H 7106   2.494   7.040   5.914  0.2390  0.0644 -0.3531
   54MOL0     H 7107   2.479   6.894   5.999  0.7898  1.5961 -0.1403
   54MOL0     H 7108   2.591   6.819   5.804  1.3102  2.3994  0.8691
   54MOL0     H 7109   2.498   6.924   5.697 -0.7136  2.5038  0.9396
   54MOL0     H 7110   2.362   7.742   6.045 -1.3941 -1.7561 -0.0036
   54MOL0     H 7111   2.581   7.857   6.069 -0.5976 -0.1678  2.3903
   54MOL0     H 7112   3.031   7.838   5.924 -0.8997  1.1217 -0.5215
   54MOL0     H 7113   3.224   7.966   5.904  1.3581  1.5256  0.3755
   54MOL0     H 7114   4.987   8.603   6.338 -2.9145 -0.5182  0.4097
   54MOL0     H 7115   5.224   8.585   6.399 -2.5581  2.5975 -1.1111
   54MOL0     H 7116   5.588   8.299   6.677  1.7094  0.0424  1.3792
   54MOL0     H 7117   5.817   8.285   6.685  0.0892 -0.7371  0.2617
   54MOL0     H 7118   6.043   8.244   6.660  1.1551 -2.0974 -3.0118
   54MOL0     H 7119   6.051   8.420   6.634 -1.0794  0.6841 -1.4469
   54MOL0     H 7120   6.269   8.269   6.654  1.5479 -0.9724 -1.6930
   54MOL0     H 7121   6.257   8.247   6.483  2.1305  0.4943 -1.6967
   54MOL0     H 7122   6.201   8.490   6.454 -0.7061 -2.8447 -1.5174
   54MOL0     H 7123   6.359   8.427   6.443 -0.2428 -0.9980  0.1504
   54MOL0     H 7124   6.236   8.559   6.681 -0.4943  0.0217 -2.2095
   54MOL0     H 7125   6.395   8.477   6.695 -1.0815 -1.3056  1.0741
   54MOL0     H 7126   6.519   8.846   6.528 -0.3023 -0.0786  0.4355
   54MOL0     H 7127   5.847   8.406   6.264  0.0287  1.3866 -0.3508
   54MOL0     H 7128   5.599   8.433   6.259  0.3229  1.5087 -0.3154
   55MOL0     O 7129   0.408   2.573   1.286 -0.8972 -0.7881 -0.4676
   55MOL0     C 7130   0.367   2.464   1.253  1.2032 -0.2467  0.2402
   55MOL0     O 7131   0.443   2.353   1.243 -0.1760 -0.5300 -0.3676
   55MOL0     C 7132   0.571   2.352   1.281 -0.2856  0.6544 -0.1779
   55MOL0     C 7133   0.619   2.379   1.410 -1.1173 -0.7793  0.1443
   55MOL0     C 7134   0.758   2.388   1.450 -0.0207  0.1671 -0.2118
   55MOL0     C 7135   0.857   2.387   1.343  0.3412 -0.6542  0.2854
   55MOL0     O 7136   0.992   2.409   1.364  0.4506  0.8459 -0.0349
   55MOL0     C 7137   1.030   2.539   1.396  0.3536 -0.5673 -0.7226
   55MOL0     C 7138   1.177   2.546   1.429  0.0325 -1.2683  0.1818
   55MOL0     C 7139   1.281   2.558   1.311  0.6833 -0.6324  0.2157
   55MOL0     C 7140   1.288   2.704   1.257  0.3318 -0.3374 -0.3991
   55MOL0     C 7141   1.409   2.727   1.171  0.0464 -0.3897  0.1257
   55MOL0     C 7142   1.417   2.624   1.054 -0.1876 -0.5735 -0.3484
   55MOL0     C 7143   1.293   2.605   0.965  0.0960 -0.8296  0.1869
   55MOL0     C 7144   1.325   2.518   0.846 -0.7045 -0.1697  0.7529
   55MOL0     N 7145   1.212   2.451   0.792  0.1265 -0.2275  0.0437
   55MOL0     C 7146   1.181   2.319   0.810  0.6512  0.1166  0.1139
   55MOL0     C 7147   1.080   2.306   0.718 -0.7224 -0.6437 -1.0727
   55MOL0     C 7148   1.019   2.169   0.682  0.5281 -0.2177 -0.3679
   55MOL0     C 7149   0.908   2.133   0.794  0.0101 -0.6554 -0.3268
   55MOL0     C 7150   0.964   2.015   0.882  0.3206 -0.1011 -0.2438
   55MOL0     C 7151   0.889   2.008   1.013 -0.1786 -0.1754  0.0683
   55MOL0     O 7152   0.748   1.969   0.995  0.2734  0.0611 -0.2378
   55MOL0     C 7153   0.654   1.983   1.095  0.0065  0.3351 -0.4817
   55MOL0     C 7154   0.525   1.965   1.055  0.7782 -0.7186  0.1008
   55MOL0     C 7155   0.421   1.956   1.145  0.6927  1.3811  0.5266
   55MOL0     C 7156   0.447   1.970   1.286  0.2420  0.4692 -0.5718
   55MOL0     C 7157   0.334   1.975   1.382  0.6047  0.9760 -0.2632
   55MOL0     O 7158   0.215   1.905   1.355  0.7432  0.0316 -0.1274
   55MOL0     C 7159   0.093   1.953   1.405  0.5964 -0.0420  0.5200
   55MOL0     C 7160   0.063   1.973   1.540 -0.6002  0.4242  0.1578
   55MOL0     C 7161  -0.062   2.008   1.580  0.0584 -0.5769  0.4233
   55MOL0     C 7162  -0.158   2.024   1.490 -0.3092  0.4020  0.2088
   55MOL0     O 7163  -0.287   2.051   1.527 -0.3994 -0.2997 -0.3455
   55MOL0     C 7164  -0.336   1.980   1.646  0.1875 -0.5834  0.1975
   55MOL0     C 7165  -0.457   2.070   1.693 -0.2223  0.5083 -0.0205
   55MOL0     C 7166  -0.579   1.994   1.750  0.3047  0.3285  0.2291
   55MOL0     C 7167  -0.677   2.085   1.815  0.1937 -0.0026 -0.0263
   55MOL0     C 7168  -0.790   2.004   1.882  0.6625 -0.1593 -0.2636
   55MOL0     C 7169  -0.925   2.087   1.888  0.1051 -0.1502 -0.5711
   55MOL0     C 7170  -1.041   1.997   1.940 -0.5965  0.7564  0.0194
   55MOL0     C 7171  -1.157   2.085   1.998  0.6796 -0.0811 -0.2649
   55MOL0    Cl 7172  -1.236   2.152   1.858 -0.0711 -0.0697 -0.4992
   55MOL0     C 7173  -0.139   2.010   1.353 -0.1591  0.1648  0.2919
   55MOL0     C 7174  -0.013   1.969   1.312 -0.3212 -0.3544  0.2310
   55MOL0     O 7175   0.345   2.062   1.469  0.0841  0.4951  0.1593
   55MOL0     C 7176   0.575   2.004   1.327 -0.3928 -1.2730  0.3535
   55MOL0     C 7177   0.678   2.001   1.233  0.5558  0.3457  0.0673
   55MOL0     N 7178   1.038   2.422   0.667  0.3162 -0.3368  0.2262
   55MOL0     N 7179   1.114   2.507   0.718 -0.6564 -0.3146 -0.0591
   55MOL0     C 7180   0.819   2.363   1.209 -0.1758 -0.3580  0.2242
   55MOL0     C 7181   0.677   2.353   1.182 -0.6903 -0.3406 -0.7017
   55MOL0     C 7182   0.220   2.462   1.218 -0.0690 -0.5848  0.2331
   55MOL0     C 7183   0.153   2.584   1.204  0.5182  0.1503  0.5807
   55MOL0     C 7184   0.012   2.581   1.207 -0.2960  0.4129 -0.2291
   55MOL0     C 7185  -0.056   2.454   1.199  0.2287 -0.1832  0.0379
   55MOL0     O 7186  -0.192   2.460   1.201 -0.4535 -0.3045  0.3790
   55MOL0     C 7187  -0.278   2.350   1.248 -0.2776 -0.1846  0.2343
   55MOL0     C 7188  -0.282   2.359   1.394 -0.0662  0.6377 -0.4249
   55MOL0     C 7189  -0.295   2.499   1.456 -0.1801 -0.2615 -0.4169
   55MOL0     C 7190  -0.331   2.477   1.607 -0.7365 -0.1138  1.0499
   55MOL0     C 7191  -0.473   2.460   1.615  0.1207 -0.4381 -0.0112
   55MOL0     C 7192  -0.595   2.470   1.613  0.1958  0.5977 -0.1329
   55MOL0     C 7193   0.014   2.333   1.197  0.8227 -0.4469  0.2039
   55MOL0     C 7194   0.151   2.340   1.205  0.1992 -0.9229 -0.4739
   55MOL0     H 7195   0.549   2.388   1.492 -1.7520  1.0760 -0.5641
   55MOL0     H 7196   0.786   2.407   1.553 -1.2096 -2.4670  0.6969
   55MOL0     H 7197   0.968   2.570   1.481 -1.2627 -0.8775 -1.7497
   55MOL0     H 7198   0.997   2.616   1.325 -2.9303  0.0943  1.3195
   55MOL0     H 7199   1.199   2.466   1.499 -3.0620 -0.6350  2.0945
   55MOL0     H 7200   1.180   2.638   1.488 -3.9713 -1.3544  0.7986
   55MOL0     H 7201   1.251   2.494   1.229 -0.9226  2.4453 -1.7978
   55MOL0     H 7202   1.384   2.538   1.344  1.0525  2.8058  1.6454
   55MOL0     H 7203   1.198   2.737   1.203 -0.1818  1.5591  1.4674
   55MOL0     H 7204   1.292   2.771   1.343  1.3367  1.1801 -1.5725
   55MOL0     H 7205   1.499   2.709   1.231 -0.2512 -0.4762  0.5554
   55MOL0     H 7206   1.414   2.830   1.135  1.0296 -0.1187  0.9732
   55MOL0     H 7207   1.453   2.525   1.083 -2.2482 -1.2490  0.0045
   55MOL0     H 7208   1.500   2.663   0.994 -0.0339  0.8878  0.7530
   55MOL0     H 7209   1.209   2.555   1.013 -0.9270 -1.9471 -2.5419
   55MOL0     H 7210   1.255   2.699   0.926 -0.4794 -1.2726 -0.3412
   55MOL0     H 7211   1.406   2.445   0.858  0.6323  1.3084  0.9174
   55MOL0     H 7212   1.376   2.577   0.769  0.2665 -0.4898  1.1415
   55MOL0     H 7213   1.242   2.247   0.864  0.6798  0.0297 -0.0321
   55MOL0     H 7214   1.095   2.091   0.690  0.6199  0.0446  2.0940
   55MOL0     H 7215   0.974   2.181   0.583 -0.5753 -0.5592  0.0800
   55MOL0     H 7216   0.818   2.098   0.743  0.1195  1.6234 -2.2453
   55MOL0     H 7217   0.865   2.219   0.846 -1.8192 -1.6103 -0.1809
   55MOL0     H 7218   0.962   1.918   0.831  1.3306 -1.5461  2.2665
   55MOL0     H 7219   1.069   2.041   0.898 -0.1373  1.0741  1.0860
   55MOL0     H 7220   0.888   2.106   1.061  1.6791 -0.6998  1.2791
   55MOL0     H 7221   0.940   1.936   1.078  0.6567  0.0664 -0.3130
   55MOL0     H 7222   0.499   1.946   0.951 -3.4197 -5.1249  1.5591
   55MOL0     H 7223   0.326   1.908   1.120  0.7225  1.4163  0.3448
   55MOL0     H 7224   0.146   1.949   1.607  0.7127 -1.4116 -1.9838
   55MOL0     H 7225  -0.074   2.024   1.686  0.4997  1.0692  0.2491
   55MOL0     H 7226  -0.266   1.974   1.730 -0.0932 -0.0781  0.4705
   55MOL0     H 7227  -0.375   1.884   1.610 -0.3184 -0.5286  0.5871
   55MOL0     H 7228  -0.485   2.126   1.604  0.3690 -1.1783 -1.3145
   55MOL0     H 7229  -0.429   2.146   1.767  1.5793  0.9310 -1.0783
   55MOL0     H 7230  -0.557   1.919   1.826 -1.9934  0.4515  1.0718
   55MOL0     H 7231  -0.625   1.936   1.669 -0.5903 -2.3338  2.4933
   55MOL0     H 7232  -0.619   2.143   1.888  1.2957 -2.3719  1.0780
   55MOL0     H 7233  -0.718   2.161   1.747 -0.2280  1.4262  1.7543
   55MOL0     H 7234  -0.756   1.962   1.977 -1.7223  0.4065  0.9369
   55MOL0     H 7235  -0.808   1.915   1.821 -0.1679  0.1977 -0.5571
   55MOL0     H 7236  -0.949   2.130   1.790 -0.6308 -0.9093 -0.7322
   55MOL0     H 7237  -0.904   2.165   1.962  0.1651  0.2039 -0.9536
   55MOL0     H 7238  -1.074   1.940   1.852 -1.0743  1.4840 -0.2813
   55MOL0     H 7239  -1.012   1.924   2.016  1.6740  2.6646  1.0841
   55MOL0     H 7240  -1.119   2.160   2.067 -0.7861  1.4677 -1.0433
   55MOL0     H 7241  -1.221   2.016   2.053  0.6444 -0.3998 -0.6991
   55MOL0     H 7242  -0.226   2.030   1.291 -0.6089 -0.4320  0.7155
   55MOL0     H 7243   0.001   1.956   1.205 -1.6247  1.4682 -0.2160
   55MOL0     H 7244   0.596   2.020   1.432  3.0371  3.7144 -0.7378
   55MOL0     H 7245   0.778   2.015   1.273  0.8768 -1.3516 -0.0601
   55MOL0     H 7246   0.892   2.356   1.129  0.0191  0.8202  0.2908
   55MOL0     H 7247   0.646   2.353   1.078 -2.1349 -0.4854 -0.2925
   55MOL0     H 7248   0.203   2.679   1.216 -1.8332  1.7169 -1.0596
   55MOL0     H 7249  -0.045   2.674   1.208  2.6225  2.4741 -3.0880
   55MOL0     H 7250  -0.245   2.254   1.208 -1.9373 -1.4840  1.7707
   55MOL0     H 7251  -0.374   2.368   1.198  0.8553 -0.3091 -2.0709
   55MOL0     H 7252  -0.366   2.303   1.436  0.2894 -0.9365 -1.7391
   55MOL0     H 7253  -0.193   2.311   1.437 -0.5296  1.5371  1.7061
   55MOL0     H 7254  -0.378   2.551   1.407 -0.6941 -0.3670  0.3356
   55MOL0     H 7255  -0.200   2.552   1.443  1.0403 -2.5921 -1.6999
   55MOL0     H 7256  -0.290   2.383   1.645 -1.2456  0.0751  2.0991
   55MOL0     H 7257  -0.302   2.558   1.674  0.0786 -1.0479  1.8658
   55MOL0     H 7258  -0.701   2.470   1.597  0.2215  1.4339 -0.3460
   55MOL0     H 7259  -0.029   2.233   1.198  2.1040 -1.0263  0.3210
   55MOL0     H 7260   0.201   2.246   1.224  1.6097  0.2092  1.8598
   56MOL0     O 7261   7.105   6.186   8.568  0.4141  0.6513  0.2991
   56MOL0     C 7262   7.160   6.122   8.663 -0.4586 -0.0502  1.2831
   56MOL0     O 7263   7.122   6.126   8.792 -0.5905  0.4141 -0.0121
   56MOL0     C 7264   7.023   6.214   8.833 -0.2369  1.1227  0.4751
   56MOL0     C 7265   7.026   6.348   8.802  0.2671  0.2637 -0.5994
   56MOL0     C 7266   6.930   6.436   8.855  0.3807 -0.0380  0.0576
   56MOL0     C 7267   6.839   6.387   8.943 -1.0360  0.8725  0.2280
   56MOL0     O 7268   6.750   6.461   9.006  0.0661  0.2199  0.2108
   56MOL0     C 7269   6.746   6.603   9.002  0.2651  0.3326  0.4309
   56MOL0     C 7270   6.613   6.643   9.071  0.2732  0.3783  0.1074
   56MOL0     C 7271   6.606   6.585   9.217  0.0062 -0.5647  0.6310
   56MOL0     C 7272   6.489   6.660   9.296  0.5656 -0.3681  0.7987
   56MOL0     C 7273   6.364   6.571   9.300  0.2022  0.4008 -0.1283
   56MOL0     C 7274   6.270   6.627   9.407  0.9839 -0.1850 -0.1757
   56MOL0     C 7275   6.170   6.515   9.445  0.3557  0.4613 -1.1562
   56MOL0     C 7276   6.086   6.572   9.556 -0.4573 -0.2547  0.0961
   56MOL0     N 7277   6.003   6.687   9.526  0.7553 -0.0764  0.1239
   56MOL0     C 7278   5.915   6.700   9.424  0.6814 -1.0846  0.1982
   56MOL0     C 7279   5.917   6.831   9.388  0.2422 -0.5897 -0.6264
   56MOL0     C 7280   5.824   6.902   9.288  0.8943  1.0403  0.1372
   56MOL0     C 7281   5.913   6.937   9.166 -0.0607 -0.4902  0.2802
   56MOL0     C 7282   5.843   7.026   9.067  0.6591 -0.4888  0.4592
   56MOL0     C 7283   5.727   6.963   8.988  0.5432  0.1466  0.4550
   56MOL0     O 7284   5.612   6.964   9.077 -0.2047 -0.1519 -0.1138
   56MOL0     C 7285   5.492   6.908   9.047 -0.8821  0.1640  0.3942
   56MOL0     C 7286   5.462   6.859   8.921  0.0452  0.6782 -0.1978
   56MOL0     C 7287   5.335   6.818   8.883 -0.7842 -0.2943 -0.1952
   56MOL0     C 7288   5.231   6.820   8.978 -0.0035 -0.9679 -0.0030
   56MOL0     C 7289   5.086   6.780   8.938  0.3219 -1.1046  0.1657
   56MOL0     O 7290   4.986   6.793   9.028 -0.2859  0.3080 -0.2709
   56MOL0     C 7291   4.872   6.716   9.008  0.5494 -0.1701 -0.3733
   56MOL0     C 7292   4.827   6.634   9.116  0.8422 -0.6412 -0.4676
   56MOL0     C 7293   4.715   6.548   9.097  0.4843  0.2689 -0.2481
   56MOL0     C 7294   4.638   6.545   8.980 -0.3056 -0.5758 -0.2679
   56MOL0     O 7295   4.520   6.470   8.979 -0.3075 -0.4488  0.2386
   56MOL0     C 7296   4.511   6.400   8.855 -0.5374  0.1581  0.3401
   56MOL0     C 7297   4.393   6.305   8.876  0.2225  0.2685 -0.0454
   56MOL0     C 7298   4.268   6.385   8.867  0.6487  0.9170  0.0157
   56MOL0     C 7299   4.154   6.288   8.896  0.0407  0.1570 -0.8350
   56MOL0     C 7300   4.020   6.352   8.908 -0.6441 -0.2281  0.0772
   56MOL0     C 7301   3.913   6.260   8.969 -0.0254 -0.4419 -0.5532
   56MOL0     C 7302   3.868   6.151   8.873 -0.6723  0.3275 -0.1401
   56MOL0     C 7303   3.749   6.059   8.922 -0.3598 -0.7104 -0.6265
   56MOL0    Cl 7304   3.655   5.972   8.794  0.1221 -0.6483  0.2994
   56MOL0     C 7305   4.684   6.628   8.870  0.3915 -1.0729  0.2854
   56MOL0     C 7306   4.796   6.709   8.882 -0.2593 -0.1262 -0.2908
   56MOL0     O 7307   5.072   6.727   8.826 -0.8063 -0.3188 -0.7168
   56MOL0     C 7308   5.262   6.865   9.104 -0.0636 -0.0483 -1.2170
   56MOL0     C 7309   5.388   6.912   9.147  0.5719  0.0057  0.1614
   56MOL0     N 7310   6.012   6.892   9.459  0.2594 -0.6654 -0.6148
   56MOL0     N 7311   6.051   6.813   9.551  0.1569  0.5969 -0.4872
   56MOL0     C 7312   6.842   6.254   8.984 -0.1958  0.6762 -0.4124
   56MOL0     C 7313   6.929   6.166   8.924  0.1809 -0.1303  0.1509
   56MOL0     C 7314   7.272   6.029   8.631 -0.1263 -0.6064 -0.2562
   56MOL0     C 7315   7.346   6.033   8.509 -0.3155  1.2319  1.0011
   56MOL0     C 7316   7.451   5.939   8.485 -0.3141  0.7025 -0.2541
   56MOL0     C 7317   7.485   5.845   8.581 -1.4185 -0.5424 -0.7215
   56MOL0     O 7318   7.594   5.759   8.567  0.0488 -0.2638  0.3670
   56MOL0     C 7319   7.555   5.629   8.525 -0.1244 -0.1377  0.3995
   56MOL0     C 7320   7.675   5.532   8.545  0.0019  0.0387 -0.1245
   56MOL0     C 7321   7.800   5.571   8.463  0.0686  0.5728  0.2764
   56MOL0     C 7322   7.924   5.478   8.467 -0.1255  0.6176 -0.8743
   56MOL0     C 7323   8.025   5.510   8.374 -0.1186  0.4933 -0.1767
   56MOL0     C 7324   8.094   5.565   8.289  0.5340 -0.5430 -1.5232
   56MOL0     C 7325   7.410   5.849   8.701  0.0742 -0.6857 -0.3741
   56MOL0     C 7326   7.303   5.929   8.730 -0.0309  0.5774  0.6992
   56MOL0     H 7327   7.102   6.397   8.742 -0.4359  1.8825 -0.2345
   56MOL0     H 7328   6.927   6.536   8.812  1.7560 -1.1057 -2.8453
   56MOL0     H 7329   6.741   6.637   8.898  0.1067 -0.2584  0.2367
   56MOL0     H 7330   6.827   6.657   9.052 -0.0569  2.9579 -1.6607
   56MOL0     H 7331   6.529   6.610   9.009  1.8134 -1.1251 -1.2631
   56MOL0     H 7332   6.594   6.751   9.071  0.6757  0.4480  0.0319
   56MOL0     H 7333   6.702   6.609   9.265 -0.9598  0.9679  1.8955
   56MOL0     H 7334   6.597   6.476   9.217  4.1375 -1.1036 -0.8043
   56MOL0     H 7335   6.516   6.670   9.401 -1.6848 -1.2075  1.5108
   56MOL0     H 7336   6.461   6.760   9.261  1.3281 -0.7254 -0.9528
   56MOL0     H 7337   6.393   6.468   9.322 -1.1155 -0.1196 -0.7566
   56MOL0     H 7338   6.310   6.571   9.205  1.4344  0.5264 -0.8464
   56MOL0     H 7339   6.217   6.713   9.366 -0.9536 -1.1384  0.2188
   56MOL0     H 7340   6.321   6.650   9.501 -0.2381 -3.5374  1.4746
   56MOL0     H 7341   6.102   6.487   9.364  0.2110 -0.3087 -0.7735
   56MOL0     H 7342   6.215   6.426   9.488 -0.0716  0.8628  0.1700
   56MOL0     H 7343   6.155   6.598   9.637  0.9212 -0.8970 -0.8431
   56MOL0     H 7344   6.015   6.495   9.589 -1.2729 -0.5706 -2.2361
   56MOL0     H 7345   5.853   6.618   9.388 -1.0127  0.7589 -1.3439
   56MOL0     H 7346   5.788   6.995   9.332 -1.0955  1.8007 -2.8017
   56MOL0     H 7347   5.738   6.839   9.263 -0.5280  1.9022  2.4876
   56MOL0     H 7348   5.941   6.849   9.107 -2.6324 -1.2979  0.1566
   56MOL0     H 7349   6.008   6.984   9.195 -0.2188  1.1595 -1.6656
   56MOL0     H 7350   5.806   7.114   9.120 -0.5777 -0.7351  0.0528
   56MOL0     H 7351   5.917   7.072   9.001 -0.0885  1.2701  0.7934
   56MOL0     H 7352   5.741   6.863   8.947 -3.0888  0.0430 -0.8680
   56MOL0     H 7353   5.709   7.030   8.902  3.2489 -1.1178 -1.2292
   56MOL0     H 7354   5.544   6.861   8.851  0.5627 -4.0518 -0.0741
   56MOL0     H 7355   5.321   6.788   8.780 -0.3263 -0.8925 -0.0878
   56MOL0     H 7356   4.874   6.632   9.214  0.3991  0.9152 -0.1921
   56MOL0     H 7357   4.689   6.485   9.182  0.5921  3.0660  1.9990
   56MOL0     H 7358   4.593   6.335   8.823 -3.4296 -2.2063 -3.0451
   56MOL0     H 7359   4.499   6.468   8.771 -2.1932 -0.1017  0.3391
   56MOL0     H 7360   4.401   6.264   8.978 -0.7178  1.3463  0.4787
   56MOL0     H 7361   4.384   6.224   8.802 -1.6134  1.5921 -1.3375
   56MOL0     H 7362   4.248   6.425   8.766  1.7352 -0.2599 -0.6943
   56MOL0     H 7363   4.258   6.465   8.941 -1.4487  0.8550 -0.1584
   56MOL0     H 7364   4.141   6.205   8.826  1.5630 -1.3819  0.6205
   56MOL0     H 7365   4.175   6.238   8.990 -1.9563  1.3542  0.3213
   56MOL0     H 7366   3.983   6.390   8.812 -1.7945  1.4148  1.1063
   56MOL0     H 7367   4.029   6.435   8.980  0.0203  0.7922 -1.1332
   56MOL0     H 7368   3.825   6.320   8.993  0.8629  1.3529 -1.5602
   56MOL0     H 7369   3.942   6.220   9.067 -2.7527  0.2274  0.6052
   56MOL0     H 7370   3.851   6.196   8.774  2.6631 -1.6862 -1.8014
   56MOL0     H 7371   3.945   6.076   8.854 -2.5183 -1.3931 -1.2280
   56MOL0     H 7372   3.678   6.116   8.983 -1.6708 -3.9104  1.0601
   56MOL0     H 7373   3.800   5.994   8.993  0.7970  0.5701 -0.2455
   56MOL0     H 7374   4.646   6.638   8.769  0.2714 -2.9503  0.1233
   56MOL0     H 7375   4.822   6.776   8.800  2.0908 -3.0596 -2.1543
   56MOL0     H 7376   5.180   6.861   9.175 -1.2836  0.0985 -2.5523
   56MOL0     H 7377   5.411   6.954   9.245  0.9579  0.3250 -0.0620
   56MOL0     H 7378   6.777   6.233   9.069 -0.1145  3.0312  0.3066
   56MOL0     H 7379   6.952   6.067   8.962  3.0519 -0.3591 -1.8330
   56MOL0     H 7380   7.331   6.107   8.430  0.0283 -0.1390 -0.3943
   56MOL0     H 7381   7.517   5.949   8.399  3.4281 -3.4032  1.7706
   56MOL0     H 7382   7.538   5.642   8.418  0.8359  0.3774  0.2914
   56MOL0     H 7383   7.468   5.590   8.579 -1.5395  1.6639 -0.4709
   56MOL0     H 7384   7.708   5.528   8.649  2.0077  0.1627 -0.7175
   56MOL0     H 7385   7.655   5.426   8.524  3.7616 -0.4316 -2.2802
   56MOL0     H 7386   7.831   5.671   8.496  0.7139  1.3395 -2.3977
   56MOL0     H 7387   7.759   5.575   8.362 -1.1522  1.7776  0.7791
   56MOL0     H 7388   7.962   5.462   8.568  1.2823 -1.7824 -1.7198
   56MOL0     H 7389   7.900   5.378   8.431  0.3480  0.6304 -1.2416
   56MOL0     H 7390   8.163   5.598   8.214 -1.1638 -1.5676 -3.6741
   56MOL0     H 7391   7.440   5.767   8.766 -1.1327 -1.1738 -0.4140
   56MOL0     H 7392   7.244   5.910   8.819 -1.4907 -4.7496 -1.0742
   57MOL0     O 7393   7.874   7.858  10.027 -0.0052  0.5659  0.2667
   57MOL0     C 7394   7.892   7.918  10.130  0.8203 -0.2781  0.3345
   57MOL0     O 7395   7.793   7.961  10.213  0.5833 -0.1850 -0.5834
   57MOL0     C 7396   7.665   7.913  10.192 -0.5721 -0.5440  0.0298
   57MOL0     C 7397   7.601   7.950  10.071 -0.3874  1.1707 -0.2675
   57MOL0     C 7398   7.473   7.905  10.040  0.8317  0.1918  0.0729
   57MOL0     C 7399   7.393   7.842  10.144  0.0168 -0.4689  0.6451
   57MOL0     O 7400   7.271   7.819  10.105 -0.1882  0.0178 -0.5488
   57MOL0     C 7401   7.197   7.710  10.167 -1.4423 -1.2471  0.4046
   57MOL0     C 7402   7.077   7.661  10.098 -0.4253 -0.2258  0.5799
   57MOL0     C 7403   7.105   7.626   9.945  0.1097  0.2452  0.1840
   57MOL0     C 7404   7.095   7.750   9.854 -0.1027 -0.8619 -0.5563
   57MOL0     C 7405   7.106   7.715   9.708  0.0634  0.5867  0.0733
   57MOL0     C 7406   7.118   7.837   9.618 -0.5588  1.0125  0.6585
   57MOL0     C 7407   7.124   7.793   9.472  0.5384 -0.2066  0.2205
   57MOL0     C 7408   6.986   7.736   9.423  0.3342 -0.0941  0.6813
   57MOL0     N 7409   6.953   7.763   9.282 -0.0195 -0.2336 -0.4359
   57MOL0     C 7410   6.923   7.890   9.235 -0.3333  0.6372  0.4977
   57MOL0     C 7411   6.925   7.879   9.100 -0.6816  1.5182 -0.4011
   57MOL0     C 7412   6.931   7.994   9.005  0.2172 -0.6199 -0.3498
   57MOL0     C 7413   6.803   8.070   8.978 -0.1883 -0.7125 -0.0906
   57MOL0     C 7414   6.709   7.979   8.899 -0.1029  0.0973 -0.2314
   57MOL0     C 7415   6.576   8.047   8.894 -0.2786  0.1993 -0.2348
   57MOL0     O 7416   6.503   7.979   8.793  0.6928 -0.0163 -0.2637
   57MOL0     C 7417   6.364   7.979   8.800 -1.0235 -0.3723 -0.1466
   57MOL0     C 7418   6.288   8.063   8.877 -0.7602  0.6070 -0.0826
   57MOL0     C 7419   6.149   8.072   8.855 -0.3057 -0.2957  0.6028
   57MOL0     C 7420   6.082   7.978   8.767 -0.0062 -0.1012 -0.2261
   57MOL0     C 7421   5.941   7.990   8.727 -0.9397  0.0774 -0.6741
   57MOL0     O 7422   5.890   7.924   8.621 -0.4194 -0.2245 -0.0722
   57MOL0     C 7423   5.760   7.897   8.600  0.9033 -0.9038  0.0457
   57MOL0     C 7424   5.666   7.988   8.540 -0.7265 -1.2876 -0.5195
   57MOL0     C 7425   5.532   7.952   8.522 -0.0774  0.8887  0.8242
   57MOL0     C 7426   5.477   7.828   8.549 -1.1797 -0.5889  0.1961
   57MOL0     O 7427   5.342   7.797   8.528  0.0743  0.0634  0.6087
   57MOL0     C 7428   5.309   7.664   8.489 -0.1534  0.1527 -0.2350
   57MOL0     C 7429   5.177   7.667   8.408  0.3237  0.1635 -0.1460
   57MOL0     C 7430   5.109   7.529   8.398 -0.2297 -0.0699 -0.0769
   57MOL0     C 7431   4.958   7.538   8.358 -0.2748  0.1172 -0.9531
   57MOL0     C 7432   4.937   7.587   8.216  0.2764  0.5863 -0.3261
   57MOL0     C 7433   4.782   7.578   8.187 -0.2179  0.7530  0.7304
   57MOL0     C 7434   4.727   7.436   8.172  0.0133  0.4829  0.4084
   57MOL0     C 7435   4.585   7.433   8.136 -0.0674 -0.7372  0.6826
   57MOL0    Cl 7436   4.469   7.507   8.250  0.2252 -0.0829 -0.3427
   57MOL0     C 7437   5.573   7.739   8.607 -0.2676 -0.6165  0.0644
   57MOL0     C 7438   5.711   7.768   8.622  0.8258 -0.3218  0.1184
   57MOL0     O 7439   5.889   8.091   8.771  1.0254 -0.8317 -1.0770
   57MOL0     C 7440   6.161   7.886   8.704 -0.0379  0.0112  0.3920
   57MOL0     C 7441   6.301   7.891   8.717  0.8405  1.0307 -0.1220
   57MOL0     N 7442   6.954   7.747   9.068 -0.0600  0.8744 -0.7901
   57MOL0     N 7443   6.970   7.675   9.177 -0.1075  0.1608 -0.1954
   57MOL0     C 7444   7.454   7.813  10.266  0.5858  0.4277  0.1321
   57MOL0     C 7445   7.595   7.839  10.286  0.6221 -0.2903  0.0844
   57MOL0     C 7446   8.033   7.944  10.168 -0.1418 -0.3226  0.2706
   57MOL0     C 7447   8.066   8.020  10.272 -0.2142  0.1877 -0.2523
   57MOL0     C 7448   8.194   8.045  10.315 -1.8871  0.2215  0.5018
   57MOL0     C 7449   8.305   7.987  10.241 -0.2078  0.3904 -0.1856
   57MOL0     O 7450   8.445   8.003  10.247  0.5889  0.0237  0.0072
   57MOL0     C 7451   8.480   8.076  10.367  0.9461  0.7398 -0.3231
   57MOL0     C 7452   8.634   8.109  10.369  0.9714  0.5681 -0.0293
   57MOL0     C 7453   8.668   8.182  10.504 -0.0170  0.3557  0.2545
   57MOL0     C 7454   8.807   8.241  10.497 -0.5622  0.0761  1.2542
   57MOL0     C 7455   8.865   8.292  10.622 -0.6118 -0.3367  0.0127
   57MOL0     C 7456   8.921   8.354  10.718  0.5536  0.6171 -0.0331
   57MOL0     C 7457   8.265   7.902  10.140  0.4947  0.5318 -0.8180
   57MOL0     C 7458   8.133   7.885  10.102 -0.6002  0.4628  0.2218
   57MOL0     H 7459   7.656   8.009   9.999  2.1601 -0.6557  0.0621
   57MOL0     H 7460   7.420   7.925   9.947  0.6153 -1.5171 -0.2054
   57MOL0     H 7461   7.171   7.732  10.271 -2.0297  0.9773 -0.1740
   57MOL0     H 7462   7.260   7.620  10.163  1.0632  0.4046  0.8042
   57MOL0     H 7463   6.995   7.732  10.100  0.5010  0.8922  0.1151
   57MOL0     H 7464   7.049   7.574  10.158  1.1313 -0.9380  0.3438
   57MOL0     H 7465   7.038   7.548   9.908  0.8529  0.2570 -1.2640
   57MOL0     H 7466   7.200   7.574   9.929 -0.2635 -1.7398  3.5633
   57MOL0     H 7467   7.002   7.806   9.864  0.2484 -0.7029  2.8298
   57MOL0     H 7468   7.175   7.822   9.873 -0.2787 -0.6335 -0.6705
   57MOL0     H 7469   7.018   7.656   9.679 -0.3954  1.1971  0.1923
   57MOL0     H 7470   7.189   7.649   9.679 -0.9611 -1.5172  1.7158
   57MOL0     H 7471   7.209   7.893   9.643  0.5553 -0.2028 -0.5200
   57MOL0     H 7472   7.029   7.900   9.630 -1.5116 -0.1666 -0.0566
   57MOL0     H 7473   7.138   7.886   9.416 -0.1775 -0.2801 -0.0925
   57MOL0     H 7474   7.204   7.720   9.453  0.7029 -0.1052  0.5178
   57MOL0     H 7475   6.913   7.790   9.485  1.8106  2.4419  0.3730
   57MOL0     H 7476   6.988   7.629   9.442 -0.1476 -0.3643 -0.6981
   57MOL0     H 7477   6.884   7.974   9.291 -4.4106  0.6170 -1.9256
   57MOL0     H 7478   6.950   7.947   8.908  2.0869 -3.0469  1.0828
   57MOL0     H 7479   7.015   8.059   9.034 -2.0410  2.0108  0.8135
   57MOL0     H 7480   6.835   8.154   8.915  1.7571 -0.4176  1.1934
   57MOL0     H 7481   6.762   8.113   9.069  1.5352  0.3149  0.2574
   57MOL0     H 7482   6.741   7.964   8.795 -1.2883  3.5438 -1.2477
   57MOL0     H 7483   6.706   7.883   8.951 -0.1700  0.4430  0.4062
   57MOL0     H 7484   6.577   8.153   8.870  1.2801  0.2133 -0.2061
   57MOL0     H 7485   6.519   8.038   8.987  0.4859 -0.2052  0.1997
   57MOL0     H 7486   6.335   8.125   8.952  2.6519 -3.1679  1.2226
   57MOL0     H 7487   6.092   8.147   8.908 -0.7289  0.6027 -1.0488
   57MOL0     H 7488   5.696   8.087   8.508  0.2373 -1.3202  0.2134
   57MOL0     H 7489   5.462   8.030   8.495 -2.0240 -1.4657 -1.4887
   57MOL0     H 7490   5.295   7.612   8.584  2.5683  1.9704  1.3071
   57MOL0     H 7491   5.390   7.621   8.430 -0.0079  2.9753 -2.3306
   57MOL0     H 7492   5.199   7.709   8.309  0.5425  1.1684  0.3167
   57MOL0     H 7493   5.107   7.734   8.458  0.2337  0.1796 -0.2916
   57MOL0     H 7494   5.106   7.481   8.496 -0.5613  0.5919  0.2467
   57MOL0     H 7495   5.167   7.459   8.338  0.8270  1.1166 -0.4798
   57MOL0     H 7496   4.891   7.463   8.400  1.4978  0.0705  2.1084
   57MOL0     H 7497   4.922   7.618   8.424 -0.0756  0.6794 -1.5165
   57MOL0     H 7498   4.992   7.522   8.147  2.2444  1.6895  0.1245
   57MOL0     H 7499   4.964   7.693   8.202  2.7307 -0.2120 -2.6077
   57MOL0     H 7500   4.765   7.637   8.097 -3.5210  3.5206  2.8907
   57MOL0     H 7501   4.732   7.630   8.270 -1.8209 -1.5246  1.2718
   57MOL0     H 7502   4.792   7.379   8.105  0.0551  1.0821 -0.0667
   57MOL0     H 7503   4.732   7.381   8.266 -1.2070  0.3280  0.3869
   57MOL0     H 7504   4.560   7.328   8.122  1.6099 -1.4205  2.3914
   57MOL0     H 7505   4.595   7.482   8.038 -0.0259  0.0296  1.0613
   57MOL0     H 7506   5.523   7.660   8.661 -1.2673  0.9067  1.4780
   57MOL0     H 7507   5.782   7.699   8.669  2.4279  0.0297 -1.6381
   57MOL0     H 7508   6.120   7.822   8.627 -1.3423  0.4920  0.6667
   57MOL0     H 7509   6.368   7.818   8.672 -1.3450 -0.9617 -0.3889
   57MOL0     H 7510   7.398   7.764  10.345  0.2472 -1.2624 -1.1033
   57MOL0     H 7511   7.645   7.826  10.381  1.7158 -1.2745 -0.6013
   57MOL0     H 7512   7.987   8.054  10.337  0.6735 -0.4395  1.1887
   57MOL0     H 7513   8.220   8.105  10.401  3.3711 -0.4224 -0.3169
   57MOL0     H 7514   8.461   8.014  10.455 -3.0237  2.6233  0.3656
   57MOL0     H 7515   8.416   8.165  10.376 -0.5629 -0.0904 -2.1608
   57MOL0     H 7516   8.693   8.020  10.345 -1.1390 -1.4131  1.5738
   57MOL0     H 7517   8.646   8.179  10.286  2.1207 -0.4633 -0.7686
   57MOL0     H 7518   8.659   8.112  10.588 -1.6879 -0.8833 -0.9007
   57MOL0     H 7519   8.587   8.254  10.519 -2.0109 -1.6350 -0.3553
   57MOL0     H 7520   8.868   8.159  10.458 -1.6699  0.1648 -0.8261
   57MOL0     H 7521   8.811   8.320  10.422 -0.6212  0.0675  1.2425
   57MOL0     H 7522   8.969   8.413  10.794  2.1579  0.6601 -1.0210
   57MOL0     H 7523   8.335   7.844  10.081  1.1884  0.4735  0.0400
   57MOL0     H 7524   8.108   7.818  10.021 -0.5100  2.5420 -1.6426
   58MOL0     O 7525   9.168   3.158   7.487  0.3237  0.5845 -0.1486
   58MOL0     C 7526   9.234   3.253   7.530 -0.0630 -0.6172  0.2647
   58MOL0     O 7527   9.214   3.304   7.658  0.3119  0.5985 -0.1701
   58MOL0     C 7528   9.104   3.251   7.716 -0.0245  0.3362 -0.2331
   58MOL0     C 7529   8.998   3.335   7.756 -0.2246  1.3934  0.2498
   58MOL0     C 7530   8.895   3.286   7.835  0.2982  0.0423 -0.2006
   58MOL0     C 7531   8.900   3.153   7.888 -0.4282 -0.5992  0.1907
   58MOL0     O 7532   8.805   3.079   7.942  0.0298  0.4744 -0.1939
   58MOL0     C 7533   8.671   3.124   7.929  0.5187 -0.1052 -0.2902
   58MOL0     C 7534   8.567   3.021   7.970  0.0469  0.3186 -0.8734
   58MOL0     C 7535   8.436   3.082   7.925 -0.7951 -0.6702 -0.7157
   58MOL0     C 7536   8.311   3.021   7.991  0.1177  0.4409 -1.0274
   58MOL0     C 7537   8.181   3.090   7.945 -0.0645 -0.2466  0.1760
   58MOL0     C 7538   8.062   3.009   7.968  0.0511 -0.4428  0.2297
   58MOL0     C 7539   7.924   3.083   7.948 -0.1310  0.7135  0.2808
   58MOL0     C 7540   7.801   2.992   7.933 -0.6468 -0.0263  1.1618
   58MOL0     N 7541   7.686   3.076   7.917  0.9146  0.4206  0.9244
   58MOL0     C 7542   7.638   3.139   7.800 -0.0741 -0.2782 -0.9800
   58MOL0     C 7543   7.531   3.219   7.825 -0.1512  0.6422 -1.0544
   58MOL0     C 7544   7.451   3.321   7.744  0.1818 -0.3202 -0.4133
   58MOL0     C 7545   7.380   3.248   7.618 -0.9156 -0.0090  0.0699
   58MOL0     C 7546   7.228   3.223   7.653 -1.0566 -0.0061  0.1057
   58MOL0     C 7547   7.205   3.120   7.758  0.0777 -0.6203 -0.1514
   58MOL0     O 7548   7.060   3.103   7.753  0.1264  0.2748 -0.3725
   58MOL0     C 7549   7.011   3.029   7.860 -0.8677 -0.3386  0.0719
   58MOL0     C 7550   7.084   2.969   7.957 -0.0008  0.0546  0.4120
   58MOL0     C 7551   7.013   2.906   8.057  0.6770  1.2040 -0.2702
   58MOL0     C 7552   6.871   2.893   8.055  0.4203 -0.2042 -0.8033
   58MOL0     C 7553   6.807   2.804   8.151 -0.1999 -0.1332 -0.3951
   58MOL0     O 7554   6.872   2.690   8.195  0.9538  0.9619 -0.4036
   58MOL0     C 7555   6.828   2.612   8.303  0.1751  0.2874 -0.6068
   58MOL0     C 7556   6.908   2.593   8.419 -1.0239 -0.2554 -0.2500
   58MOL0     C 7557   6.873   2.490   8.515 -0.5449 -0.0136 -0.3126
   58MOL0     C 7558   6.753   2.423   8.501 -0.3671 -0.0346 -0.1743
   58MOL0     O 7559   6.721   2.326   8.595  0.0056 -0.1560 -0.4966
   58MOL0     C 7560   6.641   2.377   8.708  0.2391 -0.2604 -0.7231
   58MOL0     C 7561   6.588   2.254   8.773  0.2033 -0.2832  0.0597
   58MOL0     C 7562   6.531   2.143   8.680 -0.1559 -0.6533 -0.1823
   58MOL0     C 7563   6.408   2.171   8.599 -0.1655  0.1776 -0.8208
   58MOL0     C 7564   6.385   2.068   8.485 -0.3713 -0.2964  0.2677
   58MOL0     C 7565   6.489   2.083   8.371 -0.4813 -0.0203 -0.4031
   58MOL0     C 7566   6.420   2.141   8.244 -0.6024 -0.2126 -0.2501
   58MOL0     C 7567   6.325   2.032   8.171 -0.1319  0.1524  0.1361
   58MOL0    Cl 7568   6.431   1.914   8.077 -0.0300  0.4786 -0.5608
   58MOL0     C 7569   6.671   2.451   8.391 -0.4402 -0.5275  1.0352
   58MOL0     C 7570   6.706   2.540   8.292 -0.2773 -1.2817  0.2812
   58MOL0     O 7571   6.699   2.847   8.197 -0.2277 -0.4286 -0.0436
   58MOL0     C 7572   6.797   2.961   7.966 -0.4262 -0.2484 -0.1373
   58MOL0     C 7573   6.873   3.031   7.870  0.4890  0.5022 -0.1088
   58MOL0     N 7574   7.510   3.198   7.965  0.1539  0.4042  0.7385
   58MOL0     N 7575   7.588   3.102   8.013 -0.5310 -0.3673  0.1614
   58MOL0     C 7576   9.012   3.075   7.863  0.1656  0.6367 -0.5417
   58MOL0     C 7577   9.116   3.124   7.782  0.0294  0.2614  0.4150
   58MOL0     C 7578   9.357   3.301   7.453  0.7457  0.2908 -0.4374
   58MOL0     C 7579   9.456   3.384   7.511 -0.1263  0.2784 -0.0301
   58MOL0     C 7580   9.571   3.419   7.439  0.1269 -0.5323 -0.1454
   58MOL0     C 7581   9.585   3.384   7.304 -0.1566 -0.5866  0.0338
   58MOL0     O 7582   9.696   3.439   7.240  0.4508 -0.1843 -0.0184
   58MOL0     C 7583   9.729   3.414   7.105  0.3133 -0.3576 -0.5663
   58MOL0     C 7584   9.790   3.277   7.105  0.5050  0.2723  0.0809
   58MOL0     C 7585   9.837   3.244   6.963  0.0246  0.0271 -0.4347
   58MOL0     C 7586   9.857   3.085   6.967 -0.1308  0.4838 -0.1626
   58MOL0     C 7587   9.729   3.018   6.986 -0.1930  0.6089 -0.0857
   58MOL0     C 7588   9.623   2.962   7.005 -0.4602 -0.4530 -0.0313
   58MOL0     C 7589   9.491   3.299   7.250 -0.2126  0.1477  0.8067
   58MOL0     C 7590   9.377   3.262   7.319 -0.1754 -0.0731  0.4032
   58MOL0     H 7591   9.008   3.435   7.715 -1.0391  1.2161 -0.4372
   58MOL0     H 7592   8.808   3.344   7.864 -1.1325 -1.9806 -0.3115
   58MOL0     H 7593   8.643   3.147   7.826  3.4497 -1.1261 -1.4089
   58MOL0     H 7594   8.660   3.212   7.994  2.4981  0.5050 -0.7070
   58MOL0     H 7595   8.573   3.010   8.079 -0.7791  3.1447 -0.4676
   58MOL0     H 7596   8.565   2.927   7.914 -1.8840 -0.0925 -0.2240
   58MOL0     H 7597   8.426   3.060   7.819  1.9503  0.5429 -1.3146
   58MOL0     H 7598   8.440   3.190   7.940  2.2568 -0.8351  0.4617
   58MOL0     H 7599   8.299   2.914   7.971 -1.7727 -0.0575  2.0635
   58MOL0     H 7600   8.316   3.046   8.098  0.7493  1.0565 -1.1914
   58MOL0     H 7601   8.194   3.100   7.836  1.8537  1.9397  0.5224
   58MOL0     H 7602   8.172   3.193   7.979 -1.6580  0.2646 -1.6484
   58MOL0     H 7603   8.058   2.987   8.075  0.3728  2.7357  1.0081
   58MOL0     H 7604   8.068   2.925   7.899 -0.1659  0.0317 -0.3812
   58MOL0     H 7605   7.898   3.147   8.033 -4.9789  1.7619 -1.6675
   58MOL0     H 7606   7.932   3.135   7.852 -1.2286  1.7011  0.7037
   58MOL0     H 7607   7.792   2.940   8.029 -0.3275 -0.5194  0.9311
   58MOL0     H 7608   7.811   2.913   7.858 -2.4983 -1.0929  1.9631
   58MOL0     H 7609   7.690   3.139   7.705  0.4830 -1.1102 -0.6833
   58MOL0     H 7610   7.515   3.402   7.710 -0.0780 -0.4931 -1.3452
   58MOL0     H 7611   7.371   3.365   7.805  1.2564  3.8887 -1.7274
   58MOL0     H 7612   7.421   3.153   7.581 -3.4567 -0.9452 -0.5743
   58MOL0     H 7613   7.384   3.314   7.531 -0.9939 -0.1861 -0.0693
   58MOL0     H 7614   7.171   3.312   7.681 -1.5039 -0.7617  1.7798
   58MOL0     H 7615   7.180   3.193   7.560  2.7418  1.4667 -2.6067
   58MOL0     H 7616   7.247   3.162   7.850  1.2590 -0.3568 -0.7876
   58MOL0     H 7617   7.257   3.027   7.735 -0.1852 -1.6339  2.9695
   58MOL0     H 7618   7.191   2.970   7.968 -0.2246 -1.7337  3.9347
   58MOL0     H 7619   7.061   2.856   8.141 -1.1836 -0.4643 -0.1117
   58MOL0     H 7620   7.004   2.640   8.438  0.0275 -1.5970 -1.9375
   58MOL0     H 7621   6.951   2.471   8.588  1.2516  1.4960 -1.7167
   58MOL0     H 7622   6.555   2.437   8.675  0.0404  0.8653  1.6678
   58MOL0     H 7623   6.702   2.436   8.777 -2.1960  1.6742 -0.0481
   58MOL0     H 7624   6.510   2.281   8.846  1.8492  1.0709  1.4112
   58MOL0     H 7625   6.666   2.218   8.840  0.7608  0.4197 -0.1973
   58MOL0     H 7626   6.499   2.060   8.745 -1.7686 -0.7419 -1.0506
   58MOL0     H 7627   6.617   2.107   8.622 -0.4150  2.9308 -3.0807
   58MOL0     H 7628   6.319   2.159   8.662 -1.2853  0.3448 -2.3197
   58MOL0     H 7629   6.416   2.271   8.554  0.0460  1.9461  2.7703
   58MOL0     H 7630   6.284   2.080   8.446 -0.8026 -1.0955  1.1028
   58MOL0     H 7631   6.390   1.969   8.533  0.0495 -0.4239 -0.0276
   58MOL0     H 7632   6.538   1.986   8.357 -2.2266 -1.4886  2.5875
   58MOL0     H 7633   6.564   2.154   8.408 -1.2290 -0.4555  2.1674
   58MOL0     H 7634   6.361   2.229   8.270  1.2054  1.3369 -1.1492
   58MOL0     H 7635   6.504   2.170   8.180  1.1386 -2.4755  0.8842
   58MOL0     H 7636   6.250   2.076   8.103 -0.7708 -0.5876  0.3529
   58MOL0     H 7637   6.270   1.977   8.247 -0.9141 -0.9333 -1.1689
   58MOL0     H 7638   6.580   2.392   8.393 -1.2345  0.6714  2.8412
   58MOL0     H 7639   6.649   2.556   8.201  1.9483 -2.2613 -1.3793
   58MOL0     H 7640   6.689   2.959   7.963 -0.4201  0.0367 -0.9145
   58MOL0     H 7641   6.804   3.093   7.812 -0.0653  1.0408  1.0800
   58MOL0     H 7642   9.006   2.973   7.901 -4.3465 -0.0462 -2.4596
   58MOL0     H 7643   9.205   3.068   7.757 -0.5197 -0.7179  0.5803
   58MOL0     H 7644   9.451   3.419   7.613  0.8972 -2.3341  1.0077
   58MOL0     H 7645   9.639   3.490   7.485  0.1489 -0.0741 -0.8552
   58MOL0     H 7646   9.802   3.476   7.052  0.1406 -0.9500 -1.5109
   58MOL0     H 7647   9.636   3.421   7.047  1.6131  1.1712 -2.6212
   58MOL0     H 7648   9.870   3.267   7.179 -0.5574 -4.7727  0.9171
   58MOL0     H 7649   9.715   3.207   7.143  0.8922  1.7065  3.9229
   58MOL0     H 7650   9.923   3.304   6.930 -0.5998  0.7048 -0.8467
   58MOL0     H 7651   9.755   3.258   6.892  0.2576 -0.5268 -0.8216
   58MOL0     H 7652   9.909   3.057   6.875  0.2670 -0.8089  0.4320
   58MOL0     H 7653   9.922   3.068   7.054  0.5890  0.3878 -0.7140
   58MOL0     H 7654   9.542   2.896   7.029 -0.0741 -0.4636  1.3333
   58MOL0     H 7655   9.505   3.256   7.151  0.2849 -1.7405  1.6376
   58MOL0     H 7656   9.305   3.189   7.283 -0.8980  0.9994 -0.3810
   59MOL0     O 7657  10.909   0.495   1.243  0.7439  0.1512 -0.0158
   59MOL0     C 7658  10.967   0.494   1.134  0.1283 -0.1719 -0.3683
   59MOL0     O 7659  10.905   0.512   1.016  1.1065 -0.2216  0.0936
   59MOL0     C 7660  10.766   0.527   1.024  0.4438  0.5033 -0.6134
   59MOL0     C 7661  10.699   0.639   1.077 -0.0542  0.0403 -0.0525
   59MOL0     C 7662  10.565   0.650   1.066 -0.2121 -0.7514  0.5243
   59MOL0     C 7663  10.486   0.558   1.003  0.4048  0.3172  0.3443
   59MOL0     O 7664  10.350   0.586   1.007 -0.2146 -0.4762 -0.0927
   59MOL0     C 7665  10.265   0.537   0.902  0.4412 -0.0277  0.2069
   59MOL0     C 7666  10.128   0.584   0.936 -0.4983  0.6791 -1.0878
   59MOL0     C 7667  10.024   0.496   0.869  0.2705 -1.1225  0.2485
   59MOL0     C 7668   9.878   0.539   0.889 -0.4815 -0.5260 -0.2940
   59MOL0     C 7669   9.781   0.423   0.841  0.3731 -0.1237 -0.4618
   59MOL0     C 7670   9.654   0.424   0.931  0.8805  0.1110 -0.1492
   59MOL0     C 7671   9.560   0.311   0.870  0.5548 -0.1367  0.5396
   59MOL0     C 7672   9.419   0.340   0.935 -0.9636 -0.2344 -0.0755
   59MOL0     N 7673   9.348   0.250   0.847  0.8606 -0.2266  0.0685
   59MOL0     C 7674   9.321   0.114   0.868 -0.0147 -0.7217 -0.0263
   59MOL0     C 7675   9.225   0.094   0.776 -0.2140  1.4622 -0.0960
   59MOL0     C 7676   9.167  -0.049   0.757 -0.2510 -0.7010  0.0769
   59MOL0     C 7677   9.020  -0.043   0.809 -0.3116  0.5119  0.2416
   59MOL0     C 7678   8.962  -0.193   0.807  0.6611  0.4921  0.1469
   59MOL0     C 7679   8.813  -0.173   0.854 -0.4566 -0.0066  0.6548
   59MOL0     O 7680   8.726  -0.112   0.761 -0.5199  0.4035  0.0454
   59MOL0     C 7681   8.593  -0.151   0.763  0.2046 -0.2743 -0.0415
   59MOL0     C 7682   8.525  -0.136   0.639 -0.1371 -0.8821 -0.0280
   59MOL0     C 7683   8.388  -0.151   0.633  0.3798 -0.9026  0.1523
   59MOL0     C 7684   8.319  -0.182   0.745 -0.3094 -0.5341 -1.2227
   59MOL0     C 7685   8.171  -0.192   0.742 -0.3095  0.3669  0.5721
   59MOL0     O 7686   8.118  -0.205   0.613  0.1951 -0.5437 -0.6096
   59MOL0     C 7687   7.984  -0.210   0.596 -1.2184  0.0219 -0.0995
   59MOL0     C 7688   7.884  -0.211   0.698  0.8217  1.1733 -0.1948
   59MOL0     C 7689   7.748  -0.187   0.670  0.6187  0.6023 -0.0506
   59MOL0     C 7690   7.709  -0.153   0.541  0.0049  0.6011  0.7455
   59MOL0     O 7691   7.576  -0.122   0.514 -0.2821  0.7493  0.1982
   59MOL0     C 7692   7.527  -0.128   0.384 -1.3214  0.8150 -0.0132
   59MOL0     C 7693   7.376  -0.124   0.383  0.2729  0.4743  0.0466
   59MOL0     C 7694   7.317  -0.268   0.398 -0.0000 -0.0029  0.9975
   59MOL0     C 7695   7.175  -0.238   0.385  0.7225 -0.6788 -0.7927
   59MOL0     C 7696   7.082  -0.361   0.385 -0.2125  0.0476 -0.4028
   59MOL0     C 7697   6.932  -0.316   0.415  0.6642  0.4356  0.4232
   59MOL0     C 7698   6.842  -0.439   0.421 -0.3426  0.0072  0.2114
   59MOL0     C 7699   6.802  -0.494   0.285  0.1338  0.2159 -0.1673
   59MOL0    Cl 7700   6.718  -0.377   0.183  0.2634 -0.1676 -0.2848
   59MOL0     C 7701   7.808  -0.162   0.439  0.3697  0.0683  0.0962
   59MOL0     C 7702   7.940  -0.192   0.468 -0.8719  0.4093 -0.1983
   59MOL0     O 7703   8.122  -0.198   0.856  0.3616  0.5056  0.4586
   59MOL0     C 7704   8.386  -0.193   0.866 -0.6216  0.5019  1.3058
   59MOL0     C 7705   8.512  -0.167   0.874 -0.5070 -0.5425  0.4082
   59MOL0     N 7706   9.198   0.202   0.697 -0.4572  0.3576 -0.2556
   59MOL0     N 7707   9.280   0.293   0.734 -0.6619 -0.0648  0.7039
   59MOL0     C 7708  10.557   0.448   0.941 -0.3678 -0.2988  0.0615
   59MOL0     C 7709  10.694   0.433   0.948  0.7427 -0.4108 -0.4168
   59MOL0     C 7710  11.116   0.467   1.134 -0.2841 -0.3765  0.8183
   59MOL0     C 7711  11.195   0.498   1.247  0.4108 -1.2728  0.3979
   59MOL0     C 7712  11.331   0.456   1.244  0.0932  0.4730  0.3529
   59MOL0     C 7713  11.385   0.383   1.137 -0.0164  0.7778 -0.1219
   59MOL0     O 7714  11.517   0.348   1.129  0.0815 -0.4961 -0.8872
   59MOL0     C 7715  11.600   0.340   1.243  1.0844 -0.1628  0.0830
   59MOL0     C 7716  11.553   0.229   1.347 -0.6154 -0.5382  0.2233
   59MOL0     C 7717  11.547   0.091   1.287  0.3519  0.2553 -0.2664
   59MOL0     C 7718  11.541  -0.034   1.377  1.1028 -0.2825  0.5008
   59MOL0     C 7719  11.415  -0.027   1.458 -0.1612 -0.2277  0.2893
   59MOL0     C 7720  11.314  -0.034   1.524  0.6199 -0.0477 -0.0709
   59MOL0     C 7721  11.305   0.353   1.022 -1.0408 -0.0404  0.4807
   59MOL0     C 7722  11.170   0.394   1.029  0.4138  0.7423 -0.0580
   59MOL0     H 7723  10.761   0.709   1.131 -1.8493  1.7070 -0.0492
   59MOL0     H 7724  10.518   0.745   1.088  0.4341  0.0267 -1.2348
   59MOL0     H 7725  10.275   0.428   0.899 -0.3063 -0.0863 -1.5262
   59MOL0     H 7726  10.299   0.579   0.807  2.3467 -1.1586  0.3593
   59MOL0     H 7727  10.114   0.688   0.907  0.2818  0.4729 -2.2650
   59MOL0     H 7728  10.115   0.568   1.043  3.3582  0.4608 -0.5325
   59MOL0     H 7729  10.035   0.395   0.909  1.1633 -1.3193 -0.4687
   59MOL0     H 7730  10.045   0.495   0.761  0.0857  2.2592  0.0970
   59MOL0     H 7731   9.849   0.566   0.991  0.3304 -1.3060  0.1618
   59MOL0     H 7732   9.863   0.635   0.838 -1.2396  0.7991  2.2506
   59MOL0     H 7733   9.831   0.327   0.857  0.3970 -0.2233 -1.1103
   59MOL0     H 7734   9.767   0.443   0.734  3.8058  1.6519 -0.7233
   59MOL0     H 7735   9.605   0.521   0.941 -0.2202 -0.4791  0.4335
   59MOL0     H 7736   9.691   0.384   1.026  1.2782 -0.0384 -0.3650
   59MOL0     H 7737   9.550   0.323   0.761  0.9011  2.2769  0.7330
   59MOL0     H 7738   9.595   0.211   0.896  2.8297 -0.3484 -2.7104
   59MOL0     H 7739   9.382   0.443   0.930  0.3201  0.2596  0.2512
   59MOL0     H 7740   9.405   0.313   1.041 -0.6511 -0.7678 -0.1660
   59MOL0     H 7741   9.357   0.040   0.939 -0.8989 -0.7770  0.3712
   59MOL0     H 7742   9.231  -0.121   0.809 -0.1399 -0.8449 -0.2511
   59MOL0     H 7743   9.158  -0.085   0.654 -1.5090 -1.6441  0.4929
   59MOL0     H 7744   8.943   0.025   0.771 -1.1270  0.9406  2.4637
   59MOL0     H 7745   9.021  -0.011   0.914 -1.1143  1.5989 -0.0601
   59MOL0     H 7746   8.962  -0.229   0.704  0.4105  0.7461  0.0558
   59MOL0     H 7747   9.020  -0.251   0.879  1.1912  2.0983  1.0682
   59MOL0     H 7748   8.817  -0.103   0.938  2.3755  2.7587 -1.5489
   59MOL0     H 7749   8.763  -0.264   0.890  0.7885 -0.5158  1.1785
   59MOL0     H 7750   8.591  -0.112   0.556 -0.9374 -1.0674 -0.7270
   59MOL0     H 7751   8.342  -0.133   0.536 -0.2301  4.0290  1.0903
   59MOL0     H 7752   7.898  -0.237   0.802  0.9689  1.0143 -0.2540
   59MOL0     H 7753   7.686  -0.208   0.757 -1.2110 -0.6891 -1.5922
   59MOL0     H 7754   7.553  -0.223   0.336  0.6967  2.1420 -1.7235
   59MOL0     H 7755   7.571  -0.044   0.330  2.3911 -0.4929  0.6938
   59MOL0     H 7756   7.353  -0.082   0.285 -2.0495  2.5855  1.3669
   59MOL0     H 7757   7.343  -0.047   0.454 -0.9975 -0.7190  0.8065
   59MOL0     H 7758   7.340  -0.310   0.497 -0.7651 -1.5328  0.5575
   59MOL0     H 7759   7.357  -0.330   0.317  2.2402  1.8363  0.5739
   59MOL0     H 7760   7.145  -0.178   0.471 -2.7672 -0.7528 -1.8052
   59MOL0     H 7761   7.147  -0.178   0.298  0.3407 -1.1832 -1.0248
   59MOL0     H 7762   7.120  -0.430   0.461 -0.0752  0.3996 -0.1477
   59MOL0     H 7763   7.093  -0.414   0.290  0.1767 -0.7380  0.0704
   59MOL0     H 7764   6.903  -0.244   0.339 -0.1408  0.8688  1.1218
   59MOL0     H 7765   6.934  -0.266   0.512 -0.1408  1.7122 -0.2027
   59MOL0     H 7766   6.908  -0.509   0.473 -0.5658  1.2607  2.2866
   59MOL0     H 7767   6.756  -0.414   0.484 -0.9029 -3.8438  1.2496
   59MOL0     H 7768   6.735  -0.580   0.284 -0.2653  0.3598 -4.6445
   59MOL0     H 7769   6.899  -0.521   0.241  2.0298  1.9435  2.6002
   59MOL0     H 7770   7.787  -0.122   0.340  2.1895  0.7484 -0.0488
   59MOL0     H 7771   8.014  -0.180   0.389 -0.3165 -1.1190  0.0399
   59MOL0     H 7772   8.328  -0.174   0.956 -0.6271  4.9061  0.6185
   59MOL0     H 7773   8.554  -0.144   0.972  0.0490 -0.6325  0.1974
   59MOL0     H 7774  10.515   0.365   0.884  0.8346 -0.8590 -0.0522
   59MOL0     H 7775  10.754   0.356   0.901 -0.4591 -0.9832 -1.0332
   59MOL0     H 7776  11.158   0.559   1.329 -3.3244 -0.2078 -1.8527
   59MOL0     H 7777  11.389   0.494   1.327 -0.6447  1.5199  0.4116
   59MOL0     H 7778  11.611   0.443   1.278  1.1766  0.5952 -2.0577
   59MOL0     H 7779  11.695   0.299   1.207  1.1418 -1.1171  1.2304
   59MOL0     H 7780  11.608   0.222   1.442 -3.4193 -3.1532  1.8511
   59MOL0     H 7781  11.459   0.263   1.393 -0.4399 -0.2416  0.3658
   59MOL0     H 7782  11.638   0.081   1.228  1.4044 -0.9453  1.4674
   59MOL0     H 7783  11.453   0.092   1.230  0.1938 -0.7570 -0.0437
   59MOL0     H 7784  11.527  -0.121   1.312  1.0907  0.6844 -0.8243
   59MOL0     H 7785  11.626  -0.037   1.446  2.6128  0.7272 -1.2221
   59MOL0     H 7786  11.224  -0.055   1.579 -0.2535  0.5595 -1.2250
   59MOL0     H 7787  11.349   0.307   0.935 -0.3408  1.6457 -0.0902
   59MOL0     H 7788  11.098   0.367   0.952 -2.3114  1.9925  1.8871
   60MOL0     O 7789   2.119   9.256   7.548 -0.2645  0.0060 -0.5094
   60MOL0     C 7790   2.187   9.145   7.551  0.5417 -0.6905  0.1464
   60MOL0     O 7791   2.135   9.024   7.544 -0.4918  0.0128 -0.5820
   60MOL0     C 7792   1.998   9.014   7.538  0.3302  0.0150 -0.7830
   60MOL0     C 7793   1.931   8.995   7.657  0.6615  0.0595 -0.2745
   60MOL0     C 7794   1.796   8.979   7.657 -0.4089  0.2147  0.1001
   60MOL0     C 7795   1.718   8.992   7.535 -0.2844 -0.0632  0.6515
   60MOL0     O 7796   1.581   8.978   7.534 -0.3460 -0.2437 -0.3559
   60MOL0     C 7797   1.540   8.898   7.424  0.8397  0.4616  0.8923
   60MOL0     C 7798   1.591   8.759   7.447  0.5324 -0.1621  0.3005
   60MOL0     C 7799   1.507   8.650   7.373 -0.5032  0.0596 -0.6679
   60MOL0     C 7800   1.504   8.673   7.216  0.7467 -0.0574  0.0735
   60MOL0     C 7801   1.496   8.542   7.130  0.1239 -0.7052  0.4642
   60MOL0     C 7802   1.358   8.479   7.120 -0.3527  0.6696  0.0106
   60MOL0     C 7803   1.275   8.564   7.019  0.9607 -0.6206  0.3353
   60MOL0     C 7804   1.127   8.523   7.041  0.2990 -0.0659  0.4851
   60MOL0     N 7805   1.044   8.603   6.953  0.2280  0.4559 -0.1706
   60MOL0     C 7806   1.023   8.570   6.817  0.0145 -0.9192 -0.6839
   60MOL0     C 7807   0.946   8.663   6.769 -0.0625  0.3986 -0.4501
   60MOL0     C 7808   0.897   8.676   6.631  0.4013  0.2024 -0.0898
   60MOL0     C 7809   0.844   8.537   6.589 -0.4942 -0.3399  0.3665
   60MOL0     C 7810   0.712   8.497   6.657 -0.4353  0.4684 -1.4353
   60MOL0     C 7811   0.595   8.596   6.612  0.4159  0.1003  0.4742
   60MOL0     O 7812   0.465   8.537   6.618 -1.1867 -0.6419  1.0650
   60MOL0     C 7813   0.349   8.605   6.586 -0.0819 -0.0234  0.0265
   60MOL0     C 7814   0.336   8.744   6.573 -0.8148  0.7621  0.4754
   60MOL0     C 7815   0.213   8.801   6.555  0.0031 -0.4261  0.4905
   60MOL0     C 7816   0.099   8.722   6.546 -0.3682  0.4083 -0.2847
   60MOL0     C 7817  -0.031   8.788   6.548 -0.7449  0.3677 -0.4385
   60MOL0     O 7818  -0.140   8.703   6.567 -0.2143  0.6924  0.3592
   60MOL0     C 7819  -0.272   8.729   6.524 -0.1105 -1.0816  0.2137
   60MOL0     C 7820  -0.367   8.640   6.577  0.2637  0.3440 -0.9446
   60MOL0     C 7821  -0.502   8.647   6.536  0.2154 -0.2137  0.0007
   60MOL0     C 7822  -0.538   8.751   6.450 -0.2572  0.8736  0.4640
   60MOL0     O 7823  -0.671   8.755   6.417 -0.3715  0.4438  0.0230
   60MOL0     C 7824  -0.724   8.857   6.331  0.5663  0.4517 -0.2252
   60MOL0     C 7825  -0.869   8.816   6.306 -0.4299  0.1834  0.1230
   60MOL0     C 7826  -0.960   8.818   6.441 -0.1020 -0.2915  0.3619
   60MOL0     C 7827  -1.099   8.780   6.408 -0.1654  0.2849  0.3588
   60MOL0     C 7828  -1.190   8.810   6.526  0.3321 -0.6263  1.2879
   60MOL0     C 7829  -1.338   8.774   6.492 -0.8625 -0.3248 -1.1671
   60MOL0     C 7830  -1.426   8.819   6.609 -0.6412 -0.8833 -0.0125
   60MOL0     C 7831  -1.556   8.750   6.604 -0.9599  0.0435  0.4780
   60MOL0    Cl 7832  -1.675   8.843   6.694 -0.0738  0.0064  0.0733
   60MOL0     C 7833  -0.441   8.836   6.397 -0.6695 -0.4357  0.0394
   60MOL0     C 7834  -0.309   8.831   6.435  0.0946  0.1708 -0.2821
   60MOL0     O 7835  -0.031   8.910   6.528 -0.2987 -0.3385  0.2229
   60MOL0     C 7836   0.108   8.578   6.551 -0.2426  0.1450 -0.8379
   60MOL0     C 7837   0.234   8.524   6.574  0.4676  0.7225  0.9298
   60MOL0     N 7838   0.925   8.759   6.872 -0.4171 -0.4009  0.3622
   60MOL0     N 7839   0.988   8.717   6.979  0.1561 -0.1919 -0.0322
   60MOL0     C 7840   1.790   9.015   7.417 -0.9316  0.5773  0.5316
   60MOL0     C 7841   1.929   9.030   7.414 -0.2571  0.2604  0.0154
   60MOL0     C 7842   2.332   9.152   7.555 -0.1120  0.9407  0.0934
   60MOL0     C 7843   2.396   9.272   7.597  0.7016 -0.5201 -0.1305
   60MOL0     C 7844   2.538   9.282   7.590 -0.0599 -0.1045  0.1523
   60MOL0     C 7845   2.622   9.174   7.551  0.0353 -0.8941 -0.2682
   60MOL0     O 7846   2.753   9.173   7.546 -0.3892 -0.1940  0.1463
   60MOL0     C 7847   2.824   9.284   7.596  0.3304 -0.4946  0.2304
   60MOL0     C 7848   2.978   9.256   7.636 -0.2360  0.0602 -0.1493
   60MOL0     C 7849   3.047   9.219   7.510  0.1726  0.6848  0.3699
   60MOL0     C 7850   3.203   9.208   7.515 -0.0282 -0.0374  0.1189
   60MOL0     C 7851   3.246   9.101   7.609 -0.2511  0.7727  0.3624
   60MOL0     C 7852   3.307   9.019   7.679  0.1827 -0.1991  0.0955
   60MOL0     C 7853   2.557   9.053   7.528  0.6865 -0.2160 -0.3232
   60MOL0     C 7854   2.415   9.042   7.517 -0.0011  1.2115  0.2017
   60MOL0     H 7855   1.974   9.000   7.756 -1.9085  2.1046  0.8642
   60MOL0     H 7856   1.749   8.951   7.752 -4.7312 -1.9570 -2.3378
   60MOL0     H 7857   1.566   8.925   7.321 -1.1640 -0.8989 -0.0426
   60MOL0     H 7858   1.431   8.891   7.429  0.7044  0.5779 -1.2175
   60MOL0     H 7859   1.594   8.731   7.553  0.6891  2.0850  0.9331
   60MOL0     H 7860   1.691   8.748   7.402 -0.6552 -0.4176 -2.4811
   60MOL0     H 7861   1.401   8.659   7.396 -0.9239 -1.1941 -1.9613
   60MOL0     H 7862   1.546   8.552   7.402 -0.9805  0.0907  0.0895
   60MOL0     H 7863   1.423   8.744   7.197 -0.5862 -1.3743  0.6392
   60MOL0     H 7864   1.588   8.733   7.181  0.6766 -1.8851 -3.7441
   60MOL0     H 7865   1.568   8.467   7.166 -1.1115 -2.8146 -1.2223
   60MOL0     H 7866   1.526   8.566   7.028  0.5587 -0.0426  0.7434
   60MOL0     H 7867   1.316   8.476   7.221  0.9704 -2.4172  0.5801
   60MOL0     H 7868   1.357   8.379   7.078  1.3533  1.0829 -1.1488
   60MOL0     H 7869   1.270   8.672   7.035  1.6831 -0.7011  1.1491
   60MOL0     H 7870   1.311   8.555   6.916 -1.3272 -1.0504 -0.4924
   60MOL0     H 7871   1.091   8.530   7.144 -0.2030 -0.5826  0.3514
   60MOL0     H 7872   1.103   8.419   7.017 -3.1978  0.7537 -0.1541
   60MOL0     H 7873   1.068   8.489   6.761  2.1748 -1.2122  1.3389
   60MOL0     H 7874   0.990   8.691   6.574  0.9013 -2.8671 -0.2584
   60MOL0     H 7875   0.828   8.758   6.608 -1.2223 -1.1593 -0.2222
   60MOL0     H 7876   0.928   8.469   6.604 -0.4975 -0.5786 -0.6367
   60MOL0     H 7877   0.825   8.537   6.482 -0.2402  2.1784  0.2462
   60MOL0     H 7878   0.679   8.397   6.627 -0.5225 -0.0760  0.3254
   60MOL0     H 7879   0.736   8.498   6.764  2.5193  3.5485 -1.9603
   60MOL0     H 7880   0.615   8.626   6.508  0.6411 -1.1659  0.1359
   60MOL0     H 7881   0.598   8.687   6.672 -4.2312 -0.1966  1.4940
   60MOL0     H 7882   0.422   8.811   6.578 -0.4675  0.5521 -1.6602
   60MOL0     H 7883   0.205   8.909   6.552  2.6090 -0.1557  0.9625
   60MOL0     H 7884  -0.330   8.559   6.639  4.4277  2.1415 -0.8156
   60MOL0     H 7885  -0.578   8.577   6.568 -0.0257  0.1362  0.2042
   60MOL0     H 7886  -0.671   8.861   6.235 -2.7840  2.2058 -2.1830
   60MOL0     H 7887  -0.734   8.961   6.362 -2.1091  0.1210  0.2279
   60MOL0     H 7888  -0.858   8.711   6.278 -0.5501 -0.5135  2.4771
   60MOL0     H 7889  -0.907   8.871   6.220  0.1872 -1.8212 -1.5121
   60MOL0     H 7890  -0.947   8.918   6.485  2.1002 -0.0960 -0.5896
   60MOL0     H 7891  -0.907   8.744   6.502  0.6476 -1.7052 -1.8821
   60MOL0     H 7892  -1.129   8.834   6.317 -1.9982  0.9082  1.2841
   60MOL0     H 7893  -1.088   8.674   6.382  2.5794  0.6701 -0.4420
   60MOL0     H 7894  -1.194   8.917   6.547 -1.2750 -0.5636  0.7486
   60MOL0     H 7895  -1.165   8.765   6.623 -0.1167  0.7770  2.0938
   60MOL0     H 7896  -1.350   8.667   6.473  1.9625 -1.0132  0.3638
   60MOL0     H 7897  -1.371   8.827   6.403 -0.1217  1.7640 -0.2722
   60MOL0     H 7898  -1.368   8.796   6.699  0.4023 -0.8570 -0.6602
   60MOL0     H 7899  -1.449   8.926   6.606 -0.2920 -0.8245 -0.6083
   60MOL0     H 7900  -1.541   8.648   6.641  3.6275  0.7716  1.2430
   60MOL0     H 7901  -1.586   8.749   6.499  0.5145  1.6281  0.0021
   60MOL0     H 7902  -0.468   8.913   6.325 -0.8219  0.2064  0.7719
   60MOL0     H 7903  -0.242   8.903   6.388 -0.6973  1.0128 -0.1534
   60MOL0     H 7904   0.028   8.506   6.536  0.3066 -0.5888 -0.3228
   60MOL0     H 7905   0.244   8.416   6.581  0.7282  0.6603 -0.1472
   60MOL0     H 7906   1.737   9.034   7.325 -0.1729 -2.7244 -0.7305
   60MOL0     H 7907   1.984   9.045   7.321 -4.6351  1.0148 -2.7525
   60MOL0     H 7908   2.334   9.359   7.617  0.8523 -0.2477 -0.7980
   60MOL0     H 7909   2.581   9.382   7.595  1.1426 -0.5895 -0.3772
   60MOL0     H 7910   2.780   9.329   7.686 -1.4131 -0.1019 -0.7724
   60MOL0     H 7911   2.816   9.358   7.517 -1.3655 -3.8343 -3.0517
   60MOL0     H 7912   3.013   9.349   7.681  0.1595  0.2910 -0.9211
   60MOL0     H 7913   2.963   9.173   7.707 -2.6181  0.4103 -0.1645
   60MOL0     H 7914   3.029   9.293   7.432  2.8591  3.0050  1.7654
   60MOL0     H 7915   3.018   9.121   7.470  0.9483  1.8742 -3.4914
   60MOL0     H 7916   3.241   9.183   7.415 -1.8194 -0.6092 -0.4588
   60MOL0     H 7917   3.250   9.302   7.543  1.4006 -0.9309  0.8371
   60MOL0     H 7918   3.360   8.942   7.732  1.2086  1.0393  0.9351
   60MOL0     H 7919   2.613   8.960   7.515 -2.0863 -2.2593  1.3054
   60MOL0     H 7920   2.371   8.944   7.498  0.8711  0.7881  0.3286
   61MOL0     O 7921   6.846   5.846   7.792 -0.2499  0.5976 -0.2664
   61MOL0     C 7922   6.864   5.971   7.765  0.4625  0.8404  0.4292
   61MOL0     O 7923   6.774   6.069   7.790 -0.0771  0.1186 -0.0188
   61MOL0     C 7924   6.680   6.042   7.881  0.2072 -1.1366  0.1165
   61MOL0     C 7925   6.551   6.057   7.834 -0.0777 -0.5416  0.6499
   61MOL0     C 7926   6.439   6.032   7.919 -0.4010  0.4818 -0.2896
   61MOL0     C 7927   6.467   6.001   8.052  0.4775 -1.0734 -0.0307
   61MOL0     O 7928   6.352   5.980   8.134 -0.6741  0.5243  0.5958
   61MOL0     C 7929   6.354   5.999   8.282  0.0026 -0.5390  0.1960
   61MOL0     C 7930   6.225   5.963   8.353  0.1556 -0.0833 -0.0166
   61MOL0     C 7931   6.217   5.970   8.509 -0.1224 -0.2804  0.1173
   61MOL0     C 7932   6.173   6.111   8.544  1.0894  0.3514  0.4204
   61MOL0     C 7933   6.024   6.137   8.521  0.0908  0.7495 -0.6241
   61MOL0     C 7934   5.987   6.278   8.509  0.0737 -0.7732 -0.1374
   61MOL0     C 7935   5.859   6.292   8.418  1.0487  0.4837  0.1084
   61MOL0     C 7936   5.805   6.435   8.407  0.6491  0.1772 -0.1723
   61MOL0     N 7937   5.766   6.462   8.271  0.3574  0.0914 -0.9691
   61MOL0     C 7938   5.643   6.433   8.210  0.0819  0.0117  0.4522
   61MOL0     C 7939   5.667   6.472   8.081  0.1630  0.1760 -1.4378
   61MOL0     C 7940   5.571   6.487   7.982 -0.4398  0.1616 -0.3878
   61MOL0     C 7941   5.423   6.443   7.992  0.0534 -0.1618  0.2093
   61MOL0     C 7942   5.338   6.464   7.863 -0.2463  0.6562 -0.6745
   61MOL0     C 7943   5.189   6.427   7.898 -1.0686  0.3216 -0.1212
   61MOL0     O 7944   5.095   6.455   7.790 -0.5106  0.0441 -0.2512
   61MOL0     C 7945   4.963   6.461   7.813  0.4228 -0.2077  0.6193
   61MOL0     C 7946   4.902   6.365   7.900 -0.5142 -0.6698  0.0820
   61MOL0     C 7947   4.768   6.383   7.924 -0.5383 -0.5398  0.0058
   61MOL0     C 7948   4.685   6.480   7.854 -0.0477 -0.0722 -0.6740
   61MOL0     C 7949   4.537   6.483   7.874 -1.3578  0.4952 -0.3538
   61MOL0     O 7950   4.484   6.406   7.981  0.9464 -0.0953 -0.5250
   61MOL0     C 7951   4.366   6.455   8.027 -0.7345  0.3329  0.3464
   61MOL0     C 7952   4.252   6.374   8.005  0.8272  0.9826  0.3961
   61MOL0     C 7953   4.134   6.423   8.060  0.4619  0.5313 -0.5297
   61MOL0     C 7954   4.125   6.529   8.149 -0.1993  0.3013 -1.0221
   61MOL0     O 7955   4.004   6.547   8.208 -0.3908  0.6505 -0.3152
   61MOL0     C 7956   3.961   6.680   8.228  0.1392  0.4363 -0.7427
   61MOL0     C 7957   3.811   6.693   8.232 -0.1581 -0.3418 -0.0642
   61MOL0     C 7958   3.752   6.714   8.090  0.3274  0.0929 -0.0650
   61MOL0     C 7959   3.804   6.622   7.967 -0.9858 -0.0686  0.1155
   61MOL0     C 7960   3.776   6.472   7.986 -0.3489  0.5457 -0.2942
   61MOL0     C 7961   3.631   6.433   8.001  0.9532  0.0101  0.0586
   61MOL0     C 7962   3.568   6.413   8.143 -0.2070 -0.1404  0.3346
   61MOL0     C 7963   3.412   6.406   8.150  0.5202  0.7163  0.1208
   61MOL0    Cl 7964   3.348   6.266   8.058  0.0786 -0.0231 -0.2281
   61MOL0     C 7965   4.240   6.601   8.177  1.0248  0.4205  1.2156
   61MOL0     C 7966   4.361   6.568   8.108 -0.3551 -0.8025 -0.4577
   61MOL0     O 7967   4.475   6.559   7.801 -0.5357  0.3736 -0.1761
   61MOL0     C 7968   4.750   6.567   7.762 -0.6290  0.0005 -0.0073
   61MOL0     C 7969   4.889   6.559   7.743 -1.0907  0.9429 -0.4222
   61MOL0     N 7970   5.791   6.539   8.071 -0.5606  1.2332 -0.2494
   61MOL0     N 7971   5.849   6.526   8.188 -0.4706  0.3038  0.2726
   61MOL0     C 7972   6.603   5.990   8.096  0.0539  0.4259 -0.3131
   61MOL0     C 7973   6.707   6.003   8.008  0.1215 -0.0747 -0.5579
   61MOL0     C 7974   6.961   6.011   7.667 -1.1270 -0.3229 -0.6815
   61MOL0     C 7975   7.043   5.910   7.610 -0.1264 -0.9011 -1.2196
   61MOL0     C 7976   7.140   5.935   7.521  1.1345  0.7940  0.2960
   61MOL0     C 7977   7.163   6.061   7.478 -0.6284  0.3233 -0.3457
   61MOL0     O 7978   7.254   6.072   7.377  0.1901 -0.5211  0.6777
   61MOL0     C 7979   7.361   6.157   7.411 -0.3566 -0.1059  0.5140
   61MOL0     C 7980   7.484   6.136   7.325  0.0035 -0.0775  0.1696
   61MOL0     C 7981   7.444   6.139   7.172  0.3507  0.6376 -0.2829
   61MOL0     C 7982   7.349   6.254   7.127  0.0345  0.5379 -0.6714
   61MOL0     C 7983   7.413   6.385   7.106  1.0112 -0.2080  0.6136
   61MOL0     C 7984   7.475   6.488   7.088  0.0115 -0.1909  0.1207
   61MOL0     C 7985   7.086   6.168   7.525  0.3539  0.1541 -0.4644
   61MOL0     C 7986   6.980   6.145   7.620  1.0438  0.0621  0.4281
   61MOL0     H 7987   6.533   6.096   7.735 -2.2178  0.6709  1.4532
   61MOL0     H 7988   6.341   6.021   7.874  0.2327  0.0617 -1.6436
   61MOL0     H 7989   6.389   6.099   8.308  1.9654 -1.7300  2.5761
   61MOL0     H 7990   6.432   5.929   8.316 -1.6687 -2.1019  0.9494
   61MOL0     H 7991   6.210   5.859   8.322  0.9763  0.6002 -2.9920
   61MOL0     H 7992   6.149   6.018   8.298 -0.4631 -1.4145 -0.5367
   61MOL0     H 7993   6.321   5.963   8.543  0.3568 -0.1112 -1.2706
   61MOL0     H 7994   6.157   5.890   8.555  0.4147  1.3643  4.1244
   61MOL0     H 7995   6.195   6.129   8.650 -3.8216  0.3068  1.6951
   61MOL0     H 7996   6.224   6.184   8.481 -0.1227  1.0213  0.1822
   61MOL0     H 7997   5.979   6.096   8.612  0.0200 -1.6537 -1.6540
   61MOL0     H 7998   5.979   6.072   8.445 -0.9940 -3.1895  2.9673
   61MOL0     H 7999   6.068   6.346   8.484  0.4866 -1.5694 -1.0347
   61MOL0     H 8000   5.970   6.297   8.615 -2.0196 -0.0742 -0.5398
   61MOL0     H 8001   5.887   6.257   8.319  0.3555 -0.6083  0.2789
   61MOL0     H 8002   5.783   6.222   8.454  0.3656  0.6978 -0.9004
   61MOL0     H 8003   5.884   6.498   8.449  0.3354 -0.7316  1.9291
   61MOL0     H 8004   5.713   6.460   8.461  1.6453  3.0090  0.3862
   61MOL0     H 8005   5.550   6.407   8.261  0.9859  1.9089  3.3155
   61MOL0     H 8006   5.616   6.434   7.897  1.4073  1.3905 -0.2205
   61MOL0     H 8007   5.576   6.595   7.966  0.5252  0.0530 -0.8679
   61MOL0     H 8008   5.374   6.496   8.075  1.1319  1.8921 -0.3901
   61MOL0     H 8009   5.434   6.337   8.015 -0.0809  0.0435  1.2901
   61MOL0     H 8010   5.342   6.568   7.831  2.0944  1.1759  1.0617
   61MOL0     H 8011   5.369   6.395   7.783  0.3240 -1.7902  1.4958
   61MOL0     H 8012   5.165   6.495   7.981 -1.3404  0.7536 -0.5462
   61MOL0     H 8013   5.187   6.320   7.919  1.4789  0.2242 -0.0272
   61MOL0     H 8014   4.959   6.287   7.948  2.7359  1.9031  0.8078
   61MOL0     H 8015   4.712   6.322   7.993 -2.9436 -0.2625 -1.5770
   61MOL0     H 8016   4.257   6.285   7.944  0.8867  1.7382 -0.7281
   61MOL0     H 8017   4.045   6.369   8.031 -0.8437  3.0650 -1.6249
   61MOL0     H 8018   4.002   6.748   8.153  2.2152  1.5994  1.3206
   61MOL0     H 8019   3.995   6.714   8.326 -1.2265 -1.1350  0.3432
   61MOL0     H 8020   3.770   6.770   8.297  0.1773  1.2139 -1.6361
   61MOL0     H 8021   3.765   6.599   8.265  0.9747 -1.1533 -0.6963
   61MOL0     H 8022   3.783   6.817   8.073 -0.1501  0.9539  3.5418
   61MOL0     H 8023   3.643   6.701   8.095  0.5636 -2.3852 -0.3454
   61MOL0     H 8024   3.751   6.669   7.884 -1.8198 -1.7682 -0.3550
   61MOL0     H 8025   3.909   6.648   7.950 -1.2368  2.3486  1.6482
   61MOL0     H 8026   3.824   6.432   8.075  0.4392 -0.8702 -1.3137
   61MOL0     H 8027   3.820   6.425   7.897  0.4030 -3.2946  1.8860
   61MOL0     H 8028   3.620   6.337   7.948  0.3833  0.9617 -1.6476
   61MOL0     H 8029   3.568   6.506   7.949 -1.7411 -0.7607  2.0103
   61MOL0     H 8030   3.616   6.329   8.195  0.3871 -0.7442 -1.1208
   61MOL0     H 8031   3.600   6.505   8.194 -0.1871  0.3670 -0.5763
   61MOL0     H 8032   3.375   6.499   8.105 -1.0610 -0.5022 -1.2019
   61MOL0     H 8033   3.377   6.400   8.253  0.6847 -0.5703  0.1160
   61MOL0     H 8034   4.241   6.679   8.252 -0.1164  1.3025  0.3296
   61MOL0     H 8035   4.455   6.619   8.130 -1.3453 -0.3513  3.6192
   61MOL0     H 8036   4.707   6.647   7.702 -0.1584  0.6174  0.4659
   61MOL0     H 8037   4.955   6.631   7.695  2.0444 -0.6219  1.1798
   61MOL0     H 8038   6.633   5.954   8.194 -0.0285 -2.3179 -1.2155
   61MOL0     H 8039   6.809   5.983   8.041  0.7891  0.2639 -2.3109
   61MOL0     H 8040   7.033   5.811   7.654  0.6029  0.7177  3.0919
   61MOL0     H 8041   7.203   5.857   7.477  1.1944  1.8430 -1.5718
   61MOL0     H 8042   7.387   6.141   7.517 -1.0874 -2.4355  0.4000
   61MOL0     H 8043   7.331   6.262   7.407  0.8719  0.2359 -0.1986
   61MOL0     H 8044   7.549   6.224   7.329 -1.6124  1.1362  0.9108
   61MOL0     H 8045   7.522   6.040   7.361 -0.6191  0.0581  1.2236
   61MOL0     H 8046   7.394   6.043   7.152  0.6100  0.4408  0.0126
   61MOL0     H 8047   7.540   6.138   7.120  0.8447  1.2286  0.5939
   61MOL0     H 8048   7.312   6.223   7.029 -0.1443 -3.3626  0.4756
   61MOL0     H 8049   7.262   6.265   7.192  1.9313  2.3994  1.7657
   61MOL0     H 8050   7.522   6.584   7.088 -4.7136  2.4718  1.9800
   61MOL0     H 8051   7.123   6.266   7.497  3.4779 -0.2051  1.9318
   61MOL0     H 8052   6.926   6.234   7.651  3.8859  2.9104 -2.0202
   62MOL0     O 8053   1.828   3.785   5.747 -0.1088 -0.2741  0.2367
   62MOL0     C 8054   1.842   3.661   5.749 -0.5359  0.1020  0.9178
   62MOL0     O 8055   1.740   3.570   5.783  0.0317  0.0107 -0.9465
   62MOL0     C 8056   1.621   3.633   5.817 -0.0117 -0.8821 -0.1428
   62MOL0     C 8057   1.546   3.724   5.732 -0.3925  0.0546 -0.6059
   62MOL0     C 8058   1.426   3.782   5.786 -0.1486  0.6902 -0.5268
   62MOL0     C 8059   1.371   3.726   5.911  0.6752 -0.3421  0.2091
   62MOL0     O 8060   1.253   3.773   5.969  0.4786  0.4257  0.9990
   62MOL0     C 8061   1.166   3.859   5.897  0.2981  0.3598 -0.6749
   62MOL0     C 8062   1.053   3.904   6.000  1.0836  0.1460 -0.1035
   62MOL0     C 8063   0.938   3.976   5.928 -0.0714  0.2679  0.2130
   62MOL0     C 8064   0.832   4.020   6.029 -0.3822  0.2096  0.2990
   62MOL0     C 8065   0.699   4.028   5.966  0.1517 -0.4231  0.6123
   62MOL0     C 8066   0.592   4.045   6.078  0.7180 -0.1160 -0.3077
   62MOL0     C 8067   0.448   4.018   6.044  1.1420 -0.2301  1.0612
   62MOL0     C 8068   0.408   3.878   6.077  0.8476  0.1052  0.4499
   62MOL0     N 8069   0.270   3.840   6.054  0.6732  0.4677  0.6054
   62MOL0     C 8070   0.240   3.705   6.018 -0.3990 -0.5903  0.0898
   62MOL0     C 8071   0.105   3.703   6.037 -0.3200 -0.0369 -0.3354
   62MOL0     C 8072   0.015   3.595   5.997  0.2468 -0.4830 -0.6300
   62MOL0     C 8073  -0.010   3.585   5.844 -0.6426  0.0999 -0.2311
   62MOL0     C 8074  -0.081   3.706   5.781 -0.7851  0.9455  0.3283
   62MOL0     C 8075  -0.209   3.751   5.851 -1.8303  0.4828 -0.4742
   62MOL0     O 8076  -0.322   3.667   5.815  0.1808  0.7170 -0.2148
   62MOL0     C 8077  -0.444   3.689   5.883 -0.4190 -0.3539 -0.4212
   62MOL0     C 8078  -0.469   3.769   5.995 -0.0298  0.3733 -0.4607
   62MOL0     C 8079  -0.596   3.777   6.059  0.6215  0.5873  0.6630
   62MOL0     C 8080  -0.702   3.694   6.015  0.0909  0.9612  1.0867
   62MOL0     C 8081  -0.819   3.675   6.098 -0.5929 -0.1198  0.5671
   62MOL0     O 8082  -0.907   3.584   6.059  0.0789  0.0759  1.0271
   62MOL0     C 8083  -1.034   3.579   6.122  0.4025 -0.7752  0.2171
   62MOL0     C 8084  -1.070   3.467   6.203 -0.2084 -0.8571  0.2170
   62MOL0     C 8085  -1.201   3.445   6.246 -0.3291 -0.3351 -0.9621
   62MOL0     C 8086  -1.295   3.553   6.223 -0.4213 -0.0904 -0.8962
   62MOL0     O 8087  -1.424   3.544   6.280  0.1601  0.5614 -0.8127
   62MOL0     C 8088  -1.518   3.632   6.229 -0.1945 -0.3968  0.2440
   62MOL0     C 8089  -1.655   3.584   6.261  0.5339 -0.8330  0.2336
   62MOL0     C 8090  -1.669   3.443   6.191 -0.6515  0.1930  0.5111
   62MOL0     C 8091  -1.807   3.408   6.145  0.7658 -0.1162  0.0454
   62MOL0     C 8092  -1.891   3.345   6.247  0.3576 -0.1015 -0.1547
   62MOL0     C 8093  -1.953   3.434   6.358  0.2744 -0.6895 -0.3235
   62MOL0     C 8094  -2.068   3.353   6.421 -0.3884 -0.0076  0.0134
   62MOL0     C 8095  -2.113   3.420   6.546 -0.1975 -0.2878  0.3922
   62MOL0    Cl 8096  -2.168   3.584   6.520  0.0628  0.4722 -0.1277
   62MOL0     C 8097  -1.259   3.665   6.142 -1.3280 -0.1607 -0.3241
   62MOL0     C 8098  -1.129   3.672   6.086  1.0114  0.0482 -0.0199
   62MOL0     O 8099  -0.835   3.744   6.197 -0.1317 -0.4476 -0.0304
   62MOL0     C 8100  -0.676   3.616   5.906 -0.3404  0.3037  1.0612
   62MOL0     C 8101  -0.548   3.617   5.837 -0.5471 -1.0155 -0.1350
   62MOL0     N 8102   0.056   3.833   6.070 -0.9020 -0.2719 -0.1988
   62MOL0     N 8103   0.161   3.909   6.086  1.2976 -0.3002  0.0287
   62MOL0     C 8104   1.441   3.634   5.975  0.1128 -0.8025 -0.3239
   62MOL0     C 8105   1.566   3.590   5.932 -0.1672  1.3699  0.3407
   62MOL0     C 8106   1.962   3.602   5.689  0.3293  0.5967  0.9305
   62MOL0     C 8107   2.047   3.680   5.602  0.4465  0.3043 -1.0882
   62MOL0     C 8108   2.157   3.614   5.537 -0.5923 -0.3272  0.4046
   62MOL0     C 8109   2.188   3.477   5.559 -0.1560 -0.2700  0.4153
   62MOL0     O 8110   2.287   3.413   5.494  0.6152 -0.0763 -0.1530
   62MOL0     C 8111   2.417   3.450   5.545 -0.7694 -0.0727  0.1210
   62MOL0     C 8112   2.464   3.352   5.649 -0.1120  0.7767 -0.4634
   62MOL0     C 8113   2.612   3.374   5.694 -0.3676  0.3951 -0.4604
   62MOL0     C 8114   2.653   3.485   5.787 -0.4248 -0.3484  0.8586
   62MOL0     C 8115   2.784   3.457   5.851 -1.1056 -0.2750  0.4209
   62MOL0     C 8116   2.890   3.437   5.916  0.4075  0.2963  0.0053
   62MOL0     C 8117   2.114   3.407   5.657  0.7519  0.2572 -0.0098
   62MOL0     C 8118   1.996   3.463   5.713 -0.3572  0.2302  0.6325
   62MOL0     H 8119   1.588   3.759   5.638 -1.8077 -2.4707 -2.2964
   62MOL0     H 8120   1.368   3.845   5.720 -1.7252 -1.6815 -1.5599
   62MOL0     H 8121   1.120   3.809   5.812  0.5462 -0.4544 -0.3410
   62MOL0     H 8122   1.215   3.952   5.867 -2.5263  1.6806 -1.5172
   62MOL0     H 8123   1.100   3.960   6.081 -0.1254 -0.4738  1.0503
   62MOL0     H 8124   1.012   3.808   6.034  3.2918 -0.1642  1.9274
   62MOL0     H 8125   0.903   3.900   5.858  1.0278 -2.0820  2.0744
   62MOL0     H 8126   0.986   4.066   5.889  1.2009  0.7154  2.6556
   62MOL0     H 8127   0.827   3.948   6.111  0.3519 -0.4895 -0.2492
   62MOL0     H 8128   0.862   4.107   6.087 -0.6513  0.0530  0.6769
   62MOL0     H 8129   0.680   3.939   5.906 -2.6603  0.1913  0.4503
   62MOL0     H 8130   0.686   4.109   5.893  0.7609 -0.1282  0.8230
   62MOL0     H 8131   0.598   4.150   6.107 -0.1447 -0.0038 -0.4871
   62MOL0     H 8132   0.615   3.987   6.168 -1.7926 -1.2264 -0.2719
   62MOL0     H 8133   0.396   4.083   6.115  1.0987  1.0780 -0.0981
   62MOL0     H 8134   0.416   4.052   5.944 -1.5320  1.8216  2.4802
   62MOL0     H 8135   0.417   3.864   6.185 -2.4223  0.0902  0.8183
   62MOL0     H 8136   0.476   3.815   6.020  2.0373  0.0486  1.8773
   62MOL0     H 8137   0.301   3.618   5.997 -1.7178 -2.4026  3.0941
   62MOL0     H 8138  -0.082   3.594   6.048 -0.5696  1.6265 -2.0037
   62MOL0     H 8139   0.070   3.503   6.022  0.5835  0.1064  0.9514
   62MOL0     H 8140  -0.073   3.499   5.819 -0.5482 -0.0346 -0.0152
   62MOL0     H 8141   0.086   3.570   5.793 -1.0507  0.8006 -1.2201
   62MOL0     H 8142  -0.007   3.787   5.787  2.4636 -1.8652  1.1509
   62MOL0     H 8143  -0.103   3.685   5.676  2.4737  1.4879 -0.5770
   62MOL0     H 8144  -0.224   3.852   5.810  2.5565  1.0088 -1.3208
   62MOL0     H 8145  -0.193   3.751   5.959  0.7694 -1.0543 -0.7674
   62MOL0     H 8146  -0.386   3.833   6.024  2.0144 -1.1864 -2.4991
   62MOL0     H 8147  -0.618   3.846   6.140 -0.2949 -1.0573  1.8858
   62MOL0     H 8148  -0.999   3.391   6.234 -0.8230 -0.3455  3.1912
   62MOL0     H 8149  -1.213   3.344   6.282  1.6396 -0.5651 -0.8433
   62MOL0     H 8150  -1.508   3.649   6.121  1.9645 -1.2303  0.2587
   62MOL0     H 8151  -1.512   3.733   6.272 -2.0255 -0.2528  0.2541
   62MOL0     H 8152  -1.724   3.660   6.222  1.7450  0.9345  1.3951
   62MOL0     H 8153  -1.676   3.579   6.368 -1.8715  0.1545 -0.1265
   62MOL0     H 8154  -1.623   3.361   6.247  2.6237  1.8869  0.4990
   62MOL0     H 8155  -1.613   3.448   6.098  0.7572  2.4644  1.3980
   62MOL0     H 8156  -1.846   3.503   6.108  0.3287 -1.6037 -3.6980
   62MOL0     H 8157  -1.803   3.341   6.059  0.4576  0.7495 -0.6454
   62MOL0     H 8158  -1.822   3.276   6.296  2.7358  3.8684  2.7317
   62MOL0     H 8159  -1.970   3.290   6.195 -0.4458 -0.5772  1.4731
   62MOL0     H 8160  -2.016   3.514   6.318  0.1030 -0.5394  0.2374
   62MOL0     H 8161  -1.880   3.478   6.427  0.6846  0.4679 -1.4595
   62MOL0     H 8162  -2.153   3.339   6.354  0.1527 -0.6635 -0.5457
   62MOL0     H 8163  -2.029   3.253   6.442  1.3141  0.1909 -1.9643
   62MOL0     H 8164  -2.024   3.418   6.610  1.2984  0.1126 -1.5725
   62MOL0     H 8165  -2.201   3.370   6.586 -2.0411  2.4500  0.0289
   62MOL0     H 8166  -1.319   3.754   6.124 -1.1469 -0.5621 -3.2857
   62MOL0     H 8167  -1.099   3.754   6.022 -0.6127  0.8337  0.1808
   62MOL0     H 8168  -0.750   3.545   5.869  0.0283  1.0163 -1.2598
   62MOL0     H 8169  -0.527   3.556   5.749  2.8693  2.0314 -1.6877
   62MOL0     H 8170   1.409   3.615   6.077  1.5865  0.4264  0.4112
   62MOL0     H 8171   1.616   3.519   5.997 -0.8988  0.0528 -0.4840
   62MOL0     H 8172   2.033   3.787   5.591  0.4292  0.1550 -2.7510
   62MOL0     H 8173   2.208   3.678   5.466 -1.8630 -0.9920 -1.1644
   62MOL0     H 8174   2.416   3.550   5.589  0.2189 -0.7605  1.8634
   62MOL0     H 8175   2.493   3.454   5.466 -1.3285 -0.2042 -0.4270
   62MOL0     H 8176   2.402   3.350   5.740  1.2795  0.3272  0.5155
   62MOL0     H 8177   2.461   3.251   5.607 -3.0067  0.0657  1.1252
   62MOL0     H 8178   2.680   3.368   5.608 -0.9401 -0.7756 -0.8409
   62MOL0     H 8179   2.634   3.285   5.753 -1.3752 -0.2947 -1.1065
   62MOL0     H 8180   2.659   3.580   5.733 -1.9958 -1.4675 -1.4735
   62MOL0     H 8181   2.578   3.479   5.867 -2.0950 -2.1373 -0.7387
   62MOL0     H 8182   2.972   3.411   5.980  0.0273  0.2080  0.4614
   62MOL0     H 8183   2.130   3.302   5.681  1.3594  0.3448 -0.0117
   62MOL0     H 8184   1.943   3.398   5.781  1.1177 -1.8572 -0.1155
   63MOL0     O 8185   8.813   1.914   7.652  0.2156  0.0461  0.2224
   63MOL0     C 8186   8.796   2.028   7.616 -0.0548 -0.2932  0.1282
   63MOL0     O 8187   8.670   2.072   7.570  0.0948 -0.3370  0.1481
   63MOL0     C 8188   8.566   1.981   7.556 -0.0568  0.7151  0.1495
   63MOL0     C 8189   8.447   2.009   7.618 -0.3143 -1.1904  0.7571
   63MOL0     C 8190   8.334   1.939   7.582  0.4163 -0.4871 -0.1531
   63MOL0     C 8191   8.340   1.832   7.497  0.4999 -0.2477 -0.3366
   63MOL0     O 8192   8.230   1.763   7.450 -0.2167 -0.0484 -0.0491
   63MOL0     C 8193   8.108   1.789   7.518  0.0874  0.2513 -0.3910
   63MOL0     C 8194   8.000   1.678   7.475 -0.1269  0.1843  0.2445
   63MOL0     C 8195   8.050   1.533   7.486 -0.5898  0.0879  0.5866
   63MOL0     C 8196   7.928   1.439   7.466  0.0259  0.2373 -0.4503
   63MOL0     C 8197   7.982   1.291   7.469  0.0532 -0.2119  0.2190
   63MOL0     C 8198   7.870   1.197   7.428 -0.8421  0.1710  0.1605
   63MOL0     C 8199   7.911   1.055   7.427 -0.1984  0.8951  0.2047
   63MOL0     C 8200   7.925   1.007   7.575  0.5285  0.3525 -0.1009
   63MOL0     N 8201   7.984   0.876   7.551 -0.2658  0.0184  0.3305
   63MOL0     C 8202   7.920   0.757   7.540  0.5849 -0.7669 -1.2007
   63MOL0     C 8203   8.008   0.654   7.534 -0.4905 -0.3854 -0.0231
   63MOL0     C 8204   7.968   0.509   7.505  0.9173  0.1498  0.5774
   63MOL0     C 8205   7.975   0.499   7.356 -0.4190 -0.3822  0.5519
   63MOL0     C 8206   8.083   0.421   7.286 -0.3627 -0.3636  0.3807
   63MOL0     C 8207   8.065   0.419   7.130  0.5671 -0.2890  0.1244
   63MOL0     O 8208   7.970   0.313   7.093  0.4161  0.1856  0.0884
   63MOL0     C 8209   7.833   0.330   7.073  0.4589 -0.8042  0.3477
   63MOL0     C 8210   7.753   0.216   7.061  0.5690 -0.3659 -0.2385
   63MOL0     C 8211   7.615   0.223   7.033 -0.5368 -0.1187 -0.2835
   63MOL0     C 8212   7.552   0.346   7.016 -0.7103  0.8383 -0.8491
   63MOL0     C 8213   7.405   0.359   7.010  0.2023 -0.0755 -0.2303
   63MOL0     O 8214   7.348   0.490   7.015 -1.5017  0.3211  1.3766
   63MOL0     C 8215   7.207   0.512   7.000  0.5096 -0.8263  0.1300
   63MOL0     C 8216   7.161   0.642   7.037 -0.5525  1.1541  0.3667
   63MOL0     C 8217   7.031   0.668   7.034  0.2468 -0.2778 -0.0453
   63MOL0     C 8218   6.937   0.593   6.959 -1.3912 -0.1694 -0.0187
   63MOL0     O 8219   6.803   0.626   6.954 -0.9810  0.2415  0.7640
   63MOL0     C 8220   6.721   0.572   7.060 -0.1822  0.3175 -0.0894
   63MOL0     C 8221   6.574   0.622   7.070 -0.1407 -0.5715 -1.1821
   63MOL0     C 8222   6.488   0.522   7.146  0.6815  0.4270 -0.7086
   63MOL0     C 8223   6.340   0.570   7.147  0.0126 -0.9380 -0.0002
   63MOL0     C 8224   6.241   0.452   7.186  0.6429 -0.1514  0.4822
   63MOL0     C 8225   6.103   0.508   7.224  0.3877  0.0402  0.7069
   63MOL0     C 8226   6.022   0.377   7.257 -0.4018  0.0287 -0.2022
   63MOL0     C 8227   5.876   0.393   7.283  0.1821  0.9983 -0.2127
   63MOL0    Cl 8228   5.790   0.233   7.254 -0.0348 -0.0914 -0.4130
   63MOL0     C 8229   6.981   0.471   6.906  0.7311  0.9453 -0.0711
   63MOL0     C 8230   7.116   0.426   6.933  0.1384 -0.4145 -0.6501
   63MOL0     O 8231   7.343   0.255   7.011 -0.2933  0.5887 -0.6052
   63MOL0     C 8232   7.637   0.466   7.025  0.1846  0.3743 -0.6816
   63MOL0     C 8233   7.772   0.459   7.061 -0.5930 -0.2758  0.3871
   63MOL0     N 8234   8.132   0.721   7.528  0.6976 -0.1825 -0.0284
   63MOL0     N 8235   8.117   0.850   7.535  0.2379 -0.7607 -0.2108
   63MOL0     C 8236   8.460   1.796   7.450  0.4300 -0.2999  0.4861
   63MOL0     C 8237   8.575   1.871   7.475  0.4546 -0.4167 -1.1241
   63MOL0     C 8238   8.908   2.121   7.606  0.2787 -0.7172 -0.9846
   63MOL0     C 8239   9.030   2.083   7.678  0.0062 -0.5645  1.0492
   63MOL0     C 8240   9.138   2.167   7.681  0.0721 -0.2379 -0.8105
   63MOL0     C 8241   9.121   2.300   7.621 -0.1424  0.9008 -0.1464
   63MOL0     O 8242   9.214   2.399   7.614  0.4207  0.0003 -0.5289
   63MOL0     C 8243   9.353   2.367   7.630  0.7378 -0.4231 -0.0655
   63MOL0     C 8244   9.434   2.491   7.617 -0.5709 -0.4357 -0.0424
   63MOL0     C 8245   9.406   2.578   7.742  0.2261  0.2670 -0.6629
   63MOL0     C 8246   9.379   2.723   7.717  0.2306 -0.4004 -0.5503
   63MOL0     C 8247   9.374   2.791   7.842 -0.2962 -1.3492 -0.2920
   63MOL0     C 8248   9.348   2.841   7.950  0.4046  0.0017 -0.3774
   63MOL0     C 8249   9.007   2.336   7.557 -0.0775 -1.0387  0.5805
   63MOL0     C 8250   8.896   2.251   7.554 -0.4763 -0.2662 -0.0265
   63MOL0     H 8251   8.451   2.100   7.677 -0.4067 -1.0318  0.5184
   63MOL0     H 8252   8.241   1.972   7.628  0.7298  0.0597  0.0949
   63MOL0     H 8253   8.063   1.885   7.492 -2.0498 -0.6557 -0.2677
   63MOL0     H 8254   8.124   1.797   7.626  3.1183 -2.1066 -0.5282
   63MOL0     H 8255   7.962   1.704   7.376  1.6398 -3.2736 -1.5250
   63MOL0     H 8256   7.922   1.677   7.553  0.2788 -2.5661  0.6977
   63MOL0     H 8257   8.100   1.516   7.582  1.1979 -1.3703 -0.5425
   63MOL0     H 8258   8.128   1.523   7.411 -0.3599 -0.8049  0.9306
   63MOL0     H 8259   7.839   1.451   7.529 -2.7660 -3.2306 -3.2671
   63MOL0     H 8260   7.880   1.440   7.367 -1.6320 -2.3723  0.2153
   63MOL0     H 8261   8.014   1.280   7.573 -0.4273 -1.3672  0.2666
   63MOL0     H 8262   8.072   1.273   7.410  1.1117 -3.2178  2.4849
   63MOL0     H 8263   7.833   1.220   7.327  0.8004 -2.6148 -1.1953
   63MOL0     H 8264   7.793   1.216   7.503  1.2768 -0.9883  2.7878
   63MOL0     H 8265   7.832   0.994   7.382 -1.7791  0.8297  2.8590
   63MOL0     H 8266   8.006   1.043   7.373 -1.4664  1.0312 -2.1911
   63MOL0     H 8267   7.826   0.993   7.619  1.5012 -1.1253  1.7043
   63MOL0     H 8268   7.987   1.076   7.633  0.3286  2.5986 -2.3622
   63MOL0     H 8269   7.812   0.750   7.538  0.2015  2.3856  0.8079
   63MOL0     H 8270   7.862   0.489   7.523 -0.5700  0.0208 -5.8261
   63MOL0     H 8271   8.034   0.439   7.556  0.8789 -0.3601 -0.0602
   63MOL0     H 8272   7.976   0.596   7.306  1.0931 -0.7945 -0.2773
   63MOL0     H 8273   7.882   0.454   7.321 -1.3538  0.9386  1.2834
   63MOL0     H 8274   8.177   0.469   7.313 -1.0397  1.2911 -0.0875
   63MOL0     H 8275   8.073   0.321   7.328 -1.2897 -0.7672 -0.7326
   63MOL0     H 8276   8.159   0.388   7.084  0.7875 -0.9279  0.9850
   63MOL0     H 8277   8.042   0.519   7.092  1.3070 -0.5480 -1.0182
   63MOL0     H 8278   7.806   0.123   7.079 -0.4835 -0.8802  0.2900
   63MOL0     H 8279   7.558   0.131   7.026 -0.8967  0.2239 -2.2945
   63MOL0     H 8280   7.237   0.707   7.079  1.0442 -1.5614  1.9521
   63MOL0     H 8281   6.997   0.763   7.073  1.1239  1.2226 -2.7076
   63MOL0     H 8282   6.769   0.588   7.157  0.9625  0.2048 -0.6218
   63MOL0     H 8283   6.721   0.465   7.037 -1.6638  0.8129 -2.8093
   63MOL0     H 8284   6.520   0.650   6.979 -1.9482  0.9870  0.2901
   63MOL0     H 8285   6.578   0.715   7.127 -0.7199 -1.3760  0.2179
   63MOL0     H 8286   6.516   0.507   7.251  1.3292 -0.6558 -1.0191
   63MOL0     H 8287   6.498   0.428   7.092  0.8884  0.4515 -0.7123
   63MOL0     H 8288   6.330   0.642   7.229  1.0564 -0.7982  0.0230
   63MOL0     H 8289   6.308   0.614   7.053 -1.6533 -0.5287  0.7307
   63MOL0     H 8290   6.271   0.390   7.270  1.7925 -1.4704 -0.8372
   63MOL0     H 8291   6.228   0.377   7.107 -0.3289  0.9920 -0.4921
   63MOL0     H 8292   6.060   0.559   7.137 -0.6814 -0.5639  0.8525
   63MOL0     H 8293   6.107   0.575   7.310 -2.4074  1.6546 -0.2815
   63MOL0     H 8294   6.030   0.326   7.161 -2.0655  1.4802 -1.1874
   63MOL0     H 8295   6.060   0.319   7.341 -2.1765 -0.1143  0.5539
   63MOL0     H 8296   5.836   0.466   7.211 -1.1972 -1.7217 -2.3681
   63MOL0     H 8297   5.863   0.418   7.389 -0.2539 -2.3874  0.6222
   63MOL0     H 8298   6.905   0.405   6.866 -1.0784  1.2257  2.6340
   63MOL0     H 8299   7.144   0.325   6.904 -0.2378 -0.3795 -1.1411
   63MOL0     H 8300   7.603   0.569   7.024  2.1332  1.0679  0.4782
   63MOL0     H 8301   7.833   0.548   7.051 -0.2340 -0.6126 -0.5073
   63MOL0     H 8302   8.451   1.708   7.386 -1.0258 -0.7561  1.2668
   63MOL0     H 8303   8.665   1.858   7.416  1.7092  1.1712  0.3612
   63MOL0     H 8304   9.045   1.982   7.715  3.1511 -0.9591 -0.9415
   63MOL0     H 8305   9.232   2.142   7.729  0.2345  0.9509 -0.4779
   63MOL0     H 8306   9.382   2.302   7.547  2.0601  2.0576 -1.6741
   63MOL0     H 8307   9.375   2.318   7.726  0.4510 -1.4521 -0.5107
   63MOL0     H 8308   9.543   2.482   7.608 -0.5189  1.1979 -1.7041
   63MOL0     H 8309   9.406   2.548   7.528 -0.1984  0.0345  0.1367
   63MOL0     H 8310   9.497   2.590   7.800  0.1921 -1.0192 -0.3034
   63MOL0     H 8311   9.328   2.526   7.799  0.6549 -0.9540 -1.1503
   63MOL0     H 8312   9.452   2.778   7.658 -1.9561  1.8746 -1.3108
   63MOL0     H 8313   9.278   2.728   7.674 -0.6858 -0.1215  1.4974
   63MOL0     H 8314   9.334   2.882   8.048  0.8929  0.5222 -0.5286
   63MOL0     H 8315   9.014   2.431   7.505  1.4098 -0.0161  2.4676
   63MOL0     H 8316   8.803   2.281   7.506  0.1321  1.7170 -0.0566
   64MOL0     O 8317   8.096   3.385   7.010  0.1912 -0.1226 -0.4728
   64MOL0     C 8318   8.101   3.334   6.897 -0.2755 -0.0631  0.1471
   64MOL0     O 8319   8.018   3.228   6.856  0.1320  0.7687  0.6825
   64MOL0     C 8320   7.927   3.183   6.944  0.5714  0.3836  0.3383
   64MOL0     C 8321   7.967   3.112   7.051  0.2193  0.2093  0.5006
   64MOL0     C 8322   7.885   3.045   7.148  0.1824 -0.5524  0.3438
   64MOL0     C 8323   7.752   3.065   7.146 -0.9016  0.4087 -0.6899
   64MOL0     O 8324   7.660   3.013   7.225  0.7250 -0.2698 -0.2807
   64MOL0     C 8325   7.698   2.930   7.334  0.6796  1.0316  0.1726
   64MOL0     C 8326   7.583   2.923   7.426 -0.3983 -0.5194  0.2914
   64MOL0     C 8327   7.470   2.844   7.366  0.0386  0.2339 -0.0712
   64MOL0     C 8328   7.365   2.828   7.474  0.2749 -0.1711 -0.6545
   64MOL0     C 8329   7.234   2.780   7.416  0.1312  0.2051  1.2332
   64MOL0     C 8330   7.129   2.760   7.524  0.6667 -0.0950 -0.1439
   64MOL0     C 8331   7.000   2.730   7.443  0.0954 -0.2023  0.7125
   64MOL0     C 8332   6.910   2.634   7.515 -0.9071  0.0378 -0.5913
   64MOL0     N 8333   6.794   2.584   7.429  0.1328  0.2609  0.4534
   64MOL0     C 8334   6.708   2.674   7.376  0.1427 -0.1508  0.1691
   64MOL0     C 8335   6.640   2.600   7.288  0.4083  0.4004  0.1089
   64MOL0     C 8336   6.541   2.652   7.193  0.0412 -0.7725  0.1436
   64MOL0     C 8337   6.396   2.627   7.238 -0.9443 -0.8974  0.5571
   64MOL0     C 8338   6.303   2.638   7.120  0.1165  0.1252  0.1824
   64MOL0     C 8339   6.153   2.611   7.145  0.0723 -0.4113 -0.4068
   64MOL0     O 8340   6.094   2.619   7.013 -0.7032 -0.6534 -0.3179
   64MOL0     C 8341   5.955   2.601   7.012  0.0081  0.2453 -0.3655
   64MOL0     C 8342   5.874   2.589   7.132 -1.0457 -0.6707  1.1254
   64MOL0     C 8343   5.738   2.600   7.116  0.0198 -0.2501 -0.0985
   64MOL0     C 8344   5.670   2.610   6.994 -0.2789  0.4612 -0.2428
   64MOL0     C 8345   5.526   2.619   6.989  0.4165  0.4125  0.1908
   64MOL0     O 8346   5.458   2.610   6.868 -0.8539 -0.2095  0.6389
   64MOL0     C 8347   5.321   2.639   6.863 -0.6978 -0.2918  0.1068
   64MOL0     C 8348   5.227   2.548   6.917 -0.1532 -0.3193  0.3478
   64MOL0     C 8349   5.093   2.574   6.895  0.6082  0.0318 -0.3558
   64MOL0     C 8350   5.046   2.691   6.833 -0.4050 -0.3886 -0.2389
   64MOL0     O 8351   4.915   2.728   6.805 -0.5511  0.0174  0.0782
   64MOL0     C 8352   4.807   2.670   6.879 -0.2411  0.4017  0.2494
   64MOL0     C 8353   4.695   2.620   6.784 -0.3488 -0.4222 -0.8048
   64MOL0     C 8354   4.636   2.730   6.695 -1.0022 -0.3762  0.0656
   64MOL0     C 8355   4.481   2.728   6.706 -0.1596  0.3723  0.0797
   64MOL0     C 8356   4.418   2.853   6.642  0.2450 -0.0047 -0.0356
   64MOL0     C 8357   4.273   2.835   6.584 -1.2468 -0.7510  0.1984
   64MOL0     C 8358   4.182   2.775   6.694  1.2694  0.2027  0.1011
   64MOL0     C 8359   4.038   2.758   6.634  0.0737 -0.2689 -0.9307
   64MOL0    Cl 8360   3.991   2.914   6.568 -0.1990  0.4899 -0.2414
   64MOL0     C 8361   5.149   2.779   6.791  0.5816  0.0458 -0.1101
   64MOL0     C 8362   5.282   2.756   6.809 -0.8081  0.0198 -0.8209
   64MOL0     O 8363   5.470   2.629   7.099 -0.1850 -0.1688  0.2415
   64MOL0     C 8364   5.754   2.627   6.880  0.7767  0.8121 -0.1619
   64MOL0     C 8365   5.889   2.611   6.886  0.0862  0.2265  0.4616
   64MOL0     N 8366   6.682   2.469   7.288 -1.4703 -0.2466  1.0845
   64MOL0     N 8367   6.780   2.456   7.375  0.1944  0.4934 -0.5303
   64MOL0     C 8368   7.701   3.139   7.036  1.3248  0.0573 -0.6937
   64MOL0     C 8369   7.783   3.200   6.940 -0.6021 -0.0123 -0.0983
   64MOL0     C 8370   8.195   3.394   6.793 -0.4906  0.7393 -1.3711
   64MOL0     C 8371   8.242   3.528   6.790  0.4521  0.2758 -0.2127
   64MOL0     C 8372   8.318   3.580   6.683  0.4313 -0.5957  0.0988
   64MOL0     C 8373   8.352   3.497   6.570  0.9800 -0.8225  0.4664
   64MOL0     O 8374   8.426   3.543   6.461  0.1501  0.0106  0.1760
   64MOL0     C 8375   8.475   3.680   6.455  0.2174  0.4918  0.2505
   64MOL0     C 8376   8.602   3.698   6.546  0.0536  0.1059  0.6204
   64MOL0     C 8377   8.669   3.829   6.516  0.0811 -0.0845  0.1482
   64MOL0     C 8378   8.766   3.867   6.626 -0.1219 -1.1889 -0.4979
   64MOL0     C 8379   8.694   3.908   6.745  0.5860 -0.7269 -1.0207
   64MOL0     C 8380   8.643   3.939   6.853  0.0215 -0.5530  0.0390
   64MOL0     C 8381   8.297   3.369   6.576 -0.3611  0.2669  1.1382
   64MOL0     C 8382   8.226   3.315   6.682  0.5085 -0.1393  0.8283
   64MOL0     H 8383   8.074   3.095   7.058  0.3312  0.0246 -1.2648
   64MOL0     H 8384   7.933   2.993   7.230  0.9648 -0.4957 -0.0653
   64MOL0     H 8385   7.781   2.974   7.390  1.5446 -0.1225 -0.1675
   64MOL0     H 8386   7.728   2.834   7.292 -1.1780  0.1697  0.7375
   64MOL0     H 8387   7.547   3.023   7.450 -0.4948 -0.5548  0.2943
   64MOL0     H 8388   7.613   2.879   7.522  1.8479 -0.8373 -0.5137
   64MOL0     H 8389   7.514   2.748   7.339  1.2977  1.1873 -1.5751
   64MOL0     H 8390   7.439   2.903   7.280  0.6407 -0.3129 -0.6742
   64MOL0     H 8391   7.397   2.750   7.543  1.0409 -0.7186 -1.6102
   64MOL0     H 8392   7.364   2.917   7.538  0.5093  1.0182 -2.2353
   64MOL0     H 8393   7.252   2.684   7.368 -0.9725 -0.0740  1.3389
   64MOL0     H 8394   7.202   2.843   7.333  0.9181 -1.0188 -0.0317
   64MOL0     H 8395   7.122   2.854   7.580  4.9543  0.0360  0.4590
   64MOL0     H 8396   7.156   2.677   7.591  3.2139 -1.7660 -3.0250
   64MOL0     H 8397   6.953   2.827   7.422 -0.9971 -0.8579  0.0533
   64MOL0     H 8398   7.027   2.695   7.342 -1.0506 -1.3261  0.7773
   64MOL0     H 8399   6.889   2.680   7.612  1.0175  0.1475 -0.1981
   64MOL0     H 8400   6.977   2.550   7.536 -0.1574  0.2564 -1.9836
   64MOL0     H 8401   6.709   2.779   7.403  0.0794  0.4981 -2.1142
   64MOL0     H 8402   6.552   2.587   7.105 -0.7985 -0.3118 -0.3188
   64MOL0     H 8403   6.560   2.757   7.171  1.1027 -1.1875 -1.0735
   64MOL0     H 8404   6.364   2.690   7.322 -0.1924 -1.3449  1.1988
   64MOL0     H 8405   6.379   2.522   7.266  1.4615 -1.7066 -0.7598
   64MOL0     H 8406   6.309   2.732   7.066 -1.2360  0.2418  0.1884
   64MOL0     H 8407   6.339   2.564   7.047 -1.4271  0.4944 -1.0145
   64MOL0     H 8408   6.113   2.696   7.200 -0.9606  0.8711 -2.9627
   64MOL0     H 8409   6.131   2.514   7.191 -0.3078  0.2864  0.9160
   64MOL0     H 8410   5.919   2.582   7.230  3.5340  0.6108 -0.6269
   64MOL0     H 8411   5.680   2.583   7.206  0.7682  2.2979  0.9326
   64MOL0     H 8412   5.255   2.460   6.974  0.9101  0.4399  1.0320
   64MOL0     H 8413   5.026   2.491   6.915  2.4378 -1.6338 -0.7800
   64MOL0     H 8414   4.768   2.750   6.942 -1.8628 -1.7671  2.1708
   64MOL0     H 8415   4.836   2.589   6.946 -0.2433 -0.4926 -0.8098
   64MOL0     H 8416   4.617   2.587   6.853  0.1341  0.2686  0.1044
   64MOL0     H 8417   4.745   2.539   6.732 -0.0492 -0.3913 -0.5667
   64MOL0     H 8418   4.682   2.726   6.596 -2.5145  1.5568 -0.7898
   64MOL0     H 8419   4.657   2.834   6.723  0.1536 -1.2748  2.8108
   64MOL0     H 8420   4.437   2.640   6.656  1.7069  0.5979 -2.1442
   64MOL0     H 8421   4.463   2.720   6.813 -0.7602 -1.6918 -0.1304
   64MOL0     H 8422   4.478   2.889   6.558  1.7963 -0.1816  0.9578
   64MOL0     H 8423   4.419   2.939   6.710 -0.2918  0.9942 -1.2490
   64MOL0     H 8424   4.268   2.770   6.496 -3.3404  2.5372 -2.3612
   64MOL0     H 8425   4.243   2.936   6.555 -0.6909 -0.4371  0.6886
   64MOL0     H 8426   4.224   2.684   6.739 -0.1021 -1.5669 -2.0237
   64MOL0     H 8427   4.165   2.860   6.761 -0.0850  0.1615 -0.1690
   64MOL0     H 8428   3.968   2.719   6.709  0.9901 -0.6883 -0.2664
   64MOL0     H 8429   4.049   2.680   6.557  4.8869  1.3459 -2.2720
   64MOL0     H 8430   5.123   2.868   6.734 -0.1116 -0.1187 -0.0542
   64MOL0     H 8431   5.362   2.823   6.780 -1.2665  1.0633  0.2276
   64MOL0     H 8432   5.707   2.649   6.784 -0.1693  1.4822  0.4322
   64MOL0     H 8433   5.948   2.616   6.795 -1.1856  4.9104 -0.3808
   64MOL0     H 8434   7.594   3.132   7.018  1.0976 -0.5737  0.7710
   64MOL0     H 8435   7.749   3.247   6.848  0.3002 -0.6420 -0.7782
   64MOL0     H 8436   8.219   3.579   6.883 -1.3885 -3.6357  1.7450
   64MOL0     H 8437   8.342   3.685   6.672  0.2645 -0.6841 -1.2471
   64MOL0     H 8438   8.401   3.757   6.480 -0.6838 -0.9603  2.3342
   64MOL0     H 8439   8.498   3.701   6.350  1.3023  2.4974  0.8522
   64MOL0     H 8440   8.566   3.690   6.649  0.2429  0.9280  0.7611
   64MOL0     H 8441   8.684   3.627   6.533 -1.8823 -2.0507 -0.6144
   64MOL0     H 8442   8.603   3.917   6.512  1.1275  0.8119  1.5084
   64MOL0     H 8443   8.731   3.814   6.427 -1.9028  2.8699 -1.9418
   64MOL0     H 8444   8.832   3.783   6.646  2.9231  1.0625 -0.3795
   64MOL0     H 8445   8.838   3.946   6.604 -0.5066 -0.5582  0.4335
   64MOL0     H 8446   8.611   3.985   6.944  1.7858  1.4850 -0.2949
   64MOL0     H 8447   8.308   3.308   6.486  2.4457  1.3819  0.6265
   64MOL0     H 8448   8.190   3.212   6.678 -3.0776  0.9965 -2.1711
   65MOL0     O 8449   4.365   1.733   5.753 -0.2950  0.1994  0.1937
   65MOL0     C 8450   4.431   1.802   5.828 -0.4242 -0.8439  1.1855
   65MOL0     O 8451   4.382   1.890   5.917 -0.3925 -0.3591  0.4077
   65MOL0     C 8452   4.248   1.923   5.910 -0.2940  0.3045  0.7620
   65MOL0     C 8453   4.165   1.895   6.020 -0.6622 -0.1886 -0.0475
   65MOL0     C 8454   4.028   1.914   6.016  0.7984  0.0129 -0.4164
   65MOL0     C 8455   3.972   1.976   5.908 -0.0926 -0.9652  0.2255
   65MOL0     O 8456   3.831   1.989   5.896  0.2252 -0.3289 -0.5567
   65MOL0     C 8457   3.735   1.956   5.999 -0.7875  0.1489  0.5018
   65MOL0     C 8458   3.596   1.940   5.939  0.8099 -0.7224 -0.7058
   65MOL0     C 8459   3.543   2.067   5.876  0.5832 -0.6005  0.4798
   65MOL0     C 8460   3.386   2.050   5.852  0.0239 -0.2233  0.5572
   65MOL0     C 8461   3.332   2.160   5.768  0.6842  0.9236  0.5530
   65MOL0     C 8462   3.184   2.141   5.751 -0.0540 -0.4928  0.5096
   65MOL0     C 8463   3.120   2.256   5.672 -0.2990 -0.6863 -0.7527
   65MOL0     C 8464   3.012   2.203   5.581  0.0495  0.4442 -0.6563
   65MOL0     N 8465   2.879   2.166   5.637 -0.0816  0.4771 -0.1691
   65MOL0     C 8466   2.853   2.079   5.741  0.1927  0.1447  0.0040
   65MOL0     C 8467   2.716   2.077   5.757  0.4752  0.6845 -0.3026
   65MOL0     C 8468   2.630   1.990   5.851  0.4616  0.2502 -0.0887
   65MOL0     C 8469   2.488   2.034   5.859  0.3541 -0.1359 -0.4158
   65MOL0     C 8470   2.413   1.941   5.965 -0.5044  0.4304  0.2724
   65MOL0     C 8471   2.253   1.956   5.964  0.5841  0.0919 -0.5676
   65MOL0     O 8472   2.220   2.102   5.987  1.1347  0.1900  0.7183
   65MOL0     C 8473   2.099   2.147   5.943 -0.0331  0.0527  0.6766
   65MOL0     C 8474   1.987   2.073   5.893 -0.6324 -0.7367 -0.5594
   65MOL0     C 8475   1.868   2.134   5.846 -0.0652 -0.2999 -0.5027
   65MOL0     C 8476   1.854   2.276   5.861  0.2591  0.9145 -0.9284
   65MOL0     C 8477   1.730   2.349   5.828  0.3213  0.7402  0.1257
   65MOL0     O 8478   1.725   2.469   5.882 -0.9502 -0.3346  0.5652
   65MOL0     C 8479   1.624   2.555   5.848 -0.0728 -0.6115  0.1828
   65MOL0     C 8480   1.522   2.595   5.940  0.0828  0.8718 -0.1603
   65MOL0     C 8481   1.407   2.655   5.900 -0.2133 -0.5304  0.2144
   65MOL0     C 8482   1.389   2.685   5.762  0.5554  0.0621 -0.1805
   65MOL0     O 8483   1.274   2.749   5.718  0.8328  0.5117 -0.2263
   65MOL0     C 8484   1.153   2.701   5.783 -0.3257  0.5003  0.5817
   65MOL0     C 8485   1.089   2.813   5.861  0.9781 -0.9162  0.1112
   65MOL0     C 8486   0.946   2.774   5.916 -0.2201 -0.6872 -0.7584
   65MOL0     C 8487   0.858   2.884   5.973 -0.2970  0.6083  0.2675
   65MOL0     C 8488   0.715   2.832   5.989  0.0443 -0.4129 -0.1683
   65MOL0     C 8489   0.652   2.913   6.103  0.1373  0.5306 -0.5517
   65MOL0     C 8490   0.657   3.064   6.066  0.3945  0.1865  0.5280
   65MOL0     C 8491   0.558   3.149   6.145 -0.5896 -0.2273  0.2716
   65MOL0    Cl 8492   0.553   3.099   6.320 -0.0124  0.2973 -0.3114
   65MOL0     C 8493   1.498   2.659   5.680 -0.0427 -0.7075 -0.5733
   65MOL0     C 8494   1.614   2.596   5.717 -0.4615 -0.5023 -1.1807
   65MOL0     O 8495   1.637   2.293   5.771 -0.0410 -0.3893  0.3532
   65MOL0     C 8496   1.958   2.348   5.931  0.8634 -0.3792 -0.0794
   65MOL0     C 8497   2.072   2.283   5.966  0.7033 -0.1866 -0.2673
   65MOL0     N 8498   2.661   2.172   5.673  0.1286  0.3698  0.1296
   65MOL0     N 8499   2.758   2.223   5.600  0.3558 -0.0693 -0.2430
   65MOL0     C 8500   4.055   2.003   5.797 -0.4714  0.0625  0.4803
   65MOL0     C 8501   4.195   1.973   5.795 -0.3147 -0.6063 -0.3787
   65MOL0     C 8502   4.581   1.807   5.822  0.2346  0.9201  0.0865
   65MOL0     C 8503   4.640   1.747   5.712 -0.5981 -0.6415 -0.9207
   65MOL0     C 8504   4.778   1.744   5.701  0.5520 -0.8146  1.3347
   65MOL0     C 8505   4.867   1.804   5.790  0.2912  0.4732 -0.7393
   65MOL0     O 8506   5.000   1.794   5.780 -0.6151 -0.3718  0.3563
   65MOL0     C 8507   5.065   1.750   5.654 -0.2860  0.3654  0.2993
   65MOL0     C 8508   5.091   1.597   5.662  0.8308  0.0004  0.0952
   65MOL0     C 8509   5.199   1.546   5.761 -0.4886  0.4554 -0.4120
   65MOL0     C 8510   5.343   1.534   5.710  0.8917 -0.6311  0.1975
   65MOL0     C 8511   5.413   1.660   5.726 -0.5207 -0.2459  0.6196
   65MOL0     C 8512   5.465   1.770   5.737 -0.1932  0.4439  0.2299
   65MOL0     C 8513   4.805   1.873   5.903 -0.4819 -0.3338 -0.1749
   65MOL0     C 8514   4.663   1.873   5.919  0.3988 -0.0091  0.5857
   65MOL0     H 8515   4.211   1.845   6.105  1.1125  0.6847 -0.4441
   65MOL0     H 8516   3.966   1.890   6.102  0.6700  1.5219 -0.0581
   65MOL0     H 8517   3.734   2.046   6.062 -2.5834 -0.4523  1.3809
   65MOL0     H 8518   3.759   1.862   6.049 -2.6510 -1.4481 -1.4610
   65MOL0     H 8519   3.525   1.900   6.011  0.6735  3.5481  1.8824
   65MOL0     H 8520   3.603   1.877   5.850 -1.1444 -0.5617 -1.0205
   65MOL0     H 8521   3.595   2.085   5.782 -0.3981  3.1414  0.4935
   65MOL0     H 8522   3.562   2.158   5.934  0.8974 -0.6951  0.5261
   65MOL0     H 8523   3.365   1.965   5.787  1.7596  0.8664 -1.5584
   65MOL0     H 8524   3.333   2.040   5.947 -1.6100 -3.1904 -0.5485
   65MOL0     H 8525   3.389   2.158   5.675 -1.4712 -1.1253 -0.8664
   65MOL0     H 8526   3.345   2.257   5.816  1.8935  0.9601  0.1614
   65MOL0     H 8527   3.139   2.145   5.851 -0.4504 -0.3999  0.3282
   65MOL0     H 8528   3.158   2.047   5.703  0.7161 -0.6854  0.4528
   65MOL0     H 8529   3.077   2.324   5.747  3.1840 -0.7144  1.4959
   65MOL0     H 8530   3.190   2.314   5.612  3.5211 -3.2357  0.8461
   65MOL0     H 8531   3.044   2.108   5.539 -2.8302 -0.3011 -1.3187
   65MOL0     H 8532   3.004   2.269   5.493 -1.1401 -0.8183 -1.5233
   65MOL0     H 8533   2.933   2.024   5.789 -0.2620 -0.5828 -0.0674
   65MOL0     H 8534   2.679   1.996   5.949  1.8812  1.9419 -0.8329
   65MOL0     H 8535   2.625   1.889   5.812  0.5220 -0.1496  0.9061
   65MOL0     H 8536   2.441   2.025   5.761 -1.0737 -1.9096  0.3824
   65MOL0     H 8537   2.481   2.139   5.891  3.7410 -0.8983  3.8385
   65MOL0     H 8538   2.427   1.835   5.940 -0.8255  0.3799  0.3118
   65MOL0     H 8539   2.467   1.956   6.059  0.8883  0.3734 -0.4764
   65MOL0     H 8540   2.198   1.897   6.037 -2.4371  0.6218 -2.2510
   65MOL0     H 8541   2.217   1.910   5.871  2.9712 -3.3373 -0.0066
   65MOL0     H 8542   1.997   1.965   5.891 -4.2143 -1.2162  0.9340
   65MOL0     H 8543   1.788   2.086   5.790  0.9399  0.1901 -2.4481
   65MOL0     H 8544   1.531   2.559   6.042 -3.4153  3.3479  1.2129
   65MOL0     H 8545   1.337   2.705   5.967  1.1248  4.4259 -1.5930
   65MOL0     H 8546   1.158   2.607   5.839 -2.0331  0.3044  0.4477
   65MOL0     H 8547   1.092   2.672   5.697  1.1020  0.5981 -0.5190
   65MOL0     H 8548   1.064   2.898   5.798 -3.8817 -0.9497  1.5998
   65MOL0     H 8549   1.156   2.841   5.943  1.1576 -1.0546  0.0135
   65MOL0     H 8550   0.955   2.703   5.998 -1.3730 -2.4330 -2.0805
   65MOL0     H 8551   0.886   2.721   5.841  0.3175 -1.8643 -0.3712
   65MOL0     H 8552   0.912   2.909   6.064 -0.0300 -2.6878  1.1608
   65MOL0     H 8553   0.859   2.967   5.902 -0.8407  0.5408  0.1700
   65MOL0     H 8554   0.705   2.725   6.010 -0.3023 -0.4951 -0.7211
   65MOL0     H 8555   0.671   2.854   5.891  0.9435  0.9982 -0.2902
   65MOL0     H 8556   0.710   2.896   6.194  2.5903  0.4362 -2.0484
   65MOL0     H 8557   0.548   2.883   6.115 -0.2793  2.6963  2.3851
   65MOL0     H 8558   0.756   3.109   6.068  0.5202  0.3328 -2.9094
   65MOL0     H 8559   0.635   3.086   5.961  0.9297  3.1260  0.9345
   65MOL0     H 8560   0.461   3.130   6.099 -0.0770  1.9158 -1.9577
   65MOL0     H 8561   0.588   3.253   6.133  1.1392 -0.8232 -1.1876
   65MOL0     H 8562   1.479   2.684   5.576 -0.2479  0.8813 -0.1932
   65MOL0     H 8563   1.693   2.571   5.647  0.8766 -0.6871  0.3264
   65MOL0     H 8564   1.950   2.451   5.963  0.9320 -0.7874  1.2791
   65MOL0     H 8565   2.145   2.349   6.012  0.7140 -1.5497  1.8192
   65MOL0     H 8566   4.000   2.049   5.716 -1.2200 -2.6443 -0.6547
   65MOL0     H 8567   4.270   1.985   5.717  3.1285 -3.9513  1.9728
   65MOL0     H 8568   4.580   1.704   5.633 -0.5921  0.5997 -1.6378
   65MOL0     H 8569   4.809   1.691   5.612 -1.6063  3.6212 -2.5230
   65MOL0     H 8570   5.156   1.811   5.652 -1.7328  2.8917  2.8967
   65MOL0     H 8571   4.997   1.769   5.570 -1.6400 -0.5961  1.1322
   65MOL0     H 8572   4.996   1.547   5.684  0.5709  0.4862  0.0984
   65MOL0     H 8573   5.119   1.566   5.562  1.3702 -1.3101  0.6334
   65MOL0     H 8574   5.169   1.449   5.802  2.2472  0.9065  3.0771
   65MOL0     H 8575   5.199   1.614   5.846  1.2250 -0.6488  0.5372
   65MOL0     H 8576   5.407   1.456   5.754 -1.1764 -1.3828  2.0345
   65MOL0     H 8577   5.324   1.508   5.605 -0.9418 -0.3985  0.4471
   65MOL0     H 8578   5.510   1.867   5.745 -1.3483  1.0210 -0.1168
   65MOL0     H 8579   4.866   1.931   5.972  0.9933  2.2318 -3.3640
   65MOL0     H 8580   4.624   1.919   6.009  3.7604 -0.2993  2.3371
   66MOL0     O 8581   1.333  10.286   3.099 -0.0605 -0.0203  0.2672
   66MOL0     C 8582   1.422  10.200   3.098 -0.8404 -0.2190 -1.0444
   66MOL0     O 8583   1.423  10.084   3.168  0.0340  0.1038  0.3264
   66MOL0     C 8584   1.302  10.051   3.227  0.2266 -0.0880  0.2681
   66MOL0     C 8585   1.297  10.026   3.362 -0.4289  0.6558  1.4005
   66MOL0     C 8586   1.175  10.010   3.429 -0.7486  0.4293 -0.1329
   66MOL0     C 8587   1.054   9.989   3.351 -0.6290 -0.3870 -0.8795
   66MOL0     O 8588   0.941   9.942   3.408  0.2689  0.2256  0.2497
   66MOL0     C 8589   0.901  10.011   3.527  0.1119  0.1119  0.1114
   66MOL0     C 8590   0.794   9.930   3.599  0.4698 -0.2581 -0.4411
   66MOL0     C 8591   0.653   9.918   3.531 -0.3363  0.4798  0.7983
   66MOL0     C 8592   0.608  10.044   3.460  0.1745 -0.0111  0.2241
   66MOL0     C 8593   0.457  10.032   3.433 -0.3103 -0.2266  0.0386
   66MOL0     C 8594   0.377  10.080   3.552 -0.3722 -0.6458 -0.7751
   66MOL0     C 8595   0.231  10.109   3.533  0.2259 -0.0024  0.0754
   66MOL0     C 8596   0.148   9.977   3.505  0.0297 -0.7356 -1.6194
   66MOL0     N 8597   0.007  10.012   3.471 -0.2930 -0.1096  0.5523
   66MOL0     C 8598  -0.085  10.069   3.553 -0.4558 -1.0517  0.0546
   66MOL0     C 8599  -0.193  10.087   3.469 -0.6589 -0.2551 -0.9558
   66MOL0     C 8600  -0.324  10.159   3.513 -0.2208  0.0384  0.2014
   66MOL0     C 8601  -0.421  10.063   3.590  0.4663  0.0830  0.5184
   66MOL0     C 8602  -0.453   9.938   3.515  2.1972  1.2294  0.2486
   66MOL0     C 8603  -0.545   9.841   3.609  0.6432 -0.6670  0.8413
   66MOL0     O 8604  -0.684   9.871   3.573  0.0806  0.1475 -0.3652
   66MOL0     C 8605  -0.775   9.782   3.606  0.5138  0.5686 -0.2367
   66MOL0     C 8606  -0.769   9.703   3.719 -0.0065  1.1987  0.1926
   66MOL0     C 8607  -0.874   9.633   3.767 -0.5586 -0.0838  0.6479
   66MOL0     C 8608  -1.002   9.639   3.710  0.4088 -0.1083 -0.3084
   66MOL0     C 8609  -1.116   9.571   3.775  0.4283 -0.3194 -0.6663
   66MOL0     O 8610  -1.239   9.630   3.768  0.1303 -0.6751  0.4462
   66MOL0     C 8611  -1.350   9.577   3.822 -0.2477  0.0608  1.1092
   66MOL0     C 8612  -1.361   9.486   3.937  0.0368 -0.2107 -0.4826
   66MOL0     C 8613  -1.487   9.461   3.995  0.8885  0.2214 -0.4670
   66MOL0     C 8614  -1.611   9.507   3.943 -1.2674 -0.1928  0.6598
   66MOL0     O 8615  -1.730   9.466   3.990  0.6079 -0.3357 -0.4328
   66MOL0     C 8616  -1.829   9.431   3.893  0.1624  0.3809 -0.9467
   66MOL0     C 8617  -1.929   9.321   3.941 -0.3851  0.1899  0.3313
   66MOL0     C 8618  -2.026   9.386   4.035  0.8366  0.6473 -0.5142
   66MOL0     C 8619  -2.139   9.464   3.965 -0.1046  0.1272  0.5566
   66MOL0     C 8620  -2.242   9.532   4.062 -0.3291  0.2976  0.7643
   66MOL0     C 8621  -2.326   9.429   4.136  0.3478 -0.9008  0.4564
   66MOL0     C 8622  -2.455   9.507   4.185 -0.1120 -0.0415 -0.2776
   66MOL0     C 8623  -2.524   9.455   4.314 -0.3453  0.2039  1.1220
   66MOL0    Cl 8624  -2.647   9.577   4.369  0.0190  0.1861  0.2309
   66MOL0     C 8625  -1.592   9.582   3.821 -0.3471 -0.2676  0.7491
   66MOL0     C 8626  -1.464   9.620   3.764  0.4333 -0.3986 -0.3249
   66MOL0     O 8627  -1.090   9.477   3.847  0.1233  0.3178  0.1395
   66MOL0     C 8628  -1.013   9.727   3.600 -0.3229  0.2909  0.7627
   66MOL0     C 8629  -0.902   9.795   3.554  0.6921 -0.2922  0.8282
   66MOL0     N 8630  -0.159  10.025   3.351  0.3017 -0.6852 -0.0201
   66MOL0     N 8631  -0.041   9.986   3.349 -0.2692 -0.6458 -0.7995
   66MOL0     C 8632   1.060  10.003   3.212 -0.2901  0.2680  0.6898
   66MOL0     C 8633   1.180  10.039   3.153  0.0879 -0.6970  0.3039
   66MOL0     C 8634   1.541  10.236   3.023  0.7760 -0.9126 -0.3300
   66MOL0     C 8635   1.668  10.179   3.063  0.7464  0.1716 -0.2005
   66MOL0     C 8636   1.782  10.225   3.002  0.4990  0.1306 -0.1810
   66MOL0     C 8637   1.776  10.331   2.905 -0.1258 -0.7617 -0.1829
   66MOL0     O 8638   1.887  10.375   2.835  0.6360  0.2336 -0.2949
   66MOL0     C 8639   2.017  10.309   2.850 -0.0375 -0.3594 -0.3907
   66MOL0     C 8640   2.074  10.358   2.991 -0.3737 -0.1547  0.3721
   66MOL0     C 8641   2.226  10.355   2.999 -0.4908  0.5519 -0.5540
   66MOL0     C 8642   2.302  10.481   2.946  0.5127  1.4149 -0.0853
   66MOL0     C 8643   2.341  10.465   2.804  0.0857  0.5700  1.0125
   66MOL0     C 8644   2.387  10.436   2.696 -0.3214  0.4840 -0.5149
   66MOL0     C 8645   1.655  10.382   2.861  0.1574  0.0072  0.0748
   66MOL0     C 8646   1.534  10.341   2.919  0.3525 -0.0799 -0.3051
   66MOL0     H 8647   1.394  10.046   3.408  0.4491  3.6896 -1.4110
   66MOL0     H 8648   1.178  10.005   3.537 -0.5126  0.1517 -0.1539
   66MOL0     H 8649   0.874  10.113   3.499  2.3430  0.3576 -1.3890
   66MOL0     H 8650   0.988  10.015   3.594  1.8847  0.8930 -2.0974
   66MOL0     H 8651   0.769   9.982   3.692 -0.0206  2.8781 -2.2174
   66MOL0     H 8652   0.817   9.824   3.617  0.2488 -0.1218  0.7473
   66MOL0     H 8653   0.576   9.882   3.599 -2.3420  1.3976 -0.8574
   66MOL0     H 8654   0.648   9.851   3.444 -0.9697  1.7890 -0.2115
   66MOL0     H 8655   0.636  10.128   3.523 -1.5284  0.4195  0.4456
   66MOL0     H 8656   0.660  10.057   3.364 -4.4172  1.7933 -2.3204
   66MOL0     H 8657   0.424   9.930   3.409  0.7818 -0.9414  1.3698
   66MOL0     H 8658   0.439  10.096   3.347 -3.3080 -0.4785  0.3783
   66MOL0     H 8659   0.430  10.170   3.586 -0.5038  0.3849 -3.0884
   66MOL0     H 8660   0.391  10.010   3.634  1.2428  1.1119  0.5521
   66MOL0     H 8661   0.183  10.148   3.623 -0.6344 -0.5520 -0.1325
   66MOL0     H 8662   0.216  10.160   3.437 -1.0840 -0.3970  0.0450
   66MOL0     H 8663   0.157   9.916   3.596 -1.8703  0.8400 -0.2919
   66MOL0     H 8664   0.190   9.919   3.422  2.2446 -3.1991  0.9716
   66MOL0     H 8665  -0.076  10.102   3.656 -0.1755 -2.3353  0.4583
   66MOL0     H 8666  -0.370  10.188   3.418  1.7511  0.6898 -0.6052
   66MOL0     H 8667  -0.302  10.250   3.570  2.6456 -0.1591 -0.4311
   66MOL0     H 8668  -0.513  10.120   3.610  1.6642  1.9460  0.9786
   66MOL0     H 8669  -0.378  10.037   3.686  0.7399 -2.3799 -0.2098
   66MOL0     H 8670  -0.506   9.948   3.420 -1.4989 -2.3706  1.6212
   66MOL0     H 8671  -0.362   9.878   3.504  1.3300 -0.5362  1.9735
   66MOL0     H 8672  -0.531   9.864   3.715  0.9177  0.8155  0.5094
   66MOL0     H 8673  -0.515   9.736   3.595 -0.1951 -0.6009 -2.3268
   66MOL0     H 8674  -0.671   9.692   3.764  0.2183  0.6178 -0.4135
   66MOL0     H 8675  -0.855   9.570   3.854  1.5084 -0.9687 -0.3873
   66MOL0     H 8676  -1.275   9.451   3.993  1.0962  3.2414  0.2740
   66MOL0     H 8677  -1.498   9.399   4.083 -2.6536 -0.5886 -1.3007
   66MOL0     H 8678  -1.785   9.383   3.805 -0.2814  1.3302 -1.7054
   66MOL0     H 8679  -1.874   9.528   3.866 -0.5061  0.1567 -0.6505
   66MOL0     H 8680  -1.873   9.239   3.987 -1.3809 -1.3676 -1.1529
   66MOL0     H 8681  -1.972   9.275   3.852  2.7909 -1.2228 -0.6366
   66MOL0     H 8682  -1.967   9.442   4.108 -1.5285  1.0887  1.1711
   66MOL0     H 8683  -2.069   9.299   4.085  1.1157  0.7100 -0.1559
   66MOL0     H 8684  -2.096   9.549   3.911 -1.3663  0.8713  0.6705
   66MOL0     H 8685  -2.182   9.407   3.882  0.5424  0.4917 -0.0403
   66MOL0     H 8686  -2.312   9.588   3.999 -1.6401  0.8678  2.6189
   66MOL0     H 8687  -2.182   9.596   4.128  0.2503 -0.6379  1.1650
   66MOL0     H 8688  -2.268   9.414   4.227  1.7750  2.3066  0.2335
   66MOL0     H 8689  -2.350   9.335   4.086 -0.9082  0.4291 -1.6520
   66MOL0     H 8690  -2.437   9.614   4.195 -3.7329  0.7032 -0.3831
   66MOL0     H 8691  -2.521   9.510   4.098  0.2606  1.8034 -0.5382
   66MOL0     H 8692  -2.448   9.446   4.393  1.1078 -0.5517 -0.2972
   66MOL0     H 8693  -2.551   9.351   4.295  1.0470  0.0655 -0.3607
   66MOL0     H 8694  -1.676   9.629   3.770 -1.0482 -1.7262  0.5044
   66MOL0     H 8695  -1.473   9.687   3.678 -0.7694  1.6798  1.3031
   66MOL0     H 8696  -1.107   9.734   3.545  0.1681 -1.5261 -0.4307
   66MOL0     H 8697  -0.903   9.852   3.461 -1.8187  2.1602  2.2151
   66MOL0     H 8698   0.968   9.990   3.155 -1.1065 -1.2762  2.2667
   66MOL0     H 8699   1.188  10.049   3.045 -0.6025  0.1854  0.3260
   66MOL0     H 8700   1.676  10.111   3.147 -0.9640  0.0077 -0.1448
   66MOL0     H 8701   1.878  10.189   3.036  1.0097  1.5914 -0.0171
   66MOL0     H 8702   2.075  10.342   2.763  1.2293  2.6212  1.4237
   66MOL0     H 8703   2.010  10.200   2.849 -1.4825 -0.4307  3.1426
   66MOL0     H 8704   2.052  10.463   3.011  2.0539  0.7828 -1.3893
   66MOL0     H 8705   2.028  10.292   3.065 -1.1361 -0.6082 -0.4826
   66MOL0     H 8706   2.275  10.262   2.969 -1.7453  0.1101 -1.3176
   66MOL0     H 8707   2.249  10.359   3.106 -0.3850  2.8470 -0.6193
   66MOL0     H 8708   2.240  10.570   2.957 -0.4267  0.8296 -0.5512
   66MOL0     H 8709   2.385  10.501   3.016 -1.0194  2.8982  1.3997
   66MOL0     H 8710   2.433  10.414   2.602  0.1977  0.8458 -0.3553
   66MOL0     H 8711   1.648  10.455   2.781 -0.6452  1.6630  1.5874
   66MOL0     H 8712   1.444  10.371   2.868 -0.3760 -1.7944 -0.1173
   67MOL0     O 8713  10.817  10.465   6.285 -0.1887  0.0231  0.0127
   67MOL0     C 8714  10.840  10.473   6.406 -0.2981 -0.7790 -0.5266
   67MOL0     O 8715  10.761  10.417   6.505 -0.5277  0.5367  0.2830
   67MOL0     C 8716  10.636  10.363   6.468  0.6514 -0.0728 -0.5194
   67MOL0     C 8717  10.596  10.236   6.523  0.2394 -0.2685 -0.5127
   67MOL0     C 8718  10.477  10.177   6.482  0.0508  0.4998 -0.0083
   67MOL0     C 8719  10.378  10.247   6.407 -0.0878  0.0444 -0.7235
   67MOL0     O 8720  10.250  10.193   6.396  0.5660 -0.6970 -0.4351
   67MOL0     C 8721  10.141  10.289   6.388 -0.3508 -0.1599 -0.4129
   67MOL0     C 8722  10.014  10.206   6.429 -0.6693 -0.3896  0.4015
   67MOL0     C 8723   9.905  10.301   6.481  0.6795  0.4740  0.1370
   67MOL0     C 8724   9.857  10.415   6.381 -0.1124  0.3274 -0.0959
   67MOL0     C 8725   9.781  10.357   6.263  0.5948  0.1372  1.2147
   67MOL0     C 8726   9.644  10.303   6.321  0.0666  0.5536  0.0970
   67MOL0     C 8727   9.527  10.295   6.219  0.4209  0.0951  0.4196
   67MOL0     C 8728   9.385  10.263   6.280 -0.5887 -0.5570 -0.1936
   67MOL0     N 8729   9.268  10.306   6.202 -0.3100 -0.1604  0.0927
   67MOL0     C 8730   9.214  10.222   6.109 -0.4648 -0.2363  0.0910
   67MOL0     C 8731   9.098  10.285   6.076 -0.4566  0.4963  0.7009
   67MOL0     C 8732   8.998  10.229   5.974 -0.0169 -0.3774 -0.1802
   67MOL0     C 8733   8.845  10.226   5.996  0.4570  0.0990  0.0018
   67MOL0     C 8734   8.775  10.175   5.869 -0.0696 -0.0143 -0.3916
   67MOL0     C 8735   8.626  10.210   5.874  0.0789  0.8505 -0.2934
   67MOL0     O 8736   8.561  10.131   5.768  0.5753 -0.1140 -0.2861
   67MOL0     C 8737   8.430  10.144   5.751 -0.5944  0.0410 -0.8142
   67MOL0     C 8738   8.365  10.045   5.670 -0.2540  0.8270  0.1279
   67MOL0     C 8739   8.230  10.051   5.651 -0.1948 -0.0284 -0.0923
   67MOL0     C 8740   8.149  10.149   5.714  0.5840  0.3701  0.4173
   67MOL0     C 8741   8.005  10.144   5.699 -0.4334 -0.8562  0.0460
   67MOL0     O 8742   7.972  10.067   5.592 -0.3000 -0.3319 -0.3029
   67MOL0     C 8743   7.848  10.019   5.597  0.3945 -0.0908 -0.5902
   67MOL0     C 8744   7.814   9.936   5.705  0.4242  0.0952 -0.3574
   67MOL0     C 8745   7.687   9.876   5.696 -0.1398  1.0959  0.4981
   67MOL0     C 8746   7.600   9.906   5.587  0.6689  0.2137 -0.1040
   67MOL0     O 8747   7.475   9.845   5.584  0.1270  0.2033 -0.8542
   67MOL0     C 8748   7.366   9.930   5.566  0.2850 -0.0580  0.2707
   67MOL0     C 8749   7.232   9.856   5.557  0.5895  0.2919 -0.9431
   67MOL0     C 8750   7.202   9.784   5.424  0.7819 -0.4145 -0.7543
   67MOL0     C 8751   7.059   9.744   5.418  0.1513  0.3582  0.8697
   67MOL0     C 8752   6.972   9.863   5.373 -0.3748  0.7189 -0.0492
   67MOL0     C 8753   6.825   9.823   5.347  0.1887  0.0601 -0.9546
   67MOL0     C 8754   6.767   9.781   5.483  1.2330  0.1898 -0.1957
   67MOL0     C 8755   6.613   9.752   5.475  0.4072  0.4714  0.0733
   67MOL0    Cl 8756   6.516   9.904   5.483  0.3476 -0.1454 -0.1466
   67MOL0     C 8757   7.629  10.012   5.497 -0.3431  0.0503 -0.0304
   67MOL0     C 8758   7.757  10.061   5.504  0.0428 -0.6238  0.5232
   67MOL0     O 8759   7.932  10.194   5.787  0.0391 -0.1992 -0.0523
   67MOL0     C 8760   8.209  10.240   5.802 -0.0385 -0.2133 -0.2048
   67MOL0     C 8761   8.350  10.237   5.827  0.6265  0.1321 -0.1406
   67MOL0     N 8762   9.083  10.401   6.137 -0.0697 -0.3928 -0.0950
   67MOL0     N 8763   9.190  10.412   6.208  0.0985  0.4830  0.5289
   67MOL0     C 8764  10.409  10.376   6.362  0.0587  0.2153  0.6714
   67MOL0     C 8765  10.537  10.429   6.389  0.9786  0.5052  0.7307
   67MOL0     C 8766  10.961  10.542   6.458 -0.9549  0.4017  2.0816
   67MOL0     C 8767  11.073  10.571   6.371 -0.5586  0.1562 -0.6494
   67MOL0     C 8768  11.186  10.624   6.427 -0.2772 -0.5891  0.0828
   67MOL0     C 8769  11.197  10.651   6.567 -0.4525 -0.0396 -1.0609
   67MOL0     O 8770  11.309  10.711   6.629  0.4136  0.1730  0.6928
   67MOL0     C 8771  11.414  10.750   6.538 -0.3270  0.2789 -0.3436
   67MOL0     C 8772  11.520  10.841   6.609 -0.1948 -0.0020 -0.3646
   67MOL0     C 8773  11.610  10.892   6.497 -0.0277  0.4900 -0.9696
   67MOL0     C 8774  11.726  10.964   6.555  0.6376 -0.1679  0.1109
   67MOL0     C 8775  11.798  11.026   6.441 -0.7764  0.5525  0.0502
   67MOL0     C 8776  11.865  11.070   6.350  0.7674  0.8703 -0.4411
   67MOL0     C 8777  11.098  10.611   6.646  0.3666  0.3396 -0.6219
   67MOL0     C 8778  10.982  10.563   6.593 -0.3180 -0.2094 -0.3986
   67MOL0     H 8779  10.668  10.187   6.589 -1.6338 -0.3728  1.5546
   67MOL0     H 8780  10.461  10.076   6.519 -0.0837  0.7136  0.5345
   67MOL0     H 8781  10.130  10.328   6.286 -3.0433  1.3756  0.3681
   67MOL0     H 8782  10.155  10.373   6.457  4.2764 -0.1670 -1.0085
   67MOL0     H 8783  10.047  10.128   6.499  0.6806 -1.0019 -0.8546
   67MOL0     H 8784   9.977  10.156   6.340  2.4700  1.6908 -2.3182
   67MOL0     H 8785   9.944  10.345   6.573  0.1200  0.2957  0.4626
   67MOL0     H 8786   9.820  10.241   6.513  2.8436 -2.3779  0.9750
   67MOL0     H 8787   9.788  10.472   6.444 -0.2947 -0.4361  0.4186
   67MOL0     H 8788   9.942  10.481   6.361 -1.6825  2.5341  0.1659
   67MOL0     H 8789   9.845  10.282   6.215  0.1221  1.1898 -1.2043
   67MOL0     H 8790   9.746  10.440   6.201 -2.5422  1.1331  4.0350
   67MOL0     H 8791   9.616  10.349   6.416  0.9873 -0.0345  0.6751
   67MOL0     H 8792   9.668  10.200   6.350  1.5743  0.7332 -0.4445
   67MOL0     H 8793   9.508  10.389   6.166  2.1606 -0.4218 -1.2543
   67MOL0     H 8794   9.557  10.227   6.138 -0.0725  0.3523  0.0176
   67MOL0     H 8795   9.372  10.300   6.382 -2.7201 -2.3302  0.2667
   67MOL0     H 8796   9.382  10.155   6.299  0.8875 -0.5077  0.3955
   67MOL0     H 8797   9.259  10.127   6.085 -1.6590 -1.0031  0.7600
   67MOL0     H 8798   9.036  10.130   5.949  1.3092  0.7828 -3.2825
   67MOL0     H 8799   9.011  10.285   5.881  3.7135 -2.0453 -0.8273
   67MOL0     H 8800   8.822  10.332   6.012 -0.8346 -0.1201 -0.2983
   67MOL0     H 8801   8.817  10.174   6.088  0.1954 -1.5660 -0.9768
   67MOL0     H 8802   8.810  10.235   5.784 -1.6855  1.1299 -0.2893
   67MOL0     H 8803   8.780  10.067   5.853 -1.0843 -0.5573  2.3661
   67MOL0     H 8804   8.619  10.318   5.857  1.1774  0.6130 -2.6747
   67MOL0     H 8805   8.579  10.185   5.970  0.4617  1.3976  0.0445
   67MOL0     H 8806   8.436   9.978   5.623 -1.3445 -0.5361  0.3403
   67MOL0     H 8807   8.197   9.975   5.580  0.9214 -1.3718  0.7743
   67MOL0     H 8808   7.885   9.905   5.782  1.2411  1.0019 -0.7339
   67MOL0     H 8809   7.662   9.801   5.771 -0.9323  1.1677  0.3178
   67MOL0     H 8810   7.365   9.989   5.474 -2.1061  1.6618  1.2803
   67MOL0     H 8811   7.367  10.002   5.648  2.4477  2.3935 -1.7635
   67MOL0     H 8812   7.154   9.927   5.588  0.3494 -1.5380  3.4865
   67MOL0     H 8813   7.231   9.780   5.636 -0.0189  2.6370  1.4759
   67MOL0     H 8814   7.268   9.697   5.421 -2.9505 -3.5075 -1.0514
   67MOL0     H 8815   7.225   9.849   5.340  0.7457 -0.6944 -0.9836
   67MOL0     H 8816   7.065   9.671   5.337  1.2812  0.5535  0.7618
   67MOL0     H 8817   7.033   9.696   5.514 -0.6104  0.0825  0.5344
   67MOL0     H 8818   7.013   9.919   5.288 -1.4544  2.0544  0.2638
   67MOL0     H 8819   6.978   9.936   5.455  2.5416 -1.5866  1.9817
   67MOL0     H 8820   6.820   9.737   5.279  1.2309 -1.3562  0.6772
   67MOL0     H 8821   6.783   9.917   5.309  0.0866  0.2869 -0.2924
   67MOL0     H 8822   6.805   9.682   5.510 -0.4711 -0.3951  0.1855
   67MOL0     H 8823   6.782   9.841   5.574  0.6176 -3.2210  2.3670
   67MOL0     H 8824   6.596   9.692   5.565  1.0987 -0.3899 -0.3506
   67MOL0     H 8825   6.596   9.691   5.385 -2.4520 -2.4455  2.3554
   67MOL0     H 8826   7.552  10.052   5.432  0.6492  1.2679 -0.4895
   67MOL0     H 8827   7.783  10.133   5.428 -1.4888 -0.5686  0.0259
   67MOL0     H 8828   8.151  10.306   5.865 -1.0571 -0.1934 -1.1200
   67MOL0     H 8829   8.407  10.304   5.889 -0.1312  1.2950 -0.6654
   67MOL0     H 8830  10.340  10.437   6.304 -0.3226  0.1591  1.0589
   67MOL0     H 8831  10.560  10.528   6.352 -1.9220  1.1615  0.5102
   67MOL0     H 8832  11.076  10.565   6.263  0.7504 -1.7588 -0.5436
   67MOL0     H 8833  11.263  10.643   6.353 -0.0768 -0.3347  0.3552
   67MOL0     H 8834  11.363  10.813   6.464  2.5216  1.4956 -1.3982
   67MOL0     H 8835  11.452  10.660   6.487 -3.8418 -1.9009  0.5190
   67MOL0     H 8836  11.472  10.921   6.665 -0.9675 -1.7864  1.6541
   67MOL0     H 8837  11.576  10.787   6.686  0.1314  0.0032 -0.5954
   67MOL0     H 8838  11.551  10.961   6.436 -0.3471 -0.5080 -1.8129
   67MOL0     H 8839  11.657  10.810   6.442 -3.1141 -1.3912 -0.9986
   67MOL0     H 8840  11.705  11.036   6.634  2.1722 -0.0808  0.4753
   67MOL0     H 8841  11.795  10.893   6.602 -0.0316  0.9110  2.9097
   67MOL0     H 8842  11.932  11.079   6.267  0.4363  2.2792 -0.5760
   67MOL0     H 8843  11.127  10.635   6.748  3.8872  0.9062 -1.6085
   67MOL0     H 8844  10.894  10.539   6.654 -0.2291  0.7937  0.1448
   68MOL0     O 8845   0.244   1.751   0.980  0.1574 -0.0758 -0.0217
   68MOL0     C 8846   0.250   1.692   0.870 -0.2822  0.0262  0.1204
   68MOL0     O 8847   0.147   1.647   0.791  0.4825  0.6375 -0.5194
   68MOL0     C 8848   0.022   1.689   0.829  0.7090  0.4325 -0.1624
   68MOL0     C 8849  -0.018   1.812   0.850  0.5379  0.4363  0.3214
   68MOL0     C 8850  -0.145   1.841   0.891 -0.3370 -1.1198 -0.3704
   68MOL0     C 8851  -0.249   1.742   0.890 -0.5449  0.0358  0.0016
   68MOL0     O 8852  -0.374   1.745   0.951 -0.3138 -0.0189 -0.0049
   68MOL0     C 8853  -0.436   1.870   0.931  0.9533 -0.3252  0.1902
   68MOL0     C 8854  -0.588   1.850   0.963 -0.4752  0.0296  0.0938
   68MOL0     C 8855  -0.671   1.972   0.915 -0.2242  0.3158  0.1697
   68MOL0     C 8856  -0.813   1.960   0.980  0.7973  0.5153 -0.2077
   68MOL0     C 8857  -0.882   1.825   0.967  0.0523  0.4083  0.0514
   68MOL0     C 8858  -1.025   1.848   1.009  1.1732  0.2103  1.0612
   68MOL0     C 8859  -1.122   1.727   1.021 -0.5867 -0.6121 -0.1718
   68MOL0     C 8860  -1.164   1.685   0.872  0.3673 -0.0354 -0.7907
   68MOL0     N 8861  -1.261   1.574   0.876 -0.4850 -0.3745  0.3285
   68MOL0     C 8862  -1.377   1.566   0.941  0.8392  0.0824 -0.7134
   68MOL0     C 8863  -1.421   1.438   0.952  0.1883 -0.2996  0.1483
   68MOL0     C 8864  -1.557   1.391   1.013 -0.5192 -0.7133 -0.8201
   68MOL0     C 8865  -1.663   1.366   0.904  0.4659  0.9342 -0.4528
   68MOL0     C 8866  -1.626   1.239   0.820  0.2741 -0.3955  0.1248
   68MOL0     C 8867  -1.699   1.250   0.688  0.8413 -0.4299 -0.0740
   68MOL0     O 8868  -1.843   1.254   0.704 -0.3649  0.5705 -0.6573
   68MOL0     C 8869  -1.909   1.138   0.750  1.0877  0.3777  0.7788
   68MOL0     C 8870  -1.859   1.004   0.745 -0.2988 -0.4489  0.0911
   68MOL0     C 8871  -1.940   0.897   0.789  0.4371  0.6932  0.2842
   68MOL0     C 8872  -2.082   0.910   0.811 -0.5752  0.1891  0.2906
   68MOL0     C 8873  -2.160   0.790   0.832  0.3282  0.0586 -0.8631
   68MOL0     O 8874  -2.090   0.680   0.859 -0.2529  0.5815  0.5931
   68MOL0     C 8875  -2.165   0.572   0.897  0.1586 -0.3873 -0.6449
   68MOL0     C 8876  -2.257   0.521   0.809  0.2278  0.9565  0.4753
   68MOL0     C 8877  -2.340   0.414   0.844 -0.3322 -0.0902 -1.1161
   68MOL0     C 8878  -2.333   0.354   0.971  0.5470  0.0050  0.4811
   68MOL0     O 8879  -2.399   0.241   1.009  0.0857 -0.5716 -0.1473
   68MOL0     C 8880  -2.500   0.194   0.927 -0.3917  0.6500  0.1831
   68MOL0     C 8881  -2.632   0.270   0.926  0.4022  0.3039 -0.0691
   68MOL0     C 8882  -2.741   0.201   0.840  0.0486 -0.0619 -0.9535
   68MOL0     C 8883  -2.877   0.274   0.845  0.5764  0.1516  0.0136
   68MOL0     C 8884  -2.986   0.181   0.791 -0.3108 -0.3592 -0.5019
   68MOL0     C 8885  -3.137   0.233   0.811 -0.3729  0.7737 -0.0683
   68MOL0     C 8886  -3.239   0.126   0.775 -0.3779  0.2094 -0.0083
   68MOL0     C 8887  -3.269   0.118   0.627 -0.4305 -0.2679 -0.3537
   68MOL0    Cl 8888  -3.327   0.281   0.562  0.3870  0.4041 -0.6325
   68MOL0     C 8889  -2.235   0.410   1.059  0.6090  0.4714 -0.6653
   68MOL0     C 8890  -2.153   0.514   1.023  0.8905  0.6286  0.0564
   68MOL0     O 8891  -2.280   0.806   0.853 -0.1325 -0.3448 -0.1791
   68MOL0     C 8892  -2.137   1.044   0.807  0.3561 -0.2049 -0.6093
   68MOL0     C 8893  -2.049   1.154   0.780 -0.2954  0.4519 -0.4132
   68MOL0     N 8894  -1.321   1.365   0.886 -0.0021  1.1909 -0.3132
   68MOL0     N 8895  -1.230   1.447   0.840  0.5439 -0.8471  0.9629
   68MOL0     C 8896  -0.214   1.618   0.849 -1.3280 -0.1878 -0.6311
   68MOL0     C 8897  -0.078   1.591   0.823  0.4738 -0.0242  0.2831
   68MOL0     C 8898   0.380   1.685   0.812  0.0405  0.0948  0.4424
   68MOL0     C 8899   0.400   1.683   0.672  0.3223 -0.6728 -0.7244
   68MOL0     C 8900   0.531   1.665   0.619  0.9043 -0.5369  0.0798
   68MOL0     C 8901   0.644   1.677   0.706 -0.4236  0.0072  0.0271
   68MOL0     O 8902   0.774   1.662   0.668 -0.0632  0.4687 -0.1178
   68MOL0     C 8903   0.804   1.692   0.534  0.2925  0.3890  0.5527
   68MOL0     C 8904   0.940   1.666   0.501  0.7448 -0.3189 -0.2711
   68MOL0     C 8905   1.039   1.758   0.578  0.6154  0.5104  0.1188
   68MOL0     C 8906   1.192   1.740   0.555  0.7666  0.7319 -0.0087
   68MOL0     C 8907   1.267   1.820   0.650 -1.0747 -1.1447  0.1416
   68MOL0     C 8908   1.317   1.890   0.736  0.2731  0.0238  0.3253
   68MOL0     C 8909   0.617   1.676   0.841 -0.0478  0.8528  0.0672
   68MOL0     C 8910   0.488   1.678   0.892 -0.2941 -0.0953  0.1718
   68MOL0     H 8911   0.055   1.892   0.854  2.2284 -0.9087 -1.5941
   68MOL0     H 8912  -0.164   1.937   0.938 -3.7649 -1.8787  0.0875
   68MOL0     H 8913  -0.419   1.890   0.824  3.0487 -1.4626  0.2547
   68MOL0     H 8914  -0.395   1.950   0.993 -0.9367  1.8356 -1.1903
   68MOL0     H 8915  -0.593   1.830   1.071  3.6150  2.7164  1.0256
   68MOL0     H 8916  -0.620   1.766   0.901 -0.0944 -0.7333  0.8996
   68MOL0     H 8917  -0.678   1.980   0.806  0.2389  0.1951  0.1247
   68MOL0     H 8918  -0.636   2.069   0.953 -2.3776  1.3085 -0.2677
   68MOL0     H 8919  -0.805   1.983   1.087 -0.0309  1.4115 -0.3235
   68MOL0     H 8920  -0.890   2.029   0.944 -0.9256 -1.0088  0.4282
   68MOL0     H 8921  -0.841   1.748   1.033 -4.2971 -1.8270  0.4823
   68MOL0     H 8922  -0.868   1.789   0.864 -1.1196 -0.2971  0.1189
   68MOL0     H 8923  -1.074   1.916   0.939  0.2111  1.7167  3.1221
   68MOL0     H 8924  -1.019   1.905   1.102 -1.5800 -0.4078  1.7034
   68MOL0     H 8925  -1.079   1.647   1.082 -0.4997  1.1456  2.1861
   68MOL0     H 8926  -1.211   1.758   1.076  1.2933 -1.8476  3.9687
   68MOL0     H 8927  -1.070   1.660   0.821  0.8737 -1.7255  0.8633
   68MOL0     H 8928  -1.208   1.761   0.807  1.1309 -0.3481 -1.7063
   68MOL0     H 8929  -1.443   1.644   0.976 -0.8267 -1.4851 -0.1866
   68MOL0     H 8930  -1.584   1.452   1.099  0.7927 -0.6179 -0.4554
   68MOL0     H 8931  -1.532   1.296   1.061  0.9770 -2.9730 -5.4693
   68MOL0     H 8932  -1.674   1.459   0.846  1.5946  0.6823 -1.0972
   68MOL0     H 8933  -1.751   1.339   0.963  1.5547 -2.1127 -0.0729
   68MOL0     H 8934  -1.517   1.232   0.810  0.6271  1.4979  1.9683
   68MOL0     H 8935  -1.663   1.150   0.871  1.2419 -1.1491 -0.4491
   68MOL0     H 8936  -1.674   1.172   0.616  1.0902  1.5981 -2.3181
   68MOL0     H 8937  -1.669   1.350   0.654  1.9859 -1.0300 -0.9059
   68MOL0     H 8938  -1.753   0.983   0.731 -0.1475  0.1192  0.3595
   68MOL0     H 8939  -1.895   0.799   0.802 -1.3262 -0.0290  1.2398
   68MOL0     H 8940  -2.275   0.557   0.708 -1.1737 -1.7661 -0.3480
   68MOL0     H 8941  -2.421   0.394   0.774 -1.6713  1.3644 -0.0511
   68MOL0     H 8942  -2.515   0.091   0.962 -0.6265  0.4477 -0.4829
   68MOL0     H 8943  -2.458   0.186   0.826  2.9627 -0.8296  1.5589
   68MOL0     H 8944  -2.620   0.375   0.898  0.6114  0.7192  1.4695
   68MOL0     H 8945  -2.662   0.270   1.032  2.4176  1.6545  0.5629
   68MOL0     H 8946  -2.746   0.095   0.864  0.7417 -1.0123 -4.3686
   68MOL0     H 8947  -2.711   0.198   0.734  1.7101 -1.4655 -0.4897
   68MOL0     H 8948  -2.900   0.289   0.951 -2.7455 -1.0130 -0.4261
   68MOL0     H 8949  -2.889   0.369   0.792 -1.6039 -2.3201 -4.4647
   68MOL0     H 8950  -2.990   0.088   0.848 -1.3517 -0.2342 -0.3578
   68MOL0     H 8951  -2.959   0.164   0.686  0.3823 -0.3974 -0.3218
   68MOL0     H 8952  -3.157   0.329   0.762  3.3720  0.7635 -2.0037
   68MOL0     H 8953  -3.153   0.257   0.916 -0.3750  1.4354 -0.2153
   68MOL0     H 8954  -3.216   0.030   0.822 -0.3746 -0.3875 -1.1835
   68MOL0     H 8955  -3.335   0.149   0.823  0.2233  0.2662  1.1939
   68MOL0     H 8956  -3.342   0.042   0.598 -1.9242 -0.1619  2.7659
   68MOL0     H 8957  -3.185   0.093   0.561 -0.8850 -1.0741 -0.6376
   68MOL0     H 8958  -2.237   0.371   1.161 -1.9012  0.3082 -0.6968
   68MOL0     H 8959  -2.089   0.554   1.101 -2.1598 -1.5004  4.0383
   68MOL0     H 8960  -2.240   1.056   0.838  1.1227  0.4961  1.9329
   68MOL0     H 8961  -2.067   1.260   0.769  1.1718  0.5457 -2.6920
   68MOL0     H 8962  -0.296   1.547   0.842  0.4604 -2.4551  0.3900
   68MOL0     H 8963  -0.039   1.496   0.787  0.0198  0.2965 -1.1130
   68MOL0     H 8964   0.317   1.679   0.602 -0.9713  0.1235  0.6909
   68MOL0     H 8965   0.539   1.655   0.511 -0.6157  0.4611 -0.1493
   68MOL0     H 8966   0.792   1.797   0.506 -0.5220 -0.7768 -4.4534
   68MOL0     H 8967   0.730   1.651   0.465 -1.5877  1.1024  2.0656
   68MOL0     H 8968   0.972   1.564   0.526 -0.1408  0.4710  5.6596
   68MOL0     H 8969   0.960   1.681   0.395  1.8330 -0.0405 -0.0382
   68MOL0     H 8970   1.021   1.743   0.685 -2.8573  0.9401 -0.3112
   68MOL0     H 8971   1.021   1.863   0.555  0.2658  0.4442  0.0956
   68MOL0     H 8972   1.224   1.636   0.568 -0.7533  0.0667 -1.2606
   68MOL0     H 8973   1.214   1.758   0.449  1.4029 -2.0527 -0.4142
   68MOL0     H 8974   1.341   1.951   0.821 -0.7089  2.5695 -1.1052
   68MOL0     H 8975   0.693   1.665   0.917  1.4897 -1.6294 -1.6865
   68MOL0     H 8976   0.475   1.677   1.000  0.5242  0.6444  0.2929
   69MOL0     O 8977   3.211   9.948  10.173  1.0130  0.4241  0.0728
   69MOL0     C 8978   3.297   9.893  10.102  0.2417  0.1798 -0.1854
   69MOL0     O 8979   3.274   9.825   9.985 -0.3866  0.1119  0.0661
   69MOL0     C 8980   3.158   9.844   9.916  0.2603 -0.3371  0.6782
   69MOL0     C 8981   3.063   9.953   9.924  0.6891 -0.8954  0.5536
   69MOL0     C 8982   2.948   9.949   9.847 -0.4354  0.9317  1.0247
   69MOL0     C 8983   2.923   9.834   9.773 -0.5464 -0.2980  0.2171
   69MOL0     O 8984   2.809   9.858   9.689  0.0724  0.1766  0.5000
   69MOL0     C 8985   2.780   9.766   9.585 -0.5188  0.3769 -0.5602
   69MOL0     C 8986   2.645   9.784   9.522 -0.1296  0.3894 -0.1608
   69MOL0     C 8987   2.543   9.753   9.621 -0.2301  0.8051  0.4904
   69MOL0     C 8988   2.412   9.789   9.565  0.8133  0.6860 -0.1470
   69MOL0     C 8989   2.292   9.753   9.644 -0.1929 -0.0812 -0.1357
   69MOL0     C 8990   2.155   9.796   9.588  0.5153 -0.6300  0.1524
   69MOL0     C 8991   2.036   9.751   9.674 -0.1514 -0.3959 -0.0758
   69MOL0     C 8992   1.910   9.805   9.602  0.1857 -0.0536  0.6781
   69MOL0     N 8993   1.783   9.759   9.675 -0.6265 -0.2745 -0.4649
   69MOL0     C 8994   1.764   9.754   9.806  0.3332 -0.0022 -0.2828
   69MOL0     C 8995   1.639   9.709   9.818 -0.0152 -0.0006  0.9184
   69MOL0     C 8996   1.559   9.693   9.944 -1.2498  0.0549 -0.1843
   69MOL0     C 8997   1.406   9.681   9.932  1.1580  0.2538 -0.0308
   69MOL0     C 8998   1.327   9.675  10.061 -0.2060  0.0679  0.8708
   69MOL0     C 8999   1.330   9.806  10.139  0.2692  0.9168 -0.3729
   69MOL0     O 9000   1.252   9.797  10.254  0.5114  0.1386  0.1960
   69MOL0     C 9001   1.118   9.795  10.242  0.5149  1.2548  0.7178
   69MOL0     C 9002   1.055   9.837  10.130  0.6671 -0.2066 -0.1611
   69MOL0     C 9003   0.919   9.827  10.118  0.4413 -0.0538 -0.3019
   69MOL0     C 9004   0.842   9.798  10.232  0.4599  0.2762 -0.1721
   69MOL0     C 9005   0.689   9.792  10.219  0.9282  0.5506 -0.7387
   69MOL0     O 9006   0.626   9.735  10.321 -0.8764 -0.5230 -1.0241
   69MOL0     C 9007   0.493   9.766  10.343  0.3041 -0.2871 -0.3802
   69MOL0     C 9008   0.422   9.870  10.290  0.0486 -0.8662 -0.0245
   69MOL0     C 9009   0.287   9.886  10.324 -0.1846 -0.7576  0.9196
   69MOL0     C 9010   0.226   9.800  10.413  0.0343 -0.2566 -0.3382
   69MOL0     O 9011   0.095   9.810  10.464  0.2133 -0.0132  0.4782
   69MOL0     C 9012   0.002   9.885  10.383  0.1694  0.2344 -0.7980
   69MOL0     C 9013  -0.128   9.910  10.463 -0.3735 -0.1446 -0.1228
   69MOL0     C 9014  -0.101   9.956  10.602 -0.1323 -0.7407 -0.4133
   69MOL0     C 9015  -0.234   9.946  10.686  0.2085  0.3205  0.6536
   69MOL0     C 9016  -0.330  10.056  10.639 -0.0352 -0.1597 -0.0343
   69MOL0     C 9017  -0.443  10.053  10.738  0.5105 -1.2597 -0.5485
   69MOL0     C 9018  -0.517  10.185  10.725 -0.1057 -0.2380  0.0426
   69MOL0     C 9019  -0.652  10.181  10.778  0.2492  0.1294  0.4242
   69MOL0    Cl 9020  -0.646  10.142  10.953  0.0335 -0.5220 -0.1162
   69MOL0     C 9021   0.298   9.694  10.467 -0.4431  0.2823  0.9501
   69MOL0     C 9022   0.433   9.675  10.425  1.1353  0.6630 -0.2868
   69MOL0     O 9023   0.636   9.817  10.111 -0.7000  0.4845 -0.2300
   69MOL0     C 9024   0.906   9.762  10.352  0.6054 -1.2286  0.1460
   69MOL0     C 9025   1.045   9.770  10.355 -0.4343  1.2089 -0.0260
   69MOL0     N 9026   1.586   9.692   9.690 -0.0461  0.3706 -0.7970
   69MOL0     N 9027   1.675   9.723   9.606  0.6643 -0.6924  0.2371
   69MOL0     C 9028   3.011   9.725   9.763 -0.4605  0.2322  0.3773
   69MOL0     C 9029   3.128   9.734   9.832 -0.8847  0.3871 -0.0723
   69MOL0     C 9030   3.434   9.920  10.152 -0.3502  0.6472  0.8198
   69MOL0     C 9031   3.544   9.929  10.068  0.0227 -0.1817 -0.6300
   69MOL0     C 9032   3.669   9.973  10.113 -0.2366 -0.0509  0.1740
   69MOL0     C 9033   3.693   9.974  10.251 -0.3354  0.7052  0.3694
   69MOL0     O 9034   3.826   9.997  10.289 -0.1706  0.6892  0.3632
   69MOL0     C 9035   3.864  10.029  10.426 -0.6636 -0.7817  0.2208
   69MOL0     C 9036   3.931   9.911  10.493  0.2525 -0.5944 -0.6216
   69MOL0     C 9037   3.995   9.946  10.636  0.9009 -0.5675  0.6335
   69MOL0     C 9038   4.116  10.038  10.618  0.1009 -0.2287  0.7938
   69MOL0     C 9039   4.172  10.073  10.746  0.9271 -0.8257  0.5257
   69MOL0     C 9040   4.224  10.104  10.851  0.2418 -1.5185 -0.0962
   69MOL0     C 9041   3.588   9.962  10.336 -0.2823  0.0756 -0.5163
   69MOL0     C 9042   3.462   9.933  10.288 -0.2192 -0.5697  0.4519
   69MOL0     H 9043   3.080  10.039   9.987 -1.3708 -0.2508  0.2763
   69MOL0     H 9044   2.879  10.032   9.838 -0.0355  1.0279 -2.8968
   69MOL0     H 9045   2.788   9.663   9.622  2.1437  0.2456 -1.2658
   69MOL0     H 9046   2.861   9.770   9.512 -0.5735  0.1295 -0.6375
   69MOL0     H 9047   2.625   9.725   9.432 -2.2018  0.3717  0.2831
   69MOL0     H 9048   2.634   9.889   9.493  0.2289  0.7783  1.0604
   69MOL0     H 9049   2.555   9.796   9.721 -2.1966  2.0310  0.2474
   69MOL0     H 9050   2.537   9.644   9.629  0.3816  0.7516  0.2757
   69MOL0     H 9051   2.413   9.898   9.566  1.4247  0.6868 -0.5293
   69MOL0     H 9052   2.390   9.750   9.465 -2.9156  0.1136  0.7507
   69MOL0     H 9053   2.306   9.786   9.747 -2.9546  4.8742 -1.0006
   69MOL0     H 9054   2.291   9.644   9.650 -3.0605 -0.3473 -2.8387
   69MOL0     H 9055   2.148   9.757   9.486 -0.7922  3.8528 -1.7125
   69MOL0     H 9056   2.155   9.905   9.581  1.5291 -0.6395 -0.0682
   69MOL0     H 9057   2.029   9.643   9.686  1.5285 -0.4381  0.8790
   69MOL0     H 9058   2.051   9.794   9.773  2.2240 -1.0456 -0.0898
   69MOL0     H 9059   1.911   9.762   9.502 -0.4919 -1.3306  1.1914
   69MOL0     H 9060   1.916   9.914   9.601  1.1767 -0.0759 -1.6662
   69MOL0     H 9061   1.825   9.776   9.893 -1.3751 -0.6987  1.1480
   69MOL0     H 9062   1.581   9.788   9.993  0.9279 -0.5243  0.0668
   69MOL0     H 9063   1.602   9.611  10.002  0.4614  0.9154 -0.1588
   69MOL0     H 9064   1.373   9.601   9.865 -6.0127  1.7673  0.8509
   69MOL0     H 9065   1.365   9.771   9.884 -1.0432 -2.1375 -3.1012
   69MOL0     H 9066   1.227   9.647  10.024  0.7138  0.3076 -2.0781
   69MOL0     H 9067   1.361   9.595  10.129 -3.6629 -0.5553  2.0647
   69MOL0     H 9068   1.306   9.897  10.082 -0.8187 -0.4100 -2.1580
   69MOL0     H 9069   1.434   9.821  10.170  0.1633  3.3105 -0.9555
   69MOL0     H 9070   1.108   9.873  10.043  0.1029  2.0696  0.3741
   69MOL0     H 9071   0.869   9.844  10.024 -0.9459 -4.0013 -0.4628
   69MOL0     H 9072   0.461   9.946  10.223 -1.2563 -2.6164 -2.9529
   69MOL0     H 9073   0.234   9.970  10.280  0.0228 -1.2019 -0.2095
   69MOL0     H 9074  -0.013   9.842  10.284 -0.3891  0.4909 -0.8262
   69MOL0     H 9075   0.051   9.978  10.354 -1.8513  1.2467 -1.1652
   69MOL0     H 9076  -0.174   9.812  10.482  0.2056 -0.5493 -0.7095
   69MOL0     H 9077  -0.201   9.978  10.419  0.4262  1.7873  1.3762
   69MOL0     H 9078  -0.066  10.058  10.584  0.6517 -0.7734  0.8115
   69MOL0     H 9079  -0.018   9.903  10.651  2.7685  3.5763 -0.0659
   69MOL0     H 9080  -0.285   9.850  10.679 -0.2143  0.6706 -2.3783
   69MOL0     H 9081  -0.214   9.956  10.794  2.3031  0.1728  0.3201
   69MOL0     H 9082  -0.370  10.050  10.537  1.2780 -0.4288 -0.5536
   69MOL0     H 9083  -0.275  10.150  10.641 -0.4065  0.3723 -4.1853
   69MOL0     H 9084  -0.407  10.046  10.841  0.7686 -0.7084 -0.5989
   69MOL0     H 9085  -0.503   9.962  10.728 -0.7347 -1.0544  3.4988
   69MOL0     H 9086  -0.460  10.255  10.785 -0.5312  2.2581 -2.2724
   69MOL0     H 9087  -0.519  10.220  10.621  1.0077 -0.7652 -0.1715
   69MOL0     H 9088  -0.703  10.103  10.721 -0.2777 -0.2163  1.3468
   69MOL0     H 9089  -0.706  10.274  10.762 -0.2458  0.2022  2.2501
   69MOL0     H 9090   0.249   9.625  10.535 -0.6488  0.1088  0.6327
   69MOL0     H 9091   0.481   9.582  10.452 -1.2158 -0.3303  0.7230
   69MOL0     H 9092   0.856   9.727  10.441  1.1310 -1.7531  0.2435
   69MOL0     H 9093   1.091   9.733  10.446  2.7840  1.9140 -1.2378
   69MOL0     H 9094   2.993   9.632   9.710  1.4692  0.4387 -0.7200
   69MOL0     H 9095   3.186   9.644   9.848 -2.1880 -0.2011  1.5840
   69MOL0     H 9096   3.522   9.918   9.962 -0.2226 -0.4101 -0.5551
   69MOL0     H 9097   3.741  10.012  10.042 -0.4593  0.7417  0.3760
   69MOL0     H 9098   3.776  10.063  10.481 -1.7390 -0.9644 -1.3117
   69MOL0     H 9099   3.931  10.115  10.421  0.5188 -1.6797  0.2243
   69MOL0     H 9100   3.856   9.831  10.495 -2.3861  1.7208 -0.9879
   69MOL0     H 9101   4.008   9.878  10.423 -0.6557 -1.5524 -1.2104
   69MOL0     H 9102   4.025   9.853  10.685 -0.0906 -2.0901 -1.4815
   69MOL0     H 9103   3.909   9.991  10.686  0.0671 -0.9361 -0.4286
   69MOL0     H 9104   4.181   9.976  10.557 -1.1619  1.0886 -2.1133
   69MOL0     H 9105   4.100  10.128  10.557  3.4696  0.0458  0.1190
   69MOL0     H 9106   4.270  10.131  10.944  0.0542  4.4125 -1.3133
   69MOL0     H 9107   3.598   9.976  10.443 -1.4826  1.8216 -0.5962
   69MOL0     H 9108   3.383   9.921  10.361 -0.5791  0.9176  0.3362
   70MOL0     O 9109   8.910   6.812   2.050 -0.0815  0.2454 -0.1603
   70MOL0     C 9110   8.928   6.701   1.998  0.2186  0.1669 -0.9000
   70MOL0     O 9111   9.045   6.621   1.993 -0.2282 -0.1665  0.4755
   70MOL0     C 9112   9.164   6.668   2.040  0.5120 -0.4746  0.6656
   70MOL0     C 9113   9.252   6.571   2.083  0.0468 -0.5231  0.1203
   70MOL0     C 9114   9.374   6.611   2.130  0.1160  0.4907  0.0795
   70MOL0     C 9115   9.423   6.740   2.125 -0.7434  0.2569  0.7953
   70MOL0     O 9116   9.548   6.765   2.180 -0.0244  0.2525  0.4772
   70MOL0     C 9117   9.650   6.827   2.100  0.3925  0.1399  0.0016
   70MOL0     C 9118   9.706   6.743   1.991  0.0503  0.4459 -0.0811
   70MOL0     C 9119   9.809   6.644   2.039 -0.0439  0.4610 -0.0505
   70MOL0     C 9120   9.952   6.692   2.020 -0.2261  0.4094 -0.3626
   70MOL0     C 9121  10.057   6.612   2.102 -0.5049  0.1513 -0.3033
   70MOL0     C 9122  10.192   6.600   2.051  0.4051 -1.2488  0.2643
   70MOL0     C 9123  10.245   6.731   1.985 -1.0833 -0.5699  0.8376
   70MOL0     C 9124  10.392   6.725   1.955  0.2317  0.5835  0.2249
   70MOL0     N 9125  10.431   6.609   1.887 -0.3647 -0.5413  0.5106
   70MOL0     C 9126  10.497   6.505   1.955  0.8616 -0.6700  0.3268
   70MOL0     C 9127  10.485   6.405   1.871 -0.0888 -0.3509  0.3801
   70MOL0     C 9128  10.519   6.271   1.907  0.5300  0.4483  0.2392
   70MOL0     C 9129  10.654   6.247   1.985  0.3037 -0.1957  0.2933
   70MOL0     C 9130  10.773   6.284   1.897 -0.0310  0.2203  0.2745
   70MOL0     C 9131  10.820   6.182   1.793 -0.6952 -0.2079  0.0015
   70MOL0     O 9132  10.938   6.232   1.724 -0.0897  0.5433  0.8735
   70MOL0     C 9133  11.064   6.209   1.769 -0.3239  0.4761  0.2384
   70MOL0     C 9134  11.106   6.122   1.871 -0.0792  0.0661  0.6449
   70MOL0     C 9135  11.244   6.105   1.903  0.5394  0.7672 -0.6660
   70MOL0     C 9136  11.338   6.180   1.830  0.2777  0.2199 -0.1085
   70MOL0     C 9137  11.481   6.179   1.871 -0.1233 -0.2832  0.5106
   70MOL0     O 9138  11.568   6.224   1.779 -0.1084 -1.2306  0.0474
   70MOL0     C 9139  11.702   6.232   1.803 -0.2317 -0.5149 -0.0694
   70MOL0     C 9140  11.762   6.296   1.924  0.9628  0.0339 -0.6032
   70MOL0     C 9141  11.904   6.303   1.936  0.3461 -0.2647  0.0453
   70MOL0     C 9142  11.990   6.260   1.836  0.4288  0.0044 -0.3292
   70MOL0     O 9143  12.123   6.247   1.861  0.2854  0.1942 -0.4387
   70MOL0     C 9144  12.211   6.290   1.763  0.8031  0.4284  0.9266
   70MOL0     C 9145  12.333   6.361   1.825  0.9094  0.3656 -0.5333
   70MOL0     C 9146  12.450   6.386   1.727  0.4630 -0.8197  0.0388
   70MOL0     C 9147  12.564   6.439   1.810 -0.1474  0.3845 -0.6074
   70MOL0     C 9148  12.695   6.439   1.735  0.5379  0.0599  0.8589
   70MOL0     C 9149  12.794   6.478   1.846  0.2104 -0.5442  1.5806
   70MOL0     C 9150  12.938   6.473   1.792 -0.3258 -0.1579  0.2606
   70MOL0     C 9151  13.038   6.495   1.910 -0.2795 -0.1322  0.5059
   70MOL0    Cl 9152  13.202   6.516   1.840 -0.3974  0.1346  0.1112
   70MOL0     C 9153  11.934   6.193   1.721  0.0332  0.5740 -0.9927
   70MOL0     C 9154  11.792   6.181   1.704 -0.6025  0.0785 -0.5452
   70MOL0     O 9155  11.512   6.121   1.975  0.3555 -0.0720  0.3883
   70MOL0     C 9156  11.296   6.242   1.709  0.0830 -0.1286  0.2415
   70MOL0     C 9157  11.162   6.255   1.679  0.2092 -0.2945 -0.2971
   70MOL0     N 9158  10.423   6.445   1.750  0.5564  0.7724 -0.2891
   70MOL0     N 9159  10.401   6.569   1.759 -0.0324  0.1082  0.2619
   70MOL0     C 9160   9.341   6.841   2.073 -0.0507  0.0398 -0.2239
   70MOL0     C 9161   9.213   6.800   2.029 -0.1926 -0.7373 -0.0627
   70MOL0     C 9162   8.819   6.650   1.916  0.5676  0.9863 -0.2491
   70MOL0     C 9163   8.827   6.529   1.838  0.0805 -0.4450 -0.1870
   70MOL0     C 9164   8.720   6.480   1.764  0.7131  0.1092 -0.1436
   70MOL0     C 9165   8.590   6.539   1.774 -0.0638 -0.4883  0.4663
   70MOL0     O 9166   8.484   6.490   1.704  0.0451  0.0949 -0.0040
   70MOL0     C 9167   8.365   6.562   1.707 -0.8891  0.2716  0.2601
   70MOL0     C 9168   8.286   6.491   1.591  0.4034 -0.1883 -0.6632
   70MOL0     C 9169   8.150   6.567   1.581  0.7524  0.0760  1.1534
   70MOL0     C 9170   8.072   6.506   1.463 -0.0715  0.4881  0.2152
   70MOL0     C 9171   8.105   6.573   1.343  1.0724 -0.4210  0.0855
   70MOL0     C 9172   8.142   6.628   1.248 -0.2618  0.8309  0.2651
   70MOL0     C 9173   8.579   6.650   1.857 -0.0654  0.7141  0.1035
   70MOL0     C 9174   8.692   6.705   1.927  0.7431 -0.5400 -0.1357
   70MOL0     H 9175   9.211   6.471   2.086 -2.9523  0.6056  0.4991
   70MOL0     H 9176   9.436   6.542   2.186 -0.3760  0.4918  0.6364
   70MOL0     H 9177   9.725   6.865   2.170 -0.5410 -0.9800  1.6958
   70MOL0     H 9178   9.607   6.915   2.052  2.0338  0.3804 -1.0883
   70MOL0     H 9179   9.735   6.810   1.910 -0.9148  0.6872 -0.2400
   70MOL0     H 9180   9.624   6.687   1.946 -2.5961  1.5134  3.0230
   70MOL0     H 9181   9.789   6.552   1.984 -1.5616  0.6010  0.2411
   70MOL0     H 9182   9.786   6.615   2.142 -1.0178 -2.3047 -0.9613
   70MOL0     H 9183   9.964   6.700   1.911 -0.4327 -1.1677 -0.5139
   70MOL0     H 9184   9.963   6.794   2.059 -0.2696  0.5311 -0.6647
   70MOL0     H 9185  10.019   6.512   2.123  1.2135 -0.9284 -1.9717
   70MOL0     H 9186  10.068   6.640   2.207 -0.6565 -3.9058  0.9623
   70MOL0     H 9187  10.193   6.523   1.973 -1.3758 -0.2810 -0.7755
   70MOL0     H 9188  10.259   6.564   2.130 -0.8670 -0.5895  1.6982
   70MOL0     H 9189  10.192   6.741   1.890 -0.1562  1.1248  0.4606
   70MOL0     H 9190  10.227   6.820   2.046  1.6052  1.1341 -0.6648
   70MOL0     H 9191  10.449   6.723   2.049 -1.0095 -5.1574  1.2752
   70MOL0     H 9192  10.426   6.814   1.903  1.0881 -0.4871 -1.1148
   70MOL0     H 9193  10.539   6.506   2.055 -0.7760  1.6453  1.0883
   70MOL0     H 9194  10.502   6.207   1.820 -1.3636 -0.2868  1.0968
   70MOL0     H 9195  10.440   6.237   1.975  0.4598  1.0111  0.4447
   70MOL0     H 9196  10.662   6.141   2.008 -1.5061 -0.4326 -0.0029
   70MOL0     H 9197  10.660   6.302   2.080  0.2110 -0.6255  0.5517
   70MOL0     H 9198  10.762   6.380   1.845  4.1653 -0.2672 -1.9705
   70MOL0     H 9199  10.858   6.302   1.962 -0.8607 -0.9372  1.7218
   70MOL0     H 9200  10.750   6.167   1.710  1.8080  1.0087 -2.4863
   70MOL0     H 9201  10.819   6.086   1.845 -1.1425  0.0138  0.4100
   70MOL0     H 9202  11.030   6.065   1.922 -1.7835  1.7442  0.0868
   70MOL0     H 9203  11.268   6.040   1.986 -0.6105  0.5921 -0.4613
   70MOL0     H 9204  11.704   6.310   2.015  1.1270  4.5592 -0.9737
   70MOL0     H 9205  11.950   6.328   2.031  0.1564  0.2138  0.0138
   70MOL0     H 9206  12.166   6.363   1.695  0.2270 -0.4300  0.3766
   70MOL0     H 9207  12.249   6.209   1.700  0.9211  0.9522  0.3130
   70MOL0     H 9208  12.352   6.298   1.912 -1.4698  3.8270  2.8581
   70MOL0     H 9209  12.294   6.455   1.865 -0.0132  0.0986 -0.7758
   70MOL0     H 9210  12.416   6.443   1.640  0.0028 -1.1997 -0.0341
   70MOL0     H 9211  12.477   6.291   1.681 -1.4097 -1.2078 -0.3289
   70MOL0     H 9212  12.548   6.542   1.841  0.0863  0.0471  0.6883
   70MOL0     H 9213  12.575   6.385   1.905  3.5606 -0.5114 -1.3878
   70MOL0     H 9214  12.691   6.498   1.643 -0.8518 -0.5933  0.4636
   70MOL0     H 9215  12.709   6.338   1.697 -1.2225 -0.0164  0.3116
   70MOL0     H 9216  12.778   6.412   1.932 -3.0554 -0.0592  1.4908
   70MOL0     H 9217  12.769   6.578   1.882  2.1800  0.2456  0.8528
   70MOL0     H 9218  12.966   6.372   1.761 -0.1369 -0.8813  2.5917
   70MOL0     H 9219  12.945   6.546   1.711  0.5289 -0.6851 -0.1587
   70MOL0     H 9220  13.039   6.411   1.980 -1.3349  0.2220  0.9497
   70MOL0     H 9221  13.006   6.585   1.962 -3.1959 -1.7636  1.7673
   70MOL0     H 9222  12.015   6.144   1.667  1.2159  0.8608  0.4317
   70MOL0     H 9223  11.749   6.122   1.624 -4.1360  0.5041  0.8717
   70MOL0     H 9224  11.368   6.298   1.650 -0.1519  0.0930  0.1650
   70MOL0     H 9225  11.119   6.315   1.598 -1.8540 -0.7743  0.3935
   70MOL0     H 9226   9.385   6.940   2.066 -0.4007  0.1639 -0.7328
   70MOL0     H 9227   9.150   6.872   1.977  2.6282  1.1368 -1.1061
   70MOL0     H 9228   8.915   6.467   1.845 -0.4687 -1.3699 -1.1977
   70MOL0     H 9229   8.725   6.390   1.704  1.0476 -0.7727  1.1570
   70MOL0     H 9230   8.385   6.667   1.680  1.9724 -0.2360  0.1478
   70MOL0     H 9231   8.324   6.539   1.806  0.7648 -1.4936  0.5692
   70MOL0     H 9232   8.344   6.485   1.499 -0.3994 -0.1097 -1.1878
   70MOL0     H 9233   8.267   6.386   1.618  1.2211  0.5192  3.3890
   70MOL0     H 9234   8.164   6.673   1.561 -0.3916 -0.0203 -0.3810
   70MOL0     H 9235   8.097   6.568   1.677  0.0855  0.3086  0.7936
   70MOL0     H 9236   8.085   6.399   1.446  2.3681  1.0712 -2.4084
   70MOL0     H 9237   7.973   6.543   1.489  0.8243  2.3494  1.1467
   70MOL0     H 9238   8.160   6.669   1.151 -2.3541 -0.9937 -1.0059
   70MOL0     H 9239   8.480   6.691   1.876 -1.1951 -2.6359  2.6573
   70MOL0     H 9240   8.665   6.795   1.982 -3.1999 -1.3210 -0.4634
   71MOL0     O 9241   6.171   7.923   8.366 -0.1283 -0.1997 -0.1424
   71MOL0     C 9242   6.232   7.837   8.307  0.3929  0.2842 -0.2517
   71MOL0     O 9243   6.174   7.741   8.234 -0.5904  0.4061  0.1597
   71MOL0     C 9244   6.049   7.744   8.201  1.8273 -0.1833 -0.7476
   71MOL0     C 9245   5.938   7.773   8.290  0.4538 -0.4082 -0.1475
   71MOL0     C 9246   5.795   7.764   8.251  0.4092 -0.0885 -0.5874
   71MOL0     C 9247   5.768   7.726   8.118 -0.2936 -0.5035 -0.4284
   71MOL0     O 9248   5.643   7.722   8.065 -0.2033 -0.2593 -0.4789
   71MOL0     C 9249   5.577   7.595   8.085 -0.5610  0.0458  0.8496
   71MOL0     C 9250   5.482   7.592   7.958 -1.8925 -0.1530 -0.2715
   71MOL0     C 9251   5.400   7.469   7.955  0.1987 -0.4885  0.8169
   71MOL0     C 9252   5.307   7.474   7.823  0.6759  0.6447  0.8194
   71MOL0     C 9253   5.175   7.399   7.843  0.0220  0.7719  0.7292
   71MOL0     C 9254   5.105   7.381   7.700 -0.4680  0.1409  0.7977
   71MOL0     C 9255   4.973   7.309   7.718  0.4994 -0.5249  0.2683
   71MOL0     C 9256   4.873   7.408   7.783  0.2673  0.2166  0.7417
   71MOL0     N 9257   4.738   7.368   7.759  0.4368  0.2642  0.1609
   71MOL0     C 9258   4.654   7.421   7.659 -0.4035  0.0358 -0.4858
   71MOL0     C 9259   4.531   7.376   7.694 -0.5426 -0.0518 -1.3457
   71MOL0     C 9260   4.405   7.421   7.628  0.7360  0.7135 -0.2155
   71MOL0     C 9261   4.347   7.308   7.542 -0.4540 -0.1905 -1.2622
   71MOL0     C 9262   4.265   7.209   7.630 -0.0112  0.9079 -0.2955
   71MOL0     C 9263   4.215   7.083   7.557 -0.4920  0.3992 -0.5894
   71MOL0     O 9264   4.147   7.126   7.442 -0.2942 -0.3653  0.1028
   71MOL0     C 9265   4.017   7.173   7.446 -0.3462  0.7497 -0.3853
   71MOL0     C 9266   3.938   7.175   7.565 -0.4249  0.8081 -0.6057
   71MOL0     C 9267   3.807   7.227   7.564 -0.0855 -0.4312  0.2331
   71MOL0     C 9268   3.753   7.285   7.449  0.4122 -0.0785 -1.4165
   71MOL0     C 9269   3.613   7.333   7.459 -0.9740  0.3207  0.2684
   71MOL0     O 9270   3.532   7.267   7.544 -0.2979 -0.4159  0.0973
   71MOL0     C 9271   3.400   7.292   7.569 -0.6995 -0.7202  0.2742
   71MOL0     C 9272   3.316   7.364   7.478 -0.4694 -0.0762 -0.5792
   71MOL0     C 9273   3.186   7.396   7.503  0.0789 -0.9706 -0.0163
   71MOL0     C 9274   3.126   7.357   7.624  0.5067 -0.4741 -0.0294
   71MOL0     O 9275   3.003   7.398   7.657  0.1696 -0.4425 -0.1728
   71MOL0     C 9276   2.943   7.504   7.576 -0.1394 -0.0713 -0.0862
   71MOL0     C 9277   2.822   7.555   7.641 -0.4128 -0.4007  0.4804
   71MOL0     C 9278   2.713   7.436   7.646  0.5192  0.2150  0.0139
   71MOL0     C 9279   2.592   7.501   7.705  1.0025  0.5871  0.3209
   71MOL0     C 9280   2.474   7.396   7.685  0.2177  0.1886 -0.9141
   71MOL0     C 9281   2.352   7.472   7.749  0.9359  0.7277 -0.1908
   71MOL0     C 9282   2.234   7.382   7.727  0.6928 -0.2087 -0.6639
   71MOL0     C 9283   2.105   7.461   7.766  0.0569  0.6444  0.1508
   71MOL0    Cl 9284   2.079   7.600   7.665  0.2582  0.2327  0.4301
   71MOL0     C 9285   3.200   7.291   7.714  0.6426  1.4356 -1.0906
   71MOL0     C 9286   3.337   7.250   7.680 -0.0213  1.4055  0.4377
   71MOL0     O 9287   3.588   7.433   7.399 -0.1063  0.3751  0.0427
   71MOL0     C 9288   3.833   7.281   7.337 -0.1121 -1.0226  0.4444
   71MOL0     C 9289   3.959   7.221   7.332 -0.5172  0.0856  0.1566
   71MOL0     N 9290   4.546   7.292   7.809  0.1457 -0.3120 -0.5486
   71MOL0     N 9291   4.670   7.280   7.839  0.9188 -0.0858 -0.7625
   71MOL0     C 9292   5.878   7.692   8.032  0.5048 -0.5987 -0.0186
   71MOL0     C 9293   6.010   7.699   8.072  0.2154 -0.4505  0.0295
   71MOL0     C 9294   6.379   7.850   8.310 -0.4304 -0.2135  0.2054
   71MOL0     C 9295   6.455   7.920   8.412  0.4353 -0.2822 -0.1342
   71MOL0     C 9296   6.590   7.924   8.402 -0.4715 -0.1921 -0.6456
   71MOL0     C 9297   6.657   7.864   8.291 -1.0506 -0.3480  0.3644
   71MOL0     O 9298   6.793   7.859   8.290 -0.2073  0.3911  0.4209
   71MOL0     C 9299   6.864   7.941   8.201  0.2263 -0.0949 -0.7974
   71MOL0     C 9300   7.012   7.913   8.245  0.2799 -0.4059  0.2478
   71MOL0     C 9301   7.076   7.780   8.206  0.1413  0.1967  0.8060
   71MOL0     C 9302   7.226   7.784   8.219 -0.2949 -0.3649  0.0308
   71MOL0     C 9303   7.298   7.886   8.127  0.4879  0.6763  0.1501
   71MOL0     C 9304   7.342   7.975   8.069  0.4079  0.0888  0.8867
   71MOL0     C 9305   6.589   7.797   8.190 -0.2080 -0.2473  0.0785
   71MOL0     C 9306   6.451   7.787   8.208 -0.1146 -0.3456 -1.5100
   71MOL0     H 9307   5.955   7.829   8.381  2.5851 -0.3194 -0.5611
   71MOL0     H 9308   5.710   7.791   8.313  0.0517  0.0444 -1.1197
   71MOL0     H 9309   5.518   7.601   8.177 -1.1850  0.6300  0.4233
   71MOL0     H 9310   5.646   7.510   8.082  1.0643  1.3332  0.2470
   71MOL0     H 9311   5.540   7.613   7.867  0.9562 -3.0231  0.7137
   71MOL0     H 9312   5.411   7.675   7.964 -1.8595 -0.0290 -1.3381
   71MOL0     H 9313   5.331   7.465   8.040 -2.3108  1.8574 -0.9601
   71MOL0     H 9314   5.460   7.378   7.964 -1.6656 -1.7986  0.6671
   71MOL0     H 9315   5.280   7.576   7.796 -3.1000 -0.3047  0.3971
   71MOL0     H 9316   5.366   7.434   7.739 -2.0178 -0.1027 -0.8511
   71MOL0     H 9317   5.121   7.452   7.922 -0.2475  0.7033  0.5921
   71MOL0     H 9318   5.197   7.295   7.872  0.9962 -0.4067 -3.5616
   71MOL0     H 9319   5.169   7.317   7.638 -0.2868  1.2708 -0.2275
   71MOL0     H 9320   5.089   7.473   7.643 -3.0854  0.0304  1.2413
   71MOL0     H 9321   4.936   7.286   7.618 -2.2625  0.0255  1.0532
   71MOL0     H 9322   4.981   7.217   7.777 -1.1502 -1.4651 -0.8893
   71MOL0     H 9323   4.895   7.506   7.741 -1.8477  0.5304  0.2842
   71MOL0     H 9324   4.889   7.403   7.892  0.5586  4.1315  1.0185
   71MOL0     H 9325   4.691   7.489   7.583  0.0005 -0.5273 -0.8025
   71MOL0     H 9326   4.432   7.507   7.565  0.8341  1.6645  1.0931
   71MOL0     H 9327   4.333   7.457   7.702  1.2135 -0.5757  0.9059
   71MOL0     H 9328   4.427   7.262   7.483  0.6277  2.2919 -1.8809
   71MOL0     H 9329   4.280   7.349   7.467 -1.6703  0.7274  0.2605
   71MOL0     H 9330   4.323   7.170   7.714  0.6384  0.6650 -0.8401
   71MOL0     H 9331   4.179   7.253   7.681 -0.6922  0.7403 -1.2657
   71MOL0     H 9332   4.154   7.010   7.611  2.0492 -2.2181 -1.0046
   71MOL0     H 9333   4.299   7.022   7.523 -0.5962  0.4207 -0.8816
   71MOL0     H 9334   3.958   7.136   7.664 -1.4462 -3.5451 -1.8945
   71MOL0     H 9335   3.743   7.216   7.651  2.6890 -1.2493  2.3116
   71MOL0     H 9336   3.337   7.387   7.374 -1.2818 -1.3349 -1.0577
   71MOL0     H 9337   3.130   7.444   7.424  0.7229  0.0046  0.1058
   71MOL0     H 9338   2.922   7.462   7.477  1.6384 -0.0389 -0.5020
   71MOL0     H 9339   3.009   7.591   7.569  2.3170 -1.9494 -3.2526
   71MOL0     H 9340   2.782   7.641   7.586  0.6945  0.1254  0.4705
   71MOL0     H 9341   2.853   7.579   7.744  2.1388 -0.8402 -0.1158
   71MOL0     H 9342   2.750   7.352   7.705 -0.6170  0.0577  0.5307
   71MOL0     H 9343   2.703   7.386   7.549  3.4380 -3.5121  1.4073
   71MOL0     H 9344   2.600   7.523   7.812 -0.8764  2.2709  0.1751
   71MOL0     H 9345   2.573   7.592   7.648 -0.2588 -0.6953 -1.4038
   71MOL0     H 9346   2.491   7.303   7.740  0.3767  0.3820 -0.6337
   71MOL0     H 9347   2.454   7.372   7.581  1.6440  1.4036 -1.5137
   71MOL0     H 9348   2.331   7.574   7.716 -2.4136  0.6995  1.3969
   71MOL0     H 9349   2.365   7.483   7.858  0.9929  1.1419 -0.2389
   71MOL0     H 9350   2.223   7.352   7.623 -0.5710 -0.8884 -0.3634
   71MOL0     H 9351   2.253   7.301   7.798 -0.6169  0.1545  0.1353
   71MOL0     H 9352   2.104   7.487   7.873  0.2837 -2.0051  0.8797
   71MOL0     H 9353   2.021   7.392   7.754 -0.7168  2.1045 -4.9799
   71MOL0     H 9354   3.147   7.253   7.801  1.4203 -0.5692 -1.4287
   71MOL0     H 9355   3.393   7.183   7.743 -1.3953  2.1318  2.5576
   71MOL0     H 9356   3.780   7.331   7.257 -0.3661 -0.9760  0.6398
   71MOL0     H 9357   4.022   7.211   7.244  0.7313 -2.4096  1.2247
   71MOL0     H 9358   5.848   7.648   7.938 -1.5325  2.0918 -0.7645
   71MOL0     H 9359   6.082   7.665   7.999  0.6842  0.9236 -0.1774
   71MOL0     H 9360   6.395   7.977   8.483  0.8031 -0.7246  0.5443
   71MOL0     H 9361   6.652   7.983   8.470 -1.0192  1.4291 -1.4933
   71MOL0     H 9362   6.832   8.046   8.205  1.5070  0.2847 -0.1468
   71MOL0     H 9363   6.847   7.914   8.097  0.6322 -0.9413 -0.6469
   71MOL0     H 9364   7.071   8.001   8.217  0.3089  0.0243  1.5886
   71MOL0     H 9365   7.015   7.915   8.355 -2.1852 -1.2204  0.3873
   71MOL0     H 9366   7.045   7.755   8.104 -0.8203  1.4724  0.7559
   71MOL0     H 9367   7.041   7.693   8.262  2.6983  1.6575  5.1809
   71MOL0     H 9368   7.261   7.796   8.322 -3.1123  0.9135  0.9339
   71MOL0     H 9369   7.257   7.688   8.177 -0.8666  0.8856 -3.5960
   71MOL0     H 9370   7.374   8.059   8.010 -1.8398  0.3739 -0.0343
   71MOL0     H 9371   6.648   7.757   8.108  1.6897  0.2528  1.1475
   71MOL0     H 9372   6.399   7.724   8.137 -0.0329 -2.0031 -0.1602
   72MOL0     O 9373   5.388   9.769  10.717  0.2237  0.2931  0.1668
   72MOL0     C 9374   5.484   9.751  10.650 -0.8067  0.3576 -0.1545
   72MOL0     O 9375   5.485   9.723  10.520  0.5959  0.4435  0.4408
   72MOL0     C 9376   5.367   9.682  10.456 -0.3008  0.2797 -0.4444
   72MOL0     C 9377   5.343   9.734  10.333  0.1872  0.4677  0.5920
   72MOL0     C 9378   5.218   9.699  10.272 -0.0177 -0.1904  0.5656
   72MOL0     C 9379   5.120   9.618  10.328 -0.0514 -0.7844  0.1682
   72MOL0     O 9380   5.001   9.603  10.257  0.0384 -0.2181 -0.8711
   72MOL0     C 9381   4.896   9.524  10.316  0.5852 -0.4417  0.2071
   72MOL0     C 9382   4.826   9.574  10.441  0.8354 -0.4644  0.1366
   72MOL0     C 9383   4.673   9.595  10.414  0.8948  0.3387 -0.0134
   72MOL0     C 9384   4.602   9.648  10.536 -0.8477  0.5351 -0.2743
   72MOL0     C 9385   4.447   9.628  10.540  0.1986  0.6236 -1.0476
   72MOL0     C 9386   4.381   9.713  10.433 -0.3406 -0.2744 -0.3312
   72MOL0     C 9387   4.230   9.691  10.413  0.6278  0.1644  0.2061
   72MOL0     C 9388   4.192   9.547  10.381 -0.7435 -0.3661  0.5854
   72MOL0     N 9389   4.049   9.524  10.365  0.3027  0.3019  0.4919
   72MOL0     C 9390   3.939   9.597  10.313 -0.7472 -0.1895  1.1434
   72MOL0     C 9391   3.832   9.519  10.329 -0.5987  0.9572 -1.0591
   72MOL0     C 9392   3.701   9.561  10.285 -0.0945  0.3710  0.2249
   72MOL0     C 9393   3.668   9.529  10.140  0.3014  0.3620  0.0749
   72MOL0     C 9394   3.612   9.392  10.129  0.1162 -0.7689  0.7065
   72MOL0     C 9395   3.564   9.368   9.987 -0.4457  0.3629  0.4406
   72MOL0     O 9396   3.493   9.248   9.989  0.1029  0.3116 -0.6247
   72MOL0     C 9397   3.361   9.262   9.961  0.0989 -0.5411  0.6270
   72MOL0     C 9398   3.254   9.213  10.030 -0.3790 -0.4104 -0.5636
   72MOL0     C 9399   3.124   9.222   9.975  0.8998 -0.4325 -0.0594
   72MOL0     C 9400   3.097   9.295   9.857  0.1307  0.1797  0.2463
   72MOL0     C 9401   2.961   9.299   9.805  0.5430 -0.0679  0.0667
   72MOL0     O 9402   2.876   9.202   9.839 -0.0242  0.3168  0.2436
   72MOL0     C 9403   2.736   9.223   9.817 -0.8450 -0.5502  1.0690
   72MOL0     C 9404   2.655   9.248   9.926  0.0124 -0.6258  0.2377
   72MOL0     C 9405   2.518   9.250   9.910 -0.3024  1.3543  0.3466
   72MOL0     C 9406   2.458   9.217   9.786 -0.3321  0.1196 -0.0351
   72MOL0     O 9407   2.328   9.222   9.778  0.2565 -0.4298 -0.9383
   72MOL0     C 9408   2.265   9.129   9.695 -0.4561  0.0888 -0.6224
   72MOL0     C 9409   2.150   9.048   9.765  0.2331  0.3772  0.2873
   72MOL0     C 9410   2.038   9.139   9.821  0.0955  0.4977 -0.0941
   72MOL0     C 9411   1.934   9.066   9.895  0.3248 -0.7755  0.0179
   72MOL0     C 9412   1.845   8.985   9.792  0.0727  0.3112  0.4963
   72MOL0     C 9413   1.709   8.945   9.853  0.3461  0.2202  0.3478
   72MOL0     C 9414   1.659   8.827   9.764 -0.3327  0.2130 -0.3874
   72MOL0     C 9415   1.539   8.773   9.844 -0.6612  0.7792  0.1393
   72MOL0    Cl 9416   1.397   8.864   9.866 -0.1864  0.1352  0.3409
   72MOL0     C 9417   2.538   9.185   9.683 -1.6540  0.1862  0.1811
   72MOL0     C 9418   2.679   9.197   9.698  0.0916  0.2657  0.5712
   72MOL0     O 9419   2.931   9.391   9.729 -0.2388 -0.4742 -0.2643
   72MOL0     C 9420   3.207   9.344   9.788 -0.4949 -0.2424  0.8968
   72MOL0     C 9421   3.339   9.326   9.835  0.7090 -0.2596  0.6219
   72MOL0     N 9422   3.868   9.411  10.404  0.6340 -0.1072  0.0076
   72MOL0     N 9423   3.988   9.422  10.425 -0.6483 -0.1460 -0.2891
   72MOL0     C 9424   5.153   9.571  10.459  0.6908  0.4800 -0.4304
   72MOL0     C 9425   5.271   9.605  10.523 -0.4244  0.0557  0.2543
   72MOL0     C 9426   5.614   9.795  10.705  0.7266  0.3339  0.9038
   72MOL0     C 9427   5.724   9.736  10.645 -0.7156  0.3864 -0.4826
   72MOL0     C 9428   5.857   9.761  10.677  0.3246 -0.6852 -0.5585
   72MOL0     C 9429   5.878   9.850  10.783  0.0350 -0.2615  0.3614
   72MOL0     O 9430   6.004   9.885  10.833 -0.0151 -0.8628 -0.4607
   72MOL0     C 9431   6.100   9.774  10.864 -0.0421 -1.0783  0.3806
   72MOL0     C 9432   6.163   9.764  11.005 -0.3077 -0.2103  0.3578
   72MOL0     C 9433   6.062   9.720  11.104  0.0232  0.2003 -0.3647
   72MOL0     C 9434   6.093   9.766  11.243  0.1794  0.2822 -1.2105
   72MOL0     C 9435   6.177   9.677  11.326 -0.3242  0.3436  0.1047
   72MOL0     C 9436   6.242   9.604  11.401  0.2519 -0.4114 -0.3414
   72MOL0     C 9437   5.765   9.908  10.847 -0.1149  0.4802 -0.1086
   72MOL0     C 9438   5.641   9.897  10.796 -0.0364 -0.5185 -0.6426
   72MOL0     H 9439   5.416   9.799  10.288  0.0696 -0.6763 -1.3815
   72MOL0     H 9440   5.209   9.730  10.169 -0.3716 -2.3219 -0.0967
   72MOL0     H 9441   4.936   9.425  10.342  2.1814  0.5728  1.7755
   72MOL0     H 9442   4.822   9.511  10.236 -0.1272 -2.7415  1.1411
   72MOL0     H 9443   4.875   9.661  10.486  3.0425 -2.0487  0.9914
   72MOL0     H 9444   4.843   9.500  10.520  1.2005  0.7167  1.1975
   72MOL0     H 9445   4.632   9.498  10.382  0.5538  1.2886 -2.6788
   72MOL0     H 9446   4.651   9.658  10.328  1.0625 -0.4502 -0.6485
   72MOL0     H 9447   4.641   9.607  10.630 -0.4477  0.6949 -0.3696
   72MOL0     H 9448   4.639   9.749  10.554  1.7185 -0.1355 -1.4063
   72MOL0     H 9449   4.415   9.670  10.636  1.1033  2.0821 -1.3629
   72MOL0     H 9450   4.428   9.521  10.528 -1.4684  0.6389  0.9220
   72MOL0     H 9451   4.417   9.695  10.332  1.2109  0.6444  0.0257
   72MOL0     H 9452   4.401   9.814  10.468  3.1892 -0.0839 -2.4170
   72MOL0     H 9453   4.174   9.709  10.505 -0.9396  1.5406 -0.9679
   72MOL0     H 9454   4.196   9.760  10.335  0.2540 -0.7257 -0.4449
   72MOL0     H 9455   4.225   9.481  10.462  0.8256 -0.3116  0.0286
   72MOL0     H 9456   4.242   9.528  10.286  0.2981  0.4495  0.9464
   72MOL0     H 9457   3.946   9.697  10.274 -1.2077 -0.0726  1.3556
   72MOL0     H 9458   3.696   9.670  10.291  1.9332  0.6397 -1.8204
   72MOL0     H 9459   3.625   9.511  10.346  0.4426 -1.8192 -0.7902
   72MOL0     H 9460   3.753   9.530  10.072 -1.9381  0.3780 -2.9140
   72MOL0     H 9461   3.611   9.607  10.089  3.7098  1.7386 -2.0081
   72MOL0     H 9462   3.685   9.313  10.149  1.8227  0.3448 -0.9035
   72MOL0     H 9463   3.518   9.388  10.186 -0.5747 -0.0333 -0.3378
   72MOL0     H 9464   3.652   9.362   9.923  0.2748 -1.7491  1.5203
   72MOL0     H 9465   3.517   9.460   9.953 -0.3756  0.3702  0.3626
   72MOL0     H 9466   3.264   9.160  10.123  2.3514  1.2550  0.2174
   72MOL0     H 9467   3.044   9.173  10.030  1.5170  0.2638  1.5111
   72MOL0     H 9468   2.704   9.275  10.019  1.2257  2.8688 -1.2324
   72MOL0     H 9469   2.462   9.258  10.003 -1.8322  1.0819 -0.5252
   72MOL0     H 9470   2.336   9.050   9.668 -0.8355 -1.8478  3.3313
   72MOL0     H 9471   2.236   9.176   9.601 -4.8066 -1.4321 -0.2647
   72MOL0     H 9472   2.185   8.990   9.852 -1.7367 -1.0016  0.2429
   72MOL0     H 9473   2.107   8.988   9.684 -2.6279  3.2816 -0.5658
   72MOL0     H 9474   1.999   9.205   9.743 -0.8497 -1.2355 -1.1571
   72MOL0     H 9475   2.090   9.198   9.897  1.0744  0.3330 -0.6289
   72MOL0     H 9476   1.987   8.997   9.962 -0.2721  0.7862  2.2307
   72MOL0     H 9477   1.876   9.126   9.966  2.0991 -0.3327  1.1537
   72MOL0     H 9478   1.897   8.895   9.759 -0.2794  0.3274 -0.1362
   72MOL0     H 9479   1.827   9.042   9.700 -0.5587  2.1827  1.7204
   72MOL0     H 9480   1.635   9.025   9.851 -0.6817 -0.6678 -2.3953
   72MOL0     H 9481   1.724   8.915   9.957 -0.2117  1.2708  0.7376
   72MOL0     H 9482   1.628   8.877   9.672 -0.2358  1.8195  0.4139
   72MOL0     H 9483   1.733   8.749   9.746 -1.3716 -0.1658 -3.6817
   72MOL0     H 9484   1.576   8.745   9.943  2.7315 -1.1309 -1.4722
   72MOL0     H 9485   1.505   8.677   9.805  1.0490 -0.9744  2.6357
   72MOL0     H 9486   2.492   9.174   9.585 -0.7884 -1.5719 -0.0688
   72MOL0     H 9487   2.737   9.186   9.606 -0.8998  2.1755 -0.3290
   72MOL0     H 9488   3.182   9.381   9.689 -0.7308 -2.0827  0.2271
   72MOL0     H 9489   3.423   9.357   9.772  0.6341  0.2245  0.7525
   72MOL0     H 9490   5.091   9.504  10.518  0.8549  0.2799 -0.4802
   72MOL0     H 9491   5.299   9.568  10.621  0.3732 -2.4220 -0.8315
   72MOL0     H 9492   5.713   9.654  10.574  0.4929 -0.7487  0.5929
   72MOL0     H 9493   5.941   9.714  10.626  0.2515  0.4559 -1.7971
   72MOL0     H 9494   6.181   9.782  10.791 -0.6519  0.0350 -0.2082
   72MOL0     H 9495   6.049   9.679  10.845 -3.5804  1.2053 -3.0293
   72MOL0     H 9496   6.240   9.688  10.986 -0.7491 -0.8704  1.1769
   72MOL0     H 9497   6.207   9.859  11.037 -0.1400  0.2148 -1.0551
   72MOL0     H 9498   6.049   9.612  11.094  0.1499  0.2391 -1.0148
   72MOL0     H 9499   5.964   9.759  11.074  1.7453  3.3257 -2.5287
   72MOL0     H 9500   6.144   9.863  11.248  1.3450 -0.3644  0.4866
   72MOL0     H 9501   6.001   9.792  11.297  1.2142  0.0104  0.8111
   72MOL0     H 9502   6.298   9.544  11.470 -0.7559 -1.4788 -0.4287
   72MOL0     H 9503   5.780   9.977  10.929 -4.3488  0.9965  0.4521
   72MOL0     H 9504   5.563   9.967  10.823  1.1364  1.2004 -1.5612
   73MOL0     O 9505   6.669   6.774   5.274 -0.4972  0.5886  0.0063
   73MOL0     C 9506   6.705   6.868   5.353 -0.0200 -0.6054  0.7215
   73MOL0     O 9507   6.793   6.963   5.318 -0.4875 -0.0492 -0.4577
   73MOL0     C 9508   6.866   6.934   5.205  0.2962 -0.7822 -0.1826
   73MOL0     C 9509   6.858   7.014   5.091 -0.2931  0.2996 -0.0443
   73MOL0     C 9510   6.937   6.990   4.979  1.2710 -0.8465 -0.2684
   73MOL0     C 9511   7.025   6.890   4.979  0.1708 -0.2362 -0.9242
   73MOL0     O 9512   7.104   6.878   4.874  0.4497 -0.5360 -0.4815
   73MOL0     C 9513   7.235   6.933   4.902 -0.1973  0.2486  0.1433
   73MOL0     C 9514   7.320   6.933   4.773  0.4678  0.5085 -0.9233
   73MOL0     C 9515   7.453   7.011   4.789  0.3501 -0.2887 -0.7274
   73MOL0     C 9516   7.531   7.012   4.649 -0.0474  0.2944  0.0734
   73MOL0     C 9517   7.682   7.048   4.655 -0.3298 -0.1907 -0.0752
   73MOL0     C 9518   7.711   7.193   4.692 -0.4566 -0.5700 -0.3285
   73MOL0     C 9519   7.837   7.219   4.766 -0.0966 -0.2293 -0.5186
   73MOL0     C 9520   7.964   7.196   4.689 -0.2647 -0.7002 -0.1181
   73MOL0     N 9521   7.947   7.267   4.555  0.0768  0.1338 -0.0040
   73MOL0     C 9522   7.960   7.405   4.533  0.1637  0.3691 -0.0288
   73MOL0     C 9523   8.006   7.421   4.408  0.8695 -0.1490  0.3637
   73MOL0     C 9524   8.009   7.545   4.326 -0.5651 -0.1209 -0.1708
   73MOL0     C 9525   7.898   7.539   4.219  0.7787  0.6229 -0.5123
   73MOL0     C 9526   7.910   7.651   4.121  0.7953 -0.3884  0.1725
   73MOL0     C 9527   7.922   7.797   4.175 -1.2821  0.2899  0.1003
   73MOL0     O 9528   7.825   7.845   4.270 -0.3526  0.7058  0.8017
   73MOL0     C 9529   7.692   7.852   4.232 -0.4306  0.0567  1.0658
   73MOL0     C 9530   7.596   7.864   4.331  0.3492  1.0040 -0.7514
   73MOL0     C 9531   7.458   7.876   4.305  0.4657 -0.0242 -0.2531
   73MOL0     C 9532   7.412   7.877   4.172  0.8181 -0.2673 -0.2061
   73MOL0     C 9533   7.275   7.911   4.145 -0.6758  0.2779 -0.2694
   73MOL0     O 9534   7.235   7.913   4.012  0.3799 -0.6382 -0.2850
   73MOL0     C 9535   7.103   7.940   3.980  0.0105 -0.5437 -0.0295
   73MOL0     C 9536   7.056   8.070   4.007 -0.1054  0.0429 -0.1293
   73MOL0     C 9537   6.926   8.112   3.963 -0.7490  1.0795 -0.4089
   73MOL0     C 9538   6.850   8.020   3.893  0.6877 -0.0445 -0.1169
   73MOL0     O 9539   6.733   8.052   3.825 -0.6528 -0.2371  0.2587
   73MOL0     C 9540   6.662   8.177   3.859  0.7320  0.1758  0.3222
   73MOL0     C 9541   6.514   8.178   3.807 -0.6540 -0.3286  1.1622
   73MOL0     C 9542   6.425   8.091   3.892  0.5260  0.1364  0.5341
   73MOL0     C 9543   6.290   8.091   3.832 -0.3985 -0.3902 -0.4897
   73MOL0     C 9544   6.195   7.995   3.899  0.0989  0.3692  0.0917
   73MOL0     C 9545   6.065   7.969   3.825 -0.8993 -0.1036  1.5065
   73MOL0     C 9546   6.005   8.094   3.767  0.6396  0.2306 -0.2088
   73MOL0     C 9547   5.934   8.171   3.875  0.6210 -0.1987 -0.4159
   73MOL0    Cl 9548   5.830   8.296   3.808  0.1667  0.1253 -0.4405
   73MOL0     C 9549   6.890   7.895   3.866  0.3908  0.2156 -0.3431
   73MOL0     C 9550   7.018   7.862   3.906  0.0073  0.4548  0.9417
   73MOL0     O 9551   7.198   7.939   4.237 -0.5203 -0.2110  0.2558
   73MOL0     C 9552   7.500   7.863   4.068  0.5578  0.9936  0.2133
   73MOL0     C 9553   7.638   7.852   4.101  0.7871 -0.0187 -0.1557
   73MOL0     N 9554   8.029   7.292   4.361 -0.2293  0.6562  0.2259
   73MOL0     N 9555   7.994   7.204   4.445 -0.2168 -0.9341 -0.1953
   73MOL0     C 9556   7.037   6.807   5.097 -0.6368 -0.4023  0.3422
   73MOL0     C 9557   6.962   6.833   5.214  0.0527  0.1408  1.0429
   73MOL0     C 9558   6.665   6.871   5.496  0.1764  0.9889 -0.3728
   73MOL0     C 9559   6.625   6.752   5.551  0.1691  0.4357  1.2435
   73MOL0     C 9560   6.592   6.750   5.684  0.2523  0.2794  0.4413
   73MOL0     C 9561   6.588   6.863   5.761 -0.1697 -0.0880  0.1147
   73MOL0     O 9562   6.542   6.843   5.888  0.4256 -0.0577  0.2175
   73MOL0     C 9563   6.511   6.949   5.981  0.2076  0.0842 -0.2165
   73MOL0     C 9564   6.478   6.874   6.119 -0.5237 -0.1347 -0.6234
   73MOL0     C 9565   6.335   6.811   6.099 -0.1409  0.4185  0.4122
   73MOL0     C 9566   6.299   6.742   6.225  0.0198  0.2481 -0.0763
   73MOL0     C 9567   6.164   6.679   6.220 -0.0422  0.3552  0.5373
   73MOL0     C 9568   6.058   6.626   6.199  0.0731 -0.2938  0.2882
   73MOL0     C 9569   6.626   6.990   5.710  0.1516 -0.2398 -0.1524
   73MOL0     C 9570   6.667   6.991   5.576 -0.8305 -0.6835 -0.2895
   73MOL0     H 9571   6.805   7.108   5.093  2.3617  1.9205  2.2427
   73MOL0     H 9572   6.943   7.052   4.890  0.4645 -1.3499 -0.6867
   73MOL0     H 9573   7.291   6.884   4.983  1.6907  0.8928 -0.7158
   73MOL0     H 9574   7.224   7.041   4.914  0.9034  0.2699  1.2884
   73MOL0     H 9575   7.257   6.963   4.690 -2.8450 -3.5631 -0.2519
   73MOL0     H 9576   7.342   6.828   4.748  2.8162 -0.0176  2.6349
   73MOL0     H 9577   7.514   6.973   4.871  0.9432 -1.1896 -1.5557
   73MOL0     H 9578   7.433   7.112   4.826  2.1434 -0.4154  0.7294
   73MOL0     H 9579   7.516   6.910   4.613  0.1722  0.1015  0.5126
   73MOL0     H 9580   7.494   7.076   4.569  2.6255 -0.9263 -2.3251
   73MOL0     H 9581   7.734   7.026   4.561  1.1263 -0.0197  0.6817
   73MOL0     H 9582   7.719   6.972   4.724 -0.7910  0.3347  0.7665
   73MOL0     H 9583   7.630   7.233   4.753  0.5898  0.1953  0.5893
   73MOL0     H 9584   7.715   7.264   4.609  1.1372  0.9763  1.0012
   73MOL0     H 9585   7.846   7.320   4.807  0.4284 -1.5577  2.9875
   73MOL0     H 9586   7.835   7.164   4.860  2.4296  0.2387 -0.1183
   73MOL0     H 9587   7.972   7.087   4.688 -1.0004 -0.7615 -0.1804
   73MOL0     H 9588   8.046   7.245   4.742 -1.4678 -0.2704  1.4116
   73MOL0     H 9589   7.924   7.485   4.597 -1.6061  0.4681 -1.0671
   73MOL0     H 9590   8.108   7.556   4.280 -0.4462 -2.5418 -0.6521
   73MOL0     H 9591   8.002   7.634   4.389  1.0971  0.1984 -0.3772
   73MOL0     H 9592   7.801   7.532   4.268  1.9124 -3.4798  1.5936
   73MOL0     H 9593   7.909   7.442   4.168  1.8875  0.9192 -0.8565
   73MOL0     H 9594   7.990   7.619   4.054 -0.5465 -1.6632 -0.8854
   73MOL0     H 9595   7.821   7.647   4.058  0.7522  2.7754 -0.1385
   73MOL0     H 9596   7.940   7.852   4.082  1.2582  0.4268  0.5962
   73MOL0     H 9597   8.015   7.803   4.231 -1.4217 -1.1948  0.5462
   73MOL0     H 9598   7.633   7.874   4.433  0.7921  1.4222 -0.9490
   73MOL0     H 9599   7.393   7.899   4.388  2.5170  2.1451  0.8587
   73MOL0     H 9600   7.112   8.143   4.064 -1.0843  2.2640 -1.8616
   73MOL0     H 9601   6.887   8.212   3.977 -2.4351  0.3474  0.4256
   73MOL0     H 9602   6.713   8.267   3.824 -0.8261  1.9579  2.3453
   73MOL0     H 9603   6.651   8.180   3.968 -0.5163  1.6513  0.1873
   73MOL0     H 9604   6.519   8.151   3.701 -4.0082 -1.7742  1.2542
   73MOL0     H 9605   6.479   8.282   3.807  0.0080 -0.0778 -0.4809
   73MOL0     H 9606   6.414   8.131   3.993 -4.7622  0.5261  0.1088
   73MOL0     H 9607   6.465   7.990   3.898  0.4387  0.0876  0.3136
   73MOL0     H 9608   6.248   8.192   3.845  0.8068  0.1644 -0.7317
   73MOL0     H 9609   6.295   8.068   3.726  3.5501 -0.8106 -0.3837
   73MOL0     H 9610   6.171   8.026   4.001  1.0634  0.9788  0.1433
   73MOL0     H 9611   6.254   7.905   3.920  0.7802  0.4504 -1.3614
   73MOL0     H 9612   6.006   7.904   3.891 -0.2035 -0.7956  1.4657
   73MOL0     H 9613   6.092   7.902   3.743  1.2125  0.3606  1.7589
   73MOL0     H 9614   6.075   8.160   3.715 -0.9774  2.4584  0.2750
   73MOL0     H 9615   5.929   8.059   3.696  1.4068 -0.1101 -0.8696
   73MOL0     H 9616   6.011   8.230   3.925 -1.2080 -0.1659  2.5997
   73MOL0     H 9617   5.889   8.096   3.940  0.4761 -0.8600 -1.2571
   73MOL0     H 9618   6.825   7.822   3.820  0.0022 -1.2249  2.2888
   73MOL0     H 9619   7.051   7.763   3.877 -0.5391  0.3326  0.7115
   73MOL0     H 9620   7.467   7.854   3.965  1.1319 -0.0047  0.0930
   73MOL0     H 9621   7.694   7.830   4.011 -1.8353 -0.2947 -1.8270
   73MOL0     H 9622   7.118   6.735   5.114  0.0678 -0.0643 -1.3487
   73MOL0     H 9623   6.975   6.792   5.314 -1.0059  0.7106  1.4364
   73MOL0     H 9624   6.633   6.663   5.488  1.5321  0.6364  1.0965
   73MOL0     H 9625   6.557   6.653   5.719 -3.2794  1.1607 -0.2718
   73MOL0     H 9626   6.422   7.011   5.963 -2.0882 -1.7990  3.4073
   73MOL0     H 9627   6.599   7.013   5.982 -0.2773  0.7800 -0.8041
   73MOL0     H 9628   6.557   6.802   6.145  2.3002  3.1128  0.4504
   73MOL0     H 9629   6.474   6.944   6.203 -2.1122 -0.0024 -0.7827
   73MOL0     H 9630   6.351   6.732   6.025 -0.4623 -0.4619  1.2669
   73MOL0     H 9631   6.259   6.888   6.082 -0.3932 -0.1439 -1.1727
   73MOL0     H 9632   6.377   6.667   6.238  0.9312  0.9828 -1.1543
   73MOL0     H 9633   6.312   6.811   6.308  1.6079 -2.4551  2.1200
   73MOL0     H 9634   5.966   6.574   6.180  0.4224 -0.3992 -1.2534
   73MOL0     H 9635   6.621   7.075   5.778  0.3084  0.9501 -1.5956
   73MOL0     H 9636   6.694   7.095   5.560 -3.1146 -0.1627 -1.0192
   74MOL0     O 9637   4.942   7.178   3.324  0.4916  0.1862  0.3466
   74MOL0     C 9638   4.907   7.159   3.438 -0.5404  0.0325  0.8511
   74MOL0     O 9639   4.812   7.234   3.502  0.5310  0.5970  0.1619
   74MOL0     C 9640   4.731   7.322   3.429  0.6804 -0.0678  1.0266
   74MOL0     C 9641   4.696   7.442   3.488  0.1032  0.4398 -0.2600
   74MOL0     C 9642   4.614   7.530   3.416 -0.1417 -0.0407  0.0447
   74MOL0     C 9643   4.562   7.500   3.290  0.4846 -0.1529 -0.0563
   74MOL0     O 9644   4.496   7.596   3.216 -0.5796  0.0288 -0.4586
   74MOL0     C 9645   4.567   7.630   3.094  0.1925  0.1857 -0.2786
   74MOL0     C 9646   4.662   7.739   3.133  0.0244 -0.5236  0.9010
   74MOL0     C 9647   4.585   7.854   3.200  0.1179  0.1692  0.4867
   74MOL0     C 9648   4.653   7.972   3.267 -0.5854  0.0999 -0.6844
   74MOL0     C 9649   4.696   7.941   3.412  0.7192 -0.4587 -0.4372
   74MOL0     C 9650   4.815   8.024   3.461  0.3778  0.1340  0.1811
   74MOL0     C 9651   4.890   7.968   3.582 -0.3323 -0.1949  0.6420
   74MOL0     C 9652   4.797   7.989   3.706  0.4807  0.2268 -0.1851
   74MOL0     N 9653   4.850   7.903   3.816 -0.4063 -0.0061 -0.5735
   74MOL0     C 9654   4.937   7.949   3.913 -0.2532 -0.3368 -0.0204
   74MOL0     C 9655   4.969   7.842   3.985 -0.3796  0.2116  0.3172
   74MOL0     C 9656   5.059   7.841   4.105 -0.1746 -0.0368 -0.4128
   74MOL0     C 9657   5.007   7.921   4.229  0.0704 -0.2585  0.4147
   74MOL0     C 9658   5.047   7.845   4.351  0.3505 -0.5840  0.2446
   74MOL0     C 9659   5.196   7.825   4.373  0.1765 -0.1350 -0.1019
   74MOL0     O 9660   5.229   7.720   4.457  0.1326 -0.0899  0.1200
   74MOL0     C 9661   5.340   7.718   4.528 -0.4632 -0.1417 -0.1450
   74MOL0     C 9662   5.440   7.806   4.505 -0.2822 -0.4496 -1.1775
   74MOL0     C 9663   5.556   7.797   4.590 -0.4826  0.5273 -0.2720
   74MOL0     C 9664   5.562   7.699   4.691 -0.9009  0.1307 -0.5194
   74MOL0     C 9665   5.684   7.711   4.778 -0.0845  0.0384  0.1306
   74MOL0     O 9666   5.769   7.823   4.771 -0.2315  0.4233 -0.3218
   74MOL0     C 9667   5.891   7.814   4.829  0.2493 -0.3206 -0.6448
   74MOL0     C 9668   6.001   7.835   4.750 -0.0894 -0.4597 -0.7452
   74MOL0     C 9669   6.137   7.836   4.814  0.1813  0.2601 -0.2803
   74MOL0     C 9670   6.155   7.808   4.946  0.5000 -0.5828  0.2300
   74MOL0     O 9671   6.271   7.790   5.010 -0.5847 -0.4007 -0.2889
   74MOL0     C 9672   6.382   7.729   4.945  0.2422 -0.8798 -0.3749
   74MOL0     C 9673   6.351   7.598   4.868 -0.9593 -0.8140  0.3154
   74MOL0     C 9674   6.465   7.541   4.785  0.9128 -0.1200  0.3080
   74MOL0     C 9675   6.472   7.619   4.645  0.6595 -0.2900  0.0646
   74MOL0     C 9676   6.537   7.544   4.524 -0.6200  0.6345  1.0800
   74MOL0     C 9677   6.686   7.508   4.543  0.7006 -0.1522 -0.6171
   74MOL0     C 9678   6.754   7.429   4.427 -0.9192 -0.4477 -0.0918
   74MOL0     C 9679   6.662   7.316   4.386  0.1356  0.0145 -0.5878
   74MOL0    Cl 9680   6.760   7.194   4.308  0.0094  0.1011  0.3621
   74MOL0     C 9681   6.043   7.781   5.022  0.9456 -0.1815 -0.4255
   74MOL0     C 9682   5.911   7.789   4.964 -0.3809  1.0295  1.0906
   74MOL0     O 9683   5.700   7.620   4.847  0.4064 -0.3904 -0.6389
   74MOL0     C 9684   5.463   7.612   4.714  0.4711  0.2992  0.3191
   74MOL0     C 9685   5.352   7.626   4.633  1.4215  0.8665 -0.4349
   74MOL0     N 9686   4.916   7.726   3.927  0.4137 -1.5319 -0.4032
   74MOL0     N 9687   4.844   7.764   3.822  0.6578  0.2524 -0.5468
   74MOL0     C 9688   4.591   7.377   3.235 -0.3846 -0.5123 -0.2869
   74MOL0     C 9689   4.675   7.284   3.303 -0.4670  0.7493 -0.4747
   74MOL0     C 9690   4.981   7.059   3.526  0.7554 -0.3441 -0.1373
   74MOL0     C 9691   5.097   6.993   3.486  0.1680 -0.1939  0.0118
   74MOL0     C 9692   5.172   6.915   3.575  0.3729  0.4571  0.0103
   74MOL0     C 9693   5.127   6.908   3.709  0.4150 -0.9155  0.7943
   74MOL0     O 9694   5.205   6.846   3.801 -0.2479  0.0825  0.4030
   74MOL0     C 9695   5.242   6.934   3.904  0.0177 -0.1257  0.3163
   74MOL0     C 9696   5.386   6.898   3.962  0.5277 -0.7723 -0.8843
   74MOL0     C 9697   5.506   6.929   3.871 -0.6620  0.4857 -0.5008
   74MOL0     C 9698   5.548   7.079   3.881 -0.8784 -0.5138  0.1573
   74MOL0     C 9699   5.600   7.117   4.012  0.3261 -0.3591 -0.3111
   74MOL0     C 9700   5.629   7.117   4.131  0.6213  1.1645  0.1407
   74MOL0     C 9701   5.002   6.952   3.740 -0.7116  0.6454  0.1494
   74MOL0     C 9702   4.924   7.032   3.653  0.0864  0.4432 -0.4503
   74MOL0     H 9703   4.734   7.483   3.581  0.3522  1.8903 -0.9714
   74MOL0     H 9704   4.583   7.625   3.457  1.3465  1.4307 -2.0462
   74MOL0     H 9705   4.500   7.673   3.020  0.3770  0.7974 -0.1042
   74MOL0     H 9706   4.633   7.554   3.051 -1.5384 -3.4208  2.8406
   74MOL0     H 9707   4.710   7.781   3.044  0.0523  1.7696  1.9088
   74MOL0     H 9708   4.739   7.712   3.207  0.2177 -1.0898  0.5021
   74MOL0     H 9709   4.521   7.821   3.282  2.0588  1.7340  2.7708
   74MOL0     H 9710   4.523   7.907   3.127 -1.4283  0.6204  2.0443
   74MOL0     H 9711   4.740   8.004   3.209  1.0725  1.1181  2.1788
   74MOL0     H 9712   4.595   8.064   3.264 -2.1746 -0.5080  3.5383
   74MOL0     H 9713   4.733   7.838   3.410 -0.4532 -0.8953 -1.6035
   74MOL0     H 9714   4.615   7.940   3.486  1.1426 -2.6315  0.0914
   74MOL0     H 9715   4.778   8.127   3.470 -1.7857 -0.3759 -1.9747
   74MOL0     H 9716   4.886   8.048   3.381  0.5321  3.2472  1.1237
   74MOL0     H 9717   4.901   7.861   3.563  0.3971  0.0349 -0.3753
   74MOL0     H 9718   4.990   8.008   3.601  0.4487 -0.4601 -2.3536
   74MOL0     H 9719   4.697   7.952   3.681 -0.6994  2.0462  1.4589
   74MOL0     H 9720   4.789   8.096   3.728 -0.6410  0.2422 -0.5984
   74MOL0     H 9721   4.981   8.047   3.925  0.2416 -0.8151  2.7954
   74MOL0     H 9722   5.153   7.884   4.071 -0.2991 -0.4357 -1.3134
   74MOL0     H 9723   5.077   7.737   4.133  1.9969  0.0482 -1.3103
   74MOL0     H 9724   4.899   7.933   4.217  0.2894  0.4617 -0.9896
   74MOL0     H 9725   5.048   8.022   4.229 -1.5512  0.5041  3.0729
   74MOL0     H 9726   5.011   7.889   4.445  2.5290 -0.1274  0.9064
   74MOL0     H 9727   5.001   7.746   4.352 -1.2543  0.0311 -2.2035
   74MOL0     H 9728   5.243   7.916   4.412 -0.6046  0.6507 -0.9277
   74MOL0     H 9729   5.240   7.813   4.273 -2.2615  3.4606 -1.8659
   74MOL0     H 9730   5.432   7.882   4.428 -2.8406  0.4359 -0.1254
   74MOL0     H 9731   5.633   7.872   4.584 -1.3665  1.7200  1.8560
   74MOL0     H 9732   5.974   7.854   4.647 -2.3677 -2.5249 -0.6252
   74MOL0     H 9733   6.226   7.854   4.755  0.0115  0.4008 -0.4908
   74MOL0     H 9734   6.447   7.697   5.027 -1.2590 -2.7942  0.1137
   74MOL0     H 9735   6.442   7.807   4.896 -2.4598  0.3922 -1.9067
   74MOL0     H 9736   6.260   7.610   4.808 -0.2279  1.5291 -0.4196
   74MOL0     H 9737   6.333   7.522   4.945  3.3233 -1.0466  1.3017
   74MOL0     H 9738   6.435   7.439   4.759  1.2546 -0.5510  1.5365
   74MOL0     H 9739   6.563   7.539   4.834  1.1576  0.4579 -0.1422
   74MOL0     H 9740   6.366   7.629   4.622  0.3370 -1.7141  0.7871
   74MOL0     H 9741   6.519   7.717   4.660 -1.2726  0.6196  0.4315
   74MOL0     H 9742   6.524   7.613   4.439  0.2135  0.1705  0.5593
   74MOL0     H 9743   6.480   7.451   4.511  0.9442 -0.1025 -1.0693
   74MOL0     H 9744   6.702   7.446   4.631 -0.1303 -1.4632 -1.3538
   74MOL0     H 9745   6.740   7.602   4.556 -0.2730  0.0930  2.3489
   74MOL0     H 9746   6.769   7.501   4.347  2.3682  0.0681  0.8556
   74MOL0     H 9747   6.853   7.395   4.457 -0.9988  0.2609  0.9995
   74MOL0     H 9748   6.588   7.350   4.314  0.0913  0.8733 -0.1368
   74MOL0     H 9749   6.613   7.255   4.462  1.8105 -2.4444 -1.3322
   74MOL0     H 9750   6.053   7.761   5.128 -1.3230  1.2210  0.1182
   74MOL0     H 9751   5.817   7.788   5.018 -0.8024  1.5330  0.3724
   74MOL0     H 9752   5.460   7.553   4.805 -1.4944  0.0006  0.1039
   74MOL0     H 9753   5.267   7.560   4.644  0.9926  1.1160 -1.9617
   74MOL0     H 9754   4.557   7.348   3.136  3.0891 -2.2252 -1.1140
   74MOL0     H 9755   4.692   7.183   3.268  0.3990 -0.7866  3.7818
   74MOL0     H 9756   5.144   7.019   3.392 -0.6354 -0.6415 -0.5205
   74MOL0     H 9757   5.268   6.871   3.550 -1.4869 -2.4037 -2.9409
   74MOL0     H 9758   5.163   6.939   3.979 -1.1578 -0.9826 -0.8139
   74MOL0     H 9759   5.261   7.037   3.874 -1.5053 -0.4753 -2.2618
   74MOL0     H 9760   5.388   6.940   4.063 -0.2175  1.0940 -1.5885
   74MOL0     H 9761   5.388   6.790   3.976  1.5396 -0.6266  0.1602
   74MOL0     H 9762   5.484   6.895   3.769 -2.9797  1.4959 -0.4093
   74MOL0     H 9763   5.586   6.872   3.917 -0.0536 -0.3063 -2.4455
   74MOL0     H 9764   5.625   7.102   3.806 -0.6738  0.4036  0.6373
   74MOL0     H 9765   5.460   7.135   3.850 -1.4773 -2.7826 -2.6565
   74MOL0     H 9766   5.653   7.101   4.234  0.4649  4.5104  0.7993
   74MOL0     H 9767   4.961   6.928   3.837  2.8298 -0.8516  1.4289
   74MOL0     H 9768   4.833   7.078   3.689 -1.3734 -1.0055 -2.0616
   75MOL0     O 9769   9.701   8.282   8.187  0.4240  0.1787 -0.6714
   75MOL0     C 9770   9.717   8.199   8.092 -0.7233 -0.1313  0.1986
   75MOL0     O 9771   9.631   8.151   8.004  0.0826  1.1169 -0.2768
   75MOL0     C 9772   9.496   8.186   8.016 -0.2283  0.1688  0.5454
   75MOL0     C 9773   9.435   8.295   8.077 -0.0784 -0.0793 -0.2256
   75MOL0     C 9774   9.292   8.324   8.068  0.7037 -0.1078 -0.4432
   75MOL0     C 9775   9.216   8.234   8.005  0.3001  0.2359  0.1354
   75MOL0     O 9776   9.080   8.259   8.008  0.3681 -0.1313  0.2481
   75MOL0     C 9777   9.005   8.228   7.891  0.0275 -0.1240  0.0242
   75MOL0     C 9778   8.906   8.333   7.868  0.1471 -0.1832  0.2702
   75MOL0     C 9779   8.841   8.309   7.723  0.5092  0.5164 -0.6419
   75MOL0     C 9780   8.745   8.424   7.691  0.0613  0.7421 -1.1348
   75MOL0     C 9781   8.669   8.399   7.560 -0.6421 -0.4801 -0.6657
   75MOL0     C 9782   8.548   8.485   7.565  0.4841 -0.4747 -0.5734
   75MOL0     C 9783   8.450   8.455   7.457 -0.0252 -0.3895  0.3776
   75MOL0     C 9784   8.315   8.523   7.480 -0.6887 -0.3487 -0.0189
   75MOL0     N 9785   8.211   8.453   7.406 -0.7699 -0.2815 -0.2923
   75MOL0     C 9786   8.210   8.424   7.270 -0.7455  0.1988 -0.8237
   75MOL0     C 9787   8.102   8.355   7.246  0.2265  0.3739 -0.5719
   75MOL0     C 9788   8.066   8.287   7.114 -0.5375  0.8231  0.2413
   75MOL0     C 9789   7.933   8.329   7.055  0.4419  0.1435  1.4843
   75MOL0     C 9790   7.886   8.249   6.934  0.1831  0.0425 -0.1017
   75MOL0     C 9791   7.766   8.298   6.867 -0.3848  0.2875 -0.5703
   75MOL0     O 9792   7.726   8.249   6.737 -0.3985 -0.0500 -0.8342
   75MOL0     C 9793   7.643   8.321   6.664  1.6472  0.8130 -0.2358
   75MOL0     C 9794   7.650   8.318   6.523  1.1980 -0.3059 -0.2042
   75MOL0     C 9795   7.568   8.396   6.441 -0.1459  0.1082 -0.4059
   75MOL0     C 9796   7.475   8.486   6.500  0.6089  0.0014 -0.3044
   75MOL0     C 9797   7.390   8.572   6.407 -0.7772  0.3809 -0.8515
   75MOL0     O 9798   7.381   8.546   6.270 -0.4083  0.3076 -0.8195
   75MOL0     C 9799   7.290   8.608   6.197 -0.2134  0.3436 -0.3968
   75MOL0     C 9800   7.309   8.719   6.116  0.0827 -0.5440 -0.0476
   75MOL0     C 9801   7.194   8.766   6.050 -0.7387 -0.6029 -0.4739
   75MOL0     C 9802   7.067   8.715   6.064  0.1730 -0.3843  0.0815
   75MOL0     O 9803   6.955   8.762   6.000 -0.3223  0.5862  0.2107
   75MOL0     C 9804   6.932   8.907   5.967  0.5470 -0.2805  0.0779
   75MOL0     C 9805   6.961   8.918   5.818  0.5430 -0.4030  0.6941
   75MOL0     C 9806   6.966   9.071   5.786 -0.1562  0.5112 -0.6541
   75MOL0     C 9807   6.832   9.141   5.822  0.8590  0.0278 -0.0487
   75MOL0     C 9808   6.806   9.272   5.740  0.4033 -0.2075  0.0444
   75MOL0     C 9809   6.667   9.321   5.781  0.2632  0.3373 -0.1018
   75MOL0     C 9810   6.610   9.430   5.691 -1.3861  0.4396  0.1842
   75MOL0     C 9811   6.493   9.499   5.751 -0.6783 -0.9026 -0.4819
   75MOL0    Cl 9812   6.388   9.549   5.618  0.1208  0.1590  0.1872
   75MOL0     C 9813   7.047   8.606   6.151  0.0389 -0.7121  0.1925
   75MOL0     C 9814   7.159   8.547   6.211 -0.6538 -0.2020 -0.0947
   75MOL0     O 9815   7.329   8.664   6.461  0.0350  0.3716  0.1206
   75MOL0     C 9816   7.473   8.489   6.643 -0.2263  0.0611  0.0268
   75MOL0     C 9817   7.550   8.415   6.723  0.1011  0.6022  0.5193
   75MOL0     N 9818   8.036   8.329   7.364 -0.2669 -0.4390 -0.1631
   75MOL0     N 9819   8.094   8.406   7.458  0.7653 -0.0782 -0.2282
   75MOL0     C 9820   9.269   8.124   7.946 -0.5765 -0.4060  0.5868
   75MOL0     C 9821   9.411   8.098   7.949  0.3007  0.9354 -0.1221
   75MOL0     C 9822   9.859   8.149   8.076  1.2108 -0.7574  0.3871
   75MOL0     C 9823   9.970   8.224   8.117  0.3887 -0.1782 -0.0894
   75MOL0     C 9824  10.099   8.190   8.076 -0.1018 -0.1681 -0.1705
   75MOL0     C 9825  10.121   8.069   8.020  0.1374  0.0989 -0.4806
   75MOL0     O 9826  10.256   8.036   7.992 -0.4409 -0.4038 -1.1638
   75MOL0     C 9827  10.321   7.951   8.087  0.3802  0.9080 -0.8655
   75MOL0     C 9828  10.473   7.983   8.073 -0.8139 -0.8510 -0.1129
   75MOL0     C 9829  10.503   8.136   8.113 -0.2423 -0.0863 -0.1016
   75MOL0     C 9830  10.640   8.184   8.078  0.5775 -0.2134 -0.6841
   75MOL0     C 9831  10.748   8.133   8.151  0.0480  0.7879  0.0048
   75MOL0     C 9832  10.845   8.097   8.214  1.5613  0.3461  0.3129
   75MOL0     C 9833  10.010   7.984   7.976 -0.1449 -0.2698 -1.1582
   75MOL0     C 9834   9.883   8.032   8.002 -0.2453 -0.0907  0.0774
   75MOL0     H 9835   9.497   8.366   8.131 -0.6490 -0.0858  0.4717
   75MOL0     H 9836   9.265   8.418   8.115 -0.1275 -1.5560  2.1646
   75MOL0     H 9837   8.954   8.131   7.893 -0.0922 -0.0511  0.7720
   75MOL0     H 9838   9.075   8.227   7.807  0.9444 -0.8638  0.7787
   75MOL0     H 9839   8.950   8.432   7.879  2.8573 -1.3095  0.5020
   75MOL0     H 9840   8.831   8.324   7.947 -1.6771  0.8419 -1.2493
   75MOL0     H 9841   8.786   8.214   7.721 -2.4665  2.0793  0.8802
   75MOL0     H 9842   8.926   8.313   7.654  1.7155  2.7942  0.8509
   75MOL0     H 9843   8.674   8.412   7.774 -0.2964  0.8868 -1.4221
   75MOL0     H 9844   8.794   8.521   7.704  0.5175  0.2274  2.0321
   75MOL0     H 9845   8.635   8.295   7.552 -1.2232 -0.3163 -0.3649
   75MOL0     H 9846   8.742   8.416   7.480  0.0429 -0.6802 -0.0918
   75MOL0     H 9847   8.580   8.589   7.557 -3.1197  0.7881 -0.3479
   75MOL0     H 9848   8.496   8.474   7.660 -0.1759 -1.5242 -1.0312
   75MOL0     H 9849   8.486   8.486   7.358  1.5251 -3.2020 -0.0590
   75MOL0     H 9850   8.435   8.347   7.446  3.8596 -0.8720 -1.9660
   75MOL0     H 9851   8.333   8.624   7.441  3.1062 -1.6686 -2.2342
   75MOL0     H 9852   8.290   8.524   7.587  1.9752 -3.0667  0.7319
   75MOL0     H 9853   8.288   8.424   7.194 -1.7334 -0.2597 -1.8788
   75MOL0     H 9854   8.049   8.182   7.139 -1.1471  0.5697 -1.1198
   75MOL0     H 9855   8.149   8.291   7.042 -0.4753  1.8096  0.3540
   75MOL0     H 9856   7.934   8.434   7.023 -0.3215 -0.7815 -2.0134
   75MOL0     H 9857   7.853   8.317   7.129  2.5163 -0.3206  3.7527
   75MOL0     H 9858   7.972   8.252   6.866  0.3161  0.0286  0.0652
   75MOL0     H 9859   7.878   8.154   6.988 -0.8012  1.1841  1.8386
   75MOL0     H 9860   7.779   8.407   6.864 -2.3622  0.5979  0.2434
   75MOL0     H 9861   7.678   8.285   6.932  0.5653  1.2948  0.9858
   75MOL0     H 9862   7.736   8.258   6.493  2.1398 -0.3403  2.3241
   75MOL0     H 9863   7.577   8.392   6.333  0.4281  0.1952 -0.3644
   75MOL0     H 9864   7.407   8.764   6.105 -2.0861  4.4546 -2.0288
   75MOL0     H 9865   7.188   8.855   5.988  3.1589  0.8330  0.8887
   75MOL0     H 9866   7.004   8.967   6.024 -2.4102  0.4348  3.3752
   75MOL0     H 9867   6.832   8.938   5.998  0.9752  0.9718  0.2579
   75MOL0     H 9868   6.892   8.860   5.757  1.1781 -0.3792 -0.0593
   75MOL0     H 9869   7.063   8.881   5.805  2.6755  4.4207  1.4334
   75MOL0     H 9870   6.963   9.084   5.678 -0.1938 -0.6916 -0.8133
   75MOL0     H 9871   7.055   9.114   5.832  0.3330 -1.0654 -0.0911
   75MOL0     H 9872   6.750   9.074   5.794 -0.3032  1.2615  0.2658
   75MOL0     H 9873   6.832   9.165   5.929  0.0662  1.4271 -0.3266
   75MOL0     H 9874   6.805   9.249   5.633  1.6548 -2.9403  0.5486
   75MOL0     H 9875   6.881   9.345   5.771 -0.6475 -0.0127  2.3422
   75MOL0     H 9876   6.678   9.359   5.883 -1.7650  2.6799 -0.6489
   75MOL0     H 9877   6.594   9.240   5.792 -0.0598  0.2857 -2.2123
   75MOL0     H 9878   6.698   9.492   5.670  1.0381 -2.4947  0.8944
   75MOL0     H 9879   6.583   9.382   5.597  1.2349 -0.5518 -0.1472
   75MOL0     H 9880   6.521   9.583   5.814 -2.0225 -1.6353  1.1517
   75MOL0     H 9881   6.440   9.434   5.821  0.5140  0.7169  2.0433
   75MOL0     H 9882   6.948   8.562   6.152 -1.5108  2.2683 -2.3594
   75MOL0     H 9883   7.154   8.459   6.275  0.3589 -0.5008 -0.3953
   75MOL0     H 9884   7.410   8.566   6.687  0.7786  1.4964 -0.9132
   75MOL0     H 9885   7.545   8.431   6.831  1.4539  2.7684  0.3314
   75MOL0     H 9886   9.203   8.052   7.898  1.7039 -1.8291 -0.5842
   75MOL0     H 9887   9.446   8.012   7.893 -3.2196  0.0205 -1.1784
   75MOL0     H 9888   9.953   8.313   8.178 -1.4813  0.4914 -1.4789
   75MOL0     H 9889  10.180   8.254   8.112 -1.7399  2.1522 -0.3503
   75MOL0     H 9890  10.296   7.845   8.080 -2.5400  1.4866 -0.3823
   75MOL0     H 9891  10.281   7.973   8.186  1.6204 -0.3180 -0.0571
   75MOL0     H 9892  10.529   7.917   8.139  1.2601 -1.3364 -2.2435
   75MOL0     H 9893  10.517   7.964   7.975  0.1765  1.2464 -0.1162
   75MOL0     H 9894  10.485   8.142   8.221 -2.0604  0.4776 -0.4064
   75MOL0     H 9895  10.429   8.193   8.056 -0.5720 -1.3321 -0.9761
   75MOL0     H 9896  10.663   8.170   7.972 -0.2740 -3.2199 -0.5368
   75MOL0     H 9897  10.636   8.290   8.108  0.0937 -1.1253  3.0070
   75MOL0     H 9898  10.939   8.089   8.265  0.1138 -0.5734  3.0453
   75MOL0     H 9899  10.015   7.887   7.926  0.4763  0.0667 -1.7709
   75MOL0     H 9900   9.804   7.966   7.966 -0.6747 -0.6268  1.8792
   76MOL0     O 9901   7.246   6.728   5.531 -0.7869  0.7274  0.1533
   76MOL0     C 9902   7.192   6.658   5.449  0.3279  0.0538  1.1096
   76MOL0     O 9903   7.232   6.632   5.325  0.1674  0.0855  0.6510
   76MOL0     C 9904   7.350   6.678   5.262  0.1089  0.7217  0.0178
   76MOL0     C 9905   7.463   6.737   5.315  0.8033 -0.6228 -1.0428
   76MOL0     C 9906   7.573   6.769   5.232  0.8522 -0.4560 -0.1933
   76MOL0     C 9907   7.571   6.730   5.097 -0.0939 -0.2682  0.3875
   76MOL0     O 9908   7.678   6.767   5.027  0.0590  0.5409 -0.4492
   76MOL0     C 9909   7.714   6.673   4.929 -0.3811 -0.5468 -0.5152
   76MOL0     C 9910   7.841   6.739   4.874 -0.3042  0.3757  0.6646
   76MOL0     C 9911   7.935   6.635   4.806 -0.4178 -0.1494 -0.3454
   76MOL0     C 9912   8.016   6.701   4.693  0.6170 -0.1597 -0.0048
   76MOL0     C 9913   8.109   6.813   4.739  0.8546  0.4052 -0.1861
   76MOL0     C 9914   8.195   6.866   4.613  0.0943  0.2994 -0.1795
   76MOL0     C 9915   8.268   6.999   4.636 -0.1413 -0.0739  0.1631
   76MOL0     C 9916   8.354   7.041   4.525  0.2377 -0.8199  0.4715
   76MOL0     N 9917   8.421   7.170   4.560 -0.0769 -0.2226  0.5337
   76MOL0     C 9918   8.365   7.296   4.544 -0.6703 -0.4091  0.3946
   76MOL0     C 9919   8.450   7.385   4.596  0.5175 -0.0828  0.3218
   76MOL0     C 9920   8.438   7.546   4.605 -0.7055 -0.0056 -0.1973
   76MOL0     C 9921   8.401   7.604   4.477  0.1143  0.2356  0.7660
   76MOL0     C 9922   8.385   7.760   4.481 -0.1428  1.2449  0.3120
   76MOL0     C 9923   8.244   7.801   4.501 -0.6977  0.2477 -0.6712
   76MOL0     O 9924   8.231   7.941   4.496 -0.3623  0.2671  0.2971
   76MOL0     C 9925   8.180   8.004   4.387 -0.2755 -0.3410  0.1102
   76MOL0     C 9926   8.057   8.076   4.411  0.4863 -0.5861 -0.8638
   76MOL0     C 9927   7.982   8.138   4.312 -0.4895 -0.0594  0.3898
   76MOL0     C 9928   8.027   8.132   4.180 -0.6066  0.3362  0.7278
   76MOL0     C 9929   7.937   8.177   4.069 -0.1590  0.1337  0.2623
   76MOL0     O 9930   7.994   8.266   3.976  0.2778  0.7797  0.4497
   76MOL0     C 9931   7.900   8.341   3.908  0.7441  0.0767  0.3072
   76MOL0     C 9932   7.926   8.352   3.770  0.2964  0.3740  0.5618
   76MOL0     C 9933   7.830   8.403   3.686 -0.5088 -0.7565  0.4484
   76MOL0     C 9934   7.708   8.459   3.734 -0.4078 -0.1192 -0.1088
   76MOL0     O 9935   7.620   8.522   3.650 -0.1293 -0.3737 -0.3695
   76MOL0     C 9936   7.480   8.506   3.670 -0.0568  0.5094 -0.2789
   76MOL0     C 9937   7.402   8.564   3.558  0.1805  0.7329 -0.0528
   76MOL0     C 9938   7.431   8.506   3.415  0.3659 -0.7879 -0.0442
   76MOL0     C 9939   7.343   8.592   3.329 -0.4010  0.1856 -0.5428
   76MOL0     C 9940   7.349   8.547   3.186  0.2512  0.5030 -0.1281
   76MOL0     C 9941   7.269   8.635   3.094  1.0412  0.5409 -0.4563
   76MOL0     C 9942   7.118   8.621   3.129 -0.5999 -0.8317  0.6026
   76MOL0     C 9943   7.021   8.677   3.027  0.2392  0.6592 -0.0644
   76MOL0    Cl 9944   6.869   8.582   3.040 -0.5097 -0.3022 -0.1629
   76MOL0     C 9945   7.689   8.464   3.874  0.7113  0.2083  0.5490
   76MOL0     C 9946   7.787   8.401   3.958  0.5612 -0.1291 -0.1850
   76MOL0     O 9947   7.824   8.134   4.068 -0.5155  0.2367 -0.2112
   76MOL0     C 9948   8.150   8.068   4.153  0.1534 -1.7101 -0.6543
   76MOL0     C 9949   8.222   8.014   4.258  0.7025  0.1668 -0.7973
   76MOL0     N 9950   8.564   7.308   4.637 -0.3323  0.3881  0.1727
   76MOL0     N 9951   8.546   7.184   4.624 -0.3039  0.0854  0.5613
   76MOL0     C 9952   7.458   6.665   5.057  1.0025  0.2316 -0.8355
   76MOL0     C 9953   7.353   6.635   5.135 -0.2102  1.0551  0.0315
   76MOL0     C 9954   7.069   6.593   5.483  1.1514 -0.5048  0.2124
   76MOL0     C 9955   7.034   6.577   5.618 -0.6163 -0.3124  0.6596
   76MOL0     C 9956   6.922   6.512   5.662 -0.5740 -0.2399  0.5748
   76MOL0     C 9957   6.818   6.477   5.567  0.1656  0.0487 -0.7036
   76MOL0     O 9958   6.694   6.432   5.596 -0.8169 -0.2020  0.5258
   76MOL0     C 9959   6.649   6.396   5.726 -0.8008 -0.3371  0.1503
   76MOL0     C 9960   6.497   6.402   5.731 -0.5724 -0.1944 -0.8573
   76MOL0     C 9961   6.455   6.402   5.877  0.0277  0.2092 -0.4156
   76MOL0     C 9962   6.308   6.429   5.912 -0.2520  0.2720  0.1443
   76MOL0     C 9963   6.301   6.412   6.062  0.0906 -0.6164  0.3331
   76MOL0     C 9964   6.300   6.390   6.186  0.6168  0.9425 -0.1150
   76MOL0     C 9965   6.852   6.484   5.430  0.2470  1.1332 -0.1296
   76MOL0     C 9966   6.976   6.547   5.382  0.6535  1.4942 -1.1266
   76MOL0     H 9967   7.466   6.751   5.423 -0.8062 -2.2116 -0.7435
   76MOL0     H 9968   7.663   6.815   5.271  2.1463 -1.4038 -1.9257
   76MOL0     H 9969   7.643   6.665   4.847 -0.0406  0.3730 -0.9123
   76MOL0     H 9970   7.728   6.574   4.975  1.0148 -0.2156 -0.1847
   76MOL0     H 9971   7.892   6.773   4.964 -0.1492  1.5463  0.1502
   76MOL0     H 9972   7.818   6.824   4.809  1.6376 -0.5926 -1.4504
   76MOL0     H 9973   7.881   6.543   4.779 -0.6983 -0.9218  2.5726
   76MOL0     H 9974   8.000   6.596   4.885  1.3038 -2.4388 -2.7052
   76MOL0     H 9975   8.072   6.629   4.632  1.1210 -1.7637  2.2390
   76MOL0     H 9976   7.936   6.733   4.626  0.4308 -0.7344 -0.0650
   76MOL0     H 9977   8.183   6.779   4.813  0.3700  1.2689  0.7171
   76MOL0     H 9978   8.052   6.894   4.785  0.9447 -0.2264  1.0899
   76MOL0     H 9979   8.119   6.887   4.538 -1.6301 -3.3129  0.3353
   76MOL0     H 9980   8.262   6.786   4.579 -0.8720  0.4210 -2.5714
   76MOL0     H 9981   8.190   7.076   4.641 -1.2216 -1.1810  3.8054
   76MOL0     H 9982   8.316   6.991   4.734 -0.8359 -0.1725  0.5079
   76MOL0     H 9983   8.296   7.058   4.434  1.1070 -1.0979 -0.1497
   76MOL0     H 9984   8.434   6.968   4.510  1.6817  0.8326 -0.3262
   76MOL0     H 9985   8.265   7.312   4.506  0.3373 -0.7223 -2.6083
   76MOL0     H 9986   8.534   7.589   4.635 -0.8703  0.2689 -0.0574
   76MOL0     H 9987   8.364   7.577   4.679  1.9199  1.2646  2.0759
   76MOL0     H 9988   8.313   7.555   4.435  0.2653  0.7599 -0.1768
   76MOL0     H 9989   8.483   7.576   4.411  0.7860 -0.5587  1.9011
   76MOL0     H 9990   8.455   7.806   4.552 -0.4274  2.2847 -0.0613
   76MOL0     H 9991   8.408   7.794   4.379 -0.7274  1.0283  0.1093
   76MOL0     H 9992   8.200   7.756   4.590  1.3007 -1.8468 -0.6448
   76MOL0     H 9993   8.183   7.767   4.416 -0.7007  0.6433 -0.8312
   76MOL0     H 9994   8.010   8.071   4.509 -1.7674  1.0395 -1.7677
   76MOL0     H 9995   7.880   8.175   4.323 -0.9128 -1.5118  1.7415
   76MOL0     H 9996   8.010   8.303   3.723  0.0319  2.0439 -1.8053
   76MOL0     H 9997   7.853   8.411   3.580 -0.2923  0.1530  0.5582
   76MOL0     H 9998   7.450   8.555   3.763 -2.7129 -1.3851 -0.0275
   76MOL0     H 9999   7.462   8.398   3.675 -2.9671  0.9028 -0.9882
   76MOL0     H10000   7.412   8.673   3.564  1.8597  0.5322  1.5868
   76MOL0     H10001   7.297   8.548   3.584  1.0301 -0.6962  2.9178
   76MOL0     H10002   7.397   8.402   3.417  0.4019 -0.7993  1.3587
   76MOL0     H10003   7.536   8.520   3.387 -0.2759  3.9803 -0.8744
   76MOL0     H10004   7.242   8.579   3.368 -0.4639  0.3970 -0.6372
   76MOL0     H10005   7.371   8.698   3.330 -2.2245  0.7688  2.6161
   76MOL0     H10006   7.299   8.450   3.179 -3.0427  2.1875 -2.3751
   76MOL0     H10007   7.453   8.532   3.156 -0.8417 -4.9491 -2.3327
   76MOL0     H10008   7.284   8.602   2.990 -1.6847 -2.8900  0.0266
   76MOL0     H10009   7.291   8.742   3.096 -2.6714  1.4870 -1.7599
   76MOL0     H10010   7.099   8.514   3.138 -2.7516 -0.3305  3.5753
   76MOL0     H10011   7.099   8.681   3.219  0.9904  1.0372 -0.2332
   76MOL0     H10012   7.062   8.659   2.928  1.0919  0.3958  0.3273
   76MOL0     H10013   7.009   8.785   3.042 -3.0186  0.7960 -2.5242
   76MOL0     H10014   7.595   8.507   3.908  0.3980  0.7354 -0.8813
   76MOL0     H10015   7.762   8.389   4.063 -1.2746 -1.2296 -0.7012
   76MOL0     H10016   8.180   8.058   4.049  0.5063  0.5875 -0.8354
   76MOL0     H10017   8.311   7.952   4.247  2.0646  1.5552  1.6357
   76MOL0     H10018   7.433   6.635   4.955 -0.6126 -2.2466  0.2027
   76MOL0     H10019   7.267   6.583   5.093  0.8224  0.1341 -1.0516
   76MOL0     H10020   7.103   6.615   5.693 -1.1039  1.0984  0.4409
   76MOL0     H10021   6.910   6.506   5.770  5.9106  3.4019  1.9819
   76MOL0     H10022   6.696   6.468   5.793  0.2356 -1.3270  0.5117
   76MOL0     H10023   6.694   6.302   5.759  0.4726 -0.0755 -0.7858
   76MOL0     H10024   6.457   6.490   5.680 -1.6951 -0.5465 -0.6321
   76MOL0     H10025   6.459   6.312   5.680  0.7886 -1.9472  1.0527
   76MOL0     H10026   6.501   6.490   5.922 -0.7842  1.1707 -1.3895
   76MOL0     H10027   6.488   6.309   5.923  1.5908  0.7886 -0.3255
   76MOL0     H10028   6.275   6.531   5.892 -0.1754  0.0495 -1.2601
   76MOL0     H10029   6.239   6.351   5.876 -0.0610  0.5010 -0.7511
   76MOL0     H10030   6.309   6.379   6.292 -1.5412  2.4033  0.2921
   76MOL0     H10031   6.784   6.442   5.357 -0.2542  0.8102  0.5148
   76MOL0     H10032   6.997   6.544   5.275 -2.1890 -2.1668 -1.7961
   77MOL0     O10033   2.149   5.633   5.166 -0.7620 -1.0214  0.6624
   77MOL0     C10034   2.061   5.645   5.249 -0.0369 -1.2004  0.8627
   77MOL0     O10035   2.058   5.610   5.385  0.0127 -0.4266 -0.1024
   77MOL0     C10036   2.125   5.490   5.411 -0.3204  0.3605  0.4107
   77MOL0     C10037   2.141   5.459   5.550  0.2062  0.2996 -0.1863
   77MOL0     C10038   2.203   5.339   5.593  0.8207 -0.0407 -0.5057
   77MOL0     C10039   2.249   5.240   5.497 -0.7992  0.1584  0.5184
   77MOL0     O10040   2.298   5.119   5.527  0.0723 -0.3672 -0.3052
   77MOL0     C10041   2.424   5.135   5.595  0.6654  0.7264  0.6988
   77MOL0     C10042   2.408   5.020   5.701 -0.4570  0.1807 -0.3763
   77MOL0     C10043   2.288   5.043   5.791 -0.5184  0.7025 -0.0522
   77MOL0     C10044   2.289   4.949   5.910 -0.4961  0.3172 -0.5249
   77MOL0     C10045   2.142   4.939   5.967  0.3994 -0.0087  0.5972
   77MOL0     C10046   2.081   5.071   6.019 -0.9474  0.0037 -0.6582
   77MOL0     C10047   2.173   5.127   6.131  0.1373 -0.5015 -0.2313
   77MOL0     C10048   2.120   5.254   6.191 -0.7405 -0.8556 -0.3122
   77MOL0     N10049   2.121   5.355   6.082 -0.4698 -0.5894 -0.0850
   77MOL0     C10050   2.008   5.421   6.041 -0.8460 -0.2560 -0.9999
   77MOL0     C10051   2.038   5.505   5.939  1.3917 -0.2930  0.0713
   77MOL0     C10052   1.959   5.584   5.846  0.2910 -0.4258 -0.1497
   77MOL0     C10053   1.840   5.499   5.789 -0.5254  1.8012 -0.0418
   77MOL0     C10054   1.749   5.554   5.679 -0.4869 -0.2237  0.3049
   77MOL0     C10055   1.650   5.661   5.744 -0.8378 -0.2906 -0.4048
   77MOL0     O10056   1.576   5.716   5.629  0.6756 -0.1035  0.3484
   77MOL0     C10057   1.443   5.755   5.648  0.2117 -0.7873 -0.0753
   77MOL0     C10058   1.376   5.806   5.530 -0.3410  0.0923  0.0628
   77MOL0     C10059   1.250   5.854   5.536  0.5527 -0.0523 -0.6460
   77MOL0     C10060   1.183   5.859   5.661 -0.7427 -0.2915  0.4023
   77MOL0     C10061   1.046   5.909   5.673 -0.4471 -0.8007  0.2103
   77MOL0     O10062   1.011   6.006   5.582  0.8092  0.7446 -0.3999
   77MOL0     C10063   0.879   6.045   5.578  1.1020 -0.0231  0.1724
   77MOL0     C10064   0.793   6.037   5.458 -0.6907  0.1094 -0.2215
   77MOL0     C10065   0.657   6.084   5.459 -0.8454  0.4488 -0.9048
   77MOL0     C10066   0.604   6.141   5.580 -0.9198 -0.0092 -0.7407
   77MOL0     O10067   0.479   6.187   5.596 -0.0345  0.2120  0.3531
   77MOL0     C10068   0.366   6.101   5.604 -0.3583  0.2616 -0.6691
   77MOL0     C10069   0.240   6.186   5.638 -1.1690 -0.1148  0.6854
   77MOL0     C10070   0.132   6.098   5.690 -0.3440 -0.5790  0.5133
   77MOL0     C10071   0.022   6.169   5.759 -0.1033 -0.2346 -1.0261
   77MOL0     C10072  -0.092   6.074   5.791  0.1540 -0.1933 -0.3680
   77MOL0     C10073  -0.183   6.131   5.897  0.6642 -0.2461 -0.3990
   77MOL0     C10074  -0.303   6.035   5.927 -0.8933 -0.6468  0.0851
   77MOL0     C10075  -0.394   6.024   5.810  0.0977 -0.7674  0.3377
   77MOL0    Cl10076  -0.555   5.976   5.868  0.0269 -0.5190  0.1745
   77MOL0     C10077   0.685   6.139   5.698 -0.6532  0.5329  0.1222
   77MOL0     C10078   0.813   6.090   5.702 -0.0890  0.7004 -0.5919
   77MOL0     O10079   0.980   5.874   5.768  0.9679 -0.0169 -0.4603
   77MOL0     C10080   1.251   5.819   5.780  0.3378 -0.5014 -0.3801
   77MOL0     C10081   1.370   5.753   5.769 -0.1410  0.5595 -0.2032
   77MOL0     N10082   2.176   5.502   5.931 -0.3545  0.1907  0.0387
   77MOL0     N10083   2.225   5.412   6.011  0.2181  0.0347 -0.7978
   77MOL0     C10084   2.246   5.280   5.357 -0.2448  0.6666  0.1278
   77MOL0     C10085   2.176   5.387   5.316 -0.1121 -0.9416 -0.7076
   77MOL0     C10086   1.945   5.721   5.202 -0.1848 -0.0201  0.4539
   77MOL0     C10087   1.927   5.766   5.067  0.5279  0.2273 -0.1532
   77MOL0     C10088   1.815   5.830   5.031  0.4431 -0.3493  0.1271
   77MOL0     C10089   1.703   5.836   5.123  0.1724  0.9735 -0.1771
   77MOL0     O10090   1.581   5.879   5.074 -0.3181 -0.0265  0.1306
   77MOL0     C10091   1.480   5.907   5.167 -0.3158 -0.2709  0.3735
   77MOL0     C10092   1.383   6.004   5.099  0.1292 -0.0665 -0.0021
   77MOL0     C10093   1.278   6.064   5.192 -0.8639  0.0680  0.4440
   77MOL0     C10094   1.178   6.165   5.124 -0.1765  0.6938  0.3080
   77MOL0     C10095   1.083   6.210   5.222 -0.4812  0.0778 -0.3506
   77MOL0     C10096   1.006   6.248   5.308 -1.4399  0.5841 -0.1646
   77MOL0     C10097   1.726   5.791   5.253  0.7586 -0.5001 -0.1454
   77MOL0     C10098   1.849   5.745   5.290  0.9430 -0.5136 -0.6562
   77MOL0     H10099   2.126   5.545   5.615 -3.0426  2.1675 -3.0680
   77MOL0     H10100   2.223   5.310   5.695 -1.0073  2.3323  0.6247
   77MOL0     H10101   2.430   5.229   5.651  0.0156  0.7697  0.7037
   77MOL0     H10102   2.509   5.119   5.528  0.4046  0.9030  0.3250
   77MOL0     H10103   2.504   5.009   5.752 -0.4359  0.0337 -0.4472
   77MOL0     H10104   2.390   4.924   5.651  1.0071  0.0255 -0.6459
   77MOL0     H10105   2.195   5.035   5.734 -2.1526 -0.9984  2.6187
   77MOL0     H10106   2.291   5.139   5.842  1.1792 -0.1894  1.6378
   77MOL0     H10107   2.325   4.847   5.892 -0.3039  0.0336  1.3116
   77MOL0     H10108   2.362   4.992   5.980  2.5684  1.1332 -3.9090
   77MOL0     H10109   2.140   4.865   6.048  3.3796 -2.7073 -1.5345
   77MOL0     H10110   2.076   4.911   5.886 -0.2989  2.7602  0.1137
   77MOL0     H10111   1.983   5.049   6.062 -0.5738  1.3036  0.9577
   77MOL0     H10112   2.063   5.144   5.939  1.3192  1.6977  0.2376
   77MOL0     H10113   2.169   5.058   6.215  1.4850 -0.3890 -0.0624
   77MOL0     H10114   2.278   5.144   6.108 -0.0777  1.1698 -0.1088
   77MOL0     H10115   2.183   5.282   6.276 -3.1058  1.5777  0.7555
   77MOL0     H10116   2.015   5.242   6.220 -2.0843  0.9742 -3.8520
   77MOL0     H10117   1.911   5.402   6.086  0.1650  0.0183  1.4154
   77MOL0     H10118   2.023   5.631   5.771  0.8673  1.4174  1.3877
   77MOL0     H10119   1.916   5.673   5.895 -2.4010 -1.0020 -1.2727
   77MOL0     H10120   1.772   5.471   5.870  1.4216  1.9123  1.6835
   77MOL0     H10121   1.882   5.403   5.756 -1.9382  1.1937 -0.1832
   77MOL0     H10122   1.811   5.605   5.605 -2.0185 -1.7248 -2.1616
   77MOL0     H10123   1.700   5.471   5.628 -0.8191 -0.5317  1.1020
   77MOL0     H10124   1.708   5.742   5.789 -0.1293 -0.5346 -0.8561
   77MOL0     H10125   1.589   5.609   5.818 -1.6338 -0.1951 -0.9832
   77MOL0     H10126   1.424   5.801   5.433  0.1581  2.4182  0.1322
   77MOL0     H10127   1.198   5.882   5.445 -2.4431  0.7530  1.1699
   77MOL0     H10128   0.841   5.996   5.369  0.1103  2.1707 -0.7972
   77MOL0     H10129   0.590   6.099   5.375 -0.6162 -0.0022 -1.1708
   77MOL0     H10130   0.389   6.023   5.677 -0.9337  1.0031  0.3408
   77MOL0     H10131   0.347   6.054   5.507 -2.4154 -0.3961  0.0179
   77MOL0     H10132   0.216   6.230   5.540  0.1610 -1.8401 -0.4678
   77MOL0     H10133   0.264   6.272   5.701  1.4165 -0.3503  0.1127
   77MOL0     H10134   0.181   6.032   5.762  3.5220  1.5796  0.1183
   77MOL0     H10135   0.096   6.030   5.612  0.1440  0.3810 -0.5918
   77MOL0     H10136   0.064   6.208   5.852 -1.5149 -4.9587  1.9685
   77MOL0     H10137  -0.001   6.253   5.692 -0.1351  0.2503 -0.4115
   77MOL0     H10138  -0.046   5.980   5.826 -0.6191 -0.5550 -0.3057
   77MOL0     H10139  -0.145   6.052   5.698  0.5736 -2.0401 -0.2160
   77MOL0     H10140  -0.222   6.227   5.864 -2.2925 -0.6026  1.6877
   77MOL0     H10141  -0.132   6.148   5.993 -0.8482  1.7342  0.1049
   77MOL0     H10142  -0.257   5.942   5.964  0.7728 -0.0787 -0.4835
   77MOL0     H10143  -0.362   6.074   6.011 -0.3578  0.7271 -0.1616
   77MOL0     H10144  -0.362   5.948   5.739 -2.5382 -0.5311 -1.2344
   77MOL0     H10145  -0.406   6.120   5.759  2.3834 -0.5288  0.1393
   77MOL0     H10146   0.640   6.188   5.784 -0.7328  3.5973 -1.5234
   77MOL0     H10147   0.868   6.109   5.793  2.7126  1.2548 -2.2751
   77MOL0     H10148   1.205   5.833   5.878 -3.4328 -1.1035 -1.8962
   77MOL0     H10149   1.413   5.710   5.859  0.2880 -0.1563 -0.7376
   77MOL0     H10150   2.291   5.209   5.288 -1.3959  0.6634 -0.6320
   77MOL0     H10151   2.166   5.390   5.208 -2.5561 -2.0758 -0.5736
   77MOL0     H10152   1.997   5.747   4.985  0.6202 -0.9457  0.1743
   77MOL0     H10153   1.810   5.869   4.930 -0.9424  2.5705  1.2007
   77MOL0     H10154   1.519   5.959   5.255 -0.9602 -1.5358  1.4433
   77MOL0     H10155   1.431   5.815   5.201 -0.0322 -0.2803  0.7674
   77MOL0     H10156   1.442   6.089   5.062  0.5680  0.7572  2.4282
   77MOL0     H10157   1.340   5.943   5.019  0.1974 -0.0200 -0.0737
   77MOL0     H10158   1.343   6.116   5.263 -0.2010  1.1817 -0.9370
   77MOL0     H10159   1.228   5.979   5.238 -2.2233 -0.5769 -2.0265
   77MOL0     H10160   1.234   6.253   5.091  0.5408 -0.1569 -0.8181
   77MOL0     H10161   1.131   6.116   5.038 -2.3120 -0.8621  2.2618
   77MOL0     H10162   0.935   6.284   5.379  0.0608  0.4372  1.4990
   77MOL0     H10163   1.645   5.787   5.326  0.8722  2.2996  0.2496
   77MOL0     H10164   1.856   5.709   5.392 -3.8060 -0.7271 -0.1706
   78MOL0     O10165   6.201   5.566   9.434  0.3993  0.5131 -0.6777
   78MOL0     C10166   6.301   5.499   9.415  0.9338  0.5299  0.1153
   78MOL0     O10167   6.347   5.457   9.290 -0.7690  0.7868 -0.1154
   78MOL0     C10168   6.278   5.509   9.182 -0.2647  0.5948 -1.0592
   78MOL0     C10169   6.291   5.643   9.154 -0.2967  0.0074 -0.2290
   78MOL0     C10170   6.240   5.691   9.028  0.8361  0.2132 -0.6946
   78MOL0     C10171   6.178   5.593   8.946 -0.4698 -0.1731  0.4637
   78MOL0     O10172   6.127   5.655   8.838  1.5228 -0.2635 -0.3442
   78MOL0     C10173   6.179   5.617   8.712  0.5235 -0.3210  0.1377
   78MOL0     C10174   6.074   5.574   8.610  0.3014 -0.0759 -0.8126
   78MOL0     C10175   5.950   5.658   8.623 -0.6215  0.1392 -0.9701
   78MOL0     C10176   5.843   5.611   8.536  0.6799 -0.2213  0.8745
   78MOL0     C10177   5.728   5.716   8.528  0.1844 -0.2469  0.2014
   78MOL0     C10178   5.608   5.671   8.451 -0.6299 -0.0076  0.9594
   78MOL0     C10179   5.499   5.785   8.431 -0.6200  0.4973  0.5407
   78MOL0     C10180   5.520   5.853   8.299  0.8610  0.1697 -0.4011
   78MOL0     N10181   5.451   5.972   8.260 -0.1929 -0.6486  0.3272
   78MOL0     C10182   5.315   5.995   8.269 -0.9655 -0.5362 -0.5553
   78MOL0     C10183   5.301   6.119   8.238  0.5053  0.6175  0.6858
   78MOL0     C10184   5.173   6.187   8.224  0.9775 -0.4316  0.1907
   78MOL0     C10185   5.116   6.252   8.348  0.7095 -0.1888  0.0371
   78MOL0     C10186   4.984   6.180   8.384  0.0013 -0.3068  0.4527
   78MOL0     C10187   4.871   6.211   8.287  0.1001  1.1520 -0.4202
   78MOL0     O10188   4.844   6.099   8.207 -0.7183  0.0734 -0.4843
   78MOL0     C10189   4.722   6.065   8.187  0.9339  0.2616 -0.2857
   78MOL0     C10190   4.696   5.930   8.172 -0.5326 -0.5485 -0.6324
   78MOL0     C10191   4.571   5.863   8.147  0.2875 -0.8676 -0.4616
   78MOL0     C10192   4.461   5.954   8.136 -0.3436 -0.4906  0.6885
   78MOL0     C10193   4.319   5.905   8.114 -0.5657 -0.5629  0.0581
   78MOL0     O10194   4.219   5.996   8.114 -0.7104  0.1625 -0.1037
   78MOL0     C10195   4.093   5.980   8.079  0.3164 -0.1068 -0.4460
   78MOL0     C10196   4.036   5.872   8.011 -0.4402 -0.0434 -0.6850
   78MOL0     C10197   3.905   5.881   7.975 -0.0198 -0.2533  0.0983
   78MOL0     C10198   3.824   5.989   8.006  0.2133 -0.2785  0.3585
   78MOL0     O10199   3.692   6.005   7.979  0.5634  0.0990  0.0124
   78MOL0     C10200   3.623   5.918   7.883  0.2273 -0.4740 -0.7046
   78MOL0     C10201   3.470   5.934   7.859  0.0122  0.8633  0.0042
   78MOL0     C10202   3.447   6.041   7.751  1.2356  0.2465 -0.7508
   78MOL0     C10203   3.301   6.079   7.754  0.5632  0.2258  0.0444
   78MOL0     C10204   3.226   5.996   7.651 -0.4062 -0.2002 -0.6468
   78MOL0     C10205   3.067   6.017   7.654 -0.4215 -0.0012 -0.7171
   78MOL0     C10206   3.028   6.163   7.645 -0.1455  0.1880  0.5013
   78MOL0     C10207   2.887   6.186   7.594 -0.2412  0.2995  0.4919
   78MOL0    Cl10208   2.840   6.361   7.602 -0.5731 -0.2946 -0.3994
   78MOL0     C10209   3.872   6.094   8.082  0.1046 -0.3131  0.2374
   78MOL0     C10210   4.000   6.088   8.120 -0.4350 -0.7680 -0.3868
   78MOL0     O10211   4.308   5.786   8.097  0.0621 -0.5182 -0.8288
   78MOL0     C10212   4.486   6.090   8.145  0.9019 -0.1575 -0.4366
   78MOL0     C10213   4.607   6.148   8.179  0.5058 -0.2834  0.2650
   78MOL0     N10214   5.426   6.179   8.216 -0.0087  0.4879 -0.3728
   78MOL0     N10215   5.516   6.086   8.231  0.1690 -0.5593 -0.6577
   78MOL0     C10216   6.161   5.460   8.982 -0.1657 -1.0247  0.3185
   78MOL0     C10217   6.218   5.415   9.099 -0.9594 -0.3799 -0.1297
   78MOL0     C10218   6.371   5.433   9.529 -0.6903 -0.1767  0.1539
   78MOL0     C10219   6.507   5.391   9.513  0.6990  0.6571  0.1227
   78MOL0     C10220   6.571   5.326   9.614  0.1070  0.4500  0.5099
   78MOL0     C10221   6.505   5.320   9.740 -0.0687 -0.0780 -1.2148
   78MOL0     O10222   6.550   5.256   9.856 -0.2617 -0.0538  0.0935
   78MOL0     C10223   6.668   5.179   9.840 -0.0907  0.3770 -0.0907
   78MOL0     C10224   6.648   5.071   9.948 -0.8270 -0.5972 -0.1886
   78MOL0     C10225   6.769   5.056  10.047  0.3693  0.3636  0.2290
   78MOL0     C10226   6.776   5.173  10.145  0.8014  0.6444  0.2825
   78MOL0     C10227   6.897   5.159  10.221 -0.4243 -0.0224  0.1505
   78MOL0     C10228   7.007   5.144  10.266 -0.1841  0.1640  0.0809
   78MOL0     C10229   6.380   5.387   9.757 -0.1036  0.6274 -0.9263
   78MOL0     C10230   6.313   5.437   9.652 -0.5915 -0.3263  0.3604
   78MOL0     H10231   6.337   5.706   9.229 -0.3272 -0.6016  0.3069
   78MOL0     H10232   6.241   5.791   8.988 -0.9554  0.3502 -0.4691
   78MOL0     H10233   6.251   5.534   8.716 -0.6192 -1.3279  0.3071
   78MOL0     H10234   6.236   5.704   8.677 -0.6121  1.9948  3.5692
   78MOL0     H10235   6.052   5.469   8.632 -2.2453  0.9736  2.5754
   78MOL0     H10236   6.117   5.585   8.510  1.0134  0.3949 -0.4650
   78MOL0     H10237   5.990   5.760   8.618  1.8161 -0.5255  1.9709
   78MOL0     H10238   5.918   5.647   8.727 -0.5422  2.2634 -0.6765
   78MOL0     H10239   5.893   5.613   8.439 -1.6592 -0.2391 -0.3990
   78MOL0     H10240   5.802   5.515   8.567 -2.6383 -0.6598 -3.9165
   78MOL0     H10241   5.766   5.809   8.485  1.5275 -0.2962  1.2257
   78MOL0     H10242   5.696   5.734   8.631 -1.2350 -0.7731 -0.1282
   78MOL0     H10243   5.564   5.584   8.500  1.0347 -1.4127  0.0711
   78MOL0     H10244   5.648   5.632   8.357  1.0213  0.5349  1.4071
   78MOL0     H10245   5.394   5.755   8.434  0.0535 -2.1720  0.6709
   78MOL0     H10246   5.511   5.865   8.504 -3.1623  2.9574 -1.5407
   78MOL0     H10247   5.502   5.785   8.216  2.0395 -0.6803  0.0125
   78MOL0     H10248   5.625   5.885   8.298  0.9542 -0.1004 -2.0254
   78MOL0     H10249   5.232   5.936   8.307 -1.4312 -1.9199 -3.4854
   78MOL0     H10250   5.101   6.119   8.178 -0.5529  1.7564 -0.8466
   78MOL0     H10251   5.186   6.267   8.150 -1.0619 -0.9080 -0.7398
   78MOL0     H10252   5.094   6.359   8.341 -1.2235 -0.5841 -0.6012
   78MOL0     H10253   5.193   6.240   8.425  0.3884  0.7682  0.5218
   78MOL0     H10254   4.996   6.073   8.405  1.2670 -0.4413 -0.8060
   78MOL0     H10255   4.960   6.208   8.487 -0.7646 -3.1278  1.1399
   78MOL0     H10256   4.890   6.298   8.224  1.9909  0.7440 -0.4903
   78MOL0     H10257   4.790   6.237   8.356 -0.8789 -0.5482 -0.8717
   78MOL0     H10258   4.783   5.864   8.169  0.3022  0.1710  2.6935
   78MOL0     H10259   4.557   5.758   8.125 -3.4178  0.0702 -3.5785
   78MOL0     H10260   4.097   5.787   7.983  1.3574  0.8933  0.1820
   78MOL0     H10261   3.860   5.789   7.940 -1.7212  1.1484 -1.6689
   78MOL0     H10262   3.642   5.821   7.930  0.0547  0.4598  1.3993
   78MOL0     H10263   3.675   5.922   7.787  0.7645  0.3977 -0.3906
   78MOL0     H10264   3.413   5.953   7.950 -0.6916  0.8632 -0.4336
   78MOL0     H10265   3.437   5.838   7.818  4.7632 -0.4865 -1.3622
   78MOL0     H10266   3.481   6.000   7.655  4.0815 -2.9388  1.3562
   78MOL0     H10267   3.509   6.126   7.781  1.6592 -0.3834  0.2184
   78MOL0     H10268   3.267   6.055   7.855 -0.9539 -1.3496 -0.7983
   78MOL0     H10269   3.290   6.185   7.729  0.9279  0.8525  2.3095
   78MOL0     H10270   3.246   5.890   7.666  1.4892  0.0412 -1.3142
   78MOL0     H10271   3.267   6.026   7.555  1.4656 -1.1834 -0.1997
   78MOL0     H10272   3.023   5.989   7.751 -1.4970  0.9646 -0.9081
   78MOL0     H10273   3.027   5.962   7.569  0.8943 -0.0413 -1.3295
   78MOL0     H10274   3.033   6.214   7.741 -0.6567  0.0198  0.6200
   78MOL0     H10275   3.107   6.212   7.587  0.5531 -0.9160  0.4852
   78MOL0     H10276   2.809   6.141   7.657  0.7950 -0.8693  0.9846
   78MOL0     H10277   2.866   6.145   7.495 -0.1246  1.5896 -0.0861
   78MOL0     H10278   3.814   6.185   8.092  0.5029  0.5318 -3.6366
   78MOL0     H10279   4.041   6.168   8.181 -1.0387 -1.0893  0.4649
   78MOL0     H10280   4.405   6.161   8.129  0.1158 -1.4000 -2.2761
   78MOL0     H10281   4.614   6.250   8.216  2.3891 -1.0612  2.3169
   78MOL0     H10282   6.106   5.398   8.912 -0.9085  0.0055 -0.0263
   78MOL0     H10283   6.219   5.310   9.128 -1.5601 -0.9556 -1.9934
   78MOL0     H10284   6.553   5.410   9.416  0.3003  0.7888 -0.0447
   78MOL0     H10285   6.671   5.287   9.598 -1.3180 -2.9959 -1.0473
   78MOL0     H10286   6.747   5.251   9.863 -1.4305  1.5021  1.2292
   78MOL0     H10287   6.684   5.132   9.742  1.5924 -1.9425  1.1982
   78MOL0     H10288   6.568   5.101  10.016  0.7636  2.2737  0.5886
   78MOL0     H10289   6.615   4.978   9.900  1.1901 -1.5518  0.1817
   78MOL0     H10290   6.865   5.052   9.996  1.1898  0.6363  1.7022
   78MOL0     H10291   6.761   4.955  10.089 -1.3336 -0.5109 -1.9723
   78MOL0     H10292   6.775   5.268  10.091 -0.7920  0.4606 -0.0522
   78MOL0     H10293   6.689   5.164  10.211  1.3488 -2.7463  0.6904
   78MOL0     H10294   7.103   5.114  10.303 -1.1020 -1.5923  1.1829
   78MOL0     H10295   6.323   5.382   9.850  0.3707  0.0628 -0.6581
   78MOL0     H10296   6.210   5.472   9.657 -0.9019 -0.9924 -0.9092
   79MOL0     O10297   5.494   9.042   6.157 -0.1356  0.9078  0.0613
   79MOL0     C10298   5.556   9.131   6.092 -0.3690  0.3664 -1.3028
   79MOL0     O10299   5.499   9.237   6.035  0.0885  0.4751 -0.1495
   79MOL0     C10300   5.361   9.244   6.032  0.7571  0.7532  0.1920
   79MOL0     C10301   5.290   9.360   6.086  0.1771 -0.2174 -0.1011
   79MOL0     C10302   5.144   9.367   6.073 -0.1069  0.3984 -0.6458
   79MOL0     C10303   5.075   9.261   6.012  0.2158 -0.0164 -0.3157
   79MOL0     O10304   4.940   9.274   6.016 -0.4512  0.0760  0.0736
   79MOL0     C10305   4.857   9.199   5.924  1.0941  0.4469  0.0978
   79MOL0     C10306   4.775   9.112   6.009 -0.3256  0.1392  0.1905
   79MOL0     C10307   4.627   9.120   5.974 -0.6090 -0.1574 -0.2484
   79MOL0     C10308   4.591   9.039   5.840 -0.5421 -0.3588 -0.2291
   79MOL0     C10309   4.451   9.074   5.799 -0.3353 -0.9272  0.4322
   79MOL0     C10310   4.345   9.021   5.881 -0.2776 -0.0100 -0.4563
   79MOL0     C10311   4.202   9.043   5.823  0.6627  0.4039 -0.0039
   79MOL0     C10312   4.142   9.169   5.878 -0.5870 -0.0082 -0.3699
   79MOL0     N10313   4.012   9.203   5.827 -0.0712  0.2168 -0.4253
   79MOL0     C10314   3.982   9.235   5.698 -0.7830 -0.8848 -1.1349
   79MOL0     C10315   3.852   9.264   5.692 -0.1432 -0.5420  0.4062
   79MOL0     C10316   3.780   9.331   5.573 -0.8743  0.1738 -0.3926
   79MOL0     C10317   3.637   9.279   5.582 -0.0682 -0.7901 -0.4020
   79MOL0     C10318   3.562   9.292   5.445 -0.3331 -0.1173 -0.5947
   79MOL0     C10319   3.424   9.231   5.449 -0.0816 -0.3063  1.5565
   79MOL0     O10320   3.370   9.259   5.317  0.4762  1.1644  0.3817
   79MOL0     C10321   3.236   9.244   5.306 -0.6865 -0.0912  0.7973
   79MOL0     C10322   3.182   9.293   5.190 -0.0727  0.5140 -0.4763
   79MOL0     C10323   3.045   9.297   5.164 -0.2798  0.6406  0.3675
   79MOL0     C10324   2.953   9.249   5.258  0.2120 -0.3516  0.3644
   79MOL0     C10325   2.800   9.256   5.234 -0.5148 -0.3132 -0.2170
   79MOL0     O10326   2.718   9.220   5.342 -0.4030  0.1740  0.1843
   79MOL0     C10327   2.590   9.262   5.333 -1.0844  0.0008 -0.0631
   79MOL0     C10328   2.495   9.165   5.327  0.2480  0.2681 -0.3601
   79MOL0     C10329   2.366   9.195   5.351 -0.2974 -0.0836  0.2943
   79MOL0     C10330   2.328   9.327   5.366 -0.3298  0.0886 -0.3286
   79MOL0     O10331   2.190   9.341   5.397 -0.3479 -0.4100  0.3633
   79MOL0     C10332   2.151   9.372   5.531  0.2137  0.4864  0.7078
   79MOL0     C10333   2.030   9.475   5.524  0.0102 -0.3306 -0.1597
   79MOL0     C10334   1.996   9.544   5.663  0.0167  1.5158 -0.4484
   79MOL0     C10335   1.888   9.640   5.623  0.3771 -0.4830  0.5879
   79MOL0     C10336   1.840   9.703   5.756  0.3708 -0.6873 -0.4854
   79MOL0     C10337   1.728   9.817   5.732 -0.0698  0.5647 -1.1947
   79MOL0     C10338   1.603   9.782   5.651 -0.0347  0.3823 -0.0310
   79MOL0     C10339   1.511   9.683   5.727  1.2948  0.4595 -0.5794
   79MOL0    Cl10340   1.344   9.695   5.663 -0.2857 -0.4578  0.1309
   79MOL0     C10341   2.424   9.429   5.353 -0.4444  1.0025  1.1735
   79MOL0     C10342   2.555   9.396   5.351  0.2053  0.5120 -0.0824
   79MOL0     O10343   2.772   9.317   5.130  0.5078 -0.2554 -0.0891
   79MOL0     C10344   3.007   9.205   5.382  0.1255 -0.1680  0.2487
   79MOL0     C10345   3.146   9.198   5.397 -0.0622  0.6144 -0.0262
   79MOL0     N10346   3.806   9.241   5.817  0.5196 -0.3018  0.1941
   79MOL0     N10347   3.894   9.197   5.902 -0.9270 -0.2713 -0.3023
   79MOL0     C10348   5.153   9.154   5.960 -0.9068  0.4706  0.4364
   79MOL0     C10349   5.284   9.149   5.968  0.4384  0.1628 -0.0090
   79MOL0     C10350   5.702   9.105   6.077 -0.4281 -0.2721 -0.1715
   79MOL0     C10351   5.758   8.992   6.136 -0.3767  0.2994 -0.5511
   79MOL0     C10352   5.896   8.963   6.119  0.1833  0.1746 -0.0746
   79MOL0     C10353   5.981   9.046   6.045 -0.2102  0.0466 -0.3926
   79MOL0     O10354   6.122   9.024   6.036  0.5328 -0.3091 -0.3358
   79MOL0     C10355   6.213   9.137   6.025  1.1318 -0.8399 -0.4191
   79MOL0     C10356   6.351   9.093   6.070  0.0133 -0.8365 -0.1907
   79MOL0     C10357   6.422   8.998   5.962 -0.6147  1.4896  0.3295
   79MOL0     C10358   6.560   8.959   6.011  0.5191 -0.1616 -1.0482
   79MOL0     C10359   6.564   8.844   6.100  0.5768 -0.1937 -0.4724
   79MOL0     C10360   6.557   8.747   6.170 -0.2691 -0.3824  0.5082
   79MOL0     C10361   5.921   9.149   5.975  0.5341 -0.1680 -0.0892
   79MOL0     C10362   5.786   9.181   5.986 -0.1185  1.1910 -0.2484
   79MOL0     H10363   5.343   9.445   6.125  1.1043 -0.1856 -1.3787
   79MOL0     H10364   5.098   9.456   6.114  1.5673  0.8154  0.4333
   79MOL0     H10365   4.905   9.151   5.838 -3.3761  0.2850 -2.6031
   79MOL0     H10366   4.794   9.268   5.867 -0.1035 -0.2603  0.5334
   79MOL0     H10367   4.794   9.131   6.115  0.8037 -2.4624  0.5252
   79MOL0     H10368   4.820   9.013   6.013  3.7139  1.7974  1.1428
   79MOL0     H10369   4.605   9.226   5.958  3.9301  0.8157 -1.4007
   79MOL0     H10370   4.566   9.078   6.054 -1.7646  0.0544 -0.9730
   79MOL0     H10371   4.665   9.069   5.765 -2.4146  0.4363 -1.8484
   79MOL0     H10372   4.595   8.934   5.870  1.9043 -0.0509  0.7527
   79MOL0     H10373   4.445   9.043   5.695  2.6124  0.0456 -0.1336
   79MOL0     H10374   4.443   9.183   5.800 -0.4238 -0.8981 -1.2179
   79MOL0     H10375   4.359   9.071   5.977  2.7026 -1.6926  0.0875
   79MOL0     H10376   4.361   8.913   5.888 -1.5823 -0.1817  0.1533
   79MOL0     H10377   4.185   9.035   5.715  0.9363 -1.9664  0.0919
   79MOL0     H10378   4.139   8.963   5.862 -0.4377  1.2386 -0.0125
   79MOL0     H10379   4.212   9.248   5.852 -1.2380  0.8717  0.5012
   79MOL0     H10380   4.135   9.168   5.988 -2.8565  1.8756 -0.4324
   79MOL0     H10381   4.062   9.240   5.625  0.3013  0.8330  0.0834
   79MOL0     H10382   3.819   9.289   5.480 -1.1597  1.2727 -1.0214
   79MOL0     H10383   3.785   9.440   5.572 -2.7042  0.3807  2.6088
   79MOL0     H10384   3.583   9.334   5.660 -1.7141 -1.6418 -0.8856
   79MOL0     H10385   3.651   9.174   5.610  3.3673 -0.9950 -2.2755
   79MOL0     H10386   3.550   9.400   5.438 -1.1357  0.0800  2.3890
   79MOL0     H10387   3.629   9.255   5.367  0.6346 -0.9581  0.5847
   79MOL0     H10388   3.358   9.277   5.523 -1.4244  2.4296 -1.1177
   79MOL0     H10389   3.437   9.123   5.460  0.5624 -0.3045  0.8879
   79MOL0     H10390   3.246   9.339   5.116 -0.3639  1.6640 -0.0278
   79MOL0     H10391   3.009   9.320   5.064 -3.1405  0.4767  1.2647
   79MOL0     H10392   2.521   9.061   5.311 -0.6217  0.3186 -2.3620
   79MOL0     H10393   2.289   9.119   5.345  1.3738 -1.8323 -0.0710
   79MOL0     H10394   2.239   9.417   5.578  1.4766  2.5663 -3.1846
   79MOL0     H10395   2.121   9.278   5.578 -1.6946  0.9605  0.5166
   79MOL0     H10396   1.946   9.418   5.483 -2.0938  3.5308 -1.7546
   79MOL0     H10397   2.056   9.554   5.454 -3.6480  0.6137 -0.6565
   79MOL0     H10398   2.081   9.597   5.709  1.8103  0.4599 -2.3559
   79MOL0     H10399   1.961   9.474   5.738  2.3484  1.9264  1.1260
   79MOL0     H10400   1.934   9.711   5.553 -1.7499  0.3759 -0.0123
   79MOL0     H10401   1.811   9.589   5.564  0.2447  1.2437 -0.8162
   79MOL0     H10402   1.932   9.725   5.812  0.4968  0.5850 -1.1593
   79MOL0     H10403   1.796   9.621   5.814  3.0787  0.4727  3.6249
   79MOL0     H10404   1.766   9.908   5.683 -1.6018  2.6490  1.2382
   79MOL0     H10405   1.692   9.861   5.825 -3.2338 -1.4727 -1.3207
   79MOL0     H10406   1.557   9.878   5.625  2.8714  1.2374 -2.5272
   79MOL0     H10407   1.631   9.733   5.558 -0.8338 -0.6792  0.2620
   79MOL0     H10408   1.515   9.692   5.836  1.8441 -1.2160 -0.4237
   79MOL0     H10409   1.548   9.581   5.709 -1.6986 -0.5686 -1.4562
   79MOL0     H10410   2.390   9.532   5.349  4.0211  2.6586 -1.0213
   79MOL0     H10411   2.636   9.468   5.347  1.4046 -0.5024  2.7525
   79MOL0     H10412   2.934   9.168   5.453 -1.0631 -3.2271 -2.3433
   79MOL0     H10413   3.183   9.160   5.492  1.2404  2.8861  0.4503
   79MOL0     H10414   5.099   9.072   5.914 -0.8719  1.9777 -2.5225
   79MOL0     H10415   5.320   9.053   5.932 -1.5609 -0.6915  0.1675
   79MOL0     H10416   5.696   8.928   6.199  0.1786  0.0369 -0.2669
   79MOL0     H10417   5.943   8.877   6.166  1.9433  0.0479 -1.8881
   79MOL0     H10418   6.174   9.212   6.094 -1.5531 -0.5792 -2.1132
   79MOL0     H10419   6.201   9.182   5.927 -1.8806 -0.1681  0.1531
   79MOL0     H10420   6.417   9.180   6.065 -0.0079 -0.8739 -1.6090
   79MOL0     H10421   6.347   9.043   6.167 -3.5557 -1.7050 -0.6696
   79MOL0     H10422   6.437   9.050   5.867 -0.1410 -0.6881 -0.8679
   79MOL0     H10423   6.371   8.904   5.939  0.8058  0.7148  0.2508
   79MOL0     H10424   6.623   8.928   5.927  1.9777  0.6906 -0.3097
   79MOL0     H10425   6.614   9.045   6.053 -0.0990 -0.3143  0.1038
   79MOL0     H10426   6.566   8.653   6.221  1.3739 -0.1777  0.6523
   79MOL0     H10427   5.980   9.202   5.900 -0.3122  0.6453 -0.2017
   79MOL0     H10428   5.750   9.262   5.925 -0.5658 -0.0134 -1.6312
   80MOL0     O10429  10.759   2.081  10.358  0.2967 -0.4914 -0.1507
   80MOL0     C10430  10.796   2.080  10.478 -0.2367  0.6505  0.3558
   80MOL0     O10431  10.719   2.112  10.581 -0.6972  0.4877 -0.0574
   80MOL0     C10432  10.596   2.163  10.584 -0.1777 -0.0528 -0.1175
   80MOL0     C10433  10.557   2.217  10.704 -0.5961 -0.1472  0.1631
   80MOL0     C10434  10.424   2.254  10.726  0.0226 -0.4579  0.1283
   80MOL0     C10435  10.322   2.225  10.634  0.2924 -0.6832  0.8569
   80MOL0     O10436  10.189   2.260  10.670 -0.3430 -0.0947  0.0102
   80MOL0     C10437  10.102   2.302  10.560 -0.1294 -0.6782  0.1401
   80MOL0     C10438   9.980   2.336  10.632  0.1530 -0.2370  0.2478
   80MOL0     C10439   9.896   2.430  10.548 -0.8495  0.8894  0.1764
   80MOL0     C10440   9.776   2.459  10.625 -0.2325 -0.9253 -0.0590
   80MOL0     C10441   9.672   2.564  10.568 -0.3244 -0.1647  0.3885
   80MOL0     C10442   9.545   2.493  10.509  0.1914 -0.4977 -0.1141
   80MOL0     C10443   9.456   2.439  10.618  0.6602  0.3480 -0.6771
   80MOL0     C10444   9.334   2.362  10.552  0.4125 -0.2325 -0.5981
   80MOL0     N10445   9.227   2.353  10.654  0.0921 -0.0020  0.2769
   80MOL0     C10446   9.102   2.418  10.657  0.4582  0.8827 -0.0939
   80MOL0     C10447   9.040   2.366  10.769  0.4328 -0.0824  0.1447
   80MOL0     C10448   8.894   2.396  10.823 -0.5069 -0.2994 -0.1840
   80MOL0     C10449   8.780   2.323  10.753 -0.7185 -0.0504  0.1287
   80MOL0     C10450   8.792   2.171  10.769 -0.3176 -0.1420 -0.2533
   80MOL0     C10451   8.662   2.104  10.721  0.3535  0.4273  0.6204
   80MOL0     O10452   8.564   2.117  10.826 -0.1490 -0.1105 -0.0530
   80MOL0     C10453   8.434   2.087  10.791 -0.2310  0.3874  0.4032
   80MOL0     C10454   8.340   2.162  10.865 -0.5559 -0.3429 -0.0555
   80MOL0     C10455   8.210   2.118  10.840  0.3048 -0.6014 -0.0998
   80MOL0     C10456   8.167   2.022  10.745  0.4321 -0.4794  0.4774
   80MOL0     C10457   8.021   1.987  10.742 -0.3914 -0.1558 -0.4516
   80MOL0     O10458   7.934   2.046  10.833 -0.2022  0.5927 -0.4851
   80MOL0     C10459   7.804   2.011  10.824 -0.4626 -0.3689  0.5727
   80MOL0     C10460   7.708   2.100  10.787  0.1407 -0.1917 -0.6777
   80MOL0     C10461   7.570   2.067  10.801 -0.2302 -0.2991 -0.2402
   80MOL0     C10462   7.531   1.937  10.849  0.1016  0.3000  0.0279
   80MOL0     O10463   7.398   1.897  10.846 -0.0850  0.7596 -0.5185
   80MOL0     C10464   7.303   1.946  10.935  0.3548  1.0573 -0.6582
   80MOL0     C10465   7.255   2.082  10.908 -0.9871 -0.1057  0.2205
   80MOL0     C10466   7.185   2.094  10.771  0.6655 -0.3834 -0.2287
   80MOL0     C10467   7.152   2.247  10.754  0.3038  0.5696  1.2753
   80MOL0     C10468   7.093   2.271  10.620 -0.8740 -0.0105 -0.5249
   80MOL0     C10469   7.072   2.418  10.595 -0.6067 -0.2965  0.5795
   80MOL0     C10470   6.982   2.489  10.696  0.1632 -1.0256  0.0944
   80MOL0     C10471   6.946   2.638  10.640  0.4851  0.9518 -0.5811
   80MOL0    Cl10472   6.805   2.704  10.727  0.2100  0.6846 -0.1422
   80MOL0     C10473   7.631   1.846  10.873 -0.6015  1.1727 -0.2466
   80MOL0     C10474   7.767   1.878  10.868 -0.4884 -0.0490 -0.2144
   80MOL0     O10475   7.999   1.902  10.657 -0.6287  0.1628  0.3546
   80MOL0     C10476   8.270   1.964  10.661  0.0242  0.1408 -0.5565
   80MOL0     C10477   8.396   1.990  10.692 -0.3711  0.3798 -0.4237
   80MOL0     N10478   9.119   2.269  10.818  0.3964  0.6506 -0.0828
   80MOL0     N10479   9.230   2.264  10.752  0.3242  0.1014 -0.2440
   80MOL0     C10480  10.365   2.166  10.513  0.1920 -0.2787  0.1008
   80MOL0     C10481  10.501   2.136  10.482  0.8924 -0.3002 -0.2829
   80MOL0     C10482  10.945   2.050  10.496 -0.0478  0.3468  0.3129
   80MOL0     C10483  11.000   2.074  10.628  0.4383 -0.1141  0.3660
   80MOL0     C10484  11.127   2.041  10.650  0.5791 -0.6758  0.5715
   80MOL0     C10485  11.208   1.989  10.549 -0.3389  0.3512 -0.4143
   80MOL0     O10486  11.338   1.958  10.579 -0.1341  0.0143  0.0478
   80MOL0     C10487  11.426   1.880  10.489 -0.0184 -0.1334 -0.5281
   80MOL0     C10488  11.564   1.872  10.555  0.3526  0.3583  0.1978
   80MOL0     C10489  11.672   1.816  10.459 -0.1522  0.4335 -0.1335
   80MOL0     C10490  11.802   1.785  10.546  0.0243 -0.2406  0.8052
   80MOL0     C10491  11.861   1.905  10.596 -0.1666 -1.4187 -0.4756
   80MOL0     C10492  11.910   2.011  10.642 -0.0609  0.0416  1.0813
   80MOL0     C10493  11.157   1.974  10.423  0.9455 -0.6285  0.7101
   80MOL0     C10494  11.025   2.004  10.391  0.0973  1.0875  0.2616
   80MOL0     H10495  10.631   2.217  10.784 -0.1079 -0.8932 -0.2820
   80MOL0     H10496  10.403   2.295  10.824 -3.3084 -0.7789 -0.3110
   80MOL0     H10497  10.080   2.226  10.485 -3.9468  0.1573  0.2002
   80MOL0     H10498  10.158   2.390  10.526 -1.2593  1.1720  2.6809
   80MOL0     H10499  10.008   2.385  10.726  1.1475 -0.9491  0.3316
   80MOL0     H10500   9.919   2.251  10.666 -1.3067  0.0499 -1.5293
   80MOL0     H10501   9.865   2.370  10.462  0.9517 -1.5930  1.1364
   80MOL0     H10502   9.957   2.519  10.529  3.2155 -1.1844  2.2243
   80MOL0     H10503   9.717   2.370  10.650 -1.9501  0.1822 -0.0082
   80MOL0     H10504   9.818   2.502  10.716  0.8391 -2.3617  0.1605
   80MOL0     H10505   9.728   2.625  10.496 -0.6917  3.0825  2.6132
   80MOL0     H10506   9.639   2.642  10.638 -0.9484 -1.8009  1.9895
   80MOL0     H10507   9.566   2.409  10.442 -0.4693 -0.4258 -0.4138
   80MOL0     H10508   9.480   2.556  10.448 -1.9458 -0.9608  1.5583
   80MOL0     H10509   9.508   2.370  10.686 -2.3746 -2.5487 -1.0226
   80MOL0     H10510   9.416   2.518  10.682 -0.5052 -2.0738  1.8267
   80MOL0     H10511   9.360   2.262  10.518 -1.1434 -0.5045 -1.0976
   80MOL0     H10512   9.285   2.416  10.470 -1.4496 -1.1929 -0.1910
   80MOL0     H10513   9.065   2.492  10.587 -0.0197  1.8629  1.1463
   80MOL0     H10514   8.872   2.503  10.823  0.7772 -0.0186  0.7097
   80MOL0     H10515   8.893   2.375  10.931  0.4767  0.5437 -0.0024
   80MOL0     H10516   8.773   2.344  10.646  1.1491 -0.0841 -0.0317
   80MOL0     H10517   8.687   2.367  10.789 -0.5178  0.4914 -0.0060
   80MOL0     H10518   8.872   2.120  10.715 -0.5268 -2.9477  1.9070
   80MOL0     H10519   8.815   2.156  10.874  1.3153  2.7352 -0.0858
   80MOL0     H10520   8.665   1.997  10.697  0.6995  0.9252 -1.7788
   80MOL0     H10521   8.622   2.148  10.629 -0.8260  0.4622  1.1290
   80MOL0     H10522   8.365   2.230  10.945  0.0461  0.1055 -0.6144
   80MOL0     H10523   8.129   2.162  10.897  1.9348 -1.3029  2.9319
   80MOL0     H10524   7.737   2.192  10.737  2.6346  1.0625  2.7235
   80MOL0     H10525   7.491   2.140  10.788 -0.4881 -0.6882 -0.9029
   80MOL0     H10526   7.341   1.945  11.038  1.4386  2.7291 -1.0031
   80MOL0     H10527   7.212   1.888  10.914 -0.5002  2.2039 -0.2713
   80MOL0     H10528   7.336   2.156  10.914 -1.8982  0.8022  2.6327
   80MOL0     H10529   7.187   2.113  10.988  0.8491  1.1071  1.4030
   80MOL0     H10530   7.086   2.047  10.781  0.4712 -0.0254 -0.4354
   80MOL0     H10531   7.229   2.051  10.681  0.8951 -1.3786  0.3433
   80MOL0     H10532   7.088   2.281  10.836  1.5764  0.4634  2.3391
   80MOL0     H10533   7.242   2.309  10.759  0.9854 -0.4531  2.0125
   80MOL0     H10534   7.000   2.215  10.614  1.4126 -4.0878 -2.5809
   80MOL0     H10535   7.160   2.237  10.540  1.8262  2.6227  0.4324
   80MOL0     H10536   7.037   2.427  10.491 -1.9609 -5.0097  0.4107
   80MOL0     H10537   7.168   2.470  10.598  0.0650 -1.5222  0.6077
   80MOL0     H10538   6.898   2.420  10.708  0.1999 -1.2726 -0.9824
   80MOL0     H10539   7.039   2.496  10.789 -1.4199 -0.7243  1.0759
   80MOL0     H10540   6.925   2.634  10.533 -1.1725 -1.3909 -0.2459
   80MOL0     H10541   7.028   2.710  10.645 -0.8746  2.5443 -0.4294
   80MOL0     H10542   7.596   1.746  10.896  1.7294  0.5114  0.6912
   80MOL0     H10543   7.846   1.815  10.907 -0.0177  1.1140  0.7916
   80MOL0     H10544   8.240   1.884  10.594  1.2868  0.4666 -1.5419
   80MOL0     H10545   8.472   1.938  10.635  2.0579  2.6371  0.5128
   80MOL0     H10546  10.297   2.130  10.437  2.2714 -2.3187 -0.9284
   80MOL0     H10547  10.524   2.083  10.390 -2.3921 -1.3500 -0.6532
   80MOL0     H10548  10.943   2.116  10.710 -3.0107 -2.2875 -0.6857
   80MOL0     H10549  11.177   2.056  10.746  0.7943  1.0206  0.2220
   80MOL0     H10550  11.440   1.933  10.395  0.8363  0.6468  0.0230
   80MOL0     H10551  11.389   1.780  10.467 -0.2415 -0.9168  2.8253
   80MOL0     H10552  11.587   1.970  10.597 -3.0909  1.8338 -0.9801
   80MOL0     H10553  11.567   1.798  10.635  5.2517 -0.4493 -0.4080
   80MOL0     H10554  11.691   1.880  10.372 -4.1965  1.7080 -0.3036
   80MOL0     H10555  11.651   1.719  10.414  0.7375  0.4528 -0.6257
   80MOL0     H10556  11.771   1.723  10.631 -1.3177  0.4603  0.8512
   80MOL0     H10557  11.874   1.727  10.487 -1.2658 -1.1013  0.0124
   80MOL0     H10558  11.960   2.100  10.675  2.3584 -0.0137 -1.9769
   80MOL0     H10559  11.216   1.932  10.342  1.8820 -0.6532  1.4013
   80MOL0     H10560  11.002   1.975  10.289  0.7832  1.8335 -0.1140
   81MOL0     O10561   6.716   5.224   0.045 -0.5231  0.3749 -0.2435
   81MOL0     C10562   6.794   5.317   0.043 -0.3530  0.5218  0.1366
   81MOL0     O10563   6.792   5.435   0.117  0.2100  0.0034  0.1992
   81MOL0     C10564   6.695   5.453   0.205 -0.3379 -0.6862 -1.0661
   81MOL0     C10565   6.557   5.435   0.186 -0.0735 -0.4839 -0.2627
   81MOL0     C10566   6.459   5.466   0.279 -0.7491 -0.3906 -0.4060
   81MOL0     C10567   6.499   5.504   0.405 -0.4928 -0.4891 -0.0244
   81MOL0     O10568   6.394   5.523   0.490  0.0469 -0.1635  0.1534
   81MOL0     C10569   6.435   5.554   0.625 -0.1093 -0.0344  0.9331
   81MOL0     C10570   6.309   5.559   0.712  0.0170 -1.0317 -0.1003
   81MOL0     C10571   6.185   5.475   0.683 -0.1362  0.0984 -0.0816
   81MOL0     C10572   6.101   5.472   0.814 -0.1625 -0.2600 -0.4087
   81MOL0     C10573   5.980   5.386   0.797 -0.1586 -0.5652  0.5285
   81MOL0     C10574   5.882   5.418   0.911  0.0548  0.1851 -1.1183
   81MOL0     C10575   5.765   5.320   0.906  0.1173  0.1497 -0.0171
   81MOL0     C10576   5.657   5.360   0.992 -0.0586 -0.5528 -0.4439
   81MOL0     N10577   5.548   5.275   0.954  0.0987  0.6599 -0.1771
   81MOL0     C10578   5.447   5.307   0.866 -0.0734  0.2045  0.2719
   81MOL0     C10579   5.366   5.190   0.861  0.2865 -0.6223  0.3168
   81MOL0     C10580   5.254   5.169   0.761 -0.4071 -0.1144  0.7051
   81MOL0     C10581   5.144   5.090   0.838  0.8641 -0.3500  0.6819
   81MOL0     C10582   5.077   5.189   0.940  0.3918  0.6925  0.1645
   81MOL0     C10583   4.981   5.284   0.869 -0.5074  0.4027 -0.9270
   81MOL0     O10584   4.930   5.354   0.987 -0.0197 -0.4331  0.8813
   81MOL0     C10585   4.797   5.380   0.987 -0.7898  0.2443 -0.3800
   81MOL0     C10586   4.738   5.420   1.110 -0.1173 -0.2915  0.6348
   81MOL0     C10587   4.598   5.437   1.143  0.2615  0.2660 -0.0472
   81MOL0     C10588   4.503   5.412   1.033 -0.2561 -0.1836 -0.7830
   81MOL0     C10589   4.357   5.437   1.055  0.3685  0.3795 -0.8539
   81MOL0     O10590   4.279   5.447   0.945 -0.0374 -0.1352 -0.2192
   81MOL0     C10591   4.147   5.476   0.950  0.4717 -0.0601 -0.3454
   81MOL0     C10592   4.072   5.429   0.844  0.6155 -0.2151 -0.4493
   81MOL0     C10593   3.936   5.459   0.825 -0.6302  1.5997 -0.7131
   81MOL0     C10594   3.870   5.544   0.916 -0.3599  0.5023 -0.6315
   81MOL0     O10595   3.736   5.572   0.892 -0.4659  0.3558  0.0678
   81MOL0     C10596   3.657   5.614   0.998  0.4742 -0.6849  0.2186
   81MOL0     C10597   3.529   5.673   0.918 -0.2237  0.8195  0.8492
   81MOL0     C10598   3.434   5.749   1.010  0.7125  0.2419  0.2520
   81MOL0     C10599   3.308   5.771   0.928  0.1081 -0.1925 -0.5847
   81MOL0     C10600   3.188   5.819   1.006 -0.1297 -1.0636  0.4304
   81MOL0     C10601   3.051   5.827   0.927 -0.1882  0.0774  0.5379
   81MOL0     C10602   2.942   5.873   1.027  1.4762  0.4828  0.2264
   81MOL0     C10603   2.799   5.838   0.992 -0.0664 -1.0082  0.9573
   81MOL0    Cl10604   2.789   5.658   0.970  0.4567  0.8829  0.1447
   81MOL0     C10605   3.950   5.590   1.025  0.5407 -1.0340  0.7361
   81MOL0     C10606   4.088   5.562   1.036 -0.1736 -0.3625 -0.1531
   81MOL0     O10607   4.314   5.427   1.167 -0.7240 -0.5732 -0.1223
   81MOL0     C10608   4.565   5.395   0.907  0.0325  0.8919  0.8867
   81MOL0     C10609   4.704   5.375   0.881 -0.1013  0.9884 -0.2859
   81MOL0     N10610   5.413   5.106   0.954 -0.8393  0.3055  0.9251
   81MOL0     N10611   5.517   5.154   1.017  0.1724 -0.7838  0.0875
   81MOL0     C10612   6.632   5.530   0.429 -0.3134  0.3501 -0.1947
   81MOL0     C10613   6.729   5.510   0.334  0.3408 -0.1369 -0.8181
   81MOL0     C10614   6.912   5.299  -0.053  0.9072 -0.5212 -0.5986
   81MOL0     C10615   6.899   5.209  -0.162  0.9939  0.1978  0.5390
   81MOL0     C10616   7.015   5.190  -0.236 -0.0434  0.0115  0.7767
   81MOL0     C10617   7.141   5.250  -0.204  1.5147 -0.4557  0.6757
   81MOL0     O10618   7.245   5.207  -0.287  0.1148 -0.5469  0.0597
   81MOL0     C10619   7.332   5.111  -0.235  0.0207  0.6883 -0.3627
   81MOL0     C10620   7.469   5.167  -0.230  1.1040 -0.4320 -0.8698
   81MOL0     C10621   7.569   5.053  -0.183 -0.4330 -0.7822 -0.4212
   81MOL0     C10622   7.713   5.115  -0.160  0.0597 -0.0867 -0.1899
   81MOL0     C10623   7.821   5.009  -0.156 -0.1746 -0.7028  0.7367
   81MOL0     C10624   7.916   4.942  -0.131 -0.0693 -0.3042  0.7179
   81MOL0     C10625   7.148   5.352  -0.105 -0.3700  0.7335  0.4073
   81MOL0     C10626   7.033   5.370  -0.026  0.1236  0.0487  0.0109
   81MOL0     H10627   6.523   5.394   0.092  0.4653  0.4788 -0.8962
   81MOL0     H10628   6.354   5.459   0.255 -0.9035  2.0262 -0.6736
   81MOL0     H10629   6.480   5.654   0.631  2.9432 -1.3465  2.9409
   81MOL0     H10630   6.509   5.482   0.660  1.2156 -0.1421 -1.8145
   81MOL0     H10631   6.281   5.664   0.695 -0.6117 -1.2716 -0.5963
   81MOL0     H10632   6.336   5.542   0.816  0.6677  0.0379 -0.0753
   81MOL0     H10633   6.213   5.380   0.638  3.5405  2.3094 -3.0879
   81MOL0     H10634   6.131   5.519   0.598 -2.6818 -1.8316  0.4325
   81MOL0     H10635   6.169   5.433   0.890  1.3428 -0.2590 -1.6825
   81MOL0     H10636   6.064   5.570   0.843  1.8085  0.9911 -1.8447
   81MOL0     H10637   6.019   5.284   0.797  0.6416 -0.3581 -2.7561
   81MOL0     H10638   5.926   5.403   0.704  0.6850  1.5058  0.3527
   81MOL0     H10639   5.850   5.522   0.909  0.7861  0.4179 -0.8863
   81MOL0     H10640   5.936   5.393   1.003 -1.3814 -1.5363 -0.6665
   81MOL0     H10641   5.728   5.324   0.803 -0.0998 -1.7212 -0.0486
   81MOL0     H10642   5.799   5.217   0.923  1.4794  0.4127 -1.0144
   81MOL0     H10643   5.635   5.467   0.986  0.7658 -0.3333  0.2161
   81MOL0     H10644   5.692   5.341   1.094  1.5118  0.1120 -0.8242
   81MOL0     H10645   5.430   5.390   0.798 -0.9533 -0.2616 -0.0840
   81MOL0     H10646   5.296   5.107   0.681 -0.2406  0.8283  0.0393
   81MOL0     H10647   5.213   5.259   0.714  1.5612 -0.7200 -2.4446
   81MOL0     H10648   5.197   5.004   0.880  2.5914 -0.7191 -1.9673
   81MOL0     H10649   5.066   5.056   0.769  1.2336 -1.7297  0.9058
   81MOL0     H10650   5.016   5.119   0.998 -1.3780  1.1806 -1.0156
   81MOL0     H10651   5.146   5.253   0.995 -0.1312 -0.5420  2.3927
   81MOL0     H10652   4.916   5.218   0.810 -2.5228  0.1802  1.3425
   81MOL0     H10653   5.033   5.359   0.810  1.4243  0.7424  1.0687
   81MOL0     H10654   4.807   5.436   1.192 -1.0684 -0.6502  1.5215
   81MOL0     H10655   4.557   5.466   1.239 -0.5980 -1.8666  0.2632
   81MOL0     H10656   4.125   5.382   0.762  1.7416  2.4647 -1.3736
   81MOL0     H10657   3.891   5.411   0.738  1.6130 -1.1256 -0.5171
   81MOL0     H10658   3.705   5.692   1.057 -0.5066 -1.3314  1.9460
   81MOL0     H10659   3.626   5.526   1.055  0.5455 -0.2942  0.8682
   81MOL0     H10660   3.490   5.588   0.861  4.0060 -1.4799  1.0161
   81MOL0     H10661   3.555   5.742   0.837 -1.9402  0.6809  0.1316
   81MOL0     H10662   3.476   5.844   1.044  0.2399  0.3960  0.4165
   81MOL0     H10663   3.406   5.691   1.099  2.9425 -1.9299 -0.3551
   81MOL0     H10664   3.324   5.843   0.847 -0.9322  1.2221  0.4229
   81MOL0     H10665   3.287   5.672   0.886  2.0056 -1.0740  0.4153
   81MOL0     H10666   3.217   5.920   1.039 -1.2591 -0.7682  0.5400
   81MOL0     H10667   3.166   5.759   1.094 -2.7991 -1.6565 -0.5646
   81MOL0     H10668   3.027   5.724   0.897  0.5764  0.1540 -0.3782
   81MOL0     H10669   3.047   5.896   0.842 -2.8863 -0.3776  0.1905
   81MOL0     H10670   2.964   5.828   1.124  1.6139  0.7561  0.3231
   81MOL0     H10671   2.961   5.981   1.032  1.7098  0.4537 -0.0097
   81MOL0     H10672   2.774   5.887   0.897  1.3378 -1.2358  0.4395
   81MOL0     H10673   2.728   5.870   1.069 -1.2779 -0.5180 -0.3311
   81MOL0     H10674   3.895   5.646   1.100 -1.0974 -0.7003 -0.6712
   81MOL0     H10675   4.149   5.619   1.105 -0.2166  2.5228 -2.3042
   81MOL0     H10676   4.496   5.376   0.826 -1.4846 -1.2539  2.5548
   81MOL0     H10677   4.725   5.343   0.779  2.3540 -1.9871  0.9823
   81MOL0     H10678   6.674   5.572   0.520  0.5797 -1.1385  0.1217
   81MOL0     H10679   6.832   5.537   0.355 -0.3072  0.3905  2.1231
   81MOL0     H10680   6.807   5.161  -0.191  1.1891  0.1737 -0.0553
   81MOL0     H10681   7.010   5.120  -0.319  0.1436  2.2685 -1.2427
   81MOL0     H10682   7.336   5.018  -0.291 -0.9110 -1.1315  2.3882
   81MOL0     H10683   7.297   5.084  -0.135  1.2984  1.9264  0.4677
   81MOL0     H10684   7.493   5.200  -0.332 -0.8998 -1.2499 -1.6585
   81MOL0     H10685   7.480   5.249  -0.159  0.0790 -0.2153 -0.9361
   81MOL0     H10686   7.573   4.974  -0.258  1.0551 -1.3200  0.1930
   81MOL0     H10687   7.527   5.030  -0.085  0.3885  1.2724  0.4775
   81MOL0     H10688   7.740   5.187  -0.238  1.7342  0.9964  1.3034
   81MOL0     H10689   7.720   5.164  -0.062  2.4051 -0.9387  0.1537
   81MOL0     H10690   7.997   4.876  -0.109  0.5533  0.5132  0.9238
   81MOL0     H10691   7.235   5.409  -0.076 -1.3938  1.6087  1.8815
   81MOL0     H10692   7.031   5.447   0.051  0.0501  1.9263 -1.7988
   82MOL0     O10693   4.017   8.419   6.429  0.1207  0.2306 -0.1922
   82MOL0     C10694   4.100   8.343   6.474 -0.9308 -0.0638 -0.6504
   82MOL0     O10695   4.103   8.202   6.474  0.0875  0.3717 -0.0838
   82MOL0     C10696   3.983   8.139   6.432 -0.2918 -0.0849  0.6953
   82MOL0     C10697   3.862   8.174   6.481 -0.6277 -0.5283 -0.7836
   82MOL0     C10698   3.747   8.089   6.462  0.2401 -0.0414  0.5268
   82MOL0     C10699   3.752   7.968   6.394  0.1653 -0.7993 -0.1837
   82MOL0     O10700   3.632   7.904   6.378 -1.0776  0.5359 -0.1477
   82MOL0     C10701   3.644   7.761   6.343 -0.6300  0.2194  0.0295
   82MOL0     C10702   3.507   7.690   6.366 -0.5556  0.3635  0.7201
   82MOL0     C10703   3.466   7.642   6.507 -0.5566  0.2016  0.0225
   82MOL0     C10704   3.569   7.561   6.584  0.2728  0.0116 -0.7315
   82MOL0     C10705   3.629   7.442   6.514 -0.6474 -0.3322 -0.0876
   82MOL0     C10706   3.690   7.352   6.623  1.0572 -0.3510 -0.7382
   82MOL0     C10707   3.764   7.228   6.567  0.5130  0.1555  0.1672
   82MOL0     C10708   3.915   7.255   6.543  0.2153  0.0978  0.6693
   82MOL0     N10709   3.959   7.395   6.515 -0.3614  0.4444  0.4042
   82MOL0     C10710   3.989   7.490   6.617  0.4512 -0.6010 -0.0676
   82MOL0     C10711   3.997   7.609   6.553 -0.2894 -0.1316  0.2768
   82MOL0     C10712   4.013   7.748   6.615 -0.0263  0.4808 -0.3208
   82MOL0     C10713   3.927   7.771   6.741  0.9268 -0.0694 -0.6489
   82MOL0     C10714   3.904   7.930   6.773 -0.4899 -0.0462  0.0133
   82MOL0     C10715   3.796   7.942   6.878  0.4461  0.0525 -0.0018
   82MOL0     O10716   3.791   7.856   6.995 -0.1376 -0.3214  0.1387
   82MOL0     C10717   3.681   7.851   7.076  0.0508  0.4279 -0.1165
   82MOL0     C10718   3.580   7.952   7.073 -0.0736 -0.7243  0.4882
   82MOL0     C10719   3.475   7.951   7.160  0.8630  0.4633  0.0832
   82MOL0     C10720   3.468   7.845   7.246 -0.3158  0.7550  0.2013
   82MOL0     C10721   3.358   7.825   7.347  0.0588 -0.3614  0.4403
   82MOL0     O10722   3.269   7.933   7.357  0.1516  0.0888  0.0360
   82MOL0     C10723   3.143   7.897   7.402  0.3820  0.3276 -0.2889
   82MOL0     C10724   3.119   7.864   7.535  0.2830  0.5247  0.1668
   82MOL0     C10725   2.984   7.850   7.584  0.1270  0.3227  0.5699
   82MOL0     C10726   2.877   7.864   7.500 -0.3650 -0.1726 -0.2020
   82MOL0     O10727   2.749   7.880   7.556 -0.6013 -0.1955 -0.3423
   82MOL0     C10728   2.637   7.878   7.464  0.2057 -0.5347 -0.2028
   82MOL0     C10729   2.509   7.939   7.518 -0.0578 -0.9999 -0.1914
   82MOL0     C10730   2.386   7.880   7.441 -1.0321 -0.3090 -0.3147
   82MOL0     C10731   2.376   7.919   7.290  0.2094 -0.1071  0.4670
   82MOL0     C10732   2.243   7.888   7.215  0.1324 -0.2450 -0.0989
   82MOL0     C10733   2.127   7.966   7.279  0.0910 -0.3922 -0.3859
   82MOL0     C10734   1.995   7.946   7.197 -0.3649  0.2121  0.5212
   82MOL0     C10735   1.876   8.038   7.229  0.2647  0.3964 -0.5187
   82MOL0    Cl10736   1.844   8.012   7.406  0.1915  0.1442 -0.3566
   82MOL0     C10737   2.910   7.889   7.359  0.5583  0.0244 -0.5877
   82MOL0     C10738   3.039   7.909   7.311  0.8269 -0.2947 -0.3517
   82MOL0     O10739   3.366   7.726   7.424 -0.1572  0.2334  0.2789
   82MOL0     C10740   3.565   7.743   7.247 -0.4407 -0.0388  0.1112
   82MOL0     C10741   3.675   7.756   7.170 -1.1431  0.0633  0.1443
   82MOL0     N10742   3.977   7.584   6.420  0.9801 -0.1824  1.0196
   82MOL0     N10743   3.967   7.456   6.394  0.0447 -0.1834 -0.2176
   82MOL0     C10744   3.880   7.937   6.335  0.5962 -1.5006 -0.2374
   82MOL0     C10745   3.993   8.020   6.357  0.3234  0.2678 -0.0993
   82MOL0     C10746   4.213   8.420   6.529 -0.4556 -0.5314 -0.6427
   82MOL0     C10747   4.241   8.558   6.496  0.3226  0.1947 -0.1490
   82MOL0     C10748   4.346   8.622   6.562 -0.2190  0.1751  1.3677
   82MOL0     C10749   4.439   8.560   6.645  0.4129 -0.3414  0.8460
   82MOL0     O10750   4.552   8.623   6.691  0.5980 -0.7337 -0.2152
   82MOL0     C10751   4.562   8.770   6.719  0.6454 -0.1410 -0.4744
   82MOL0     C10752   4.462   8.819   6.826 -0.2096 -0.0001 -0.1100
   82MOL0     C10753   4.489   8.962   6.894  0.0683 -0.7155  1.0340
   82MOL0     C10754   4.478   9.080   6.785 -0.0727 -0.1461 -0.3391
   82MOL0     C10755   4.607   9.082   6.720 -0.3073  0.6175  0.0962
   82MOL0     C10756   4.721   9.097   6.675  0.2450 -0.4169 -0.2843
   82MOL0     C10757   4.416   8.430   6.686  0.2028  0.0883  0.2629
   82MOL0     C10758   4.308   8.357   6.624 -0.4267 -0.2325 -1.2413
   82MOL0     H10759   3.840   8.257   6.547 -0.9114 -1.7317  0.6909
   82MOL0     H10760   3.650   8.118   6.501 -0.7842  1.6241 -2.9051
   82MOL0     H10761   3.726   7.706   6.391 -1.9338 -0.2163  1.8466
   82MOL0     H10762   3.676   7.751   6.239  2.9388 -0.7804  1.0794
   82MOL0     H10763   3.504   7.609   6.292 -2.4367  4.0383 -3.7305
   82MOL0     H10764   3.439   7.764   6.322  2.1533 -0.0020 -5.0372
   82MOL0     H10765   3.365   7.600   6.502 -1.3767  2.1618 -0.5693
   82MOL0     H10766   3.454   7.732   6.566 -1.2786 -0.0024  0.1946
   82MOL0     H10767   3.651   7.628   6.609 -0.1022  0.2744 -0.1944
   82MOL0     H10768   3.525   7.530   6.679  2.1221 -0.0848  0.1349
   82MOL0     H10769   3.710   7.475   6.449 -0.4536  0.0366  0.3378
   82MOL0     H10770   3.561   7.383   6.452 -1.9816  3.0088 -2.0554
   82MOL0     H10771   3.602   7.321   6.680 -0.7421  4.0408 -0.7029
   82MOL0     H10772   3.747   7.406   6.699 -1.5133  2.9297 -0.9008
   82MOL0     H10773   3.759   7.146   6.640 -0.2746 -0.4957 -0.5889
   82MOL0     H10774   3.720   7.202   6.470  0.5807 -2.8437  0.8411
   82MOL0     H10775   3.961   7.190   6.469  1.7033 -0.1093  1.7236
   82MOL0     H10776   3.972   7.213   6.626  1.1294 -2.3031 -1.0837
   82MOL0     H10777   3.985   7.480   6.725  1.4892 -1.7719 -0.1201
   82MOL0     H10778   4.000   7.827   6.541  5.1396  1.5860 -0.4076
   82MOL0     H10779   4.115   7.748   6.654 -0.6724  0.5624  1.5043
   82MOL0     H10780   3.960   7.719   6.832 -0.6706  2.2644  1.4256
   82MOL0     H10781   3.824   7.740   6.722  0.7668  0.3618 -0.5156
   82MOL0     H10782   3.997   7.983   6.799  0.5465  0.4917 -4.1533
   82MOL0     H10783   3.880   7.978   6.678  0.3957 -0.8798 -0.6463
   82MOL0     H10784   3.704   7.923   6.823  0.8632  0.7213 -0.9613
   82MOL0     H10785   3.798   8.046   6.912  2.0967  0.5024 -1.3317
   82MOL0     H10786   3.590   8.036   7.005  0.1819 -0.0998  1.2787
   82MOL0     H10787   3.404   8.033   7.151  1.6736  1.0243 -1.6025
   82MOL0     H10788   3.195   7.864   7.612 -1.0621 -2.4244  1.6710
   82MOL0     H10789   2.978   7.836   7.691 -0.1234  1.9234  0.7943
   82MOL0     H10790   2.613   7.775   7.436 -0.0362 -0.5917  0.2026
   82MOL0     H10791   2.655   7.926   7.368 -0.3030  0.9315  0.3999
   82MOL0     H10792   2.509   8.048   7.507 -1.2646 -1.0005 -0.2769
   82MOL0     H10793   2.501   7.918   7.625 -1.3168  2.8619  0.6393
   82MOL0     H10794   2.294   7.910   7.493 -2.0915 -0.1732 -2.1537
   82MOL0     H10795   2.388   7.771   7.441 -2.0877 -0.3828 -2.4413
   82MOL0     H10796   2.408   8.022   7.272  4.3542 -1.3603 -0.5650
   82MOL0     H10797   2.456   7.865   7.238 -0.6235 -0.8157 -0.1210
   82MOL0     H10798   2.218   7.782   7.220  0.4166 -0.3951 -1.4965
   82MOL0     H10799   2.264   7.922   7.113  0.2981  0.9737  0.3257
   82MOL0     H10800   2.164   8.069   7.286  0.7012 -0.6487  0.2899
   82MOL0     H10801   2.107   7.932   7.381 -0.5811  3.5141  0.9605
   82MOL0     H10802   2.019   7.952   7.091 -0.2424 -0.6445  0.4900
   82MOL0     H10803   1.959   7.846   7.224 -0.9175  0.1936 -0.2608
   82MOL0     H10804   1.784   8.023   7.171  0.3233 -0.1770 -0.4591
   82MOL0     H10805   1.900   8.145   7.217  1.2414  0.3017  0.4864
   82MOL0     H10806   2.833   7.892   7.283  1.4239 -0.8383 -1.5315
   82MOL0     H10807   3.061   7.933   7.207  1.1061 -0.4803 -0.3349
   82MOL0     H10808   3.574   7.663   7.320 -2.4426  0.4325  0.9428
   82MOL0     H10809   3.757   7.685   7.180 -2.2796 -1.3861 -0.4528
   82MOL0     H10810   3.889   7.852   6.268  0.2316 -0.1417 -2.0792
   82MOL0     H10811   4.092   8.004   6.313 -1.4710 -0.6124 -4.3276
   82MOL0     H10812   4.173   8.609   6.429  1.0482  1.1248 -0.2023
   82MOL0     H10813   4.354   8.723   6.524 -1.4713 -1.6544 -4.7832
   82MOL0     H10814   4.553   8.829   6.627  1.3845 -1.0674 -1.1538
   82MOL0     H10815   4.654   8.807   6.765 -0.5194  1.6402  0.5549
   82MOL0     H10816   4.368   8.821   6.770  0.6204 -1.5513 -1.6914
   82MOL0     H10817   4.452   8.740   6.901  1.0972 -0.1259 -0.0474
   82MOL0     H10818   4.582   8.960   6.950  0.7199 -2.4116 -0.0125
   82MOL0     H10819   4.416   8.993   6.969  0.1025 -1.4368  1.3671
   82MOL0     H10820   4.409   9.066   6.702 -2.6869 -0.8606  1.8310
   82MOL0     H10821   4.457   9.175   6.835 -0.1118 -0.4802  0.2898
   82MOL0     H10822   4.824   9.110   6.648  0.3153  2.0972  0.8751
   82MOL0     H10823   4.490   8.371   6.739 -0.2503 -2.2558 -1.5538
   82MOL0     H10824   4.299   8.254   6.656 -1.5689  0.3885  0.6079
   83MOL0     O10825   2.212  10.957   3.164 -0.0109 -0.1309 -0.6080
   83MOL0     C10826   2.243  10.914   3.060  0.0307  0.0390  0.5946
   83MOL0     O10827   2.162  10.883   2.949  0.3383 -0.6248  0.1182
   83MOL0     C10828   2.027  10.904   2.963 -1.0274 -0.3067 -0.0480
   83MOL0     C10829   1.946  10.819   3.042 -0.3825 -0.4863  0.7948
   83MOL0     C10830   1.812  10.844   3.053  0.5661  0.2401  0.8820
   83MOL0     C10831   1.750  10.945   2.980 -0.1741  0.1518 -0.5453
   83MOL0     O10832   1.620  10.968   2.980  0.4158 -0.0818 -0.0889
   83MOL0     C10833   1.528  10.863   3.020  0.4665  0.8115 -0.5348
   83MOL0     C10834   1.486  10.874   3.173 -0.6000 -0.2891 -0.1270
   83MOL0     C10835   1.405  10.759   3.203 -0.2543  0.1055 -0.1786
   83MOL0     C10836   1.352  10.747   3.344  0.0756  0.3169 -0.2962
   83MOL0     C10837   1.298  10.611   3.380 -0.4794  0.2384 -0.2472
   83MOL0     C10838   1.161  10.579   3.316  0.4891 -0.2666 -0.4855
   83MOL0     C10839   1.105  10.437   3.342  0.5892  0.3440 -0.2623
   83MOL0     C10840   1.037  10.385   3.220 -0.2576  0.8047 -0.1021
   83MOL0     N10841   0.897  10.429   3.209 -0.3533 -0.2660 -0.6479
   83MOL0     C10842   0.791  10.344   3.175 -0.3641 -0.2054 -1.3064
   83MOL0     C10843   0.687  10.433   3.172 -0.5251  0.4001  0.0308
   83MOL0     C10844   0.554  10.393   3.110  0.6386 -0.2104  0.1153
   83MOL0     C10845   0.434  10.457   3.188 -0.2267 -0.6050 -0.2423
   83MOL0     C10846   0.289  10.393   3.154 -0.4753  0.2259  0.2102
   83MOL0     C10847   0.168  10.475   3.205  0.3541  0.8615  0.1315
   83MOL0     O10848   0.054  10.478   3.117 -0.1941  0.0305  0.9139
   83MOL0     C10849  -0.069  10.506   3.165 -0.4208  0.7426  0.2102
   83MOL0     C10850  -0.134  10.428   3.258  0.1635 -0.0681 -0.5559
   83MOL0     C10851  -0.260  10.456   3.303 -0.1691 -0.4720  0.2576
   83MOL0     C10852  -0.335  10.563   3.255  0.7814 -0.1252 -0.0898
   83MOL0     C10853  -0.475  10.591   3.298  0.3415 -0.0205 -0.8796
   83MOL0     O10854  -0.539  10.689   3.236  0.5894  0.0388  0.2626
   83MOL0     C10855  -0.668  10.716   3.269 -0.1047 -0.4328  0.3517
   83MOL0     C10856  -0.779  10.647   3.222 -0.0127  0.2744 -0.1845
   83MOL0     C10857  -0.904  10.669   3.277  0.3263  0.0294  0.4753
   83MOL0     C10858  -0.928  10.764   3.370 -0.8703  0.1660  0.2794
   83MOL0     O10859  -1.051  10.789   3.424 -0.6764 -0.5893  0.2128
   83MOL0     C10860  -1.170  10.781   3.341 -0.8325  0.4922 -0.0631
   83MOL0     C10861  -1.294  10.847   3.410  0.4378 -0.1930 -0.5667
   83MOL0     C10862  -1.282  11.002   3.413  0.0128  0.5355  0.3411
   83MOL0     C10863  -1.418  11.051   3.473 -0.4983 -1.3050 -0.1643
   83MOL0     C10864  -1.402  11.166   3.564 -0.0851 -0.3352  0.4187
   83MOL0     C10865  -1.540  11.192   3.611 -0.4186  0.1747 -0.0791
   83MOL0     C10866  -1.529  11.319   3.704  0.9788 -0.5230 -0.2348
   83MOL0     C10867  -1.659  11.343   3.784  1.0121 -0.2531  0.8376
   83MOL0    Cl10868  -1.703  11.518   3.815  0.1944  0.4746 -0.1429
   83MOL0     C10869  -0.820  10.827   3.423  0.1905 -1.2505  0.1077
   83MOL0     C10870  -0.685  10.799   3.383 -0.4616 -0.4479  0.1482
   83MOL0     O10871  -0.521  10.517   3.381 -0.1783 -0.1325 -0.2731
   83MOL0     C10872  -0.279  10.644   3.161 -0.3237  0.0967  0.6753
   83MOL0     C10873  -0.142  10.622   3.122  0.1128  0.1511  0.1611
   83MOL0     N10874   0.720  10.564   3.204  0.4419  0.5700  0.4890
   83MOL0     N10875   0.843  10.554   3.224  0.8605 -1.1303 -0.8568
   83MOL0     C10876   1.835  11.037   2.908 -0.0018  1.3145 -0.1413
   83MOL0     C10877   1.974  11.025   2.902 -0.9543  1.4683 -0.0216
   83MOL0     C10878   2.378  10.862   3.044 -0.0705 -0.4560  0.5297
   83MOL0     C10879   2.429  10.850   2.914 -0.4016  0.0418  0.5033
   83MOL0     C10880   2.558  10.811   2.896  0.1220 -0.4530  0.4295
   83MOL0     C10881   2.647  10.784   3.006  0.2761 -0.0592 -0.1904
   83MOL0     O10882   2.779  10.749   2.979 -0.0799  0.5576  0.4797
   83MOL0     C10883   2.867  10.699   3.084 -0.1426 -0.0952  0.4233
   83MOL0     C10884   2.973  10.613   3.017  0.0450  0.5255 -0.0666
   83MOL0     C10885   3.072  10.690   2.928 -0.3043  0.5502 -0.6732
   83MOL0     C10886   3.170  10.587   2.863  0.9536 -0.3114 -1.0385
   83MOL0     C10887   3.251  10.672   2.783  0.6391 -0.1991  0.0053
   83MOL0     C10888   3.339  10.725   2.728  0.2534 -0.1846  0.9354
   83MOL0     C10889   2.593  10.784   3.138  0.4250  0.4136 -0.5032
   83MOL0     C10890   2.461  10.825   3.149  0.3137  0.0067 -0.2093
   83MOL0     H10891   1.998  10.735   3.087  0.5836 -0.8621 -0.9478
   83MOL0     H10892   1.752  10.773   3.109  1.7026 -1.5766 -0.1048
   83MOL0     H10893   1.552  10.760   2.993 -3.2966 -0.5498  0.7447
   83MOL0     H10894   1.435  10.876   2.965 -1.1804 -4.6801  0.3461
   83MOL0     H10895   1.436  10.971   3.179  2.3009  1.3775 -0.9187
   83MOL0     H10896   1.573  10.865   3.238 -2.8953 -2.6183  2.9904
   83MOL0     H10897   1.454  10.665   3.173 -3.3445 -0.7730 -3.1635
   83MOL0     H10898   1.313  10.762   3.144  1.4907 -2.2097 -3.3725
   83MOL0     H10899   1.429  10.776   3.416 -0.7014  0.3400  0.5489
   83MOL0     H10900   1.274  10.820   3.369 -0.2864  0.4774 -1.7944
   83MOL0     H10901   1.282  10.602   3.488  2.8740 -2.6293  0.1894
   83MOL0     H10902   1.375  10.539   3.354 -0.7389  0.0479 -0.4949
   83MOL0     H10903   1.162  10.594   3.208  0.4786  0.8744 -0.3397
   83MOL0     H10904   1.083  10.640   3.362 -0.7518 -1.4373 -0.9535
   83MOL0     H10905   1.185  10.363   3.351  0.8777  0.6283 -0.4662
   83MOL0     H10906   1.044  10.427   3.432 -0.0736 -4.6531 -0.9915
   83MOL0     H10907   1.046  10.277   3.203  0.6875  0.7245  0.8214
   83MOL0     H10908   1.088  10.424   3.131 -1.3167 -0.6594 -1.4062
   83MOL0     H10909   0.776  10.241   3.146  2.4568 -1.6059  1.5142
   83MOL0     H10910   0.531  10.288   3.125 -1.7992  0.2144 -0.2713
   83MOL0     H10911   0.548  10.429   3.007  0.1325 -0.0298  0.2049
   83MOL0     H10912   0.435  10.567   3.191 -3.4756 -0.4812  3.4924
   83MOL0     H10913   0.446  10.428   3.293  0.3615 -1.2197 -0.4732
   83MOL0     H10914   0.279  10.372   3.047  1.0037 -2.6214  0.5193
   83MOL0     H10915   0.281  10.297   3.206  0.0119  0.3565  0.5362
   83MOL0     H10916   0.191  10.579   3.231  0.4905  0.9756 -0.4384
   83MOL0     H10917   0.148  10.419   3.297  3.3038  0.1659  0.4651
   83MOL0     H10918  -0.073  10.353   3.306 -0.6373 -0.0715  0.4889
   83MOL0     H10919  -0.308  10.388   3.373  0.6978  0.5130  1.8897
   83MOL0     H10920  -0.769  10.566   3.150 -3.0969  0.3455 -0.8083
   83MOL0     H10921  -0.992  10.630   3.227  1.0076 -0.2477 -0.5504
   83MOL0     H10922  -1.181  10.676   3.313 -0.1077  0.5931 -0.7675
   83MOL0     H10923  -1.150  10.828   3.244  0.7788  0.2691  0.1435
   83MOL0     H10924  -1.306  10.796   3.506 -4.1269  1.2244 -0.1710
   83MOL0     H10925  -1.374  10.816   3.342  1.9481 -1.7121 -1.7432
   83MOL0     H10926  -1.267  11.037   3.311  0.6505  2.0269  0.9096
   83MOL0     H10927  -1.209  11.049   3.480 -0.5452  0.4850  0.9999
   83MOL0     H10928  -1.478  11.086   3.389  2.7570 -0.3068 -2.2441
   83MOL0     H10929  -1.476  10.973   3.524 -1.2004  0.0087  1.1195
   83MOL0     H10930  -1.360  11.246   3.501  2.3339 -1.9383 -0.1552
   83MOL0     H10931  -1.333  11.149   3.647 -0.8347 -2.4263  0.6576
   83MOL0     H10932  -1.576  11.102   3.660 -3.0500  1.6319  0.8792
   83MOL0     H10933  -1.614  11.212   3.532 -0.2891 -1.3580 -0.6094
   83MOL0     H10934  -1.452  11.306   3.780  0.2006 -0.8716  0.5131
   83MOL0     H10935  -1.492  11.408   3.652 -1.5973 -0.1102 -1.5680
   83MOL0     H10936  -1.654  11.285   3.877 -1.9698 -2.3371 -0.1255
   83MOL0     H10937  -1.749  11.305   3.734 -0.6589  0.5246  3.1064
   83MOL0     H10938  -0.850  10.908   3.489 -0.2592 -1.3806  0.0694
   83MOL0     H10939  -0.604  10.851   3.433 -1.0973  0.7010  0.0260
   83MOL0     H10940  -0.331  10.725   3.111 -0.5418 -0.9295 -0.7904
   83MOL0     H10941  -0.084  10.674   3.046  2.2556  0.6838  2.0585
   83MOL0     H10942   1.783  11.108   2.844 -1.2388  0.3420 -0.2689
   83MOL0     H10943   2.031  11.084   2.831 -1.8583  0.0118 -2.0487
   83MOL0     H10944   2.374  10.884   2.827  0.2897  1.2581  0.5183
   83MOL0     H10945   2.601  10.792   2.798 -1.4570 -0.1677 -0.3424
   83MOL0     H10946   2.821  10.641   3.165  0.6626 -1.7185 -0.2477
   83MOL0     H10947   2.921  10.774   3.142 -0.0457  0.4562 -0.3651
   83MOL0     H10948   3.039  10.562   3.088  0.3826 -0.0607 -0.7849
   83MOL0     H10949   2.916  10.536   2.964  1.4982 -1.1682  0.7222
   83MOL0     H10950   3.129  10.758   2.993  0.5581  0.2887 -1.1411
   83MOL0     H10951   3.010  10.745   2.857 -0.5366  2.1632  0.6964
   83MOL0     H10952   3.220  10.517   2.932  1.9784 -0.8473 -2.2922
   83MOL0     H10953   3.104  10.523   2.804 -0.8061 -1.3011  1.7638
   83MOL0     H10954   3.416  10.775   2.672  0.4543 -0.7787  0.6690
   83MOL0     H10955   2.653  10.749   3.222  1.8487 -2.5107 -2.5492
   83MOL0     H10956   2.412  10.835   3.245 -1.1151  0.0142 -0.8995
   84MOL0     O10957   2.458   2.664   1.643 -0.3329 -0.1266  0.0354
   84MOL0     C10958   2.423   2.766   1.587  1.7231  0.5485  0.5067
   84MOL0     O10959   2.301   2.794   1.527 -0.2164  0.3085 -0.3916
   84MOL0     C10960   2.187   2.721   1.562 -0.9941  0.3082  0.0399
   84MOL0     C10961   2.180   2.591   1.617 -0.8004 -0.5394  0.7282
   84MOL0     C10962   2.057   2.536   1.647  0.1997 -0.5040  0.3203
   84MOL0     C10963   1.938   2.611   1.634  0.4945 -0.1017  0.7852
   84MOL0     O10964   1.811   2.557   1.665 -0.7450 -0.0940  0.3987
   84MOL0     C10965   1.720   2.547   1.549  0.1654  1.1807  0.4018
   84MOL0     C10966   1.620   2.441   1.568 -0.2175  0.5556 -0.3593
   84MOL0     C10967   1.505   2.483   1.664  0.3287 -0.9445  0.0999
   84MOL0     C10968   1.417   2.366   1.711 -0.0648  0.7056  0.4309
   84MOL0     C10969   1.359   2.387   1.846  0.0683  0.6889 -0.8266
   84MOL0     C10970   1.470   2.392   1.957 -0.5001 -0.1336 -0.6151
   84MOL0     C10971   1.419   2.335   2.098  0.2245  0.4546 -0.4918
   84MOL0     C10972   1.517   2.350   2.218 -0.0662  0.2854  0.9688
   84MOL0     N10973   1.446   2.304   2.335  0.4461 -0.1595 -0.8007
   84MOL0     C10974   1.390   2.384   2.441  0.0091  0.2724 -0.7450
   84MOL0     C10975   1.361   2.293   2.532 -0.1404  1.6638  0.5310
   84MOL0     C10976   1.299   2.326   2.661  0.7044 -0.0347 -0.0657
   84MOL0     C10977   1.181   2.243   2.705  0.5838  1.0343  0.4777
   84MOL0     C10978   1.205   2.101   2.750 -0.1603  0.3352 -0.1730
   84MOL0     C10979   1.093   2.047   2.839 -0.5606 -0.1639  0.7999
   84MOL0     O10980   1.061   2.121   2.962  0.5419  0.3235 -0.1238
   84MOL0     C10981   0.930   2.180   2.970  0.0381  0.1888  0.1789
   84MOL0     C10982   0.814   2.129   2.913 -0.1957 -0.0479 -0.1210
   84MOL0     C10983   0.694   2.209   2.931  0.0041 -0.3520 -0.2214
   84MOL0     C10984   0.692   2.336   2.998 -0.3166  0.4905  0.5209
   84MOL0     C10985   0.567   2.416   3.016  0.0707  0.0873 -0.5067
   84MOL0     O10986   0.461   2.336   3.004 -0.6972  0.1710 -0.3122
   84MOL0     C10987   0.338   2.384   3.027  0.0966  0.2323  0.2128
   84MOL0     C10988   0.239   2.311   2.964 -0.2743  0.4272  0.1334
   84MOL0     C10989   0.102   2.335   2.997 -0.7056  0.0811 -0.4024
   84MOL0     C10990   0.060   2.439   3.082  0.8679  0.1732 -0.4311
   84MOL0     O10991  -0.074   2.456   3.114  0.3643  0.2140 -0.3465
   84MOL0     C10992  -0.154   2.519   3.017  0.4543 -0.1534  0.4904
   84MOL0     C10993  -0.284   2.452   3.038 -0.1794 -0.4916 -0.0165
   84MOL0     C10994  -0.292   2.309   2.973 -0.4126 -0.1164 -0.1813
   84MOL0     C10995  -0.441   2.281   2.941  0.2951  0.3889 -0.4849
   84MOL0     C10996  -0.465   2.148   2.878 -0.2753 -0.7218  0.4483
   84MOL0     C10997  -0.600   2.107   2.912  0.6440 -0.4596 -0.7218
   84MOL0     C10998  -0.615   1.965   2.861 -0.7248 -0.7166  0.4352
   84MOL0     C10999  -0.753   1.910   2.894 -0.0555 -1.3812  0.6113
   84MOL0    Cl11000  -0.886   1.968   2.782  0.0193  0.7164 -0.0778
   84MOL0     C11001   0.159   2.515   3.141  0.6643  0.0982  0.1863
   84MOL0     C11002   0.294   2.491   3.123  0.4574  0.2007  0.2412
   84MOL0     O11003   0.572   2.531   3.059 -0.2888 -0.2169 -0.4541
   84MOL0     C11004   0.816   2.386   3.039  0.0128  0.9849 -0.2321
   84MOL0     C11005   0.927   2.305   3.035 -0.0425  0.7822 -0.6201
   84MOL0     N11006   1.383   2.165   2.477 -0.2709 -0.9331 -0.4425
   84MOL0     N11007   1.435   2.168   2.369  0.1397 -0.5012 -0.0467
   84MOL0     C11008   1.944   2.738   1.583  0.7975 -0.2744  1.2228
   84MOL0     C11009   2.069   2.789   1.543  0.1896 -0.4306  0.3708
   84MOL0     C11010   2.526   2.870   1.600  0.3361 -0.6291  0.3718
   84MOL0     C11011   2.660   2.848   1.633 -0.3533  0.1944 -0.0898
   84MOL0     C11012   2.742   2.949   1.674 -0.6927 -0.1821  0.1712
   84MOL0     C11013   2.693   3.086   1.681  0.4023  0.1858  0.9555
   84MOL0     O11014   2.754   3.203   1.725 -0.3628 -0.1654  0.4610
   84MOL0     C11015   2.880   3.184   1.801  0.3146 -0.6262  0.4447
   84MOL0     C11016   2.936   3.322   1.847 -0.1581  0.1351 -0.7571
   84MOL0     C11017   3.014   3.413   1.749  0.0357  0.2143 -0.1721
   84MOL0     C11018   3.159   3.372   1.724 -0.6774  0.3794  0.1853
   84MOL0     C11019   3.234   3.373   1.851 -0.4140  0.4144  0.4943
   84MOL0     C11020   3.295   3.389   1.952 -0.5584  0.7449  0.3202
   84MOL0     C11021   2.555   3.114   1.637 -0.2968  0.4739  0.0599
   84MOL0     C11022   2.474   3.002   1.592 -0.9244  0.3778 -0.6958
   84MOL0     H11023   2.273   2.539   1.638  0.6185  2.2543  1.8089
   84MOL0     H11024   2.047   2.442   1.700  0.3118 -0.9330 -0.3987
   84MOL0     H11025   1.769   2.524   1.454 -2.4288 -0.9454 -0.5839
   84MOL0     H11026   1.666   2.642   1.545 -1.8846  0.0791  0.2219
   84MOL0     H11027   1.675   2.353   1.602  1.3781  0.1176 -3.6653
   84MOL0     H11028   1.563   2.412   1.479 -1.8649  1.7529  0.2489
   84MOL0     H11029   1.434   2.548   1.610  1.3168  1.1135  1.1707
   84MOL0     H11030   1.554   2.527   1.751  0.2015 -0.5838 -0.0072
   84MOL0     H11031   1.333   2.345   1.644  0.1435  2.0355 -0.2846
   84MOL0     H11032   1.467   2.269   1.706  0.1970  0.8187  0.8031
   84MOL0     H11033   1.293   2.303   1.871 -0.9906  2.1219  1.6047
   84MOL0     H11034   1.298   2.478   1.852  1.3063  1.4639  1.1043
   84MOL0     H11035   1.502   2.496   1.969 -3.1362  0.6464  0.3570
   84MOL0     H11036   1.557   2.340   1.915 -0.0464  0.6124 -0.6118
   84MOL0     H11037   1.331   2.394   2.124  0.5108  0.2452  1.0435
   84MOL0     H11038   1.390   2.231   2.082 -0.3576  0.5851 -0.2809
   84MOL0     H11039   1.538   2.457   2.231  0.6770 -0.1131  3.3424
   84MOL0     H11040   1.610   2.295   2.203 -0.1717  0.6241 -1.4440
   84MOL0     H11041   1.387   2.492   2.453 -0.2867  0.1016  1.0560
   84MOL0     H11042   1.269   2.430   2.647  1.6320  0.3057  0.4001
   84MOL0     H11043   1.384   2.320   2.729 -0.4068 -1.9794  1.2592
   84MOL0     H11044   1.113   2.247   2.619 -0.0161 -0.8549  0.8224
   84MOL0     H11045   1.130   2.298   2.785  0.8255  0.9453  0.6938
   84MOL0     H11046   1.216   2.037   2.661  0.1995  2.7598 -1.9574
   84MOL0     H11047   1.300   2.098   2.803 -0.3624 -2.2858  0.2138
   84MOL0     H11048   1.131   1.950   2.872  3.8787  0.3267 -1.9044
   84MOL0     H11049   1.011   2.023   2.771 -0.2934 -2.3214  1.1893
   84MOL0     H11050   0.816   2.041   2.850  0.7070  0.4036 -0.7556
   84MOL0     H11051   0.604   2.167   2.888  0.1491 -0.2141 -0.6688
   84MOL0     H11052   0.260   2.222   2.905 -2.3019 -1.4528  2.0674
   84MOL0     H11053   0.032   2.271   2.945 -1.9747  1.1811 -0.1144
   84MOL0     H11054  -0.123   2.508   2.913 -1.3661 -0.0828 -0.0987
   84MOL0     H11055  -0.156   2.627   3.038  0.0182 -0.0975  0.1844
   84MOL0     H11056  -0.366   2.508   2.993  0.1908 -0.5705 -0.7965
   84MOL0     H11057  -0.293   2.459   3.147 -0.6958  3.6714 -0.1548
   84MOL0     H11058  -0.255   2.233   3.042  0.3658  0.7511  0.3725
   84MOL0     H11059  -0.237   2.295   2.880  0.5965 -2.3873  0.6853
   84MOL0     H11060  -0.491   2.291   3.038  0.5735 -0.3755 -0.2521
   84MOL0     H11061  -0.480   2.366   2.885  1.7318  0.8676 -0.8088
   84MOL0     H11062  -0.395   2.068   2.906 -0.0507 -1.3370 -1.6757
   84MOL0     H11063  -0.455   2.147   2.769  1.2078 -1.4916  0.5624
   84MOL0     H11064  -0.670   2.172   2.859 -0.2120 -1.1753 -0.4994
   84MOL0     H11065  -0.616   2.107   3.020 -0.6195 -1.6675 -0.8737
   84MOL0     H11066  -0.591   1.960   2.754 -2.4055  0.6379 -0.0403
   84MOL0     H11067  -0.536   1.907   2.911  2.1109  0.7966 -1.9688
   84MOL0     H11068  -0.770   1.921   3.001  2.1576  0.2826  0.8635
   84MOL0     H11069  -0.747   1.804   2.866 -0.6058 -1.2208 -0.1606
   84MOL0     H11070   0.120   2.586   3.213  1.4393 -0.6912  1.4161
   84MOL0     H11071   0.358   2.544   3.194  1.7625 -1.4140  0.3418
   84MOL0     H11072   0.830   2.470   3.106 -1.1247  1.4934 -0.6162
   84MOL0     H11073   1.021   2.335   3.081  1.5052 -1.0906 -2.3929
   84MOL0     H11074   1.848   2.784   1.564  1.5825  0.2917 -2.0702
   84MOL0     H11075   2.061   2.895   1.519 -0.8606  0.2062  3.1859
   84MOL0     H11076   2.696   2.746   1.642  0.5121  0.6032  1.5382
   84MOL0     H11077   2.841   2.925   1.712 -1.1303 -0.9175  0.8863
   84MOL0     H11078   2.962   3.142   1.742  3.4892  3.2135  1.6326
   84MOL0     H11079   2.860   3.131   1.894 -0.0595 -0.2762  0.5677
   84MOL0     H11080   2.844   3.378   1.868 -1.0459 -1.3792 -0.4676
   84MOL0     H11081   2.986   3.318   1.944 -0.1976  2.6252 -0.5703
   84MOL0     H11082   3.023   3.512   1.794 -0.0409 -0.6377  1.8333
   84MOL0     H11083   2.958   3.424   1.656 -0.3218 -1.5967 -0.2171
   84MOL0     H11084   3.159   3.277   1.671 -1.9554  1.5076 -1.9708
   84MOL0     H11085   3.197   3.452   1.660 -0.4747  0.5449  0.5075
   84MOL0     H11086   3.363   3.412   2.032 -0.3678 -1.2837  0.8109
   84MOL0     H11087   2.512   3.212   1.616  3.2233  1.4267 -4.4263
   84MOL0     H11088   2.373   3.022   1.559 -0.9026 -0.1494 -1.0948
   85MOL0     O11089   6.500   8.944   4.872 -0.2144 -0.1277 -0.8453
   85MOL0     C11090   6.550   9.033   4.807  0.5085  0.2360 -0.6089
   85MOL0     O11091   6.481   9.121   4.723  1.0266  0.2023 -0.2427
   85MOL0     C11092   6.345   9.105   4.703  0.4129  0.0754 -1.2107
   85MOL0     C11093   6.251   9.081   4.802  0.6671  0.0409 -0.1921
   85MOL0     C11094   6.112   9.082   4.766 -0.5304  0.4771 -0.0510
   85MOL0     C11095   6.075   9.094   4.633  0.7534 -0.6654 -1.0140
   85MOL0     O11096   5.946   9.083   4.593 -0.0861  0.8811 -0.2030
   85MOL0     C11097   5.844   9.087   4.698  0.5223 -0.6987  0.1980
   85MOL0     C11098   5.713   9.055   4.627  0.6715  1.1340  0.4202
   85MOL0     C11099   5.576   9.077   4.716 -0.5389  0.9733 -0.1505
   85MOL0     C11100   5.451   9.022   4.650  0.9469 -0.4484 -0.5365
   85MOL0     C11101   5.322   9.055   4.734 -0.6738 -0.1307  0.6603
   85MOL0     C11102   5.205   8.972   4.672 -0.8343  0.2717  0.1688
   85MOL0     C11103   5.108   9.052   4.596  0.6815 -0.7696  0.6418
   85MOL0     C11104   4.986   8.976   4.544  0.0368 -0.1427 -0.0383
   85MOL0     N11105   4.888   8.930   4.649  0.0146  0.0784  0.3730
   85MOL0     C11106   4.768   8.984   4.694  0.8621 -0.4666  0.6937
   85MOL0     C11107   4.710   8.884   4.770  0.4938  0.0753 -0.7330
   85MOL0     C11108   4.611   8.901   4.879  1.1285 -0.5812  0.1184
   85MOL0     C11109   4.528   8.774   4.913  0.2365 -0.1990 -0.9108
   85MOL0     C11110   4.457   8.730   4.785  0.8419 -0.4968  0.5220
   85MOL0     C11111   4.348   8.640   4.802  0.2781 -0.1588  0.4108
   85MOL0     O11112   4.291   8.624   4.678 -0.3803  0.1094  0.6660
   85MOL0     C11113   4.171   8.568   4.660  0.1736  0.4502 -0.1017
   85MOL0     C11114   4.100   8.494   4.757  0.2174 -1.0205  0.9558
   85MOL0     C11115   3.962   8.463   4.739  0.1222  0.9716 -0.0879
   85MOL0     C11116   3.902   8.485   4.616  0.2655  0.8643 -0.2324
   85MOL0     C11117   3.757   8.442   4.591 -0.0464 -0.1476  0.3518
   85MOL0     O11118   3.698   8.488   4.485  0.4620 -0.2502  1.2586
   85MOL0     C11119   3.591   8.433   4.425 -0.8249 -0.3791 -1.0300
   85MOL0     C11120   3.531   8.312   4.451  0.4954 -0.1188 -0.1231
   85MOL0     C11121   3.416   8.267   4.377 -0.2356  0.1591 -0.2828
   85MOL0     C11122   3.359   8.335   4.268 -0.4066 -0.5585 -0.1954
   85MOL0     O11123   3.274   8.285   4.173 -0.1852  0.2673  0.2101
   85MOL0     C11124   3.170   8.195   4.208 -0.5077  0.6136  0.3633
   85MOL0     C11125   3.077   8.206   4.091 -0.4281  0.0577 -0.2679
   85MOL0     C11126   3.118   8.117   3.965  0.8674  0.5452 -0.0897
   85MOL0     C11127   3.266   8.128   3.927 -0.4185 -0.2598  0.5274
   85MOL0     C11128   3.292   8.069   3.790 -0.1410 -0.5432  0.0273
   85MOL0     C11129   3.439   8.079   3.738 -0.4645  0.7923 -0.3281
   85MOL0     C11130   3.463   7.994   3.608  0.5878  0.0654  0.4964
   85MOL0     C11131   3.495   7.842   3.628  0.4523 -0.9420  0.8404
   85MOL0    Cl11132   3.680   7.831   3.655  0.1003 -0.0750 -0.3020
   85MOL0     C11133   3.419   8.468   4.246  0.6708 -0.2558 -0.3503
   85MOL0     C11134   3.530   8.507   4.327 -0.5846 -0.6458  0.1816
   85MOL0     O11135   3.710   8.364   4.672  0.5363 -0.1043  0.4476
   85MOL0     C11136   3.965   8.565   4.524  1.0112  0.5862 -0.3670
   85MOL0     C11137   4.098   8.602   4.546 -0.6209 -0.2535  0.2873
   85MOL0     N11138   4.792   8.774   4.768 -0.0285 -0.6835  0.0704
   85MOL0     N11139   4.897   8.806   4.703  0.0242  0.0491  0.7644
   85MOL0     C11140   6.170   9.109   4.532  0.2974  0.9988 -0.1484
   85MOL0     C11141   6.298   9.113   4.574 -0.2131  0.4777  0.0955
   85MOL0     C11142   6.700   9.054   4.811  0.0717 -0.2482 -0.3296
   85MOL0     C11143   6.781   8.967   4.893 -0.5947 -0.4651  1.1226
   85MOL0     C11144   6.911   9.003   4.915 -0.2146  0.0606 -0.3318
   85MOL0     C11145   6.977   9.117   4.864  0.5795  0.0595  0.3532
   85MOL0     O11146   7.112   9.137   4.911  0.2418  0.2523 -0.1657
   85MOL0     C11147   7.163   9.273   4.915 -0.3336 -0.1106 -0.3098
   85MOL0     C11148   7.250   9.289   5.043  1.1381  0.7414 -0.1133
   85MOL0     C11149   7.373   9.191   5.036  0.0562 -0.1176  0.4222
   85MOL0     C11150   7.479   9.237   5.138  0.1986  0.1441 -0.5761
   85MOL0     C11151   7.593   9.152   5.114 -1.0141 -0.0174 -1.2652
   85MOL0     C11152   7.692   9.081   5.104  0.3415  0.1865  0.4532
   85MOL0     C11153   6.901   9.197   4.774  0.0291  0.1826  0.2316
   85MOL0     C11154   6.765   9.160   4.747  0.0614 -0.1274  0.7415
   85MOL0     H11155   6.272   9.070   4.908 -4.6488  1.7847  1.3340
   85MOL0     H11156   6.049   9.056   4.850  0.6318  0.0711  0.7068
   85MOL0     H11157   5.841   9.186   4.744  1.6194 -0.7433  0.4022
   85MOL0     H11158   5.864   9.011   4.775 -0.2115 -0.8495  0.2477
   85MOL0     H11159   5.716   8.948   4.607 -1.4643  0.7127  1.9719
   85MOL0     H11160   5.697   9.114   4.536  1.7928  1.4227  0.3924
   85MOL0     H11161   5.556   9.183   4.734 -0.0499  1.1655 -0.7131
   85MOL0     H11162   5.587   9.030   4.814  0.0656  0.6691 -0.3592
   85MOL0     H11163   5.449   9.064   4.550 -0.4500 -1.1019 -0.8139
   85MOL0     H11164   5.457   8.913   4.648 -1.4448 -0.6291 -1.1628
   85MOL0     H11165   5.296   9.161   4.733 -0.0726  0.0638  2.3706
   85MOL0     H11166   5.332   9.026   4.839  0.0328 -0.1288  0.5982
   85MOL0     H11167   5.155   8.916   4.753 -1.1784  0.1441 -0.1287
   85MOL0     H11168   5.236   8.888   4.610 -0.5064  0.9011 -0.5254
   85MOL0     H11169   5.073   9.130   4.665  2.3714 -2.1559  3.2633
   85MOL0     H11170   5.161   9.097   4.512  1.0346  1.5820  2.0360
   85MOL0     H11171   5.017   8.895   4.477 -1.2613 -1.7549  1.2211
   85MOL0     H11172   4.929   9.043   4.480 -1.1022  1.2731  2.3240
   85MOL0     H11173   4.739   9.089   4.689 -3.7515 -1.4215  2.0884
   85MOL0     H11174   4.536   8.978   4.856  2.1582  1.3613  2.8881
   85MOL0     H11175   4.671   8.933   4.964  3.4357  1.6466 -2.1767
   85MOL0     H11176   4.455   8.810   4.986  0.2823  0.5642 -1.2337
   85MOL0     H11177   4.594   8.694   4.948  2.1779  1.6455 -0.0889
   85MOL0     H11178   4.417   8.812   4.725  1.0010 -1.3988 -0.8561
   85MOL0     H11179   4.527   8.684   4.715 -0.5661 -0.9632 -0.6045
   85MOL0     H11180   4.273   8.680   4.872 -0.4201  0.6356 -0.7668
   85MOL0     H11181   4.386   8.544   4.840  0.3267 -0.4279 -0.3106
   85MOL0     H11182   4.155   8.471   4.848  2.0722 -2.0837 -0.3664
   85MOL0     H11183   3.906   8.410   4.816  2.2407 -1.6462 -0.1859
   85MOL0     H11184   3.574   8.235   4.514 -1.3940 -0.3419  0.9540
   85MOL0     H11185   3.379   8.167   4.396  2.1922 -0.8503 -0.4799
   85MOL0     H11186   3.119   8.218   4.303 -0.5748  0.7908  0.2854
   85MOL0     H11187   3.202   8.091   4.207 -1.3080  0.3309  1.3787
   85MOL0     H11188   3.065   8.309   4.057  2.4233 -0.4817 -3.4059
   85MOL0     H11189   2.975   8.178   4.121  0.3795  0.8248  3.7281
   85MOL0     H11190   3.060   8.141   3.876  0.9452  0.7078 -0.0972
   85MOL0     H11191   3.096   8.011   3.981  3.0878 -0.1851 -1.3970
   85MOL0     H11192   3.300   8.232   3.928 -0.9519 -0.0598 -0.5108
   85MOL0     H11193   3.318   8.073   4.006 -2.4316 -1.9842  0.7334
   85MOL0     H11194   3.224   8.118   3.720  0.1424 -0.2640 -0.0563
   85MOL0     H11195   3.257   7.966   3.791  0.1958 -0.6892 -1.6096
   85MOL0     H11196   3.505   8.045   3.818 -0.2606 -1.8883 -1.5457
   85MOL0     H11197   3.459   8.185   3.717 -1.6818  0.8121 -1.5507
   85MOL0     H11198   3.372   8.008   3.548  1.3908  0.2203 -0.7100
   85MOL0     H11199   3.549   8.032   3.552 -0.2409 -1.8759 -2.3492
   85MOL0     H11200   3.482   7.776   3.542  1.1019  1.2591 -1.0516
   85MOL0     H11201   3.424   7.820   3.708 -1.9005 -1.7093 -1.3465
   85MOL0     H11202   3.385   8.541   4.174 -0.9235 -1.8031 -1.2184
   85MOL0     H11203   3.570   8.603   4.296  0.8061 -1.5842 -1.0341
   85MOL0     H11204   3.912   8.593   4.434 -0.8927 -1.2118  0.0984
   85MOL0     H11205   4.140   8.645   4.456 -1.8126 -1.7746 -1.0798
   85MOL0     H11206   6.153   9.116   4.426  0.6249 -0.5321 -0.3344
   85MOL0     H11207   6.377   9.123   4.501 -0.5689  0.9828 -0.2268
   85MOL0     H11208   6.728   8.885   4.941  1.4139 -1.2032  2.2268
   85MOL0     H11209   6.966   8.939   4.983  0.2346  0.1608 -0.5927
   85MOL0     H11210   7.086   9.351   4.923  0.8907  0.9354  2.3081
   85MOL0     H11211   7.226   9.298   4.829 -2.9990  0.3177 -2.2660
   85MOL0     H11212   7.283   9.392   5.049 -2.2130  2.1618 -2.5629
   85MOL0     H11213   7.180   9.264   5.124 -0.2375  1.1799 -1.1202
   85MOL0     H11214   7.412   9.200   4.934 -1.7770 -0.8631 -0.3785
   85MOL0     H11215   7.340   9.088   5.050 -2.4349  0.5211 -0.3389
   85MOL0     H11216   7.504   9.341   5.116  2.4345 -0.5561 -1.6191
   85MOL0     H11217   7.436   9.234   5.239 -1.9130 -2.9568 -1.4237
   85MOL0     H11218   7.776   9.016   5.116  2.0092  2.3513  1.1838
   85MOL0     H11219   6.950   9.274   4.714  2.3010 -3.1656 -2.6812
   85MOL0     H11220   6.719   9.212   4.664  2.0441  0.6996  0.0855
   86MOL0     O11221   6.948   1.251   5.798  0.5474 -0.1217 -0.2446
   86MOL0     C11222   7.004   1.345   5.860 -0.6580  0.2931  0.3406
   86MOL0     O11223   6.999   1.360   5.992  0.2177 -0.1251 -0.2096
   86MOL0     C11224   6.926   1.267   6.056  0.7596 -0.6640  0.6767
   86MOL0     C11225   6.993   1.184   6.143 -0.8924 -0.3514 -0.1302
   86MOL0     C11226   6.920   1.083   6.204 -0.4738  0.3005  0.3547
   86MOL0     C11227   6.781   1.084   6.201 -0.0425 -0.2086 -0.9359
   86MOL0     O11228   6.719   0.979   6.255 -0.0992  0.1958 -0.0030
   86MOL0     C11229   6.573   0.982   6.281  0.1674 -0.3050  0.7823
   86MOL0     C11230   6.513   0.877   6.377  1.2441 -1.3751  0.5745
   86MOL0     C11231   6.364   0.915   6.417  0.9446  0.2313  0.8868
   86MOL0     C11232   6.256   0.911   6.305  1.0337 -0.1562  0.0556
   86MOL0     C11233   6.110   0.944   6.338 -0.6861  0.1861  0.0376
   86MOL0     C11234   6.051   0.841   6.441 -1.1632 -0.4360  0.4490
   86MOL0     C11235   5.898   0.860   6.436  0.1987 -0.6190 -0.1352
   86MOL0     C11236   5.852   0.738   6.536 -0.1428 -0.1050  0.2409
   86MOL0     N11237   5.708   0.750   6.570 -0.2360 -0.4854  0.0490
   86MOL0     C11238   5.609   0.658   6.549  0.5390 -0.1919 -1.0655
   86MOL0     C11239   5.509   0.702   6.632 -0.7691 -0.0862  1.0720
   86MOL0     C11240   5.384   0.625   6.657  0.7001  0.6089  0.0071
   86MOL0     C11241   5.352   0.565   6.800 -1.4141  0.1086  0.3162
   86MOL0     C11242   5.221   0.488   6.820 -0.0206 -0.6104  0.0912
   86MOL0     C11243   5.218   0.424   6.961 -0.7855  0.5731 -0.4827
   86MOL0     O11244   5.199   0.524   7.066  0.3850  0.8054  0.3225
   86MOL0     C11245   5.072   0.566   7.096 -0.7360 -0.1766 -0.4480
   86MOL0     C11246   5.051   0.665   7.198 -0.2585  1.0970  0.0803
   86MOL0     C11247   4.921   0.704   7.235 -0.0784 -0.2651 -0.0948
   86MOL0     C11248   4.812   0.643   7.189  0.5202 -0.1167  0.5782
   86MOL0     C11249   4.677   0.684   7.234  0.6075  0.1311 -0.5429
   86MOL0     O11250   4.668   0.815   7.271 -0.1105  0.1483 -0.3217
   86MOL0     C11251   4.552   0.883   7.306  0.8842 -0.9919 -0.6447
   86MOL0     C11252   4.563   0.996   7.390  0.1158 -0.6340  0.0440
   86MOL0     C11253   4.448   1.074   7.424  0.7391 -0.0313 -0.0675
   86MOL0     C11254   4.320   1.039   7.368  1.1317 -0.2089  0.0086
   86MOL0     O11255   4.210   1.114   7.387  0.6485 -0.1914 -0.2583
   86MOL0     C11256   4.191   1.176   7.513 -0.0747  0.2178 -0.0157
   86MOL0     C11257   4.040   1.173   7.557 -0.2631  0.2784  0.0385
   86MOL0     C11258   3.954   1.275   7.483 -0.3361  0.5054 -0.3219
   86MOL0     C11259   3.805   1.273   7.500  0.4503  0.0901 -0.3378
   86MOL0     C11260   3.722   1.386   7.441 -0.0147 -0.0698 -0.6057
   86MOL0     C11261   3.571   1.377   7.475 -0.1269  0.5232  0.0870
   86MOL0     C11262   3.499   1.504   7.422  0.3082 -0.1060 -0.4458
   86MOL0     C11263   3.350   1.515   7.461 -1.1544 -0.0364  0.5011
   86MOL0    Cl11264   3.247   1.365   7.437 -0.4540 -0.5818 -0.1141
   86MOL0     C11265   4.314   0.931   7.285  0.4483  0.4206 -0.7582
   86MOL0     C11266   4.423   0.847   7.270 -0.1230  0.4971 -1.1857
   86MOL0     O11267   4.583   0.610   7.209  0.5605 -0.3371  0.1000
   86MOL0     C11268   4.824   0.550   7.082  0.3726  0.5617  0.1879
   86MOL0     C11269   4.955   0.511   7.041 -1.2376  0.0542 -0.2239
   86MOL0     N11270   5.533   0.821   6.688 -0.2116  0.0943 -0.3665
   86MOL0     N11271   5.660   0.851   6.657  0.1990 -0.3694  0.2318
   86MOL0     C11272   6.715   1.186   6.130 -0.6390  0.2474  1.0198
   86MOL0     C11273   6.784   1.279   6.043  0.5569 -0.4554  0.5229
   86MOL0     C11274   7.071   1.457   5.795 -0.0769 -0.1233  0.6035
   86MOL0     C11275   7.142   1.558   5.865 -0.4876 -0.0827  0.4683
   86MOL0     C11276   7.196   1.657   5.793 -0.0721 -0.3920  0.5160
   86MOL0     C11277   7.178   1.670   5.650  1.3163  0.8648  0.0881
   86MOL0     O11278   7.230   1.767   5.578  0.1178 -0.2648 -0.0122
   86MOL0     C11279   7.275   1.890   5.630  0.2123  0.7081  0.0859
   86MOL0     C11280   7.372   1.955   5.526 -0.0409  0.8555  0.7837
   86MOL0     C11281   7.427   2.092   5.559 -0.3660 -0.3300  0.5064
   86MOL0     C11282   7.579   2.103   5.529 -0.3946 -0.5963 -0.7866
   86MOL0     C11283   7.660   2.017   5.620  0.8025  0.4314 -0.4355
   86MOL0     C11284   7.736   1.967   5.701 -0.1239 -0.8686  0.5885
   86MOL0     C11285   7.112   1.567   5.574 -0.6298 -0.0709 -0.5837
   86MOL0     C11286   7.055   1.465   5.653 -1.1724 -0.3469  0.1509
   86MOL0     H11287   7.101   1.183   6.129 -0.7832 -0.0429  0.6345
   86MOL0     H11288   6.963   0.997   6.256  0.6474 -0.9981 -2.5168
   86MOL0     H11289   6.522   0.987   6.184  0.3940  3.1302  0.7252
   86MOL0     H11290   6.559   1.078   6.332  0.4327 -0.3038  0.8535
   86MOL0     H11291   6.564   0.876   6.474  2.4000  0.3518  0.0267
   86MOL0     H11292   6.512   0.779   6.328  0.2720 -0.4132 -1.4308
   86MOL0     H11293   6.363   1.008   6.474  1.4268 -0.3747  1.9214
   86MOL0     H11294   6.338   0.840   6.492 -1.5197 -0.9447 -1.0156
   86MOL0     H11295   6.276   0.988   6.230 -0.7129 -1.3932 -1.7749
   86MOL0     H11296   6.257   0.814   6.254 -1.8429 -0.5030  0.4889
   86MOL0     H11297   6.047   0.954   6.249 -1.4784  1.6356  0.7226
   86MOL0     H11298   6.107   1.045   6.380  1.7221  0.2428  0.1947
   86MOL0     H11299   6.086   0.868   6.541 -1.9526 -1.8416  1.1343
   86MOL0     H11300   6.093   0.741   6.425 -0.5890  0.0519 -1.4228
   86MOL0     H11301   5.873   0.963   6.459  0.2934 -0.6806  0.2418
   86MOL0     H11302   5.852   0.835   6.340 -2.3214 -1.1480  1.1273
   86MOL0     H11303   5.902   0.726   6.633 -0.6034 -0.8453  0.3897
   86MOL0     H11304   5.880   0.643   6.490  0.3485  0.1663 -0.0389
   86MOL0     H11305   5.606   0.567   6.491 -1.0837 -0.5529 -0.4798
   86MOL0     H11306   5.361   0.548   6.582  1.4035  0.8797 -0.4919
   86MOL0     H11307   5.314   0.708   6.648  0.0425  0.0159 -0.5201
   86MOL0     H11308   5.359   0.651   6.867  1.2118  3.1174 -3.3701
   86MOL0     H11309   5.439   0.505   6.829 -0.9488  0.4625 -0.3064
   86MOL0     H11310   5.136   0.553   6.797  1.3211  1.5387  0.9468
   86MOL0     H11311   5.221   0.399   6.756 -1.1984 -0.5562 -0.0014
   86MOL0     H11312   5.313   0.374   6.983 -1.9689 -2.0740 -1.0410
   86MOL0     H11313   5.144   0.343   6.966  1.4026 -1.5584 -0.6264
   86MOL0     H11314   5.136   0.714   7.245  1.2801 -3.6137  2.9113
   86MOL0     H11315   4.929   0.792   7.298 -0.3893  3.2205 -4.4528
   86MOL0     H11316   4.659   1.030   7.426 -1.3466  2.1761  1.6292
   86MOL0     H11317   4.460   1.172   7.470 -3.0134  1.3111 -1.5213
   86MOL0     H11318   4.229   1.278   7.524  1.4781 -0.2541 -0.7075
   86MOL0     H11319   4.242   1.119   7.591 -1.9313  0.2497  1.2742
   86MOL0     H11320   4.049   1.197   7.663  0.2855  0.9750 -0.1602
   86MOL0     H11321   3.998   1.072   7.546  0.4083 -0.0339  0.2915
   86MOL0     H11322   3.984   1.267   7.378 -0.9307  0.0378 -0.4660
   86MOL0     H11323   3.987   1.372   7.519 -0.0362 -0.7999  3.3390
   86MOL0     H11324   3.773   1.182   7.449  0.5108  0.2838 -0.7246
   86MOL0     H11325   3.775   1.263   7.605  0.2123  0.2220 -0.3915
   86MOL0     H11326   3.732   1.391   7.333 -0.5934  1.7577 -0.6140
   86MOL0     H11327   3.765   1.481   7.477  1.4771 -0.6215 -0.8399
   86MOL0     H11328   3.552   1.373   7.583 -3.2128 -1.1210 -0.3860
   86MOL0     H11329   3.527   1.289   7.426  0.9831  0.1090 -0.1875
   86MOL0     H11330   3.553   1.591   7.462 -0.4671  0.8520 -1.4013
   86MOL0     H11331   3.500   1.500   7.313  2.0468  1.1366 -0.5154
   86MOL0     H11332   3.316   1.608   7.413  1.7825  0.6577 -0.4149
   86MOL0     H11333   3.347   1.529   7.570 -0.0142 -1.5511  0.7623
   86MOL0     H11334   4.222   0.913   7.230 -0.5550  0.8113  0.7047
   86MOL0     H11335   4.401   0.758   7.210  2.4721 -0.5741 -0.6803
   86MOL0     H11336   4.736   0.515   7.029 -0.4762  1.4365  0.9749
   86MOL0     H11337   4.972   0.446   6.955  1.7099 -1.1900  1.1576
   86MOL0     H11338   6.608   1.203   6.121 -0.0404  3.3827 -2.7360
   86MOL0     H11339   6.732   1.347   5.976 -1.3992 -1.5542  0.8520
   86MOL0     H11340   7.161   1.548   5.971  0.3594 -0.5704  0.2795
   86MOL0     H11341   7.255   1.733   5.844 -0.6067  0.6998 -0.4615
   86MOL0     H11342   7.342   1.865   5.713  1.1688  1.5667 -0.4043
   86MOL0     H11343   7.193   1.957   5.658  2.4014  4.4652 -1.7128
   86MOL0     H11344   7.454   1.885   5.510  0.0824  1.0836  0.4136
   86MOL0     H11345   7.315   1.973   5.434 -1.5081  0.0514  1.4855
   86MOL0     H11346   7.400   2.125   5.660 -1.1617  0.9047 -0.0916
   86MOL0     H11347   7.383   2.165   5.491  0.8789  0.4850  0.5481
   86MOL0     H11348   7.599   2.076   5.425 -1.2943 -2.5446 -0.5089
   86MOL0     H11349   7.619   2.204   5.536 -0.1849 -0.7561  0.7050
   86MOL0     H11350   7.808   1.925   5.768 -1.4718 -1.2551  1.8330
   86MOL0     H11351   7.091   1.578   5.468 -1.8695 -0.2500 -0.3780
   86MOL0     H11352   7.014   1.383   5.595 -1.0504 -1.8841  2.1335
   87MOL0     O11353   4.613   5.031   0.244  0.2721 -0.4121 -0.1987
   87MOL0     C11354   4.686   5.099   0.177  0.2517  0.3955 -0.2830
   87MOL0     O11355   4.655   5.221   0.120  0.1660  0.0659  0.0085
   87MOL0     C11356   4.523   5.248   0.084  0.2091  0.0088 -0.4258
   87MOL0     C11357   4.451   5.331   0.170 -0.3928  0.5356 -0.3597
   87MOL0     C11358   4.314   5.352   0.130  0.7173 -0.2473  0.9077
   87MOL0     C11359   4.252   5.292   0.020 -0.0386  0.2708 -0.4411
   87MOL0     O11360   4.126   5.313  -0.029  0.1128 -0.0938 -0.3331
   87MOL0     C11361   4.023   5.358   0.057 -0.2329 -0.3345  0.3817
   87MOL0     C11362   3.890   5.360  -0.018 -0.2640 -0.8103  0.0988
   87MOL0     C11363   3.782   5.418   0.076 -0.1036  0.4668 -0.1335
   87MOL0     C11364   3.650   5.379   0.008  1.3570 -0.3124 -0.0040
   87MOL0     C11365   3.539   5.479   0.054 -0.3469  0.5754  0.0154
   87MOL0     C11366   3.402   5.455  -0.001  1.0069  0.3981  0.4664
   87MOL0     C11367   3.291   5.564   0.028  0.5158  1.2855  1.5962
   87MOL0     C11368   3.232   5.543   0.160  0.3066 -0.0844 -0.2082
   87MOL0     N11369   3.135   5.431   0.164 -0.0824 -0.4064  0.0603
   87MOL0     C11370   3.000   5.437   0.121 -0.3704  0.5655  0.6219
   87MOL0     C11371   2.947   5.311   0.144  0.6011 -0.5141  0.1641
   87MOL0     C11372   2.806   5.239   0.116  0.0048 -0.3345 -0.4045
   87MOL0     C11373   2.695   5.313   0.039  1.2005  0.8980  0.5105
   87MOL0     C11374   2.588   5.228  -0.020 -0.3197  0.7981  0.1251
   87MOL0     C11375   2.468   5.309  -0.066  0.9207 -0.1363  0.1335
   87MOL0     O11376   2.419   5.385   0.054 -0.3274 -0.3508 -0.7095
   87MOL0     C11377   2.292   5.440   0.062 -0.8859 -0.7001  0.5673
   87MOL0     C11378   2.256   5.507   0.179  0.1380  0.5500 -0.2458
   87MOL0     C11379   2.131   5.566   0.196 -0.1632 -0.0253 -0.2471
   87MOL0     C11380   2.033   5.560   0.093 -0.3439  0.4792  0.5137
   87MOL0     C11381   1.900   5.620   0.115  0.8207  0.4647  0.5516
   87MOL0     O11382   1.882   5.678   0.236  0.2340 -0.0413 -0.2857
   87MOL0     C11383   1.758   5.735   0.279  0.4888  0.1965  0.1247
   87MOL0     C11384   1.754   5.863   0.333 -0.6108 -0.3607 -0.2408
   87MOL0     C11385   1.630   5.923   0.361  0.2551  0.5249  0.2003
   87MOL0     C11386   1.507   5.862   0.330 -1.0206  0.0906  0.4001
   87MOL0     O11387   1.394   5.941   0.356  0.1506  0.4745 -0.1298
   87MOL0     C11388   1.270   5.875   0.349  0.0919 -0.8673  0.1708
   87MOL0     C11389   1.163   5.983   0.344  0.2335 -0.3954 -1.0484
   87MOL0     C11390   1.033   5.906   0.307  0.7234  0.7250 -0.6358
   87MOL0     C11391   0.922   6.005   0.278  0.3962 -0.4141  0.0646
   87MOL0     C11392   0.795   5.932   0.226  0.3272 -0.4792 -0.1449
   87MOL0     C11393   0.680   6.030   0.173  0.2931  0.2223  1.1122
   87MOL0     C11394   0.576   6.081   0.276 -0.7074 -1.0222 -0.6169
   87MOL0     C11395   0.494   6.204   0.245 -0.3847  0.0733  0.2816
   87MOL0    Cl11396   0.426   6.195   0.071 -0.2104  0.1761  0.0132
   87MOL0     C11397   1.512   5.737   0.263  0.8737  0.4665  0.0263
   87MOL0     C11398   1.635   5.669   0.243 -0.3120 -0.1108  0.5149
   87MOL0     O11399   1.820   5.626   0.022 -0.5038 -0.3921  0.1926
   87MOL0     C11400   2.070   5.499  -0.027 -0.4821 -0.5186  1.2445
   87MOL0     C11401   2.194   5.440  -0.040 -1.0137 -0.1969  0.5603
   87MOL0     N11402   3.048   5.235   0.193 -0.0114 -0.4662 -0.4287
   87MOL0     N11403   3.163   5.304   0.207  0.2452 -0.2983 -0.0656
   87MOL0     C11404   4.336   5.211  -0.057 -0.2886  1.2329  0.7025
   87MOL0     C11405   4.470   5.191  -0.033  0.1883 -0.4045 -0.7017
   87MOL0     C11406   4.827   5.060   0.166 -0.6982  0.8274  0.7540
   87MOL0     C11407   4.884   4.952   0.241  0.2573  0.2674 -0.5843
   87MOL0     C11408   5.019   4.912   0.239  0.7628 -0.0989  1.4053
   87MOL0     C11409   5.105   4.990   0.162  0.2073  0.1582 -0.4173
   87MOL0     O11410   5.243   4.966   0.157 -0.4742 -0.7474  0.4506
   87MOL0     C11411   5.309   4.988   0.286  0.4186  0.8336  0.7392
   87MOL0     C11412   5.435   5.065   0.262  0.4306 -0.8669 -0.0789
   87MOL0     C11413   5.517   5.093   0.389  0.0521 -0.0153 -0.7167
   87MOL0     C11414   5.661   5.140   0.353  0.3577 -0.3783  0.6815
   87MOL0     C11415   5.735   5.159   0.477  0.0850 -0.8718 -0.2239
   87MOL0     C11416   5.783   5.154   0.589 -0.5096 -0.8778 -0.7084
   87MOL0     C11417   5.054   5.089   0.074  0.8632 -0.3667  0.4072
   87MOL0     C11418   4.919   5.121   0.073  0.4358 -0.2446  0.7489
   87MOL0     H11419   4.498   5.380   0.255  0.4996  1.8653 -1.5688
   87MOL0     H11420   4.257   5.426   0.187 -0.5418  0.6029 -1.3224
   87MOL0     H11421   4.038   5.461   0.089 -3.0580 -0.1503  1.3634
   87MOL0     H11422   4.028   5.286   0.140  0.9598 -1.2226 -0.4252
   87MOL0     H11423   3.862   5.257  -0.040 -2.1777 -0.6057  1.3720
   87MOL0     H11424   3.886   5.419  -0.110 -0.6780  0.2011  0.7396
   87MOL0     H11425   3.783   5.527   0.076  1.7855  0.4843 -0.4772
   87MOL0     H11426   3.778   5.373   0.175  1.5431  0.7425  0.0826
   87MOL0     H11427   3.658   5.387  -0.101 -0.7486  1.2940 -0.1185
   87MOL0     H11428   3.617   5.277   0.027 -0.0460 -0.0624 -0.9241
   87MOL0     H11429   3.573   5.576   0.014 -2.6978  0.9868 -1.1501
   87MOL0     H11430   3.530   5.478   0.163 -2.2940 -2.9416 -0.0655
   87MOL0     H11431   3.358   5.361   0.034  2.5452 -1.4496 -2.1460
   87MOL0     H11432   3.411   5.447  -0.110 -1.9016  0.4448  0.1285
   87MOL0     H11433   3.349   5.657   0.022  0.7277  1.1157  0.8691
   87MOL0     H11434   3.216   5.565  -0.051  0.8920  2.4730  1.2266
   87MOL0     H11435   3.173   5.633   0.177  1.2792  0.2678  1.6731
   87MOL0     H11436   3.308   5.534   0.239  1.6508 -0.9752 -1.5518
   87MOL0     H11437   2.951   5.515   0.062 -1.1135 -1.1115 -1.0941
   87MOL0     H11438   2.768   5.220   0.217 -0.2919 -1.3391 -0.6930
   87MOL0     H11439   2.820   5.148   0.057 -0.1075 -1.1769  0.8389
   87MOL0     H11440   2.732   5.364  -0.051 -3.1320 -0.3772 -2.2851
   87MOL0     H11441   2.646   5.376   0.113 -1.9070 -1.8504  1.0092
   87MOL0     H11442   2.627   5.189  -0.114  2.8755  2.8627  0.4295
   87MOL0     H11443   2.558   5.147   0.047 -1.7831  1.0618 -0.1740
   87MOL0     H11444   2.391   5.249  -0.117  0.7750 -1.5379  1.8958
   87MOL0     H11445   2.500   5.390  -0.132 -0.7553 -0.2198 -0.8310
   87MOL0     H11446   2.334   5.511   0.255  1.7355  0.0726 -1.7973
   87MOL0     H11447   2.120   5.628   0.284  2.1077 -0.2856  0.2648
   87MOL0     H11448   1.843   5.924   0.344 -0.8943 -0.1295  0.8830
   87MOL0     H11449   1.629   6.023   0.402  0.9835  0.1429  1.1934
   87MOL0     H11450   1.260   5.826   0.446 -0.5038 -1.1936 -0.0474
   87MOL0     H11451   1.257   5.799   0.271 -1.0146 -0.5815  0.0625
   87MOL0     H11452   1.183   6.054   0.264 -2.2853 -0.1986 -1.5918
   87MOL0     H11453   1.140   6.028   0.441  0.0778 -1.0733 -0.7619
   87MOL0     H11454   1.000   5.843   0.390 -1.8768  0.3301 -1.8861
   87MOL0     H11455   1.038   5.842   0.219 -2.1605  2.2225 -2.0281
   87MOL0     H11456   0.900   6.069   0.364  1.9942  1.5671 -0.9116
   87MOL0     H11457   0.957   6.070   0.197  1.2218 -0.4241  0.4030
   87MOL0     H11458   0.758   5.877   0.312  2.4821  0.6100  1.5927
   87MOL0     H11459   0.814   5.864   0.143 -1.4345 -1.3427  0.1224
   87MOL0     H11460   0.632   5.990   0.083  0.7853  3.4938 -0.7463
   87MOL0     H11461   0.730   6.117   0.129  0.3190 -0.6321 -0.6290
   87MOL0     H11462   0.501   6.002   0.287  0.3051 -1.8935  0.3600
   87MOL0     H11463   0.630   6.102   0.369  2.0571  4.0647 -2.9175
   87MOL0     H11464   0.564   6.288   0.237  0.7529 -1.0077 -2.5014
   87MOL0     H11465   0.415   6.221   0.319  0.4228  0.6020  1.0482
   87MOL0     H11466   1.420   5.704   0.216  1.0775 -2.8755  1.6690
   87MOL0     H11467   1.640   5.574   0.190  0.6659  0.1649  0.0909
   87MOL0     H11468   1.999   5.491  -0.108 -1.0818 -1.4255  1.8467
   87MOL0     H11469   2.227   5.393  -0.132 -1.3523 -0.9809  0.8342
   87MOL0     H11470   4.292   5.152  -0.137  2.6264 -1.0971  0.6233
   87MOL0     H11471   4.525   5.132  -0.105  1.6959 -0.4112  0.4025
   87MOL0     H11472   4.815   4.922   0.320 -0.8193  1.8866 -0.8683
   87MOL0     H11473   5.064   4.840   0.306  3.2500 -1.5536 -1.5730
   87MOL0     H11474   5.331   4.890   0.328  4.8283  1.0374 -0.6101
   87MOL0     H11475   5.241   5.038   0.356 -0.6182  0.5343 -0.0362
   87MOL0     H11476   5.489   5.015   0.181 -0.2206 -1.9825  0.1659
   87MOL0     H11477   5.405   5.159   0.214 -0.0355 -1.3351 -0.7191
   87MOL0     H11478   5.527   5.002   0.449  0.2404 -1.1993 -2.4819
   87MOL0     H11479   5.472   5.166   0.457 -0.9423 -0.5933 -0.7339
   87MOL0     H11480   5.714   5.063   0.297  0.2947 -1.3675  1.9303
   87MOL0     H11481   5.644   5.227   0.289 -2.2032 -1.7843 -0.6976
   87MOL0     H11482   5.837   5.141   0.681 -1.8587 -1.4302  0.0307
   87MOL0     H11483   5.121   5.145   0.010  1.2645 -0.5693  0.6423
   87MOL0     H11484   4.880   5.195   0.004  0.8247  0.6828  1.5132
   88MOL0     O11485   1.042   8.468   8.202  0.3067 -0.1958 -0.2435
   88MOL0     C11486   1.061   8.348   8.228  0.0138 -0.1573  0.1218
   88MOL0     O11487   1.090   8.296   8.355 -0.4613  0.0869  0.1254
   88MOL0     C11488   1.082   8.370   8.474  0.7149  0.1853  0.3301
   88MOL0     C11489   1.151   8.322   8.585 -1.0008  0.1935 -0.1466
   88MOL0     C11490   1.141   8.391   8.709  0.2943  0.2191 -0.8275
   88MOL0     C11491   1.057   8.505   8.721 -0.7738  0.1311 -1.0525
   88MOL0     O11492   1.044   8.583   8.837 -0.0245  0.9591  1.4976
   88MOL0     C11493   1.070   8.525   8.971  0.4893  0.4556 -0.2983
   88MOL0     C11494   1.064   8.636   9.082  0.1404 -0.4257  0.5368
   88MOL0     C11495   0.923   8.697   9.091 -0.8480 -0.2153  0.0549
   88MOL0     C11496   0.925   8.809   9.198 -0.7518 -0.4936 -0.1017
   88MOL0     C11497   0.785   8.867   9.218  0.0817  0.0018  0.6300
   88MOL0     C11498   0.777   8.945   9.349 -0.5465 -0.1339  0.6887
   88MOL0     C11499   0.858   9.077   9.358  0.6574 -0.5689  0.4615
   88MOL0     C11500   0.798   9.185   9.261  0.2471  1.1541  0.6186
   88MOL0     N11501   0.700   9.270   9.331  0.5796 -0.1001  0.0907
   88MOL0     C11502   0.720   9.367   9.422  0.7588 -0.2259  0.1014
   88MOL0     C11503   0.600   9.427   9.431  0.7165  0.2406 -0.5131
   88MOL0     C11504   0.573   9.562   9.502 -0.1240  0.1868 -0.5247
   88MOL0     C11505   0.430   9.552   9.561 -0.2480  0.9074  0.4037
   88MOL0     C11506   0.323   9.626   9.478  0.9203  0.0611  0.1992
   88MOL0     C11507   0.181   9.595   9.536  0.4807 -0.1997  0.1648
   88MOL0     O11508   0.081   9.692   9.505  0.3951 -0.3415  0.0909
   88MOL0     C11509  -0.049   9.666   9.542 -0.1222  0.6676 -0.6259
   88MOL0     C11510  -0.144   9.640   9.443 -0.4190 -0.5918  0.3336
   88MOL0     C11511  -0.273   9.625   9.482 -0.4318 -0.2463  0.7938
   88MOL0     C11512  -0.318   9.638   9.617 -1.1986 -0.0273  1.3850
   88MOL0     C11513  -0.466   9.638   9.650 -0.4576 -0.1757  0.1014
   88MOL0     O11514  -0.482   9.682   9.775  0.0861  0.0176  0.1056
   88MOL0     C11515  -0.598   9.721   9.828 -0.8313  0.2918 -0.3573
   88MOL0     C11516  -0.723   9.741   9.771  0.0945 -0.1260  0.6580
   88MOL0     C11517  -0.833   9.786   9.843 -0.0153  0.1066  0.2548
   88MOL0     C11518  -0.814   9.825   9.976  0.1786 -0.3026 -0.0899
   88MOL0     O11519  -0.923   9.864  10.045 -0.1154 -0.2710  0.2487
   88MOL0     C11520  -0.930   9.867  10.186 -0.6305  0.5431 -0.1662
   88MOL0     C11521  -1.072   9.892  10.246 -0.1513 -0.6168 -0.0477
   88MOL0     C11522  -1.113  10.040  10.211  0.0969 -0.0245 -0.2146
   88MOL0     C11523  -1.241  10.090  10.283 -0.6466  0.4612 -0.1483
   88MOL0     C11524  -1.316  10.197  10.205  0.0908  0.4623  0.3959
   88MOL0     C11525  -1.434  10.257  10.284  0.4608  0.1804 -0.0939
   88MOL0     C11526  -1.508  10.363  10.196 -0.2433  0.3096  0.5300
   88MOL0     C11527  -1.606  10.454  10.268  0.3035  0.1310 -0.2056
   88MOL0    Cl11528  -1.538  10.575  10.376 -0.2957 -0.0758  0.5691
   88MOL0     C11529  -0.692   9.801  10.034 -0.1739  0.6641 -0.2845
   88MOL0     C11530  -0.586   9.751   9.966  0.0027 -0.2916 -0.3513
   88MOL0     O11531  -0.551   9.616   9.565 -0.8321  0.2071  1.2367
   88MOL0     C11532  -0.218   9.662   9.712  0.1019  0.3428 -0.6059
   88MOL0     C11533  -0.088   9.665   9.671 -0.0081  0.6669 -0.4901
   88MOL0     N11534   0.506   9.347   9.366  0.1366  0.0556  0.8886
   88MOL0     N11535   0.566   9.251   9.311  0.2348 -0.4701 -0.1536
   88MOL0     C11536   0.984   8.549   8.615 -0.1380 -0.1736 -0.3251
   88MOL0     C11537   1.001   8.484   8.496 -1.0200 -0.1258  0.4601
   88MOL0     C11538   1.072   8.243   8.114 -0.4132  0.5756 -0.4098
   88MOL0     C11539   1.102   8.275   7.982  0.3871  0.1302 -0.7800
   88MOL0     C11540   1.125   8.181   7.884 -1.1727  1.0071  0.1806
   88MOL0     C11541   1.103   8.041   7.914 -0.2630  0.0968 -0.0328
   88MOL0     O11542   1.089   7.939   7.815 -0.3415 -0.3109 -0.4038
   88MOL0     C11543   1.153   7.967   7.691 -0.4290  0.4504  0.5839
   88MOL0     C11544   1.305   7.957   7.689  0.3059  0.3498 -1.3942
   88MOL0     C11545   1.356   7.845   7.775 -0.0088 -0.5116 -0.2737
   88MOL0     C11546   1.510   7.827   7.782  0.1626  0.1789 -0.3074
   88MOL0     C11547   1.565   7.779   7.657  0.8366 -0.5793 -0.0797
   88MOL0     C11548   1.629   7.746   7.563  0.2474 -0.2329 -0.2095
   88MOL0     C11549   1.073   8.007   8.039  0.7038 -0.5685  0.2564
   88MOL0     C11550   1.060   8.100   8.141 -0.0591 -0.7211  0.1306
   88MOL0     H11551   1.219   8.241   8.561  0.8475  2.2285 -2.2710
   88MOL0     H11552   1.206   8.349   8.786 -0.2500  2.3633  0.8998
   88MOL0     H11553   1.169   8.478   8.975  2.1097  3.7223  2.4836
   88MOL0     H11554   0.995   8.449   8.996  1.8673 -0.7162  0.4921
   88MOL0     H11555   1.128   8.717   9.048 -2.1871  1.5469  0.5416
   88MOL0     H11556   1.100   8.604   9.180  0.0445 -0.2337  0.6352
   88MOL0     H11557   0.842   8.629   9.120 -1.3434 -0.6216 -2.1277
   88MOL0     H11558   0.890   8.744   8.998 -0.6375  1.0730  0.6164
   88MOL0     H11559   0.963   8.768   9.292 -0.9653 -0.2392  0.0952
   88MOL0     H11560   0.990   8.888   9.159  0.2616 -1.9478 -1.5281
   88MOL0     H11561   0.716   8.782   9.226  2.2683 -1.9856 -0.1919
   88MOL0     H11562   0.756   8.922   9.128  0.0763 -1.4062 -0.2706
   88MOL0     H11563   0.820   8.881   9.427  1.6379  1.3086  0.7651
   88MOL0     H11564   0.674   8.967   9.375 -0.5745 -0.1972  0.6325
   88MOL0     H11565   0.866   9.116   9.460 -1.8291  1.5753 -0.0658
   88MOL0     H11566   0.960   9.067   9.319  0.2415  3.7220 -2.3193
   88MOL0     H11567   0.750   9.131   9.179 -1.9154 -0.2770  2.6978
   88MOL0     H11568   0.876   9.257   9.234 -1.1558  2.3792 -0.3472
   88MOL0     H11569   0.815   9.401   9.461  1.6097 -2.0656 -0.2815
   88MOL0     H11570   0.573   9.633   9.418 -2.0274 -1.2582 -1.8092
   88MOL0     H11571   0.656   9.572   9.573  1.9690 -0.8227 -2.6561
   88MOL0     H11572   0.427   9.584   9.665 -2.3737 -0.7524  0.9181
   88MOL0     H11573   0.399   9.448   9.577  2.7294 -0.2689 -0.5678
   88MOL0     H11574   0.351   9.731   9.475  3.7178 -0.6126 -2.0758
   88MOL0     H11575   0.318   9.592   9.374  0.0421  0.6835  0.0220
   88MOL0     H11576   0.188   9.598   9.645  2.6668 -1.2292  0.1252
   88MOL0     H11577   0.140   9.496   9.514 -1.2141  0.0609  1.8963
   88MOL0     H11578  -0.106   9.648   9.342  0.6657  0.7847  0.8184
   88MOL0     H11579  -0.349   9.615   9.405 -0.4687  0.4610  0.7258
   88MOL0     H11580  -0.741   9.714   9.667 -2.7394 -2.0071  1.5227
   88MOL0     H11581  -0.938   9.796   9.815 -0.6193  0.6535  2.5476
   88MOL0     H11582  -0.868   9.954  10.214 -1.0505  0.9710 -0.5556
   88MOL0     H11583  -0.886   9.775  10.226 -1.0217  0.2374 -0.4386
   88MOL0     H11584  -1.073   9.876  10.355 -0.2506  1.6987  0.3549
   88MOL0     H11585  -1.131   9.816  10.195  1.1598 -0.8849 -1.2015
   88MOL0     H11586  -1.137  10.047  10.105  2.4611 -1.6265 -0.9236
   88MOL0     H11587  -1.029  10.107  10.236  2.3502 -3.6721  3.2532
   88MOL0     H11588  -1.304  10.001  10.287  0.6600 -0.4451  1.4854
   88MOL0     H11589  -1.231  10.124  10.386 -1.5933  0.9441 -0.2072
   88MOL0     H11590  -1.345  10.156  10.108 -0.9168 -0.5876  1.1168
   88MOL0     H11591  -1.254  10.283  10.176 -1.2145  1.1417 -0.4908
   88MOL0     H11592  -1.387  10.321  10.360  0.2143  3.4898 -2.5163
   88MOL0     H11593  -1.496  10.180  10.332 -0.4816 -0.5396 -2.3617
   88MOL0     H11594  -1.431  10.426  10.151 -1.8958  1.3959 -0.8774
   88MOL0     H11595  -1.562  10.307  10.119 -4.1004  3.2749  0.7815
   88MOL0     H11596  -1.674  10.397  10.333 -2.3637  3.7724  0.5193
   88MOL0     H11597  -1.671  10.497  10.192 -0.6236  2.9465  1.9859
   88MOL0     H11598  -0.690   9.803  10.143 -0.4733  0.9362 -0.2818
   88MOL0     H11599  -0.494   9.734  10.022 -0.6877  0.4085  1.0571
   88MOL0     H11600  -0.248   9.651   9.815 -1.8619  0.7303 -1.1019
   88MOL0     H11601  -0.014   9.685   9.748 -2.4987 -1.1641  2.6330
   88MOL0     H11602   0.916   8.632   8.636  0.3954 -0.4663  3.1560
   88MOL0     H11603   0.935   8.514   8.415 -1.1014  1.8959  1.2293
   88MOL0     H11604   1.132   8.377   7.963  3.3064 -0.4965  0.0314
   88MOL0     H11605   1.160   8.208   7.785 -0.5457  0.3989  0.2275
   88MOL0     H11606   1.113   8.056   7.641  1.2007  0.5475 -0.6484
   88MOL0     H11607   1.105   7.888   7.632 -0.3600 -0.4255  1.6738
   88MOL0     H11608   1.317   7.923   7.586 -2.2080 -2.6036 -0.8577
   88MOL0     H11609   1.354   8.053   7.710 -2.5537  1.3877  1.3368
   88MOL0     H11610   1.311   7.763   7.719  0.9172  0.6081 -2.7559
   88MOL0     H11611   1.319   7.849   7.878  1.3667 -1.8476  0.3123
   88MOL0     H11612   1.560   7.919   7.816  1.4180 -1.0856  1.4364
   88MOL0     H11613   1.542   7.747   7.849  2.3062  1.6681  0.5444
   88MOL0     H11614   1.689   7.708   7.483  0.6282 -0.6976  0.2863
   88MOL0     H11615   1.058   7.903   8.066 -1.0908 -1.2218 -2.8559
   88MOL0     H11616   1.055   8.064   8.244  1.2723 -0.6030  0.2519
   89MOL0     O11617   8.879   1.527   2.226  0.2632  0.3905 -0.1688
   89MOL0     C11618   8.939   1.523   2.119 -0.1494  0.3783 -0.5461
   89MOL0     O11619   8.892   1.515   1.992 -0.8506 -0.2176  0.0035
   89MOL0     C11620   8.761   1.480   1.982 -0.4745  0.9361 -0.0092
   89MOL0     C11621   8.660   1.566   1.964 -0.5679 -0.5983 -0.6650
   89MOL0     C11622   8.526   1.527   1.951  0.2141  0.4535 -0.3294
   89MOL0     C11623   8.488   1.392   1.956  0.2099  0.5840 -0.0876
   89MOL0     O11624   8.356   1.347   1.952  0.0719 -0.9994 -0.3724
   89MOL0     C11625   8.260   1.441   1.909 -0.5671 -0.0777  0.1039
   89MOL0     C11626   8.121   1.375   1.921  0.3545  0.6711  1.0351
   89MOL0     C11627   8.022   1.430   1.825  0.7968 -0.1150 -0.4942
   89MOL0     C11628   7.902   1.345   1.823  0.2482 -0.0333  0.3091
   89MOL0     C11629   7.800   1.378   1.714  0.7911  0.6951 -0.0817
   89MOL0     C11630   7.742   1.513   1.727 -0.2576  0.1827 -0.2863
   89MOL0     C11631   7.621   1.510   1.631 -0.2698 -0.0788 -0.2861
   89MOL0     C11632   7.488   1.477   1.712 -0.3257  0.3910  0.4350
   89MOL0     N11633   7.395   1.418   1.614 -0.4881  0.5912 -0.2655
   89MOL0     C11634   7.311   1.487   1.533 -0.5202 -0.7198  0.7087
   89MOL0     C11635   7.222   1.402   1.479 -1.1779  0.8970 -0.0130
   89MOL0     C11636   7.104   1.437   1.384  0.4341 -0.1523  0.2346
   89MOL0     C11637   6.980   1.482   1.460  0.4919  0.1433 -0.7600
   89MOL0     C11638   6.866   1.543   1.386  0.2451  0.1846 -0.4123
   89MOL0     C11639   6.762   1.607   1.486 -0.5029  0.4108  0.6758
   89MOL0     O11640   6.649   1.659   1.418  0.5146  0.4161  0.2812
   89MOL0     C11641   6.535   1.691   1.498 -1.2143 -0.2479  0.0844
   89MOL0     C11642   6.508   1.649   1.635  0.5236  0.1493 -0.1055
   89MOL0     C11643   6.393   1.695   1.697 -0.3243  0.2267 -0.8915
   89MOL0     C11644   6.299   1.777   1.633  0.2300  0.2553 -0.0503
   89MOL0     C11645   6.175   1.822   1.712 -0.6767 -0.1675  1.1299
   89MOL0     O11646   6.128   1.745   1.808  0.2450  0.0740  0.4040
   89MOL0     C11647   6.005   1.777   1.853 -0.6929 -0.4885 -0.0572
   89MOL0     C11648   5.909   1.670   1.853  0.3779 -0.2586 -1.3984
   89MOL0     C11649   5.786   1.687   1.917  0.0418  1.1376 -0.5033
   89MOL0     C11650   5.747   1.807   1.963 -0.3155 -0.7267  0.7842
   89MOL0     O11651   5.634   1.825   2.033 -0.0358 -1.1906 -0.6910
   89MOL0     C11652   5.588   1.732   2.127  0.1320  0.5398  0.1427
   89MOL0     C11653   5.442   1.766   2.162 -0.9014  0.6555  0.8923
   89MOL0     C11654   5.416   1.717   2.302  0.5203 -0.0441 -0.4862
   89MOL0     C11655   5.270   1.737   2.340 -0.3217 -0.2487  0.0787
   89MOL0     C11656   5.236   1.669   2.472  0.2096 -0.0317 -0.4483
   89MOL0     C11657   5.088   1.697   2.507 -0.2438 -0.1600  0.5893
   89MOL0     C11658   5.055   1.633   2.637 -0.1571  0.7732  0.3390
   89MOL0     C11659   4.906   1.654   2.651  0.5803  0.6284 -0.6744
   89MOL0    Cl11660   4.862   1.548   2.790  0.1223 -0.1259  0.1760
   89MOL0     C11661   5.841   1.920   1.967 -0.2300 -0.4074  0.3964
   89MOL0     C11662   5.969   1.897   1.914 -0.4346 -0.7162 -0.4141
   89MOL0     O11663   6.118   1.922   1.663 -0.0377  0.2228  0.2521
   89MOL0     C11664   6.326   1.810   1.501 -0.3001 -0.0944  0.3020
   89MOL0     C11665   6.443   1.772   1.433  0.2319  0.4787 -0.2687
   89MOL0     N11666   7.261   1.277   1.529 -0.2098 -0.1676 -0.6966
   89MOL0     N11667   7.372   1.288   1.600  0.0791  0.6758  0.2846
   89MOL0     C11668   8.602   1.302   1.975  0.7279  0.1420  0.0458
   89MOL0     C11669   8.729   1.341   1.979 -0.0770 -0.4394 -0.9758
   89MOL0     C11670   9.091   1.530   2.133  0.0998 -0.6101  0.0368
   89MOL0     C11671   9.175   1.487   2.021  0.6287 -0.8474  0.7671
   89MOL0     C11672   9.311   1.519   2.020 -0.3362  0.3771 -0.0117
   89MOL0     C11673   9.375   1.585   2.125  0.5727  0.0665 -0.6416
   89MOL0     O11674   9.511   1.597   2.112 -0.0603  0.2767 -0.7223
   89MOL0     C11675   9.575   1.655   2.231 -1.2449 -0.0960 -0.3326
   89MOL0     C11676   9.728   1.664   2.200 -0.6050  0.5556  0.1934
   89MOL0     C11677   9.783   1.750   2.086  0.1783  0.3917  0.1799
   89MOL0     C11678   9.933   1.724   2.060  0.6752 -0.0424  0.2675
   89MOL0     C11679  10.014   1.754   2.178  0.3704 -0.3271 -0.3167
   89MOL0     C11680  10.087   1.755   2.272  0.8241  0.4432 -0.4868
   89MOL0     C11681   9.294   1.628   2.233  1.1273  0.5751  0.4721
   89MOL0     C11682   9.154   1.605   2.229  0.0773  0.0176 -0.1425
   89MOL0     H11683   8.681   1.671   1.946 -1.0062 -0.5930 -1.1956
   89MOL0     H11684   8.458   1.611   1.941  0.4129  0.6080 -0.3951
   89MOL0     H11685   8.282   1.473   1.807  0.2243  0.8516  0.5460
   89MOL0     H11686   8.263   1.539   1.957  3.0720  1.1796 -2.2825
   89MOL0     H11687   8.080   1.387   2.022 -0.4673  1.7422  0.6021
   89MOL0     H11688   8.128   1.268   1.901 -0.5120  0.8213 -0.1670
   89MOL0     H11689   8.064   1.443   1.725 -0.0443 -0.4058 -0.8893
   89MOL0     H11690   8.002   1.535   1.849 -1.8269 -0.4973 -0.7339
   89MOL0     H11691   7.931   1.240   1.818  2.8464  0.6153  0.5200
   89MOL0     H11692   7.863   1.362   1.924  3.1588 -1.1563  1.7173
   89MOL0     H11693   7.726   1.298   1.720  0.1920  0.9853 -2.4368
   89MOL0     H11694   7.843   1.374   1.613 -0.3246  1.8371 -0.6285
   89MOL0     H11695   7.808   1.595   1.696  0.2906 -0.6438 -1.3861
   89MOL0     H11696   7.708   1.532   1.830  0.1828 -1.4896  0.1971
   89MOL0     H11697   7.619   1.612   1.591 -0.0151  0.6867  1.5811
   89MOL0     H11698   7.636   1.454   1.538  0.4077 -1.7492  0.7727
   89MOL0     H11699   7.453   1.573   1.750  3.6696  2.6085 -0.9129
   89MOL0     H11700   7.504   1.409   1.796 -0.7698  1.2163  1.1980
   89MOL0     H11701   7.320   1.591   1.506 -1.8231 -1.0918 -1.3486
   89MOL0     H11702   7.073   1.356   1.318 -0.6401  1.1494 -0.9076
   89MOL0     H11703   7.134   1.522   1.321 -2.2687  1.1620  0.5664
   89MOL0     H11704   7.012   1.552   1.538  2.3719 -3.3442  1.8711
   89MOL0     H11705   6.936   1.395   1.509  2.9893 -1.4973 -1.2480
   89MOL0     H11706   6.913   1.620   1.325  0.4538 -0.9315 -1.7204
   89MOL0     H11707   6.813   1.470   1.324  1.5036 -3.3640  2.3075
   89MOL0     H11708   6.814   1.690   1.534 -1.6981  2.7632 -1.7544
   89MOL0     H11709   6.734   1.534   1.562 -1.2609 -0.5030 -0.4574
   89MOL0     H11710   6.574   1.579   1.685 -2.5196 -3.7046 -0.9926
   89MOL0     H11711   6.388   1.669   1.802  2.2399  0.9124 -0.5303
   89MOL0     H11712   5.923   1.569   1.816 -1.7405 -0.0583 -2.9468
   89MOL0     H11713   5.716   1.605   1.927  1.5657 -0.2998 -1.1713
   89MOL0     H11714   5.642   1.720   2.222 -2.3582 -2.1593  1.3703
   89MOL0     H11715   5.584   1.639   2.069  1.4367  1.1749 -1.0352
   89MOL0     H11716   5.373   1.710   2.097 -2.4261  3.9038 -0.4793
   89MOL0     H11717   5.421   1.870   2.136 -2.3806 -0.1699 -1.5690
   89MOL0     H11718   5.467   1.786   2.371  0.9032 -1.9434  1.2366
   89MOL0     H11719   5.446   1.613   2.317 -0.2256  0.0291  1.9965
   89MOL0     H11720   5.241   1.842   2.333  0.1333 -0.1476 -0.3545
   89MOL0     H11721   5.208   1.695   2.261 -1.0281  0.2024  0.3855
   89MOL0     H11722   5.295   1.706   2.557  3.2008 -0.3653 -2.2376
   89MOL0     H11723   5.263   1.566   2.449  1.9667  0.7322 -2.0181
   89MOL0     H11724   5.028   1.663   2.422  0.9365  0.1364 -0.3781
   89MOL0     H11725   5.070   1.805   2.502 -0.4711 -0.2400 -0.7012
   89MOL0     H11726   5.093   1.530   2.628  0.8762  0.9958  1.8704
   89MOL0     H11727   5.105   1.671   2.726 -1.7313 -0.0224  1.6287
   89MOL0     H11728   4.854   1.627   2.558 -1.3324 -1.1965  0.8255
   89MOL0     H11729   4.878   1.758   2.668  2.6557  1.4292 -1.7371
   89MOL0     H11730   5.822   2.013   2.019 -0.3215 -0.6328  0.7697
   89MOL0     H11731   6.042   1.978   1.919  2.2782 -3.0470  0.1632
   89MOL0     H11732   6.260   1.865   1.434  0.7936 -0.1360 -0.8596
   89MOL0     H11733   6.461   1.809   1.333 -1.7488  0.5722 -0.6175
   89MOL0     H11734   8.577   1.198   1.999 -0.3815 -0.0903 -1.8745
   89MOL0     H11735   8.811   1.270   1.977  1.6184  1.4166 -3.3770
   89MOL0     H11736   9.136   1.428   1.939 -0.7874  0.4723  0.4407
   89MOL0     H11737   9.365   1.500   1.927 -2.6933  0.5021 -1.4943
   89MOL0     H11738   9.567   1.587   2.317  1.2121 -0.7802 -0.5460
   89MOL0     H11739   9.542   1.758   2.249  0.7227  1.4507 -4.3102
   89MOL0     H11740   9.783   1.696   2.289  1.3571  0.9652 -1.1060
   89MOL0     H11741   9.758   1.560   2.183  0.9578  0.3151  3.4401
   89MOL0     H11742   9.756   1.853   2.112  2.7799  0.6060  2.5843
   89MOL0     H11743   9.721   1.730   1.999 -3.5035 -0.8037  2.8342
   89MOL0     H11744   9.949   1.619   2.037 -0.1878  0.3150 -2.3208
   89MOL0     H11745   9.962   1.782   1.972 -1.2436 -1.9979 -1.7521
   89MOL0     H11746  10.159   1.765   2.352  0.3305  2.0179 -0.2081
   89MOL0     H11747   9.342   1.677   2.317 -0.6668  4.6955 -0.6255
   89MOL0     H11748   9.090   1.651   2.304  1.0584  2.1998 -0.5603
   90MOL0     O11749   4.677   9.267   9.822 -0.5876  0.9043 -0.6105
   90MOL0     C11750   4.727   9.176   9.749  0.5318  0.0916  0.3713
   90MOL0     O11751   4.674   9.059   9.715  0.0995  0.7802 -0.0313
   90MOL0     C11752   4.558   9.034   9.776  0.3283 -0.7905 -0.7581
   90MOL0     C11753   4.442   9.023   9.699  0.0219  0.7265 -0.4461
   90MOL0     C11754   4.320   8.988   9.756 -0.5560  0.2336 -0.3676
   90MOL0     C11755   4.318   8.943   9.898 -0.0804  0.2700 -0.4718
   90MOL0     O11756   4.211   8.899   9.970 -0.9203 -1.1353  0.5931
   90MOL0     C11757   4.083   8.933   9.921  0.1859 -0.0243  0.2304
   90MOL0     C11758   3.978   8.932  10.033 -0.3434 -0.1851 -0.4757
   90MOL0     C11759   4.018   9.024  10.152 -0.4280  0.0417  0.1460
   90MOL0     C11760   3.966   9.165  10.145 -0.3801  0.2932 -0.7319
   90MOL0     C11761   4.043   9.275  10.065 -0.1955  0.3002 -0.7331
   90MOL0     C11762   4.195   9.263  10.083  0.4821 -0.0127  1.2476
   90MOL0     C11763   4.264   9.371   9.995 -0.6299  0.7516  0.0623
   90MOL0     C11764   4.269   9.325   9.847 -0.8613  0.6370 -0.0725
   90MOL0     N11765   4.276   9.437   9.757 -0.1501  0.0638 -0.3793
   90MOL0     C11766   4.382   9.463   9.674  0.3853 -0.3423 -0.0454
   90MOL0     C11767   4.326   9.531   9.568 -0.2495  0.4826  0.9798
   90MOL0     C11768   4.409   9.584   9.455  0.8628  0.9251  1.0798
   90MOL0     C11769   4.513   9.691   9.502  0.0696 -0.3335 -0.2272
   90MOL0     C11770   4.450   9.806   9.577  0.5310 -1.0217 -0.2310
   90MOL0     C11771   4.315   9.864   9.518 -0.4020  0.5105 -0.2001
   90MOL0     O11772   4.242   9.946   9.611 -0.1918 -0.4032  0.3358
   90MOL0     C11773   4.122  10.010   9.573  0.1333 -0.0709  0.3577
   90MOL0     C11774   4.045   9.980   9.470  0.5954 -0.2656  0.1895
   90MOL0     C11775   3.923  10.052   9.442  0.1031  0.2043  0.9297
   90MOL0     C11776   3.881  10.150   9.538 -0.3866  0.0335 -0.6578
   90MOL0     C11777   3.772  10.245   9.504 -0.1377  0.0949 -0.7973
   90MOL0     O11778   3.694  10.220   9.393 -0.7327  0.2469  0.3007
   90MOL0     C11779   3.576  10.290   9.368 -0.2787  0.0465  0.4696
   90MOL0     C11780   3.494  10.327   9.472 -0.2011  0.7603  0.0728
   90MOL0     C11781   3.376  10.393   9.438  0.6341  0.5330  0.2328
   90MOL0     C11782   3.326  10.401   9.307  1.1278 -0.0583 -0.4428
   90MOL0     O11783   3.195  10.442   9.272 -0.1380  0.7449 -0.3429
   90MOL0     C11784   3.090  10.426   9.363  0.4092 -0.0845 -0.1005
   90MOL0     C11785   2.975  10.496   9.287  0.0329 -0.5461  0.5023
   90MOL0     C11786   2.839  10.501   9.361 -0.6462  0.8737  0.0023
   90MOL0     C11787   2.728  10.578   9.292  0.0425 -0.8575  0.1644
   90MOL0     C11788   2.608  10.606   9.373 -0.7967  0.2492 -0.3375
   90MOL0     C11789   2.485  10.662   9.294  0.6884  0.0135 -1.3199
   90MOL0     C11790   2.361  10.694   9.384  0.5479  0.1895  0.4400
   90MOL0     C11791   2.229  10.720   9.296  0.5138 -0.2078  0.5859
   90MOL0    Cl11792   2.155  10.560   9.276  0.0320 -0.0873 -0.2733
   90MOL0     C11793   3.413  10.365   9.203  0.4076  0.3259 -0.1132
   90MOL0     C11794   3.531  10.316   9.240 -0.4628  0.1761  0.5187
   90MOL0     O11795   3.761  10.341   9.580  0.1308 -0.2493  0.6031
   90MOL0     C11796   3.967  10.167   9.649  0.7765  0.1898 -0.1514
   90MOL0     C11797   4.089  10.108   9.661  0.6303 -0.4604 -1.3310
   90MOL0     N11798   4.197   9.567   9.606  0.6662 -0.4184 -0.4063
   90MOL0     N11799   4.168   9.511   9.716  0.7604 -0.5479 -0.1486
   90MOL0     C11800   4.429   8.950   9.972  0.4162  0.0500 -0.0643
   90MOL0     C11801   4.548   9.000   9.916 -0.1757 -0.7321 -0.3400
   90MOL0     C11802   4.864   9.195   9.694 -0.1553  0.1583 -0.3421
   90MOL0     C11803   4.946   9.289   9.758 -0.2161  1.4844 -0.1646
   90MOL0     C11804   5.079   9.290   9.714 -0.5389  0.8583 -0.0119
   90MOL0     C11805   5.130   9.210   9.607 -0.2376  0.3734 -0.5753
   90MOL0     O11806   5.259   9.218   9.569 -0.5643  0.2708 -0.4999
   90MOL0     C11807   5.364   9.193   9.664  0.3675 -0.5011  1.0485
   90MOL0     C11808   5.373   9.047   9.708  0.0093  0.4248 -0.5706
   90MOL0     C11809   5.418   8.969   9.575  0.4023 -0.3698 -0.4408
   90MOL0     C11810   5.457   8.824   9.608  0.0952  0.4413  0.1915
   90MOL0     C11811   5.334   8.748   9.628 -0.4705  0.3770  0.7014
   90MOL0     C11812   5.238   8.676   9.653  0.0082 -0.5585  0.7864
   90MOL0     C11813   5.044   9.130   9.536  0.5489 -0.4754  0.2353
   90MOL0     C11814   4.913   9.121   9.579 -0.0045 -0.3335 -0.3811
   90MOL0     H11815   4.442   9.045   9.592 -2.8602  1.1662 -0.4421
   90MOL0     H11816   4.238   8.975   9.685  0.2492 -0.7415 -1.1420
   90MOL0     H11817   4.059   8.853   9.851  1.0846 -1.1131  1.1189
   90MOL0     H11818   4.091   9.034   9.879  2.2586 -0.8125 -1.4597
   90MOL0     H11819   3.973   8.832  10.077 -0.2907  0.8483  2.0695
   90MOL0     H11820   3.877   8.956   9.998 -0.4693 -0.7220 -0.4863
   90MOL0     H11821   4.127   9.021  10.165  0.1291  0.4359 -3.3779
   90MOL0     H11822   3.975   8.990  10.246  0.2821  0.4123  0.6169
   90MOL0     H11823   3.857   9.170  10.132 -0.9874 -3.7842  1.0094
   90MOL0     H11824   3.974   9.194  10.250  0.3494  0.6266 -0.8752
   90MOL0     H11825   4.012   9.376  10.093  0.8899 -0.0486  2.0530
   90MOL0     H11826   4.017   9.267   9.959 -2.2686  1.1259 -0.3229
   90MOL0     H11827   4.220   9.165  10.041 -0.6520 -1.2787  3.3622
   90MOL0     H11828   4.223   9.278  10.187 -0.3260  4.0127  1.0461
   90MOL0     H11829   4.215   9.466  10.020 -2.0215 -0.0656  0.5770
   90MOL0     H11830   4.364   9.368  10.039 -0.6532  0.3238  0.0861
   90MOL0     H11831   4.193   9.253   9.815  0.0885 -0.3955 -0.0804
   90MOL0     H11832   4.368   9.279   9.843 -0.9239  0.5663 -2.9522
   90MOL0     H11833   4.480   9.430   9.705 -0.2277  0.0213  2.4903
   90MOL0     H11834   4.337   9.625   9.384  2.8365  1.9362 -0.4567
   90MOL0     H11835   4.453   9.505   9.393 -0.8904  2.7685 -2.8755
   90MOL0     H11836   4.568   9.734   9.418  0.2869  1.6532  0.8723
   90MOL0     H11837   4.584   9.652   9.575  2.6754  3.0404 -0.6920
   90MOL0     H11838   4.432   9.755   9.672 -1.6245 -0.0495 -0.0551
   90MOL0     H11839   4.523   9.888   9.576  1.2942 -1.6659 -2.4223
   90MOL0     H11840   4.240   9.787   9.493 -0.9642  1.6517 -2.3145
   90MOL0     H11841   4.338   9.912   9.422 -0.1620  0.5990 -0.0989
   90MOL0     H11842   4.073   9.900   9.401 -2.8255 -1.6371  0.2098
   90MOL0     H11843   3.867  10.029   9.352 -0.7706  0.2461  1.4489
   90MOL0     H11844   3.529  10.323   9.575 -0.6877  1.2275  0.2626
   90MOL0     H11845   3.315  10.439   9.515 -0.5912 -0.4638 -0.0975
   90MOL0     H11846   3.098  10.464   9.465  2.0206 -0.0438 -0.2090
   90MOL0     H11847   3.054  10.323   9.371  1.1783 -0.3270  0.3344
   90MOL0     H11848   2.956  10.459   9.186  1.5766  0.3514 -0.1556
   90MOL0     H11849   2.998  10.601   9.267 -3.7215  0.8272  2.4289
   90MOL0     H11850   2.856  10.550   9.457 -0.0271 -0.5810  0.6568
   90MOL0     H11851   2.811  10.397   9.381 -0.2473  0.7963  0.1584
   90MOL0     H11852   2.768  10.675   9.260  1.6597 -0.8215  2.1101
   90MOL0     H11853   2.711  10.532   9.194  2.1537 -1.7036  0.1315
   90MOL0     H11854   2.635  10.676   9.452 -1.8672 -1.1276  1.3240
   90MOL0     H11855   2.587  10.513   9.426 -1.6653  0.8390  0.3755
   90MOL0     H11856   2.451  10.579   9.231 -1.2426 -1.9997  2.0206
   90MOL0     H11857   2.511  10.755   9.243 -2.6973  1.7449 -0.1995
   90MOL0     H11858   2.343  10.613   9.455  0.2542 -1.1985 -1.1543
   90MOL0     H11859   2.385  10.782   9.445  0.4734  0.4760  0.0601
   90MOL0     H11860   2.258  10.770   9.203  0.1119  0.7152  0.9494
   90MOL0     H11861   2.152  10.771   9.354  1.7052  3.1590 -0.5339
   90MOL0     H11862   3.389  10.370   9.097  0.2552 -3.0515 -0.3482
   90MOL0     H11863   3.593  10.272   9.163  1.4601  0.2955  1.9370
   90MOL0     H11864   3.943  10.240   9.726 -1.6053 -1.6547  1.0036
   90MOL0     H11865   4.161  10.138   9.737  1.6426  2.0028 -3.1353
   90MOL0     H11866   4.428   8.932  10.079  1.2044  2.5364  0.4314
   90MOL0     H11867   4.627   8.995   9.989  0.3757 -0.8344 -0.9326
   90MOL0     H11868   4.920   9.357   9.839  0.7775  0.7453  0.8270
   90MOL0     H11869   5.153   9.359   9.754 -0.2897  0.6927 -0.1903
   90MOL0     H11870   5.353   9.261   9.749  1.6691  0.3124  0.5955
   90MOL0     H11871   5.462   9.220   9.623  0.8506 -1.9023  1.2359
   90MOL0     H11872   5.451   9.038   9.784  1.1360  4.4150 -1.0216
   90MOL0     H11873   5.276   9.007   9.740  0.2477  1.3557  1.4378
   90MOL0     H11874   5.509   9.008   9.529  0.5005 -1.3580 -1.1072
   90MOL0     H11875   5.342   8.987   9.499 -0.7025 -2.5176  0.0799
   90MOL0     H11876   5.504   8.779   9.521 -0.7359  0.1795 -0.1272
   90MOL0     H11877   5.522   8.821   9.696 -0.1164  2.6278  0.4817
   90MOL0     H11878   5.159   8.607   9.678  2.7219 -3.6598  1.5657
   90MOL0     H11879   5.064   9.077   9.443 -1.8802  2.1658 -1.9980
   90MOL0     H11880   4.840   9.068   9.517 -0.4142 -1.9200  1.3782
   91MOL0     O11881   0.507   5.790   2.293 -0.3504  0.5089  0.7776
   91MOL0     C11882   0.550   5.901   2.278 -0.5769 -0.3806 -0.2098
   91MOL0     O11883   0.477   6.017   2.265 -0.1580 -0.5512 -0.2649
   91MOL0     C11884   0.344   6.022   2.273  0.6207 -0.1724  0.7434
   91MOL0     C11885   0.250   5.912   2.273  0.3251  0.0952 -0.6241
   91MOL0     C11886   0.116   5.936   2.301  0.2697 -0.2218  0.8471
   91MOL0     C11887   0.064   6.066   2.318  0.6586 -0.1300  0.4948
   91MOL0     O11888  -0.074   6.083   2.314  0.3305  0.0274 -0.0970
   91MOL0     C11889  -0.131   6.120   2.436  0.1404  0.3230 -0.0658
   91MOL0     C11890  -0.242   6.223   2.404 -0.0584  0.3805 -0.2031
   91MOL0     C11891  -0.193   6.365   2.362 -0.7372  0.8225  0.1474
   91MOL0     C11892  -0.306   6.450   2.328 -0.7080 -0.5917  0.4403
   91MOL0     C11893  -0.385   6.504   2.445 -0.1496  0.4611 -0.0505
   91MOL0     C11894  -0.485   6.620   2.421 -0.6996 -0.1417  0.4383
   91MOL0     C11895  -0.629   6.566   2.400  1.3834  0.3939 -0.2259
   91MOL0     C11896  -0.740   6.674   2.393 -0.1008  0.7275  0.3001
   91MOL0     N11897  -0.724   6.777   2.488 -0.6046  0.2222  0.0718
   91MOL0     C11898  -0.780   6.788   2.618 -0.6027 -0.4277 -0.9000
   91MOL0     C11899  -0.764   6.910   2.666  0.3643  0.0370 -1.2193
   91MOL0     C11900  -0.817   6.978   2.788 -0.4422 -0.6178  0.6257
   91MOL0     C11901  -0.932   7.069   2.747  0.9859 -0.4519 -0.1080
   91MOL0     C11902  -1.051   7.002   2.690  0.3631 -0.7004 -0.2125
   91MOL0     C11903  -1.110   7.080   2.573  0.0906  0.3249 -0.4095
   91MOL0     O11904  -1.203   7.005   2.489  0.6306 -0.6970 -0.2506
   91MOL0     C11905  -1.330   6.972   2.521  0.7834 -0.4210 -0.6599
   91MOL0     C11906  -1.409   7.042   2.617  0.0862 -1.0780 -0.7326
   91MOL0     C11907  -1.542   7.027   2.628  0.3016  0.5061  0.0395
   91MOL0     C11908  -1.607   6.923   2.567  0.5206  0.7949  0.0713
   91MOL0     C11909  -1.750   6.892   2.581  0.0551  1.0292 -0.4336
   91MOL0     O11910  -1.798   6.761   2.548  0.1158  0.1623 -0.3425
   91MOL0     C11911  -1.932   6.731   2.534  0.3580 -0.6604 -0.4646
   91MOL0     C11912  -2.006   6.782   2.423 -0.2293 -0.0732  0.1390
   91MOL0     C11913  -2.138   6.745   2.400  0.2693 -0.6405 -0.1800
   91MOL0     C11914  -2.200   6.659   2.484 -0.1382  0.7191  0.2208
   91MOL0     O11915  -2.336   6.639   2.472  0.2200  0.6051 -0.0486
   91MOL0     C11916  -2.389   6.592   2.348  0.1084 -0.1225 -0.1861
   91MOL0     C11917  -2.529   6.541   2.348 -0.3362  0.1051  0.2926
   91MOL0     C11918  -2.581   6.459   2.220  0.5874  0.7415 -0.0166
   91MOL0     C11919  -2.522   6.321   2.215  0.1637  0.7643  0.3412
   91MOL0     C11920  -2.554   6.250   2.084 -0.5977  0.3324 -1.0443
   91MOL0     C11921  -2.693   6.264   2.039 -0.2076  0.6343  0.7252
   91MOL0     C11922  -2.719   6.158   1.928  0.6852  0.0034  0.9202
   91MOL0     C11923  -2.867   6.161   1.885 -0.1949 -0.1194  0.1502
   91MOL0    Cl11924  -2.914   6.068   1.735 -0.0859 -0.4333  0.3465
   91MOL0     C11925  -2.126   6.600   2.597  0.7354  0.0288 -0.6230
   91MOL0     C11926  -1.999   6.639   2.621 -0.3182 -0.2617 -0.2252
   91MOL0     O11927  -1.821   6.982   2.623  0.1260  0.3264  0.8199
   91MOL0     C11928  -1.534   6.848   2.466  0.5016 -0.3923  0.5511
   91MOL0     C11929  -1.399   6.876   2.444 -0.4131  0.1726 -0.2073
   91MOL0     N11930  -0.694   6.979   2.572 -1.1604 -0.3470 -1.0994
   91MOL0     N11931  -0.671   6.901   2.470  0.3844  0.0672 -0.3367
   91MOL0     C11932   0.158   6.172   2.302  1.2205  0.2546 -0.3956
   91MOL0     C11933   0.292   6.150   2.286 -0.1972  0.4191  0.5396
   91MOL0     C11934   0.692   5.904   2.258  0.0330 -0.0980 -0.6361
   91MOL0     C11935   0.744   6.017   2.202 -0.5188  0.3623 -0.5473
   91MOL0     C11936   0.875   6.028   2.165  0.7829  0.7346 -0.8071
   91MOL0     C11937   0.956   5.916   2.178 -0.4444 -0.1875  0.3775
   91MOL0     O11938   1.080   5.906   2.130 -0.1691  1.3375 -0.5934
   91MOL0     C11939   1.170   6.017   2.163 -0.4247 -0.1785  0.1786
   91MOL0     C11940   1.243   6.065   2.033  0.5139 -0.5191  0.5860
   91MOL0     C11941   1.352   5.968   1.979  0.4090  0.5489  0.2154
   91MOL0     C11942   1.403   6.016   1.844  0.1654 -0.4045  0.2502
   91MOL0     C11943   1.467   5.912   1.764 -0.7028 -0.4194 -0.4408
   91MOL0     C11944   1.530   5.844   1.692 -0.4610  0.5910  1.3561
   91MOL0     C11945   0.900   5.802   2.225 -0.5698 -0.0284 -0.1752
   91MOL0     C11946   0.776   5.789   2.270 -0.5923 -0.1267  0.3034
   91MOL0     H11947   0.292   5.813   2.257  0.4187  0.2503 -1.3604
   91MOL0     H11948   0.035   5.865   2.290  0.5802 -0.2009 -3.0397
   91MOL0     H11949  -0.067   6.164   2.513  0.6192 -1.4286  0.5753
   91MOL0     H11950  -0.178   6.030   2.476 -0.3666  1.1166  1.1969
   91MOL0     H11951  -0.308   6.251   2.486 -1.1675 -0.7790 -0.6629
   91MOL0     H11952  -0.306   6.176   2.328 -0.0256 -0.9064  0.5428
   91MOL0     H11953  -0.123   6.353   2.279  2.1587 -0.6040  2.6189
   91MOL0     H11954  -0.132   6.397   2.446  0.5583  0.5622 -0.6632
   91MOL0     H11955  -0.268   6.533   2.267  2.5646 -1.2604  1.3703
   91MOL0     H11956  -0.377   6.396   2.265 -1.0080 -0.2415  0.4698
   91MOL0     H11957  -0.317   6.533   2.525 -0.8844 -0.8787  1.1111
   91MOL0     H11958  -0.440   6.420   2.488  0.3706  0.5311  0.7680
   91MOL0     H11959  -0.441   6.676   2.338  0.8437  0.6709  1.7453
   91MOL0     H11960  -0.486   6.680   2.513 -0.2488 -1.0774  1.0609
   91MOL0     H11961  -0.639   6.499   2.314 -2.8274  0.6719 -0.1566
   91MOL0     H11962  -0.652   6.500   2.485 -2.4158 -2.8896 -3.3759
   91MOL0     H11963  -0.836   6.625   2.412  0.6438 -1.4110 -1.1431
   91MOL0     H11964  -0.731   6.718   2.293  1.5604 -4.3408 -2.1420
   91MOL0     H11965  -0.839   6.718   2.676  0.4496  0.2954  1.1490
   91MOL0     H11966  -0.739   7.044   2.826  1.0005 -2.1729  0.5025
   91MOL0     H11967  -0.838   6.911   2.872  2.1213 -0.7658  1.2291
   91MOL0     H11968  -0.892   7.139   2.673  0.3987 -0.5709 -0.5452
   91MOL0     H11969  -0.942   7.127   2.840 -0.2645 -3.5960  1.8926
   91MOL0     H11970  -1.032   6.901   2.654 -2.2090 -0.8973 -1.1760
   91MOL0     H11971  -1.127   6.993   2.768 -1.8667  1.1558 -2.0485
   91MOL0     H11972  -1.039   7.094   2.490 -2.5103  2.0489 -2.5178
   91MOL0     H11973  -1.159   7.175   2.597 -0.0369 -0.2060  1.6112
   91MOL0     H11974  -1.369   7.130   2.666 -0.8636 -1.1930  0.2997
   91MOL0     H11975  -1.595   7.084   2.703  2.0782  1.6714  0.4631
   91MOL0     H11976  -1.958   6.859   2.363 -3.9520  2.9466  0.6428
   91MOL0     H11977  -2.187   6.782   2.311  1.3011  1.5783  0.1037
   91MOL0     H11978  -2.328   6.509   2.312  0.0267  0.5257 -1.9282
   91MOL0     H11979  -2.391   6.669   2.270 -0.1454 -1.0778 -1.1542
   91MOL0     H11980  -2.600   6.623   2.364  0.5219  0.8435  0.3847
   91MOL0     H11981  -2.539   6.468   2.429 -1.2938 -3.1012 -2.5024
   91MOL0     H11982  -2.553   6.509   2.128  0.4993 -2.0029 -1.6361
   91MOL0     H11983  -2.691   6.460   2.220  0.5593  0.3321  1.1662
   91MOL0     H11984  -2.414   6.338   2.226  0.9154 -1.9050 -1.9410
   91MOL0     H11985  -2.567   6.272   2.302  2.5251 -1.8716  0.1982
   91MOL0     H11986  -2.541   6.147   2.120  0.7980  0.9016  0.2214
   91MOL0     H11987  -2.486   6.272   2.002  0.4522 -1.1045 -0.6046
   91MOL0     H11988  -2.704   6.359   1.987  1.3590 -0.4275 -1.7249
   91MOL0     H11989  -2.765   6.241   2.118 -1.3972  2.5149  0.2550
   91MOL0     H11990  -2.658   6.182   1.840  0.1850 -2.3287 -0.1200
   91MOL0     H11991  -2.701   6.054   1.956  1.1574 -0.4307 -0.8633
   91MOL0     H11992  -2.898   6.264   1.870 -0.4963 -0.0842  0.9570
   91MOL0     H11993  -2.917   6.105   1.965  1.7424 -2.8693 -0.4230
   91MOL0     H11994  -2.169   6.530   2.668  3.5372 -0.0056  1.1747
   91MOL0     H11995  -1.939   6.602   2.704 -0.5809 -2.5336 -0.9729
   91MOL0     H11996  -1.586   6.772   2.407  0.1640 -0.2044  0.6067
   91MOL0     H11997  -1.343   6.827   2.365 -1.2513  1.5376 -1.7192
   91MOL0     H11998   0.111   6.271   2.298  0.5023 -0.0507  0.2554
   91MOL0     H11999   0.363   6.233   2.290  1.5940 -1.0209  0.0630
   91MOL0     H12000   0.678   6.101   2.179 -1.7116 -0.0733  1.0750
   91MOL0     H12001   0.914   6.114   2.111  1.9074  0.1171 -1.0243
   91MOL0     H12002   1.249   5.984   2.230 -0.4830  1.4204  1.0782
   91MOL0     H12003   1.121   6.094   2.224 -0.7757 -1.0064  0.9610
   91MOL0     H12004   1.166   6.080   1.957  1.1218  3.3099  0.5537
   91MOL0     H12005   1.292   6.160   2.055  0.3075  0.1262 -1.4921
   91MOL0     H12006   1.313   5.866   1.968  1.4655  0.4102 -3.4589
   91MOL0     H12007   1.436   5.956   2.048  1.2054 -1.8069 -1.0449
   91MOL0     H12008   1.312   6.042   1.789  0.5994  0.5149 -0.0542
   91MOL0     H12009   1.443   6.118   1.847 -0.6176 -0.0693 -0.3113
   91MOL0     H12010   1.582   5.773   1.632 -1.3146 -0.8802  2.2972
   91MOL0     H12011   0.961   5.715   2.245  0.2486  0.9202  1.7975
   91MOL0     H12012   0.747   5.691   2.307 -1.9841  0.9627  2.1966
   92MOL0     O12013  11.108   7.421   6.219  0.0996 -0.5290 -0.2599
   92MOL0     C12014  11.179   7.416   6.115 -0.1220 -0.3656  0.0108
   92MOL0     O12015  11.133   7.407   5.986 -0.0359  0.5554  0.7106
   92MOL0     C12016  11.003   7.445   5.975 -0.4633  0.0662  0.5308
   92MOL0     C12017  10.903   7.350   5.986 -0.2308 -0.6221 -0.3952
   92MOL0     C12018  10.774   7.392   5.972 -0.1783  0.4105  0.7396
   92MOL0     C12019  10.737   7.516   5.921 -0.7454  0.3454 -0.7809
   92MOL0     O12020  10.607   7.539   5.913  0.3423  0.0674  0.2526
   92MOL0     C12021  10.574   7.637   5.811 -0.4226 -0.8222  0.4309
   92MOL0     C12022  10.419   7.646   5.791 -0.0826  0.8631 -0.2097
   92MOL0     C12023  10.377   7.750   5.683 -0.0867 -0.5937  0.0654
   92MOL0     C12024  10.232   7.803   5.690  1.4521 -0.0667  0.8646
   92MOL0     C12025  10.143   7.694   5.658  0.7493  0.3020 -0.1050
   92MOL0     C12026   9.998   7.744   5.654  0.3106  0.1479 -0.3936
   92MOL0     C12027   9.898   7.629   5.668  0.8932  0.3521 -0.3645
   92MOL0     C12028   9.756   7.702   5.663  0.5191 -0.1228  0.7147
   92MOL0     N12029   9.643   7.613   5.684 -0.0353 -0.2030  0.0685
   92MOL0     C12030   9.526   7.663   5.740  0.0538  0.5449  0.0441
   92MOL0     C12031   9.444   7.553   5.754  0.1201  1.2074  0.3807
   92MOL0     C12032   9.325   7.534   5.841 -0.1770  0.1447  0.4292
   92MOL0     C12033   9.191   7.581   5.774  0.6788  0.1389 -0.2055
   92MOL0     C12034   9.068   7.518   5.835 -0.6165  0.6818  0.2968
   92MOL0     C12035   8.937   7.549   5.766 -0.0760  0.1852 -0.3473
   92MOL0     O12036   8.886   7.669   5.826 -0.0985 -0.5095 -0.1595
   92MOL0     C12037   8.753   7.672   5.817 -0.3606  0.1732 -0.3342
   92MOL0     C12038   8.687   7.762   5.907  0.1394  0.5346 -0.3471
   92MOL0     C12039   8.544   7.768   5.917 -1.0690 -0.4623 -0.3671
   92MOL0     C12040   8.466   7.685   5.832  0.0389 -0.0117  0.0491
   92MOL0     C12041   8.317   7.679   5.844 -1.2027  0.3879 -0.0919
   92MOL0     O12042   8.256   7.782   5.911  0.1052  0.1628 -0.4655
   92MOL0     C12043   8.126   7.754   5.954  0.3488 -0.8253 -0.7070
   92MOL0     C12044   8.104   7.769   6.092 -0.6476 -0.5921 -0.1840
   92MOL0     C12045   7.969   7.770   6.146 -0.6935 -0.8164  0.2691
   92MOL0     C12046   7.865   7.762   6.052 -0.3346 -0.2587  0.6691
   92MOL0     O12047   7.739   7.755   6.105  0.2586 -0.0502  0.6978
   92MOL0     C12048   7.647   7.655   6.052 -0.4495 -0.8722  0.4913
   92MOL0     C12049   7.511   7.665   6.134 -0.1802  0.0361 -0.3550
   92MOL0     C12050   7.403   7.575   6.081 -1.1798 -0.1338  0.3380
   92MOL0     C12051   7.411   7.425   6.129 -0.6609  0.1585  0.0437
   92MOL0     C12052   7.285   7.352   6.069 -0.3239  0.3612 -0.3221
   92MOL0     C12053   7.301   7.197   6.097 -0.5747 -0.1509 -0.3164
   92MOL0     C12054   7.289   7.154   6.244 -0.2837  1.0789  0.3015
   92MOL0     C12055   7.330   7.009   6.266 -0.2797 -0.5417  0.8561
   92MOL0    Cl12056   7.493   6.955   6.210  0.0176  0.0119 -0.1372
   92MOL0     C12057   7.891   7.751   5.913  0.1032 -0.7943  1.0578
   92MOL0     C12058   8.022   7.749   5.861 -0.2795  0.1713  0.0237
   92MOL0     O12059   8.267   7.572   5.816  0.2721  0.0023  0.4790
   92MOL0     C12060   8.530   7.608   5.734  0.4997 -0.1467 -0.3627
   92MOL0     C12061   8.672   7.603   5.721  0.2488 -0.7310 -0.6537
   92MOL0     N12062   9.512   7.441   5.692  0.3198  0.2349 -0.2961
   92MOL0     N12063   9.627   7.481   5.646 -0.1240  0.0577  0.2309
   92MOL0     C12064  10.844   7.613   5.906  0.3985  0.3738 -0.3276
   92MOL0     C12065  10.972   7.570   5.941  0.3827 -1.1761  0.3205
   92MOL0     C12066  11.323   7.419   6.117 -0.4063  0.6339  0.1878
   92MOL0     C12067  11.390   7.431   6.239  0.0993  1.0800 -0.4496
   92MOL0     C12068  11.527   7.435   6.248  0.0757 -0.0387 -0.7000
   92MOL0     C12069  11.607   7.426   6.131 -0.6033 -0.2354  0.4648
   92MOL0     O12070  11.746   7.418   6.124  0.2562 -0.6615  0.2396
   92MOL0     C12071  11.814   7.377   6.246 -0.2683  0.4399 -0.1616
   92MOL0     C12072  11.786   7.227   6.284 -0.2636 -1.1143  0.2348
   92MOL0     C12073  11.853   7.195   6.421 -0.1781  0.4226  0.2626
   92MOL0     C12074  12.010   7.167   6.406  0.9891 -0.6801  0.4011
   92MOL0     C12075  12.076   7.120   6.528  0.3479  0.2653 -0.4502
   92MOL0     C12076  12.128   7.069   6.631 -0.4985 -0.2853  0.0304
   92MOL0     C12077  11.549   7.404   6.010  0.3126 -0.6071 -0.5216
   92MOL0     C12078  11.407   7.410   6.003  0.5925  0.0387  0.4867
   92MOL0     H12079  10.927   7.251   6.024 -0.1151 -1.2590 -2.0863
   92MOL0     H12080  10.715   7.304   5.995  0.7453 -0.5088 -0.3154
   92MOL0     H12081  10.612   7.599   5.716 -2.7027 -2.1906 -0.0282
   92MOL0     H12082  10.615   7.736   5.835  2.9039 -1.7795 -0.7853
   92MOL0     H12083  10.360   7.681   5.876  0.4442  0.0711  0.5074
   92MOL0     H12084  10.383   7.548   5.757 -0.1426  0.4271  1.0474
   92MOL0     H12085  10.400   7.709   5.584 -2.5445 -0.3056 -0.6912
   92MOL0     H12086  10.444   7.836   5.691  2.2195 -2.3120  0.3366
   92MOL0     H12087  10.206   7.857   5.781  1.3022  0.6679  0.3897
   92MOL0     H12088  10.222   7.869   5.603  0.4539 -2.1898 -0.7229
   92MOL0     H12089  10.145   7.616   5.735 -1.0157  2.3915  2.2328
   92MOL0     H12090  10.166   7.652   5.560 -0.6568 -2.2353  0.5558
   92MOL0     H12091   9.970   7.803   5.566 -3.5287  0.1893  0.6682
   92MOL0     H12092   9.985   7.802   5.745  0.3090  0.8268 -0.8180
   92MOL0     H12093   9.902   7.561   5.582  0.3521 -1.5711  1.0809
   92MOL0     H12094   9.907   7.566   5.757 -3.4908  0.6474  0.4835
   92MOL0     H12095   9.742   7.749   5.565 -1.6674 -0.5881  0.7613
   92MOL0     H12096   9.742   7.780   5.738 -2.1943  0.5106 -0.3274
   92MOL0     H12097   9.503   7.759   5.785 -1.9005 -0.4692  1.3608
   92MOL0     H12098   9.340   7.585   5.937  0.4049  1.6329 -0.4192
   92MOL0     H12099   9.316   7.431   5.876 -1.9723  0.6538  1.5824
   92MOL0     H12100   9.188   7.554   5.668 -0.7613  0.6132 -0.3156
   92MOL0     H12101   9.175   7.689   5.773  2.1498  0.3763 -1.2684
   92MOL0     H12102   9.087   7.410   5.826  2.3817  1.0982  0.5151
   92MOL0     H12103   9.072   7.545   5.941  2.1876  3.0600 -0.2826
   92MOL0     H12104   8.873   7.462   5.785  1.7715 -1.1514  0.1111
   92MOL0     H12105   8.945   7.568   5.659  3.6141  1.7092  0.0663
   92MOL0     H12106   8.751   7.806   5.984 -1.7660 -2.8016  3.5267
   92MOL0     H12107   8.497   7.834   5.989  0.9504 -0.6879  1.2831
   92MOL0     H12108   8.189   7.774   6.158 -0.4206 -1.7208 -0.3650
   92MOL0     H12109   7.951   7.779   6.253 -2.7431 -2.3997  0.1096
   92MOL0     H12110   7.690   7.554   6.056 -1.1408 -1.4566 -3.2114
   92MOL0     H12111   7.625   7.663   5.945 -1.1769  0.8123  0.7515
   92MOL0     H12112   7.475   7.768   6.127  1.4733  0.7453  0.7925
   92MOL0     H12113   7.526   7.660   6.242  1.2401  1.2019 -0.4675
   92MOL0     H12114   7.413   7.576   5.972  1.1844  1.6538  0.5043
   92MOL0     H12115   7.305   7.620   6.100 -0.3384  1.6553  0.6779
   92MOL0     H12116   7.508   7.385   6.100  0.0083  0.0415  2.2451
   92MOL0     H12117   7.409   7.426   6.238 -1.3330 -0.3507  0.0425
   92MOL0     H12118   7.278   7.368   5.961  1.4921  3.0658 -0.1322
   92MOL0     H12119   7.195   7.403   6.105  0.5378  0.9841  1.0448
   92MOL0     H12120   7.396   7.163   6.055 -2.0651 -1.5070 -2.8307
   92MOL0     H12121   7.230   7.140   6.037  2.1393 -0.2411 -3.8318
   92MOL0     H12122   7.349   7.214   6.314 -0.5788 -1.4346  2.8882
   92MOL0     H12123   7.186   7.162   6.279 -0.6069 -0.1532 -0.3367
   92MOL0     H12124   7.254   6.960   6.204 -0.5316  0.7382  0.1131
   92MOL0     H12125   7.317   6.981   6.371  4.1458  0.9747  2.0252
   92MOL0     H12126   7.808   7.751   5.843  1.3055  2.0965 -0.5479
   92MOL0     H12127   8.060   7.745   5.759 -0.1071 -2.4679  0.1083
   92MOL0     H12128   8.479   7.559   5.652  0.2247 -1.5406  0.5994
   92MOL0     H12129   8.716   7.543   5.642 -1.0998  0.6132 -2.5331
   92MOL0     H12130  10.825   7.716   5.877  1.1610  0.3398 -0.9635
   92MOL0     H12131  11.044   7.651   5.948 -1.7939  1.1833 -2.0721
   92MOL0     H12132  11.333   7.428   6.331  1.8435 -0.2949  0.6663
   92MOL0     H12133  11.580   7.459   6.339 -1.5577 -0.8638  0.5285
   92MOL0     H12134  11.801   7.441   6.334  3.5179  0.3096  0.6772
   92MOL0     H12135  11.921   7.379   6.225  0.0734  0.0154  1.3856
   92MOL0     H12136  11.679   7.205   6.296 -0.0935 -0.6711  3.1454
   92MOL0     H12137  11.807   7.163   6.198  1.9303  1.5880 -1.3982
   92MOL0     H12138  11.798   7.107   6.457 -2.3008  2.7611  3.2423
   92MOL0     H12139  11.835   7.268   6.501 -1.3274 -0.0720  0.4750
   92MOL0     H12140  12.029   7.096   6.325  1.3876 -0.8678  0.6547
   92MOL0     H12141  12.051   7.265   6.381 -2.0814  1.0585  1.7094
   92MOL0     H12142  12.196   7.050   6.711  0.6372  0.8259 -0.6431
   92MOL0     H12143  11.610   7.400   5.921  0.9330  0.8966 -0.1901
   92MOL0     H12144  11.363   7.406   5.904  1.9771 -2.9326 -0.1097
   93MOL0     O12145   8.345   6.781   9.377  0.2775 -0.3109 -0.0483
   93MOL0     C12146   8.393   6.860   9.297 -0.3927 -0.4023  0.4574
   93MOL0     O12147   8.324   6.911   9.189 -0.7500 -1.4035 -0.0556
   93MOL0     C12148   8.188   6.892   9.199 -0.1452  0.5460  0.7903
   93MOL0     C12149   8.127   6.801   9.115  0.3220  0.2317  0.2691
   93MOL0     C12150   7.985   6.792   9.124  0.1778  0.6861 -0.4999
   93MOL0     C12151   7.913   6.881   9.205  1.7150 -0.4591  0.3466
   93MOL0     O12152   7.772   6.870   9.209 -0.4731 -0.6581  0.6235
   93MOL0     C12153   7.694   6.954   9.303 -0.7098  0.4789 -0.4536
   93MOL0     C12154   7.547   6.920   9.279 -0.3378 -0.4501  0.1036
   93MOL0     C12155   7.450   6.998   9.362 -0.6382  0.1088  0.9051
   93MOL0     C12156   7.307   6.955   9.325  0.6881  0.0917 -0.7846
   93MOL0     C12157   7.198   7.042   9.408 -0.0067  0.6374 -0.6602
   93MOL0     C12158   7.179   7.188   9.355 -0.4836  0.0707 -0.2952
   93MOL0     C12159   7.055   7.252   9.414 -0.5667 -0.4159  0.6955
   93MOL0     C12160   7.045   7.234   9.563 -1.1280  0.3649  0.2784
   93MOL0     N12161   6.943   7.323   9.624 -0.7178 -0.2652 -0.5504
   93MOL0     C12162   6.843   7.391   9.557  0.6549 -0.3822  0.0452
   93MOL0     C12163   6.744   7.415   9.645  0.0586  0.0622  0.5678
   93MOL0     C12164   6.622   7.500   9.618  0.3344  0.3688 -0.7582
   93MOL0     C12165   6.490   7.413   9.621  0.1882  0.4896  0.0116
   93MOL0     C12166   6.380   7.500   9.578  0.3278 -0.0075  0.8312
   93MOL0     C12167   6.248   7.424   9.597 -0.6345 -0.2202  0.0421
   93MOL0     O12168   6.136   7.505   9.554  0.0656 -0.2799 -0.6500
   93MOL0     C12169   6.015   7.436   9.535  0.2160  0.3959  0.0172
   93MOL0     C12170   5.989   7.299   9.533 -0.4518 -0.4059  0.5866
   93MOL0     C12171   5.862   7.250   9.480 -0.2199 -0.5175  0.0301
   93MOL0     C12172   5.761   7.332   9.444 -0.0961  0.0692  0.2406
   93MOL0     C12173   5.629   7.283   9.395 -0.2057 -0.7208  0.1170
   93MOL0     O12174   5.536   7.378   9.346 -0.1852 -0.2227 -0.3214
   93MOL0     C12175   5.423   7.317   9.320  0.0474  0.4711 -0.1166
   93MOL0     C12176   5.398   7.267   9.192  0.0053 -0.0667 -0.9972
   93MOL0     C12177   5.276   7.204   9.152 -0.5792  0.5212  0.5471
   93MOL0     C12178   5.172   7.205   9.242  0.1649 -0.2688  0.3628
   93MOL0     O12179   5.041   7.166   9.218  0.3534  0.0438  0.1331
   93MOL0     C12180   4.993   7.162   9.079 -0.0238 -0.0976 -0.6796
   93MOL0     C12181   4.846   7.120   9.102 -0.5901 -0.4169  1.2131
   93MOL0     C12182   4.791   7.112   8.958  0.0143  0.1115  0.1628
   93MOL0     C12183   4.650   7.058   8.963  0.6252 -0.1401 -0.0869
   93MOL0     C12184   4.600   7.019   8.818 -0.3181  0.3472 -0.3701
   93MOL0     C12185   4.449   7.006   8.806 -0.2399  0.1993  0.4355
   93MOL0     C12186   4.391   6.883   8.878  0.2989 -0.7703 -0.0647
   93MOL0     C12187   4.243   6.856   8.849 -0.2182 -0.5780  0.6008
   93MOL0    Cl12188   4.229   6.755   8.699 -0.0207 -0.0863  0.2322
   93MOL0     C12189   5.197   7.248   9.377  0.6933 -0.1299  0.8384
   93MOL0     C12190   5.317   7.300   9.416  0.0004 -0.2937  0.1828
   93MOL0     O12191   5.617   7.160   9.406 -0.2799  0.3172 -0.0158
   93MOL0     C12192   5.783   7.471   9.447  0.4573  0.3405 -0.5097
   93MOL0     C12193   5.909   7.517   9.492  0.4124  0.0454  0.3809
   93MOL0     N12194   6.797   7.373   9.767  0.2757 -0.7767 -0.3793
   93MOL0     N12195   6.911   7.324   9.753 -0.2795  0.6071 -0.4253
   93MOL0     C12196   7.984   6.978   9.283 -0.2484  0.1359 -0.1356
   93MOL0     C12197   8.119   6.975   9.289  0.1704  0.8272 -0.2280
   93MOL0     C12198   8.537   6.905   9.307 -0.4476 -0.8999 -0.0973
   93MOL0     C12199   8.582   7.037   9.265 -0.4350  0.0959 -0.7056
   93MOL0     C12200   8.723   7.061   9.277 -0.5791  0.7842  0.5834
   93MOL0     C12201   8.814   6.976   9.326 -0.1468 -0.2787 -0.0506
   93MOL0     O12202   8.944   7.020   9.311  0.3481 -0.0066 -0.2895
   93MOL0     C12203   9.027   7.016   9.423 -0.2638 -0.4496 -0.2223
   93MOL0     C12204   9.168   7.047   9.371 -0.2241 -0.6194  0.7858
   93MOL0     C12205   9.271   7.095   9.483  0.6411  0.1499  0.0467
   93MOL0     C12206   9.298   6.995   9.593  0.0465  0.2820  0.3742
   93MOL0     C12207   9.345   6.863   9.558  0.2034  0.0099 -0.3677
   93MOL0     C12208   9.384   6.756   9.525 -0.7755  0.3330  0.3991
   93MOL0     C12209   8.770   6.855   9.377  0.0713  0.3239  0.1675
   93MOL0     C12210   8.633   6.818   9.354 -0.8697 -0.1366  0.4576
   93MOL0     H12211   8.185   6.723   9.068  0.1339 -1.1158  2.1836
   93MOL0     H12212   7.933   6.708   9.079 -0.5546  2.2764 -2.7672
   93MOL0     H12213   7.713   7.061   9.286 -0.0109  0.9425  2.5873
   93MOL0     H12214   7.723   6.938   9.408 -2.1620  1.1525  0.0787
   93MOL0     H12215   7.547   6.810   9.279  1.1578 -0.4728 -1.3831
   93MOL0     H12216   7.525   6.960   9.180 -1.2856  1.5359  1.0380
   93MOL0     H12217   7.471   7.103   9.343 -1.4544  0.0588 -0.4040
   93MOL0     H12218   7.477   6.968   9.464 -0.9324  2.1701  1.6348
   93MOL0     H12219   7.286   6.965   9.219 -0.5821 -3.0843 -0.9357
   93MOL0     H12220   7.298   6.850   9.352  1.6570  0.5492  1.6561
   93MOL0     H12221   7.225   7.037   9.513  4.3723  0.0244 -1.6366
   93MOL0     H12222   7.104   6.988   9.391 -0.5201  1.4469 -0.4543
   93MOL0     H12223   7.176   7.175   9.246  0.7374 -2.0130 -0.1393
   93MOL0     H12224   7.265   7.253   9.373 -1.1219  0.5549  1.1637
   93MOL0     H12225   7.067   7.358   9.389  1.5191 -0.3122  1.8623
   93MOL0     H12226   6.966   7.209   9.367  0.3510  0.0450 -1.6180
   93MOL0     H12227   7.143   7.249   9.609  0.0298 -2.5818 -0.9396
   93MOL0     H12228   7.015   7.130   9.583 -0.7995  0.1820 -0.1578
   93MOL0     H12229   6.855   7.433   9.457 -1.6632  3.0370  1.0123
   93MOL0     H12230   6.635   7.559   9.527  0.3188  1.2511 -0.1987
   93MOL0     H12231   6.614   7.577   9.696 -0.0074 -1.2500  0.8804
   93MOL0     H12232   6.468   7.388   9.725  0.1282  0.7583  0.0644
   93MOL0     H12233   6.502   7.322   9.562 -1.0867  0.1418  0.2676
   93MOL0     H12234   6.369   7.594   9.634 -0.1074 -0.6976  1.9329
   93MOL0     H12235   6.385   7.515   9.469  0.6383 -1.1639  0.6809
   93MOL0     H12236   6.225   7.392   9.699 -1.6373  0.0891 -0.0717
   93MOL0     H12237   6.254   7.328   9.545 -0.3348 -0.5534  0.6838
   93MOL0     H12238   6.068   7.226   9.549 -0.2197 -0.2422  0.1915
   93MOL0     H12239   5.865   7.141   9.474  0.2047 -0.5023 -0.0468
   93MOL0     H12240   5.487   7.247   9.134  2.1486  0.4588  1.9246
   93MOL0     H12241   5.252   7.165   9.053  1.2934 -0.9078  0.5912
   93MOL0     H12242   5.048   7.090   9.018  0.2364 -1.9453  1.5820
   93MOL0     H12243   4.991   7.259   9.028 -1.9041  1.2578  1.7283
   93MOL0     H12244   4.802   7.200   9.163  0.0420 -0.7370  2.0954
   93MOL0     H12245   4.829   7.025   9.153  3.1060 -1.4721  0.7691
   93MOL0     H12246   4.855   7.052   8.893  0.0351  0.2816  0.0259
   93MOL0     H12247   4.801   7.210   8.911 -2.9659 -0.1299 -1.2204
   93MOL0     H12248   4.659   6.970   9.026  3.4038  0.9691  1.2083
   93MOL0     H12249   4.574   7.123   9.007 -1.1812 -0.3907 -2.5835
   93MOL0     H12250   4.660   6.935   8.780 -0.7858  0.9623 -2.6267
   93MOL0     H12251   4.617   7.096   8.742  0.9527 -0.4724 -0.9560
   93MOL0     H12252   4.440   7.004   8.697  1.7798  2.4956  0.1623
   93MOL0     H12253   4.398   7.100   8.830 -1.3262 -0.5541  1.2012
   93MOL0     H12254   4.442   6.793   8.845  2.2723  0.4498 -0.5313
   93MOL0     H12255   4.406   6.910   8.983  1.7659 -1.4181 -0.0884
   93MOL0     H12256   4.190   6.946   8.818 -2.0685 -1.8072  0.0585
   93MOL0     H12257   4.189   6.806   8.930 -3.2130 -3.5729 -2.8470
   93MOL0     H12258   5.117   7.251   9.451 -1.5869  0.4414 -1.4827
   93MOL0     H12259   5.339   7.331   9.518 -0.1443  2.7005 -0.6034
   93MOL0     H12260   5.697   7.532   9.418 -1.4201 -0.3294  3.0949
   93MOL0     H12261   5.928   7.624   9.485 -3.0718  0.8770  1.6433
   93MOL0     H12262   7.934   7.061   9.331 -2.2778  0.4216 -2.5022
   93MOL0     H12263   8.175   7.033   9.362 -0.3123 -1.7444  2.3868
   93MOL0     H12264   8.507   7.102   9.221  0.7643  1.2682 -1.0889
   93MOL0     H12265   8.757   7.158   9.242 -0.3320 -0.0096 -1.5353
   93MOL0     H12266   9.022   6.918   9.472 -3.3825  1.4589  3.8517
   93MOL0     H12267   8.998   7.086   9.502 -0.7091 -1.1200  0.2218
   93MOL0     H12268   9.216   6.957   9.331  2.4697  0.6531  0.9501
   93MOL0     H12269   9.167   7.135   9.306 -0.4861  0.8951  2.7459
   93MOL0     H12270   9.225   7.184   9.528  0.6175  0.4805 -0.6213
   93MOL0     H12271   9.368   7.131   9.447  2.2448 -0.1369  3.6233
   93MOL0     H12272   9.379   7.038   9.654  1.0680  2.4523 -2.3052
   93MOL0     H12273   9.222   6.974   9.669  0.9655  0.8145  1.4636
   93MOL0     H12274   9.398   6.656   9.488 -2.1178 -0.3084  1.5075
   93MOL0     H12275   8.842   6.782   9.410 -1.6663 -1.6967 -0.2462
   93MOL0     H12276   8.594   6.718   9.374 -0.0728 -0.8155 -1.1585
   94MOL0     O12277   0.919   3.948   5.596  0.4053  0.8154 -0.1022
   94MOL0     C12278   0.839   4.027   5.557 -0.5209 -0.9141  0.4303
   94MOL0     O12279   0.869   4.151   5.508  0.6579 -0.0527 -0.1788
   94MOL0     C12280   0.995   4.207   5.504  0.2215  0.1145 -0.2694
   94MOL0     C12281   0.992   4.349   5.478 -0.4134  0.4980  0.7253
   94MOL0     C12282   1.109   4.418   5.467 -1.0164  0.2770 -0.5511
   94MOL0     C12283   1.230   4.358   5.491 -0.2520 -0.0734  0.3275
   94MOL0     O12284   1.354   4.422   5.491  0.1577 -0.1233  0.3185
   94MOL0     C12285   1.397   4.479   5.364  0.0168  0.6823  1.4242
   94MOL0     C12286   1.456   4.378   5.262 -0.0071 -0.2758  0.6401
   94MOL0     C12287   1.568   4.287   5.317  0.6724  0.3059 -0.1388
   94MOL0     C12288   1.624   4.203   5.201 -0.2220 -0.6649 -0.5341
   94MOL0     C12289   1.665   4.289   5.079 -1.3147 -0.2023  0.8217
   94MOL0     C12290   1.735   4.192   4.967  0.1737 -0.1458 -0.8250
   94MOL0     C12291   1.796   4.270   4.851  0.0407 -0.5789 -0.3034
   94MOL0     C12292   1.881   4.192   4.755  0.5417 -0.3300  0.2888
   94MOL0     N12293   1.837   4.184   4.617  0.5617  0.5839  0.9941
   94MOL0     C12294   1.718   4.112   4.592 -0.5556  0.1303  0.0863
   94MOL0     C12295   1.683   4.147   4.465 -0.6950  0.2485 -0.4080
   94MOL0     C12296   1.552   4.108   4.395 -0.3883 -0.3237  0.1048
   94MOL0     C12297   1.424   4.183   4.444  0.0185 -0.5417  0.1773
   94MOL0     C12298   1.448   4.338   4.447 -0.3608  0.5776 -0.3274
   94MOL0     C12299   1.508   4.412   4.324 -0.7955  0.1242  0.3018
   94MOL0     O12300   1.417   4.445   4.223  0.1373  0.1705 -0.5572
   94MOL0     C12301   1.331   4.542   4.265  0.5369  0.2195 -0.5424
   94MOL0     C12302   1.350   4.635   4.366  0.7384  0.0841 -0.3153
   94MOL0     C12303   1.245   4.720   4.417  0.3471  0.2719  0.7619
   94MOL0     C12304   1.125   4.733   4.340 -0.1272  0.0109  0.1210
   94MOL0     C12305   1.016   4.829   4.365  0.2870 -0.2983  0.0986
   94MOL0     O12306   0.896   4.808   4.307  0.2804 -0.2858 -0.3722
   94MOL0     C12307   0.778   4.846   4.363  0.4498  0.0817 -0.1278
   94MOL0     C12308   0.685   4.923   4.299  0.1572 -0.2341  1.1522
   94MOL0     C12309   0.560   4.964   4.356 -0.4572  0.1217 -0.1149
   94MOL0     C12310   0.534   4.932   4.492 -0.9513  0.5492 -0.1483
   94MOL0     O12311   0.427   4.967   4.565 -0.1859 -0.7039  0.5943
   94MOL0     C12312   0.324   5.048   4.498  0.4187 -0.2009 -0.0310
   94MOL0     C12313   0.214   5.075   4.593  0.2819  0.2635 -1.3463
   94MOL0     C12314   0.074   5.092   4.520 -0.8237 -0.5244 -0.7319
   94MOL0     C12315  -0.040   5.140   4.617 -0.4226  0.3174 -0.8790
   94MOL0     C12316  -0.184   5.149   4.556 -0.3984  0.0145  0.9041
   94MOL0     C12317  -0.279   5.046   4.604  0.0661  0.7606 -0.2898
   94MOL0     C12318  -0.315   5.081   4.748  0.2369  0.1743 -0.3936
   94MOL0     C12319  -0.429   4.997   4.804  0.3548  0.2404 -0.2584
   94MOL0    Cl12320  -0.589   5.058   4.749 -0.3232 -0.4029 -0.2887
   94MOL0     C12321   0.629   4.848   4.560 -1.1062 -0.6949 -0.1219
   94MOL0     C12322   0.748   4.806   4.496  1.1702  0.5491 -0.0167
   94MOL0     O12323   1.037   4.909   4.455  0.5027  0.3695  0.6336
   94MOL0     C12324   1.112   4.644   4.233 -0.2718  0.8537 -0.1764
   94MOL0     C12325   1.206   4.546   4.191 -0.3579 -0.6199 -0.1995
   94MOL0     N12326   1.778   4.236   4.416 -0.1118  0.1977  0.7712
   94MOL0     N12327   1.866   4.260   4.502 -0.8917 -0.2529  0.0120
   94MOL0     C12328   1.238   4.219   5.517 -0.3238  0.0786 -0.3087
   94MOL0     C12329   1.118   4.147   5.528  0.0071  0.7230  0.1586
   94MOL0     C12330   0.701   3.993   5.579 -0.3421  0.4045  0.9105
   94MOL0     C12331   0.653   3.860   5.590  0.9423 -0.8609  0.3093
   94MOL0     C12332   0.516   3.848   5.631 -0.5118 -0.1965 -0.0970
   94MOL0     C12333   0.426   3.955   5.651 -0.0022 -0.5066 -0.1189
   94MOL0     O12334   0.304   3.924   5.705  0.0993 -0.3137  0.2063
   94MOL0     C12335   0.218   4.026   5.756 -0.8915  0.4092 -0.4484
   94MOL0     C12336   0.117   4.068   5.649 -0.5656  0.1920 -0.0925
   94MOL0     C12337   0.014   4.173   5.698  0.0343 -0.1350  0.1729
   94MOL0     C12338   0.060   4.315   5.708 -0.3636  0.2729 -0.8576
   94MOL0     C12339  -0.054   4.399   5.761 -0.3038 -0.2382  0.4149
   94MOL0     C12340  -0.156   4.446   5.801  0.7282  0.1174  0.0950
   94MOL0     C12341   0.477   4.082   5.625  0.6595 -0.6045  0.5729
   94MOL0     C12342   0.608   4.103   5.591  0.2151  0.0623  0.2088
   94MOL0     H12343   0.895   4.391   5.450 -0.4915 -1.7602 -3.0898
   94MOL0     H12344   1.107   4.517   5.422  0.2596  0.3297 -0.5520
   94MOL0     H12345   1.466   4.560   5.385 -0.4075  1.1227  1.1366
   94MOL0     H12346   1.312   4.526   5.313  1.5986 -0.4785 -2.7046
   94MOL0     H12347   1.499   4.438   5.181 -2.0459  1.9742  1.0880
   94MOL0     H12348   1.371   4.319   5.227 -0.0899  0.5814 -0.6535
   94MOL0     H12349   1.526   4.209   5.382 -0.3983 -0.9079 -2.1940
   94MOL0     H12350   1.639   4.344   5.377 -0.8914 -0.2204  2.3515
   94MOL0     H12351   1.712   4.155   5.244 -0.8831 -0.3990  1.2143
   94MOL0     H12352   1.545   4.131   5.178  0.8899 -1.8636 -0.7653
   94MOL0     H12353   1.743   4.360   5.107  3.2055 -4.8965  1.7276
   94MOL0     H12354   1.578   4.340   5.036 -0.8653 -0.1275 -0.0298
   94MOL0     H12355   1.655   4.128   4.931  1.4082 -0.9667 -2.2291
   94MOL0     H12356   1.813   4.126   5.007  1.8658  1.3437 -1.4890
   94MOL0     H12357   1.720   4.327   4.796  0.6893  2.7186  1.9443
   94MOL0     H12358   1.857   4.347   4.897  1.7867 -1.5911 -0.8289
   94MOL0     H12359   1.915   4.096   4.796 -0.8674 -0.4431  1.2487
   94MOL0     H12360   1.972   4.252   4.748  0.2893 -0.1289 -2.8207
   94MOL0     H12361   1.668   4.041   4.658  1.1392 -2.0628 -0.8697
   94MOL0     H12362   1.532   4.001   4.409  1.9790 -0.9546 -0.8631
   94MOL0     H12363   1.573   4.116   4.288  0.8223  3.7525  0.4961
   94MOL0     H12364   1.397   4.152   4.545 -2.5253  1.7719  0.3100
   94MOL0     H12365   1.336   4.164   4.383 -0.3872 -0.3482  0.6894
   94MOL0     H12366   1.358   4.387   4.484 -1.5440  0.0639 -2.3570
   94MOL0     H12367   1.509   4.357   4.536  0.0755 -0.2996 -0.4213
   94MOL0     H12368   1.584   4.354   4.272 -0.5936  1.6145 -1.1337
   94MOL0     H12369   1.564   4.499   4.359  0.7215  0.0778 -1.8689
   94MOL0     H12370   1.445   4.646   4.418  1.7349  0.3051 -2.1012
   94MOL0     H12371   1.251   4.793   4.497  1.0197 -2.2381  3.1203
   94MOL0     H12372   0.704   4.939   4.193  1.4086  0.2150  1.4320
   94MOL0     H12373   0.481   5.020   4.306 -3.0303 -2.2591  0.9978
   94MOL0     H12374   0.297   5.005   4.401  0.1668 -0.3520  0.1061
   94MOL0     H12375   0.358   5.151   4.481 -0.3908  0.4533  1.9666
   94MOL0     H12376   0.240   5.162   4.654  1.9413 -1.1104  0.0000
   94MOL0     H12377   0.208   4.998   4.671  1.8426 -1.5037 -2.8626
   94MOL0     H12378   0.056   4.997   4.468  0.0922 -0.3613 -1.3733
   94MOL0     H12379   0.080   5.171   4.444 -1.0854  0.5011  0.2933
   94MOL0     H12380  -0.033   5.072   4.703  0.0297  0.0581 -1.1162
   94MOL0     H12381  -0.013   5.236   4.661 -1.7802 -0.0224  0.8029
   94MOL0     H12382  -0.175   5.146   4.447 -0.5048 -1.0710  0.9179
   94MOL0     H12383  -0.225   5.250   4.561  1.4357  0.7677  1.7411
   94MOL0     H12384  -0.228   4.949   4.605  0.2977  0.7667  3.5511
   94MOL0     H12385  -0.374   5.034   4.550  1.0668 -1.3718 -1.6950
   94MOL0     H12386  -0.232   5.078   4.819 -1.0468 -3.9827  1.2065
   94MOL0     H12387  -0.353   5.182   4.767  0.6254  0.0586  1.1278
   94MOL0     H12388  -0.415   5.010   4.912  0.9523  1.2600 -0.4404
   94MOL0     H12389  -0.419   4.890   4.786 -1.9710  0.0247 -0.6407
   94MOL0     H12390   0.616   4.812   4.661  0.9789 -0.4487  0.2784
   94MOL0     H12391   0.808   4.727   4.540  0.4616 -0.8541 -1.4949
   94MOL0     H12392   1.021   4.644   4.173  1.6482 -0.4216 -3.3691
   94MOL0     H12393   1.201   4.475   4.109  1.1446  1.5368 -2.2710
   94MOL0     H12394   1.336   4.176   5.535  0.1772  1.0075 -0.7621
   94MOL0     H12395   1.125   4.041   5.550 -3.1328  0.0416 -1.4726
   94MOL0     H12396   0.713   3.771   5.574 -1.5644 -2.9039  1.5197
   94MOL0     H12397   0.479   3.750   5.659 -1.3130  0.5094  1.4559
   94MOL0     H12398   0.276   4.105   5.804 -2.0037  0.5428  0.7188
   94MOL0     H12399   0.155   3.991   5.838 -2.9707 -1.1736 -2.5930
   94MOL0     H12400   0.181   4.112   5.572  2.6208 -1.6779  1.2449
   94MOL0     H12401   0.060   3.983   5.613 -0.3330  0.7753 -1.9236
   94MOL0     H12402  -0.035   4.143   5.791  2.0907 -0.0302  1.3623
   94MOL0     H12403  -0.065   4.172   5.622  0.5535  0.0919 -0.3830
   94MOL0     H12404   0.148   4.317   5.773 -1.2809  0.5682  0.4178
   94MOL0     H12405   0.084   4.348   5.607  0.4911  0.8500 -0.4771
   94MOL0     H12406  -0.235   4.505   5.843  2.1551  0.1144  3.0441
   94MOL0     H12407   0.409   4.162   5.653 -1.3823 -0.8355 -3.0788
   94MOL0     H12408   0.643   4.206   5.585  0.2158  0.0881  0.6327
   95MOL0     O12409  10.410   3.180   4.926  0.4615  0.2417  0.2475
   95MOL0     C12410  10.475   3.079   4.906  0.0300  0.3495 -0.1051
   95MOL0     O12411  10.432   2.944   4.926  0.3363  0.3465 -0.1344
   95MOL0     C12412  10.295   2.926   4.947  0.4253  0.1215  0.0987
   95MOL0     C12413  10.248   2.817   5.031 -0.0900  0.6605 -0.7220
   95MOL0     C12414  10.105   2.787   5.033  0.1190 -0.2028 -0.2293
   95MOL0     C12415  10.009   2.853   4.955  0.0104 -0.0823 -0.0400
   95MOL0     O12416   9.875   2.814   4.966 -0.8502 -0.4335 -0.4513
   95MOL0     C12417   9.796   2.813   4.835 -0.0853  1.2698 -0.2395
   95MOL0     C12418   9.680   2.703   4.846 -1.0894 -0.0945 -0.0457
   95MOL0     C12419   9.578   2.742   4.950 -0.3037 -0.3726  0.1547
   95MOL0     C12420   9.450   2.658   4.981  0.2454 -0.2358  0.3992
   95MOL0     C12421   9.378   2.702   5.104 -0.6761  0.3014  0.3269
   95MOL0     C12422   9.254   2.616   5.134 -0.3769  0.2641  0.6737
   95MOL0     C12423   9.224   2.574   5.280  0.2049  0.4632 -0.8696
   95MOL0     C12424   9.126   2.453   5.285 -0.1425  0.3934 -0.0915
   95MOL0     N12425   8.996   2.476   5.217 -1.2079  0.6199 -0.6689
   95MOL0     C12426   8.874   2.518   5.275 -0.7116 -0.0939  0.4401
   95MOL0     C12427   8.779   2.503   5.179  0.6176 -0.6808 -0.1583
   95MOL0     C12428   8.629   2.546   5.186  0.1114  0.3213 -0.2095
   95MOL0     C12429   8.546   2.505   5.064 -0.0934 -1.0056  0.2150
   95MOL0     C12430   8.515   2.353   5.056  0.6350  0.0840  0.6815
   95MOL0     C12431   8.430   2.295   5.163  1.7807 -1.0661  0.1184
   95MOL0     O12432   8.305   2.361   5.172  0.5416  0.3372  0.2984
   95MOL0     C12433   8.189   2.317   5.097 -0.6342  0.0713  0.8550
   95MOL0     C12434   8.179   2.210   4.994  0.6055  0.3634  0.5762
   95MOL0     C12435   8.062   2.183   4.922  0.1179 -0.5213  0.6649
   95MOL0     C12436   7.938   2.259   4.945 -0.7298 -0.3388  0.6291
   95MOL0     C12437   7.826   2.235   4.866  0.1583  0.3236 -0.9746
   95MOL0     O12438   7.835   2.138   4.774  0.2923  0.2395 -0.1905
   95MOL0     C12439   7.733   2.118   4.689  0.6592 -0.6384  0.4838
   95MOL0     C12440   7.740   2.154   4.551  0.1222 -0.0315 -0.6873
   95MOL0     C12441   7.635   2.135   4.466  0.1412 -0.4836  0.3010
   95MOL0     C12442   7.516   2.072   4.506  0.0607  0.5164 -1.7777
   95MOL0     O12443   7.413   2.056   4.424  0.0941 -0.3812  0.1431
   95MOL0     C12444   7.279   2.077   4.473 -0.0393 -0.6915 -0.9305
   95MOL0     C12445   7.223   2.183   4.368  0.0983  0.5471 -1.3418
   95MOL0     C12446   7.079   2.209   4.410 -0.0950  0.3010 -0.2062
   95MOL0     C12447   7.012   2.304   4.309  0.4258  0.0093 -0.0212
   95MOL0     C12448   6.963   2.236   4.178  0.8617  0.9296  0.6910
   95MOL0     C12449   6.864   2.334   4.105 -0.7028 -0.0159  0.5567
   95MOL0     C12450   6.843   2.308   3.953 -0.4361 -0.3608  0.1189
   95MOL0     C12451   6.816   2.163   3.923  0.6875  0.3404 -0.1713
   95MOL0    Cl12452   6.642   2.147   3.975  0.0807 -0.0014 -0.2968
   95MOL0     C12453   7.513   2.023   4.636  0.5581 -0.3646  0.5216
   95MOL0     C12454   7.615   2.047   4.725  0.1092  0.9014  0.1250
   95MOL0     O12455   7.723   2.290   4.907  0.0177 -0.1774  0.6741
   95MOL0     C12456   7.951   2.365   5.044 -0.0262  0.4874  0.3638
   95MOL0     C12457   8.071   2.391   5.114 -0.3287 -0.9675 -0.4176
   95MOL0     N12458   8.850   2.459   5.069 -0.6615 -1.1614  0.4912
   95MOL0     N12459   8.974   2.442   5.085 -0.4343 -0.5712  0.7105
   95MOL0     C12460  10.055   2.956   4.876 -0.4050  0.1538 -0.3368
   95MOL0     C12461  10.192   2.988   4.870 -1.0273 -0.7263 -0.8288
   95MOL0     C12462  10.610   3.099   4.860 -0.7556  0.0786  0.6749
   95MOL0     C12463  10.696   2.990   4.843  0.5853  0.5813 -0.0287
   95MOL0     C12464  10.812   3.000   4.784 -0.2093  0.1251  0.7515
   95MOL0     C12465  10.865   3.120   4.743  1.7422 -0.4295 -1.2197
   95MOL0     O12466  10.970   3.112   4.662 -0.3375  0.3580 -0.4694
   95MOL0     C12467  11.056   3.226   4.641 -0.5139  0.4367  0.7300
   95MOL0     C12468  11.155   3.158   4.548  0.7766  0.2336  0.5461
   95MOL0     C12469  11.254   3.254   4.504 -0.2402  0.7985 -0.6099
   95MOL0     C12470  11.368   3.188   4.421 -0.6759 -0.2972 -0.1442
   95MOL0     C12471  11.467   3.291   4.391  0.4533 -0.2800 -0.2607
   95MOL0     C12472  11.545   3.382   4.390 -0.5044 -0.1878  0.0859
   95MOL0     C12473  10.793   3.240   4.763 -0.3061 -0.0752  0.0982
   95MOL0     C12474  10.666   3.224   4.827 -0.0983  0.4687  0.0985
   95MOL0     H12475  10.312   2.747   5.082 -4.1416 -1.3476  2.1795
   95MOL0     H12476  10.057   2.717   5.100 -0.9954  0.6184 -0.1510
   95MOL0     H12477   9.859   2.775   4.755 -0.1481  0.6881 -0.0171
   95MOL0     H12478   9.751   2.909   4.809  1.7033  2.2130  0.0233
   95MOL0     H12479   9.719   2.601   4.851 -3.9765 -1.2564  0.6932
   95MOL0     H12480   9.621   2.717   4.756 -0.4124  1.3302 -0.2940
   95MOL0     H12481   9.552   2.848   4.937  0.3121 -0.3099 -0.6660
   95MOL0     H12482   9.648   2.738   5.033 -0.8809 -1.2601  0.6127
   95MOL0     H12483   9.374   2.663   4.902 -1.1016 -2.4647  1.4625
   95MOL0     H12484   9.490   2.556   4.981  4.6240  1.2325 -1.4066
   95MOL0     H12485   9.355   2.808   5.099 -0.2926  0.4255  1.0283
   95MOL0     H12486   9.453   2.688   5.183 -0.2795  1.8259  0.2424
   95MOL0     H12487   9.283   2.522   5.086 -0.4685  0.9077 -0.6938
   95MOL0     H12488   9.169   2.661   5.081 -0.2374  1.2272  1.2379
   95MOL0     H12489   9.313   2.549   5.339 -0.6675  0.8837  0.6930
   95MOL0     H12490   9.182   2.652   5.343  3.7271  1.3570  0.6072
   95MOL0     H12491   9.111   2.426   5.390 -2.6010  2.5337  0.2157
   95MOL0     H12492   9.180   2.369   5.240 -1.4525 -0.7627  0.4156
   95MOL0     H12493   8.853   2.554   5.376  1.6672 -1.5311  1.5453
   95MOL0     H12494   8.628   2.655   5.182  0.2468  0.2805 -2.0543
   95MOL0     H12495   8.589   2.511   5.282 -0.8893 -0.4141 -0.8798
   95MOL0     H12496   8.592   2.537   4.970 -2.2900  1.9199 -0.0044
   95MOL0     H12497   8.453   2.562   5.077  0.5813  0.5065 -1.1560
   95MOL0     H12498   8.460   2.326   4.966 -0.0562  1.1905  0.7504
   95MOL0     H12499   8.614   2.306   5.050  0.4540 -0.1454 -1.0298
   95MOL0     H12500   8.480   2.295   5.260  0.6373  1.7010  0.7953
   95MOL0     H12501   8.410   2.191   5.134 -4.7112  0.0278 -0.9701
   95MOL0     H12502   8.264   2.150   4.964 -1.3844 -1.6251 -1.4274
   95MOL0     H12503   8.062   2.106   4.845  0.6042  0.6188 -0.5113
   95MOL0     H12504   7.830   2.212   4.535 -0.3762  0.8409 -0.4227
   95MOL0     H12505   7.635   2.171   4.364 -1.4854 -0.2054  0.3709
   95MOL0     H12506   7.280   2.123   4.572  1.9832  3.0410 -2.4669
   95MOL0     H12507   7.228   1.981   4.484  2.3203 -1.7911  1.5556
   95MOL0     H12508   7.235   2.131   4.272 -0.9921 -1.6831 -0.3245
   95MOL0     H12509   7.276   2.279   4.373 -0.0619  0.5684  1.6038
   95MOL0     H12510   7.072   2.262   4.506 -0.6599  2.8338 -1.5720
   95MOL0     H12511   7.021   2.117   4.425 -1.5258  1.1159 -0.5165
   95MOL0     H12512   6.932   2.365   4.353 -0.5820 -0.5039 -1.1033
   95MOL0     H12513   7.090   2.377   4.285  0.8868 -0.6944 -0.6941
   95MOL0     H12514   6.911   2.140   4.188  1.7851  0.3493  0.0865
   95MOL0     H12515   7.040   2.218   4.102 -1.1228 -3.1452 -0.6216
   95MOL0     H12516   6.891   2.439   4.115 -0.1919  0.2915 -2.8542
   95MOL0     H12517   6.770   2.316   4.158 -0.7761  0.8114  0.7230
   95MOL0     H12518   6.767   2.375   3.912  2.5550  3.0076 -0.4930
   95MOL0     H12519   6.940   2.332   3.907 -0.0949 -1.5835  0.1713
   95MOL0     H12520   6.889   2.090   3.961 -0.2674 -0.5060  0.0691
   95MOL0     H12521   6.811   2.156   3.814 -2.9134 -0.8930 -0.0415
   95MOL0     H12522   7.431   1.962   4.673 -1.6108  1.3340 -1.2518
   95MOL0     H12523   7.595   1.998   4.820 -0.2362  0.0473 -0.3777
   95MOL0     H12524   7.869   2.425   5.081 -1.6044 -2.2376  1.5246
   95MOL0     H12525   8.068   2.470   5.188 -1.9531 -1.9835  0.6979
   95MOL0     H12526   9.990   3.008   4.806 -0.4175 -0.1255 -0.5316
   95MOL0     H12527  10.206   3.059   4.789 -2.3989  1.0375  0.4096
   95MOL0     H12528  10.659   2.890   4.861  0.6276  0.4262 -0.7757
   95MOL0     H12529  10.867   2.908   4.769 -1.0719 -0.1294 -1.1664
   95MOL0     H12530  11.104   3.266   4.731 -1.8760 -0.1719  1.7658
   95MOL0     H12531  11.012   3.313   4.593  1.0224  0.7247 -0.2193
   95MOL0     H12532  11.200   3.066   4.587  1.3053 -0.7716 -2.1632
   95MOL0     H12533  11.096   3.126   4.461  1.6512 -0.8584  0.3146
   95MOL0     H12534  11.296   3.292   4.598  0.4628  0.0108 -0.5905
   95MOL0     H12535  11.211   3.339   4.452  1.2373  2.0098  0.0593
   95MOL0     H12536  11.420   3.113   4.482 -0.1529  1.1776  1.3183
   95MOL0     H12537  11.323   3.144   4.332 -3.5289  0.8273  0.6232
   95MOL0     H12538  11.614   3.464   4.393 -0.2055 -0.3586 -1.3625
   95MOL0     H12539  10.821   3.332   4.714  1.2652 -0.1440  0.7863
   95MOL0     H12540  10.596   3.305   4.843 -0.6355 -0.2396  1.3982
   96MOL0     O12541   5.276   0.144   6.790  0.2065  0.6315 -0.3792
   96MOL0     C12542   5.378   0.095   6.833 -0.4882 -0.4636  0.0565
   96MOL0     O12543   5.389  -0.030   6.892 -0.1660  0.2903  0.4299
   96MOL0     C12544   5.258  -0.083   6.917 -0.1657  0.0000 -0.0148
   96MOL0     C12545   5.193  -0.148   6.815  0.1651 -0.6651  0.4832
   96MOL0     C12546   5.070  -0.207   6.844  0.5266  0.3436 -0.3061
   96MOL0     C12547   5.009  -0.192   6.968  0.9335  0.2079  0.7726
   96MOL0     O12548   4.883  -0.242   6.998 -0.2867 -0.2940  0.3935
   96MOL0     C12549   4.780  -0.247   6.893  0.6973  0.5875  0.5959
   96MOL0     C12550   4.665  -0.325   6.946  0.2087  0.8231 -0.1543
   96MOL0     C12551   4.594  -0.264   7.067  0.6911  0.5660 -0.3062
   96MOL0     C12552   4.457  -0.336   7.085  0.2713 -0.3488 -0.0153
   96MOL0     C12553   4.373  -0.279   7.212 -0.6645 -0.3847 -0.1749
   96MOL0     C12554   4.223  -0.311   7.197  0.3949 -0.5684  0.1467
   96MOL0     C12555   4.140  -0.241   7.307  1.3075 -0.2186 -0.0381
   96MOL0     C12556   3.989  -0.263   7.292  0.0074 -0.2003  0.0647
   96MOL0     N12557   3.913  -0.146   7.341  0.1150  0.2985  0.0530
   96MOL0     C12558   3.862  -0.144   7.476 -0.0957 -0.3761  0.2199
   96MOL0     C12559   3.767  -0.042   7.473  0.5805  0.2382  0.1680
   96MOL0     C12560   3.662  -0.006   7.578  0.0216  0.0053  0.1572
   96MOL0     C12561   3.525  -0.026   7.518  0.7290 -0.6194  0.2387
   96MOL0     C12562   3.408   0.032   7.596 -1.0154  0.6967  0.0216
   96MOL0     C12563   3.418   0.182   7.630  0.0553  0.3543 -0.0244
   96MOL0     O12564   3.336   0.223   7.743  0.5009  0.6129  0.3704
   96MOL0     C12565   3.198   0.231   7.726  0.2376  0.7222  0.3662
   96MOL0     C12566   3.129   0.234   7.599 -0.7671 -0.9666  0.3701
   96MOL0     C12567   2.986   0.267   7.603  0.1438  0.5176  0.1398
   96MOL0     C12568   2.918   0.298   7.718  0.0275 -0.4881 -0.1788
   96MOL0     C12569   2.773   0.320   7.706 -0.7269 -0.0919  0.2677
   96MOL0     O12570   2.727   0.332   7.579 -0.2047  0.3597  0.7738
   96MOL0     C12571   2.590   0.302   7.552 -0.6215 -0.8430 -0.1017
   96MOL0     C12572   2.482   0.343   7.626 -0.6096 -0.2194 -0.0708
   96MOL0     C12573   2.350   0.293   7.594 -0.0733 -0.2566 -0.8309
   96MOL0     C12574   2.336   0.194   7.490 -1.0971  0.1713 -0.4274
   96MOL0     O12575   2.214   0.159   7.444  0.4600 -0.8492  0.2214
   96MOL0     C12576   2.097   0.250   7.451  0.0504 -0.4143 -0.0799
   96MOL0     C12577   2.045   0.268   7.305 -0.2988 -0.2767 -0.0804
   96MOL0     C12578   1.897   0.306   7.308 -0.1358  0.2014 -0.0843
   96MOL0     C12579   1.852   0.420   7.400  0.2525  0.2338 -0.1597
   96MOL0     C12580   1.704   0.465   7.367  0.4878  0.2371  0.4014
   96MOL0     C12581   1.670   0.568   7.477  0.0756  0.5107  0.7062
   96MOL0     C12582   1.539   0.640   7.440  0.3292  0.1085 -0.0033
   96MOL0     C12583   1.533   0.783   7.490 -0.0142  0.8031 -0.4410
   96MOL0    Cl12584   1.361   0.835   7.475 -0.1538 -0.2353 -0.1285
   96MOL0     C12585   2.442   0.147   7.417  0.1169  0.2248 -0.7950
   96MOL0     C12586   2.574   0.197   7.458  0.5495  0.0809  0.1187
   96MOL0     O12587   2.711   0.317   7.811  0.5056 -0.0446  0.2965
   96MOL0     C12588   2.990   0.288   7.840 -0.3300 -0.3928 -0.1725
   96MOL0     C12589   3.127   0.257   7.845 -0.0368 -0.2549  0.4324
   96MOL0     N12590   3.776   0.020   7.344  0.1831  0.0369  0.0221
   96MOL0     N12591   3.865  -0.041   7.272  0.1750 -0.3090 -0.4280
   96MOL0     C12592   5.073  -0.125   7.073  0.4410 -0.6337  0.4742
   96MOL0     C12593   5.197  -0.078   7.045  0.3192  0.6123 -1.1013
   96MOL0     C12594   5.500   0.176   6.830  0.4148 -0.5485 -0.9558
   96MOL0     C12595   5.608   0.146   6.921  0.3030 -0.1343 -0.8580
   96MOL0     C12596   5.730   0.224   6.912 -0.2268 -0.6626  0.0008
   96MOL0     C12597   5.746   0.311   6.802 -0.1139 -0.6143  0.8951
   96MOL0     O12598   5.848   0.408   6.774  0.1783  0.0443 -0.6499
   96MOL0     C12599   5.959   0.412   6.870  1.0038  0.0351  0.0670
   96MOL0     C12600   6.073   0.505   6.828  0.1993  0.4802  0.2165
   96MOL0     C12601   6.123   0.453   6.687  0.2010  0.1816 -0.5899
   96MOL0     C12602   6.246   0.545   6.680 -0.6892  0.2143  1.0780
   96MOL0     C12603   6.265   0.552   6.532 -0.3517  0.2634 -0.4493
   96MOL0     C12604   6.287   0.554   6.417  0.2335 -0.1259  1.1867
   96MOL0     C12605   5.645   0.320   6.706 -0.2798 -0.8648  0.0479
   96MOL0     C12606   5.524   0.269   6.723  0.1334 -0.2782  0.6707
   96MOL0     H12607   5.232  -0.147   6.714 -0.8535  1.2351  0.0815
   96MOL0     H12608   5.010  -0.269   6.778 -1.0332 -0.3410  1.6817
   96MOL0     H12609   4.814  -0.297   6.801 -1.5630  0.2531 -0.1217
   96MOL0     H12610   4.749  -0.148   6.859 -1.7571 -0.6756 -1.1592
   96MOL0     H12611   4.699  -0.425   6.977 -0.3461  0.5808 -0.3126
   96MOL0     H12612   4.607  -0.339   6.855  1.7928  0.2176 -1.1145
   96MOL0     H12613   4.580  -0.157   7.047 -2.6443  0.1253 -0.8840
   96MOL0     H12614   4.656  -0.280   7.155 -0.1557  0.4988  0.2954
   96MOL0     H12615   4.397  -0.316   6.996 -0.5497  1.3292  0.8527
   96MOL0     H12616   4.465  -0.444   7.092  0.9526 -0.2936  0.1193
   96MOL0     H12617   4.373  -0.170   7.202  0.8245 -0.4485 -1.0901
   96MOL0     H12618   4.413  -0.322   7.304  0.2536 -0.6025 -0.6624
   96MOL0     H12619   4.215  -0.420   7.202  1.1690 -0.7574 -1.7686
   96MOL0     H12620   4.181  -0.277   7.102  2.0715  0.4669 -0.2671
   96MOL0     H12621   4.167  -0.268   7.409 -1.0271 -1.4561  0.3346
   96MOL0     H12622   4.152  -0.133   7.289  0.6861 -0.2692 -0.8824
   96MOL0     H12623   3.958  -0.350   7.350 -0.6691  0.5378  0.8357
   96MOL0     H12624   3.963  -0.278   7.187  1.8250 -0.4715 -0.3766
   96MOL0     H12625   3.858  -0.221   7.553  1.8613  1.2175  2.0413
   96MOL0     H12626   3.679   0.100   7.599 -1.2011  0.1351  0.5589
   96MOL0     H12627   3.666  -0.067   7.669  0.1173 -0.3944 -0.1125
   96MOL0     H12628   3.499  -0.132   7.503 -1.4271 -0.2580  1.0524
   96MOL0     H12629   3.518   0.025   7.421 -1.5189  1.5574  1.4265
   96MOL0     H12630   3.320   0.003   7.537 -0.5894 -0.1767 -0.1989
   96MOL0     H12631   3.408  -0.029   7.688  0.9889  1.0301  0.2724
   96MOL0     H12632   3.393   0.236   7.538  1.0073  1.3014  0.2658
   96MOL0     H12633   3.522   0.208   7.649  0.9242 -0.4503 -3.0843
   96MOL0     H12634   3.175   0.228   7.501 -1.7745  2.9225 -0.5358
   96MOL0     H12635   2.933   0.262   7.508  2.1389  1.5058 -1.0863
   96MOL0     H12636   2.485   0.405   7.715 -1.3167 -0.1240 -0.1107
   96MOL0     H12637   2.267   0.324   7.657  0.7499  4.0868 -1.5685
   96MOL0     H12638   2.099   0.348   7.500 -0.8426 -0.4464  0.0469
   96MOL0     H12639   2.032   0.186   7.513  0.1519  0.5855  1.0865
   96MOL0     H12640   2.061   0.179   7.245 -2.3111  0.3969 -1.7155
   96MOL0     H12641   2.100   0.342   7.246 -2.3703 -0.1516 -1.9941
   96MOL0     H12642   1.834   0.218   7.328 -0.9125  1.4824  4.1250
   96MOL0     H12643   1.874   0.333   7.204  0.1330 -0.0850 -0.2201
   96MOL0     H12644   1.871   0.393   7.504 -1.6362  0.7570  0.3471
   96MOL0     H12645   1.908   0.511   7.376  0.0222  0.3400 -0.2930
   96MOL0     H12646   1.639   0.378   7.379  0.3200  0.3967  0.6654
   96MOL0     H12647   1.692   0.498   7.264  1.1044  2.3188  0.9444
   96MOL0     H12648   1.756   0.633   7.494 -0.0068  0.9202 -0.3627
   96MOL0     H12649   1.656   0.513   7.570  2.1742 -1.7205 -0.1879
   96MOL0     H12650   1.523   0.639   7.332  1.9357 -0.1837 -0.2671
   96MOL0     H12651   1.454   0.583   7.476  0.8822 -1.2701 -0.8129
   96MOL0     H12652   1.601   0.842   7.428  0.0783 -0.5634 -1.6986
   96MOL0     H12653   1.566   0.779   7.594  0.3704 -0.0269 -0.5815
   96MOL0     H12654   2.434   0.084   7.329 -3.5721  1.7256 -1.7482
   96MOL0     H12655   2.663   0.145   7.422  1.8942  1.4833  1.2489
   96MOL0     H12656   2.944   0.303   7.937 -2.2646 -0.9772 -0.9557
   96MOL0     H12657   3.178   0.272   7.939  1.0584  1.1864 -0.3469
   96MOL0     H12658   5.032  -0.101   7.170  0.6640  3.7380 -0.3168
   96MOL0     H12659   5.258  -0.035   7.124 -1.1201  0.3631  0.1836
   96MOL0     H12660   5.594   0.074   7.001 -1.9240  2.1265  0.9243
   96MOL0     H12661   5.811   0.209   6.982 -0.3013  2.3037  0.8900
   96MOL0     H12662   6.000   0.310   6.871 -1.7626 -1.2294 -2.2821
   96MOL0     H12663   5.916   0.434   6.968  1.3783 -2.1745  0.7820
   96MOL0     H12664   6.036   0.607   6.833 -0.7609  0.1069  1.1363
   96MOL0     H12665   6.156   0.494   6.899  1.6147  0.2260 -1.3896
   96MOL0     H12666   6.045   0.466   6.612 -1.9641 -0.7962  1.3717
   96MOL0     H12667   6.157   0.350   6.674 -1.5661 -0.5228  0.1545
   96MOL0     H12668   6.232   0.647   6.717 -0.3140  2.3015 -3.8269
   96MOL0     H12669   6.336   0.500   6.723 -0.2707  0.2883  0.2896
   96MOL0     H12670   6.314   0.553   6.313 -0.6155  0.2135  0.9511
   96MOL0     H12671   5.663   0.393   6.628 -1.4230  1.4477  1.8083
   96MOL0     H12672   5.446   0.280   6.648  1.2535  0.0129 -0.4716
   97MOL0     O12673   8.807   7.348   5.514 -0.2768 -0.1809  0.1560
   97MOL0     C12674   8.825   7.231   5.482  0.3097 -0.0982  0.8475
   97MOL0     O12675   8.728   7.134   5.455 -0.8678 -0.6259 -0.0243
   97MOL0     C12676   8.600   7.175   5.467 -0.4516  0.0123  0.2092
   97MOL0     C12677   8.552   7.202   5.598 -0.1820 -0.2736  0.1595
   97MOL0     C12678   8.412   7.229   5.609  0.3618 -0.1821  0.9391
   97MOL0     C12679   8.329   7.231   5.498  0.1830  0.5601  0.6209
   97MOL0     O12680   8.196   7.250   5.519  0.3202 -0.3437  0.7820
   97MOL0     C12681   8.154   7.362   5.597  0.4626  0.4860  0.5517
   97MOL0     C12682   8.067   7.463   5.510 -0.5952  0.2952  0.4936
   97MOL0     C12683   8.138   7.544   5.396 -0.6794  0.5828 -0.6202
   97MOL0     C12684   8.041   7.620   5.309  0.2085 -0.2319 -0.2756
   97MOL0     C12685   7.954   7.725   5.384 -0.1378  0.2599 -0.6112
   97MOL0     C12686   7.872   7.822   5.281  0.0295  0.2305 -0.1359
   97MOL0     C12687   7.733   7.764   5.229  0.3800  0.1690 -0.5920
   97MOL0     C12688   7.650   7.704   5.348  0.1504 -0.5381  0.1178
   97MOL0     N12689   7.634   7.795   5.460  1.0033 -0.4052  1.1154
   97MOL0     C12690   7.530   7.886   5.467 -0.8618 -0.0220 -0.0073
   97MOL0     C12691   7.532   7.925   5.599  0.1283 -0.8194  1.5067
   97MOL0     C12692   7.449   8.041   5.658 -0.0135 -0.1428  0.4162
   97MOL0     C12693   7.394   8.022   5.790  0.5762 -0.5568  0.0400
   97MOL0     C12694   7.286   7.915   5.795  0.3462  0.2014  0.1960
   97MOL0     C12695   7.163   7.956   5.877 -0.2995  0.1631 -0.0780
   97MOL0     O12696   7.081   7.840   5.868 -0.0592  0.3897 -0.1397
   97MOL0     C12697   6.984   7.822   5.962  0.4727 -0.8210 -0.3253
   97MOL0     C12698   6.928   7.696   5.962 -0.0473  0.6996 -0.0294
   97MOL0     C12699   6.838   7.660   6.066 -0.0555 -0.1439 -0.3298
   97MOL0     C12700   6.801   7.738   6.177  0.0371 -0.1963  0.9439
   97MOL0     C12701   6.721   7.701   6.296  0.7004 -0.5081  1.0536
   97MOL0     O12702   6.682   7.563   6.297 -0.0280 -0.6527 -0.1689
   97MOL0     C12703   6.613   7.526   6.413 -1.5123 -0.8178 -0.2486
   97MOL0     C12704   6.496   7.586   6.458  0.0776 -0.9314  0.7443
   97MOL0     C12705   6.413   7.527   6.553 -0.0954  0.5396  0.1514
   97MOL0     C12706   6.441   7.403   6.605 -0.2542  0.1183  0.0699
   97MOL0     O12707   6.348   7.347   6.681  0.2796  0.4453 -0.1090
   97MOL0     C12708   6.337   7.198   6.695  0.6137  0.2984 -0.1971
   97MOL0     C12709   6.218   7.165   6.776 -0.1699  0.3952  0.1402
   97MOL0     C12710   6.208   7.024   6.827 -0.4160  0.4421 -0.3874
   97MOL0     C12711   6.170   6.922   6.722 -0.6771 -0.3466 -0.6793
   97MOL0     C12712   6.140   6.795   6.790  0.8083  0.0586  0.9949
   97MOL0     C12713   6.072   6.693   6.698  0.1359 -0.2451 -0.2291
   97MOL0     C12714   6.151   6.647   6.571  0.0516 -0.5574  0.9685
   97MOL0     C12715   6.273   6.560   6.587 -0.5783  0.5603  0.1967
   97MOL0    Cl12716   6.403   6.657   6.658  0.0775  0.3560  0.1658
   97MOL0     C12717   6.556   7.336   6.563 -0.0429  0.3009  0.1214
   97MOL0     C12718   6.640   7.398   6.465  0.6537 -0.5539 -0.8659
   97MOL0     O12719   6.693   7.786   6.375  0.2772 -0.1482 -0.2311
   97MOL0     C12720   6.863   7.864   6.170  0.0781 -0.2493 -0.3743
   97MOL0     C12721   6.944   7.916   6.067 -0.5928  0.1368  0.1980
   97MOL0     N12722   7.634   7.857   5.668  0.2113  0.1831  0.0290
   97MOL0     N12723   7.695   7.779   5.584 -0.1284 -0.9179  0.0477
   97MOL0     C12724   8.383   7.214   5.373 -0.1650  0.5881  0.3495
   97MOL0     C12725   8.516   7.179   5.355  0.1974 -0.1073 -0.1657
   97MOL0     C12726   8.968   7.206   5.475  0.5242  0.3253 -0.2695
   97MOL0     C12727   9.019   7.077   5.440 -0.0297 -0.6983 -0.0320
   97MOL0     C12728   9.157   7.061   5.417 -0.1315 -0.5539 -0.5240
   97MOL0     C12729   9.257   7.153   5.440 -0.5802  1.0417 -0.4130
   97MOL0     O12730   9.386   7.101   5.435 -0.1002  0.2961  0.2113
   97MOL0     C12731   9.494   7.170   5.507  0.1163 -0.0813  0.7047
   97MOL0     C12732   9.634   7.112   5.464 -0.7407  0.5411  0.5352
   97MOL0     C12733   9.744   7.179   5.547  0.4382 -1.0347 -0.6931
   97MOL0     C12734   9.875   7.131   5.494 -0.1075 -0.4375 -0.2161
   97MOL0     C12735   9.979   7.212   5.562 -0.1188  0.4991 -0.5947
   97MOL0     C12736  10.068   7.280   5.607 -0.6736  0.4756  0.3617
   97MOL0     C12737   9.210   7.281   5.475 -0.7454 -0.7186  0.1612
   97MOL0     C12738   9.069   7.302   5.496 -0.4464  0.4410  0.3101
   97MOL0     H12739   8.619   7.207   5.683  1.9912  0.8568 -1.5168
   97MOL0     H12740   8.362   7.244   5.703 -1.5160 -0.8950  0.1039
   97MOL0     H12741   8.241   7.412   5.639  0.6156  0.6789  0.0114
   97MOL0     H12742   8.087   7.331   5.678  0.1730 -0.0845  0.0973
   97MOL0     H12743   8.024   7.534   5.581  3.7617 -0.2606  4.0976
   97MOL0     H12744   8.005   7.402   5.443  0.9286  0.6065 -1.2997
   97MOL0     H12745   8.204   7.476   5.340  2.8312  0.7025  2.9828
   97MOL0     H12746   8.208   7.612   5.444 -0.2688 -0.8234  0.8668
   97MOL0     H12747   8.097   7.676   5.234  1.6520 -0.5536  0.5268
   97MOL0     H12748   7.975   7.555   5.252  0.6169 -0.7559 -0.1706
   97MOL0     H12749   8.022   7.796   5.432 -0.1051  0.5768 -1.1167
   97MOL0     H12750   7.886   7.682   5.458  0.0591  1.1805  0.1280
   97MOL0     H12751   7.928   7.841   5.189  0.1538 -3.2233 -0.9007
   97MOL0     H12752   7.852   7.914   5.337  2.1320 -0.1835  1.3995
   97MOL0     H12753   7.680   7.831   5.161 -1.1148 -0.6011 -0.2408
   97MOL0     H12754   7.762   7.678   5.167 -0.8579 -2.1908  1.9126
   97MOL0     H12755   7.706   7.614   5.376  0.6562  0.1553  1.4247
   97MOL0     H12756   7.552   7.675   5.310  0.1520  1.3793 -1.5928
   97MOL0     H12757   7.468   7.921   5.385 -0.2526 -1.8890 -1.3380
   97MOL0     H12758   7.356   8.057   5.602  0.3339 -1.9965 -0.7343
   97MOL0     H12759   7.509   8.132   5.654 -0.8789  0.4664  0.8293
   97MOL0     H12760   7.367   8.120   5.831  0.8760 -1.6074  2.9344
   97MOL0     H12761   7.471   7.981   5.855  0.1621 -1.9419 -0.3128
   97MOL0     H12762   7.249   7.898   5.693  1.5443  1.1005 -0.4074
   97MOL0     H12763   7.320   7.817   5.831 -3.2017 -0.3580  2.5780
   97MOL0     H12764   7.115   8.036   5.820 -0.2974 -0.7508 -1.3940
   97MOL0     H12765   7.188   7.993   5.977  0.5551  1.5105 -0.7570
   97MOL0     H12766   6.942   7.634   5.874  1.8323  1.9820 -0.7083
   97MOL0     H12767   6.788   7.563   6.064  0.3039 -0.3474  0.2062
   97MOL0     H12768   6.456   7.674   6.409  2.5833 -0.5677 -0.8258
   97MOL0     H12769   6.320   7.578   6.575 -0.5587 -0.0633 -0.3431
   97MOL0     H12770   6.419   7.145   6.745 -0.9072 -1.0908  0.9584
   97MOL0     H12771   6.331   7.153   6.595  1.1254  1.3470 -0.7133
   97MOL0     H12772   6.129   7.198   6.720 -1.2557  1.7576  2.4957
   97MOL0     H12773   6.219   7.224   6.868 -1.9648 -0.5646  0.8307
   97MOL0     H12774   6.138   7.010   6.910  0.2711  2.6369  0.6213
   97MOL0     H12775   6.310   7.005   6.862  0.6798  2.3256 -2.3196
   97MOL0     H12776   6.074   6.949   6.677 -0.6959 -1.6402 -1.4964
   97MOL0     H12777   6.247   6.909   6.644 -1.8938 -0.3491 -1.9262
   97MOL0     H12778   6.069   6.815   6.871 -1.6291 -2.0934 -0.4653
   97MOL0     H12779   6.231   6.745   6.822  0.4243 -0.3514  1.4502
   97MOL0     H12780   5.984   6.738   6.651  0.4997 -1.3380 -2.0680
   97MOL0     H12781   6.041   6.610   6.761  0.5491  1.6748  2.7218
   97MOL0     H12782   6.086   6.597   6.498  0.3495  0.6879 -0.1798
   97MOL0     H12783   6.185   6.732   6.511 -0.6542 -1.1016 -0.2443
   97MOL0     H12784   6.300   6.513   6.492 -0.2975 -0.0350  0.5627
   97MOL0     H12785   6.244   6.477   6.653  0.8814 -0.0928  0.0640
   97MOL0     H12786   6.575   7.237   6.604 -0.9427  0.5434  1.1635
   97MOL0     H12787   6.732   7.349   6.432 -0.0197 -0.6388 -2.7466
   97MOL0     H12788   6.822   7.934   6.241  1.3448 -1.8098  2.0442
   97MOL0     H12789   6.969   8.021   6.062 -1.5290  0.3751  0.3001
   97MOL0     H12790   8.312   7.208   5.291  0.1327  4.5215 -0.4194
   97MOL0     H12791   8.562   7.155   5.259  0.4753 -1.6486  0.3305
   97MOL0     H12792   8.947   6.999   5.417 -1.4907 -0.4954  3.3538
   97MOL0     H12793   9.194   6.967   5.377 -0.6836 -0.5504 -1.0504
   97MOL0     H12794   9.482   7.169   5.616 -1.8122  0.1447  0.5323
   97MOL0     H12795   9.499   7.275   5.478 -1.3004  0.0068  0.6824
   97MOL0     H12796   9.633   7.006   5.492 -0.1691  0.9093  2.0643
   97MOL0     H12797   9.645   7.125   5.356 -2.5357  1.2748  0.3935
   97MOL0     H12798   9.732   7.151   5.652 -1.6551 -0.6050 -0.7771
   97MOL0     H12799   9.732   7.288   5.536 -0.3603 -1.2057 -1.6114
   97MOL0     H12800   9.890   7.026   5.518 -1.9268 -0.3377  1.6381
   97MOL0     H12801   9.887   7.132   5.385  3.6885  0.4050  0.0829
   97MOL0     H12802  10.144   7.331   5.663 -0.1553  0.7809 -0.6032
   97MOL0     H12803   9.269   7.362   5.516  0.9514 -1.5168 -0.5942
   97MOL0     H12804   9.039   7.397   5.540 -2.1061 -0.0121  0.2393
   98MOL0     O12805   3.775   1.826   4.515  0.5029  0.1916 -0.1683
   98MOL0     C12806   3.830   1.752   4.436  0.3176  0.7644  0.5937
   98MOL0     O12807   3.814   1.620   4.417 -0.2778  0.1522  0.4597
   98MOL0     C12808   3.740   1.555   4.517 -1.0461  0.1233  0.5730
   98MOL0     C12809   3.608   1.535   4.490 -1.1390  0.7422  0.4315
   98MOL0     C12810   3.522   1.463   4.579 -0.2534  1.0782 -0.1140
   98MOL0     C12811   3.576   1.429   4.705  0.2525  0.1553  0.1214
   98MOL0     O12812   3.494   1.369   4.796 -0.0658  0.3827  0.1773
   98MOL0     C12813   3.511   1.409   4.936 -0.6636  0.1341 -0.2869
   98MOL0     C12814   3.397   1.362   5.027  0.3890  0.4743 -0.6195
   98MOL0     C12815   3.254   1.428   5.027  0.0697 -0.0780 -0.9845
   98MOL0     C12816   3.177   1.368   5.147 -0.7374 -0.5955 -0.5334
   98MOL0     C12817   3.025   1.398   5.116  0.2099 -0.4301  0.3074
   98MOL0     C12818   2.952   1.343   5.239 -0.2422 -0.1145 -0.1185
   98MOL0     C12819   2.796   1.361   5.242 -0.5185 -0.2763  0.0978
   98MOL0     C12820   2.712   1.284   5.143  0.5947  1.1895  0.6840
   98MOL0     N12821   2.570   1.297   5.147 -0.7515  0.4328  0.5250
   98MOL0     C12822   2.495   1.298   5.266 -0.0987  0.5987 -0.0460
   98MOL0     C12823   2.361   1.298   5.227 -0.7406  0.3482  0.0121
   98MOL0     C12824   2.238   1.275   5.318  0.0007  0.2793  0.4169
   98MOL0     C12825   2.275   1.325   5.454  1.0215  0.2860 -0.4773
   98MOL0     C12826   2.151   1.311   5.551 -0.7663 -0.2592 -0.3029
   98MOL0     C12827   2.100   1.163   5.557  0.4563  0.6338  0.2869
   98MOL0     O12828   2.012   1.136   5.671 -0.5416  0.1778 -0.2907
   98MOL0     C12829   1.902   1.065   5.641  0.0156 -0.1924  0.4327
   98MOL0     C12830   1.913   0.948   5.558 -0.6065  0.2306 -0.0490
   98MOL0     C12831   1.807   0.855   5.558  0.4994 -0.3899 -0.2163
   98MOL0     C12832   1.685   0.894   5.623  0.2521 -0.5593  0.2879
   98MOL0     C12833   1.562   0.806   5.607 -0.2894 -0.3105 -0.5193
   98MOL0     O12834   1.447   0.856   5.665  0.5403  0.0734 -0.2705
   98MOL0     C12835   1.328   0.788   5.672  0.7693  1.5511  0.8333
   98MOL0     C12836   1.221   0.881   5.700  0.1375  0.3163 -0.8304
   98MOL0     C12837   1.095   0.821   5.714  0.0708  0.0754 -0.3311
   98MOL0     C12838   1.074   0.684   5.696 -0.5320 -0.5859 -0.5051
   98MOL0     O12839   0.939   0.643   5.714 -0.2005  0.5110  1.1944
   98MOL0     C12840   0.904   0.503   5.692  0.1275 -0.3524 -0.5180
   98MOL0     C12841   0.748   0.499   5.705 -0.4278 -0.3651  0.1918
   98MOL0     C12842   0.697   0.357   5.666 -0.1504 -0.1754  0.7357
   98MOL0     C12843   0.543   0.345   5.674  0.2208 -0.5610  0.6141
   98MOL0     C12844   0.469   0.435   5.577 -0.6156  0.4820 -1.1965
   98MOL0     C12845   0.334   0.373   5.544  0.3390 -0.3676 -0.1857
   98MOL0     C12846   0.284   0.405   5.391  1.0118  0.4036 -0.3313
   98MOL0     C12847   0.187   0.528   5.388 -0.6738 -0.4741 -0.0536
   98MOL0    Cl12848   0.016   0.477   5.396  0.0171  0.0321  0.1176
   98MOL0     C12849   1.178   0.592   5.668 -0.3446 -0.1250 -0.4930
   98MOL0     C12850   1.308   0.648   5.646  0.4661 -0.5364 -0.2600
   98MOL0     O12851   1.577   0.691   5.566  0.1463 -0.2033 -0.6021
   98MOL0     C12852   1.675   1.014   5.694  0.1698 -0.1258 -0.4180
   98MOL0     C12853   1.782   1.095   5.707 -0.0421  1.1682  0.0566
   98MOL0     N12854   2.370   1.298   5.091 -0.0452  1.1620  0.0041
   98MOL0     N12855   2.490   1.291   5.042  0.5956  0.0789  1.1472
   98MOL0     C12856   3.719   1.445   4.724 -0.5039  0.0007 -0.2545
   98MOL0     C12857   3.796   1.519   4.636  0.5128  0.1813 -0.4358
   98MOL0     C12858   3.946   1.810   4.361  0.1513  0.6562 -0.7010
   98MOL0     C12859   4.041   1.738   4.295 -0.6669  0.0291  0.2236
   98MOL0     C12860   4.141   1.803   4.227 -0.7924  0.1344 -0.2845
   98MOL0     C12861   4.175   1.938   4.249  0.4472  0.9312 -0.3533
   98MOL0     O12862   4.286   1.999   4.198  0.8571 -0.0831  0.3168
   98MOL0     C12863   4.380   1.915   4.126 -0.2322  0.2744 -0.6314
   98MOL0     C12864   4.487   2.001   4.070 -0.2847  0.7075  0.0970
   98MOL0     C12865   4.586   1.911   3.993 -0.8592 -0.4338  0.6428
   98MOL0     C12866   4.729   1.976   3.990 -0.0874  0.5703  1.0209
   98MOL0     C12867   4.820   1.893   3.910 -0.5093  0.3619  0.8873
   98MOL0     C12868   4.901   1.818   3.857 -0.4948 -0.8765 -0.1439
   98MOL0     C12869   4.077   2.017   4.320  0.1595  0.1351 -0.5297
   98MOL0     C12870   3.963   1.949   4.375  0.1697  0.2848 -0.1622
   98MOL0     H12871   3.564   1.577   4.400 -0.8449  2.0891  0.8895
   98MOL0     H12872   3.422   1.435   4.545  1.5317 -1.4580 -3.9968
   98MOL0     H12873   3.519   1.518   4.940 -0.9279  0.1550 -0.2800
   98MOL0     H12874   3.608   1.374   4.972 -0.4853 -0.3636 -1.1961
   98MOL0     H12875   3.438   1.381   5.126 -0.4806 -2.3241  0.3637
   98MOL0     H12876   3.382   1.255   5.008  1.6869  0.2369 -0.3851
   98MOL0     H12877   3.210   1.404   4.930  1.0847 -0.7426 -1.2965
   98MOL0     H12878   3.260   1.535   5.051 -0.5604 -0.5089  1.3313
   98MOL0     H12879   3.194   1.262   5.169 -0.5736 -0.2767  0.9450
   98MOL0     H12880   3.215   1.409   5.241 -1.7662 -0.1146 -0.3118
   98MOL0     H12881   2.997   1.361   5.018  0.9656  1.7244 -0.8003
   98MOL0     H12882   3.023   1.507   5.124  2.7971 -0.3332  0.4705
   98MOL0     H12883   2.989   1.379   5.335 -1.7294 -3.4510  1.8660
   98MOL0     H12884   2.972   1.236   5.250 -1.3955 -0.2280  0.9998
   98MOL0     H12885   2.763   1.329   5.341 -0.8289  1.4878  0.6054
   98MOL0     H12886   2.770   1.468   5.235  0.6305 -0.0595 -1.4916
   98MOL0     H12887   2.736   1.179   5.163  0.1881  0.8278 -0.6425
   98MOL0     H12888   2.745   1.310   5.042  1.8493 -0.4717  0.6181
   98MOL0     H12889   2.523   1.303   5.371  1.2908 -0.8608 -0.3060
   98MOL0     H12890   2.228   1.167   5.327  1.3608  0.1191  0.1866
   98MOL0     H12891   2.146   1.316   5.276  0.0801 -0.1663 -0.1984
   98MOL0     H12892   2.309   1.428   5.449 -0.1371  0.6999 -0.1466
   98MOL0     H12893   2.360   1.270   5.494  0.2040 -0.1725  0.6781
   98MOL0     H12894   2.187   1.330   5.652 -2.9880 -1.3101  0.7556
   98MOL0     H12895   2.077   1.388   5.529 -2.3173 -2.1321 -2.0612
   98MOL0     H12896   2.187   1.097   5.549 -0.3798 -0.3934 -0.8386
   98MOL0     H12897   2.042   1.148   5.465 -0.3777  0.4677  0.8247
   98MOL0     H12898   2.013   0.927   5.522 -0.8411  2.6896 -2.5093
   98MOL0     H12899   1.828   0.757   5.516 -0.8659 -0.3464 -1.0801
   98MOL0     H12900   1.247   0.986   5.709  0.8806  0.0237  1.0433
   98MOL0     H12901   1.021   0.889   5.755  1.2139  1.3752 -0.3533
   98MOL0     H12902   0.942   0.444   5.776 -1.8335 -1.2747 -0.2332
   98MOL0     H12903   0.948   0.458   5.602  2.9753 -0.5128  0.8200
   98MOL0     H12904   0.705   0.573   5.638  0.4930 -1.9781 -2.3422
   98MOL0     H12905   0.715   0.518   5.807  0.7359 -1.9434  0.9178
   98MOL0     H12906   0.750   0.279   5.721  1.1838 -0.5673 -1.0187
   98MOL0     H12907   0.724   0.345   5.561 -2.4753 -0.8172  0.1495
   98MOL0     H12908   0.522   0.239   5.656 -2.3713  0.1026 -0.7445
   98MOL0     H12909   0.501   0.374   5.770  0.9381 -0.6097  0.9531
   98MOL0     H12910   0.527   0.443   5.484  0.7841 -0.5176 -0.4384
   98MOL0     H12911   0.462   0.534   5.623 -0.4312  1.2822 -2.8207
   98MOL0     H12912   0.248   0.399   5.606 -2.5775 -1.4266 -3.4492
   98MOL0     H12913   0.344   0.266   5.564 -0.9322 -0.7381 -1.4121
   98MOL0     H12914   0.373   0.425   5.332  1.9705 -0.2163  0.8667
   98MOL0     H12915   0.227   0.319   5.354 -1.4973  1.1569  1.5060
   98MOL0     H12916   0.194   0.580   5.293 -2.4466 -0.3084 -0.1316
   98MOL0     H12917   0.199   0.594   5.474 -0.7415  0.5322 -0.8117
   98MOL0     H12918   1.170   0.484   5.670  1.3147 -0.3246  3.0646
   98MOL0     H12919   1.393   0.586   5.621 -0.8061 -2.1170 -0.8371
   98MOL0     H12920   1.591   1.038   5.759  1.4214 -1.4261  1.7936
   98MOL0     H12921   1.763   1.173   5.780 -0.1844  0.1909  1.0816
   98MOL0     H12922   3.762   1.406   4.815 -1.8438 -2.2178 -0.4975
   98MOL0     H12923   3.901   1.540   4.653  0.9103 -2.0831  0.1788
   98MOL0     H12924   4.023   1.633   4.272  3.7115 -0.7934 -0.4875
   98MOL0     H12925   4.213   1.743   4.174 -3.6650 -2.7114 -1.2639
   98MOL0     H12926   4.340   1.863   4.038  1.6397 -1.0658 -0.7504
   98MOL0     H12927   4.420   1.845   4.200 -3.2228 -2.4011 -1.2853
   98MOL0     H12928   4.433   2.072   4.006 -0.7480  1.2769  1.0911
   98MOL0     H12929   4.542   2.046   4.154  1.0845 -1.8370  0.6527
   98MOL0     H12930   4.548   1.893   3.892 -0.2254  0.6730  0.1980
   98MOL0     H12931   4.597   1.817   4.049  0.5659  0.9586  2.8727
   98MOL0     H12932   4.724   2.077   3.950  1.8769  0.0867 -0.6092
   98MOL0     H12933   4.769   1.986   4.091  1.9079  1.3109  0.1920
   98MOL0     H12934   4.984   1.763   3.818  0.6094  0.6034  0.0184
   98MOL0     H12935   4.095   2.124   4.329  2.5869 -0.2220 -0.5105
   98MOL0     H12936   3.891   2.006   4.433 -0.5041  0.5749 -1.2753
   99MOL0     O12937   6.822   5.284   0.568 -0.5902 -0.0031  0.5365
   99MOL0     C12938   6.869   5.228   0.465 -0.4277 -0.6158 -0.4832
   99MOL0     O12939   6.813   5.118   0.407 -0.5230  0.2340 -0.2852
   99MOL0     C12940   6.684   5.083   0.448  0.1121 -0.0214  0.2344
   99MOL0     C12941   6.578   5.166   0.484  0.4827  0.3253  0.0917
   99MOL0     C12942   6.452   5.108   0.534 -0.8235  0.8643 -0.2908
   99MOL0     C12943   6.437   4.976   0.547  0.1744 -0.7767  0.3171
   99MOL0     O12944   6.323   4.938   0.603 -0.0619  0.7560  0.6791
   99MOL0     C12945   6.319   4.805   0.656  0.2537 -0.9636 -0.0440
   99MOL0     C12946   6.192   4.796   0.735 -0.0199  0.5367 -0.0906
   99MOL0     C12947   6.059   4.817   0.660 -0.4419 -0.4595 -0.1939
   99MOL0     C12948   5.938   4.808   0.753  0.4123 -0.6516 -0.3778
   99MOL0     C12949   5.799   4.807   0.688  0.0630  0.1648  1.0081
   99MOL0     C12950   5.687   4.839   0.783 -0.3508 -0.3256 -0.5168
   99MOL0     C12951   5.547   4.874   0.729 -0.2688 -0.6206 -1.0472
   99MOL0     C12952   5.479   4.759   0.663  0.1370 -0.8992  0.4124
   99MOL0     N12953   5.333   4.773   0.665 -0.4070  0.3576  0.1360
   99MOL0     C12954   5.240   4.708   0.742  0.1049 -0.2388 -0.0233
   99MOL0     C12955   5.119   4.747   0.693  0.5966  0.1973  0.2460
   99MOL0     C12956   4.979   4.727   0.738  1.2119  0.7844  0.0583
   99MOL0     C12957   4.905   4.635   0.633  0.4294  0.4171  0.2163
   99MOL0     C12958   4.781   4.586   0.715  0.3596 -0.5034 -0.0990
   99MOL0     C12959   4.704   4.481   0.645 -1.2711 -0.2767 -0.5142
   99MOL0     O12960   4.610   4.421   0.730  0.1127  0.4835 -0.0224
   99MOL0     C12961   4.483   4.471   0.739 -1.1786 -0.3948 -0.2198
   99MOL0     C12962   4.419   4.569   0.659 -0.3583 -0.4322  0.5569
   99MOL0     C12963   4.286   4.605   0.668 -0.5828  0.2201 -0.6486
   99MOL0     C12964   4.208   4.537   0.756 -0.1468 -0.7747 -0.1079
   99MOL0     C12965   4.064   4.566   0.760 -0.0306  0.1885  0.7886
   99MOL0     O12966   4.027   4.698   0.761 -0.3519  0.6518  0.3765
   99MOL0     C12967   3.885   4.724   0.758  0.2115 -0.1425  0.6339
   99MOL0     C12968   3.799   4.689   0.657 -0.7178 -0.0962 -0.1466
   99MOL0     C12969   3.662   4.724   0.649 -0.0355 -0.6881 -0.2845
   99MOL0     C12970   3.612   4.809   0.745 -0.6816  0.2022 -0.1977
   99MOL0     O12971   3.482   4.862   0.745  0.6826 -0.1574 -0.8668
   99MOL0     C12972   3.435   4.902   0.610 -0.6162 -0.6309  0.4292
   99MOL0     C12973   3.319   4.995   0.609  0.8154  0.1195 -0.0820
   99MOL0     C12974   3.186   4.919   0.627  0.2371  0.0486  0.6374
   99MOL0     C12975   3.057   5.001   0.617 -0.3231 -0.6129  0.2639
   99MOL0     C12976   3.004   5.048   0.749 -1.0471 -0.1189 -0.2503
   99MOL0     C12977   2.878   5.135   0.726  0.6699 -0.4230 -0.7675
   99MOL0     C12978   2.828   5.180   0.864 -0.0560 -1.3025  0.2342
   99MOL0     C12979   2.750   5.312   0.850  0.1927 -0.1241 -0.0276
   99MOL0    Cl12980   2.611   5.324   0.738  0.0161 -0.0845 -0.2968
   99MOL0     C12981   3.705   4.858   0.851  0.0699  0.5862 -0.8575
   99MOL0     C12982   3.836   4.812   0.861  0.5486 -0.0005  0.0291
   99MOL0     O12983   3.998   4.465   0.782 -0.0100 -0.3474 -0.1930
   99MOL0     C12984   4.260   4.441   0.831  0.0756 -0.7433 -0.4131
   99MOL0     C12985   4.399   4.412   0.835 -0.3845  0.5486  0.1810
   99MOL0     N12986   5.142   4.822   0.577 -0.3360  0.1798  0.3476
   99MOL0     N12987   5.269   4.846   0.573 -0.4928 -0.0282 -0.9040
   99MOL0     C12988   6.542   4.885   0.503  0.3669 -0.0977  0.0932
   99MOL0     C12989   6.662   4.941   0.457 -0.8556  0.6395 -0.2232
   99MOL0     C12990   7.003   5.276   0.404 -0.7345 -0.0318  0.6244
   99MOL0     C12991   7.051   5.220   0.283  0.7763  0.3764  0.0655
   99MOL0     C12992   7.176   5.253   0.230 -0.4098 -0.8896 -0.7493
   99MOL0     C12993   7.243   5.361   0.286 -0.1596 -0.7756  0.1515
   99MOL0     O12994   7.364   5.400   0.223  0.2456 -0.0320  0.5606
   99MOL0     C12995   7.475   5.343   0.293 -0.5278  0.3021 -0.4068
   99MOL0     C12996   7.588   5.445   0.288 -0.1554  0.3279  0.5254
   99MOL0     C12997   7.643   5.457   0.142  0.0397  0.8216  0.5716
   99MOL0     C12998   7.562   5.526   0.038 -0.0915  0.1696  0.9627
   99MOL0     C12999   7.628   5.544  -0.087 -0.7922  0.9442 -0.4641
   99MOL0     C13000   7.686   5.567  -0.191  0.7643 -0.5151  0.0822
   99MOL0     C13001   7.190   5.423   0.396 -0.3108 -0.0579 -0.6394
   99MOL0     C13002   7.070   5.385   0.458 -0.1429  0.5290 -0.6999
   99MOL0     H13003   6.593   5.274   0.492 -0.3301  0.3372  1.8609
   99MOL0     H13004   6.368   5.158   0.581 -0.3191 -0.4147  2.0951
   99MOL0     H13005   6.408   4.793   0.718 -0.7943 -2.9037  1.1885
   99MOL0     H13006   6.327   4.731   0.576 -0.0857 -0.8524 -0.1840
   99MOL0     H13007   6.197   4.861   0.823 -0.5347 -2.0386  1.9737
   99MOL0     H13008   6.189   4.695   0.775 -1.2410  0.0314 -1.3957
   99MOL0     H13009   6.035   4.753   0.575 -2.2322 -0.1306  0.0118
   99MOL0     H13010   6.069   4.919   0.623  1.6319 -0.3881  0.4656
   99MOL0     H13011   5.938   4.712   0.805  0.7228 -0.6445 -0.3611
   99MOL0     H13012   5.956   4.880   0.833  3.3117  1.5474 -2.7766
   99MOL0     H13013   5.790   4.704   0.652  0.0119  0.5203 -0.0377
   99MOL0     H13014   5.805   4.877   0.604  3.0085  0.5345  1.4227
   99MOL0     H13015   5.721   4.924   0.842  0.9306 -1.4119  0.3766
   99MOL0     H13016   5.667   4.755   0.850 -1.0030  0.8524  0.7959
   99MOL0     H13017   5.490   4.909   0.816  0.6393 -3.6873  0.9585
   99MOL0     H13018   5.545   4.965   0.668  1.1126  0.7057  0.7390
   99MOL0     H13019   5.507   4.668   0.717 -0.5355 -2.7813 -2.2291
   99MOL0     H13020   5.518   4.735   0.563  1.2551 -2.8177  1.2416
   99MOL0     H13021   5.264   4.655   0.833  0.3501  0.2120  0.1779
   99MOL0     H13022   4.920   4.819   0.740 -0.9495 -0.5350  1.2119
   99MOL0     H13023   4.983   4.682   0.838 -0.9634 -0.7920 -0.4878
   99MOL0     H13024   4.954   4.539   0.612 -2.2870 -0.6167 -2.1643
   99MOL0     H13025   4.871   4.678   0.538  1.7190 -1.3394 -1.1222
   99MOL0     H13026   4.813   4.546   0.811  1.8229  1.2777  0.2249
   99MOL0     H13027   4.708   4.666   0.732  0.4740 -0.5438  0.5918
   99MOL0     H13028   4.783   4.411   0.616  1.4051  3.1735 -2.3241
   99MOL0     H13029   4.671   4.514   0.546 -1.1030 -0.0321 -0.4884
   99MOL0     H13030   4.476   4.616   0.580  0.8300 -1.6889  0.6159
   99MOL0     H13031   4.249   4.677   0.595 -0.3722  0.3460 -0.6318
   99MOL0     H13032   3.847   4.626   0.583 -0.5336 -2.0280  1.5390
   99MOL0     H13033   3.604   4.684   0.567 -3.1893 -0.2442  1.5325
   99MOL0     H13034   3.409   4.809   0.558 -2.6049 -1.1137  2.1862
   99MOL0     H13035   3.518   4.953   0.560 -0.6369  0.4587  1.4535
   99MOL0     H13036   3.309   5.030   0.507  0.8804 -2.4804 -1.0672
   99MOL0     H13037   3.338   5.077   0.679 -2.7840  1.3448 -0.3135
   99MOL0     H13038   3.189   4.871   0.725  0.0464  0.8283  1.0295
   99MOL0     H13039   3.174   4.833   0.560 -0.8958  0.9709 -0.3942
   99MOL0     H13040   3.066   5.080   0.542 -1.2243  0.1129  0.9155
   99MOL0     H13041   2.981   4.929   0.585  2.0842 -2.4019 -1.9702
   99MOL0     H13042   3.082   5.107   0.797 -0.5175 -0.0391 -1.1787
   99MOL0     H13043   2.983   4.958   0.808  3.4874 -0.3982  1.2763
   99MOL0     H13044   2.798   5.074   0.683 -0.2932 -0.6857  1.2722
   99MOL0     H13045   2.888   5.224   0.664  0.0931  0.9522  1.0508
   99MOL0     H13046   2.764   5.101   0.905 -0.9855 -0.2878  0.7681
   99MOL0     H13047   2.917   5.190   0.928  0.2230 -1.3478 -0.1420
   99MOL0     H13048   2.815   5.398   0.830  0.4399  0.1963  1.9265
   99MOL0     H13049   2.703   5.336   0.946 -1.6943 -2.3394 -0.3147
   99MOL0     H13050   3.660   4.930   0.919 -0.2391  1.2679 -1.7679
   99MOL0     H13051   3.901   4.847   0.941 -0.8920  2.6250  0.1609
   99MOL0     H13052   4.200   4.389   0.905  2.1955 -1.2290  1.0396
   99MOL0     H13053   4.438   4.341   0.906 -0.3006  0.4820  0.0692
   99MOL0     H13054   6.523   4.779   0.508 -3.9895  0.5108  0.6547
   99MOL0     H13055   6.746   4.875   0.437  2.2104  3.8513  1.0201
   99MOL0     H13056   7.000   5.147   0.221  1.2789  1.2625 -1.4371
   99MOL0     H13057   7.212   5.207   0.138 -1.4450 -2.1506 -0.5451
   99MOL0     H13058   7.506   5.253   0.239  0.1988  0.5877 -0.4750
   99MOL0     H13059   7.454   5.319   0.398 -0.4518 -0.1171 -0.4862
   99MOL0     H13060   7.552   5.540   0.329 -2.1815 -0.2832  0.2761
   99MOL0     H13061   7.670   5.412   0.351  2.1369  0.8044 -2.0156
   99MOL0     H13062   7.660   5.354   0.109 -1.4141  1.3590 -2.2376
   99MOL0     H13063   7.746   5.494   0.144 -0.0024  1.3004 -1.9838
   99MOL0     H13064   7.467   5.474   0.022 -0.6255  0.4830  2.8889
   99MOL0     H13065   7.544   5.627   0.073  0.0277  0.1333  1.1279
   99MOL0     H13066   7.739   5.585  -0.283  0.9341  0.4270  0.3572
   99MOL0     H13067   7.241   5.501   0.452  0.8942 -0.7822 -0.6941
   99MOL0     H13068   7.044   5.417   0.558  3.4343  1.1908  0.1796
  100MOL0     O13069   6.937   1.081   3.621 -0.4267  0.4499  0.4940
  100MOL0     C13070   6.957   1.200   3.602  0.7252 -0.3719  0.2007
  100MOL0     O13071   6.857   1.292   3.573  0.2923 -0.2790  0.4908
  100MOL0     C13072   6.732   1.238   3.601  0.3416  1.2237  0.3332
  100MOL0     C13073   6.649   1.269   3.707  0.2130 -0.9207 -0.3179
  100MOL0     C13074   6.520   1.209   3.723  0.1021  0.1248 -0.3798
  100MOL0     C13075   6.476   1.117   3.624 -0.2350  0.3927  0.2756
  100MOL0     O13076   6.367   1.045   3.642 -0.0953 -0.9665 -0.0865
  100MOL0     C13077   6.251   1.127   3.658  0.3835  0.1477  0.4258
  100MOL0     C13078   6.116   1.048   3.646  0.9278 -0.0533  0.2360
  100MOL0     C13079   5.995   1.130   3.677 -0.3994 -0.0242 -0.0210
  100MOL0     C13080   5.867   1.059   3.624  0.7837 -0.4543  0.2457
  100MOL0     C13081   5.743   1.109   3.686  0.1421 -0.0022  0.0087
  100MOL0     C13082   5.629   1.040   3.605  0.4420 -0.5194 -0.4350
  100MOL0     C13083   5.495   1.093   3.664  0.4676 -0.0005  0.3731
  100MOL0     C13084   5.485   1.061   3.819  0.0135  0.0182  0.0809
  100MOL0     N13085   5.344   1.075   3.873 -0.4487 -0.2486 -0.7811
  100MOL0     C13086   5.245   0.977   3.857  0.9237  0.1858  0.5700
  100MOL0     C13087   5.146   1.011   3.934  0.2852  0.6687  0.6156
  100MOL0     C13088   5.017   0.930   3.938 -0.3977  0.6311  0.6170
  100MOL0     C13089   4.907   0.996   3.858 -0.1599  0.6557 -0.0779
  100MOL0     C13090   4.920   0.981   3.713  1.1851 -0.7668  0.2431
  100MOL0     C13091   4.811   1.059   3.646  0.8957  0.1578  0.1077
  100MOL0     O13092   4.690   0.980   3.657 -1.1226  0.5429 -0.3836
  100MOL0     C13093   4.567   1.038   3.638 -0.0836  0.3920  0.4978
  100MOL0     C13094   4.458   0.971   3.683 -0.2348  0.2895  0.2584
  100MOL0     C13095   4.336   1.018   3.661 -0.2494 -0.2630  0.3043
  100MOL0     C13096   4.307   1.141   3.596 -0.9612  0.5329 -0.5606
  100MOL0     C13097   4.173   1.201   3.603  0.8592  0.0753  0.4479
  100MOL0     O13098   4.064   1.115   3.597  0.0014 -0.5558 -0.0674
  100MOL0     C13099   3.938   1.173   3.610 -0.1289  0.3807 -0.6159
  100MOL0     C13100   3.889   1.199   3.744 -0.2150  0.1480  0.7403
  100MOL0     C13101   3.769   1.263   3.751  1.1608 -0.2590  0.3856
  100MOL0     C13102   3.695   1.297   3.633  0.0862 -0.7393 -0.7444
  100MOL0     O13103   3.582   1.372   3.644  0.1240 -0.2847 -0.5514
  100MOL0     C13104   3.467   1.336   3.561  0.3041 -0.0735  1.0878
  100MOL0     C13105   3.350   1.423   3.612 -0.3265 -0.8425 -0.8189
  100MOL0     C13106   3.372   1.569   3.572  0.2603 -0.2806 -0.1147
  100MOL0     C13107   3.247   1.640   3.626  0.1986 -0.1712 -0.4669
  100MOL0     C13108   3.260   1.791   3.642 -0.3709  0.8837 -0.0179
  100MOL0     C13109   3.156   1.858   3.735  0.0386  0.4871  0.8073
  100MOL0     C13110   3.198   2.000   3.777  0.5703  0.8702  0.6219
  100MOL0     C13111   3.220   2.104   3.673  0.4538  0.0489 -0.7434
  100MOL0    Cl13112   3.084   2.126   3.565 -0.4455  0.3845  0.2438
  100MOL0     C13113   3.740   1.263   3.507  0.1801 -0.3111 -0.1290
  100MOL0     C13114   3.865   1.201   3.494  1.3006 -0.5749  0.0529
  100MOL0     O13115   4.163   1.325   3.619  0.3489 -0.1875 -0.6742
  100MOL0     C13116   4.414   1.211   3.552 -0.4180 -0.3746 -0.1570
  100MOL0     C13117   4.545   1.162   3.575  0.1421  0.9178 -0.3181
  100MOL0     N13118   5.184   1.111   4.017 -0.5206 -0.2469  0.5767
  100MOL0     N13119   5.309   1.143   3.987  0.7169  0.1954 -0.3222
  100MOL0     C13120   6.559   1.088   3.513  0.4653  0.9498 -0.6180
  100MOL0     C13121   6.678   1.149   3.498  0.2151  0.9845 -0.1569
  100MOL0     C13122   7.097   1.247   3.610 -0.3753 -0.0710  0.6383
  100MOL0     C13123   7.196   1.161   3.656  0.1014 -0.2232 -0.6075
  100MOL0     C13124   7.329   1.205   3.657 -0.5496  0.4018  0.2664
  100MOL0     C13125   7.364   1.339   3.607 -0.2711 -0.3134  0.8516
  100MOL0     O13126   7.493   1.386   3.596 -0.5151 -0.0483 -1.2184
  100MOL0     C13127   7.600   1.297   3.653  1.5406  0.1949  0.5439
  100MOL0     C13128   7.734   1.369   3.636 -0.3906 -0.4191  0.2470
  100MOL0     C13129   7.764   1.495   3.725  0.7338  1.0164  0.0001
  100MOL0     C13130   7.709   1.623   3.667 -0.8869 -0.5162  0.4451
  100MOL0     C13131   7.756   1.739   3.755  0.0107 -0.0721 -0.1278
  100MOL0     C13132   7.799   1.829   3.819  0.2805 -0.1957  0.1930
  100MOL0     C13133   7.261   1.424   3.579  0.8149 -0.3828  0.2234
  100MOL0     C13134   7.125   1.384   3.570 -0.6382  0.0972  0.0032
  100MOL0     H13135   6.679   1.345   3.779  0.6937 -0.5982 -0.8523
  100MOL0     H13136   6.467   1.222   3.816  0.2744 -1.6666 -0.0011
  100MOL0     H13137   6.259   1.196   3.573  2.8536 -2.2724 -1.4958
  100MOL0     H13138   6.264   1.177   3.754  1.3291  0.3401  0.2040
  100MOL0     H13139   6.120   0.960   3.712  2.1573  0.8078  1.3572
  100MOL0     H13140   6.106   1.005   3.545  1.2740  0.3882  0.0088
  100MOL0     H13141   6.003   1.225   3.622 -0.2471 -0.0765 -0.0916
  100MOL0     H13142   5.987   1.143   3.785  0.2852  0.6735 -0.0445
  100MOL0     H13143   5.851   1.091   3.520 -4.6354 -0.1465  0.8803
  100MOL0     H13144   5.866   0.950   3.630 -1.3966 -0.4982 -0.0925
  100MOL0     H13145   5.728   1.217   3.673  1.2622 -0.1027 -2.9065
  100MOL0     H13146   5.742   1.086   3.793  2.4758  0.5342  0.2090
  100MOL0     H13147   5.627   0.932   3.623 -2.0538 -0.3639  0.6139
  100MOL0     H13148   5.629   1.050   3.496  1.9293 -3.0184 -0.7531
  100MOL0     H13149   5.494   1.202   3.655  0.1395  0.0522  0.9822
  100MOL0     H13150   5.410   1.047   3.613 -0.6928  1.1612  1.2100
  100MOL0     H13151   5.559   1.116   3.877  0.8192 -0.0516 -0.8599
  100MOL0     H13152   5.513   0.956   3.829  2.8995  0.6840 -0.3045
  100MOL0     H13153   5.239   0.887   3.797 -0.1958 -0.1352  1.1480
  100MOL0     H13154   4.993   0.939   4.044  0.8280  0.2472  0.9413
  100MOL0     H13155   5.012   0.824   3.910 -0.1797  1.2756 -2.1429
  100MOL0     H13156   4.902   1.104   3.876 -2.2796  0.7152 -0.7566
  100MOL0     H13157   4.815   0.950   3.893 -0.3925  0.4978 -0.8788
  100MOL0     H13158   5.019   1.018   3.684  1.1581 -0.8929 -0.0116
  100MOL0     H13159   4.914   0.879   3.674 -2.5705 -0.4551 -0.3166
  100MOL0     H13160   4.844   1.055   3.542  1.3472  0.8690  0.2148
  100MOL0     H13161   4.793   1.156   3.695 -2.8226 -0.9873  1.3573
  100MOL0     H13162   4.473   0.874   3.730  0.5840 -0.6127 -1.7553
  100MOL0     H13163   4.242   0.976   3.695 -1.4786  1.9761 -0.1686
  100MOL0     H13164   3.947   1.174   3.833 -0.5299  2.6365  1.7141
  100MOL0     H13165   3.722   1.300   3.842 -0.9309  0.7360 -1.0203
  100MOL0     H13166   3.439   1.232   3.580 -0.7688  0.3360  1.8400
  100MOL0     H13167   3.490   1.356   3.456  0.1202  2.3071  1.4622
  100MOL0     H13168   3.338   1.408   3.719 -1.9272 -1.9682 -1.1224
  100MOL0     H13169   3.259   1.391   3.561 -1.9841  4.4564 -1.8035
  100MOL0     H13170   3.377   1.583   3.464  1.1208  4.0375  0.3204
  100MOL0     H13171   3.466   1.604   3.615  0.0329  2.5937 -1.7502
  100MOL0     H13172   3.171   1.624   3.550  2.1419 -2.7102 -2.0400
  100MOL0     H13173   3.218   1.598   3.723  1.4036 -0.5094 -0.2263
  100MOL0     H13174   3.256   1.838   3.543  0.4906  0.0734 -0.4511
  100MOL0     H13175   3.360   1.812   3.680 -0.4027  1.4396 -0.2410
  100MOL0     H13176   3.140   1.799   3.826  0.6032  0.5343  0.9435
  100MOL0     H13177   3.063   1.859   3.677  0.1448  0.6493  0.6385
  100MOL0     H13178   3.123   2.035   3.849  0.5283  3.0479 -0.3967
  100MOL0     H13179   3.299   1.997   3.821  2.3587 -0.3537 -3.1571
  100MOL0     H13180   3.302   2.066   3.611  0.7344 -1.0543  0.2595
  100MOL0     H13181   3.252   2.194   3.726  0.6842 -0.1022 -0.6221
  100MOL0     H13182   3.694   1.297   3.414 -0.8261 -2.4661 -0.4924
  100MOL0     H13183   3.911   1.188   3.397  2.2845 -0.1208  0.4437
  100MOL0     H13184   4.406   1.307   3.503 -0.1097 -1.4813 -2.5111
  100MOL0     H13185   4.630   1.224   3.549 -0.4471  1.1776 -1.6764
  100MOL0     H13186   6.519   1.007   3.452 -1.2477  1.0979  0.2422
  100MOL0     H13187   6.738   1.126   3.409 -1.2648  0.8795 -1.1582
  100MOL0     H13188   7.176   1.055   3.668 -2.6023  0.3221  0.5422
  100MOL0     H13189   7.407   1.131   3.677  0.0630  0.6115 -1.2330
  100MOL0     H13190   7.604   1.203   3.599  0.0684 -0.0263  0.7532
  100MOL0     H13191   7.582   1.276   3.759 -0.9635  1.0283  0.3595
  100MOL0     H13192   7.818   1.303   3.655  0.1117 -0.0134 -0.5301
  100MOL0     H13193   7.752   1.386   3.529 -0.5950 -1.6690 -0.0015
  100MOL0     H13194   7.872   1.503   3.734  1.2056  1.0950 -4.0388
  100MOL0     H13195   7.732   1.476   3.828 -1.2653 -2.1999 -1.0424
  100MOL0     H13196   7.743   1.638   3.564 -1.6525 -0.9701  0.1180
  100MOL0     H13197   7.601   1.616   3.654 -0.6853 -1.0695 -1.3251
  100MOL0     H13198   7.819   1.912   3.884 -1.1422  0.7448 -0.5219
  100MOL0     H13199   7.293   1.525   3.553 -4.3550  1.2980 -0.6982
  100MOL0     H13200   7.051   1.454   3.535 -1.9751 -2.2625 -2.2627
  101MOL0     O13201   3.620   8.718   8.558  0.5883  0.1313 -0.1516
  101MOL0     C13202   3.633   8.624   8.481 -0.7601  0.4749  0.1021
  101MOL0     O13203   3.742   8.614   8.400 -0.5273 -0.2699  0.0013
  101MOL0     C13204   3.843   8.714   8.402  0.7806  0.1997 -0.8742
  101MOL0     C13205   3.811   8.827   8.324  0.3316 -0.2257  0.7729
  101MOL0     C13206   3.899   8.928   8.304  0.0938 -0.0902 -0.2361
  101MOL0     C13207   4.025   8.926   8.371  0.4571  0.7375 -0.1117
  101MOL0     O13208   4.119   9.027   8.341  0.8876  0.0236 -0.0105
  101MOL0     C13209   4.245   9.026   8.415  0.2701 -0.3581  1.4560
  101MOL0     C13210   4.220   9.068   8.559 -0.2185  0.3511  0.5470
  101MOL0     C13211   4.119   9.186   8.581  0.7558 -0.1828  0.4228
  101MOL0     C13212   4.124   9.252   8.714  0.4855  0.3793 -0.7997
  101MOL0     C13213   4.017   9.359   8.744  1.4143  0.2398 -0.6518
  101MOL0     C13214   3.872   9.317   8.765 -0.5564 -1.0198  0.1883
  101MOL0     C13215   3.784   9.437   8.803  0.3044 -0.3279 -0.3594
  101MOL0     C13216   3.638   9.403   8.805 -0.3227 -0.6026 -0.2642
  101MOL0     N13217   3.553   9.524   8.820 -0.5663  0.5703  0.6520
  101MOL0     C13218   3.419   9.531   8.787  0.0680  0.5769 -0.5022
  101MOL0     C13219   3.376   9.658   8.816  0.2731  0.0482 -0.3012
  101MOL0     C13220   3.233   9.715   8.808 -0.0336 -0.5117 -0.2786
  101MOL0     C13221   3.145   9.641   8.907  0.2939 -0.3293 -0.1963
  101MOL0     C13222   3.171   9.690   9.049  0.3039  0.2461 -0.1752
  101MOL0     C13223   3.089   9.618   9.150 -0.1055  0.7457 -0.5222
  101MOL0     O13224   2.958   9.661   9.127 -0.8962 -0.0823  0.0279
  101MOL0     C13225   2.859   9.600   9.183  0.0706  0.5254  0.4993
  101MOL0     C13226   2.862   9.508   9.289  0.5475 -0.8251 -0.4415
  101MOL0     C13227   2.745   9.440   9.330 -1.5076 -0.9472  0.4266
  101MOL0     C13228   2.626   9.470   9.275  0.5180  0.1674  0.2067
  101MOL0     C13229   2.497   9.420   9.316  0.3466  0.1885  0.5080
  101MOL0     O13230   2.391   9.512   9.300 -0.4085 -0.1204  0.3169
  101MOL0     C13231   2.275   9.480   9.354  0.6501  0.2515  0.4119
  101MOL0     C13232   2.266   9.452   9.489 -0.3599  0.3118 -0.4552
  101MOL0     C13233   2.146   9.426   9.551 -0.3178  0.4527 -0.5262
  101MOL0     C13234   2.025   9.415   9.476  0.3196  0.1974 -0.2759
  101MOL0     O13235   1.917   9.386   9.550  0.1064  0.1486 -0.0844
  101MOL0     C13236   1.789   9.417   9.496  0.1225  0.1527 -0.5942
  101MOL0     C13237   1.723   9.297   9.424 -0.0341 -0.3470 -0.2875
  101MOL0     C13238   1.573   9.319   9.429  0.4826  0.1761  0.3007
  101MOL0     C13239   1.515   9.250   9.307  0.0099 -0.1038  0.0446
  101MOL0     C13240   1.474   9.097   9.328  0.8238  0.5935 -0.3656
  101MOL0     C13241   1.364   9.079   9.439 -0.3460 -0.4962  0.2803
  101MOL0     C13242   1.316   8.929   9.450  0.3503  0.5061  0.6395
  101MOL0     C13243   1.189   8.938   9.546 -0.1484  0.3437  0.3228
  101MOL0    Cl13244   1.096   8.787   9.548  0.1590  0.0387  0.2161
  101MOL0     C13245   2.031   9.452   9.345 -1.1233  0.5459 -0.5604
  101MOL0     C13246   2.155   9.488   9.285  0.2839 -0.0115  0.5372
  101MOL0     O13247   2.494   9.312   9.377 -0.2186  0.3456  0.6174
  101MOL0     C13248   2.614   9.575   9.176 -0.5012  0.2023  0.0444
  101MOL0     C13249   2.732   9.633   9.131  0.0441 -0.0756 -0.1407
  101MOL0     N13250   3.484   9.729   8.877 -0.2908  0.2691  0.1905
  101MOL0     N13251   3.585   9.644   8.876 -0.0429 -0.7992  0.9523
  101MOL0     C13252   4.053   8.809   8.444 -0.0484 -0.4319  0.8807
  101MOL0     C13253   3.962   8.706   8.459 -0.1308  0.7887  0.7660
  101MOL0     C13254   3.535   8.512   8.476 -1.0917 -0.4433  0.5260
  101MOL0     C13255   3.427   8.508   8.557  0.6440  0.4769  0.0304
  101MOL0     C13256   3.346   8.397   8.553  0.0456 -0.2321  0.2022
  101MOL0     C13257   3.354   8.288   8.460  0.6452  0.1596  0.8065
  101MOL0     O13258   3.271   8.180   8.452 -0.2437 -0.0798  0.0853
  101MOL0     C13259   3.146   8.191   8.522  0.7039 -0.4759 -0.2971
  101MOL0     C13260   3.070   8.065   8.478  1.1983  0.5313  0.2074
  101MOL0     C13261   3.123   7.954   8.566  0.1762  0.4828 -0.0697
  101MOL0     C13262   3.055   7.821   8.535 -0.2118  0.3278 -0.0043
  101MOL0     C13263   3.121   7.713   8.603 -0.2223 -0.0526 -0.1825
  101MOL0     C13264   3.176   7.622   8.662 -0.5870  0.6231  0.2155
  101MOL0     C13265   3.463   8.294   8.381  0.5806  0.2790  1.1890
  101MOL0     C13266   3.556   8.404   8.384  0.1173  0.1298 -0.0784
  101MOL0     H13267   3.712   8.844   8.282  0.0387 -0.2673  1.4240
  101MOL0     H13268   3.869   9.016   8.249  1.9787  1.6714  1.3903
  101MOL0     H13269   4.309   9.103   8.370 -0.0004 -0.2076  1.3268
  101MOL0     H13270   4.307   8.937   8.401  2.5911  1.5052 -1.5699
  101MOL0     H13271   4.317   9.099   8.599  0.2877  1.2225 -1.2287
  101MOL0     H13272   4.184   8.978   8.608 -0.7765 -0.5616 -1.4263
  101MOL0     H13273   4.016   9.156   8.558 -0.4534  3.0469  1.1492
  101MOL0     H13274   4.139   9.269   8.513 -0.1187 -0.2672  0.0555
  101MOL0     H13275   4.121   9.173   8.790  3.9470  1.8720  1.1051
  101MOL0     H13276   4.222   9.300   8.724 -0.0324  1.1751  0.8029
  101MOL0     H13277   4.009   9.422   8.655 -1.5910 -1.4290 -1.7150
  101MOL0     H13278   4.054   9.413   8.831 -1.2961  0.7126  0.2823
  101MOL0     H13279   3.876   9.246   8.849  0.7258  1.0535  1.9904
  101MOL0     H13280   3.832   9.278   8.671 -3.9235  1.9550  0.2192
  101MOL0     H13281   3.813   9.470   8.902  0.2905 -1.0221 -0.1183
  101MOL0     H13282   3.803   9.516   8.729  1.3699  0.8716  1.1463
  101MOL0     H13283   3.616   9.342   8.894 -1.1220  2.0299  1.4817
  101MOL0     H13284   3.612   9.339   8.720 -0.3933 -0.1792 -0.5645
  101MOL0     H13285   3.364   9.448   8.744  1.3188 -0.4480 -0.1803
  101MOL0     H13286   3.191   9.708   8.707  0.7229  1.7373 -0.8153
  101MOL0     H13287   3.225   9.820   8.840  0.0119 -0.2313 -1.1689
  101MOL0     H13288   3.147   9.532   8.916 -1.6049 -0.5742 -2.0092
  101MOL0     H13289   3.042   9.667   8.880 -0.1199  0.1239  1.6555
  101MOL0     H13290   3.275   9.669   9.075  1.6406  6.3012  0.8501
  101MOL0     H13291   3.172   9.799   9.051  1.0594  0.2275  0.9718
  101MOL0     H13292   3.118   9.647   9.251  3.7767  0.7075 -1.4716
  101MOL0     H13293   3.093   9.509   9.140 -0.5367  0.7736 -1.0763
  101MOL0     H13294   2.952   9.477   9.342  0.6911 -1.4034 -1.0157
  101MOL0     H13295   2.744   9.352   9.394 -0.6568 -2.5410 -1.6502
  101MOL0     H13296   2.351   9.450   9.556  0.0543  1.1380 -0.9368
  101MOL0     H13297   2.152   9.404   9.658 -2.8602  2.6176  0.1586
  101MOL0     H13298   1.787   9.506   9.432 -0.1202  0.6508  0.0954
  101MOL0     H13299   1.716   9.443   9.572  0.2462  1.7454 -0.9852
  101MOL0     H13300   1.741   9.200   9.471 -1.5241  0.0321  1.1783
  101MOL0     H13301   1.756   9.308   9.320 -2.3396 -1.0193 -1.1682
  101MOL0     H13302   1.556   9.427   9.442  0.7003  0.2183  0.2363
  101MOL0     H13303   1.537   9.276   9.523 -2.5981 -2.0842 -1.6931
  101MOL0     H13304   1.423   9.302   9.278  0.3197 -0.6193 -2.0375
  101MOL0     H13305   1.575   9.258   9.216 -0.2519  2.1062  0.0031
  101MOL0     H13306   1.561   9.032   9.339 -0.9932 -2.4400 -2.5188
  101MOL0     H13307   1.432   9.056   9.235  0.5303  1.2123 -0.5097
  101MOL0     H13308   1.277   9.142   9.419  0.3995  0.0100 -1.5208
  101MOL0     H13309   1.397   9.116   9.537 -1.7132  1.2687  0.1267
  101MOL0     H13310   1.288   8.897   9.349 -0.2419 -0.1520  1.0038
  101MOL0     H13311   1.402   8.875   9.491 -0.3150 -1.5925 -0.5449
  101MOL0     H13312   1.128   9.019   9.504  0.1549  0.2477 -0.3104
  101MOL0     H13313   1.222   8.973   9.644  2.9583  0.1871 -0.5405
  101MOL0     H13314   1.946   9.450   9.278 -1.5527  1.5018 -0.0613
  101MOL0     H13315   2.155   9.525   9.183 -0.8226 -1.4786 -0.0325
  101MOL0     H13316   2.523   9.602   9.124 -0.3445 -0.1792 -0.4319
  101MOL0     H13317   2.716   9.703   9.049 -2.6271 -1.5655 -1.0208
  101MOL0     H13318   4.157   8.795   8.473  0.9571 -0.5201 -2.3557
  101MOL0     H13319   3.996   8.615   8.508  2.4077  0.5404 -1.2909
  101MOL0     H13320   3.414   8.577   8.640  0.1033 -1.8042  1.9618
  101MOL0     H13321   3.266   8.392   8.626 -1.5944  0.3639 -1.4761
  101MOL0     H13322   3.092   8.284   8.497 -0.1482 -0.0574  2.7037
  101MOL0     H13323   3.159   8.195   8.630 -2.8877  2.1453  0.2289
  101MOL0     H13324   2.962   8.068   8.491  0.8760  1.7338 -2.1680
  101MOL0     H13325   3.085   8.028   8.376  1.3579 -0.9877  0.7497
  101MOL0     H13326   3.099   7.977   8.670 -4.7652 -1.6797 -0.4306
  101MOL0     H13327   3.232   7.955   8.572  0.2049 -0.8199 -0.0535
  101MOL0     H13328   2.951   7.815   8.568 -0.7852  0.7272 -1.6359
  101MOL0     H13329   3.066   7.796   8.429  3.0215 -3.3737  0.9494
  101MOL0     H13330   3.221   7.542   8.716  0.6616  0.9236 -0.3241
  101MOL0     H13331   3.484   8.216   8.308  2.9432 -0.1837  2.2654
  101MOL0     H13332   3.638   8.399   8.313 -0.2113  0.0093 -0.4508
  102MOL0     O13333   0.446   6.363   0.636 -0.0995  0.0082  0.5731
  102MOL0     C13334   0.527   6.319   0.711  0.0842 -0.1344 -0.4498
  102MOL0     O13335   0.491   6.255   0.830  0.2846 -0.3666  0.0738
  102MOL0     C13336   0.359   6.260   0.875 -0.6637  0.3054  0.9404
  102MOL0     C13337   0.267   6.366   0.864  0.4885  0.3683  0.6960
  102MOL0     C13338   0.137   6.351   0.908  0.4255 -0.4590  0.0088
  102MOL0     C13339   0.100   6.231   0.969 -0.1212  0.5265 -0.5988
  102MOL0     O13340  -0.031   6.220   1.013  0.1789  0.2529  0.1757
  102MOL0     C13341  -0.119   6.106   0.988  0.0625  0.0812  0.0200
  102MOL0     C13342  -0.255   6.119   1.071  0.8732  0.2132  0.2158
  102MOL0     C13343  -0.339   6.246   1.041 -0.2287  0.2005 -0.2246
  102MOL0     C13344  -0.379   6.260   0.892  0.0395 -1.0919  0.0675
  102MOL0     C13345  -0.447   6.141   0.829  0.3504  0.0534 -0.5135
  102MOL0     C13346  -0.483   6.175   0.683 -0.7942 -0.6909 -0.4338
  102MOL0     C13347  -0.375   6.150   0.583 -0.3676  0.1196  0.2209
  102MOL0     C13348  -0.386   6.182   0.441 -0.0715  0.5319  0.5398
  102MOL0     N13349  -0.265   6.143   0.362  0.5197  0.8154  0.4251
  102MOL0     C13350  -0.243   6.017   0.303 -0.6120  0.2789 -0.1360
  102MOL0     C13351  -0.108   6.029   0.260 -0.2103  0.1112 -0.9373
  102MOL0     C13352  -0.042   5.925   0.171 -0.0657  0.1210  0.0803
  102MOL0     C13353   0.048   5.834   0.254  0.4385 -0.9354  0.1587
  102MOL0     C13354   0.157   5.765   0.170 -0.6092  0.6509 -0.1451
  102MOL0     C13355   0.241   5.671   0.255  0.3638  0.1182  0.5740
  102MOL0     O13356   0.354   5.613   0.180 -0.7432  0.5118 -0.2677
  102MOL0     C13357   0.477   5.613   0.246  0.2918  0.2430  0.4973
  102MOL0     C13358   0.588   5.582   0.167  0.9589  0.2149  0.6005
  102MOL0     C13359   0.715   5.574   0.218 -0.1329  0.3431  0.2196
  102MOL0     C13360   0.738   5.574   0.350  0.7915  0.6917 -0.5066
  102MOL0     C13361   0.880   5.558   0.400  0.2604  0.1951  0.0743
  102MOL0     O13362   0.915   5.588   0.531  0.6732  0.6811 -0.0439
  102MOL0     C13363   1.041   5.593   0.583 -0.0724  0.3653 -0.0775
  102MOL0     C13364   1.164   5.569   0.523 -0.0272 -0.0468 -0.5520
  102MOL0     C13365   1.285   5.567   0.594  0.0269  0.2107  0.4492
  102MOL0     C13366   1.287   5.616   0.723 -0.3612  0.1264 -0.3761
  102MOL0     O13367   1.399   5.631   0.804 -0.1472 -0.4921 -0.6819
  102MOL0     C13368   1.520   5.689   0.742  0.2058 -0.4544 -0.8662
  102MOL0     C13369   1.656   5.685   0.822  0.6546 -0.3059 -0.7489
  102MOL0     C13370   1.774   5.770   0.785  0.1228 -0.2816 -0.1333
  102MOL0     C13371   1.876   5.760   0.889  0.6059  0.2557  1.1330
  102MOL0     C13372   2.003   5.826   0.866 -0.4504 -0.5355  0.2528
  102MOL0     C13373   2.094   5.780   0.754  0.6398  0.8425 -0.1387
  102MOL0     C13374   2.134   5.632   0.764  0.1625  0.3871 -0.4601
  102MOL0     C13375   2.262   5.605   0.684 -0.4620 -0.2820 -0.1843
  102MOL0    Cl13376   2.245   5.637   0.509  0.0682 -0.6576  0.1497
  102MOL0     C13377   1.169   5.636   0.786  1.2095 -0.1015  0.1276
  102MOL0     C13378   1.041   5.629   0.716 -0.1995 -0.5421 -0.4638
  102MOL0     O13379   0.959   5.519   0.319  0.3370  0.2351  0.7895
  102MOL0     C13380   0.627   5.597   0.433 -0.0825  0.8747 -0.0597
  102MOL0     C13381   0.498   5.619   0.387  0.5992  0.2486  0.4133
  102MOL0     N13382  -0.071   6.161   0.280 -0.0549  0.6455  0.2074
  102MOL0     N13383  -0.168   6.228   0.340  0.4991 -0.0044 -0.2151
  102MOL0     C13384   0.196   6.124   0.992 -0.0798 -0.6120  0.5988
  102MOL0     C13385   0.318   6.144   0.935  0.0932 -0.1527  0.1265
  102MOL0     C13386   0.672   6.307   0.670 -0.1798  0.3408  0.7141
  102MOL0     C13387   0.773   6.299   0.767 -0.1936 -0.3107  0.1710
  102MOL0     C13388   0.911   6.314   0.732  0.7368 -1.0051  0.5857
  102MOL0     C13389   0.948   6.331   0.598 -0.3771 -0.2149 -0.2347
  102MOL0     O13390   1.080   6.343   0.578 -0.1071  0.3144  0.2062
  102MOL0     C13391   1.121   6.371   0.442  0.6120 -0.6118  0.0994
  102MOL0     C13392   1.269   6.343   0.418  0.7716 -0.1549 -0.0432
  102MOL0     C13393   1.360   6.446   0.494 -0.5673 -0.6838 -0.0338
  102MOL0     C13394   1.503   6.429   0.437 -0.2588  0.2618  0.9114
  102MOL0     C13395   1.616   6.462   0.520 -0.3217  0.3788 -0.1540
  102MOL0     C13396   1.715   6.470   0.592 -0.0893  0.3854  0.3140
  102MOL0     C13397   0.848   6.345   0.498  1.3104 -0.1536 -0.8154
  102MOL0     C13398   0.708   6.337   0.541 -1.1037  0.0688  0.2238
  102MOL0     H13399   0.277   6.463   0.815  1.3476  0.7123  1.5299
  102MOL0     H13400   0.073   6.435   0.880  1.4819 -0.1168 -1.5332
  102MOL0     H13401  -0.071   6.009   1.007  2.3572  0.9042 -1.1939
  102MOL0     H13402  -0.147   6.110   0.882 -2.1514 -1.9183  0.4440
  102MOL0     H13403  -0.229   6.121   1.177 -1.6150 -0.3469  0.9187
  102MOL0     H13404  -0.316   6.030   1.050  0.7601  0.5495 -0.9580
  102MOL0     H13405  -0.292   6.339   1.074 -1.4061  0.6386  0.2822
  102MOL0     H13406  -0.428   6.237   1.104  0.4891  1.4471  1.0164
  102MOL0     H13407  -0.447   6.345   0.878  2.4979  1.2668  1.5231
  102MOL0     H13408  -0.291   6.284   0.832 -0.1289 -0.1426  0.1858
  102MOL0     H13409  -0.536   6.126   0.891  0.2905  0.0600 -0.5982
  102MOL0     H13410  -0.385   6.052   0.840 -0.7191 -0.6586 -0.0565
  102MOL0     H13411  -0.521   6.277   0.673 -0.5054 -0.2948  1.8987
  102MOL0     H13412  -0.563   6.106   0.652 -0.3543  0.0530 -3.5211
  102MOL0     H13413  -0.290   6.210   0.616 -1.2453  1.0116  0.9473
  102MOL0     H13414  -0.353   6.044   0.599 -0.3367  0.3300  1.7870
  102MOL0     H13415  -0.398   6.290   0.429 -1.4985  0.4357  1.0002
  102MOL0     H13416  -0.480   6.140   0.405 -0.8925 -0.9114  4.0285
  102MOL0     H13417  -0.307   5.929   0.313  2.1366 -1.5231  3.7400
  102MOL0     H13418   0.016   5.978   0.095  1.6701  0.0575  1.2982
  102MOL0     H13419  -0.122   5.874   0.117  0.6787 -0.6937 -0.2749
  102MOL0     H13420  -0.019   5.770   0.313 -1.5063  2.6274  2.1827
  102MOL0     H13421   0.102   5.900   0.323  0.2629 -2.2655  1.6386
  102MOL0     H13422   0.109   5.709   0.090 -1.0323  1.6558 -0.6145
  102MOL0     H13423   0.229   5.833   0.123  0.9347 -0.2278  0.8359
  102MOL0     H13424   0.176   5.593   0.296 -2.1804  1.4770 -0.6593
  102MOL0     H13425   0.271   5.728   0.344  1.2894  1.8126 -0.7522
  102MOL0     H13426   0.572   5.592   0.060 -0.8740 -0.6013  0.7660
  102MOL0     H13427   0.800   5.566   0.152 -0.7211  1.3471 -0.7066
  102MOL0     H13428   1.168   5.529   0.423 -0.2342 -0.2287 -0.4891
  102MOL0     H13429   1.380   5.557   0.542  0.2333 -0.5852  0.9590
  102MOL0     H13430   1.496   5.786   0.699 -2.6594 -1.1428 -1.0399
  102MOL0     H13431   1.533   5.627   0.652 -2.3486 -2.8126  0.2135
  102MOL0     H13432   1.698   5.585   0.830  0.1116 -0.4564  0.5019
  102MOL0     H13433   1.622   5.714   0.922  1.8780  0.7858 -0.6218
  102MOL0     H13434   1.741   5.874   0.783 -1.8035 -0.8571 -0.6928
  102MOL0     H13435   1.817   5.754   0.685  0.0674  4.0505 -1.0755
  102MOL0     H13436   1.834   5.797   0.984  3.2573  0.4113  2.3124
  102MOL0     H13437   1.897   5.653   0.897 -1.6373 -0.4219 -0.7263
  102MOL0     H13438   2.060   5.838   0.959 -1.3727  2.9095  0.5128
  102MOL0     H13439   1.977   5.929   0.839 -2.0338 -0.7376  0.8993
  102MOL0     H13440   2.186   5.838   0.745  2.6682 -1.5295  3.3585
  102MOL0     H13441   2.025   5.788   0.669 -2.6506  2.9303  2.4674
  102MOL0     H13442   2.166   5.621   0.868  2.9708  1.1539 -1.1552
  102MOL0     H13443   2.050   5.567   0.738  0.2830 -0.6613  1.5261
  102MOL0     H13444   2.296   5.502   0.693 -0.6158 -0.3160  0.0102
  102MOL0     H13445   2.342   5.668   0.723  0.3001 -1.7046  0.6003
  102MOL0     H13446   1.185   5.667   0.889 -1.2795 -0.5397  0.7089
  102MOL0     H13447   0.943   5.642   0.761 -0.8736 -2.1675 -1.3548
  102MOL0     H13448   0.637   5.605   0.541 -0.5784  1.8829 -0.0819
  102MOL0     H13449   0.421   5.642   0.459  0.3166  2.0496 -0.3955
  102MOL0     H13450   0.169   6.040   1.056 -0.1904 -0.0276  1.3327
  102MOL0     H13451   0.392   6.064   0.933  0.3551 -0.0554  2.4374
  102MOL0     H13452   0.758   6.281   0.873 -2.2499 -2.3537 -0.3674
  102MOL0     H13453   0.988   6.320   0.809  1.5926 -3.0555 -0.0440
  102MOL0     H13454   1.104   6.472   0.404  0.0798 -0.5605  0.4602
  102MOL0     H13455   1.071   6.302   0.373  2.2820 -2.0611  0.2848
  102MOL0     H13456   1.301   6.239   0.432  2.8218  0.4516  0.0993
  102MOL0     H13457   1.288   6.352   0.311  2.0511 -1.8441 -0.0058
  102MOL0     H13458   1.362   6.429   0.602  0.9596 -3.2788 -0.3932
  102MOL0     H13459   1.331   6.550   0.477  1.6758  0.0074  0.0278
  102MOL0     H13460   1.521   6.323   0.413  0.2142  0.3034  1.0814
  102MOL0     H13461   1.517   6.476   0.339  1.2321  0.0134  0.9836
  102MOL0     H13462   1.803   6.464   0.653 -0.7001 -1.3851  1.0864
  102MOL0     H13463   0.868   6.366   0.394  1.1296 -1.4659 -1.1277
  102MOL0     H13464   0.639   6.359   0.461  0.3465 -0.6426 -1.2836
  103MOL0     O13465  10.206   7.730  11.012  0.3037 -0.1061  0.4059
  103MOL0     C13466  10.117   7.692  11.085  0.1555  0.7022 -0.3194
  103MOL0     O13467  10.137   7.620  11.194 -1.1086  0.0704 -0.0104
  103MOL0     C13468  10.262   7.583  11.244 -0.2505  0.6365 -0.9514
  103MOL0     C13469  10.378   7.540  11.168  0.0225 -0.7775  1.1008
  103MOL0     C13470  10.505   7.531  11.230  0.7109 -0.1992 -0.1860
  103MOL0     C13471  10.509   7.536  11.374 -0.8058  0.7126 -0.3026
  103MOL0     O13472  10.631   7.514  11.439 -0.6243 -0.2891 -0.5291
  103MOL0     C13473  10.744   7.469  11.368  0.1767 -0.0963 -0.2366
  103MOL0     C13474  10.868   7.445  11.459 -0.4923  0.7867 -0.3175
  103MOL0     C13475  10.979   7.395  11.377 -0.6148 -0.2030  0.5472
  103MOL0     C13476  11.125   7.406  11.446  0.0778  0.3360 -0.6872
  103MOL0     C13477  11.233   7.370  11.346 -0.3026 -0.4782  0.4963
  103MOL0     C13478  11.293   7.502  11.296  0.1555 -0.3205 -0.4737
  103MOL0     C13479  11.391   7.479  11.181 -0.3595 -1.1525  0.4058
  103MOL0     C13480  11.511   7.391  11.212 -0.6079 -0.0791 -0.3179
  103MOL0     N13481  11.602   7.373  11.102  0.2783  0.3307 -0.1942
  103MOL0     C13482  11.592   7.273  11.015 -0.5340  0.0325  0.4882
  103MOL0     C13483  11.703   7.291  10.937 -0.5881  0.7399 -0.3435
  103MOL0     C13484  11.744   7.203  10.827 -0.6257  0.4140  0.3707
  103MOL0     C13485  11.647   7.156  10.727  0.6268  0.4345  0.1651
  103MOL0     C13486  11.630   7.257  10.614 -0.6436 -0.5578 -0.3243
  103MOL0     C13487  11.550   7.387  10.657  0.1846 -0.0499 -0.3621
  103MOL0     O13488  11.422   7.344  10.719  0.1940  0.5968 -0.1388
  103MOL0     C13489  11.342   7.436  10.779  0.7359  1.2166 -0.3993
  103MOL0     C13490  11.348   7.570  10.752 -0.4488  0.4483  0.1751
  103MOL0     C13491  11.250   7.665  10.791  0.4434 -0.3203  0.3517
  103MOL0     C13492  11.147   7.630  10.873  0.7440  0.7893  0.2565
  103MOL0     C13493  11.057   7.734  10.931 -1.0730 -0.3556  0.1249
  103MOL0     O13494  11.089   7.863  10.921 -0.8995  0.3223 -0.3893
  103MOL0     C13495  11.003   7.965  10.949  0.5129  0.2071 -0.0133
  103MOL0     C13496  11.057   8.092  10.989 -0.0613  1.3334 -0.3401
  103MOL0     C13497  10.980   8.206  11.000 -0.6006 -0.7318 -0.1451
  103MOL0     C13498  10.842   8.197  10.975 -0.4005  0.9891 -0.0573
  103MOL0     O13499  10.763   8.311  10.994  0.4566  0.0099 -0.2861
  103MOL0     C13500  10.662   8.340  10.899 -0.1615 -0.1383  0.0229
  103MOL0     C13501  10.666   8.491  10.857  0.1858  0.4705  0.3390
  103MOL0     C13502  10.568   8.534  10.747 -0.2795  0.3480 -0.1063
  103MOL0     C13503  10.580   8.679  10.705 -0.0938 -0.9578 -0.7016
  103MOL0     C13504  10.463   8.735  10.628 -0.1741  0.3597  0.2598
  103MOL0     C13505  10.390   8.832  10.717  0.8616 -0.0624  0.5464
  103MOL0     C13506  10.312   8.759  10.822 -0.0213 -0.2055  0.4285
  103MOL0     C13507  10.258   8.865  10.915 -0.0070  0.5287 -0.2601
  103MOL0    Cl13508  10.194   8.796  11.070 -0.0129 -0.1148 -0.2753
  103MOL0     C13509  10.784   8.074  10.943  0.7727 -0.2047  0.4787
  103MOL0     C13510  10.863   7.964  10.921 -0.2007  0.6960 -0.3430
  103MOL0     O13511  10.958   7.688  10.990  0.1509 -0.5943  0.1662
  103MOL0     C13512  11.138   7.489  10.910 -0.3190 -0.4987  0.2710
  103MOL0     C13513  11.233   7.390  10.861  0.2732 -0.8987 -0.3013
  103MOL0     N13514  11.770   7.408  10.973 -0.1505  0.0579  0.2777
  103MOL0     N13515  11.703   7.462  11.073  0.4133  1.2452  0.1610
  103MOL0     C13516  10.397   7.569  11.454  0.2760  0.8130  0.0932
  103MOL0     C13517  10.274   7.596  11.386 -0.5613  0.1943 -0.4516
  103MOL0     C13518   9.984   7.735  11.062  1.1158 -0.0212 -1.8223
  103MOL0     C13519   9.945   7.821  10.951 -0.0433 -0.6297 -0.7467
  103MOL0     C13520   9.815   7.848  10.922  0.1224 -0.0679  0.4242
  103MOL0     C13521   9.712   7.821  11.005  0.5993  0.3794 -0.9446
  103MOL0     O13522   9.594   7.874  10.964 -0.8865  0.3288 -0.4021
  103MOL0     C13523   9.487   7.885  11.056 -0.1529  0.1235 -0.1687
  103MOL0     C13524   9.381   7.783  11.052 -0.4951  0.6983 -0.7011
  103MOL0     C13525   9.405   7.636  11.068  1.2850  0.1955 -0.1307
  103MOL0     C13526   9.280   7.549  11.111 -0.1666 -0.5084  0.0663
  103MOL0     C13527   9.178   7.530  11.012  0.4288  0.1574 -0.0278
  103MOL0     C13528   9.114   7.543  10.909 -0.7422 -0.4686 -0.7678
  103MOL0     C13529   9.745   7.754  11.124  0.8481 -0.3737 -0.3270
  103MOL0     C13530   9.871   7.699  11.147  0.6411 -0.2637 -0.0456
  103MOL0     H13531  10.357   7.534  11.062 -1.6060 -4.2285  1.4555
  103MOL0     H13532  10.589   7.519  11.163 -1.9347 -0.9252 -3.6583
  103MOL0     H13533  10.780   7.539  11.292  0.7167  1.6853  1.5614
  103MOL0     H13534  10.712   7.372  11.331 -0.4556 -0.8818  2.1868
  103MOL0     H13535  10.837   7.375  11.538 -0.2270  0.9542 -0.0624
  103MOL0     H13536  10.894   7.540  11.506  0.1822  0.7504 -0.6202
  103MOL0     H13537  10.979   7.440  11.277  2.0874 -0.7186  0.2441
  103MOL0     H13538  10.971   7.287  11.362  1.1015 -0.1959 -0.7605
  103MOL0     H13539  11.126   7.504  11.495 -1.8638 -0.8160  1.9187
  103MOL0     H13540  11.124   7.329  11.524  0.5068  1.1883  0.1782
  103MOL0     H13541  11.190   7.313  11.263  0.1800  0.3482 -0.3279
  103MOL0     H13542  11.305   7.307  11.399 -0.2234 -2.9568 -2.2951
  103MOL0     H13543  11.342   7.552  11.381 -0.7472  1.6506 -1.0493
  103MOL0     H13544  11.210   7.568  11.269  0.1319 -0.5814 -1.0321
  103MOL0     H13545  11.338   7.428  11.100 -2.0171  0.2156  0.5628
  103MOL0     H13546  11.417   7.581  11.150 -4.1298  0.0802  0.7785
  103MOL0     H13547  11.465   7.304  11.261 -2.3031  1.7438  1.5667
  103MOL0     H13548  11.566   7.437  11.295  1.2977 -0.6822 -1.1882
  103MOL0     H13549  11.530   7.184  11.015  2.1238 -1.9342  0.7120
  103MOL0     H13550  11.784   7.111  10.871  2.6876  1.0872 -0.9544
  103MOL0     H13551  11.823   7.254  10.772 -0.5491 -0.5124 -0.4101
  103MOL0     H13552  11.549   7.127  10.767 -0.0101 -2.6813 -3.1588
  103MOL0     H13553  11.681   7.062  10.684 -1.3114 -0.6989  0.9852
  103MOL0     H13554  11.723   7.305  10.581  0.2891  0.5403  3.4412
  103MOL0     H13555  11.585   7.202  10.531  0.0797 -0.8186 -0.5550
  103MOL0     H13556  11.529   7.452  10.572 -0.9324 -1.1050 -0.9330
  103MOL0     H13557  11.610   7.443  10.729  0.1617 -0.3574 -0.1031
  103MOL0     H13558  11.428   7.610  10.691  1.6057 -1.7267  1.2823
  103MOL0     H13559  11.279   7.766  10.762  2.2208 -0.7874  0.3886
  103MOL0     H13560  11.164   8.094  11.010 -0.0290  2.0045 -0.5274
  103MOL0     H13561  11.015   8.300  11.042 -2.4338  0.0721 -0.3569
  103MOL0     H13562  10.566   8.315  10.944 -0.1629 -0.8259 -0.3434
  103MOL0     H13563  10.669   8.278  10.809  1.6142  0.3182 -0.1994
  103MOL0     H13564  10.771   8.505  10.828 -0.8800  0.6619 -4.1067
  103MOL0     H13565  10.644   8.543  10.951 -2.2306  1.9676 -0.9558
  103MOL0     H13566  10.475   8.521  10.803  0.7042  0.0488  1.5309
  103MOL0     H13567  10.574   8.479  10.653  1.5494  1.0745 -0.4535
  103MOL0     H13568  10.598   8.740  10.794 -2.6658  2.2994 -2.2006
  103MOL0     H13569  10.669   8.686  10.641 -0.5448  0.5985 -1.1814
  103MOL0     H13570  10.397   8.668  10.571  0.1195 -0.4520  0.8439
  103MOL0     H13571  10.499   8.803  10.550 -2.7678  0.2623 -1.1409
  103MOL0     H13572  10.318   8.885  10.654  1.6475 -0.1505 -0.4495
  103MOL0     H13573  10.453   8.909  10.762 -0.7124  0.4634  1.9551
  103MOL0     H13574  10.237   8.697  10.773 -0.4040  0.4659  0.1526
  103MOL0     H13575  10.377   8.694  10.881  2.4275  1.1409 -0.6122
  103MOL0     H13576  10.174   8.916  10.868 -0.9756 -0.8282 -0.0506
  103MOL0     H13577  10.340   8.936  10.929  1.1574 -0.6081 -1.0618
  103MOL0     H13578  10.681   8.049  10.919  0.1081  2.5881  0.0380
  103MOL0     H13579  10.807   7.881  10.880  0.8956  0.4650 -1.4227
  103MOL0     H13580  11.072   7.463  10.991  0.1974 -0.0754  0.8399
  103MOL0     H13581  11.226   7.284  10.887 -1.4750 -1.6924 -3.4537
  103MOL0     H13582  10.408   7.566  11.562 -1.4813  0.2910  0.2979
  103MOL0     H13583  10.183   7.634  11.431 -0.6069 -0.9826  0.4933
  103MOL0     H13584  10.016   7.839  10.871 -1.4662 -0.7341 -2.0993
  103MOL0     H13585   9.783   7.909  10.838 -2.1211 -1.0081  0.5420
  103MOL0     H13586   9.432   7.975  11.029 -3.6088 -1.5518  0.7765
  103MOL0     H13587   9.525   7.906  11.157 -1.5398 -0.1689  0.4295
  103MOL0     H13588   9.309   7.815  11.129  0.3539  0.9312  0.0093
  103MOL0     H13589   9.338   7.809  10.955  1.3404 -1.0694 -2.0665
  103MOL0     H13590   9.475   7.616  11.150  0.8416 -3.2672 -0.4624
  103MOL0     H13591   9.443   7.597  10.974  2.0314  2.6486 -0.9312
  103MOL0     H13592   9.314   7.447  11.128 -2.0553 -1.3837 -1.1163
  103MOL0     H13593   9.236   7.588  11.204 -3.0679 -2.7078 -0.2416
  103MOL0     H13594   9.063   7.563  10.817  2.5120 -0.1371 -2.6308
  103MOL0     H13595   9.668   7.733  11.198 -0.6579  0.0951 -1.7035
  103MOL0     H13596   9.891   7.636  11.233  1.6965 -2.3529 -1.7215
  104MOL0     O13597   9.984   7.402   5.096  0.6121 -0.2881  0.8267
  104MOL0     C13598   9.980   7.515   5.137  0.4760 -0.2640  0.1855
  104MOL0     O13599   9.862   7.579   5.173  0.0232  0.4438 -0.3942
  104MOL0     C13600   9.742   7.530   5.148  0.4550 -0.4720  0.1779
  104MOL0     C13601   9.690   7.398   5.184  0.9583 -0.1400 -0.3602
  104MOL0     C13602   9.561   7.368   5.150 -0.1856  0.8274  0.1364
  104MOL0     C13603   9.482   7.453   5.067 -0.3093 -0.4785  0.4715
  104MOL0     O13604   9.354   7.423   5.048 -0.0148  0.5660 -0.0937
  104MOL0     C13605   9.272   7.540   5.064  0.5107  0.0679 -0.3022
  104MOL0     C13606   9.142   7.488   5.124  0.4061  0.2653  0.0702
  104MOL0     C13607   9.085   7.365   5.052  0.0240 -0.2783  0.7443
  104MOL0     C13608   8.950   7.315   5.105 -0.1010  0.3970  0.6176
  104MOL0     C13609   8.872   7.238   4.998  0.5256  0.1336  0.6074
  104MOL0     C13610   8.929   7.091   4.982 -0.4192 -0.3643 -0.5027
  104MOL0     C13611   8.847   7.016   4.879 -0.7582  0.2565 -0.0742
  104MOL0     C13612   8.892   6.877   4.846  0.3811 -0.7451  0.5481
  104MOL0     N13613   8.790   6.796   4.769  0.9702 -0.5320 -0.6078
  104MOL0     C13614   8.798   6.712   4.657  0.4612  0.1108 -0.8381
  104MOL0     C13615   8.668   6.684   4.618 -0.4259 -1.1534  0.4499
  104MOL0     C13616   8.638   6.592   4.502  1.3304  0.0983  0.9217
  104MOL0     C13617   8.497   6.536   4.523 -0.0318  0.2991 -0.3632
  104MOL0     C13618   8.501   6.382   4.487 -0.6719  0.7527 -0.0049
  104MOL0     C13619   8.363   6.315   4.494  0.1454  0.2407  0.4227
  104MOL0     O13620   8.313   6.338   4.625  0.8608 -0.2100  0.6900
  104MOL0     C13621   8.191   6.274   4.646 -0.0669  0.3826 -0.6727
  104MOL0     C13622   8.072   6.318   4.578 -0.1972  0.5643  0.2498
  104MOL0     C13623   7.952   6.245   4.597  0.5243 -0.8829  1.3809
  104MOL0     C13624   7.946   6.132   4.671  0.2163  0.4902 -0.0038
  104MOL0     C13625   7.817   6.061   4.683 -0.7452  0.9035 -0.0979
  104MOL0     O13626   7.705   6.123   4.640  0.1648  0.1872 -0.2213
  104MOL0     C13627   7.589   6.070   4.686  0.1369  0.8364 -0.3621
  104MOL0     C13628   7.502   6.020   4.597  1.6374 -0.0795  0.1410
  104MOL0     C13629   7.381   5.958   4.639 -0.9266 -0.7817  0.0863
  104MOL0     C13630   7.335   5.966   4.767 -0.1783 -0.5570 -0.6383
  104MOL0     O13631   7.202   5.940   4.783  0.8700  0.6592 -0.3493
  104MOL0     C13632   7.150   5.947   4.919 -0.6244 -0.7541  0.2295
  104MOL0     C13633   7.001   5.941   4.920 -0.6779 -0.3061  0.1046
  104MOL0     C13634   6.925   5.976   5.050 -0.7333 -0.0116  0.2577
  104MOL0     C13635   6.772   5.949   5.025 -0.5126 -0.8080  0.1282
  104MOL0     C13636   6.691   5.993   5.143  0.5764  0.0627  1.0269
  104MOL0     C13637   6.534   5.977   5.119 -0.8475 -0.1863 -0.1449
  104MOL0     C13638   6.440   6.018   5.235 -0.1787 -0.6201  0.4782
  104MOL0     C13639   6.422   5.902   5.331  0.3111  0.2652 -0.6046
  104MOL0    Cl13640   6.355   5.974   5.490 -0.0024 -0.2714 -0.7164
  104MOL0     C13641   7.426   6.020   4.868 -0.6383  0.2667  0.7350
  104MOL0     C13642   7.547   6.076   4.819 -0.4044 -0.1160 -0.4816
  104MOL0     O13643   7.821   5.945   4.730 -0.7491  0.0991 -0.4226
  104MOL0     C13644   8.065   6.092   4.745  0.9219 -0.8705  0.4403
  104MOL0     C13645   8.184   6.164   4.725  0.8148  0.4080  0.6876
  104MOL0     N13646   8.585   6.765   4.691  0.6559  0.5123  0.1505
  104MOL0     N13647   8.661   6.825   4.773 -0.6425  0.0082  0.2933
  104MOL0     C13648   9.537   7.577   5.030 -0.2636 -0.5849 -0.6090
  104MOL0     C13649   9.667   7.615   5.071  0.6604  1.0505  0.2751
  104MOL0     C13650  10.103   7.591   5.155 -0.0694 -0.4154  0.0991
  104MOL0     C13651  10.224   7.561   5.077  0.3046  0.1631  0.1981
  104MOL0     C13652  10.341   7.635   5.090  0.0665 -0.1998 -0.1447
  104MOL0     C13653  10.342   7.744   5.180 -0.2691  0.0221 -0.1765
  104MOL0     O13654  10.445   7.830   5.191 -0.2881  0.4225  0.0820
  104MOL0     C13655  10.571   7.815   5.118  0.1540  0.3760 -0.7075
  104MOL0     C13656  10.658   7.705   5.177 -0.2030 -1.1302  0.2161
  104MOL0     C13657  10.751   7.727   5.300 -0.7076  0.0761 -0.4472
  104MOL0     C13658  10.663   7.757   5.421 -0.4304 -0.0926  0.3463
  104MOL0     C13659  10.652   7.901   5.437 -0.0277  0.5659 -0.3808
  104MOL0     C13660  10.658   8.021   5.460  0.3828  0.3357 -0.8921
  104MOL0     C13661  10.233   7.770   5.260 -0.0824  0.2664 -0.4562
  104MOL0     C13662  10.112   7.693   5.243 -0.1680 -0.1824  0.1338
  104MOL0     H13663   9.756   7.328   5.233  0.5202  0.5783  1.3205
  104MOL0     H13664   9.523   7.271   5.181  0.0446  0.7533  0.1810
  104MOL0     H13665   9.252   7.593   4.970 -1.3350  1.9774  1.0642
  104MOL0     H13666   9.308   7.612   5.138 -0.4888  2.1691 -1.7324
  104MOL0     H13667   9.071   7.570   5.139  0.7196  0.4147  0.7725
  104MOL0     H13668   9.160   7.456   5.227 -2.2273  0.8774  0.7941
  104MOL0     H13669   9.154   7.283   5.071  1.4286  1.0285  1.4679
  104MOL0     H13670   9.080   7.397   4.948 -0.4655  2.2824  1.4914
  104MOL0     H13671   8.962   7.256   5.196 -3.1915 -0.7473  0.4098
  104MOL0     H13672   8.890   7.398   5.145  0.1696 -0.0943  2.1005
  104MOL0     H13673   8.871   7.295   4.905 -1.6865  2.4388  1.9389
  104MOL0     H13674   8.768   7.231   5.031 -0.1036  1.8253 -0.8462
  104MOL0     H13675   8.945   7.052   5.082 -1.3299  3.5263  1.3408
  104MOL0     H13676   9.031   7.103   4.943 -1.0923  2.3411 -1.6692
  104MOL0     H13677   8.745   7.007   4.918 -0.7058  0.8993  0.2277
  104MOL0     H13678   8.850   7.074   4.786 -0.5365  0.1380 -0.1416
  104MOL0     H13679   8.891   6.826   4.943 -2.2197 -0.9116  0.4918
  104MOL0     H13680   8.990   6.869   4.799 -0.6011  0.1249 -1.7715
  104MOL0     H13681   8.889   6.671   4.615  0.8801  0.2557 -0.0855
  104MOL0     H13682   8.721   6.521   4.511 -0.6592 -2.1859  2.4663
  104MOL0     H13683   8.643   6.652   4.411 -1.3255 -1.5427 -0.4141
  104MOL0     H13684   8.425   6.582   4.454  1.2631  1.9277 -0.6929
  104MOL0     H13685   8.469   6.551   4.627  2.5225  1.1161  0.2715
  104MOL0     H13686   8.544   6.371   4.387 -2.2336 -0.8348 -0.5563
  104MOL0     H13687   8.556   6.339   4.572 -0.1244  1.1453 -0.1546
  104MOL0     H13688   8.378   6.212   4.460 -3.4150  0.3350 -2.0109
  104MOL0     H13689   8.303   6.368   4.420  0.4803 -0.7010 -0.5648
  104MOL0     H13690   8.088   6.396   4.504  3.5179  0.9886  1.2737
  104MOL0     H13691   7.866   6.284   4.544 -0.7798 -3.1712  1.7023
  104MOL0     H13692   7.521   5.992   4.494  1.4567 -1.4393  0.4550
  104MOL0     H13693   7.319   5.912   4.562  0.7103 -2.6880 -0.1741
  104MOL0     H13694   7.176   6.044   4.963  0.7132 -1.0035  0.0178
  104MOL0     H13695   7.192   5.868   4.982  2.1081 -0.0132 -0.5572
  104MOL0     H13696   6.971   5.843   4.882  0.8896 -0.0494 -1.9859
  104MOL0     H13697   6.973   6.018   4.848 -1.6874  0.9105  1.7431
  104MOL0     H13698   6.939   6.083   5.065 -0.3754 -0.2475  1.8031
  104MOL0     H13699   6.973   5.932   5.138  0.2119  1.2620  0.3972
  104MOL0     H13700   6.735   6.017   4.948 -0.3825  3.2736  3.3220
  104MOL0     H13701   6.756   5.843   5.005  0.5075 -0.7337 -1.1428
  104MOL0     H13702   6.715   6.100   5.146  2.7140 -0.1221 -3.1000
  104MOL0     H13703   6.719   5.946   5.238 -1.8784 -0.3318  1.6369
  104MOL0     H13704   6.510   5.872   5.098  0.3803 -0.9862  2.1304
  104MOL0     H13705   6.502   6.039   5.034 -1.3230 -1.6737 -1.0925
  104MOL0     H13706   6.476   6.109   5.283 -2.2710 -0.6693  2.3018
  104MOL0     H13707   6.345   6.045   5.188  0.9755  1.5780 -0.7739
  104MOL0     H13708   6.516   5.851   5.355  0.3038  1.0676  1.3379
  104MOL0     H13709   6.357   5.819   5.302  0.5966 -0.9157  1.8389
  104MOL0     H13710   7.394   6.036   4.970  0.8579 -0.3686  1.3359
  104MOL0     H13711   7.621   6.119   4.886 -2.2068  2.0941  0.2228
  104MOL0     H13712   8.060   6.028   4.832 -1.2061  2.4310  3.0125
  104MOL0     H13713   8.276   6.138   4.778  0.6713  2.1301  1.8633
  104MOL0     H13714   9.480   7.644   4.967  0.2533  0.7822  0.3272
  104MOL0     H13715   9.718   7.699   5.027  3.5090 -0.1088  1.1629
  104MOL0     H13716  10.204   7.488   4.999 -5.0552  3.3095 -1.8880
  104MOL0     H13717  10.425   7.601   5.031 -0.4893 -0.6950 -0.6710
  104MOL0     H13718  10.621   7.911   5.136 -0.9517  1.2000 -1.9163
  104MOL0     H13719  10.567   7.802   5.010  3.2056  1.4358 -1.0413
  104MOL0     H13720  10.594   7.618   5.194 -1.1726 -0.2592  1.1784
  104MOL0     H13721  10.726   7.672   5.098  1.9426  0.6762  1.2142
  104MOL0     H13722  10.817   7.813   5.285  0.2146 -0.2422  1.4944
  104MOL0     H13723  10.816   7.641   5.318  1.4254  1.5938 -0.4800
  104MOL0     H13724  10.567   7.706   5.418 -0.1318 -0.6140 -1.9521
  104MOL0     H13725  10.711   7.717   5.511  2.3861  1.1667 -0.4606
  104MOL0     H13726  10.665   8.126   5.479  0.9337  0.0038  0.9018
  104MOL0     H13727  10.224   7.857   5.325  0.9467  0.0134  0.0383
  104MOL0     H13728  10.017   7.719   5.288  0.3420 -1.3820  2.0099
  105MOL0     O13729   1.516   5.130   4.949 -0.6952 -0.1071 -0.3151
  105MOL0     C13730   1.485   5.019   4.989 -0.8829  0.4469  0.2036
  105MOL0     O13731   1.356   4.971   5.013 -0.0270 -0.6449  0.1318
  105MOL0     C13732   1.250   5.041   4.959  1.1682  0.8014 -0.9865
  105MOL0     C13733   1.200   4.996   4.835 -0.1962  0.1966 -0.1127
  105MOL0     C13734   1.091   5.069   4.787  0.4603 -1.0264  0.7813
  105MOL0     C13735   1.028   5.183   4.856 -0.2363 -0.2330 -1.1569
  105MOL0     O13736   0.930   5.261   4.812  0.5016  0.5045 -0.2469
  105MOL0     C13737   0.838   5.212   4.709 -1.4509  0.0190  0.3946
  105MOL0     C13738   0.734   5.115   4.767 -0.5026  0.0555 -0.4088
  105MOL0     C13739   0.626   5.191   4.841  0.1861  0.8914 -0.1458
  105MOL0     C13740   0.517   5.099   4.912 -0.2224  0.7064 -0.3814
  105MOL0     C13741   0.417   5.196   4.974  0.1794 -0.4350 -0.6877
  105MOL0     C13742   0.459   5.261   5.114  0.2867 -0.5842 -0.0242
  105MOL0     C13743   0.365   5.375   5.141  0.6533 -0.5089 -0.3239
  105MOL0     C13744   0.227   5.343   5.200 -0.7110  0.1557 -0.4241
  105MOL0     N13745   0.217   5.323   5.344 -0.1301  0.2231 -0.2427
  105MOL0     C13746   0.103   5.329   5.425  0.0088 -0.9698 -0.1264
  105MOL0     C13747   0.142   5.319   5.549  0.8878  0.2719 -0.3606
  105MOL0     C13748   0.051   5.321   5.673  0.1998 -0.9932 -0.2163
  105MOL0     C13749  -0.040   5.190   5.682  0.0197  0.4596 -0.1282
  105MOL0     C13750  -0.187   5.205   5.649 -0.1767 -0.4735 -0.1913
  105MOL0     C13751  -0.246   5.066   5.636  0.4984  0.5356 -0.5326
  105MOL0     O13752  -0.379   5.050   5.581 -0.0460 -0.1712 -0.1420
  105MOL0     C13753  -0.486   5.058   5.667  0.5966  0.1944 -0.1585
  105MOL0     C13754  -0.598   4.988   5.625  0.5391  0.1214  0.4131
  105MOL0     C13755  -0.718   4.991   5.698 -0.6836  1.0399  0.3479
  105MOL0     C13756  -0.731   5.052   5.820  1.1867 -0.2245 -0.5442
  105MOL0     C13757  -0.862   5.038   5.888  0.3440 -0.7750  0.5558
  105MOL0     O13758  -0.945   4.950   5.836 -0.3724 -0.7908 -0.1398
  105MOL0     C13759  -1.072   4.927   5.890 -0.1203  0.1986  0.1349
  105MOL0     C13760  -1.169   5.017   5.923 -0.0750 -0.0408 -0.3764
  105MOL0     C13761  -1.291   4.977   5.977 -0.3061  0.4286  0.4168
  105MOL0     C13762  -1.318   4.847   5.996 -0.0641  0.4411 -0.2442
  105MOL0     O13763  -1.442   4.824   6.056  0.6145 -0.4093 -0.0654
  105MOL0     C13764  -1.478   4.688   6.078 -0.1861 -0.8125 -0.0908
  105MOL0     C13765  -1.616   4.677   6.147 -0.0696 -0.4109 -1.0086
  105MOL0     C13766  -1.642   4.779   6.257  0.6568 -0.3401 -0.7333
  105MOL0     C13767  -1.755   4.757   6.355 -0.0989  0.0333  0.3198
  105MOL0     C13768  -1.760   4.854   6.477  0.5540 -0.2192  0.5286
  105MOL0     C13769  -1.881   4.822   6.573 -0.0015  0.4724 -0.6855
  105MOL0     C13770  -2.023   4.830   6.508 -0.2041  0.0338 -0.1266
  105MOL0     C13771  -2.141   4.795   6.605 -0.4370 -0.2673 -0.6957
  105MOL0    Cl13772  -2.124   4.621   6.639 -0.6849  0.1316  0.0424
  105MOL0     C13773  -1.224   4.747   5.965 -0.7542  0.1383  0.5490
  105MOL0     C13774  -1.097   4.787   5.907 -0.0924  0.0701  0.0011
  105MOL0     O13775  -0.881   5.118   5.981  0.4851  0.1950 -0.3695
  105MOL0     C13776  -0.623   5.136   5.859  0.2498  0.3411 -0.5473
  105MOL0     C13777  -0.502   5.137   5.790  0.6212 -0.7084  0.0696
  105MOL0     N13778   0.277   5.299   5.541 -0.2923  0.3827 -0.7548
  105MOL0     N13779   0.326   5.318   5.425 -0.3665 -0.0189  0.3651
  105MOL0     C13780   1.082   5.220   4.973 -0.1879  0.5091 -0.8880
  105MOL0     C13781   1.192   5.152   5.024  0.4382 -0.1970 -0.2562
  105MOL0     C13782   1.598   4.923   5.022 -0.8139 -0.4935 -0.3134
  105MOL0     C13783   1.570   4.826   5.118  0.4057 -0.0439 -0.3265
  105MOL0     C13784   1.669   4.735   5.161 -0.1714  0.6945 -0.4307
  105MOL0     C13785   1.796   4.740   5.111  0.1685 -0.1091  0.0766
  105MOL0     O13786   1.885   4.645   5.163 -0.0015 -0.1611 -0.5129
  105MOL0     C13787   2.028   4.646   5.141 -0.3177 -0.1537  0.3927
  105MOL0     C13788   2.084   4.520   5.207  0.2597  0.0284  0.3984
  105MOL0     C13789   2.079   4.402   5.114  0.2383 -0.2310  0.7576
  105MOL0     C13790   2.105   4.260   5.181 -0.5228  0.4395 -0.6463
  105MOL0     C13791   2.098   4.150   5.087 -0.4811 -0.3764  0.0593
  105MOL0     C13792   2.103   4.044   5.026  0.5004 -0.2923 -0.5540
  105MOL0     C13793   1.818   4.832   5.007  0.6824 -0.4521  0.0056
  105MOL0     C13794   1.727   4.932   4.972 -0.9173 -0.5698  0.2437
  105MOL0     H13795   1.223   4.903   4.784 -1.6433  0.6305 -1.6471
  105MOL0     H13796   1.048   5.033   4.694 -0.6536 -0.5031  1.0693
  105MOL0     H13797   0.892   5.157   4.632  0.7539  1.5484  0.7553
  105MOL0     H13798   0.797   5.299   4.656  0.9919  0.9938 -0.0369
  105MOL0     H13799   0.782   5.048   4.839 -0.1715  0.1634 -0.5279
  105MOL0     H13800   0.680   5.076   4.680 -0.2576  1.1068 -1.0548
  105MOL0     H13801   0.582   5.273   4.785  0.0688  0.3792 -0.8154
  105MOL0     H13802   0.683   5.234   4.924  0.9494  1.1968 -0.8078
  105MOL0     H13803   0.463   5.038   4.839 -1.2335  0.2831  0.6876
  105MOL0     H13804   0.568   5.036   4.986 -1.7326 -0.3673 -0.2106
  105MOL0     H13805   0.321   5.150   4.998  1.1532 -1.9546  0.5224
  105MOL0     H13806   0.404   5.278   4.903  0.9374  1.2297  1.0198
  105MOL0     H13807   0.560   5.302   5.111 -0.1218  0.4137 -0.5337
  105MOL0     H13808   0.448   5.186   5.193 -0.6944 -0.7347 -0.2968
  105MOL0     H13809   0.420   5.446   5.204  0.6112 -1.7264  1.1474
  105MOL0     H13810   0.345   5.435   5.051  1.4226  0.0233 -0.1509
  105MOL0     H13811   0.178   5.257   5.154  0.5315 -0.5127 -0.5595
  105MOL0     H13812   0.157   5.420   5.165 -4.0263 -3.4922 -2.5714
  105MOL0     H13813  -0.004   5.325   5.404  0.0215  0.1451 -0.5079
  105MOL0     H13814  -0.023   5.400   5.664  0.8068  0.0991  3.1490
  105MOL0     H13815   0.112   5.345   5.760 -2.1264 -1.3803  1.5905
  105MOL0     H13816  -0.039   5.155   5.786 -2.4215  0.6988  0.0369
  105MOL0     H13817   0.006   5.108   5.625  0.1496 -0.4019  1.1544
  105MOL0     H13818  -0.242   5.249   5.733 -0.4132 -0.1512 -0.5147
  105MOL0     H13819  -0.202   5.271   5.563 -0.4984  2.1083  1.7335
  105MOL0     H13820  -0.250   5.012   5.731  0.7390 -0.0076 -0.8270
  105MOL0     H13821  -0.192   5.004   5.564  0.3773  2.0668 -1.9949
  105MOL0     H13822  -0.598   4.943   5.527 -0.3116 -1.1407  0.9743
  105MOL0     H13823  -0.806   4.960   5.643  0.0404 -1.1213  0.3115
  105MOL0     H13824  -1.138   5.121   5.909  1.4082 -0.3720  0.1901
  105MOL0     H13825  -1.366   5.049   6.011 -1.5066 -1.6487  2.4831
  105MOL0     H13826  -1.413   4.641   6.152 -2.6462 -2.1488  1.3497
  105MOL0     H13827  -1.477   4.622   5.991  0.1317  0.8185 -1.3590
  105MOL0     H13828  -1.640   4.577   6.186  2.8874 -1.2725 -1.1202
  105MOL0     H13829  -1.679   4.687   6.058 -2.3301  1.7480  0.7138
  105MOL0     H13830  -1.659   4.877   6.210 -1.1913  0.0753  0.6821
  105MOL0     H13831  -1.551   4.782   6.319 -0.2108 -1.6888  0.6695
  105MOL0     H13832  -1.851   4.755   6.303 -0.9458 -1.3377  1.8480
  105MOL0     H13833  -1.740   4.657   6.397  0.0979 -0.8663 -1.7520
  105MOL0     H13834  -1.773   4.959   6.450 -0.5544 -0.3380  0.5533
  105MOL0     H13835  -1.662   4.846   6.526  0.8195 -2.0394 -0.1919
  105MOL0     H13836  -1.873   4.874   6.669 -1.2434 -4.4752  2.4595
  105MOL0     H13837  -1.868   4.717   6.598  2.9006  0.4002 -2.1103
  105MOL0     H13838  -2.037   4.931   6.468 -0.8628 -0.3274 -0.8351
  105MOL0     H13839  -2.028   4.753   6.431  2.1697 -1.4728  1.0807
  105MOL0     H13840  -2.234   4.816   6.551  0.4714  2.1500 -1.4503
  105MOL0     H13841  -2.139   4.861   6.692  1.3365 -1.7887  0.5174
  105MOL0     H13842  -1.231   4.640   5.982 -0.4333 -0.0054 -0.1807
  105MOL0     H13843  -1.020   4.716   5.876  0.0004  0.3988 -0.5283
  105MOL0     H13844  -0.643   5.200   5.945 -0.8296 -1.2191  0.4268
  105MOL0     H13845  -0.429   5.206   5.830 -1.0604  0.9706  0.4213
  105MOL0     H13846   1.044   5.300   5.036 -0.5990  0.2993 -0.8693
  105MOL0     H13847   1.225   5.181   5.123 -0.6614  3.0322 -0.7389
  105MOL0     H13848   1.468   4.814   5.154  0.6417 -0.6307  0.1780
  105MOL0     H13849   1.645   4.649   5.223  0.4135  0.6189 -0.2979
  105MOL0     H13850   2.075   4.734   5.186 -0.5594 -0.4116  1.1766
  105MOL0     H13851   2.050   4.629   5.035 -1.6654 -2.5711  0.4265
  105MOL0     H13852   2.187   4.542   5.236  0.6507 -1.6590  0.3853
  105MOL0     H13853   2.025   4.499   5.297 -1.7530  0.0999 -0.8366
  105MOL0     H13854   2.135   4.418   5.021  0.7072  0.0234  1.0800
  105MOL0     H13855   1.973   4.394   5.092 -0.2889  0.3326  2.8703
  105MOL0     H13856   2.205   4.264   5.224  0.6825  1.4676 -3.3636
  105MOL0     H13857   2.031   4.247   5.261 -2.1296  1.0904 -1.9624
  105MOL0     H13858   2.098   3.946   4.982 -2.0899 -0.9102  0.9014
  105MOL0     H13859   1.921   4.840   4.971  0.5070  1.1306 -0.2265
  105MOL0     H13860   1.756   5.001   4.893  1.9409 -1.9129  0.0070
  106MOL0     O13861   0.229   1.184  10.746 -0.0166 -0.5537  0.2363
  106MOL0     C13862   0.220   1.093  10.667  0.5148  1.2367 -0.6642
  106MOL0     O13863   0.103   1.045  10.610 -0.8405 -0.9446  0.5378
  106MOL0     C13864  -0.016   1.110  10.626 -0.2131 -0.1455 -1.2088
  106MOL0     C13865  -0.128   1.036  10.672 -0.4578  0.0108  0.6318
  106MOL0     C13866  -0.256   1.094  10.669 -0.6728 -0.0978 -0.6734
  106MOL0     C13867  -0.274   1.226  10.629  0.3994  0.3227 -0.7544
  106MOL0     O13868  -0.401   1.289  10.630 -0.3056  0.2848  0.9192
  106MOL0     C13869  -0.518   1.203  10.653  0.2076 -0.4639  0.2161
  106MOL0     C13870  -0.648   1.276  10.607  0.5878  0.2038 -0.2983
  106MOL0     C13871  -0.787   1.206  10.615  0.2746  1.1899 -0.6606
  106MOL0     C13872  -0.898   1.304  10.635 -0.2183 -0.8883  0.1950
  106MOL0     C13873  -1.030   1.250  10.575 -0.2998  0.4407  0.3442
  106MOL0     C13874  -1.155   1.328  10.615  0.9614  0.0085  0.1178
  106MOL0     C13875  -1.165   1.453  10.531 -0.4612  0.0022 -0.1214
  106MOL0     C13876  -1.203   1.428  10.379  0.2106  0.6275  0.3859
  106MOL0     N13877  -1.345   1.403  10.365 -0.3472  0.8910 -0.3645
  106MOL0     C13878  -1.418   1.283  10.357 -0.2244  0.0946 -0.3930
  106MOL0     C13879  -1.547   1.311  10.359  0.4758 -0.3654 -0.7595
  106MOL0     C13880  -1.653   1.202  10.338  0.2417  0.1264 -0.3919
  106MOL0     C13881  -1.753   1.190  10.452  0.5187 -0.2032  0.0246
  106MOL0     C13882  -1.841   1.313  10.442  0.2802 -0.0437 -0.1542
  106MOL0     C13883  -1.957   1.297  10.541  0.1355  0.2073  0.2210
  106MOL0     O13884  -2.043   1.202  10.473  0.4743 -0.0624  0.6298
  106MOL0     C13885  -2.177   1.191  10.513 -0.2293 -0.4219  0.5781
  106MOL0     C13886  -2.231   1.224  10.642 -0.0229  0.0525 -0.3864
  106MOL0     C13887  -2.371   1.215  10.666  0.4808 -0.0118  1.0821
  106MOL0     C13888  -2.454   1.182  10.557 -0.2277 -0.0732 -0.1697
  106MOL0     C13889  -2.599   1.180  10.568 -0.4602  0.5251  0.2477
  106MOL0     O13890  -2.677   1.156  10.456  0.0179 -0.2508 -0.4781
  106MOL0     C13891  -2.811   1.182  10.470 -0.4573 -0.4842  0.1556
  106MOL0     C13892  -2.868   1.294  10.410  0.1848  0.4400  0.1188
  106MOL0     C13893  -3.014   1.304  10.419 -0.2048  0.6394  0.1713
  106MOL0     C13894  -3.089   1.208  10.488  0.3093 -0.3566 -0.8834
  106MOL0     O13895  -3.227   1.212  10.483 -0.3239 -0.3686 -0.2022
  106MOL0     C13896  -3.298   1.100  10.427 -0.5154  0.0164 -0.0368
  106MOL0     C13897  -3.443   1.131  10.438  0.0852  0.0940  0.2382
  106MOL0     C13898  -3.531   1.013  10.378  0.0733  0.2937  0.2022
  106MOL0     C13899  -3.679   1.041  10.395  0.0952 -0.4997  0.4459
  106MOL0     C13900  -3.764   0.938  10.333  1.2816 -0.1188 -0.3636
  106MOL0     C13901  -3.915   0.981  10.367  0.1097  0.4450 -0.1944
  106MOL0     C13902  -4.014   0.883  10.307  0.5122 -0.5458  0.0378
  106MOL0     C13903  -4.044   0.759  10.388  0.1821 -0.6648 -0.1966
  106MOL0    Cl13904  -4.154   0.635  10.297  0.4072  0.5760  0.0365
  106MOL0     C13905  -3.021   1.112  10.566 -0.3276 -1.2076 -0.0967
  106MOL0     C13906  -2.886   1.095  10.549  0.3979 -0.1577 -0.0226
  106MOL0     O13907  -2.647   1.188  10.678  0.3487 -0.0968 -0.4520
  106MOL0     C13908  -2.401   1.146  10.431  0.4567  0.3365  0.0319
  106MOL0     C13909  -2.263   1.154  10.411  0.0319 -0.3475  0.0871
  106MOL0     N13910  -1.562   1.450  10.358  0.3599 -0.1248  0.1474
  106MOL0     N13911  -1.444   1.498  10.365  0.3143 -0.3082 -0.4470
  106MOL0     C13912  -0.166   1.304  10.598 -0.0638 -0.2183  0.6261
  106MOL0     C13913  -0.036   1.245  10.596 -0.6652 -0.0075  0.2079
  106MOL0     C13914   0.344   1.024  10.643  0.2494  0.5865  0.7247
  106MOL0     C13915   0.350   0.908  10.561  0.2375  0.6351  0.0158
  106MOL0     C13916   0.479   0.847  10.536 -0.1031  1.1914  0.0930
  106MOL0     C13917   0.598   0.896  10.587 -0.1204 -0.2953  0.5929
  106MOL0     O13918   0.724   0.845  10.567 -0.0071 -0.2756  0.4023
  106MOL0     C13919   0.753   0.761  10.461 -0.5816  0.5537  0.5251
  106MOL0     C13920   0.714   0.815  10.323  0.1163 -0.3721  0.2542
  106MOL0     C13921   0.800   0.943  10.274 -0.1417 -0.2095 -0.2758
  106MOL0     C13922   0.771   0.957  10.124  0.5366  0.5138 -0.0195
  106MOL0     C13923   0.827   0.868  10.027 -0.4820 -0.0997  0.6113
  106MOL0     C13924   0.869   0.788   9.951  0.2541  0.2240 -0.1829
  106MOL0     C13925   0.582   1.013  10.662 -0.9316  0.2874 -0.7221
  106MOL0     C13926   0.466   1.082  10.687 -0.1741  0.1482 -0.1469
  106MOL0     H13927  -0.130   0.928  10.687  0.2590 -0.2006 -0.6147
  106MOL0     H13928  -0.338   1.039  10.713 -0.1484 -0.5385 -0.2344
  106MOL0     H13929  -0.533   1.177  10.758 -0.6560  0.2869  0.2931
  106MOL0     H13930  -0.510   1.110  10.597 -2.4833 -0.6639  0.0386
  106MOL0     H13931  -0.640   1.309  10.503  3.6049  0.2548 -0.1362
  106MOL0     H13932  -0.657   1.360  10.676  1.7804  0.2019 -0.1334
  106MOL0     H13933  -0.794   1.135  10.698  0.4982  3.4833  1.4470
  106MOL0     H13934  -0.809   1.155  10.521 -1.5420  0.2581  0.2206
  106MOL0     H13935  -0.884   1.340  10.738  0.4245  0.3993 -0.3280
  106MOL0     H13936  -0.871   1.385  10.567  0.4625 -1.3681 -0.1200
  106MOL0     H13937  -1.041   1.145  10.606  0.7717 -0.7994 -3.0106
  106MOL0     H13938  -1.025   1.257  10.466 -0.9142  0.6057  0.3249
  106MOL0     H13939  -1.136   1.370  10.714  2.1077 -0.4246  0.0991
  106MOL0     H13940  -1.249   1.272  10.621  0.6088  0.7016  1.6236
  106MOL0     H13941  -1.237   1.519  10.582  1.4531  0.9621  1.4543
  106MOL0     H13942  -1.068   1.502  10.531  0.0622 -0.9927 -1.3076
  106MOL0     H13943  -1.148   1.351  10.323 -0.6649  0.8830 -0.8746
  106MOL0     H13944  -1.168   1.521  10.333 -0.8732  0.2811 -1.2351
  106MOL0     H13945  -1.387   1.180  10.341 -1.3240 -0.8835  2.8754
  106MOL0     H13946  -1.600   1.107  10.350  0.1066  0.2143  1.0198
  106MOL0     H13947  -1.702   1.208  10.240 -3.4794 -1.0488  1.1949
  106MOL0     H13948  -1.705   1.190  10.550 -0.3128  0.4513  0.4389
  106MOL0     H13949  -1.811   1.099  10.429 -1.4276  1.3507 -1.6695
  106MOL0     H13950  -1.776   1.386  10.491  0.9844  0.1770 -1.3691
  106MOL0     H13951  -1.862   1.351  10.342  2.3920 -0.5841 -0.8607
  106MOL0     H13952  -1.988   1.401  10.556 -1.3307 -0.1008 -0.4518
  106MOL0     H13953  -1.920   1.256  10.635 -0.9125 -0.5792  0.3199
  106MOL0     H13954  -2.154   1.247  10.716  0.8621 -3.6130  0.0194
  106MOL0     H13955  -2.415   1.233  10.764 -3.3382  0.9052 -0.6198
  106MOL0     H13956  -2.814   1.372  10.356 -1.9109  1.5847 -0.4920
  106MOL0     H13957  -3.070   1.384  10.370 -1.2781  0.3785  0.9356
  106MOL0     H13958  -3.268   1.009  10.480 -0.2997  0.0993 -0.0197
  106MOL0     H13959  -3.273   1.090  10.320  2.6936  1.2771  0.4920
  106MOL0     H13960  -3.473   1.225  10.390  0.6329  0.0590 -0.1723
  106MOL0     H13961  -3.470   1.133  10.545 -1.0090  0.0169 -0.0256
  106MOL0     H13962  -3.497   0.915  10.413  0.7312 -0.1491 -1.5564
  106MOL0     H13963  -3.526   1.006  10.269  0.4392 -1.0620  0.2826
  106MOL0     H13964  -3.702   1.031  10.502 -3.2686 -0.8450 -0.2084
  106MOL0     H13965  -3.709   1.143  10.367 -0.9828 -1.2043 -1.0530
  106MOL0     H13966  -3.743   0.837  10.368 -0.0403 -0.2843  0.0215
  106MOL0     H13967  -3.753   0.947  10.224  1.0168 -1.9095 -0.5535
  106MOL0     H13968  -3.929   1.081  10.327 -1.7486  1.3834  2.5099
  106MOL0     H13969  -3.932   0.982  10.475 -0.7295  1.2294 -0.3215
  106MOL0     H13970  -4.114   0.929  10.306 -0.2828 -2.1820  0.4188
  106MOL0     H13971  -3.971   0.858  10.210  2.5404  0.2322  0.7007
  106MOL0     H13972  -4.091   0.784  10.484  0.2216 -1.8447  0.1472
  106MOL0     H13973  -3.942   0.720  10.398  1.3113  1.9021 -1.0671
  106MOL0     H13974  -3.073   1.055  10.642 -0.0334 -1.6778 -0.2473
  106MOL0     H13975  -2.847   1.021  10.619 -2.0163 -0.3858  1.1733
  106MOL0     H13976  -2.469   1.093  10.365 -0.0619  0.3720  0.5268
  106MOL0     H13977  -2.215   1.143  10.314  1.0078 -1.0392  0.6417
  106MOL0     H13978  -0.180   1.410  10.584 -0.2035 -0.2831  0.2704
  106MOL0     H13979   0.056   1.295  10.568  0.1956 -1.9662 -0.6405
  106MOL0     H13980   0.259   0.858  10.529 -0.8266 -0.7452  4.4637
  106MOL0     H13981   0.476   0.754  10.481 -0.5268  0.7018  0.9193
  106MOL0     H13982   0.706   0.662  10.465  1.5997 -0.8109 -2.6135
  106MOL0     H13983   0.861   0.750  10.445 -1.0744 -1.8351 -1.9324
  106MOL0     H13984   0.729   0.732  10.253  2.2219  1.5828 -1.8085
  106MOL0     H13985   0.607   0.835  10.321  0.4176  1.3710 -1.2533
  106MOL0     H13986   0.907   0.930  10.290  0.3341  2.4899 -0.7601
  106MOL0     H13987   0.766   1.031  10.329  1.4747 -1.4428  2.9522
  106MOL0     H13988   0.665   0.930  10.113  0.7319 -0.5815  0.6755
  106MOL0     H13989   0.791   1.058  10.087 -2.4605  2.2184  2.5224
  106MOL0     H13990   0.897   0.730   9.865  1.2073 -0.8884  0.8522
  106MOL0     H13991   0.673   1.051  10.708 -0.5303 -2.0825  0.5765
  106MOL0     H13992   0.477   1.170  10.751 -2.2343  0.1599  0.2558
  107MOL0     O13993   9.085   4.923   3.239  0.0573 -0.4834 -0.0753
  107MOL0     C13994   9.205   4.941   3.216  0.0248  0.2854 -0.2778
  107MOL0     O13995   9.291   5.003   3.299  0.0461 -0.1201  0.0724
  107MOL0     C13996   9.247   5.084   3.403 -0.2724 -0.3461 -0.4514
  107MOL0     C13997   9.326   5.093   3.509 -1.0201 -0.2600 -0.5157
  107MOL0     C13998   9.295   5.164   3.618  0.5201  0.7308  0.4731
  107MOL0     C13999   9.166   5.217   3.634 -0.6929 -0.0944 -0.2598
  107MOL0     O14000   9.136   5.280   3.757 -0.3497  0.0576  0.3103
  107MOL0     C14001   9.003   5.330   3.786 -0.3157  0.0306 -0.2562
  107MOL0     C14002   8.976   5.350   3.935  0.3457 -0.1165  0.5007
  107MOL0     C14003   8.827   5.347   3.966 -0.1013 -0.8563 -0.4186
  107MOL0     C14004   8.752   5.479   3.932  0.1146 -0.6311  0.1036
  107MOL0     C14005   8.610   5.473   3.989  1.0678  0.7292 -0.3169
  107MOL0     C14006   8.530   5.598   3.943  0.6102  0.1724  0.1725
  107MOL0     C14007   8.373   5.592   3.962 -0.4771  0.4996  0.1058
  107MOL0     C14008   8.305   5.669   3.859  0.6388 -0.9581  0.2505
  107MOL0     N14009   8.331   5.814   3.864 -0.2869  0.6992 -0.4952
  107MOL0     C14010   8.414   5.894   3.794 -0.9242 -0.1322 -0.0271
  107MOL0     C14011   8.384   6.019   3.834 -0.9808  0.2600 -0.6759
  107MOL0     C14012   8.423   6.151   3.784  0.5007  0.2269 -0.0002
  107MOL0     C14013   8.562   6.143   3.715  0.4514  0.0771 -0.6715
  107MOL0     C14014   8.589   6.273   3.651  0.1617 -1.1172  0.5991
  107MOL0     C14015   8.734   6.281   3.600 -0.4401 -0.2391  0.3090
  107MOL0     O14016   8.769   6.414   3.564  0.2969  0.8221 -0.0872
  107MOL0     C14017   8.896   6.444   3.523  0.2738  0.2155 -0.3445
  107MOL0     C14018   8.922   6.581   3.500  0.0875  0.2654  0.2696
  107MOL0     C14019   9.055   6.619   3.485 -0.5830 -0.7216  0.3900
  107MOL0     C14020   9.164   6.535   3.473 -0.0002  0.1228 -0.6322
  107MOL0     C14021   9.295   6.584   3.447 -0.1421 -0.2435 -0.6425
  107MOL0     O14022   9.397   6.496   3.459  0.2642 -0.5144 -0.3185
  107MOL0     C14023   9.528   6.544   3.473  0.2569 -0.8285 -0.4556
  107MOL0     C14024   9.577   6.659   3.545 -0.4192  0.3518 -0.1920
  107MOL0     C14025   9.719   6.681   3.554  0.6025 -0.0019 -0.1159
  107MOL0     C14026   9.811   6.595   3.494 -0.9114  0.2941  0.0852
  107MOL0     O14027   9.945   6.624   3.514 -0.0398  0.1908  0.1766
  107MOL0     C14028  10.014   6.633   3.392  0.6251  0.0545 -0.6165
  107MOL0     C14029  10.157   6.669   3.422 -0.0505  0.5545  0.6536
  107MOL0     C14030  10.249   6.658   3.296  0.0268 -0.0507 -0.4966
  107MOL0     C14031  10.375   6.747   3.293  0.7089  0.6857 -0.2288
  107MOL0     C14032  10.425   6.779   3.154  0.2603  0.0363  0.1329
  107MOL0     C14033  10.476   6.646   3.089 -0.3072  0.1621  0.3596
  107MOL0     C14034  10.503   6.669   2.941 -1.2354  0.5368 -0.5902
  107MOL0     C14035  10.582   6.561   2.864  0.6734  0.0077 -0.2872
  107MOL0    Cl14036  10.469   6.434   2.810  0.3051  0.1507  0.3984
  107MOL0     C14037   9.763   6.494   3.412  0.2434 -0.4276  0.3538
  107MOL0     C14038   9.621   6.470   3.406  0.3556 -0.6164  0.1107
  107MOL0     O14039   9.305   6.704   3.431  0.6991  0.5526 -0.3881
  107MOL0     C14040   9.131   6.394   3.483 -0.1808  0.1245  0.2929
  107MOL0     C14041   9.005   6.346   3.524  0.5397 -0.1143 -0.0511
  107MOL0     N14042   8.288   6.018   3.928 -0.2345  0.2297 -0.3017
  107MOL0     N14043   8.245   5.890   3.942  0.1649 -0.3872 -0.1799
  107MOL0     C14044   9.095   5.227   3.516  0.1262 -0.4464 -0.4130
  107MOL0     C14045   9.131   5.157   3.400 -0.3811 -0.5400 -0.2855
  107MOL0     C14046   9.263   4.885   3.089  0.0577  0.2188 -0.5623
  107MOL0     C14047   9.401   4.863   3.082 -0.7425 -0.1168  0.1785
  107MOL0     C14048   9.457   4.817   2.967  1.2022  0.2598  0.2345
  107MOL0     C14049   9.370   4.786   2.858  0.2081  0.9808  0.1988
  107MOL0     O14050   9.434   4.745   2.739 -0.7187 -0.2016  0.1796
  107MOL0     C14051   9.358   4.660   2.651  0.4375 -0.1586 -0.8454
  107MOL0     C14052   9.434   4.617   2.523  0.6044 -0.1237 -0.9121
  107MOL0     C14053   9.555   4.542   2.571 -0.0801 -0.0208  0.2148
  107MOL0     C14054   9.625   4.503   2.435 -0.1996  0.2398  0.0085
  107MOL0     C14055   9.750   4.441   2.479 -0.1092 -0.7821 -1.1981
  107MOL0     C14056   9.851   4.387   2.518 -0.2183  0.2374 -0.8700
  107MOL0     C14057   9.229   4.786   2.873 -0.5715  0.1052 -0.3905
  107MOL0     C14058   9.179   4.841   2.991  0.1010  0.2725  0.6765
  107MOL0     H14059   9.426   5.050   3.510  0.4253  2.8162  0.3224
  107MOL0     H14060   9.367   5.169   3.699 -1.4703  2.5173  2.2813
  107MOL0     H14061   8.927   5.257   3.756 -0.5232 -0.1514  0.6901
  107MOL0     H14062   8.988   5.418   3.723  2.5326  1.3114  0.7070
  107MOL0     H14063   9.013   5.452   3.948  2.1900 -0.5706 -0.7676
  107MOL0     H14064   9.031   5.279   3.997 -1.1593 -0.2543  1.7343
  107MOL0     H14065   8.817   5.326   4.072  0.0908  0.8391 -0.0365
  107MOL0     H14066   8.776   5.269   3.910 -2.4227  0.0001  0.3774
  107MOL0     H14067   8.809   5.565   3.970 -1.5224  0.5936 -0.1034
  107MOL0     H14068   8.756   5.496   3.824  3.8431  0.7672  0.3181
  107MOL0     H14069   8.611   5.465   4.098  0.2326  0.1973 -0.3420
  107MOL0     H14070   8.553   5.387   3.951 -1.4775  2.9717 -1.9076
  107MOL0     H14071   8.554   5.625   3.840  0.6020  0.2216  0.1834
  107MOL0     H14072   8.574   5.680   4.000  0.3983  1.1176 -0.9846
  107MOL0     H14073   8.342   5.488   3.948 -1.1026  1.0825 -4.0230
  107MOL0     H14074   8.354   5.631   4.063  1.7666  0.2156  0.6964
  107MOL0     H14075   8.197   5.651   3.865  0.3741 -1.0791 -2.9297
  107MOL0     H14076   8.343   5.636   3.762  0.9110 -0.6403  0.2480
  107MOL0     H14077   8.492   5.878   3.720  3.0268  2.1416  3.2750
  107MOL0     H14078   8.426   6.212   3.874  1.2438  1.5452 -0.8910
  107MOL0     H14079   8.346   6.198   3.723 -0.4403  2.3019  2.5957
  107MOL0     H14080   8.575   6.069   3.636  0.6848  1.6122 -2.1088
  107MOL0     H14081   8.619   6.121   3.806 -2.7240 -0.5392  1.3213
  107MOL0     H14082   8.515   6.284   3.571  0.9468  1.2758  0.1311
  107MOL0     H14083   8.571   6.350   3.726 -2.4898 -1.2189  0.1586
  107MOL0     H14084   8.752   6.203   3.525  0.3732 -1.2419  1.5047
  107MOL0     H14085   8.805   6.243   3.674 -0.4302  0.5127  0.6976
  107MOL0     H14086   8.835   6.645   3.503  0.1218  0.3062  0.3691
  107MOL0     H14087   9.065   6.726   3.476 -0.2841 -0.8988 -2.4233
  107MOL0     H14088   9.509   6.734   3.586  0.6584  0.9063  0.6261
  107MOL0     H14089   9.743   6.766   3.617 -2.3033  1.7082 -1.0828
  107MOL0     H14090   9.963   6.710   3.334  2.5926  1.0190 -1.1176
  107MOL0     H14091  10.003   6.540   3.335 -1.7946 -1.5165  2.1525
  107MOL0     H14092  10.203   6.600   3.494 -1.5798  3.2677  4.5259
  107MOL0     H14093  10.167   6.768   3.467  0.3608  0.3313  1.0601
  107MOL0     H14094  10.192   6.695   3.211 -1.3677  3.0408  1.6405
  107MOL0     H14095  10.273   6.551   3.288 -0.9165 -0.2144 -1.3118
  107MOL0     H14096  10.343   6.836   3.348 -0.5658 -0.9087  1.7719
  107MOL0     H14097  10.453   6.699   3.353 -1.0084 -0.3929  1.2226
  107MOL0     H14098  10.511   6.847   3.161  1.3974 -1.4657  1.9545
  107MOL0     H14099  10.345   6.814   3.088  0.3360 -1.1991 -0.6430
  107MOL0     H14100  10.407   6.561   3.090  0.7796 -0.7740 -0.8971
  107MOL0     H14101  10.566   6.622   3.145  0.7012  0.3186 -1.1149
  107MOL0     H14102  10.404   6.678   2.895 -2.0386 -0.6481  0.8472
  107MOL0     H14103  10.546   6.770   2.941  2.4096 -0.7976  2.3381
  107MOL0     H14104  10.656   6.517   2.932 -0.7710  1.8441  2.6877
  107MOL0     H14105  10.633   6.609   2.780  1.1580  0.6500  0.3582
  107MOL0     H14106   9.816   6.417   3.357 -2.9134 -1.3807 -1.6208
  107MOL0     H14107   9.586   6.393   3.338 -0.4675 -0.7943  0.7225
  107MOL0     H14108   9.214   6.324   3.473 -0.4838 -0.2775  0.5351
  107MOL0     H14109   8.996   6.245   3.562 -0.9202 -0.4437 -1.1733
  107MOL0     H14110   9.006   5.288   3.505 -0.6945 -1.0993  1.8785
  107MOL0     H14111   9.083   5.171   3.303 -0.6606  1.6137  0.1128
  107MOL0     H14112   9.468   4.889   3.164  0.3495 -2.6177  0.1728
  107MOL0     H14113   9.565   4.808   2.965  1.1446 -0.5215 -1.3717
  107MOL0     H14114   9.264   4.705   2.618  0.3222  1.0007  0.9354
  107MOL0     H14115   9.330   4.571   2.707 -0.9170  0.4171 -0.5614
  107MOL0     H14116   9.355   4.565   2.468 -0.7327  0.0178  0.7925
  107MOL0     H14117   9.454   4.702   2.458 -1.6621  1.5269  0.3922
  107MOL0     H14118   9.531   4.446   2.618  1.7721 -0.5935  0.0587
  107MOL0     H14119   9.618   4.608   2.631 -2.6839 -0.0347  3.2614
  107MOL0     H14120   9.565   4.429   2.383 -0.9848 -0.0898  1.3338
  107MOL0     H14121   9.644   4.590   2.371 -0.6618  0.1388 -0.2636
  107MOL0     H14122   9.944   4.350   2.554 -0.0657  1.8993  0.5742
  107MOL0     H14123   9.166   4.754   2.791  0.6439 -3.2370 -0.1796
  107MOL0     H14124   9.071   4.837   2.998  0.1495  0.1553  1.5373
  108MOL0     O14125   5.750   1.677   3.934  0.5880  0.9924  0.1290
  108MOL0     C14126   5.787   1.565   3.965 -0.2830 -0.0645  0.3187
  108MOL0     O14127   5.706   1.451   3.960  0.0786  0.0308  0.0619
  108MOL0     C14128   5.573   1.476   3.927 -0.1242  0.5691  0.7188
  108MOL0     C14129   5.548   1.531   3.800  0.3010 -0.9775 -0.4167
  108MOL0     C14130   5.415   1.540   3.751 -0.6056  0.2622 -0.6001
  108MOL0     C14131   5.310   1.501   3.837 -0.2983 -0.3720 -0.2973
  108MOL0     O14132   5.184   1.534   3.797  0.2791  0.1931  0.5751
  108MOL0     C14133   5.079   1.436   3.808  0.2824 -0.2935 -0.0489
  108MOL0     C14134   4.950   1.464   3.727  0.1598 -0.2764  0.6313
  108MOL0     C14135   4.815   1.455   3.809 -0.2369  0.2887  0.8402
  108MOL0     C14136   4.695   1.487   3.726 -0.5095 -0.0277  0.2897
  108MOL0     C14137   4.569   1.521   3.811  0.7895  0.4930  0.1251
  108MOL0     C14138   4.544   1.450   3.950  0.3161  0.6498 -0.5626
  108MOL0     C14139   4.402   1.482   4.010 -0.2864  0.3105 -0.7317
  108MOL0     C14140   4.297   1.401   3.934 -0.0058 -0.2850 -1.4690
  108MOL0     N14141   4.160   1.437   3.970  0.4108  0.0906  0.2541
  108MOL0     C14142   4.073   1.522   3.906  0.2044 -0.3431  0.5005
  108MOL0     C14143   3.960   1.511   3.973  1.0301  1.3655 -0.0497
  108MOL0     C14144   3.816   1.578   3.950  0.7005  0.0024  0.1622
  108MOL0     C14145   3.796   1.725   4.002 -0.4123 -0.1779 -0.2740
  108MOL0     C14146   3.644   1.761   4.042  0.0279 -1.0240  0.6490
  108MOL0     C14147   3.549   1.737   3.919  0.4300 -0.1738  0.6035
  108MOL0     O14148   3.410   1.748   3.950  0.4237  0.1961  0.4019
  108MOL0     C14149   3.355   1.647   4.035 -0.2623  0.3879 -0.2933
  108MOL0     C14150   3.421   1.531   4.072  0.9133  0.6956 -0.1966
  108MOL0     C14151   3.359   1.447   4.165 -0.0725 -0.0042 -0.0252
  108MOL0     C14152   3.239   1.474   4.225  0.4455  0.6118  0.1181
  108MOL0     C14153   3.189   1.392   4.339 -0.6397 -0.3948 -0.1948
  108MOL0     O14154   3.065   1.435   4.390  0.4606  0.1590  0.7777
  108MOL0     C14155   3.003   1.363   4.483 -0.4958  0.4600 -0.2566
  108MOL0     C14156   3.055   1.344   4.615  0.2067 -0.1964 -0.0269
  108MOL0     C14157   2.989   1.259   4.706  0.5827 -0.1238  1.1850
  108MOL0     C14158   2.867   1.206   4.669  0.2115  0.3299  0.3446
  108MOL0     O14159   2.810   1.123   4.765 -0.7474 -0.5512 -0.5841
  108MOL0     C14160   2.675   1.081   4.747  0.0147  0.4017 -0.4485
  108MOL0     C14161   2.618   0.996   4.857 -0.2425 -0.2912 -0.9689
  108MOL0     C14162   2.484   0.939   4.820  1.0435  1.5581  0.1021
  108MOL0     C14163   2.415   0.844   4.927 -0.2774 -0.4360 -0.0689
  108MOL0     C14164   2.424   0.899   5.074 -1.0250  0.3894  0.1700
  108MOL0     C14165   2.554   0.856   5.153 -0.3102 -0.0964 -0.0913
  108MOL0     C14166   2.551   0.912   5.297  0.2642 -0.6867 -0.3424
  108MOL0     C14167   2.459   0.841   5.404  1.0688  0.4422 -0.0801
  108MOL0    Cl14168   2.490   0.929   5.551 -0.1325 -0.0298  0.0373
  108MOL0     C14169   2.819   1.221   4.542 -0.1394 -0.0330 -0.2154
  108MOL0     C14170   2.880   1.305   4.453 -0.1407 -0.1452 -0.3209
  108MOL0     O14171   3.255   1.296   4.375  0.4143  0.4278  0.0766
  108MOL0     C14172   3.171   1.590   4.186  0.0061 -0.7628 -0.0309
  108MOL0     C14173   3.227   1.680   4.087  0.2041  0.6763  0.0649
  108MOL0     N14174   3.984   1.429   4.085  0.3055 -0.3922  0.2909
  108MOL0     N14175   4.106   1.388   4.084 -0.0264 -0.2634 -0.8300
  108MOL0     C14176   5.345   1.444   3.967  0.7008 -0.6387  0.8359
  108MOL0     C14177   5.474   1.435   4.013 -1.0774 -0.5835 -1.4098
  108MOL0     C14178   5.934   1.550   3.986 -0.1634 -0.4451  1.1266
  108MOL0     C14179   5.989   1.423   3.964 -0.2215 -0.7848  1.1526
  108MOL0     C14180   6.128   1.408   3.973 -0.6568 -0.9174 -0.4794
  108MOL0     C14181   6.210   1.519   4.005 -0.2382 -0.0709  0.5488
  108MOL0     O14182   6.348   1.488   4.007 -0.8466  0.6140 -0.3475
  108MOL0     C14183   6.432   1.597   4.055  0.5837 -0.5168  0.1853
  108MOL0     C14184   6.581   1.551   4.065  1.2512 -0.1622 -0.9012
  108MOL0     C14185   6.589   1.431   4.156  0.8762  0.6449  0.2834
  108MOL0     C14186   6.729   1.416   4.215 -0.3339 -0.7174 -0.6128
  108MOL0     C14187   6.828   1.374   4.118 -0.1233 -0.2449  0.3777
  108MOL0     C14188   6.908   1.340   4.035 -0.8975  0.5648  0.0256
  108MOL0     C14189   6.156   1.648   4.024  0.4498  0.1514  0.0385
  108MOL0     C14190   6.021   1.657   4.022 -0.1070 -0.8424 -0.4862
  108MOL0     H14191   5.623   1.575   3.735 -0.0032  3.1253  1.6837
  108MOL0     H14192   5.396   1.576   3.651 -0.9164 -0.8620 -0.9585
  108MOL0     H14193   5.048   1.435   3.912  1.4790 -2.3003  0.3448
  108MOL0     H14194   5.112   1.337   3.774  0.4648 -0.1583 -0.2728
  108MOL0     H14195   4.936   1.390   3.647  2.8447 -0.0318 -0.1734
  108MOL0     H14196   4.960   1.566   3.689 -0.5597  0.6415  2.7767
  108MOL0     H14197   4.829   1.541   3.875 -2.4467  4.1681 -3.1383
  108MOL0     H14198   4.802   1.357   3.854 -0.2518 -0.1631 -0.1129
  108MOL0     H14199   4.715   1.579   3.671 -2.3105 -0.9616 -2.0736
  108MOL0     H14200   4.685   1.403   3.656  1.1508  0.7677 -0.9594
  108MOL0     H14201   4.482   1.501   3.748  2.0309  0.6480 -1.7188
  108MOL0     H14202   4.559   1.630   3.817 -1.8402  0.2670  1.4425
  108MOL0     H14203   4.616   1.502   4.013  1.8020 -0.7941 -1.0053
  108MOL0     H14204   4.560   1.343   3.939 -0.4499  0.4815 -0.1147
  108MOL0     H14205   4.406   1.469   4.119  0.0322 -1.8327 -0.9583
  108MOL0     H14206   4.374   1.587   3.994  2.0461  0.4970 -4.8089
  108MOL0     H14207   4.319   1.303   3.977  1.4457  0.2266 -0.9622
  108MOL0     H14208   4.316   1.409   3.827  0.9154  1.9896 -1.1961
  108MOL0     H14209   4.080   1.593   3.823  0.3585  0.1971  0.9686
  108MOL0     H14210   3.744   1.508   3.994 -0.2063 -0.1745 -1.4984
  108MOL0     H14211   3.796   1.584   3.842  1.5791  0.7755  0.0306
  108MOL0     H14212   3.833   1.803   3.934 -1.7533  1.7085  1.0416
  108MOL0     H14213   3.851   1.725   4.096  1.2710  3.3717 -1.0781
  108MOL0     H14214   3.601   1.716   4.132 -1.5451 -0.8253  0.0328
  108MOL0     H14215   3.651   1.868   4.061  1.6321 -1.0422  0.3068
  108MOL0     H14216   3.565   1.638   3.876 -1.5165  0.5084 -1.9006
  108MOL0     H14217   3.570   1.808   3.838  0.2848  0.0994  0.8053
  108MOL0     H14218   3.516   1.503   4.028  1.2605 -0.0493  0.9915
  108MOL0     H14219   3.397   1.348   4.189 -4.6997 -2.1380 -0.4392
  108MOL0     H14220   3.145   1.396   4.644  0.3354 -0.1341 -0.5290
  108MOL0     H14221   3.024   1.248   4.808  0.4734 -1.6932  1.0743
  108MOL0     H14222   2.661   1.043   4.645 -1.9783  0.8968 -0.4126
  108MOL0     H14223   2.617   1.174   4.754  1.4225  1.3592 -1.0660
  108MOL0     H14224   2.609   1.060   4.945  1.9441 -0.0170 -0.8849
  108MOL0     H14225   2.693   0.919   4.875 -2.4046 -2.7012 -1.6922
  108MOL0     H14226   2.486   0.883   4.725 -5.0753  0.4316  0.1981
  108MOL0     H14227   2.423   1.028   4.802  0.5160  1.3667  0.8703
  108MOL0     H14228   2.311   0.828   4.899 -0.4251  0.8656 -0.3083
  108MOL0     H14229   2.465   0.747   4.917  0.9105  0.2692 -1.5416
  108MOL0     H14230   2.335   0.868   5.129 -0.3890 -0.2249  0.8730
  108MOL0     H14231   2.418   1.008   5.065  0.0129  0.4675  0.2949
  108MOL0     H14232   2.641   0.899   5.101  0.6862 -0.3302  1.3331
  108MOL0     H14233   2.562   0.747   5.152 -1.6022 -0.2133  0.6795
  108MOL0     H14234   2.654   0.907   5.332  0.6287  2.4797 -0.6983
  108MOL0     H14235   2.527   1.018   5.303  1.9873 -0.3189  0.6546
  108MOL0     H14236   2.488   0.736   5.411 -3.1219 -0.7909  3.1470
  108MOL0     H14237   2.350   0.846   5.394  0.9647  1.2354  1.2282
  108MOL0     H14238   2.726   1.177   4.506  0.1673  0.5056 -1.7621
  108MOL0     H14239   2.824   1.312   4.360 -2.8940 -1.4203  1.1019
  108MOL0     H14240   3.073   1.617   4.222  1.7837  3.0421  2.6506
  108MOL0     H14241   3.179   1.774   4.062  0.3355  0.8709  0.5245
  108MOL0     H14242   5.266   1.419   4.037  0.0381 -0.7034  0.0786
  108MOL0     H14243   5.496   1.383   4.106 -0.5028 -1.8895 -2.2449
  108MOL0     H14244   5.927   1.337   3.941  0.1982 -0.4781 -1.4758
  108MOL0     H14245   6.179   1.312   3.964  0.8879 -0.3633  1.5321
  108MOL0     H14246   6.394   1.639   4.148 -0.5329  1.1918 -0.9991
  108MOL0     H14247   6.431   1.673   3.977 -1.7422  1.5976  2.1337
  108MOL0     H14248   6.615   1.537   3.962 -0.5849  2.8190 -2.0527
  108MOL0     H14249   6.637   1.639   4.098 -1.1202  1.6090 -1.2782
  108MOL0     H14250   6.557   1.335   4.112 -0.8151  0.9409  0.8183
  108MOL0     H14251   6.516   1.453   4.234  0.4338 -0.3166  0.1630
  108MOL0     H14252   6.759   1.505   4.271  2.7647 -2.4266  0.6700
  108MOL0     H14253   6.719   1.335   4.288 -0.4880 -0.8911 -0.8226
  108MOL0     H14254   6.978   1.318   3.957  0.0899  0.7889  0.8186
  108MOL0     H14255   6.223   1.731   4.039  0.5449  0.0335  0.2816
  108MOL0     H14256   5.983   1.758   4.017  1.1197 -0.4176 -2.2481
  109MOL0     O14257   3.347   6.724   8.316  0.1198  0.3140  0.6475
  109MOL0     C14258   3.379   6.800   8.226 -0.4522  0.3253 -0.4863
  109MOL0     O14259   3.312   6.811   8.102  0.2320 -0.0195  0.2197
  109MOL0     C14260   3.189   6.753   8.097 -0.0199  0.1597  0.6723
  109MOL0     C14261   3.159   6.641   8.023 -0.1673 -0.7726  0.6275
  109MOL0     C14262   3.043   6.578   8.024 -0.3137  0.4768  0.5112
  109MOL0     C14263   2.940   6.625   8.105  0.3682 -0.1195 -0.2432
  109MOL0     O14264   2.812   6.571   8.109  0.5886  0.1543  0.0554
  109MOL0     C14265   2.802   6.423   8.089  0.0217 -0.3542  0.2395
  109MOL0     C14266   2.749   6.404   7.950  0.4837 -0.7564  0.7070
  109MOL0     C14267   2.596   6.436   7.959 -0.0329 -0.2116 -0.0052
  109MOL0     C14268   2.532   6.420   7.817  0.6209  0.2447 -0.3196
  109MOL0     C14269   2.370   6.439   7.837  0.4844 -0.2006  0.4135
  109MOL0     C14270   2.303   6.323   7.898  0.0947  0.0641 -0.8406
  109MOL0     C14271   2.150   6.349   7.911  0.1253 -0.0885 -0.6634
  109MOL0     C14272   2.095   6.271   8.039  0.9733 -0.3039 -0.4063
  109MOL0     N14273   1.944   6.247   8.015 -0.0049 -0.1977 -0.0434
  109MOL0     C14274   1.887   6.134   7.964 -0.0386  0.0054 -0.8870
  109MOL0     C14275   1.752   6.144   7.975  0.1262  0.0233  0.1460
  109MOL0     C14276   1.654   6.044   7.923 -0.3761  0.2546  0.1724
  109MOL0     C14277   1.543   6.110   7.835 -1.4014 -0.1189  0.2859
  109MOL0     C14278   1.462   6.221   7.897  0.1238  1.1940 -0.0764
  109MOL0     C14279   1.334   6.250   7.819 -0.1271 -0.4534 -0.3612
  109MOL0     O14280   1.252   6.340   7.905 -0.2807 -0.0107 -0.0933
  109MOL0     C14281   1.123   6.355   7.868 -0.1534 -0.1517 -0.2143
  109MOL0     C14282   1.036   6.407   7.968 -0.1070  0.8910 -0.2937
  109MOL0     C14283   0.897   6.403   7.950 -0.2691 -0.3339 -0.6330
  109MOL0     C14284   0.841   6.346   7.842  0.2329  0.9955  0.6639
  109MOL0     C14285   0.690   6.342   7.831 -0.0209  0.4295  0.1884
  109MOL0     O14286   0.619   6.362   7.939 -0.2150 -0.7321 -0.2180
  109MOL0     C14287   0.485   6.344   7.925  0.7733  0.5152 -0.6719
  109MOL0     C14288   0.402   6.438   7.857  0.1134 -0.0426 -0.1031
  109MOL0     C14289   0.264   6.411   7.830  0.1245  0.6194 -0.0762
  109MOL0     C14290   0.202   6.297   7.891  0.2691 -0.1651 -0.4639
  109MOL0     O14291   0.064   6.275   7.878  0.0141  0.6744  0.6021
  109MOL0     C14292  -0.018   6.389   7.898 -0.0514  0.1371  0.1877
  109MOL0     C14293  -0.162   6.346   7.874  0.2161  0.5144  0.1655
  109MOL0     C14294  -0.200   6.334   7.731  0.6840  0.6145  0.2995
  109MOL0     C14295  -0.346   6.293   7.715  0.4015 -0.4104 -0.1589
  109MOL0     C14296  -0.397   6.275   7.566 -0.1178  0.2537 -0.0412
  109MOL0     C14297  -0.373   6.387   7.464  0.3412  0.0738  0.0561
  109MOL0     C14298  -0.508   6.436   7.413  0.1773  0.1169  0.6010
  109MOL0     C14299  -0.484   6.556   7.324  0.0648 -0.1885 -0.1255
  109MOL0    Cl14300  -0.339   6.545   7.212 -0.1108  0.2492  0.7011
  109MOL0     C14301   0.283   6.211   7.974  0.2689  0.0135  0.2343
  109MOL0     C14302   0.421   6.237   7.993 -0.3855  0.5074  0.0430
  109MOL0     O14303   0.651   6.312   7.719 -0.0869 -0.0504 -0.0238
  109MOL0     C14304   0.925   6.289   7.740 -0.4609  0.1299 -0.3974
  109MOL0     C14305   1.068   6.288   7.759  0.5797  0.3690  0.3096
  109MOL0     N14306   1.732   6.273   8.032 -0.2276 -0.1667 -0.3658
  109MOL0     N14307   1.845   6.331   8.060 -0.7221 -0.3609  0.0443
  109MOL0     C14308   2.964   6.746   8.178  0.3030 -0.1367  0.4142
  109MOL0     C14309   3.086   6.810   8.168  0.3801  0.2659 -0.2093
  109MOL0     C14310   3.470   6.907   8.262  0.2701  0.0245 -0.5874
  109MOL0     C14311   3.488   6.942   8.400  1.0215  0.3291  0.3860
  109MOL0     C14312   3.575   7.050   8.424  0.5412 -0.7913 -0.2439
  109MOL0     C14313   3.633   7.129   8.319  0.2508 -0.5769  0.4075
  109MOL0     O14314   3.703   7.249   8.341  0.1760  0.4122  0.2576
  109MOL0     C14315   3.677   7.329   8.460 -0.7014  0.1814 -0.4921
  109MOL0     C14316   3.736   7.472   8.458  0.3039 -0.2983 -0.7191
  109MOL0     C14317   3.773   7.539   8.593  0.3469 -0.2997 -0.5133
  109MOL0     C14318   3.919   7.514   8.630  0.2006 -0.3674  1.0411
  109MOL0     C14319   3.936   7.567   8.763  0.1476 -0.2938 -0.3730
  109MOL0     C14320   3.942   7.619   8.872 -0.0835 -0.0214 -0.3488
  109MOL0     C14321   3.627   7.082   8.188  0.0369  0.1819 -0.1211
  109MOL0     C14322   3.543   6.974   8.166 -0.0709 -0.1110 -0.1717
  109MOL0     H14323   3.240   6.605   7.960  0.1014  0.2751  0.3549
  109MOL0     H14324   3.038   6.495   7.954  2.0911  0.6776  0.0423
  109MOL0     H14325   2.738   6.383   8.168  0.1528 -0.0711  0.4889
  109MOL0     H14326   2.894   6.364   8.093  0.8409  0.6594 -1.9381
  109MOL0     H14327   2.788   6.313   7.903  2.1743 -0.4379  1.4412
  109MOL0     H14328   2.779   6.491   7.892 -1.1342 -2.0803 -2.3601
  109MOL0     H14329   2.582   6.538   7.995 -2.2683  0.5022 -2.5405
  109MOL0     H14330   2.548   6.371   8.033  2.0017 -1.2185  0.5011
  109MOL0     H14331   2.576   6.486   7.741  2.2660  0.5821  0.8703
  109MOL0     H14332   2.550   6.320   7.776  2.0989 -0.7405  2.4447
  109MOL0     H14333   2.340   6.452   7.732  0.4436  0.6330  0.5200
  109MOL0     H14334   2.342   6.528   7.894 -3.3271 -0.6994 -0.3990
  109MOL0     H14335   2.345   6.293   7.995 -0.3943  0.7348 -0.4173
  109MOL0     H14336   2.311   6.233   7.836 -2.4428 -0.3579 -0.7008
  109MOL0     H14337   2.126   6.453   7.936 -0.2246 -0.4273  0.4634
  109MOL0     H14338   2.098   6.318   7.820  0.0452 -1.7026 -0.0854
  109MOL0     H14339   2.119   6.330   8.127  0.2315 -4.1067  2.6370
  109MOL0     H14340   2.133   6.170   8.058  0.0623 -0.7782 -0.9999
  109MOL0     H14341   1.954   6.056   7.929  2.3240  1.0661  0.9959
  109MOL0     H14342   1.625   5.990   8.013  1.2274  2.5617  2.2273
  109MOL0     H14343   1.711   5.974   7.861  1.0322  0.8889  0.6929
  109MOL0     H14344   1.467   6.034   7.814  1.0977 -2.4816 -0.8643
  109MOL0     H14345   1.580   6.132   7.735 -2.6754 -3.5032 -1.0916
  109MOL0     H14346   1.446   6.196   8.002  0.2853  0.9692 -0.1064
  109MOL0     H14347   1.514   6.317   7.902  0.5064  0.9353  1.2572
  109MOL0     H14348   1.282   6.157   7.793  2.2363 -1.1961 -3.0079
  109MOL0     H14349   1.356   6.308   7.728 -1.1697  0.5449  0.0094
  109MOL0     H14350   1.071   6.451   8.061 -0.9107  0.3259  0.2932
  109MOL0     H14351   0.836   6.451   8.026 -3.8870 -0.1712 -3.3330
  109MOL0     H14352   0.460   6.516   7.808  0.3227 -1.1218 -1.6481
  109MOL0     H14353   0.211   6.470   7.756 -1.3086  0.1173  0.5160
  109MOL0     H14354   0.003   6.473   7.832 -1.2685  1.5595  1.5195
  109MOL0     H14355  -0.002   6.429   7.999  1.9182  0.2058 -0.1140
  109MOL0     H14356  -0.227   6.422   7.918  1.2784  1.4366  0.1783
  109MOL0     H14357  -0.183   6.249   7.921  1.9939  0.1560  0.2673
  109MOL0     H14358  -0.152   6.246   7.688 -2.4897  0.0344 -2.4194
  109MOL0     H14359  -0.184   6.423   7.669 -4.4891  0.9323 -1.0298
  109MOL0     H14360  -0.366   6.197   7.763  0.9989  0.0426  1.0636
  109MOL0     H14361  -0.398   6.372   7.770 -0.5952 -0.6546 -0.7233
  109MOL0     H14362  -0.502   6.245   7.573 -0.8396  2.9357  5.4354
  109MOL0     H14363  -0.342   6.188   7.527 -1.0773 -0.6548  0.5674
  109MOL0     H14364  -0.317   6.344   7.380 -2.3789  0.6158 -2.1480
  109MOL0     H14365  -0.319   6.462   7.522  0.4101 -0.1551  0.2926
  109MOL0     H14366  -0.551   6.371   7.335  0.2288  2.2586 -1.3244
  109MOL0     H14367  -0.571   6.467   7.496 -1.1034 -0.5944 -0.0549
  109MOL0     H14368  -0.467   6.648   7.382  1.0462 -0.1737 -0.4152
  109MOL0     H14369  -0.583   6.579   7.283 -1.4561 -1.0747  2.7949
  109MOL0     H14370   0.228   6.125   8.011 -1.1645  1.0642  0.6614
  109MOL0     H14371   0.477   6.169   8.056 -0.9127 -0.9619 -1.0459
  109MOL0     H14372   0.873   6.253   7.651 -1.8281  0.8303  0.0858
  109MOL0     H14373   1.128   6.238   7.684  1.9673  0.3799  1.3682
  109MOL0     H14374   2.886   6.791   8.238 -0.1285  1.0660 -0.9971
  109MOL0     H14375   3.097   6.896   8.234 -0.4669 -1.4778  2.3726
  109MOL0     H14376   3.436   6.880   8.472  2.0431 -1.4899 -0.3782
  109MOL0     H14377   3.587   7.076   8.528 -2.0069 -0.6420  0.0714
  109MOL0     H14378   3.731   7.275   8.538  0.6241 -2.7212 -3.2127
  109MOL0     H14379   3.572   7.331   8.490  0.6885 -0.4206  5.7984
  109MOL0     H14380   3.813   7.473   8.381 -1.9821 -1.1418 -3.1867
  109MOL0     H14381   3.650   7.525   8.416  0.0396 -1.3165 -1.4977
  109MOL0     H14382   3.715   7.497   8.675 -0.6755 -0.2892 -1.2097
  109MOL0     H14383   3.742   7.644   8.586  0.3799 -0.2444  0.0920
  109MOL0     H14384   3.954   7.411   8.617  0.8880  0.0815 -0.9281
  109MOL0     H14385   3.971   7.584   8.564  1.2741  1.1168  3.3688
  109MOL0     H14386   3.958   7.669   8.966  2.3487  1.0725 -1.2491
  109MOL0     H14387   3.685   7.129   8.109 -1.7203  2.4115 -0.1893
  109MOL0     H14388   3.528   6.952   8.060  0.7665 -0.2311 -0.2736
  110MOL0     O14389   6.970   4.926   4.847  0.6717 -0.7676  0.8003
  110MOL0     C14390   7.010   5.034   4.886 -0.2386 -0.3738 -0.0969
  110MOL0     O14391   6.932   5.132   4.951  0.4972  0.3975 -0.0330
  110MOL0     C14392   6.794   5.129   4.930 -1.0063 -0.2960 -0.1282
  110MOL0     C14393   6.719   5.031   5.001 -0.1708 -0.2884  0.2030
  110MOL0     C14394   6.575   5.038   5.001 -0.7089 -0.0390 -0.5722
  110MOL0     C14395   6.506   5.139   4.930 -0.6620  0.3107 -0.5138
  110MOL0     O14396   6.373   5.137   4.938  0.6588 -0.8061  0.1482
  110MOL0     C14397   6.302   5.193   4.821  0.1639  0.2038  0.2924
  110MOL0     C14398   6.161   5.155   4.825  0.7243  0.4917  0.8432
  110MOL0     C14399   6.077   5.164   4.694  0.9605  0.7465  0.0133
  110MOL0     C14400   6.027   5.310   4.669  0.2046 -0.1146  1.2942
  110MOL0     C14401   5.927   5.313   4.544  0.0858  0.1925  0.4921
  110MOL0     C14402   5.787   5.264   4.590 -0.2601  0.4692 -0.3753
  110MOL0     C14403   5.669   5.285   4.493 -0.2749  0.0017  0.1167
  110MOL0     C14404   5.631   5.428   4.470  0.3821 -0.2313 -0.5664
  110MOL0     N14405   5.629   5.502   4.596 -0.2611 -0.6101 -0.6590
  110MOL0     C14406   5.517   5.533   4.672 -0.1505 -0.9613 -0.5342
  110MOL0     C14407   5.541   5.652   4.740  0.0067 -0.2763  0.0198
  110MOL0     C14408   5.456   5.714   4.840 -0.8374 -0.2132 -0.0970
  110MOL0     C14409   5.314   5.699   4.792  0.5992  0.0814 -0.5327
  110MOL0     C14410   5.219   5.786   4.868  0.3881  0.0253  0.7572
  110MOL0     C14411   5.075   5.747   4.844  0.1208  0.7353 -0.1878
  110MOL0     O14412   5.039   5.799   4.720 -0.0982 -0.0124 -0.3041
  110MOL0     C14413   4.908   5.780   4.683  0.5790 -0.5810 -0.3922
  110MOL0     C14414   4.807   5.700   4.748  0.0926 -0.1711 -0.2890
  110MOL0     C14415   4.672   5.710   4.709 -0.5911  0.1247 -0.3147
  110MOL0     C14416   4.637   5.802   4.609 -0.1440  0.3036 -0.4094
  110MOL0     C14417   4.493   5.832   4.584 -0.6763  0.0457 -0.5552
  110MOL0     O14418   4.458   5.954   4.515 -0.1072  1.0442 -0.2957
  110MOL0     C14419   4.332   6.014   4.531  0.6289 -0.5110 -0.0742
  110MOL0     C14420   4.309   6.135   4.462  0.2372 -0.2073  0.1370
  110MOL0     C14421   4.187   6.205   4.469 -0.0631 -1.1052 -0.1210
  110MOL0     C14422   4.073   6.144   4.534  0.3477  0.3895 -0.4196
  110MOL0     O14423   3.952   6.208   4.555 -0.6855 -0.1821 -0.1160
  110MOL0     C14424   3.911   6.284   4.438 -0.4830 -0.1652 -0.4394
  110MOL0     C14425   3.757   6.296   4.446 -0.1151 -0.3869 -0.6617
  110MOL0     C14426   3.703   6.389   4.334  0.3342  0.1273  0.1996
  110MOL0     C14427   3.556   6.419   4.356 -0.3820 -0.5454  0.3868
  110MOL0     C14428   3.489   6.523   4.261 -0.3800  0.9123 -1.1709
  110MOL0     C14429   3.490   6.481   4.109  0.0235 -0.1155 -0.9492
  110MOL0     C14430   3.367   6.540   4.024 -0.2159  0.3766 -0.9024
  110MOL0     C14431   3.381   6.482   3.891  0.0570  0.5745 -0.1843
  110MOL0    Cl14432   3.252   6.542   3.781  0.0174  0.4919 -0.3400
  110MOL0     C14433   4.101   6.025   4.603 -0.1046 -1.1126 -0.4711
  110MOL0     C14434   4.223   5.965   4.599 -0.5224  0.3685 -0.4324
  110MOL0     O14435   4.411   5.749   4.629  0.6957  0.6297  0.2259
  110MOL0     C14436   4.747   5.870   4.535  0.1746  0.3772 -0.7825
  110MOL0     C14437   4.879   5.857   4.576  0.8337  0.0511  0.2929
  110MOL0     N14438   5.670   5.690   4.699  0.0668  0.5123 -0.6086
  110MOL0     N14439   5.709   5.608   4.613 -0.2270 -0.8750 -0.4611
  110MOL0     C14440   6.584   5.228   4.860  0.9627  0.0620 -0.3061
  110MOL0     C14441   6.723   5.231   4.862 -0.3155 -0.0307 -0.1363
  110MOL0     C14442   7.156   5.053   4.877  0.5317 -0.2650 -0.1842
  110MOL0     C14443   7.210   5.174   4.920  0.0372 -0.6727  0.1479
  110MOL0     C14444   7.347   5.195   4.925 -0.2047 -0.0209  0.1936
  110MOL0     C14445   7.440   5.098   4.884  0.5124  0.2771 -0.0268
  110MOL0     O14446   7.579   5.107   4.879 -0.3532 -0.9645 -0.0424
  110MOL0     C14447   7.645   5.202   4.961 -0.2173 -0.3139  0.4884
  110MOL0     C14448   7.798   5.192   4.935 -0.2407 -0.1579 -0.3932
  110MOL0     C14449   7.828   5.215   4.792 -1.2493  0.3118 -0.5167
  110MOL0     C14450   7.845   5.366   4.757 -0.1678  0.5085 -1.0654
  110MOL0     C14451   7.893   5.386   4.618 -0.4182  0.6831  0.8262
  110MOL0     C14452   7.940   5.404   4.507  0.1308 -0.3573 -0.1229
  110MOL0     C14453   7.382   4.978   4.842  0.7261 -0.0090 -0.4496
  110MOL0     C14454   7.244   4.952   4.833  1.0123 -0.7244 -0.2529
  110MOL0     H14455   6.782   4.957   5.050  0.8094  0.5766  0.2845
  110MOL0     H14456   6.513   4.960   5.045 -1.8319  0.6520 -0.8800
  110MOL0     H14457   6.331   5.153   4.723 -0.3566 -0.3885  0.3782
  110MOL0     H14458   6.315   5.302   4.820 -1.3474  0.5138  3.1775
  110MOL0     H14459   6.110   5.209   4.905  2.1967  3.8587 -0.3202
  110MOL0     H14460   6.154   5.048   4.847 -3.1972  0.3783 -0.2108
  110MOL0     H14461   5.992   5.096   4.701  1.0757  0.3500 -1.8527
  110MOL0     H14462   6.138   5.130   4.610  3.1245 -0.7015  2.0105
  110MOL0     H14463   5.977   5.349   4.757 -0.6608  1.4155  0.1678
  110MOL0     H14464   6.114   5.375   4.656  0.5447 -0.8289 -0.2968
  110MOL0     H14465   5.966   5.254   4.461  1.6178 -1.9468  2.5935
  110MOL0     H14466   5.910   5.417   4.516 -1.8673 -0.3262 -0.4054
  110MOL0     H14467   5.759   5.317   4.681  2.1701 -0.0110  0.7267
  110MOL0     H14468   5.795   5.158   4.612 -3.1558  0.0888 -0.8171
  110MOL0     H14469   5.677   5.235   4.396  0.4798  0.9817 -0.3431
  110MOL0     H14470   5.591   5.234   4.551  0.0589 -0.5074  0.1257
  110MOL0     H14471   5.538   5.428   4.411 -1.0345 -0.2503  1.5629
  110MOL0     H14472   5.701   5.487   4.409  0.1739  1.2012  0.5200
  110MOL0     H14473   5.424   5.477   4.678 -1.7276  1.5874  0.1859
  110MOL0     H14474   5.488   5.819   4.850  1.0120 -0.7458 -0.0198
  110MOL0     H14475   5.466   5.664   4.937  0.0963  0.1718  0.0210
  110MOL0     H14476   5.295   5.593   4.811  4.1373 -0.5253  0.3643
  110MOL0     H14477   5.299   5.715   4.685 -1.7933 -1.6223 -0.5349
  110MOL0     H14478   5.237   5.786   4.975  2.3270  2.5807  0.5248
  110MOL0     H14479   5.240   5.891   4.844  0.0749  0.2148  1.2977
  110MOL0     H14480   5.012   5.797   4.919 -1.0179  0.4356 -0.9150
  110MOL0     H14481   5.067   5.639   4.861 -0.4553  0.5536 -1.4793
  110MOL0     H14482   4.837   5.635   4.830 -1.2918 -0.3055  0.1502
  110MOL0     H14483   4.596   5.651   4.760 -0.0272 -0.1397  0.2358
  110MOL0     H14484   4.396   6.183   4.418 -0.0166  0.1867  0.0651
  110MOL0     H14485   4.181   6.311   4.444  0.2264 -0.5071  2.1211
  110MOL0     H14486   3.946   6.229   4.351  2.1987 -2.7756  2.0433
  110MOL0     H14487   3.954   6.384   4.445  1.8921 -1.1559  0.3699
  110MOL0     H14488   3.738   6.329   4.549 -2.7965 -2.4695 -0.3862
  110MOL0     H14489   3.714   6.196   4.439  0.5470 -0.7266  0.0162
  110MOL0     H14490   3.720   6.335   4.241 -0.3719 -0.2637  0.2937
  110MOL0     H14491   3.760   6.482   4.327 -0.7034  0.7568 -0.0914
  110MOL0     H14492   3.501   6.325   4.340  0.3842 -0.5923 -2.6476
  110MOL0     H14493   3.546   6.454   4.459  1.8819 -0.2700  0.5527
  110MOL0     H14494   3.547   6.612   4.289  1.1297  0.5712 -3.0098
  110MOL0     H14495   3.388   6.538   4.301 -0.8944 -1.8163 -1.2574
  110MOL0     H14496   3.476   6.372   4.105 -1.2410 -0.0361  0.3192
  110MOL0     H14497   3.582   6.514   4.061 -1.6328  3.7679 -1.8162
  110MOL0     H14498   3.281   6.494   4.073  0.3325 -0.8220 -1.0330
  110MOL0     H14499   3.371   6.649   4.028  0.7812  0.3012  1.3584
  110MOL0     H14500   3.365   6.374   3.897 -2.0376  0.8822  0.6591
  110MOL0     H14501   3.474   6.503   3.837  0.3816 -1.1778 -0.3677
  110MOL0     H14502   4.012   5.997   4.657 -0.4100 -0.6884 -0.7443
  110MOL0     H14503   4.228   5.869   4.649  0.9792  0.9728  0.6564
  110MOL0     H14504   4.713   5.931   4.452 -3.6551  0.0340  0.3152
  110MOL0     H14505   4.957   5.918   4.532 -0.8940  1.3520 -1.1220
  110MOL0     H14506   6.526   5.300   4.803 -3.0164 -0.6431  2.4755
  110MOL0     H14507   6.772   5.306   4.800 -1.8827  0.2007 -1.1396
  110MOL0     H14508   7.142   5.251   4.955  0.5085  0.0922 -0.6054
  110MOL0     H14509   7.387   5.290   4.960  2.0209 -0.7214 -0.2975
  110MOL0     H14510   7.618   5.186   5.066 -0.2288 -1.8285  0.2812
  110MOL0     H14511   7.622   5.305   4.934 -2.3302 -0.4588  1.5224
  110MOL0     H14512   7.852   5.259   5.002  1.2556 -0.6691 -1.0413
  110MOL0     H14513   7.824   5.091   4.966 -3.1080 -0.3814  1.6338
  110MOL0     H14514   7.756   5.174   4.721  0.8624 -2.8784 -1.0189
  110MOL0     H14515   7.927   5.168   4.790 -0.4394  1.7226  1.9925
  110MOL0     H14516   7.747   5.413   4.772 -0.6735 -0.8685  0.0979
  110MOL0     H14517   7.913   5.417   4.825  0.5023 -0.3325 -1.0938
  110MOL0     H14518   7.973   5.416   4.406 -0.1309  1.8786  0.0190
  110MOL0     H14519   7.447   4.897   4.810  0.9647  0.3131 -0.7818
  110MOL0     H14520   7.209   4.854   4.804  1.5199 -1.3550  1.1288
  111MOL0     O14521   5.863   7.661   5.325 -0.1676  0.4535  0.7703
  111MOL0     C14522   5.946   7.592   5.372 -0.6147  0.1880 -0.4572
  111MOL0     O14523   6.009   7.482   5.307  0.2295 -0.3534  0.4136
  111MOL0     C14524   5.968   7.458   5.176 -0.8898  0.1511  0.5268
  111MOL0     C14525   6.075   7.430   5.078  0.2807 -0.1487  0.5745
  111MOL0     C14526   6.042   7.388   4.952  0.0375  0.6417 -0.1551
  111MOL0     C14527   5.903   7.378   4.916 -0.8408  0.2819  0.4258
  111MOL0     O14528   5.888   7.323   4.793 -0.5195  0.2527  0.1197
  111MOL0     C14529   5.763   7.321   4.725 -0.1435 -0.1185  0.1573
  111MOL0     C14530   5.768   7.221   4.621 -0.4505 -0.3044  0.4450
  111MOL0     C14531   5.625   7.168   4.589  0.3788  0.6170 -0.6623
  111MOL0     C14532   5.539   7.273   4.515  0.7816 -0.4840  0.3825
  111MOL0     C14533   5.427   7.208   4.440  0.2685 -0.3768  0.4455
  111MOL0     C14534   5.305   7.300   4.433  0.1827 -1.0929 -0.1557
  111MOL0     C14535   5.188   7.252   4.347  1.3055 -0.5391  0.1694
  111MOL0     C14536   5.214   7.219   4.201  0.3607  1.0244  0.3620
  111MOL0     N14537   5.075   7.228   4.136  0.7695 -0.2124  0.6053
  111MOL0     C14538   4.988   7.334   4.104 -0.2957  0.3324  0.0809
  111MOL0     C14539   4.879   7.290   4.035 -1.0255 -0.0869  0.6676
  111MOL0     C14540   4.795   7.384   3.962 -0.1347  0.7948  0.2006
  111MOL0     C14541   4.721   7.310   3.845  0.1581  0.7052  0.3813
  111MOL0     C14542   4.596   7.228   3.895 -0.1338  0.2564  0.7531
  111MOL0     C14543   4.521   7.160   3.782 -0.0244  0.0063  0.0220
  111MOL0     O14544   4.405   7.099   3.840 -0.3339 -0.7945 -0.0357
  111MOL0     C14545   4.305   7.053   3.750  0.4072 -0.5000  0.2193
  111MOL0     C14546   4.220   6.967   3.814 -0.1157  0.2503  0.5978
  111MOL0     C14547   4.108   6.913   3.753 -0.0234 -0.1481  0.8090
  111MOL0     C14548   4.077   6.954   3.623  0.2857 -0.5114  0.7981
  111MOL0     C14549   3.950   6.914   3.549 -0.4072 -0.4172 -0.4061
  111MOL0     O14550   3.940   6.925   3.412  0.0118  0.0089  0.7192
  111MOL0     C14551   3.816   6.896   3.361  0.0655 -0.3073 -0.3961
  111MOL0     C14552   3.708   6.981   3.390  0.9388 -0.6418 -0.0086
  111MOL0     C14553   3.587   6.962   3.320  0.0101 -0.5893  0.3612
  111MOL0     C14554   3.574   6.863   3.222 -0.0408 -0.4478  0.0980
  111MOL0     O14555   3.462   6.840   3.150  0.4378  0.4776  0.0135
  111MOL0     C14556   3.373   6.953   3.124  0.2034  0.6167 -0.4105
  111MOL0     C14557   3.279   6.929   3.008 -0.4339  0.5318 -0.7114
  111MOL0     C14558   3.180   6.805   3.031  0.7197 -0.3326 -0.9214
  111MOL0     C14559   3.109   6.770   2.897  0.9063 -0.4660  0.1610
  111MOL0     C14560   2.988   6.668   2.904 -0.2273  0.1259  0.3298
  111MOL0     C14561   2.899   6.665   2.786  0.5066  0.5680 -0.0045
  111MOL0     C14562   2.822   6.800   2.761 -0.1225  0.2579  0.1699
  111MOL0     C14563   2.671   6.783   2.750 -0.0755  0.2893 -0.0097
  111MOL0    Cl14564   2.633   6.699   2.594  0.4608  0.1326 -0.3481
  111MOL0     C14565   3.679   6.771   3.204 -0.3549  0.3729 -0.1676
  111MOL0     C14566   3.797   6.788   3.275 -0.8586 -0.1540  0.8275
  111MOL0     O14567   3.867   6.861   3.626  0.5842  0.0532  0.5862
  111MOL0     C14568   4.149   7.059   3.562 -0.1733 -0.0195 -0.2762
  111MOL0     C14569   4.264   7.109   3.628 -0.4233 -0.2290 -0.0779
  111MOL0     N14570   4.892   7.154   4.036 -0.5825  0.7711 -0.7574
  111MOL0     N14571   4.995   7.121   4.108 -0.6193  0.8756  0.0044
  111MOL0     C14572   5.798   7.407   5.010 -0.1792 -0.8675  0.8567
  111MOL0     C14573   5.826   7.461   5.135 -0.8107  0.8179  0.7961
  111MOL0     C14574   5.998   7.644   5.504  0.6148 -0.5050  0.4263
  111MOL0     C14575   5.934   7.757   5.577  0.0775 -0.0749  0.1001
  111MOL0     C14576   5.991   7.813   5.693 -0.1928 -0.7978 -0.4539
  111MOL0     C14577   6.102   7.753   5.749 -0.6369 -0.0589 -0.1045
  111MOL0     O14578   6.164   7.809   5.862  0.1599  0.6764  0.3664
  111MOL0     C14579   6.220   7.707   5.953 -0.2601  0.4972  0.1686
  111MOL0     C14580   6.108   7.608   6.012  0.6127 -0.3891 -0.0978
  111MOL0     C14581   6.026   7.686   6.110  0.5393 -0.7245  0.4241
  111MOL0     C14582   5.912   7.595   6.160 -0.2625  0.6349  0.0808
  111MOL0     C14583   5.960   7.511   6.271 -0.4056  0.1522 -0.3116
  111MOL0     C14584   5.993   7.439   6.359  0.1335  0.1325 -0.3702
  111MOL0     C14585   6.163   7.648   5.677 -0.0234  0.1260 -0.5837
  111MOL0     C14586   6.113   7.598   5.554 -0.3933 -0.1190 -0.0112
  111MOL0     H14587   6.181   7.424   5.103  0.6803  0.3450 -0.9007
  111MOL0     H14588   6.110   7.340   4.882 -1.1814 -0.1594 -0.8350
  111MOL0     H14589   5.717   7.410   4.681 -1.1889  0.1286  1.6546
  111MOL0     H14590   5.684   7.280   4.789 -2.2758 -0.5474 -2.5954
  111MOL0     H14591   5.833   7.140   4.655 -1.0640 -0.8259  0.3825
  111MOL0     H14592   5.822   7.264   4.536  2.2065 -0.2915  2.0015
  111MOL0     H14593   5.577   7.124   4.678  3.7048 -1.1860  0.3999
  111MOL0     H14594   5.637   7.082   4.523  1.5973 -1.1208  1.6670
  111MOL0     H14595   5.490   7.331   4.594 -2.8413  0.4336 -2.2778
  111MOL0     H14596   5.602   7.342   4.459 -0.8264  0.5830 -0.1854
  111MOL0     H14597   5.398   7.119   4.497  1.2627  0.8061  2.9790
  111MOL0     H14598   5.456   7.184   4.337 -1.8137  0.0862 -0.2849
  111MOL0     H14599   5.340   7.396   4.394  2.6322 -1.5241  0.7707
  111MOL0     H14600   5.263   7.325   4.531  0.1263 -0.2631 -0.3809
  111MOL0     H14601   5.151   7.163   4.398  1.2849 -0.9111 -0.4877
  111MOL0     H14602   5.112   7.330   4.361 -1.3787 -3.0695  0.5477
  111MOL0     H14603   5.256   7.119   4.189  0.0697  1.1977 -3.6450
  111MOL0     H14604   5.277   7.301   4.162  0.4931  1.9461  2.4177
  111MOL0     H14605   5.011   7.438   4.122 -0.4594  0.4706 -0.4938
  111MOL0     H14606   4.842   7.476   3.924 -1.1180  1.6564  1.0007
  111MOL0     H14607   4.727   7.417   4.041  1.3285  2.1537  0.9411
  111MOL0     H14608   4.800   7.243   3.811  2.5205  1.3332  4.0861
  111MOL0     H14609   4.689   7.387   3.774 -1.0522 -0.0356  0.1031
  111MOL0     H14610   4.630   7.146   3.959  0.3697 -0.6391 -0.6131
  111MOL0     H14611   4.529   7.286   3.958 -0.5526  2.2835 -1.4182
  111MOL0     H14612   4.586   7.082   3.743 -1.0814 -0.4763 -0.8404
  111MOL0     H14613   4.494   7.236   3.707 -0.6543 -1.3301 -1.1573
  111MOL0     H14614   4.259   6.940   3.912 -0.7129 -1.4688  0.3844
  111MOL0     H14615   4.056   6.840   3.815 -3.0394  1.5411  0.4329
  111MOL0     H14616   3.710   7.057   3.468 -2.7067 -0.0544 -0.2833
  111MOL0     H14617   3.512   7.034   3.349  0.5949 -0.5884  1.9734
  111MOL0     H14618   3.432   7.038   3.088 -0.9363  1.1762 -1.0079
  111MOL0     H14619   3.319   6.969   3.218  0.6724  0.4208 -0.1033
  111MOL0     H14620   3.347   6.915   2.923 -1.6620  0.3525 -1.6881
  111MOL0     H14621   3.214   7.013   2.984 -0.2308  0.8012 -0.3173
  111MOL0     H14622   3.108   6.826   3.111 -0.4352  1.0432 -2.2618
  111MOL0     H14623   3.236   6.722   3.075 -3.0379 -2.1669  0.8590
  111MOL0     H14624   3.086   6.858   2.837 -3.9506 -0.6746  1.3459
  111MOL0     H14625   3.176   6.708   2.836 -0.8551 -2.2198 -0.0938
  111MOL0     H14626   2.931   6.704   2.990 -1.3177 -1.3852  0.2743
  111MOL0     H14627   3.036   6.570   2.919  0.2648  0.3548  0.2815
  111MOL0     H14628   2.822   6.589   2.797 -0.9536  2.0095  0.2295
  111MOL0     H14629   2.958   6.654   2.695  0.2640  3.1348 -0.5717
  111MOL0     H14630   2.842   6.873   2.840 -3.3097 -0.5548  1.9051
  111MOL0     H14631   2.866   6.848   2.673  1.2240 -2.3838 -0.7156
  111MOL0     H14632   2.627   6.884   2.748  1.6938  1.2003  2.0514
  111MOL0     H14633   2.626   6.731   2.835 -1.2365 -0.4809 -1.0567
  111MOL0     H14634   3.664   6.685   3.139 -2.6094  1.6428 -1.4481
  111MOL0     H14635   3.879   6.718   3.266 -1.9609 -1.4035  0.2235
  111MOL0     H14636   4.134   7.088   3.458  0.1152  1.6163  0.1207
  111MOL0     H14637   4.323   7.188   3.582  0.1229 -0.9281 -0.6033
  111MOL0     H14638   5.695   7.385   4.984  0.6108 -0.5157 -3.2687
  111MOL0     H14639   5.745   7.490   5.201  0.6597  1.0017  2.5634
  111MOL0     H14640   5.852   7.804   5.524 -0.0965 -0.6585 -0.1524
  111MOL0     H14641   5.947   7.900   5.741 -1.7230 -1.6597 -0.2485
  111MOL0     H14642   6.267   7.764   6.034 -1.5603  0.6105  0.8760
  111MOL0     H14643   6.299   7.649   5.905 -0.9619  0.5255 -1.0513
  111MOL0     H14644   6.040   7.582   5.930  0.0146  3.9997 -1.2662
  111MOL0     H14645   6.156   7.516   6.045  0.4339  0.8415  4.2350
  111MOL0     H14646   5.986   7.773   6.058 -1.4073 -2.1427 -0.5845
  111MOL0     H14647   6.086   7.722   6.194  1.6544  0.0262 -0.6703
  111MOL0     H14648   5.832   7.650   6.212 -0.2517  0.4941  0.2485
  111MOL0     H14649   5.871   7.537   6.076  1.8041  1.6642 -1.7281
  111MOL0     H14650   6.008   7.367   6.436 -0.2188 -2.2189 -2.3894
  111MOL0     H14651   6.259   7.602   5.700  1.0255  1.4334 -2.1279
  111MOL0     H14652   6.176   7.518   5.516  1.7509  1.3591  0.2085
  112MOL0     O14653   8.137   5.992   0.401  0.6712 -0.5252  0.1107
  112MOL0     C14654   8.215   5.962   0.314  0.5379  0.2048  0.3336
  112MOL0     O14655   8.186   5.916   0.195  0.4634  0.1217  0.6307
  112MOL0     C14656   8.053   5.911   0.153  0.0210 -0.6461  0.7423
  112MOL0     C14657   7.994   6.023   0.102 -0.4004 -0.5257 -0.1195
  112MOL0     C14658   7.864   6.021   0.066  0.2665 -0.1912 -0.1085
  112MOL0     C14659   7.784   5.909   0.075  0.2284 -0.7899  0.1431
  112MOL0     O14660   7.653   5.919   0.033 -0.2051  0.6178  0.1718
  112MOL0     C14661   7.551   5.911   0.135  0.1101  0.0070  0.7189
  112MOL0     C14662   7.417   5.876   0.070  0.9998 -0.2707  0.5659
  112MOL0     C14663   7.315   5.840   0.188  0.2723  0.4775  0.1114
  112MOL0     C14664   7.179   5.807   0.125  0.9302 -0.0325  0.9582
  112MOL0     C14665   7.071   5.767   0.230 -0.0866 -1.1859 -0.0487
  112MOL0     C14666   6.964   5.872   0.242  0.2128 -0.1813 -0.4350
  112MOL0     C14667   6.886   5.853   0.383 -0.4633  0.0727 -0.4059
  112MOL0     C14668   6.959   5.910   0.509  0.5767 -0.6785  0.3563
  112MOL0     N14669   7.078   5.834   0.546 -0.2336 -0.4099 -0.7934
  112MOL0     C14670   7.207   5.886   0.576 -0.0964  0.4346 -0.9306
  112MOL0     C14671   7.270   5.782   0.623  0.6513  0.1995  0.1240
  112MOL0     C14672   7.415   5.788   0.668  0.5902  1.2510 -0.2407
  112MOL0     C14673   7.515   5.701   0.585 -0.3098  0.1696  0.8433
  112MOL0     C14674   7.631   5.783   0.527  0.6961  0.2322 -0.0296
  112MOL0     C14675   7.727   5.833   0.640  0.0159  0.4684 -0.4442
  112MOL0     O14676   7.797   5.726   0.724  0.1049 -0.3593 -0.2375
  112MOL0     C14677   7.919   5.696   0.678  0.4532  0.0343 -0.1390
  112MOL0     C14678   8.001   5.631   0.772  0.2965 -0.7438 -0.1053
  112MOL0     C14679   8.134   5.598   0.737  0.0380  0.5625 -0.0016
  112MOL0     C14680   8.184   5.626   0.611  0.6084 -0.4917 -0.0937
  112MOL0     C14681   8.329   5.601   0.589  1.0649 -0.1929 -0.6712
  112MOL0     O14682   8.419   5.586   0.694  0.0099  0.1766  0.4284
  112MOL0     C14683   8.552   5.587   0.669 -0.3282 -0.4350  0.8468
  112MOL0     C14684   8.616   5.703   0.611 -0.0322 -0.3981 -0.1540
  112MOL0     C14685   8.747   5.717   0.595  0.4337 -0.5995 -0.1882
  112MOL0     C14686   8.830   5.610   0.613 -0.0196 -0.0128  0.0532
  112MOL0     O14687   8.962   5.623   0.585 -0.2446 -0.0304 -0.5033
  112MOL0     C14688   9.044   5.548   0.671  0.0574  0.4881  0.9687
  112MOL0     C14689   9.189   5.563   0.628 -0.3314 -0.0409  0.2243
  112MOL0     C14690   9.273   5.494   0.733  0.2728 -0.3337  0.0953
  112MOL0     C14691   9.415   5.488   0.684 -0.8243  0.3320 -1.0829
  112MOL0     C14692   9.480   5.624   0.656  1.1698 -0.3386 -0.1102
  112MOL0     C14693   9.629   5.613   0.635  0.9278 -0.6667  0.3195
  112MOL0     C14694   9.692   5.755   0.650  0.0100 -0.7177  0.1605
  112MOL0     C14695   9.660   5.860   0.541 -0.7532 -0.1210  0.1298
  112MOL0    Cl14696   9.493   5.925   0.533 -0.0997 -0.1655 -0.3443
  112MOL0     C14697   8.773   5.487   0.658 -0.3483  0.1614 -0.0076
  112MOL0     C14698   8.637   5.476   0.683 -0.2913  0.1720  0.4634
  112MOL0     O14699   8.364   5.610   0.472  0.0094 -0.3355  0.5679
  112MOL0     C14700   8.097   5.676   0.510 -0.6394  0.8230 -0.3943
  112MOL0     C14701   7.972   5.717   0.549 -0.3834 -0.3011  0.0886
  112MOL0     N14702   7.186   5.679   0.622  0.5772  1.0673 -0.6361
  112MOL0     N14703   7.064   5.706   0.581  0.2379 -0.6865 -0.7191
  112MOL0     C14704   7.841   5.786   0.113 -0.4109  0.5402  0.0488
  112MOL0     C14705   7.978   5.794   0.157  0.9642  0.4042  0.1790
  112MOL0     C14706   8.355   5.983   0.342 -0.1002  0.2390 -0.6281
  112MOL0     C14707   8.400   6.035   0.469 -0.4629  1.2436 -0.0696
  112MOL0     C14708   8.536   6.056   0.481 -0.1300 -0.3930 -0.8047
  112MOL0     C14709   8.632   6.031   0.386  0.4761 -1.2826 -0.3868
  112MOL0     O14710   8.754   6.065   0.418 -0.0667 -0.3612  0.4640
  112MOL0     C14711   8.862   6.019   0.337 -1.1756  1.4800  0.2847
  112MOL0     C14712   8.983   6.012   0.428  0.6219 -0.2234 -0.1852
  112MOL0     C14713   9.062   6.143   0.453  0.1956 -0.0148 -0.5433
  112MOL0     C14714   9.159   6.125   0.567 -0.1865 -0.0337 -0.1848
  112MOL0     C14715   9.125   6.212   0.676  0.2170 -0.0965 -0.1359
  112MOL0     C14716   9.091   6.282   0.772 -0.4804 -0.1417  0.0743
  112MOL0     C14717   8.589   5.989   0.262  0.5618  1.0307  0.4453
  112MOL0     C14718   8.451   5.962   0.241 -1.3552 -0.5312 -1.3046
  112MOL0     H14719   8.045   6.119   0.096 -0.4569 -0.4722  0.2480
  112MOL0     H14720   7.832   6.111   0.014  2.4800 -0.2946 -1.8013
  112MOL0     H14721   7.547   6.008   0.186  1.8271 -0.6219  2.1500
  112MOL0     H14722   7.581   5.835   0.208 -1.3135  1.2325  2.6675
  112MOL0     H14723   7.424   5.792  -0.000 -1.5561 -1.1340  1.2088
  112MOL0     H14724   7.384   5.967   0.019  1.6595  0.1629  0.9060
  112MOL0     H14725   7.304   5.923   0.259  1.1741  0.7706 -0.0772
  112MOL0     H14726   7.345   5.753   0.248 -1.7864 -1.3345 -1.3314
  112MOL0     H14727   7.150   5.897   0.071 -1.7183 -0.2882  1.7923
  112MOL0     H14728   7.195   5.724   0.055 -3.7991 -1.3045  1.0381
  112MOL0     H14729   7.125   5.743   0.322  2.1129 -0.1394 -0.9993
  112MOL0     H14730   7.015   5.678   0.201 -1.4076 -0.2413 -0.4801
  112MOL0     H14731   6.894   5.862   0.157 -0.4881 -1.0933  0.2315
  112MOL0     H14732   7.011   5.969   0.225  0.3080 -0.5907 -2.8673
  112MOL0     H14733   6.791   5.907   0.379  0.7337  2.2653 -0.7894
  112MOL0     H14734   6.852   5.752   0.408  3.0474 -0.4388  3.3376
  112MOL0     H14735   6.876   5.903   0.580  0.6367 -0.8839  0.4079
  112MOL0     H14736   6.975   6.016   0.491  0.5653 -0.7584 -0.1423
  112MOL0     H14737   7.228   5.992   0.578 -2.8879  1.1070 -1.9836
  112MOL0     H14738   7.404   5.748   0.770  0.2014  2.1719  0.0869
  112MOL0     H14739   7.448   5.892   0.676 -1.1201  1.8131 -0.1170
  112MOL0     H14740   7.462   5.653   0.502  1.1769 -1.9767  1.0435
  112MOL0     H14741   7.546   5.617   0.649  0.1312 -0.0947  0.2824
  112MOL0     H14742   7.688   5.714   0.464  0.3846 -0.1290  0.0763
  112MOL0     H14743   7.595   5.865   0.465 -0.7069  0.8260  1.5020
  112MOL0     H14744   7.654   5.882   0.706  1.1020  0.7518  0.5750
  112MOL0     H14745   7.798   5.907   0.602  0.1345  1.2523  1.2105
  112MOL0     H14746   7.974   5.604   0.873  2.1269 -0.6391  0.4463
  112MOL0     H14747   8.200   5.549   0.807 -0.6274  1.3599  1.2112
  112MOL0     H14748   8.553   5.789   0.589 -0.8880 -0.0962  2.9946
  112MOL0     H14749   8.796   5.805   0.553  2.2318 -1.4983 -0.0898
  112MOL0     H14750   9.035   5.440   0.651 -1.8478  0.5259  1.4191
  112MOL0     H14751   9.035   5.570   0.778 -2.3883  1.7968  0.5576
  112MOL0     H14752   9.212   5.670   0.634  0.1708  0.0597 -2.2835
  112MOL0     H14753   9.217   5.531   0.527 -1.5894  0.0549 -0.1710
  112MOL0     H14754   9.231   5.394   0.750 -2.8123  0.7373 -0.6707
  112MOL0     H14755   9.273   5.533   0.835  0.1385 -0.5531  0.1795
  112MOL0     H14756   9.474   5.429   0.754 -0.7242  0.8834 -0.7032
  112MOL0     H14757   9.428   5.418   0.600  2.0975  0.1046 -0.5467
  112MOL0     H14758   9.447   5.700   0.727  0.1122  0.1968 -1.1412
  112MOL0     H14759   9.443   5.668   0.563 -0.9825  0.6232  1.1253
  112MOL0     H14760   9.656   5.583   0.534 -2.6408 -1.8181 -0.4264
  112MOL0     H14761   9.683   5.550   0.707 -0.2228 -1.5327  0.4567
  112MOL0     H14762   9.684   5.797   0.751 -0.8424  0.5994 -0.4278
  112MOL0     H14763   9.799   5.735   0.644 -0.2214 -1.4466 -2.6502
  112MOL0     H14764   9.689   5.818   0.444 -0.4514  0.2543  0.0516
  112MOL0     H14765   9.730   5.940   0.567  0.5392 -1.1671 -0.0140
  112MOL0     H14766   8.838   5.403   0.684 -0.2800  0.5011  0.9792
  112MOL0     H14767   8.600   5.381   0.720 -1.1651  0.4514  0.3098
  112MOL0     H14768   8.132   5.697   0.410  3.4592  0.4387  0.7509
  112MOL0     H14769   7.902   5.755   0.475  0.3633 -0.4251 -0.6915
  112MOL0     H14770   7.790   5.691   0.098  0.5095 -0.0197  0.3792
  112MOL0     H14771   8.030   5.702   0.185 -0.0516 -0.4935 -0.8033
  112MOL0     H14772   8.331   6.056   0.551  1.0202  4.6013  0.4729
  112MOL0     H14773   8.573   6.060   0.583 -2.1598  0.3565 -0.0554
  112MOL0     H14774   8.871   6.078   0.245 -0.0680 -0.0277 -0.6268
  112MOL0     H14775   8.841   5.916   0.308  0.7517  1.2470 -0.4431
  112MOL0     H14776   8.949   5.965   0.521 -0.9912 -0.1437 -0.7088
  112MOL0     H14777   9.060   5.954   0.376 -0.8574 -1.0572 -1.5257
  112MOL0     H14778   8.998   6.229   0.473  2.7055  1.4893  1.6708
  112MOL0     H14779   9.118   6.168   0.362 -0.5180  0.7158 -0.7933
  112MOL0     H14780   9.153   6.020   0.599 -1.1997  0.3670  1.0120
  112MOL0     H14781   9.260   6.137   0.526  0.1854 -2.9642 -0.3557
  112MOL0     H14782   9.049   6.341   0.851  2.1924  1.2246  0.6087
  112MOL0     H14783   8.671   5.956   0.200  0.9669  1.6407  0.6478
  112MOL0     H14784   8.423   5.928   0.142  2.0874 -3.5266 -1.4679
  113MOL0     O14785   3.561  10.399   5.515 -0.0147 -0.4320  0.1626
  113MOL0     C14786   3.632  10.307   5.463 -0.0993 -0.5104  0.6839
  113MOL0     O14787   3.598  10.174   5.463 -1.2280  0.1581  0.2323
  113MOL0     C14788   3.473  10.141   5.489  0.2707  1.3972  0.0251
  113MOL0     C14789   3.430  10.077   5.613  0.1908 -0.1361  0.8241
  113MOL0     C14790   3.298  10.027   5.612  0.1230 -0.4327  0.6177
  113MOL0     C14791   3.218  10.039   5.496  0.3048 -0.7308  0.0242
  113MOL0     O14792   3.088   9.988   5.479 -0.2245 -0.6418 -0.1919
  113MOL0     C14793   3.006  10.020   5.593 -0.2728 -0.3423  0.4573
  113MOL0     C14794   2.858   9.995   5.551  0.4582 -0.0086 -0.4262
  113MOL0     C14795   2.764  10.024   5.674 -0.4069  0.5246  0.5092
  113MOL0     C14796   2.612   9.981   5.663 -0.7835 -0.3236 -0.1869
  113MOL0     C14797   2.536  10.005   5.793  0.1759  0.0612 -0.3073
  113MOL0     C14798   2.382   9.989   5.744  0.0371 -0.7439 -0.3070
  113MOL0     C14799   2.285   9.995   5.866 -0.3313  0.4646 -0.0018
  113MOL0     C14800   2.145   9.947   5.821  0.1119  0.8560  0.0346
  113MOL0     N14801   2.027   9.998   5.894 -0.0583  0.3633 -0.0499
  113MOL0     C14802   1.959  10.111   5.866  0.2291 -0.1445 -0.0514
  113MOL0     C14803   1.878  10.144   5.972 -0.4241  0.2038  0.1587
  113MOL0     C14804   1.786  10.262   5.994 -0.7994 -0.2873  0.4655
  113MOL0     C14805   1.647  10.232   5.926  0.4473  0.0433  0.9805
  113MOL0     C14806   1.548  10.335   5.977 -0.4873  0.0099 -0.1869
  113MOL0     C14807   1.414  10.335   5.904  0.5541 -0.7516  0.6087
  113MOL0     O14808   1.306  10.382   5.993 -0.3156 -0.0854  0.0960
  113MOL0     C14809   1.193  10.433   5.936  0.7335 -0.1241  0.6297
  113MOL0     C14810   1.184  10.577   5.928 -0.5045  0.8433 -0.4424
  113MOL0     C14811   1.064  10.638   5.893  0.1235  0.2155 -0.2142
  113MOL0     C14812   0.949  10.560   5.864  0.6321 -0.6452  0.3662
  113MOL0     C14813   0.823  10.633   5.828 -0.1320  0.0232 -0.1715
  113MOL0     O14814   0.822  10.765   5.845 -0.2560 -0.1209 -0.1243
  113MOL0     C14815   0.709  10.840   5.818  0.4914 -0.9145  0.1220
  113MOL0     C14816   0.574  10.808   5.842 -0.3621  0.0721  0.0233
  113MOL0     C14817   0.477  10.908   5.834 -0.3518  0.0001  0.1402
  113MOL0     C14818   0.513  11.043   5.791 -0.7528  0.0399 -0.3680
  113MOL0     O14819   0.444  11.157   5.813  0.4895  0.2169  0.4040
  113MOL0     C14820   0.313  11.157   5.747  0.1531 -0.3996  0.2546
  113MOL0     C14821   0.248  11.293   5.754 -0.3150 -0.1079  0.2723
  113MOL0     C14822   0.143  11.314   5.652  0.1116  0.7784 -0.2498
  113MOL0     C14823   0.014  11.252   5.684 -0.6423  0.2680 -0.1850
  113MOL0     C14824  -0.086  11.264   5.561  0.3808  0.7487 -0.2746
  113MOL0     C14825  -0.114  11.406   5.509 -0.5080  0.1686 -0.0530
  113MOL0     C14826  -0.216  11.400   5.398  0.1250 -0.0029  1.0144
  113MOL0     C14827  -0.267  11.544   5.360  0.6011  0.6199 -1.1914
  113MOL0    Cl14828  -0.433  11.518   5.277  0.5650  0.1438  0.0408
  113MOL0     C14829   0.644  11.069   5.749  0.4107  0.9061 -0.6114
  113MOL0     C14830   0.742  10.969   5.770  0.2487  0.2509  0.1506
  113MOL0     O14831   0.731  10.570   5.786  0.6298  0.1010  0.0835
  113MOL0     C14832   0.960  10.423   5.871 -0.1474  0.1631 -0.3543
  113MOL0     C14833   1.078  10.361   5.905 -0.3272  0.6408 -0.0805
  113MOL0     N14834   1.897  10.036   6.065 -0.0945  0.5170  0.9289
  113MOL0     N14835   1.987   9.957   6.015  0.5463 -0.0523  0.6241
  113MOL0     C14836   3.273  10.092   5.378 -0.2467  0.5375  0.1391
  113MOL0     C14837   3.396  10.141   5.377 -0.2016 -0.7545 -0.7307
  113MOL0     C14838   3.768  10.349   5.414 -0.9096  0.6153  0.6825
  113MOL0     C14839   3.800  10.490   5.405 -0.1137 -0.2254 -0.5671
  113MOL0     C14840   3.922  10.533   5.357  0.2430 -0.5706  0.3558
  113MOL0     C14841   4.016  10.441   5.311  0.2401  0.4641 -0.2555
  113MOL0     O14842   4.141  10.472   5.267 -0.4238 -0.4253 -0.3232
  113MOL0     C14843   4.180  10.612   5.279  0.1984  0.0210 -0.2945
  113MOL0     C14844   4.333  10.626   5.265 -0.5666  0.3940 -1.1247
  113MOL0     C14845   4.412  10.556   5.378 -0.0381  1.3991 -0.0591
  113MOL0     C14846   4.566  10.580   5.361  0.5124 -0.1105 -1.3988
  113MOL0     C14847   4.619  10.560   5.217  0.2147 -0.3395 -0.6547
  113MOL0     C14848   4.669  10.536   5.108 -0.8340 -0.5725  0.4944
  113MOL0     C14849   3.977  10.298   5.323  0.0662 -0.8182 -0.3133
  113MOL0     C14850   3.861  10.256   5.374 -0.0154  0.2054 -0.3116
  113MOL0     H14851   3.500  10.062   5.694  1.4112  0.1243 -0.1453
  113MOL0     H14852   3.270   9.989   5.710  2.2620  0.5135  1.6481
  113MOL0     H14853   3.032  10.122   5.624 -1.0928 -0.1701  0.5818
  113MOL0     H14854   3.030   9.951   5.676 -1.7865 -0.1937  1.0408
  113MOL0     H14855   2.827   9.893   5.524 -1.2315 -0.4220  2.6563
  113MOL0     H14856   2.823  10.064   5.473 -1.6742 -1.5594 -0.9273
  113MOL0     H14857   2.773  10.131   5.695 -1.1823  0.5952  0.4886
  113MOL0     H14858   2.804   9.976   5.765  1.7745  0.8746 -0.1960
  113MOL0     H14859   2.571  10.042   5.582  2.0095  0.7330 -0.8910
  113MOL0     H14860   2.617   9.875   5.639 -0.3399 -0.2903 -0.2460
  113MOL0     H14861   2.552  10.106   5.831 -2.9735  0.2710  0.7311
  113MOL0     H14862   2.565   9.933   5.870  0.2684  0.3690 -0.0515
  113MOL0     H14863   2.382   9.887   5.704 -1.9530  0.1275 -2.7799
  113MOL0     H14864   2.355  10.057   5.663  0.1123 -0.0801  0.2129
  113MOL0     H14865   2.324   9.935   5.948 -3.3519  1.2722  2.2228
  113MOL0     H14866   2.286  10.097   5.906  0.6436  0.2358  0.5824
  113MOL0     H14867   2.145   9.838   5.815 -0.6099  0.8913 -5.7021
  113MOL0     H14868   2.136   9.972   5.715  1.5187 -0.8943 -0.5559
  113MOL0     H14869   1.971  10.170   5.776  2.6582 -3.0111 -1.8261
  113MOL0     H14870   1.825  10.349   5.942 -1.3039 -0.5517 -0.3706
  113MOL0     H14871   1.775  10.284   6.101 -0.3077  1.1125  0.2392
  113MOL0     H14872   1.611  10.135   5.959  1.1749 -1.4362 -2.1885
  113MOL0     H14873   1.659  10.237   5.817 -1.2298  0.3371  0.7849
  113MOL0     H14874   1.528  10.307   6.081  3.0504  2.9498  1.5083
  113MOL0     H14875   1.593  10.434   5.970 -1.2734  0.4984  1.2686
  113MOL0     H14876   1.377  10.238   5.869 -0.7448  0.0397 -0.2982
  113MOL0     H14877   1.418  10.401   5.817 -1.2519 -1.0762  0.2529
  113MOL0     H14878   1.273  10.634   5.954 -0.7918  1.4284 -0.7266
  113MOL0     H14879   1.050  10.745   5.885 -0.6657  0.2227  0.8967
  113MOL0     H14880   0.551  10.709   5.880  0.7349 -0.5453 -0.8262
  113MOL0     H14881   0.372  10.887   5.849 -0.0052 -3.5065 -1.2905
  113MOL0     H14882   0.243  11.090   5.798 -1.3283  1.3665  0.6449
  113MOL0     H14883   0.332  11.134   5.642  0.7124  1.3475 -0.0515
  113MOL0     H14884   0.319  11.376   5.743 -1.4222  0.7151 -1.0066
  113MOL0     H14885   0.207  11.311   5.854 -0.4558  0.9999  0.0295
  113MOL0     H14886   0.182  11.286   5.554  1.3529  0.4416  0.3227
  113MOL0     H14887   0.134  11.423   5.641  1.0252  0.8612 -0.2536
  113MOL0     H14888   0.018  11.143   5.693 -1.3873  0.3438  1.4867
  113MOL0     H14889  -0.031  11.298   5.772  0.8499  1.3209  0.0669
  113MOL0     H14890  -0.184  11.217   5.575  0.2441  1.0615 -0.1621
  113MOL0     H14891  -0.038  11.216   5.476  0.0932  0.8909 -0.5190
  113MOL0     H14892  -0.019  11.451   5.480  0.0731  0.2410  1.8952
  113MOL0     H14893  -0.155  11.464   5.592 -1.5923 -0.3654 -0.1856
  113MOL0     H14894  -0.178  11.353   5.306 -2.0809  2.2024 -1.2132
  113MOL0     H14895  -0.313  11.357   5.426  0.7268 -1.0144  1.6015
  113MOL0     H14896  -0.204  11.599   5.289  1.1419  1.6328  0.0371
  113MOL0     H14897  -0.272  11.597   5.455  2.4898  1.3500 -1.4491
  113MOL0     H14898   0.678  11.164   5.711  0.4557  1.4027  0.6223
  113MOL0     H14899   0.846  10.993   5.751  0.1930  3.3447  2.8598
  113MOL0     H14900   0.882  10.350   5.853 -3.1859  3.3410 -1.2921
  113MOL0     H14901   1.064  10.254   5.910  0.8681  0.3028 -2.4109
  113MOL0     H14902   3.210  10.097   5.290  1.0783 -2.9364 -1.2015
  113MOL0     H14903   3.436  10.175   5.282  0.9518 -0.4810 -0.1611
  113MOL0     H14904   3.723  10.554   5.445 -0.7867 -2.9812  3.0401
  113MOL0     H14905   3.943  10.639   5.347  1.4018 -0.8398 -0.1967
  113MOL0     H14906   4.150  10.647   5.378  2.4408 -1.3617  0.9557
  113MOL0     H14907   4.127  10.660   5.196  1.1760 -1.0258 -1.5628
  113MOL0     H14908   4.365  10.589   5.168  2.7641  0.1833 -0.0784
  113MOL0     H14909   4.349  10.734   5.271 -0.6062  0.5385 -3.1158
  113MOL0     H14910   4.399  10.448   5.372  1.5312  1.1229  0.9108
  113MOL0     H14911   4.369  10.585   5.475 -2.0528  0.3916 -0.6140
  113MOL0     H14912   4.592  10.680   5.395 -0.6427 -0.3938  0.4607
  113MOL0     H14913   4.613  10.507   5.427 -1.9092 -0.8276 -0.3350
  113MOL0     H14914   4.713  10.517   5.012  2.1398  2.9500  0.9397
  113MOL0     H14915   4.048  10.223   5.289  0.9794  1.2928 -3.4824
  113MOL0     H14916   3.831  10.152   5.380 -0.2916  0.1077 -2.5820
  114MOL0     O14917   8.133  10.839   7.833 -0.5559 -0.1852  0.3562
  114MOL0     C14918   8.095  10.884   7.940  0.4264 -0.3284  1.0042
  114MOL0     O14919   7.970  10.930   7.967  0.1498  0.1424 -0.7130
  114MOL0     C14920   7.866  10.933   7.873 -0.4192 -0.6567  0.0111
  114MOL0     C14921   7.738  10.989   7.915  0.6693 -0.1129 -0.4889
  114MOL0     C14922   7.644  11.018   7.815 -0.1108 -0.2287 -0.3910
  114MOL0     C14923   7.661  10.972   7.684  0.5427 -0.0725  0.5296
  114MOL0     O14924   7.542  10.968   7.606 -0.0890  0.6502  0.0185
  114MOL0     C14925   7.434  10.904   7.683 -0.6435 -0.5708 -0.5397
  114MOL0     C14926   7.322  10.862   7.590 -0.8395  0.1515 -0.3157
  114MOL0     C14927   7.193  10.818   7.667 -0.4446  0.4326 -0.1637
  114MOL0     C14928   7.099  10.735   7.579 -0.5086 -0.5806  0.6511
  114MOL0     C14929   6.957  10.727   7.638  0.2219 -0.0552  0.1656
  114MOL0     C14930   6.874  10.657   7.525  0.1585 -0.0367 -0.8360
  114MOL0     C14931   6.744  10.623   7.589  0.6112  0.7295 -0.3001
  114MOL0     C14932   6.736  10.543   7.723 -0.3523  0.6300 -0.3832
  114MOL0     N14933   6.601  10.530   7.774  0.3057 -0.1617  0.2601
  114MOL0     C14934   6.518  10.422   7.758  0.2103 -0.3043 -0.1448
  114MOL0     C14935   6.403  10.448   7.823 -0.1153  0.5921  0.7152
  114MOL0     C14936   6.281  10.368   7.836 -0.1811  0.2493 -0.5197
  114MOL0     C14937   6.167  10.441   7.748 -0.6257  0.4069  0.2717
  114MOL0     C14938   6.053  10.346   7.699 -0.3023 -0.1297  0.3754
  114MOL0     C14939   5.902  10.358   7.749  0.2134  0.7512 -0.4350
  114MOL0     O14940   5.897  10.312   7.885 -0.6481 -0.0754  0.2173
  114MOL0     C14941   5.769  10.286   7.942  0.1916  1.4678  0.1821
  114MOL0     C14942   5.777  10.211   8.061  0.0316  0.0910  0.2491
  114MOL0     C14943   5.663  10.179   8.134  0.4521 -0.5224 -0.4864
  114MOL0     C14944   5.539  10.226   8.089 -0.5804 -1.1032 -0.6852
  114MOL0     C14945   5.402  10.201   8.157  0.5492  0.2555  0.7793
  114MOL0     O14946   5.290  10.265   8.094 -0.2687 -0.0446 -0.6598
  114MOL0     C14947   5.161  10.244   8.129 -0.3814 -0.2636  0.1518
  114MOL0     C14948   5.085  10.208   8.023  0.7465 -0.0044  0.4855
  114MOL0     C14949   4.952  10.171   8.044  0.3325  0.9769 -0.9216
  114MOL0     C14950   4.895  10.177   8.177 -0.0993 -0.9383 -0.1503
  114MOL0     O14951   4.763  10.152   8.210  0.0045  0.9064  0.1719
  114MOL0     C14952   4.696  10.036   8.163  0.3030  0.3466  0.3818
  114MOL0     C14953   4.546  10.029   8.192  0.3677 -0.4386 -0.5182
  114MOL0     C14954   4.472  10.125   8.090  0.2487  0.3377  0.3372
  114MOL0     C14955   4.318  10.147   8.122  0.1261 -0.3191  0.8138
  114MOL0     C14956   4.244  10.013   8.102 -1.0439 -0.7700  0.2397
  114MOL0     C14957   4.098  10.038   8.125 -0.6271  0.0562  1.0135
  114MOL0     C14958   4.037  10.085   7.989  0.1442 -0.0145 -1.4040
  114MOL0     C14959   3.889  10.112   8.003  0.0724  0.1061 -0.2958
  114MOL0    Cl14960   3.810  10.159   7.843  0.0803 -0.0053  0.5728
  114MOL0     C14961   4.974  10.222   8.282  0.4804 -0.1838  0.1793
  114MOL0     C14962   5.110  10.253   8.259 -0.1676  1.1918  0.3903
  114MOL0     O14963   5.398  10.137   8.262 -0.6038 -1.1176  0.0786
  114MOL0     C14964   5.537  10.314   7.975 -0.1799 -0.2104  0.2280
  114MOL0     C14965   5.656  10.337   7.893  0.6923 -0.3279  0.2805
  114MOL0     N14966   6.422  10.573   7.881 -0.0960  0.4240  0.0781
  114MOL0     N14967   6.538  10.618   7.847 -0.0649 -0.4206 -0.7913
  114MOL0     C14968   7.783  10.928   7.636  0.5865  0.4868  0.1785
  114MOL0     C14969   7.891  10.918   7.731 -0.3923  0.5068 -0.7924
  114MOL0     C14970   8.193  10.888   8.048 -1.0242 -0.9929  0.7632
  114MOL0     C14971   8.170  10.939   8.177 -0.0381 -0.0100  0.2520
  114MOL0     C14972   8.268  10.925   8.273 -0.0884 -0.1908 -0.9743
  114MOL0     C14973   8.403  10.887   8.241  0.7601 -0.3750  0.6009
  114MOL0     O14974   8.500  10.900   8.344 -0.5973  1.1370 -0.2500
  114MOL0     C14975   8.635  10.844   8.320 -0.3191 -0.0586  0.2535
  114MOL0     C14976   8.736  10.901   8.421 -0.6447 -0.3675  0.3745
  114MOL0     C14977   8.880  10.843   8.403  0.2820  0.0797  0.2417
  114MOL0     C14978   8.954  10.912   8.301  0.2595 -1.1227  0.6348
  114MOL0     C14979   9.092  10.867   8.299  0.0301 -0.6749  1.4956
  114MOL0     C14980   9.210  10.842   8.300  0.2920  0.3582 -0.4115
  114MOL0     C14981   8.418  10.842   8.112 -0.0796  0.3289  0.0408
  114MOL0     C14982   8.315  10.831   8.025 -0.9779 -0.0450  0.3752
  114MOL0     H14983   7.713  10.991   8.020 -1.8307 -2.6545 -0.8958
  114MOL0     H14984   7.545  11.052   7.842  0.3313 -0.0856  1.1367
  114MOL0     H14985   7.383  10.980   7.743 -0.3365 -1.9915  1.6763
  114MOL0     H14986   7.472  10.835   7.760 -1.7693 -1.2493 -0.5818
  114MOL0     H14987   7.366  10.777   7.537 -3.3009 -1.4413 -0.0032
  114MOL0     H14988   7.293  10.943   7.523  0.8708  0.6111 -0.5436
  114MOL0     H14989   7.137  10.907   7.695 -0.5113  0.0979  0.7975
  114MOL0     H14990   7.217  10.769   7.762  2.9474  1.4271 -0.3998
  114MOL0     H14991   7.093  10.777   7.478 -3.3459 -1.9176  0.1602
  114MOL0     H14992   7.148  10.637   7.578 -0.7290 -0.7794 -2.4470
  114MOL0     H14993   6.918  10.828   7.653  0.2797 -0.1951  1.3299
  114MOL0     H14994   6.962  10.658   7.723  1.3092 -1.3084 -0.8641
  114MOL0     H14995   6.934  10.572   7.493  1.0625  0.1366  0.3299
  114MOL0     H14996   6.865  10.723   7.439  1.5368  0.1761 -0.8425
  114MOL0     H14997   6.694  10.719   7.605  0.3092  0.2676  1.7944
  114MOL0     H14998   6.683  10.568   7.517 -0.4900  1.4413  0.0595
  114MOL0     H14999   6.785  10.598   7.804 -0.4344 -1.6810  1.3310
  114MOL0     H15000   6.795  10.452   7.716 -0.3375  0.5165  0.9058
  114MOL0     H15001   6.536  10.338   7.691  1.8853  2.5502 -3.6433
  114MOL0     H15002   6.269  10.359   7.944 -2.5429  0.1011 -0.7344
  114MOL0     H15003   6.299  10.275   7.781  2.7895  1.2897 -1.4972
  114MOL0     H15004   6.213  10.472   7.654  0.2910 -2.9326 -0.4914
  114MOL0     H15005   6.133  10.526   7.808  0.0968  3.6580 -3.4780
  114MOL0     H15006   6.042  10.364   7.592 -2.2877  0.5356  0.6346
  114MOL0     H15007   6.077  10.241   7.715 -0.1307  0.0081  1.0678
  114MOL0     H15008   5.854  10.279   7.691  3.2753 -0.8392 -1.0222
  114MOL0     H15009   5.879  10.462   7.725  3.7135  1.0426 -3.5723
  114MOL0     H15010   5.873  10.181   8.101 -0.6535 -1.0355  1.1371
  114MOL0     H15011   5.680  10.121   8.225  1.8780  1.0026  0.2876
  114MOL0     H15012   5.119  10.207   7.920  1.0327 -3.0766  0.5172
  114MOL0     H15013   4.875  10.161   7.968 -2.9867  1.1870  2.1401
  114MOL0     H15014   4.739   9.944   8.204  0.4205 -0.6216 -1.7830
  114MOL0     H15015   4.710  10.034   8.054  0.0693  1.4475  0.3219
  114MOL0     H15016   4.523  10.068   8.292 -0.3709 -3.3775  0.5658
  114MOL0     H15017   4.508   9.926   8.190  1.6340 -0.9677  0.6464
  114MOL0     H15018   4.492  10.094   7.987 -1.1517 -1.0909  0.4634
  114MOL0     H15019   4.518  10.222   8.112  0.1999  0.8508 -1.7005
  114MOL0     H15020   4.297  10.183   8.223  2.9372  1.2619  0.9467
  114MOL0     H15021   4.275  10.214   8.047  0.3702 -0.4582  0.5435
  114MOL0     H15022   4.282   9.944   8.179  2.3933 -0.5671 -1.0767
  114MOL0     H15023   4.257   9.962   8.007 -0.8668 -0.0074 -0.1514
  114MOL0     H15024   4.093  10.112   8.206  3.5028  1.3807  0.2746
  114MOL0     H15025   4.048   9.945   8.153  0.3429 -0.4603  1.0544
  114MOL0     H15026   4.093  10.172   7.954  0.9597  1.0003  2.0511
  114MOL0     H15027   4.056  10.010   7.912  0.4449 -0.4477 -0.9118
  114MOL0     H15028   3.877  10.197   8.070  3.8376  2.1227 -1.8429
  114MOL0     H15029   3.824  10.028   8.030  0.4969 -0.5030 -1.1058
  114MOL0     H15030   4.947  10.210   8.386 -0.8231 -1.6650 -0.2864
  114MOL0     H15031   5.179  10.267   8.341 -1.5086 -3.7891  2.7950
  114MOL0     H15032   5.444  10.365   7.953 -0.1431 -0.0917  0.3493
  114MOL0     H15033   5.655  10.409   7.812 -1.7433 -1.2235 -0.6147
  114MOL0     H15034   7.788  10.906   7.530 -0.3628 -2.1021  0.5900
  114MOL0     H15035   7.985  10.887   7.686  0.5743  1.0445  0.7812
  114MOL0     H15036   8.075  10.987   8.197  0.9932  2.4752 -0.3804
  114MOL0     H15037   8.249  10.967   8.372  1.1290 -2.2008  0.1733
  114MOL0     H15038   8.669  10.874   8.221 -1.9462 -2.6216 -1.1811
  114MOL0     H15039   8.642  10.735   8.317  2.8816  0.0557  0.3976
  114MOL0     H15040   8.740  11.010   8.420  2.1097 -0.3259  2.7728
  114MOL0     H15041   8.692  10.884   8.520  2.4317 -1.1643  1.7322
  114MOL0     H15042   8.872  10.738   8.373 -1.0905  0.4079 -0.6849
  114MOL0     H15043   8.939  10.841   8.494  3.3697 -3.3523 -1.5661
  114MOL0     H15044   8.902  10.888   8.208  1.7135 -1.1339 -0.2030
  114MOL0     H15045   8.954  11.018   8.329 -1.4232 -1.3604  1.7078
  114MOL0     H15046   9.313  10.810   8.303  0.5859  1.1944 -0.9138
  114MOL0     H15047   8.514  10.795   8.094  0.1019  0.0354  1.5981
  114MOL0     H15048   8.337  10.782   7.930 -1.9158  0.6839 -0.2372
  115MOL0     O15049   6.824   6.807   9.477 -0.0361  0.2926  0.2542
  115MOL0     C15050   6.816   6.889   9.386  0.2492 -0.5994 -0.3727
  115MOL0     O15051   6.739   7.007   9.385  0.5331  0.1165 -0.2064
  115MOL0     C15052   6.647   7.029   9.491  0.1277  0.1019  0.3014
  115MOL0     C15053   6.679   7.062   9.621 -0.6665  0.2712 -0.1991
  115MOL0     C15054   6.577   7.084   9.715  0.7477  0.2774  0.3085
  115MOL0     C15055   6.440   7.068   9.691  0.5901 -0.3521  1.2216
  115MOL0     O15056   6.347   7.093   9.796 -0.2629 -0.8226  0.0650
  115MOL0     C15057   6.212   7.044   9.767 -0.2216 -0.7926  0.5763
  115MOL0     C15058   6.117   7.101   9.867  0.1314 -0.1219 -0.1054
  115MOL0     C15059   5.973   7.081   9.827 -0.1501 -0.2094 -0.2695
  115MOL0     C15060   5.923   6.944   9.823  0.6076 -0.3991  0.3565
  115MOL0     C15061   5.787   6.942   9.739 -0.6218 -0.0332  1.1232
  115MOL0     C15062   5.692   6.822   9.770 -0.7259  0.0488 -0.0492
  115MOL0     C15063   5.551   6.843   9.708 -1.0633 -0.1856 -0.6200
  115MOL0     C15064   5.537   6.832   9.555 -0.4152 -0.9969 -0.0017
  115MOL0     N15065   5.392   6.842   9.513  0.4581  0.2751  1.0873
  115MOL0     C15066   5.293   6.938   9.516 -0.8299  0.0260 -0.1916
  115MOL0     C15067   5.173   6.874   9.500 -0.3608  0.1110  0.0268
  115MOL0     C15068   5.038   6.934   9.511 -0.0196 -0.1399  0.7120
  115MOL0     C15069   4.936   6.869   9.423 -0.6152  0.9100  0.3144
  115MOL0     C15070   4.796   6.938   9.432 -0.1672 -0.4316  0.0160
  115MOL0     C15071   4.680   6.864   9.350 -0.5480 -0.3046  0.1426
  115MOL0     O15072   4.553   6.933   9.367 -0.0256  0.5219  0.0815
  115MOL0     C15073   4.438   6.884   9.323  0.3425  0.2092 -0.2977
  115MOL0     C15074   4.329   6.974   9.342  0.2265  0.2655  1.0134
  115MOL0     C15075   4.204   6.943   9.313 -0.5005 -0.0106  0.8857
  115MOL0     C15076   4.180   6.812   9.269  0.6326  0.3619 -0.0320
  115MOL0     C15077   4.042   6.768   9.222  0.0506 -0.3268  0.3859
  115MOL0     O15078   4.026   6.632   9.184 -0.4949 -0.6034  0.7645
  115MOL0     C15079   3.900   6.589   9.149  0.5099 -0.7307 -0.3126
  115MOL0     C15080   3.848   6.637   9.021 -0.1108  0.5888  0.1641
  115MOL0     C15081   3.714   6.603   8.984  0.7794 -0.1878  0.7014
  115MOL0     C15082   3.636   6.525   9.066 -0.2987 -0.1072 -0.3626
  115MOL0     O15083   3.509   6.494   9.024  0.2893 -0.0308  0.2128
  115MOL0     C15084   3.409   6.451   9.117  0.4243  0.5425  0.0641
  115MOL0     C15085   3.285   6.408   9.040 -0.1087  0.5971 -0.3593
  115MOL0     C15086   3.231   6.521   8.951  0.1516  0.3667 -0.2892
  115MOL0     C15087   3.100   6.475   8.882  0.6708  0.0366 -0.0441
  115MOL0     C15088   3.071   6.569   8.763  0.0751  0.3771  0.3725
  115MOL0     C15089   2.948   6.523   8.677 -0.3927 -0.0443 -0.4913
  115MOL0     C15090   2.916   6.627   8.562 -0.6315  1.0257  0.3241
  115MOL0     C15091   2.778   6.597   8.503 -0.1066 -0.5900 -0.4015
  115MOL0    Cl15092   2.662   6.617   8.622 -0.4767  0.1900  0.0798
  115MOL0     C15093   3.689   6.483   9.189  0.2029 -0.7819 -0.1073
  115MOL0     C15094   3.820   6.516   9.229 -0.3550  1.0728 -0.0700
  115MOL0     O15095   3.956   6.849   9.229  0.0855 -0.2725 -0.1514
  115MOL0     C15096   4.290   6.715   9.251  0.3091 -0.1077  0.1059
  115MOL0     C15097   4.417   6.750   9.283  0.5029 -0.6762 -0.4792
  115MOL0     N15098   5.208   6.739   9.485  1.4292  0.7363  0.1786
  115MOL0     N15099   5.334   6.722   9.488  0.3998 -0.2983 -0.4795
  115MOL0     C15100   6.410   7.031   9.552 -0.1218 -0.1515 -0.1781
  115MOL0     C15101   6.517   7.003   9.461  1.0725  1.0148  0.3208
  115MOL0     C15102   6.906   6.858   9.266 -0.3437  0.4190  0.7100
  115MOL0     C15103   6.916   6.949   9.158  0.0544  0.1174 -0.7915
  115MOL0     C15104   7.005   6.924   9.054  0.1865  0.8012 -0.5635
  115MOL0     C15105   7.101   6.818   9.060  0.1263  0.5799  0.2489
  115MOL0     O15106   7.187   6.799   8.947  0.3485 -0.0721 -0.3604
  115MOL0     C15107   7.257   6.670   8.933  0.6137 -0.3097 -0.2738
  115MOL0     C15108   7.340   6.682   8.804 -0.0918 -0.8273  0.3654
  115MOL0     C15109   7.442   6.563   8.773 -0.5517 -0.1823 -1.2821
  115MOL0     C15110   7.549   6.554   8.885 -0.5767 -0.0542 -0.8240
  115MOL0     C15111   7.628   6.680   8.896 -0.0097 -0.0090  0.0708
  115MOL0     C15112   7.715   6.771   8.904 -0.6448 -0.2336 -0.2099
  115MOL0     C15113   7.078   6.723   9.164 -0.6947  0.3623  0.6421
  115MOL0     C15114   6.989   6.739   9.268 -0.8965 -0.2814 -0.4100
  115MOL0     H15115   6.780   7.080   9.658 -0.6369  1.3723 -0.7899
  115MOL0     H15116   6.605   7.100   9.819 -0.1957  4.1385  0.1357
  115MOL0     H15117   6.201   6.936   9.754  1.3016 -1.1379  1.9109
  115MOL0     H15118   6.185   7.094   9.674  2.4515  0.3779  0.3495
  115MOL0     H15119   6.144   7.206   9.883  1.5355 -0.2365 -1.5374
  115MOL0     H15120   6.136   7.050   9.963 -1.9934 -1.2122 -0.2143
  115MOL0     H15121   5.951   7.132   9.733 -0.4078 -1.2738 -0.7917
  115MOL0     H15122   5.913   7.131   9.904  0.3779  0.0462 -0.0179
  115MOL0     H15123   5.999   6.872   9.790  0.7662  0.0685 -0.3235
  115MOL0     H15124   5.882   6.914   9.919  2.4394 -1.1843  0.9332
  115MOL0     H15125   5.805   6.929   9.632 -1.0469  1.3456  0.8713
  115MOL0     H15126   5.740   7.039   9.754  0.8815  0.7964  0.6933
  115MOL0     H15127   5.682   6.817   9.879  0.4665  1.1697  0.1443
  115MOL0     H15128   5.726   6.724   9.737 -1.2082 -0.7517  1.7083
  115MOL0     H15129   5.490   6.763   9.751  0.7192 -0.9356  0.6405
  115MOL0     H15130   5.522   6.939   9.751  2.7643  0.2120  1.5298
  115MOL0     H15131   5.578   6.735   9.525  0.7600 -0.1387 -1.3160
  115MOL0     H15132   5.599   6.908   9.507 -3.4485  2.2744  0.8857
  115MOL0     H15133   5.307   7.043   9.539 -1.1720  0.4831 -1.9108
  115MOL0     H15134   5.036   7.036   9.472 -0.1799 -0.8711 -1.3052
  115MOL0     H15135   5.013   6.918   9.616  0.5571  3.2784  1.4833
  115MOL0     H15136   4.946   6.761   9.438  0.8180  0.7753 -1.3913
  115MOL0     H15137   4.960   6.880   9.317  1.5407 -1.0649  0.5138
  115MOL0     H15138   4.764   6.958   9.535 -0.5051 -1.6917  0.1698
  115MOL0     H15139   4.810   7.038   9.391 -3.5647 -0.4079 -1.3700
  115MOL0     H15140   4.685   6.766   9.398  0.9423 -0.0649  0.5337
  115MOL0     H15141   4.709   6.866   9.245  0.2448  1.3150  0.3597
  115MOL0     H15142   4.345   7.073   9.383  0.7122  0.6623 -0.0991
  115MOL0     H15143   4.124   7.013   9.334  1.5137  2.7255 -0.0733
  115MOL0     H15144   3.907   6.700   8.955 -0.0928  0.5152  0.1101
  115MOL0     H15145   3.665   6.648   8.898 -2.6746  1.2085  3.1427
  115MOL0     H15146   3.383   6.522   9.196 -0.5488 -2.2115  2.3764
  115MOL0     H15147   3.438   6.362   9.173 -5.6813  0.0132  3.2814
  115MOL0     H15148   3.210   6.372   9.111 -0.5104  0.2448 -0.9577
  115MOL0     H15149   3.321   6.324   8.980 -1.5522  0.1477 -0.6234
  115MOL0     H15150   3.306   6.539   8.874  0.4571  1.3603  0.2230
  115MOL0     H15151   3.218   6.612   9.010  2.8542  0.1463  0.7946
  115MOL0     H15152   3.109   6.369   8.854 -0.0470  0.2960 -1.3557
  115MOL0     H15153   3.022   6.475   8.958 -0.2381 -0.3356 -0.9533
  115MOL0     H15154   3.155   6.565   8.693  1.4159  2.7836  1.7323
  115MOL0     H15155   3.072   6.674   8.795  2.5441  0.8764 -1.0948
  115MOL0     H15156   2.867   6.499   8.747 -0.3945 -1.4429 -0.9508
  115MOL0     H15157   2.985   6.432   8.629  1.5265  0.3261  0.1804
  115MOL0     H15158   2.905   6.720   8.619 -1.1298  1.4167 -0.3916
  115MOL0     H15159   2.997   6.640   8.489 -2.1803  1.4313 -1.3894
  115MOL0     H15160   2.788   6.490   8.483  1.4137 -1.2595  3.1863
  115MOL0     H15161   2.751   6.643   8.407 -0.3877 -0.5711 -0.3149
  115MOL0     H15162   3.624   6.435   9.261 -1.7786 -1.8492 -2.4396
  115MOL0     H15163   3.862   6.495   9.327  2.2048  0.3955 -1.2440
  115MOL0     H15164   4.258   6.616   9.220 -2.9410  1.6082 -2.7211
  115MOL0     H15165   4.498   6.678   9.285  1.7670  0.6719  2.8213
  115MOL0     H15166   6.308   7.001   9.531 -0.0977  0.3359 -1.0418
  115MOL0     H15167   6.497   6.977   9.358  2.6204 -1.1829  0.4947
  115MOL0     H15168   6.860   7.042   9.158 -0.1562  0.1096  2.2788
  115MOL0     H15169   7.013   6.986   8.965 -0.6766  1.9881  0.1655
  115MOL0     H15170   7.188   6.587   8.912  1.1021 -0.2260 -2.4542
  115MOL0     H15171   7.334   6.666   9.010  0.1257  0.6983  0.2901
  115MOL0     H15172   7.281   6.694   8.713  1.1906 -0.0507 -0.3946
  115MOL0     H15173   7.392   6.778   8.797  3.9160 -2.8946 -1.4593
  115MOL0     H15174   7.494   6.589   8.680 -3.6855  2.7351 -2.4511
  115MOL0     H15175   7.385   6.470   8.770  0.8161 -1.0672 -0.6342
  115MOL0     H15176   7.509   6.541   8.986 -0.1049  0.1531 -0.6088
  115MOL0     H15177   7.609   6.467   8.859  0.3279 -0.3053  1.8050
  115MOL0     H15178   7.793   6.843   8.919 -0.9368  0.0644 -0.1098
  115MOL0     H15179   7.124   6.625   9.159 -2.1975 -0.4644  2.0273
  115MOL0     H15180   6.990   6.658   9.340  3.7656 -1.1084 -1.1117
  116MOL0     O15181   1.188   4.737  10.091 -0.4743 -0.9480  0.6209
  116MOL0     C15182   1.229   4.675  10.191  0.4087  0.3466 -0.1331
  116MOL0     O15183   1.348   4.681  10.249 -0.5370 -0.5056 -0.5114
  116MOL0     C15184   1.440   4.777  10.199 -0.2560  0.5677  0.5316
  116MOL0     C15185   1.497   4.762  10.069 -0.4686  0.3077  0.4219
  116MOL0     C15186   1.598   4.844  10.017 -0.8572 -0.4838  0.6767
  116MOL0     C15187   1.637   4.959  10.088  0.6196 -0.0557  0.3108
  116MOL0     O15188   1.735   5.045  10.042 -0.3841 -0.0144  1.0036
  116MOL0     C15189   1.707   5.186  10.048 -0.0829 -1.1490 -0.4769
  116MOL0     C15190   1.816   5.282  10.097  0.1137 -0.3346  0.4648
  116MOL0     C15191   1.825   5.404  10.007 -0.1915 -0.4966 -0.5448
  116MOL0     C15192   1.897   5.505  10.090  0.4999  0.4060 -0.4647
  116MOL0     C15193   1.944   5.627  10.011  0.0306  0.2791 -0.5348
  116MOL0     C15194   2.068   5.698  10.054  0.2656 -0.2655 -0.2012
  116MOL0     C15195   2.088   5.818   9.956 -0.0014 -0.2121 -0.5743
  116MOL0     C15196   2.224   5.892  10.008 -0.0375 -0.2270  0.6843
  116MOL0     N15197   2.229   6.019   9.930  0.4726 -0.3744  0.0813
  116MOL0     C15198   2.162   6.128   9.970 -0.1738 -1.2870  0.2047
  116MOL0     C15199   2.185   6.225   9.882  0.2351 -0.5330  0.9511
  116MOL0     C15200   2.151   6.366   9.895 -0.4352  0.1794  0.2061
  116MOL0     C15201   2.258   6.476   9.858 -1.0929  0.4523 -0.8054
  116MOL0     C15202   2.212   6.613   9.906 -1.0095 -0.2980 -0.4218
  116MOL0     C15203   2.308   6.729   9.872 -0.4800  0.8815  0.1446
  116MOL0     O15204   2.255   6.861   9.891  0.3355 -0.0748 -0.4307
  116MOL0     C15205   2.340   6.969   9.868  0.3633 -0.0824 -0.4180
  116MOL0     C15206   2.291   7.095   9.908  0.0418  0.4617 -0.4386
  116MOL0     C15207   2.356   7.212   9.883  0.0582 -0.4779  0.4082
  116MOL0     C15208   2.473   7.215   9.807  0.4025  0.4284 -0.4847
  116MOL0     C15209   2.545   7.339   9.781  0.9436  0.3965  0.2005
  116MOL0     O15210   2.475   7.451   9.795  0.0945  0.1831  0.2982
  116MOL0     C15211   2.510   7.574   9.749 -0.2474 -0.0542  0.1748
  116MOL0     C15212   2.422   7.677   9.789 -0.2067  0.5692 -0.4526
  116MOL0     C15213   2.431   7.814   9.744 -0.6328  0.5762  0.1707
  116MOL0     C15214   2.532   7.844   9.651  0.9035 -0.4300  0.3332
  116MOL0     O15215   2.538   7.973   9.608 -0.0050 -0.6854  0.3680
  116MOL0     C15216   2.612   7.991   9.487  0.0508 -0.4420  0.5062
  116MOL0     C15217   2.600   8.136   9.431  0.7650  1.1971 -0.4039
  116MOL0     C15218   2.739   8.182   9.370  0.8277  0.4788 -0.3560
  116MOL0     C15219   2.735   8.327   9.321  0.1805  0.2576  0.0451
  116MOL0     C15220   2.871   8.378   9.296 -0.2879 -0.8782  0.3959
  116MOL0     C15221   2.887   8.506   9.209  0.1315 -0.2542  0.1841
  116MOL0     C15222   3.029   8.568   9.234  0.2836  0.2719 -0.0516
  116MOL0     C15223   3.065   8.657   9.108 -0.0587  0.0485  0.4587
  116MOL0    Cl15224   3.061   8.561   8.955 -0.7044  0.4016 -0.2212
  116MOL0     C15225   2.634   7.746   9.630  0.2895 -0.1025  1.4400
  116MOL0     C15226   2.618   7.612   9.671  0.1669 -0.7167  0.1945
  116MOL0     O15227   2.656   7.337   9.742  0.0519  0.0558 -0.1817
  116MOL0     C15228   2.514   7.099   9.755 -0.1230 -0.0463 -0.4779
  116MOL0     C15229   2.457   6.974   9.790  0.3953 -0.0475 -0.1912
  116MOL0     N15230   2.270   6.175   9.782 -0.0659 -0.7042 -1.4823
  116MOL0     N15231   2.294   6.050   9.810  0.1331 -0.1218 -0.3552
  116MOL0     C15232   1.570   4.978  10.214 -0.2537  0.1884 -0.2194
  116MOL0     C15233   1.486   4.886  10.275  0.6559 -1.2341 -0.4204
  116MOL0     C15234   1.141   4.572  10.238  0.3853  0.0861 -0.3651
  116MOL0     C15235   1.085   4.477  10.151 -0.9193 -0.5041 -0.2325
  116MOL0     C15236   1.005   4.374  10.199  0.1107  0.4005 -0.4894
  116MOL0     C15237   0.986   4.363  10.333  0.6369  0.5606  0.0988
  116MOL0     O15238   0.898   4.256  10.361 -0.0844  0.0594 -1.3476
  116MOL0     C15239   0.821   4.241  10.482 -0.5706  0.6134  0.2528
  116MOL0     C15240   0.729   4.359  10.523  0.1516  0.3141  0.1069
  116MOL0     C15241   0.748   4.381  10.672  0.3333  0.3219 -0.0460
  116MOL0     C15242   0.702   4.263  10.765  0.2296  0.1212  0.1774
  116MOL0     C15243   0.716   4.281  10.913 -0.3149  0.8678  0.4650
  116MOL0     C15244   0.743   4.297  11.030  0.6940 -0.6543  0.1280
  116MOL0     C15245   1.054   4.448  10.416  0.0039 -0.1924 -0.3781
  116MOL0     C15246   1.127   4.556  10.375 -0.5263 -0.7011  0.3085
  116MOL0     H15247   1.463   4.683  10.003 -0.8134  2.4028 -2.0658
  116MOL0     H15248   1.661   4.825   9.930  0.2557  0.8428  1.1465
  116MOL0     H15249   1.616   5.211  10.104 -0.7505 -2.7752 -0.7635
  116MOL0     H15250   1.687   5.233   9.951  0.7156  2.2282  0.8515
  116MOL0     H15251   1.913   5.232  10.092 -0.2908 -1.0002 -0.9742
  116MOL0     H15252   1.800   5.315  10.200  3.5578  1.0561  0.6809
  116MOL0     H15253   1.731   5.449   9.976  0.5428  0.9692 -0.7489
  116MOL0     H15254   1.879   5.380   9.914 -0.0609  2.4102 -1.3042
  116MOL0     H15255   1.839   5.538  10.177 -1.0294  1.7723 -1.9205
  116MOL0     H15256   1.991   5.464  10.125  0.7805 -0.6120 -2.2814
  116MOL0     H15257   1.863   5.701  10.015 -0.4783 -0.3480  2.7890
  116MOL0     H15258   1.968   5.588   9.911 -1.6052 -0.8982 -0.4948
  116MOL0     H15259   2.142   5.621  10.032 -0.5545 -0.7219 -1.4781
  116MOL0     H15260   2.066   5.723  10.160 -1.7460  2.1610 -0.7319
  116MOL0     H15261   2.084   5.797   9.849  1.4319 -1.1693 -0.4707
  116MOL0     H15262   2.010   5.891   9.976  2.6235  3.0031 -1.2815
  116MOL0     H15263   2.306   5.827   9.977  1.0399  1.2436  0.3323
  116MOL0     H15264   2.221   5.916  10.114 -0.0444 -0.2692  0.6941
  116MOL0     H15265   2.104   6.133  10.061 -0.6964  2.1721 -0.1867
  116MOL0     H15266   2.112   6.396   9.993  2.0313  1.7877  0.7966
  116MOL0     H15267   2.072   6.385   9.822  0.0442 -2.2180 -1.0234
  116MOL0     H15268   2.277   6.480   9.751 -0.4025  1.7322 -0.6534
  116MOL0     H15269   2.349   6.447   9.910 -1.3234  2.6062  0.9953
  116MOL0     H15270   2.112   6.633   9.864 -1.8066  0.0968  1.5408
  116MOL0     H15271   2.210   6.609  10.016 -1.4327 -2.8059 -0.4504
  116MOL0     H15272   2.341   6.732   9.768  1.0112  1.7292  0.6142
  116MOL0     H15273   2.408   6.709   9.911 -0.9474  0.8568  1.3581
  116MOL0     H15274   2.201   7.096   9.968  1.4114 -1.1802  1.8021
  116MOL0     H15275   2.311   7.301   9.926  0.7382 -0.9182  2.1198
  116MOL0     H15276   2.354   7.647   9.868  0.6408  1.5847  0.6908
  116MOL0     H15277   2.364   7.888   9.786 -1.5550 -0.9175  1.4666
  116MOL0     H15278   2.575   7.917   9.414  1.7044 -0.5231 -0.2879
  116MOL0     H15279   2.715   7.955   9.492  0.4464  0.7585  1.1957
  116MOL0     H15280   2.555   8.208   9.501  0.3885  2.5886 -2.0249
  116MOL0     H15281   2.531   8.145   9.347 -1.8569  2.8784  1.7479
  116MOL0     H15282   2.769   8.118   9.287 -0.3527  0.8099 -1.0564
  116MOL0     H15283   2.813   8.184   9.452 -1.3564  3.0714  1.7731
  116MOL0     H15284   2.671   8.344   9.235  0.3546  2.2770  0.2633
  116MOL0     H15285   2.691   8.390   9.399  0.7056 -0.1447  0.6862
  116MOL0     H15286   2.936   8.306   9.244  1.5971  0.8904  0.1457
  116MOL0     H15287   2.915   8.403   9.393 -1.1085  2.8117 -0.0485
  116MOL0     H15288   2.807   8.579   9.224 -2.4786 -2.9799  0.6268
  116MOL0     H15289   2.885   8.479   9.103  1.5721  0.9960 -0.1831
  116MOL0     H15290   3.025   8.633   9.322 -3.5705  0.0849  0.0673
  116MOL0     H15291   3.098   8.483   9.242 -1.7910 -1.2723  4.5128
  116MOL0     H15292   3.157   8.713   9.128 -0.8971  1.5120  0.3726
  116MOL0     H15293   2.988   8.733   9.097 -0.7695 -0.0425  3.7168
  116MOL0     H15294   2.715   7.764   9.560 -0.7204 -1.7737 -0.2564
  116MOL0     H15295   2.685   7.529   9.651 -0.5758 -2.2844  3.4468
  116MOL0     H15296   2.607   7.096   9.700 -0.0274 -0.0446 -0.3152
  116MOL0     H15297   2.498   6.887   9.740 -0.7058  0.7231 -2.6129
  116MOL0     H15298   1.598   5.061  10.277 -1.6579 -0.5988  1.5272
  116MOL0     H15299   1.444   4.903  10.374 -0.5349  0.6924 -1.2052
  116MOL0     H15300   1.113   4.483  10.046 -0.4487  0.8102 -0.0536
  116MOL0     H15301   0.954   4.306  10.133  2.6893 -0.7813 -1.3785
  116MOL0     H15302   0.895   4.228  10.562  1.8246 -1.1955 -2.0796
  116MOL0     H15303   0.763   4.149  10.470 -0.3693  0.5456 -0.2192
  116MOL0     H15304   0.758   4.447  10.466  0.5508 -1.3853 -2.4859
  116MOL0     H15305   0.624   4.341  10.498 -0.4923  0.9758  2.1059
  116MOL0     H15306   0.690   4.467  10.707  0.7099 -0.3567  2.5055
  116MOL0     H15307   0.851   4.410  10.689 -0.1264  0.9935  1.8373
  116MOL0     H15308   0.596   4.251  10.741 -0.0909 -0.0923  1.6199
  116MOL0     H15309   0.758   4.175  10.733 -1.8628 -0.3441 -2.5717
  116MOL0     H15310   0.769   4.297  11.134  1.9604 -2.3648 -0.1545
  116MOL0     H15311   1.036   4.437  10.523  1.3819  0.8637 -0.0146
  116MOL0     H15312   1.176   4.622  10.446 -1.3434  1.2718 -0.8501
  117MOL0     O15313  11.026  10.029   7.610 -0.4503  0.3304  0.3456
  117MOL0     C15314  11.058  10.144   7.585 -0.2406  0.1414  0.4883
  117MOL0     O15315  10.982  10.239   7.518 -0.1776  0.5093 -0.0207
  117MOL0     C15316  10.859  10.207   7.473  0.2239 -0.9250 -0.0775
  117MOL0     C15317  10.745  10.274   7.537  0.1640 -0.0038 -0.8225
  117MOL0     C15318  10.619  10.237   7.500  0.2407  0.3977  0.2909
  117MOL0     C15319  10.588  10.132   7.414 -0.1738  0.4898 -0.5438
  117MOL0     O15320  10.457  10.109   7.388  0.0478  0.2273  0.0767
  117MOL0     C15321  10.418  10.042   7.272 -0.5931  0.3338  0.5341
  117MOL0     C15322  10.283  10.098   7.214  0.1976  0.6891 -1.1957
  117MOL0     C15323  10.274  10.245   7.177  0.6989 -0.1597 -0.0279
  117MOL0     C15324  10.139  10.283   7.115 -0.0600 -0.7067 -0.4065
  117MOL0     C15325  10.104  10.207   6.989  0.3514  0.0114  0.2733
  117MOL0     C15326   9.982  10.260   6.926 -0.1096  0.2651 -1.1563
  117MOL0     C15327   9.950  10.158   6.823 -0.1266  0.1104  0.2139
  117MOL0     C15328   9.921  10.020   6.873  0.8673  0.1797 -0.0510
  117MOL0     N15329   9.838   9.941   6.778  0.7276 -0.4301 -0.1387
  117MOL0     C15330   9.728   9.862   6.817 -0.8315 -0.2140 -0.7201
  117MOL0     C15331   9.666   9.830   6.705 -1.1626  0.2248 -0.4445
  117MOL0     C15332   9.548   9.743   6.694 -0.0141  0.1751  0.1961
  117MOL0     C15333   9.417   9.816   6.654  0.6166  0.8119 -0.7176
  117MOL0     C15334   9.367   9.896   6.773 -0.0077  0.5049  0.6877
  117MOL0     C15335   9.228   9.954   6.744  0.0002 -0.3654  0.1245
  117MOL0     O15336   9.207  10.002   6.619  0.8281 -0.0525 -0.5760
  117MOL0     C15337   9.093  10.064   6.586  0.1444  0.0874 -0.0344
  117MOL0     C15338   9.088  10.132   6.463  0.8993 -0.4836  0.7866
  117MOL0     C15339   8.980  10.200   6.421  0.3200  0.3947  0.3233
  117MOL0     C15340   8.864  10.203   6.501  0.1144  0.2439  0.0985
  117MOL0     C15341   8.741  10.273   6.448  0.8259 -0.2576  0.0754
  117MOL0     O15342   8.751  10.327   6.323  0.0963  0.1608  0.3150
  117MOL0     C15343   8.634  10.384   6.270 -0.4923 -0.0382  0.5893
  117MOL0     C15344   8.614  10.517   6.233 -0.5204  0.0012  0.6284
  117MOL0     C15345   8.493  10.567   6.186  0.4101 -0.2959  0.8413
  117MOL0     C15346   8.378  10.488   6.168  0.1506 -0.2712  1.1184
  117MOL0     O15347   8.270  10.552   6.116  0.2029 -0.7728  0.3297
  117MOL0     C15348   8.153  10.475   6.115  1.6002 -0.1083  0.1625
  117MOL0     C15349   8.033  10.551   6.047  0.0475 -0.1270  0.2800
  117MOL0     C15350   7.907  10.479   6.083 -0.4417  0.5233  0.2604
  117MOL0     C15351   7.775  10.539   6.028  0.0668 -0.4353 -0.1563
  117MOL0     C15352   7.721  10.481   5.903  0.2978 -0.3514  0.9200
  117MOL0     C15353   7.664  10.341   5.906 -0.2900  0.7812 -0.0514
  117MOL0     C15354   7.626  10.299   5.759  0.8615  0.1672 -0.3658
  117MOL0     C15355   7.508  10.375   5.701 -0.2389 -0.2039 -0.7661
  117MOL0    Cl15356   7.471  10.313   5.535  0.2320 -0.0625  0.0424
  117MOL0     C15357   8.402  10.352   6.185  1.3866  0.9642 -0.4956
  117MOL0     C15358   8.521  10.302   6.234 -0.0257  0.2408 -0.2732
  117MOL0     O15359   8.638  10.277   6.518  0.3762  0.2130  0.7067
  117MOL0     C15360   8.868  10.133   6.629  0.4572 -0.1316 -0.9639
  117MOL0     C15361   8.981  10.063   6.669 -0.5309  0.3358  0.8705
  117MOL0     N15362   9.742   9.880   6.601 -0.5384  0.9689 -0.1908
  117MOL0     N15363   9.844   9.952   6.640  0.0366 -0.2251  0.4427
  117MOL0     C15364  10.700  10.068   7.350  0.2476  1.5278 -0.6033
  117MOL0     C15365  10.832  10.111   7.369 -0.3332  0.2584 -0.1866
  117MOL0     C15366  11.194  10.188   7.642  0.0380  0.0166  0.4678
  117MOL0     C15367  11.292  10.094   7.681 -0.2352 -1.0160 -0.5870
  117MOL0     C15368  11.412  10.145   7.732 -0.0398 -0.6061 -0.2245
  117MOL0     C15369  11.445  10.280   7.745 -0.7291 -0.2276 -0.4120
  117MOL0     O15370  11.553  10.340   7.803 -0.0375 -0.4738  0.0533
  117MOL0     C15371  11.634  10.258   7.883 -0.3694 -0.1817 -0.3774
  117MOL0     C15372  11.774  10.326   7.907  0.7519 -0.7379  0.3926
  117MOL0     C15373  11.759  10.465   7.971 -0.8275 -0.0786  0.3453
  117MOL0     C15374  11.886  10.540   7.940 -0.1036 -0.1915  0.2178
  117MOL0     C15375  11.872  10.675   7.988 -0.3044 -0.0329 -0.5630
  117MOL0     C15376  11.866  10.785   8.037  1.2732 -0.1276  0.1892
  117MOL0     C15377  11.354  10.372   7.698 -0.4033  0.4808  0.2264
  117MOL0     C15378  11.233  10.328   7.637 -0.1914  0.1204  0.4953
  117MOL0     H15379  10.769  10.352   7.608  1.9492 -1.5962  0.4076
  117MOL0     H15380  10.542  10.309   7.528  0.3494  0.2744  0.9139
  117MOL0     H15381  10.401   9.938   7.301  0.1050 -0.1072 -0.5866
  117MOL0     H15382  10.497  10.058   7.198 -0.7454  0.3841  0.3815
  117MOL0     H15383  10.204  10.079   7.288  3.1077 -0.1906  1.8966
  117MOL0     H15384  10.268  10.032   7.128 -0.8972  0.2946 -0.7255
  117MOL0     H15385  10.356  10.274   7.110 -0.2237  2.8726 -0.0013
  117MOL0     H15386  10.290  10.308   7.265  0.4624 -2.5437  1.7962
  117MOL0     H15387  10.062  10.261   7.190  1.7040 -2.1142  1.0709
  117MOL0     H15388  10.134  10.391   7.097 -0.4514 -0.1179  2.6583
  117MOL0     H15389  10.094  10.101   7.013 -0.3360 -0.7141 -2.7817
  117MOL0     H15390  10.185  10.221   6.916 -0.9440  0.7915 -1.0808
  117MOL0     H15391  10.002  10.357   6.880  3.1424  1.1346  1.6929
  117MOL0     H15392   9.897  10.255   6.995  0.0379 -1.9524 -1.0525
  117MOL0     H15393   9.857  10.198   6.781  0.5279  2.5996  0.9569
  117MOL0     H15394  10.026  10.151   6.745  1.5644 -0.1741  1.8343
  117MOL0     H15395   9.886  10.021   6.977  0.3821 -1.2773 -0.1691
  117MOL0     H15396  10.013   9.960   6.872 -0.2086 -1.5534 -1.6084
  117MOL0     H15397   9.719   9.831   6.920  3.9205  1.7066  0.5541
  117MOL0     H15398   9.547   9.681   6.784 -0.2508  1.2542  0.9539
  117MOL0     H15399   9.574   9.675   6.613 -2.1476 -0.3101 -0.1398
  117MOL0     H15400   9.336   9.746   6.632  0.2816  0.8022  0.4457
  117MOL0     H15401   9.429   9.883   6.569 -0.2647  2.0640  0.1079
  117MOL0     H15402   9.349   9.830   6.858  0.3078 -0.3710  0.0869
  117MOL0     H15403   9.439   9.976   6.794 -0.8818  0.6296  3.6814
  117MOL0     H15404   9.216  10.039   6.812 -1.4483  0.6056 -1.2750
  117MOL0     H15405   9.158   9.876   6.776  0.3111 -0.1595  1.3805
  117MOL0     H15406   9.172  10.118   6.396 -0.9942  0.0356 -1.9046
  117MOL0     H15407   8.993  10.253   6.328  0.8154 -0.6999 -0.2438
  117MOL0     H15408   8.702  10.579   6.248  0.0715 -0.6110 -0.2366
  117MOL0     H15409   8.493  10.670   6.153 -0.8666 -1.1243 -2.0715
  117MOL0     H15410   8.115  10.454   6.215 -0.7792 -1.0061 -0.8392
  117MOL0     H15411   8.163  10.382   6.059 -0.0407  1.1951 -2.5221
  117MOL0     H15412   8.036  10.563   5.938 -1.0098 -2.7002 -0.0934
  117MOL0     H15413   8.038  10.653   6.086 -1.0235  0.4515 -1.0103
  117MOL0     H15414   7.892  10.478   6.191 -1.7123  0.1601  0.0989
  117MOL0     H15415   7.921  10.377   6.044  1.8577  1.4813 -1.7022
  117MOL0     H15416   7.694  10.518   6.099 -2.3617 -1.2047 -2.9590
  117MOL0     H15417   7.791  10.645   6.008 -1.3082 -0.1519  0.1248
  117MOL0     H15418   7.796  10.478   5.824 -0.9382 -0.0668 -0.3125
  117MOL0     H15419   7.636  10.539   5.866 -0.5658 -2.7455 -1.1149
  117MOL0     H15420   7.578  10.328   5.972 -0.4511  3.9814  0.4997
  117MOL0     H15421   7.734  10.274   5.957  0.9685  3.1426  1.4954
  117MOL0     H15422   7.712  10.316   5.693  0.4390  1.6057 -0.5834
  117MOL0     H15423   7.600  10.193   5.762 -1.9928  0.7823 -0.8928
  117MOL0     H15424   7.528  10.483   5.692 -0.7729  0.4030  3.4599
  117MOL0     H15425   7.420  10.372   5.765 -1.2843  0.0616 -2.1268
  117MOL0     H15426   8.328  10.275   6.165  0.4611  1.3863  1.1363
  117MOL0     H15427   8.532  10.196   6.256  1.1698  0.2307 -0.8219
  117MOL0     H15428   8.788  10.133   6.702 -1.3190 -2.1060 -2.7884
  117MOL0     H15429   8.983  10.013   6.765 -1.0869 -2.6739 -0.5876
  117MOL0     H15430  10.679   9.987   7.281  0.7906  1.4756 -0.7084
  117MOL0     H15431  10.919  10.063   7.324  0.5579 -2.5089  3.9275
  117MOL0     H15432  11.274   9.987   7.685  2.3003 -1.5216 -0.8962
  117MOL0     H15433  11.480  10.065   7.759  1.2041  1.4218  3.4107
  117MOL0     H15434  11.648  10.157   7.843  2.4446 -0.8561  2.0112
  117MOL0     H15435  11.587  10.240   7.980 -1.8532  1.6764 -0.6915
  117MOL0     H15436  11.830  10.261   7.975 -0.8083 -0.1427  2.3567
  117MOL0     H15437  11.827  10.326   7.811 -0.6279  0.5245 -0.4239
  117MOL0     H15438  11.745  10.467   8.079 -0.5572  1.6136  0.3730
  117MOL0     H15439  11.686  10.528   7.919  0.2028 -0.7245 -2.0267
  117MOL0     H15440  11.966  10.492   7.997 -0.7106  0.2780  1.5094
  117MOL0     H15441  11.907  10.525   7.834  0.0134 -0.6034  0.2966
  117MOL0     H15442  11.855  10.876   8.092 -0.3462 -0.0013 -0.3055
  117MOL0     H15443  11.385  10.476   7.702  2.9537 -0.4014  0.4873
  117MOL0     H15444  11.167  10.401   7.591 -1.9220  0.0590  2.7321
  118MOL0     O15445   0.391   4.348   5.842 -0.5279 -0.6196 -0.8181
  118MOL0     C15446   0.401   4.425   5.939  0.2745 -0.5725  0.9944
  118MOL0     O15447   0.483   4.537   5.957  0.1459  0.8448  0.3591
  118MOL0     C15448   0.576   4.562   5.855 -0.1005  0.2593  0.1122
  118MOL0     C15449   0.691   4.483   5.827 -0.3230 -0.6901 -0.6454
  118MOL0     C15450   0.789   4.515   5.733  0.3632  0.3604  0.3367
  118MOL0     C15451   0.770   4.630   5.657  0.1864 -0.0724  0.9440
  118MOL0     O15452   0.877   4.675   5.581  0.0908 -0.3608 -0.3195
  118MOL0     C15453   0.852   4.766   5.470  0.7364 -0.7370 -0.1599
  118MOL0     C15454   0.975   4.780   5.383  0.6142 -0.0619  0.1708
  118MOL0     C15455   1.043   4.922   5.371 -0.5013 -0.4744 -0.1762
  118MOL0     C15456   1.056   4.990   5.513 -0.3528 -0.9298 -0.0833
  118MOL0     C15457   1.158   5.106   5.503 -0.6302  1.1522  0.6708
  118MOL0     C15458   1.160   5.179   5.640 -0.2033  0.2198  0.0755
  118MOL0     C15459   1.218   5.322   5.626 -0.9533 -0.1313 -0.1077
  118MOL0     C15460   1.372   5.335   5.590 -0.6865  0.3383  0.0819
  118MOL0     N15461   1.462   5.288   5.697  0.0553  0.8826  0.5648
  118MOL0     C15462   1.526   5.170   5.688  0.2637  0.4646 -0.1287
  118MOL0     C15463   1.604   5.166   5.796  0.3382  0.1741 -1.5644
  118MOL0     C15464   1.714   5.069   5.836 -0.2837  0.7325  0.4764
  118MOL0     C15465   1.803   5.019   5.714 -0.3925  0.3823 -0.1690
  118MOL0     C15466   1.883   5.141   5.663 -0.1475  0.9274  0.3766
  118MOL0     C15467   1.954   5.101   5.531  0.9258 -0.1557  0.2192
  118MOL0     O15468   1.856   5.073   5.422 -0.1791 -0.8992 -0.7729
  118MOL0     C15469   1.770   5.171   5.373 -0.4550 -0.2783  0.6428
  118MOL0     C15470   1.650   5.132   5.313 -0.6961 -0.2690  0.6127
  118MOL0     C15471   1.555   5.225   5.268 -0.3305  0.5100  0.8328
  118MOL0     C15472   1.586   5.362   5.269  0.8180 -0.0853 -0.6653
  118MOL0     C15473   1.483   5.460   5.230 -0.0019 -0.2614  0.7315
  118MOL0     O15474   1.378   5.412   5.164 -0.1189 -0.0581  0.3878
  118MOL0     C15475   1.279   5.502   5.136 -0.1909  0.3764 -0.7247
  118MOL0     C15476   1.166   5.504   5.222  0.2037 -0.2366  0.2418
  118MOL0     C15477   1.057   5.602   5.206 -0.3237  0.1768  0.2942
  118MOL0     C15478   1.059   5.693   5.098  0.0675  0.1202  0.5701
  118MOL0     O15479   0.981   5.806   5.079 -0.1846 -0.1840  0.1795
  118MOL0     C15480   0.866   5.818   5.164 -1.0255 -0.2650  0.1877
  118MOL0     C15481   0.751   5.741   5.105 -0.9408  0.3588  0.9262
  118MOL0     C15482   0.613   5.778   5.167 -0.4683 -0.0521  0.1532
  118MOL0     C15483   0.604   5.742   5.316  0.4082 -0.2589  0.5977
  118MOL0     C15484   0.462   5.765   5.369 -0.3043  0.0906  0.4815
  118MOL0     C15485   0.460   5.743   5.519 -0.0013  0.2482 -0.3315
  118MOL0     C15486   0.315   5.746   5.571 -0.7591 -1.0828  0.0196
  118MOL0     C15487   0.300   5.732   5.724  0.0075 -0.1471  0.1022
  118MOL0    Cl15488   0.132   5.727   5.784  0.1797  0.0987  0.2851
  118MOL0     C15489   1.170   5.687   5.013  0.1631  0.6811  0.1848
  118MOL0     C15490   1.277   5.599   5.034  0.0341  0.3088  0.0389
  118MOL0     O15491   1.494   5.573   5.274  0.6606  0.3197  0.0054
  118MOL0     C15492   1.703   5.403   5.334  0.2011  0.0402  0.3141
  118MOL0     C15493   1.796   5.311   5.381  0.2814 -0.1894  0.2331
  118MOL0     N15494   1.585   5.274   5.867  0.2243 -0.4990  0.1676
  118MOL0     N15495   1.516   5.351   5.796  0.2337 -0.0754  0.3948
  118MOL0     C15496   0.650   4.700   5.672  0.3013 -0.5035 -0.2327
  118MOL0     C15497   0.553   4.671   5.776  0.6303  0.1811  0.2149
  118MOL0     C15498   0.310   4.405   6.061  0.5709 -0.1398  0.2057
  118MOL0     C15499   0.283   4.516   6.155 -0.2338 -0.5325  0.0937
  118MOL0     C15500   0.190   4.506   6.262  0.6127 -0.3872  0.6361
  118MOL0     C15501   0.100   4.399   6.255  0.2317 -0.1646  0.5629
  118MOL0     O15502   0.004   4.399   6.350 -0.0097  0.2296  0.4616
  118MOL0     C15503  -0.125   4.337   6.318  0.0565  0.4519 -0.7684
  118MOL0     C15504  -0.201   4.412   6.212  0.3148  1.1570 -0.6782
  118MOL0     C15505  -0.224   4.563   6.241 -0.4546 -0.3825 -0.4064
  118MOL0     C15506  -0.285   4.607   6.376  0.5435 -0.0462 -0.1039
  118MOL0     C15507  -0.407   4.532   6.415  0.3804 -0.4118  0.2274
  118MOL0     C15508  -0.513   4.476   6.440 -0.2243 -0.7026 -0.2695
  118MOL0     C15509   0.128   4.288   6.167 -0.5788  0.0905  0.4919
  118MOL0     C15510   0.228   4.286   6.070  0.3622 -1.2343  0.0403
  118MOL0     H15511   0.705   4.395   5.888  1.0216 -1.3975 -1.9207
  118MOL0     H15512   0.865   4.439   5.719 -2.7141 -2.7108 -1.1198
  118MOL0     H15513   0.826   4.867   5.500 -0.5339 -1.0379 -0.1998
  118MOL0     H15514   0.770   4.727   5.408 -0.9956 -2.6331  3.0871
  118MOL0     H15515   0.934   4.751   5.285  0.4046  1.7258 -0.3207
  118MOL0     H15516   1.052   4.712   5.419  0.3971 -1.4054 -1.7244
  118MOL0     H15517   0.983   4.976   5.297 -0.2436 -2.3407 -1.8276
  118MOL0     H15518   1.144   4.914   5.329 -0.3576  0.8557 -0.1431
  118MOL0     H15519   0.954   5.026   5.530  0.1911  0.6870 -0.1215
  118MOL0     H15520   1.086   4.933   5.601 -1.5800 -2.4601 -0.6127
  118MOL0     H15521   1.130   5.173   5.421 -0.2129  0.1985 -0.2779
  118MOL0     H15522   1.254   5.060   5.478 -2.2609 -2.4024  0.3515
  118MOL0     H15523   1.218   5.112   5.704 -1.7304 -1.5009 -0.2488
  118MOL0     H15524   1.059   5.193   5.681  0.1026  0.1649  0.8741
  118MOL0     H15525   1.151   5.375   5.557  0.0110  0.4312 -0.6294
  118MOL0     H15526   1.204   5.378   5.719  2.3425  0.2273  0.2945
  118MOL0     H15527   1.393   5.443   5.588 -2.8219  0.8623  1.8168
  118MOL0     H15528   1.397   5.293   5.493 -2.2345  1.2656 -0.7490
  118MOL0     H15529   1.536   5.103   5.603  1.7544 -0.5265  0.7806
  118MOL0     H15530   1.666   4.983   5.883  0.7009  0.7771  1.6030
  118MOL0     H15531   1.779   5.128   5.901  1.6448 -1.4987  0.6795
  118MOL0     H15532   1.747   4.982   5.627  0.7755 -2.2753  0.1130
  118MOL0     H15533   1.870   4.938   5.744 -0.6487 -0.1128 -0.9078
  118MOL0     H15534   1.817   5.224   5.636 -0.0535  0.5218 -1.2132
  118MOL0     H15535   1.960   5.178   5.731 -1.6309  2.4950  1.2753
  118MOL0     H15536   2.026   5.021   5.549  0.4620 -1.2764 -2.3596
  118MOL0     H15537   2.011   5.187   5.496  2.5825 -1.0289  0.6968
  118MOL0     H15538   1.642   5.024   5.302  1.3090 -0.2452 -1.8877
  118MOL0     H15539   1.462   5.189   5.226 -0.2172 -1.4939  2.2003
  118MOL0     H15540   1.166   5.428   5.300  0.1632 -2.3067 -1.6629
  118MOL0     H15541   0.981   5.608   5.282 -0.2978 -4.0719  0.9060
  118MOL0     H15542   0.826   5.919   5.165  0.2821  0.3202 -1.5168
  118MOL0     H15543   0.885   5.811   5.272  2.1842  0.5512 -0.2290
  118MOL0     H15544   0.773   5.634   5.113  1.6443  0.6104 -1.3233
  118MOL0     H15545   0.749   5.758   4.997 -2.2254 -5.0935 -0.2367
  118MOL0     H15546   0.548   5.713   5.108  0.3488  0.0064 -0.8480
  118MOL0     H15547   0.597   5.884   5.146  4.1527  0.4733 -1.9350
  118MOL0     H15548   0.635   5.640   5.340  1.9289 -0.0137 -0.1934
  118MOL0     H15549   0.671   5.806   5.373  1.0852  0.5850 -1.0649
  118MOL0     H15550   0.401   5.692   5.316  0.0222 -0.1993  0.4969
  118MOL0     H15551   0.426   5.867   5.358  2.7223  1.1473 -0.6724
  118MOL0     H15552   0.523   5.819   5.566  2.0382 -0.9782 -0.9412
  118MOL0     H15553   0.503   5.648   5.553  2.3321  1.5553  0.5591
  118MOL0     H15554   0.262   5.836   5.539 -2.8607 -1.5675  1.8773
  118MOL0     H15555   0.268   5.661   5.522  2.3299 -0.9887 -3.5472
  118MOL0     H15556   0.358   5.813   5.769  2.0658 -1.8150  0.6328
  118MOL0     H15557   0.348   5.638   5.755  1.5384  0.1736 -1.1689
  118MOL0     H15558   1.178   5.768   4.941 -0.7300  1.1205  0.5668
  118MOL0     H15559   1.362   5.597   4.967 -0.2934 -1.0915 -0.3707
  118MOL0     H15560   1.731   5.508   5.333 -1.9522  0.6450 -0.5907
  118MOL0     H15561   1.894   5.356   5.397 -0.1715  1.2318 -0.7825
  118MOL0     H15562   0.633   4.777   5.597 -2.2985 -1.9136 -1.2274
  118MOL0     H15563   0.460   4.724   5.792  1.4209  1.5109  0.5500
  118MOL0     H15564   0.338   4.608   6.139  0.1112 -0.7658 -0.0915
  118MOL0     H15565   0.183   4.585   6.337  0.9869  0.1666  0.0925
  118MOL0     H15566  -0.179   4.344   6.413  2.0929 -0.7248  0.5379
  118MOL0     H15567  -0.113   4.230   6.301  0.4749 -0.2972  3.1665
  118MOL0     H15568  -0.147   4.411   6.118  1.0396  1.1343 -0.2670
  118MOL0     H15569  -0.292   4.354   6.194  2.0520 -1.6387 -1.0743
  118MOL0     H15570  -0.293   4.603   6.166  0.2672  0.3276 -0.7081
  118MOL0     H15571  -0.126   4.611   6.243 -1.1079  1.0658  2.0571
  118MOL0     H15572  -0.209   4.605   6.455  0.1934  0.9101  0.2798
  118MOL0     H15573  -0.301   4.715   6.370  2.1160  0.3609  1.8251
  118MOL0     H15574  -0.607   4.442   6.479  0.4178 -0.2593  1.7679
  118MOL0     H15575   0.068   4.198   6.173 -0.3516 -0.4706 -3.3523
  118MOL0     H15576   0.248   4.208   5.998  2.4338 -0.1190 -0.6673
  119MOL0     O15577   5.925   5.013   1.103 -0.3829  0.1280  0.0230
  119MOL0     C15578   5.988   5.087   1.172 -0.3726  0.1251 -0.5345
  119MOL0     O15579   5.954   5.119   1.304  0.8597  0.4227  0.5994
  119MOL0     C15580   5.835   5.066   1.362  0.2000  0.1764  0.4698
  119MOL0     C15581   5.714   5.046   1.292  0.6668  0.1888  0.2790
  119MOL0     C15582   5.592   5.018   1.349 -0.1331 -0.6465  0.0011
  119MOL0     C15583   5.595   4.981   1.488  0.2000  0.3323 -0.0016
  119MOL0     O15584   5.485   4.931   1.551 -0.6399 -0.1672 -0.7701
  119MOL0     C15585   5.360   4.919   1.478 -0.4222 -0.3020 -0.0179
  119MOL0     C15586   5.270   4.835   1.564  0.1079  0.9235 -0.3794
  119MOL0     C15587   5.145   4.777   1.484 -0.3645 -0.5154 -0.9315
  119MOL0     C15588   5.085   4.661   1.569 -0.0895 -1.2046 -0.3362
  119MOL0     C15589   4.935   4.628   1.528 -0.4389 -0.5502  0.2631
  119MOL0     C15590   4.831   4.734   1.548 -0.3151  0.1664  0.2606
  119MOL0     C15591   4.685   4.683   1.539 -0.1000 -0.3547  0.1985
  119MOL0     C15592   4.600   4.732   1.662  0.1350  0.0246 -0.1066
  119MOL0     N15593   4.451   4.704   1.648  0.5260  0.0990 -0.0400
  119MOL0     C15594   4.348   4.749   1.728 -0.9017 -0.1411  0.0204
  119MOL0     C15595   4.244   4.675   1.698 -0.3005  0.0890 -0.5395
  119MOL0     C15596   4.109   4.697   1.759  0.0458  0.1962  0.5498
  119MOL0     C15597   4.080   4.571   1.851  0.2220 -0.2117  0.2070
  119MOL0     C15598   3.948   4.571   1.916  0.2346  0.6208 -0.7642
  119MOL0     C15599   3.827   4.555   1.816  0.5145  0.7156 -0.6087
  119MOL0     O15600   3.708   4.594   1.894  0.9352  0.0533  0.3800
  119MOL0     C15601   3.587   4.594   1.839 -0.0648  0.2406  0.1941
  119MOL0     C15602   3.479   4.630   1.917  0.8037 -0.0215 -0.0552
  119MOL0     C15603   3.351   4.645   1.866  0.4138  0.2508  0.1217
  119MOL0     C15604   3.322   4.606   1.743  0.3598 -0.0710 -0.2799
  119MOL0     C15605   3.187   4.602   1.684 -0.4100 -0.8758 -0.2146
  119MOL0     O15606   3.181   4.517   1.575 -0.1638  0.8055 -0.3114
  119MOL0     C15607   3.077   4.527   1.489  0.4450 -0.4204 -0.7757
  119MOL0     C15608   3.103   4.571   1.363 -0.6840  0.3932 -0.0586
  119MOL0     C15609   2.997   4.573   1.269  0.7256  0.6503  0.2698
  119MOL0     C15610   2.871   4.519   1.307  0.4864 -0.0443  0.3120
  119MOL0     O15611   2.773   4.525   1.207 -0.2986 -0.2151  0.5933
  119MOL0     C15612   2.635   4.558   1.234  0.4373 -0.3512 -0.1245
  119MOL0     C15613   2.550   4.524   1.112  0.2056 -0.0589 -0.4621
  119MOL0     C15614   2.403   4.513   1.163 -0.0694 -0.0829 -0.2689
  119MOL0     C15615   2.322   4.463   1.047 -0.3496 -0.2209  0.8961
  119MOL0     C15616   2.176   4.425   1.080  0.5772  0.2971  0.6417
  119MOL0     C15617   2.113   4.524   1.173  0.3806  0.4649  0.4527
  119MOL0     C15618   1.957   4.501   1.181  0.5411  0.7170  0.0363
  119MOL0     C15619   1.868   4.573   1.070 -0.9500  1.0729 -0.9275
  119MOL0    Cl15620   1.694   4.552   1.094 -0.2825  0.0847  0.5081
  119MOL0     C15621   2.844   4.465   1.439 -0.3309  0.2427  0.7184
  119MOL0     C15622   2.951   4.484   1.527 -0.0202 -0.0777  0.0208
  119MOL0     O15623   3.086   4.662   1.734  0.1687 -0.3050  0.6202
  119MOL0     C15624   3.434   4.560   1.664 -0.1733 -0.6502  0.7188
  119MOL0     C15625   3.568   4.560   1.708  0.0573  0.6396 -0.4507
  119MOL0     N15626   4.270   4.587   1.593 -0.1347 -0.7559 -0.4385
  119MOL0     N15627   4.397   4.605   1.572  0.5423 -0.3405 -0.1913
  119MOL0     C15628   5.718   4.983   1.557 -0.8512 -0.0101  0.1192
  119MOL0     C15629   5.831   5.030   1.490 -0.4048 -0.0564 -0.3263
  119MOL0     C15630   6.113   5.135   1.121 -0.1676 -0.8132  0.7815
  119MOL0     C15631   6.191   5.225   1.198 -0.1930 -0.5770 -0.2903
  119MOL0     C15632   6.317   5.267   1.153  0.5531 -0.1653  0.2093
  119MOL0     C15633   6.365   5.234   1.028  0.0233 -0.4817  1.0335
  119MOL0     O15634   6.487   5.300   0.991 -0.5936 -0.0517  0.0987
  119MOL0     C15635   6.561   5.235   0.889  0.2385  0.3350  0.2557
  119MOL0     C15636   6.614   5.094   0.919  0.3501  0.5423  0.0566
  119MOL0     C15637   6.695   5.029   0.815 -0.3135 -1.1787  0.3148
  119MOL0     C15638   6.776   4.903   0.857  0.1061  0.2037 -0.0017
  119MOL0     C15639   6.689   4.795   0.907 -0.5159  0.8178  0.0494
  119MOL0     C15640   6.619   4.706   0.964 -0.2149 -1.1741 -0.1913
  119MOL0     C15641   6.281   5.143   0.948  0.1925 -0.6010  0.9085
  119MOL0     C15642   6.159   5.089   0.998  0.3307 -0.1397  1.2169
  119MOL0     H15643   5.717   5.075   1.187 -0.8310  1.2040  0.4875
  119MOL0     H15644   5.498   5.026   1.296  1.0334  0.1902 -2.0597
  119MOL0     H15645   5.385   4.862   1.388 -0.0295  0.3235 -0.3098
  119MOL0     H15646   5.312   5.011   1.444 -0.0929 -0.1484 -0.0756
  119MOL0     H15647   5.232   4.896   1.646 -0.4653  1.9615 -1.3795
  119MOL0     H15648   5.319   4.744   1.601 -0.6461 -0.3456 -2.2780
  119MOL0     H15649   5.182   4.740   1.388  1.0893 -1.0029 -0.2086
  119MOL0     H15650   5.068   4.855   1.477 -1.5875 -1.7191 -1.4212
  119MOL0     H15651   5.154   4.577   1.568 -0.1673 -1.2997  0.7882
  119MOL0     H15652   5.089   4.704   1.670 -1.5506  0.9982 -1.1519
  119MOL0     H15653   4.900   4.541   1.585 -1.2018 -1.1433 -1.0721
  119MOL0     H15654   4.937   4.609   1.421 -0.2771 -0.3399  0.2287
  119MOL0     H15655   4.856   4.814   1.478  0.7194  0.8063  1.3366
  119MOL0     H15656   4.863   4.764   1.648  1.6551  2.3275 -0.9311
  119MOL0     H15657   4.657   4.725   1.442 -0.9566  3.2179  1.8390
  119MOL0     H15658   4.687   4.574   1.534  1.7630 -0.2761 -2.1800
  119MOL0     H15659   4.607   4.840   1.679 -1.9285 -0.1064  2.0911
  119MOL0     H15660   4.649   4.693   1.751  3.3363  2.5226 -0.5871
  119MOL0     H15661   4.353   4.831   1.799  2.7658  0.3064 -0.5409
  119MOL0     H15662   4.041   4.708   1.674 -0.5895 -1.0289  0.8767
  119MOL0     H15663   4.116   4.793   1.810 -0.7577  0.4851  0.1215
  119MOL0     H15664   4.165   4.579   1.919 -0.8421  2.2023  1.3836
  119MOL0     H15665   4.086   4.484   1.785 -2.7509  0.2790 -0.8726
  119MOL0     H15666   3.936   4.486   1.983 -1.5621 -0.4384 -2.3275
  119MOL0     H15667   3.939   4.669   1.964 -2.9985  0.2616 -0.3902
  119MOL0     H15668   3.829   4.455   1.774  1.6982 -0.1676  1.4000
  119MOL0     H15669   3.839   4.619   1.728 -0.2718 -0.8602 -1.8958
  119MOL0     H15670   3.503   4.642   2.022 -0.1941 -1.3774  0.3517
  119MOL0     H15671   3.267   4.679   1.926  1.0571  0.4511  0.9268
  119MOL0     H15672   3.199   4.610   1.330 -0.2563  0.0620  0.7951
  119MOL0     H15673   3.010   4.600   1.165  1.7861  1.6525  0.6364
  119MOL0     H15674   2.613   4.662   1.259 -2.1050 -0.7679 -0.2949
  119MOL0     H15675   2.620   4.493   1.321  1.3867 -0.7935 -0.2763
  119MOL0     H15676   2.589   4.428   1.076  2.2173  1.0922 -1.5021
  119MOL0     H15677   2.561   4.605   1.040 -0.1246  0.0879 -0.3505
  119MOL0     H15678   2.371   4.616   1.181  2.1348  0.9524 -1.7816
  119MOL0     H15679   2.392   4.447   1.249  0.6212  0.0157 -0.0993
  119MOL0     H15680   2.326   4.536   0.966  0.3810 -0.7884  0.4132
  119MOL0     H15681   2.373   4.373   1.012  0.0408 -0.4355  1.9540
  119MOL0     H15682   2.188   4.332   1.135 -3.0261  0.1805  1.4943
  119MOL0     H15683   2.115   4.411   0.991  0.4727  1.8979  0.4261
  119MOL0     H15684   2.137   4.630   1.158  1.4044  0.8346  3.7254
  119MOL0     H15685   2.145   4.489   1.272  3.5445  1.8088  0.0192
  119MOL0     H15686   1.932   4.395   1.172  0.4012  0.8644 -1.4414
  119MOL0     H15687   1.918   4.553   1.269 -0.2442  0.5373 -0.1966
  119MOL0     H15688   1.887   4.539   0.968 -2.6987  2.2248 -1.6809
  119MOL0     H15689   1.894   4.679   1.084  3.2162 -0.1236  2.7659
  119MOL0     H15690   2.750   4.419   1.466 -0.5075  0.9406  1.3252
  119MOL0     H15691   2.947   4.463   1.633  2.9948  0.5915  0.3515
  119MOL0     H15692   3.414   4.523   1.565  0.1054  3.9192 -1.2856
  119MOL0     H15693   3.648   4.522   1.644 -0.7541  0.2337 -1.2506
  119MOL0     H15694   5.719   4.953   1.661  2.6098 -2.3008 -0.4281
  119MOL0     H15695   5.927   5.041   1.539  0.9162 -1.1875 -2.4893
  119MOL0     H15696   6.151   5.272   1.287 -2.8086 -1.5236 -0.8938
  119MOL0     H15697   6.360   5.338   1.223  0.3628 -1.3128  1.5200
  119MOL0     H15698   6.640   5.302   0.857  0.9686  0.4306  2.1200
  119MOL0     H15699   6.510   5.236   0.792  3.7986  2.4430 -1.7882
  119MOL0     H15700   6.666   5.096   1.016 -1.1188  0.2343  0.8897
  119MOL0     H15701   6.534   5.021   0.933 -0.2445  1.5504  2.4845
  119MOL0     H15702   6.777   5.097   0.787 -0.7421  1.2134  4.1710
  119MOL0     H15703   6.623   5.003   0.737  1.2906 -3.4957 -0.5178
  119MOL0     H15704   6.831   4.864   0.771  3.9311  2.5782  1.1500
  119MOL0     H15705   6.847   4.926   0.936 -1.1467 -0.1954  1.2838
  119MOL0     H15706   6.556   4.640   1.019  0.8166 -0.7386  1.5578
  119MOL0     H15707   6.311   5.111   0.849 -0.4990  1.2242  0.0738
  119MOL0     H15708   6.109   5.011   0.941 -1.3212  0.6204  1.5587
  120MOL0     O15709   1.982   3.776   7.408  0.3721  0.8611 -0.0069
  120MOL0     C15710   2.035   3.724   7.501  0.3256  0.0053  0.7810
  120MOL0     O15711   1.975   3.678   7.607 -0.0626  0.6157  0.6976
  120MOL0     C15712   1.838   3.665   7.611 -0.0460  0.6382 -0.5865
  120MOL0     C15713   1.778   3.544   7.614 -0.1297  0.1485  0.3086
  120MOL0     C15714   1.641   3.526   7.600 -0.6173 -0.0139  0.9963
  120MOL0     C15715   1.554   3.635   7.591 -1.1469 -0.2934 -0.2245
  120MOL0     O15716   1.417   3.614   7.585  0.0200  0.9102  0.5651
  120MOL0     C15717   1.346   3.716   7.522 -0.0227  0.1567 -0.7547
  120MOL0     C15718   1.193   3.675   7.502 -0.4148  0.7589 -0.5968
  120MOL0     C15719   1.126   3.772   7.416 -0.0527  0.2409  0.5115
  120MOL0     C15720   0.977   3.718   7.418  0.9067 -0.3628  0.7037
  120MOL0     C15721   0.885   3.822   7.365  1.0120 -0.3383 -0.3322
  120MOL0     C15722   0.897   3.858   7.221 -0.3143  0.1868  0.0563
  120MOL0     C15723   0.771   3.894   7.143 -0.0738  1.2360  0.2400
  120MOL0     C15724   0.720   4.037   7.177 -0.1018  0.8359 -0.5644
  120MOL0     N15725   0.607   4.063   7.091 -0.2058 -0.3323  0.2101
  120MOL0     C15726   0.468   4.027   7.098 -0.1685 -0.2365 -0.3928
  120MOL0     C15727   0.426   4.081   6.978  0.0385  0.4691  0.2074
  120MOL0     C15728   0.285   4.089   6.928  0.6112  0.1475  0.0528
  120MOL0     C15729   0.187   4.073   7.046 -0.4664  0.2476  0.6524
  120MOL0     C15730   0.052   4.127   7.000 -0.7425  0.2570  0.2581
  120MOL0     C15731  -0.065   4.064   7.084  0.3566 -0.6687  0.3316
  120MOL0     O15732  -0.070   4.101   7.222  0.6739 -0.3541 -0.3348
  120MOL0     C15733  -0.191   4.123   7.292  0.2941 -0.1120 -0.0944
  120MOL0     C15734  -0.292   4.029   7.273 -0.2455 -0.0742  0.6112
  120MOL0     C15735  -0.407   4.049   7.344 -0.0980  0.3533  0.0769
  120MOL0     C15736  -0.425   4.148   7.442 -0.0856  0.5360  0.6135
  120MOL0     C15737  -0.553   4.141   7.519 -0.1517  0.5272  0.1040
  120MOL0     O15738  -0.654   4.075   7.470  0.3816  1.4272 -0.1213
  120MOL0     C15739  -0.781   4.075   7.522 -0.0126 -0.2949  0.5596
  120MOL0     C15740  -0.803   4.058   7.655 -0.0020  0.4745 -0.0429
  120MOL0     C15741  -0.926   4.048   7.714 -0.1047 -0.6718 -0.4655
  120MOL0     C15742  -1.040   4.054   7.639  1.2048  0.3366  0.8053
  120MOL0     O15743  -1.171   4.037   7.697  0.0306  0.1960  1.1314
  120MOL0     C15744  -1.187   4.099   7.823 -0.4501  0.4777  0.1817
  120MOL0     C15745  -1.330   4.137   7.848  1.2414 -0.9627 -0.0259
  120MOL0     C15746  -1.403   4.009   7.877 -0.0899  0.7777 -0.8504
  120MOL0     C15747  -1.545   4.006   7.841  0.5990 -0.3655 -0.5907
  120MOL0     C15748  -1.611   4.113   7.938 -0.9201 -0.0590  0.4823
  120MOL0     C15749  -1.761   4.095   7.946 -0.5563 -0.6611  0.2472
  120MOL0     C15750  -1.833   4.129   7.809 -1.2853 -0.0233  0.0493
  120MOL0     C15751  -1.982   4.158   7.841 -0.3758  0.3965 -0.5540
  120MOL0    Cl15752  -2.066   4.221   7.703  0.3787 -0.0653  0.0462
  120MOL0     C15753  -1.025   4.074   7.506 -0.1915  0.4496  0.9209
  120MOL0     C15754  -0.895   4.079   7.440  0.9897 -0.3377  0.0813
  120MOL0     O15755  -0.557   4.210   7.618  0.5431 -0.3970 -0.2443
  120MOL0     C15756  -0.318   4.232   7.474  0.7107  0.0118  0.6659
  120MOL0     C15757  -0.204   4.223   7.394 -0.4285  0.3492 -0.0367
  120MOL0     N15758   0.530   4.145   6.915 -0.5955 -0.1273  0.5987
  120MOL0     N15759   0.636   4.135   6.978  0.8754 -0.5686  0.2114
  120MOL0     C15760   1.617   3.768   7.592  0.4025 -0.3216 -0.4519
  120MOL0     C15761   1.756   3.779   7.607 -0.0285 -0.8920  0.3187
  120MOL0     C15762   2.187   3.726   7.517  0.0235  0.6249 -0.7893
  120MOL0     C15763   2.252   3.808   7.424 -0.7037  0.0914 -0.6068
  120MOL0     C15764   2.392   3.818   7.433  0.1526  0.1491  0.3006
  120MOL0     C15765   2.458   3.748   7.533 -0.3090 -0.5782  0.2590
  120MOL0     O15766   2.598   3.779   7.533  0.3631  0.2561 -0.2168
  120MOL0     C15767   2.675   3.681   7.592 -0.5113 -0.5314 -0.3831
  120MOL0     C15768   2.820   3.668   7.524  0.8009  0.1557  0.6434
  120MOL0     C15769   2.822   3.624   7.375 -0.6282 -0.3618  0.5122
  120MOL0     C15770   2.963   3.609   7.319 -0.5131 -0.7189 -0.3719
  120MOL0     C15771   3.033   3.734   7.316 -0.1879 -0.5074  0.1548
  120MOL0     C15772   3.087   3.843   7.294 -0.9151 -0.2232  0.3862
  120MOL0     C15773   2.390   3.652   7.613  0.1328 -0.0752 -0.3769
  120MOL0     C15774   2.254   3.640   7.608  1.0449  0.2709  0.1566
  120MOL0     H15775   1.848   3.461   7.613  1.3981  1.1688  4.4376
  120MOL0     H15776   1.591   3.430   7.595 -0.3026 -0.1329 -0.2556
  120MOL0     H15777   1.381   3.750   7.425  0.3203 -0.9077 -1.0147
  120MOL0     H15778   1.349   3.800   7.592  1.8878  0.0969 -0.7238
  120MOL0     H15779   1.138   3.673   7.597 -2.5293  1.5945 -1.7431
  120MOL0     H15780   1.179   3.576   7.459  0.4276  1.3301 -2.2826
  120MOL0     H15781   1.166   3.773   7.314  1.6024 -0.6450  1.1306
  120MOL0     H15782   1.126   3.874   7.456 -1.5740  0.7852 -0.7337
  120MOL0     H15783   0.984   3.633   7.349  2.7832  0.1612  0.2066
  120MOL0     H15784   0.950   3.691   7.521 -1.5760  2.8741  1.0618
  120MOL0     H15785   0.909   3.914   7.419 -0.8510  0.3036 -0.5018
  120MOL0     H15786   0.780   3.802   7.389  0.6780 -0.7180 -1.9892
  120MOL0     H15787   0.948   3.784   7.158  1.2459  1.2704 -0.0071
  120MOL0     H15788   0.956   3.950   7.214 -3.4223  2.5998  2.6893
  120MOL0     H15789   0.802   3.885   7.038  1.7319 -0.4668  0.8575
  120MOL0     H15790   0.686   3.830   7.167  0.5425 -0.4157 -1.6928
  120MOL0     H15791   0.810   4.096   7.157  0.7586 -0.6192 -1.1558
  120MOL0     H15792   0.691   4.045   7.282  0.3473 -0.0604 -0.3639
  120MOL0     H15793   0.408   3.980   7.175 -0.8264  1.0481 -0.0946
  120MOL0     H15794   0.265   4.017   6.849 -1.1615  1.1236 -0.4513
  120MOL0     H15795   0.264   4.186   6.881 -1.5046 -0.1820  0.2140
  120MOL0     H15796   0.228   4.138   7.124  0.3520  1.9918 -1.1712
  120MOL0     H15797   0.187   3.972   7.089 -1.0918  0.6969  1.7666
  120MOL0     H15798   0.055   4.236   7.005  1.8136  0.4293 -2.5142
  120MOL0     H15799   0.031   4.103   6.895  0.1018  1.1382 -0.1246
  120MOL0     H15800  -0.063   3.956   7.072 -1.3125 -0.9975  2.4640
  120MOL0     H15801  -0.155   4.098   7.032  0.5589 -0.4055  0.1495
  120MOL0     H15802  -0.284   3.955   7.194 -3.6262  0.6361 -0.5482
  120MOL0     H15803  -0.485   3.977   7.321  0.7739 -0.4480 -0.4592
  120MOL0     H15804  -0.724   4.033   7.724  0.8729 -1.2691 -1.5840
  120MOL0     H15805  -0.914   4.027   7.820  0.3609 -1.5086 -0.6725
  120MOL0     H15806  -1.118   4.183   7.841  1.0681 -0.8109  0.6564
  120MOL0     H15807  -1.162   4.029   7.904 -0.6879  0.9479  0.6706
  120MOL0     H15808  -1.375   4.197   7.768  0.0428  1.3894  2.2535
  120MOL0     H15809  -1.343   4.198   7.938 -0.9961 -0.7220 -0.4522
  120MOL0     H15810  -1.397   3.986   7.984 -1.2679  3.7475 -0.0292
  120MOL0     H15811  -1.357   3.925   7.826  0.2510 -0.3062  1.1190
  120MOL0     H15812  -1.562   4.013   7.733  1.0456 -1.8036 -0.7834
  120MOL0     H15813  -1.580   3.906   7.865  1.2527 -0.9589 -2.0069
  120MOL0     H15814  -1.583   4.215   7.909  2.8194 -1.2597 -0.7221
  120MOL0     H15815  -1.569   4.089   8.035  2.8067  1.3479 -0.6211
  120MOL0     H15816  -1.802   4.162   8.021 -2.4764 -1.0159 -0.4234
  120MOL0     H15817  -1.782   3.993   7.980  1.2224 -1.0297  0.3315
  120MOL0     H15818  -1.792   4.222   7.768 -1.2744  0.0239  0.1690
  120MOL0     H15819  -1.834   4.052   7.731 -0.4778  2.8879 -3.0783
  120MOL0     H15820  -1.988   4.235   7.918 -1.7999 -1.2775  1.0876
  120MOL0     H15821  -2.027   4.068   7.884  1.0780  0.7410  1.8822
  120MOL0     H15822  -1.112   4.070   7.442  0.6788  0.0250 -0.2766
  120MOL0     H15823  -0.882   4.099   7.334  0.4488 -0.2591  0.0271
  120MOL0     H15824  -0.344   4.304   7.551  0.4277 -0.8289  1.3839
  120MOL0     H15825  -0.120   4.291   7.400 -1.0634  1.1054  0.3601
  120MOL0     H15826   1.558   3.856   7.567 -0.1509 -0.3338  0.7763
  120MOL0     H15827   1.796   3.879   7.603 -1.2900 -0.3584 -4.0022
  120MOL0     H15828   2.189   3.856   7.349 -2.3178  0.0467  0.6501
  120MOL0     H15829   2.446   3.871   7.356 -1.9775  1.5199 -0.3371
  120MOL0     H15830   2.627   3.582   7.585 -0.2159 -0.6434 -0.9073
  120MOL0     H15831   2.687   3.708   7.697  3.4042  1.8228 -1.2374
  120MOL0     H15832   2.860   3.769   7.522  1.9684 -0.3064 -1.3027
  120MOL0     H15833   2.877   3.594   7.582  1.3113  1.3182  1.6665
  120MOL0     H15834   2.771   3.703   7.319  0.8261  0.1476 -0.1205
  120MOL0     H15835   2.770   3.528   7.363 -0.0365 -0.9234  2.1834
  120MOL0     H15836   3.027   3.543   7.378  0.8655 -0.7496 -1.8323
  120MOL0     H15837   2.950   3.579   7.215  1.3263 -0.6012 -0.6656
  120MOL0     H15838   3.156   3.923   7.279 -0.9737 -0.4143 -0.9870
  120MOL0     H15839   2.457   3.595   7.677  0.1710 -1.3837 -1.5302
  120MOL0     H15840   2.196   3.571   7.668  2.0467 -0.4080  0.3571
  121MOL0     O15841   9.431   9.421  10.498  0.0244 -0.1026  0.2279
  121MOL0     C15842   9.401   9.525  10.546 -0.0690  0.4834  0.5539
  121MOL0     O15843   9.290   9.600  10.498 -0.1774 -0.6872 -0.4397
  121MOL0     C15844   9.215   9.560  10.389 -0.1440 -0.4582 -0.9734
  121MOL0     C15845   9.271   9.486  10.283 -0.1583  0.2504 -0.3815
  121MOL0     C15846   9.188   9.460  10.167  0.1471 -0.2577 -0.1448
  121MOL0     C15847   9.059   9.501  10.173 -0.0057  0.0804  0.0900
  121MOL0     O15848   8.977   9.465  10.071 -0.2515  0.7015 -0.0046
  121MOL0     C15849   8.917   9.328  10.068 -0.4811  0.1805  0.2491
  121MOL0     C15850   8.827   9.321  10.191 -0.8158  0.0360  0.5414
  121MOL0     C15851   8.759   9.187  10.207  0.0163  0.7104 -0.2731
  121MOL0     C15852   8.681   9.190  10.341 -0.4506 -0.0473 -0.3343
  121MOL0     C15853   8.577   9.076  10.355  0.3862 -0.5814  0.6773
  121MOL0     C15854   8.497   9.068  10.485  0.1710 -0.0313  0.0497
  121MOL0     C15855   8.443   9.206  10.526  0.3775 -0.1475 -0.1964
  121MOL0     C15856   8.305   9.187  10.605  0.2358  0.2146 -0.5206
  121MOL0     N15857   8.185   9.154  10.519  0.6186 -0.5610 -0.3054
  121MOL0     C15858   8.136   9.231  10.421  0.3076 -0.2380 -0.6039
  121MOL0     C15859   8.048   9.150  10.354  1.2667 -0.5084 -0.0464
  121MOL0     C15860   7.959   9.204  10.231 -1.1498  0.2768  0.3341
  121MOL0     C15861   7.851   9.308  10.268 -0.5122 -0.3304  0.8180
  121MOL0     C15862   7.787   9.349  10.134 -0.3332  0.1454 -0.4526
  121MOL0     C15863   7.702   9.476  10.158 -0.4024 -0.0177  0.3091
  121MOL0     O15864   7.574   9.462  10.109 -0.4569  0.1569  0.5636
  121MOL0     C15865   7.482   9.547  10.146  0.0990 -0.1881 -0.6977
  121MOL0     C15866   7.492   9.677  10.206 -1.1018  0.1587  0.5483
  121MOL0     C15867   7.374   9.752  10.226 -0.8085  0.7677 -0.5885
  121MOL0     C15868   7.247   9.697  10.200  0.5437  0.3555  0.3176
  121MOL0     C15869   7.130   9.786  10.223 -0.2409  0.4578 -0.0282
  121MOL0     O15870   7.151   9.919  10.200  0.7479  0.4229 -0.6336
  121MOL0     C15871   7.050  10.012  10.200  0.0181 -0.2103  0.1911
  121MOL0     C15872   7.061  10.130  10.281  0.2336 -0.1395  0.6437
  121MOL0     C15873   6.955  10.227  10.279 -0.5011  0.3519 -0.1320
  121MOL0     C15874   6.837  10.199  10.209  0.1787  0.0008  0.8733
  121MOL0     O15875   6.719  10.266  10.210 -0.5348 -0.1956 -0.1164
  121MOL0     C15876   6.714  10.386  10.286  0.8139 -0.8021 -0.2702
  121MOL0     C15877   6.567  10.434  10.276  0.2511  0.0400 -0.2179
  121MOL0     C15878   6.542  10.549  10.374 -0.3318  0.6387  0.5618
  121MOL0     C15879   6.395  10.569  10.403 -0.2451 -0.1532  0.4645
  121MOL0     C15880   6.347  10.486  10.531  0.5520  1.4246 -0.6833
  121MOL0     C15881   6.201  10.509  10.584  0.6363 -0.1756 -0.0342
  121MOL0     C15882   6.198  10.644  10.665  1.0298 -0.1751  0.4142
  121MOL0     C15883   6.069  10.665  10.739  0.1559 -0.3338 -0.5509
  121MOL0    Cl15884   5.934  10.661  10.617  0.2477 -0.0213  0.3799
  121MOL0     C15885   6.826  10.089  10.124  0.3865  0.3255 -0.0674
  121MOL0     C15886   6.938  10.003  10.119  0.1514 -0.1825  0.8371
  121MOL0     O15887   7.021   9.738  10.228 -0.4322 -0.1669 -0.5356
  121MOL0     C15888   7.233   9.571  10.152 -0.3565  0.8929 -0.5432
  121MOL0     C15889   7.349   9.500  10.128 -0.3829 -0.2485  0.0112
  121MOL0     N15890   8.047   9.028  10.411 -0.6251  0.3835  0.2926
  121MOL0     N15891   8.129   9.026  10.511 -0.3913 -0.4693  0.0925
  121MOL0     C15892   9.007   9.575  10.284 -0.3847  1.0396  0.7011
  121MOL0     C15893   9.091   9.608  10.386  0.1474  0.2445 -0.0325
  121MOL0     C15894   9.472   9.563  10.671 -0.6075 -0.0317  0.6535
  121MOL0     C15895   9.604   9.566  10.683 -0.2760 -0.3092  0.1540
  121MOL0     C15896   9.666   9.605  10.799 -0.3122 -0.1778 -0.2547
  121MOL0     C15897   9.596   9.617  10.912 -0.4016  0.3722  0.2223
  121MOL0     O15898   9.651   9.623  11.044 -0.1002  0.3765  0.0627
  121MOL0     C15899   9.796   9.628  11.051 -0.1098 -0.5592 -0.3946
  121MOL0     C15900   9.836   9.684  11.184  0.3912 -0.1346 -0.2748
  121MOL0     C15901   9.980   9.739  11.192 -1.0677  0.2363  0.0477
  121MOL0     C15902  10.086   9.632  11.150 -0.0083  0.5518 -0.3003
  121MOL0     C15903  10.211   9.694  11.180  0.3482  0.6354  0.5568
  121MOL0     C15904  10.316   9.745  11.203 -0.6964  0.3737  0.2237
  121MOL0     C15905   9.452   9.599  10.910 -0.5005  0.0493  0.5371
  121MOL0     C15906   9.388   9.577  10.781 -0.2208  0.3248  0.7906
  121MOL0     H15907   9.376   9.463  10.269  0.1980  2.7327 -2.7192
  121MOL0     H15908   9.214   9.401  10.080 -1.2598 -0.2917 -0.5623
  121MOL0     H15909   9.004   9.262  10.074 -0.3359  0.3555  0.0370
  121MOL0     H15910   8.867   9.318   9.972  0.9136 -0.5391 -0.4296
  121MOL0     H15911   8.755   9.402  10.179 -0.7572  0.3244  1.8704
  121MOL0     H15912   8.887   9.338  10.282  1.9033 -1.9321 -0.7524
  121MOL0     H15913   8.824   9.099  10.205  0.3437  0.9232 -2.9246
  121MOL0     H15914   8.692   9.169  10.123 -1.1678 -3.0871  1.2824
  121MOL0     H15915   8.752   9.195  10.424  0.1953  0.5619 -0.9101
  121MOL0     H15916   8.626   9.285  10.335  0.0018  0.1773 -1.0580
  121MOL0     H15917   8.634   8.984  10.346  0.7789 -0.2382 -0.4853
  121MOL0     H15918   8.507   9.077  10.270 -0.6923  1.9684  1.4741
  121MOL0     H15919   8.560   9.034  10.568  1.3756  2.9050  0.4539
  121MOL0     H15920   8.416   8.996  10.470  0.6400 -0.4903 -0.3122
  121MOL0     H15921   8.518   9.261  10.584  1.1227 -0.5895 -0.7305
  121MOL0     H15922   8.421   9.267  10.438 -1.7721  2.8600  2.1794
  121MOL0     H15923   8.293   9.285  10.653  0.0790  1.7409 -3.4211
  121MOL0     H15924   8.313   9.103  10.674  3.5580 -2.9957 -4.3251
  121MOL0     H15925   8.163   9.334  10.398  4.2715 -1.3645 -1.8825
  121MOL0     H15926   7.911   9.115  10.189  0.1701 -0.6422  0.6821
  121MOL0     H15927   8.040   9.239  10.165  0.6673 -1.8610  1.2931
  121MOL0     H15928   7.896   9.394  10.320  2.6346  0.0651 -2.2103
  121MOL0     H15929   7.780   9.256  10.333 -1.6787  1.4096  1.0014
  121MOL0     H15930   7.863   9.366  10.058 -1.0234  0.2157 -1.1435
  121MOL0     H15931   7.727   9.263  10.102  0.4272 -0.4619 -0.2842
  121MOL0     H15932   7.760   9.562  10.123 -0.5324  0.3066  0.8943
  121MOL0     H15933   7.700   9.495  10.265  2.0007 -0.1066  0.4281
  121MOL0     H15934   7.587   9.727  10.221 -0.7227 -0.7301  1.1650
  121MOL0     H15935   7.369   9.855  10.261 -3.8309 -0.2940  2.6321
  121MOL0     H15936   7.155  10.158  10.328 -0.2534  1.7837  0.5502
  121MOL0     H15937   6.961  10.311  10.347 -2.9827  0.3790  0.1466
  121MOL0     H15938   6.791  10.457  10.258  3.2476 -2.4192  1.8632
  121MOL0     H15939   6.736  10.368  10.392 -0.4397  0.1533  0.1836
  121MOL0     H15940   6.509  10.347  10.308  1.6171 -1.6805 -2.1466
  121MOL0     H15941   6.530  10.450  10.175  2.3266 -1.9654 -1.4083
  121MOL0     H15942   6.564  10.638  10.315  0.0480  0.2612  0.1236
  121MOL0     H15943   6.592  10.539  10.470  1.1239 -1.1454 -0.3098
  121MOL0     H15944   6.384  10.676  10.424 -0.9906  0.3379 -2.1018
  121MOL0     H15945   6.332  10.538  10.319  0.1149  0.8012 -0.1741
  121MOL0     H15946   6.419  10.503  10.612  0.3315  3.1795 -0.8235
  121MOL0     H15947   6.357  10.379  10.511 -2.1690  1.1115 -0.8192
  121MOL0     H15948   6.174  10.419  10.641  0.2758  0.3998  0.7240
  121MOL0     H15949   6.138  10.516  10.495  1.4567  1.0193 -0.5416
  121MOL0     H15950   6.277  10.642  10.740 -1.3104 -1.8699  3.0239
  121MOL0     H15951   6.222  10.733  10.606  0.3163  0.2646  0.7812
  121MOL0     H15952   6.080  10.763  10.785  2.4357 -0.0094 -1.6447
  121MOL0     H15953   6.057  10.586  10.814  0.6147  0.4467  0.3684
  121MOL0     H15954   6.733  10.071  10.070 -1.0635  1.3433  1.9291
  121MOL0     H15955   6.941   9.934  10.035 -0.2968 -0.9643  1.4590
  121MOL0     H15956   7.135   9.525  10.142 -0.3023 -0.4371  3.3109
  121MOL0     H15957   7.345   9.397  10.094  0.6545  0.7922 -3.7906
  121MOL0     H15958   8.903   9.604  10.280 -0.4575  0.6945 -0.0960
  121MOL0     H15959   9.055   9.659  10.475 -0.4062 -0.7733  0.3483
  121MOL0     H15960   9.665   9.536  10.598 -1.9985  0.7688 -1.5542
  121MOL0     H15961   9.773   9.595  10.813 -0.0713 -0.1425 -1.8783
  121MOL0     H15962   9.831   9.701  10.978 -1.2584 -0.1538 -0.5700
  121MOL0     H15963   9.835   9.529  11.024 -2.9208 -2.1500  0.8294
  121MOL0     H15964   9.759   9.753  11.221  1.7876  1.5434 -0.3311
  121MOL0     H15965   9.834   9.603  11.258  3.9928 -0.4008 -0.2987
  121MOL0     H15966   9.994   9.789  11.288 -3.9733  1.5177 -0.0703
  121MOL0     H15967   9.995   9.822  11.122  0.4245 -2.0333 -2.4900
  121MOL0     H15968  10.077   9.540  11.208 -1.3442 -0.6813 -2.3364
  121MOL0     H15969  10.078   9.617  11.042  0.3415  1.1851 -0.4212
  121MOL0     H15970  10.405   9.793  11.241  0.9652 -2.4379  0.2146
  121MOL0     H15971   9.405   9.613  11.007  1.3823  1.7265  1.2801
  121MOL0     H15972   9.280   9.573  10.783 -0.2324 -0.0943 -0.2832
  122MOL0     O15973   8.006   3.942   7.595  0.2527  0.2065 -0.4557
  122MOL0     C15974   7.987   3.829   7.647  0.3407 -0.2340 -0.9278
  122MOL0     O15975   8.080   3.750   7.701  0.5942 -0.0752  0.5837
  122MOL0     C15976   8.209   3.774   7.680 -0.5839  0.9397 -0.8910
  122MOL0     C15977   8.288   3.737   7.794  0.8591 -0.4502  0.9212
  122MOL0     C15978   8.419   3.760   7.802 -0.8217 -0.3675 -0.2859
  122MOL0     C15979   8.484   3.811   7.689 -0.0102  1.0663  0.2733
  122MOL0     O15980   8.613   3.850   7.678  0.5417  0.3903  0.5858
  122MOL0     C15981   8.682   3.895   7.792 -0.6053  0.4665 -1.0538
  122MOL0     C15982   8.806   3.976   7.734 -0.9850 -0.1673  0.0716
  122MOL0     C15983   8.908   3.897   7.646 -0.0412 -0.0199  0.2456
  122MOL0     C15984   8.967   3.778   7.717 -0.3775  0.2245 -0.1536
  122MOL0     C15985   9.118   3.787   7.725  0.0834 -0.7898  0.7573
  122MOL0     C15986   9.168   3.729   7.853  0.0983  0.9509 -0.4932
  122MOL0     C15987   9.324   3.736   7.865 -0.3271 -0.6105  0.2558
  122MOL0     C15988   9.397   3.623   7.786 -0.7653  0.6276  0.5675
  122MOL0     N15989   9.529   3.660   7.734  0.8773  0.1598 -0.1753
  122MOL0     C15990   9.548   3.752   7.640 -0.3841 -0.6065  0.2354
  122MOL0     C15991   9.687   3.751   7.613  0.2622  0.8075 -0.0018
  122MOL0     C15992   9.745   3.840   7.509 -0.5749  0.5351 -0.5985
  122MOL0     C15993   9.895   3.821   7.494  0.3068  0.3219  0.3128
  122MOL0     C15994   9.931   3.722   7.383 -0.2235  0.9826  0.2296
  122MOL0     C15995  10.083   3.702   7.392  0.2252 -0.0922 -0.0541
  122MOL0     O15996  10.119   3.630   7.274  0.2394  0.2733 -0.2644
  122MOL0     C15997  10.251   3.646   7.226 -0.7206 -0.4306  0.0270
  122MOL0     C15998  10.353   3.699   7.296 -0.1918 -0.4658 -0.3923
  122MOL0     C15999  10.481   3.732   7.242  0.1947  0.2367 -0.1491
  122MOL0     C16000  10.506   3.702   7.107  0.9246  0.2658  0.2724
  122MOL0     C16001  10.627   3.736   7.044 -0.8868  0.4000  0.2456
  122MOL0     O16002  10.635   3.747   6.906 -0.4818  0.5809  0.0867
  122MOL0     C16003  10.757   3.791   6.862 -0.3713  0.1093 -0.5667
  122MOL0     C16004  10.803   3.923   6.886  0.3362 -0.2491  0.0940
  122MOL0     C16005  10.927   3.966   6.843  0.3732  0.9144 -0.7390
  122MOL0     C16006  11.014   3.885   6.773 -0.7837  0.9891  0.7113
  122MOL0     O16007  11.140   3.926   6.728 -0.7009  0.5356  0.8743
  122MOL0     C16008  11.212   3.866   6.611  0.3549 -0.7942  0.0038
  122MOL0     C16009  11.212   3.974   6.504 -0.8211 -0.2627  1.1642
  122MOL0     C16010  11.322   4.077   6.519 -0.2378  0.6371  0.3635
  122MOL0     C16011  11.451   3.998   6.480 -0.3286 -0.1695  0.5181
  122MOL0     C16012  11.586   4.077   6.519  0.6040  0.4346  0.5093
  122MOL0     C16013  11.594   4.212   6.458 -0.0835 -0.7301 -0.1092
  122MOL0     C16014  11.714   4.289   6.509  1.0918  1.2044  0.1504
  122MOL0     C16015  11.700   4.428   6.465 -0.4276 -1.0804 -0.7933
  122MOL0    Cl16016  11.783   4.419   6.302  0.2205 -0.5237  0.0700
  122MOL0     C16017  10.973   3.752   6.749 -1.0015  0.6404 -0.0740
  122MOL0     C16018  10.846   3.708   6.799  0.7028  1.0025  0.1817
  122MOL0     O16019  10.711   3.765   7.122  0.1276 -0.4668  0.2954
  122MOL0     C16020  10.404   3.643   7.038  1.1020 -0.3469  0.9564
  122MOL0     C16021  10.278   3.614   7.090  0.3610 -0.1374  0.0487
  122MOL0     N16022   9.733   3.661   7.712  0.5313 -0.4134 -0.7741
  122MOL0     N16023   9.641   3.608   7.774  0.0742 -0.1634 -0.6843
  122MOL0     C16024   8.413   3.844   7.578 -0.2323  0.4351  0.3308
  122MOL0     C16025   8.277   3.831   7.572  0.4545 -0.1200 -0.4086
  122MOL0     C16026   7.845   3.794   7.660  0.1509 -0.2206  0.5744
  122MOL0     C16027   7.806   3.681   7.729 -0.4287 -0.1577  0.4683
  122MOL0     C16028   7.671   3.638   7.731  0.3961  1.0748 -0.1444
  122MOL0     C16029   7.567   3.716   7.682  0.0033 -0.5543 -0.1746
  122MOL0     O16030   7.443   3.668   7.695 -0.0980 -0.0554  0.1823
  122MOL0     C16031   7.333   3.741   7.638 -0.8549  0.2573  1.0489
  122MOL0     C16032   7.228   3.643   7.613 -0.1141 -0.1340  0.0769
  122MOL0     C16033   7.167   3.655   7.475  0.0295  0.1365  0.1822
  122MOL0     C16034   7.078   3.533   7.441 -0.4998 -0.1856 -0.0365
  122MOL0     C16035   6.956   3.530   7.516 -0.0417  1.1102  0.3087
  122MOL0     C16036   6.846   3.511   7.568 -0.3374  0.5375 -0.8533
  122MOL0     C16037   7.604   3.842   7.618 -0.3930  0.4171  0.6960
  122MOL0     C16038   7.737   3.874   7.603 -0.1374 -0.1032 -0.2725
  122MOL0     H16039   8.236   3.696   7.880  1.4061 -3.2349  0.0144
  122MOL0     H16040   8.471   3.742   7.895  0.4757 -0.7799 -1.0664
  122MOL0     H16041   8.715   3.810   7.853 -2.3187  0.1646 -0.5033
  122MOL0     H16042   8.618   3.966   7.844  1.7751  3.2834 -1.6752
  122MOL0     H16043   8.856   4.032   7.813 -0.7437 -2.8398  1.9449
  122MOL0     H16044   8.767   4.053   7.668 -3.3702 -0.9831  0.4323
  122MOL0     H16045   8.977   3.968   7.600 -1.2533  0.4060 -1.0007
  122MOL0     H16046   8.853   3.845   7.567 -0.6803 -0.4082  0.9345
  122MOL0     H16047   8.928   3.756   7.817  0.0334 -2.8369 -0.5574
  122MOL0     H16048   8.941   3.690   7.656 -2.2882 -0.4311  1.4971
  122MOL0     H16049   9.139   3.895   7.732 -2.7911 -0.1618  0.9558
  122MOL0     H16050   9.167   3.742   7.639 -2.0234 -3.1046  0.6630
  122MOL0     H16051   9.138   3.625   7.865  2.5292  0.5704  4.3677
  122MOL0     H16052   9.123   3.796   7.927 -2.4529 -1.2956  0.1439
  122MOL0     H16053   9.358   3.827   7.815  2.7927 -0.8559  1.7116
  122MOL0     H16054   9.356   3.749   7.968 -3.0366  2.2221  0.8904
  122MOL0     H16055   9.340   3.587   7.700 -0.3706  4.2922 -1.4353
  122MOL0     H16056   9.403   3.536   7.852 -1.9243  0.9197  1.0864
  122MOL0     H16057   9.475   3.817   7.593 -1.0494 -0.8156  0.9551
  122MOL0     H16058   9.726   3.945   7.535 -0.9193 -0.0183  1.6452
  122MOL0     H16059   9.704   3.828   7.408 -1.6327 -2.0009  0.0535
  122MOL0     H16060   9.940   3.790   7.589  0.2927 -1.0314 -0.1025
  122MOL0     H16061   9.933   3.923   7.484 -0.5712  0.7715  1.2703
  122MOL0     H16062   9.876   3.628   7.394  1.1585  0.1385  0.1382
  122MOL0     H16063   9.902   3.761   7.285 -0.6378 -2.1344 -1.0190
  122MOL0     H16064  10.127   3.655   7.480 -1.0391  0.4735  0.9161
  122MOL0     H16065  10.124   3.803   7.381  0.4907 -0.3130 -1.2994
  122MOL0     H16066  10.343   3.741   7.396 -1.1759  1.4183 -1.2443
  122MOL0     H16067  10.561   3.776   7.300  1.3311  2.0518 -2.8995
  122MOL0     H16068  10.736   3.990   6.938 -2.3713 -1.6656 -1.3556
  122MOL0     H16069  10.958   4.069   6.858  0.5140  0.6228  1.1474
  122MOL0     H16070  11.152   3.781   6.575 -0.1267 -1.2092  1.7326
  122MOL0     H16071  11.307   3.831   6.651  0.0184 -0.3746  1.1991
  122MOL0     H16072  11.111   4.017   6.506 -0.0159  1.8340 -0.4099
  122MOL0     H16073  11.216   3.930   6.404 -1.6222  2.1708 -0.0153
  122MOL0     H16074  11.323   4.117   6.621  0.9900 -1.1644  1.1068
  122MOL0     H16075  11.301   4.159   6.449  1.1495 -0.5753 -1.5546
  122MOL0     H16076  11.465   3.905   6.537 -1.8294  0.6354  2.3300
  122MOL0     H16077  11.438   3.974   6.374 -1.7758  1.2919  0.3273
  122MOL0     H16078  11.672   4.015   6.491  1.1438  0.6909  1.5315
  122MOL0     H16079  11.592   4.087   6.628 -0.2507  3.2217  0.3894
  122MOL0     H16080  11.511   4.281   6.470  1.4558  1.3049 -0.6512
  122MOL0     H16081  11.605   4.201   6.350 -3.6781  3.0276 -1.1153
  122MOL0     H16082  11.700   4.294   6.618 -0.9167  1.5467 -0.0856
  122MOL0     H16083  11.813   4.246   6.492  0.4076 -0.9817  1.2413
  122MOL0     H16084  11.760   4.486   6.536  0.1522 -0.5951 -1.6544
  122MOL0     H16085  11.600   4.472   6.456  0.2732  0.1849 -3.3754
  122MOL0     H16086  11.037   3.681   6.696 -1.5867 -0.3568  0.5170
  122MOL0     H16087  10.810   3.609   6.774 -0.2101  0.7775  2.1991
  122MOL0     H16088  10.414   3.620   6.932 -0.9654  1.3095  0.3203
  122MOL0     H16089  10.193   3.574   7.036 -0.0842  1.3938 -0.4185
  122MOL0     H16090   8.476   3.885   7.500 -0.6727  1.7470  0.6485
  122MOL0     H16091   8.223   3.856   7.481 -1.9286 -1.3701  0.5634
  122MOL0     H16092   7.883   3.621   7.777  2.5766  2.8084 -0.2416
  122MOL0     H16093   7.642   3.561   7.802 -1.1201  1.7058 -0.0396
  122MOL0     H16094   7.370   3.795   7.550 -0.8597 -1.4251 -0.0374
  122MOL0     H16095   7.306   3.815   7.714  0.5174  0.6470  1.1698
  122MOL0     H16096   7.269   3.543   7.631  2.8046  1.2661  2.0003
  122MOL0     H16097   7.147   3.652   7.687 -0.0350  0.1969  0.1250
  122MOL0     H16098   7.251   3.650   7.406  0.0319  3.4380 -0.1742
  122MOL0     H16099   7.113   3.749   7.462 -0.8769 -0.4731 -0.6325
  122MOL0     H16100   7.063   3.523   7.334 -0.1186 -2.0242  0.0503
  122MOL0     H16101   7.134   3.440   7.458 -0.3972 -0.4028 -1.4694
  122MOL0     H16102   6.758   3.485   7.623  1.1033 -2.0870  0.4406
  122MOL0     H16103   7.531   3.907   7.571  0.1994  1.4724  1.2060
  122MOL0     H16104   7.774   3.962   7.551  2.6077 -0.9089  0.1733
  123MOL0     O16105   2.178   7.532   8.740  0.7864 -0.0491 -0.5606
  123MOL0     C16106   2.242   7.620   8.683 -0.8650  0.0504 -0.0279
  123MOL0     O16107   2.208   7.755   8.670 -0.4506  0.0543 -0.0924
  123MOL0     C16108   2.101   7.806   8.734  0.1869 -1.0441 -0.0675
  123MOL0     C16109   2.080   7.791   8.870 -0.1170  0.0542  0.1173
  123MOL0     C16110   1.962   7.845   8.930 -0.0461 -0.4987 -0.6408
  123MOL0     C16111   1.857   7.905   8.851 -0.3893 -0.7016 -0.1196
  123MOL0     O16112   1.739   7.940   8.903 -0.9917  0.6223  0.3326
  123MOL0     C16113   1.667   8.051   8.848  0.1764 -0.0792  0.1748
  123MOL0     C16114   1.544   8.047   8.928 -0.1985  0.2979  1.0840
  123MOL0     C16115   1.471   8.177   8.912 -0.2772 -0.3345  0.1831
  123MOL0     C16116   1.333   8.164   8.971  0.4337 -0.2784 -0.2600
  123MOL0     C16117   1.240   8.085   8.881 -0.7687  0.0419  1.4308
  123MOL0     C16118   1.099   8.095   8.943 -0.0515  0.3911  0.1158
  123MOL0     C16119   0.999   8.058   8.828  0.2728 -0.7232  0.0222
  123MOL0     C16120   0.852   8.050   8.870 -0.0805 -0.2653 -0.2799
  123MOL0     N16121   0.796   8.183   8.902  0.1740 -0.0706  0.5445
  123MOL0     C16122   0.778   8.292   8.813 -0.2816  0.0391  0.2974
  123MOL0     C16123   0.734   8.395   8.897 -0.6384  0.6599  0.6687
  123MOL0     C16124   0.702   8.533   8.848  0.0765  0.7938 -0.1584
  123MOL0     C16125   0.558   8.525   8.797  0.4931 -0.5205  0.7879
  123MOL0     C16126   0.459   8.523   8.914  0.0953 -0.7529  0.4135
  123MOL0     C16127   0.307   8.561   8.876 -0.1811  0.1665 -0.2693
  123MOL0     O16128   0.277   8.455   8.782  0.1186  0.7566 -0.0771
  123MOL0     C16129   0.148   8.439   8.742 -0.0954  1.0161  0.6184
  123MOL0     C16130   0.038   8.443   8.830 -0.0580  0.3879 -0.1818
  123MOL0     C16131  -0.095   8.426   8.779 -0.2938  0.1144  0.2257
  123MOL0     C16132  -0.122   8.382   8.650  0.3439 -1.0450 -0.3456
  123MOL0     C16133  -0.254   8.373   8.587  0.2476  0.5272 -0.5559
  123MOL0     O16134  -0.357   8.390   8.678  0.0871  0.5226  0.8848
  123MOL0     C16135  -0.485   8.363   8.639  0.5548 -0.5935 -0.0802
  123MOL0     C16136  -0.592   8.444   8.678 -0.0612 -0.0815  0.0100
  123MOL0     C16137  -0.727   8.422   8.632  0.1495  0.9643  0.4108
  123MOL0     C16138  -0.756   8.308   8.551 -0.1688 -0.8449  0.1486
  123MOL0     O16139  -0.883   8.277   8.517  0.5601  0.2829 -0.6332
  123MOL0     C16140  -0.992   8.321   8.609 -0.4846 -0.7205  0.7550
  123MOL0     C16141  -1.123   8.259   8.558  0.6537 -0.3974 -0.6509
  123MOL0     C16142  -1.248   8.328   8.610  0.8228 -0.0783 -0.5266
  123MOL0     C16143  -1.382   8.271   8.558 -0.2298  0.4767 -0.3956
  123MOL0     C16144  -1.506   8.319   8.631  0.0081 -0.3717  0.3946
  123MOL0     C16145  -1.539   8.459   8.585 -0.3042  0.2674  0.0416
  123MOL0     C16146  -1.674   8.516   8.612  0.3644 -0.0827 -0.0986
  123MOL0     C16147  -1.792   8.447   8.538  0.2984  0.6274  0.1971
  123MOL0    Cl16148  -1.829   8.554   8.397  0.3970  0.0649 -0.2061
  123MOL0     C16149  -0.647   8.232   8.505 -0.3956  0.0283  0.2906
  123MOL0     C16150  -0.520   8.255   8.549  0.7493 -0.7004  0.5985
  123MOL0     O16151  -0.268   8.350   8.469 -0.5910  0.0801  0.7804
  123MOL0     C16152  -0.010   8.365   8.566 -0.1960 -0.2169 -0.0578
  123MOL0     C16153   0.125   8.386   8.615  0.7433  0.4232  0.3244
  123MOL0     N16154   0.717   8.344   9.023  0.9621 -0.4538 -0.0092
  123MOL0     N16155   0.757   8.219   9.025 -0.1729 -0.0326  0.1074
  123MOL0     C16156   1.892   7.937   8.714  0.5026  0.9505  0.3227
  123MOL0     C16157   2.014   7.889   8.659 -0.4520 -0.3862 -0.3440
  123MOL0     C16158   2.365   7.567   8.617  0.1014  1.2126 -0.0298
  123MOL0     C16159   2.450   7.649   8.542 -0.3268  0.2078 -0.3160
  123MOL0     C16160   2.562   7.593   8.483 -0.3040  0.1764 -0.2885
  123MOL0     C16161   2.609   7.462   8.513  0.3513  0.2374  0.2790
  123MOL0     O16162   2.730   7.416   8.480 -0.5882 -0.0954  0.6444
  123MOL0     C16163   2.819   7.511   8.429 -0.3372  0.5053  0.0308
  123MOL0     C16164   2.951   7.441   8.401  0.2101  0.2197  0.4227
  123MOL0     C16165   2.947   7.300   8.341 -1.1223 -0.9839  0.1304
  123MOL0     C16166   2.951   7.180   8.436  0.4551  0.5027 -0.4680
  123MOL0     C16167   3.074   7.154   8.509  0.1873 -0.4000  0.3689
  123MOL0     C16168   3.173   7.146   8.578  0.1466  0.1474 -0.8028
  123MOL0     C16169   2.525   7.380   8.595  0.1500  0.0212  0.2601
  123MOL0     C16170   2.401   7.430   8.639 -0.1889 -0.3680 -0.0298
  123MOL0     H16171   2.153   7.736   8.929 -0.7676  0.2605  1.1419
  123MOL0     H16172   1.954   7.830   9.037  2.8893  0.3535 -0.2278
  123MOL0     H16173   1.645   8.049   8.741 -1.0486 -1.4425  0.4335
  123MOL0     H16174   1.721   8.142   8.876  0.8962 -1.4092  3.5574
  123MOL0     H16175   1.573   8.027   9.032  0.5539 -0.8379  0.6755
  123MOL0     H16176   1.479   7.969   8.888 -1.3438  3.2281 -3.4329
  123MOL0     H16177   1.460   8.212   8.809 -0.6788  1.0767  0.6903
  123MOL0     H16178   1.531   8.243   8.976  0.3936  0.2600 -1.0190
  123MOL0     H16179   1.333   8.121   9.072 -2.0011 -0.1910 -0.1772
  123MOL0     H16180   1.292   8.264   8.986  0.0556 -0.4114 -0.4057
  123MOL0     H16181   1.273   7.982   8.874  0.0095  0.3962 -1.4401
  123MOL0     H16182   1.240   8.123   8.778  0.6068 -0.6574  1.1566
  123MOL0     H16183   1.073   8.193   8.983  0.7267  0.2798  0.9028
  123MOL0     H16184   1.088   8.026   9.027  2.8519 -0.3379 -0.0201
  123MOL0     H16185   1.009   8.131   8.747 -2.4272 -2.5182 -2.0791
  123MOL0     H16186   1.017   7.959   8.784  0.3908 -0.1035 -1.3686
  123MOL0     H16187   0.841   7.985   8.957 -2.4822 -0.1556 -0.4405
  123MOL0     H16188   0.781   8.017   8.794 -1.4614 -0.4808  1.0599
  123MOL0     H16189   0.807   8.299   8.708  1.8197  0.4072  0.8553
  123MOL0     H16190   0.772   8.564   8.769 -0.6621  1.1372 -0.6855
  123MOL0     H16191   0.698   8.612   8.924  0.4254 -1.5475  2.4691
  123MOL0     H16192   0.530   8.444   8.729 -2.4645  0.9006  0.1472
  123MOL0     H16193   0.546   8.609   8.728 -1.1934  0.1942  1.8741
  123MOL0     H16194   0.462   8.420   8.949  0.3673 -2.2408 -3.5099
  123MOL0     H16195   0.500   8.592   8.988  1.0483 -1.2711  0.3779
  123MOL0     H16196   0.309   8.662   8.834  0.5679 -0.8454 -2.8536
  123MOL0     H16197   0.245   8.557   8.966 -0.0119 -2.3328 -0.1971
  123MOL0     H16198   0.058   8.453   8.936  0.9387 -1.2751 -0.1657
  123MOL0     H16199  -0.179   8.442   8.846  0.2597  1.7729  0.5589
  123MOL0     H16200  -0.581   8.525   8.749  2.1699 -0.1641 -0.1802
  123MOL0     H16201  -0.800   8.471   8.695 -0.3119 -2.0355  2.4670
  123MOL0     H16202  -0.991   8.430   8.617  0.6102 -0.7522  1.2791
  123MOL0     H16203  -0.969   8.280   8.708 -0.6470 -2.4216  0.1222
  123MOL0     H16204  -1.115   8.157   8.597 -4.2233  1.0450  5.9299
  123MOL0     H16205  -1.114   8.261   8.449  3.3091  0.6817 -0.5103
  123MOL0     H16206  -1.248   8.437   8.594 -3.5484  0.5688  2.2932
  123MOL0     H16207  -1.261   8.310   8.717 -0.2277 -0.6188 -0.7372
  123MOL0     H16208  -1.394   8.290   8.451  0.0379 -0.4381 -0.5969
  123MOL0     H16209  -1.372   8.163   8.566  3.1425  0.7573  0.6188
  123MOL0     H16210  -1.497   8.319   8.740  1.8254  3.7894  0.4106
  123MOL0     H16211  -1.596   8.260   8.609 -0.1018 -0.5047  1.1525
  123MOL0     H16212  -1.527   8.453   8.476  1.8730 -1.9962  0.3169
  123MOL0     H16213  -1.456   8.521   8.621 -0.0838  0.7447 -1.2220
  123MOL0     H16214  -1.698   8.537   8.716 -0.0734 -0.7219 -0.0646
  123MOL0     H16215  -1.665   8.613   8.561 -0.3874 -0.5513 -1.1667
  123MOL0     H16216  -1.874   8.433   8.608 -0.1414  0.3314 -0.3752
  123MOL0     H16217  -1.765   8.346   8.505 -0.7917 -0.9466  3.5929
  123MOL0     H16218  -0.668   8.149   8.438 -1.6683  0.5352  0.0350
  123MOL0     H16219  -0.445   8.186   8.512  1.7210  0.6608 -0.0563
  123MOL0     H16220  -0.021   8.340   8.461  0.5169 -0.3593 -0.1038
  123MOL0     H16221   0.211   8.385   8.548  0.1365  1.9676 -0.5363
  123MOL0     H16222   1.823   7.998   8.658  1.4339  0.6472 -1.2260
  123MOL0     H16223   2.040   7.905   8.555 -1.1724  2.1822 -0.1824
  123MOL0     H16224   2.428   7.750   8.511  0.2137  0.7318  0.9728
  123MOL0     H16225   2.633   7.654   8.427  0.4196 -1.3662 -1.0961
  123MOL0     H16226   2.828   7.602   8.490  0.3965  0.7197 -0.3834
  123MOL0     H16227   2.787   7.534   8.327 -1.3321  3.2224  0.8473
  123MOL0     H16228   3.003   7.511   8.335 -0.1328  0.1941  0.1234
  123MOL0     H16229   3.004   7.431   8.496  0.6227  0.3950  0.2102
  123MOL0     H16230   3.039   7.289   8.283 -2.1413 -2.8999 -1.2129
  123MOL0     H16231   2.868   7.296   8.266  0.8279  0.8926 -2.2091
  123MOL0     H16232   2.866   7.176   8.505  0.3333 -1.5879 -0.6767
  123MOL0     H16233   2.936   7.097   8.368  0.9611  0.8521 -1.0128
  123MOL0     H16234   3.258   7.137   8.642  0.0894  0.9140 -0.6123
  123MOL0     H16235   2.555   7.277   8.614  3.2508  0.2749 -2.3509
  123MOL0     H16236   2.346   7.362   8.704  0.5349 -0.1458  0.8343
  124MOL0     O16237   8.522   0.733   2.167  0.2355  0.4418  0.6850
  124MOL0     C16238   8.603   0.733   2.071  0.6636  0.1602 -0.0684
  124MOL0     O16239   8.569   0.749   1.944  0.0586  0.2428 -0.1445
  124MOL0     C16240   8.436   0.772   1.914  0.0988  0.1506 -0.0304
  124MOL0     C16241   8.361   0.663   1.868 -0.2441  0.2441 -0.5109
  124MOL0     C16242   8.224   0.675   1.831  1.2753 -1.1077  0.2679
  124MOL0     C16243   8.171   0.813   1.826  0.1241  0.3615  0.6027
  124MOL0     O16244   8.051   0.846   1.786  0.4625 -0.1949  0.8076
  124MOL0     C16245   7.988   0.759   1.688  0.4179  0.6747  0.1151
  124MOL0     C16246   7.893   0.843   1.592 -1.2333 -0.1558 -0.2224
  124MOL0     C16247   7.774   0.906   1.675 -0.8523  0.4242  0.4616
  124MOL0     C16248   7.674   0.822   1.752 -0.1144  0.7677 -0.2964
  124MOL0     C16249   7.574   0.909   1.821 -0.6437 -0.2000 -0.4953
  124MOL0     C16250   7.495   0.843   1.937  0.9472 -0.1007 -0.6630
  124MOL0     C16251   7.364   0.930   1.947  0.1650  0.3363  0.1233
  124MOL0     C16252   7.284   0.861   2.053 -0.7840  0.9072  0.6973
  124MOL0     N16253   7.147   0.919   2.060 -0.0944  1.3429  0.0154
  124MOL0     C16254   7.114   1.035   2.130  0.7458  0.0945  0.0224
  124MOL0     C16255   7.002   1.078   2.071  0.4823  0.0205  0.1137
  124MOL0     C16256   6.936   1.208   2.108  0.5405 -0.3478 -0.0916
  124MOL0     C16257   6.807   1.242   2.032  0.3845 -0.1377 -0.2169
  124MOL0     C16258   6.737   1.369   2.097  0.1356 -0.6446 -0.1407
  124MOL0     C16259   6.610   1.419   2.032  0.5583 -0.6380 -0.2543
  124MOL0     O16260   6.547   1.508   2.119  0.1987 -0.0112 -0.6019
  124MOL0     C16261   6.412   1.526   2.121  0.3176 -0.1372  0.6203
  124MOL0     C16262   6.350   1.597   2.220  0.5474  0.1716  0.1599
  124MOL0     C16263   6.219   1.604   2.235  0.0288 -0.0491  0.7597
  124MOL0     C16264   6.144   1.544   2.142  0.1988 -0.2777 -0.4698
  124MOL0     C16265   5.995   1.538   2.159 -0.2060 -0.4321  1.1492
  124MOL0     O16266   5.942   1.414   2.140  0.1397 -0.6963 -0.2846
  124MOL0     C16267   5.809   1.387   2.148  0.6193  0.3171  1.2382
  124MOL0     C16268   5.752   1.313   2.037  0.1344  0.3994  0.1966
  124MOL0     C16269   5.624   1.268   2.035  0.6908  0.2413  0.0359
  124MOL0     C16270   5.539   1.293   2.143 -0.3207  0.2738 -0.3969
  124MOL0     O16271   5.407   1.252   2.142  0.7170 -0.0158  0.4165
  124MOL0     C16272   5.319   1.285   2.244 -0.7476 -0.4469 -0.5538
  124MOL0     C16273   5.174   1.275   2.200 -0.1816  0.2693  0.0364
  124MOL0     C16274   5.081   1.321   2.325  0.0706  0.5836  0.6482
  124MOL0     C16275   4.931   1.308   2.283  0.3360 -1.0508 -0.7972
  124MOL0     C16276   4.852   1.327   2.414  0.4782  0.3932 -0.0486
  124MOL0     C16277   4.692   1.304   2.397  0.2804  0.3030 -0.6012
  124MOL0     C16278   4.617   1.326   2.528  0.1194  0.3199  0.1488
  124MOL0     C16279   4.463   1.292   2.505  0.4675 -0.7982  0.1541
  124MOL0    Cl16280   4.364   1.381   2.624  0.1965 -0.2093 -0.0005
  124MOL0     C16281   5.592   1.365   2.260  0.1298  0.0025 -0.1447
  124MOL0     C16282   5.730   1.409   2.266  0.3298 -0.0051  0.0159
  124MOL0     O16283   5.935   1.635   2.193  0.1721  0.1344  0.6262
  124MOL0     C16284   6.195   1.472   2.039 -0.4369  0.0088 -0.0341
  124MOL0     C16285   6.328   1.474   2.020  0.0251  0.0293 -0.4153
  124MOL0     N16286   6.964   0.988   1.970 -0.1553  0.2489  0.3853
  124MOL0     N16287   7.045   0.889   1.972 -0.3821 -0.2449 -0.4370
  124MOL0     C16288   8.247   0.920   1.877 -0.9762  0.4734  0.7580
  124MOL0     C16289   8.379   0.900   1.924 -0.4470 -0.2828  0.6406
  124MOL0     C16290   8.744   0.722   2.095 -0.1698 -0.9777 -1.7267
  124MOL0     C16291   8.793   0.718   2.226 -0.3321 -0.3051 -0.9469
  124MOL0     C16292   8.927   0.712   2.261 -0.3690  1.1221  0.0340
  124MOL0     C16293   9.021   0.715   2.152  0.2270 -0.1852 -0.0700
  124MOL0     O16294   9.161   0.736   2.153 -0.0128 -0.3303 -0.5068
  124MOL0     C16295   9.227   0.723   2.284 -1.2712  0.3269 -0.1451
  124MOL0     C16296   9.336   0.827   2.303  0.0167 -0.4906 -0.0369
  124MOL0     C16297   9.436   0.826   2.196  0.7032 -0.8056 -0.4372
  124MOL0     C16298   9.496   0.696   2.188 -0.3603 -0.4859 -0.3855
  124MOL0     C16299   9.612   0.714   2.113 -0.0466 -0.2698  0.4771
  124MOL0     C16300   9.723   0.740   2.062  0.6494  0.6006  0.2495
  124MOL0     C16301   8.978   0.715   2.020  0.3706 -0.1866  0.1754
  124MOL0     C16302   8.844   0.733   1.996 -0.5720 -0.4019 -0.3558
  124MOL0     H16303   8.398   0.562   1.865 -1.8946 -0.4978  1.6331
  124MOL0     H16304   8.153   0.594   1.821 -0.2954 -0.0463  2.1339
  124MOL0     H16305   7.945   0.672   1.738  0.8831 -0.5679 -1.5659
  124MOL0     H16306   8.061   0.716   1.619 -0.3106 -0.0055 -0.2401
  124MOL0     H16307   7.864   0.772   1.515 -2.0892  2.1900 -2.1711
  124MOL0     H16308   7.947   0.929   1.550 -0.5272 -0.5204 -0.0884
  124MOL0     H16309   7.722   0.961   1.595 -2.0210 -1.8242 -0.4218
  124MOL0     H16310   7.820   0.976   1.745  1.8925 -0.6167 -0.1622
  124MOL0     H16311   7.617   0.752   1.690  0.1940 -1.3944  1.7244
  124MOL0     H16312   7.715   0.762   1.834 -1.0437  0.6342  0.0791
  124MOL0     H16313   7.509   0.941   1.740 -1.0740 -2.3312 -1.0621
  124MOL0     H16314   7.626   0.994   1.866  1.4198 -0.3871 -2.4047
  124MOL0     H16315   7.562   0.842   2.023 -0.7713  1.9151  0.8022
  124MOL0     H16316   7.462   0.741   1.912 -3.3577  0.6557  0.9541
  124MOL0     H16317   7.374   1.038   1.966 -0.6531  1.0664 -3.0180
  124MOL0     H16318   7.309   0.909   1.855 -0.0922  0.8855  0.1420
  124MOL0     H16319   7.342   0.884   2.144 -0.4795  1.0996  0.4552
  124MOL0     H16320   7.283   0.755   2.028  2.0821  1.0049 -0.1964
  124MOL0     H16321   7.176   1.085   2.204 -0.7248  2.5613 -0.3123
  124MOL0     H16322   7.009   1.288   2.108  1.2218 -0.5938  5.5029
  124MOL0     H16323   6.913   1.191   2.213  1.0867  0.6079  0.1848
  124MOL0     H16324   6.741   1.154   2.036 -1.0349  0.9469  1.3184
  124MOL0     H16325   6.831   1.250   1.925 -1.9554  0.3165 -0.7588
  124MOL0     H16326   6.723   1.348   2.204  1.1979  3.8053  1.0636
  124MOL0     H16327   6.803   1.455   2.089 -0.8561  0.0530 -1.0592
  124MOL0     H16328   6.551   1.328   2.013  0.0058  0.1317 -2.5119
  124MOL0     H16329   6.632   1.450   1.929  3.3896  0.6178  0.6286
  124MOL0     H16330   6.402   1.654   2.296  0.3720  0.9737 -0.3036
  124MOL0     H16331   6.176   1.650   2.323 -0.4312 -1.0393  1.0569
  124MOL0     H16332   5.815   1.293   1.950 -1.1418 -3.0417 -0.0674
  124MOL0     H16333   5.588   1.222   1.944  0.9021  1.4420 -0.6756
  124MOL0     H16334   5.327   1.389   2.278 -0.8320 -1.3368  2.3854
  124MOL0     H16335   5.329   1.220   2.331 -2.9442  0.2756  0.3082
  124MOL0     H16336   5.147   1.170   2.183 -3.5770  0.9406  0.6382
  124MOL0     H16337   5.152   1.333   2.110 -1.0868  2.2731  1.4784
  124MOL0     H16338   5.106   1.423   2.354  0.4469  0.4342  0.8516
  124MOL0     H16339   5.099   1.254   2.409 -1.4293  0.2051  0.7092
  124MOL0     H16340   4.899   1.388   2.216  1.1817 -0.7183 -0.8165
  124MOL0     H16341   4.920   1.209   2.238 -0.0090 -0.6658 -1.5616
  124MOL0     H16342   4.859   1.428   2.456  0.2140 -0.5382  2.4009
  124MOL0     H16343   4.891   1.256   2.487 -1.2084  0.3082  0.7917
  124MOL0     H16344   4.667   1.207   2.353 -1.1870  1.4187 -2.3499
  124MOL0     H16345   4.646   1.373   2.327  2.1471  1.4308 -0.7891
  124MOL0     H16346   4.666   1.265   2.604  0.5072  1.7641  1.0943
  124MOL0     H16347   4.622   1.432   2.556 -3.4064  0.7561 -0.4028
  124MOL0     H16348   4.448   1.185   2.522 -1.1302 -0.2245  2.9780
  124MOL0     H16349   4.439   1.329   2.405  1.2674  0.6894  0.4774
  124MOL0     H16350   5.530   1.385   2.347  2.1582 -0.6115  1.5402
  124MOL0     H16351   5.779   1.448   2.355 -0.3786  0.0920  0.3681
  124MOL0     H16352   6.134   1.424   1.963 -1.4206  1.1292  0.0152
  124MOL0     H16353   6.366   1.433   1.926  1.5475  1.4925 -0.4856
  124MOL0     H16354   8.201   1.018   1.879 -0.5158  0.6722  1.7117
  124MOL0     H16355   8.441   0.979   1.967  3.3827 -1.7002 -1.7819
  124MOL0     H16356   8.721   0.713   2.308  0.3287 -0.3341 -0.3635
  124MOL0     H16357   8.958   0.722   2.364  1.7158 -0.5383 -0.3663
  124MOL0     H16358   9.265   0.621   2.292  0.4042  0.8719 -0.7351
  124MOL0     H16359   9.150   0.739   2.360 -1.2444 -0.6494  0.1098
  124MOL0     H16360   9.284   0.922   2.319  1.2788  0.3192 -0.5801
  124MOL0     H16361   9.396   0.811   2.394 -0.5847  0.6949  0.6019
  124MOL0     H16362   9.512   0.901   2.217 -1.2633  1.1812 -0.0846
  124MOL0     H16363   9.407   0.856   2.095  0.2982 -1.0375 -0.3909
  124MOL0     H16364   9.517   0.652   2.286 -1.3057  1.3281  0.6693
  124MOL0     H16365   9.429   0.623   2.140 -2.4098 -0.7326  2.5931
  124MOL0     H16366   9.821   0.765   2.025  0.2812  0.3504 -0.9477
  124MOL0     H16367   9.054   0.717   1.943 -0.2162  2.9066 -0.4559
  124MOL0     H16368   8.808   0.758   1.897 -0.5700  0.8109 -0.0583
  125MOL0     O16369   1.958   2.015   1.923  0.0775  0.1735 -0.6888
  125MOL0     C16370   1.971   2.091   1.828  1.1874 -0.8302  0.1751
  125MOL0     O16371   1.882   2.108   1.725  0.3181  0.1934 -0.0068
  125MOL0     C16372   1.753   2.062   1.735 -0.1228  0.0977  0.7877
  125MOL0     C16373   1.679   2.076   1.859  0.9600  0.1636 -0.1080
  125MOL0     C16374   1.541   2.049   1.869 -0.4809 -0.5552  0.3275
  125MOL0     C16375   1.472   1.998   1.757 -0.0451  0.2914  0.5336
  125MOL0     O16376   1.335   1.995   1.769  0.1922  0.2243  0.0980
  125MOL0     C16377   1.264   1.986   1.642 -0.5540 -0.3694  0.4695
  125MOL0     C16378   1.122   2.011   1.675  0.3780  0.4272  0.2729
  125MOL0     C16379   1.101   2.153   1.735 -0.6657 -0.5883 -0.2946
  125MOL0     C16380   0.958   2.179   1.784  0.4186  0.2879 -0.2889
  125MOL0     C16381   0.951   2.292   1.895  0.3935  0.5357 -0.2262
  125MOL0     C16382   0.994   2.239   2.026 -0.1266  0.5528  0.8795
  125MOL0     C16383   0.993   2.348   2.130 -0.2094  0.1679  0.7163
  125MOL0     C16384   1.017   2.296   2.274  0.5131 -0.7884 -0.6320
  125MOL0     N16385   0.994   2.407   2.366 -0.2045 -0.3317 -0.9741
  125MOL0     C16386   0.908   2.398   2.478 -0.1911  0.4324  0.4299
  125MOL0     C16387   0.928   2.511   2.552  0.6509  0.2105  0.0704
  125MOL0     C16388   0.867   2.554   2.682 -0.7869  0.5213  0.8695
  125MOL0     C16389   0.724   2.612   2.655  0.7888  0.0675  0.2609
  125MOL0     C16390   0.620   2.503   2.624  0.0725 -0.2253  0.1635
  125MOL0     C16391   0.485   2.529   2.701 -0.3399 -0.0402 -1.0533
  125MOL0     O16392   0.410   2.626   2.636 -0.2350 -0.2712  0.3367
  125MOL0     C16393   0.286   2.582   2.594  0.2913 -0.2695 -0.1295
  125MOL0     C16394   0.267   2.586   2.456 -0.6046 -0.0741  0.1636
  125MOL0     C16395   0.144   2.562   2.395 -0.2130 -0.8176  0.2865
  125MOL0     C16396   0.031   2.540   2.476 -0.2277  0.3310 -0.5295
  125MOL0     C16397  -0.101   2.516   2.412 -0.0862 -0.2552 -0.4802
  125MOL0     O16398  -0.195   2.470   2.501  0.8135  0.5475 -0.3853
  125MOL0     C16399  -0.328   2.445   2.465  0.3795  0.5916 -0.2288
  125MOL0     C16400  -0.377   2.418   2.338 -0.6512  0.1327  0.5893
  125MOL0     C16401  -0.509   2.387   2.322  0.5758  0.1982 -0.1393
  125MOL0     C16402  -0.600   2.397   2.425  0.6981 -0.5854  0.5231
  125MOL0     O16403  -0.735   2.361   2.406  0.5857  0.1208  0.3618
  125MOL0     C16404  -0.751   2.240   2.335  0.3019  0.1255 -0.1537
  125MOL0     C16405  -0.861   2.166   2.413  0.6466  0.9164  0.0055
  125MOL0     C16406  -0.965   2.263   2.484 -0.2026  0.7667  0.3203
  125MOL0     C16407  -1.065   2.187   2.557  1.1023 -0.1707 -0.1858
  125MOL0     C16408  -1.162   2.108   2.469  0.5848 -0.8738  0.1403
  125MOL0     C16409  -1.291   2.191   2.437 -0.5553 -0.5987 -1.1587
  125MOL0     C16410  -1.271   2.284   2.319 -0.2664  0.0036  0.4747
  125MOL0     C16411  -1.408   2.321   2.264  0.0214 -0.2467 -0.0639
  125MOL0    Cl16412  -1.486   2.171   2.198  0.0609  0.7409  0.0849
  125MOL0     C16413  -0.555   2.429   2.556 -0.0785  1.0114  0.4490
  125MOL0     C16414  -0.414   2.444   2.575  0.3840  0.0690 -0.6085
  125MOL0     O16415  -0.121   2.555   2.300 -0.6496 -0.0898  0.1555
  125MOL0     C16416   0.051   2.553   2.610  0.4213 -0.1485  0.0687
  125MOL0     C16417   0.179   2.575   2.667  0.5978  0.0581 -0.7134
  125MOL0     N16418   1.033   2.579   2.497 -0.0720  0.4448  0.1103
  125MOL0     N16419   1.067   2.520   2.385 -0.3285  0.2954  0.2988
  125MOL0     C16420   1.547   1.979   1.638 -0.7973 -0.1433 -0.5149
  125MOL0     C16421   1.681   2.016   1.625  0.0571  0.2461 -0.1902
  125MOL0     C16422   2.102   2.145   1.796 -0.3194  0.0145  0.3829
  125MOL0     C16423   2.204   2.155   1.890 -1.2805  0.9721  0.3728
  125MOL0     C16424   2.338   2.194   1.861  1.3033 -0.2864  0.0739
  125MOL0     C16425   2.373   2.230   1.730  0.5784  0.3983  0.1747
  125MOL0     O16426   2.495   2.276   1.681 -0.6463 -0.1111  0.9310
  125MOL0     C16427   2.595   2.299   1.781 -0.2948 -0.4938  0.2184
  125MOL0     C16428   2.710   2.388   1.725  0.2694 -0.0050 -0.6938
  125MOL0     C16429   2.819   2.398   1.838  0.3248  0.1102 -0.2016
  125MOL0     C16430   2.957   2.424   1.788 -0.4680 -0.4234 -0.7773
  125MOL0     C16431   3.009   2.337   1.681 -0.2069 -0.2516  0.5286
  125MOL0     C16432   3.056   2.246   1.618  0.1024  0.0408 -0.1514
  125MOL0     C16433   2.269   2.222   1.639  0.2105  0.0151 -0.1055
  125MOL0     C16434   2.143   2.181   1.666  1.3849  0.5603  0.5549
  125MOL0     H16435   1.732   2.105   1.949 -2.7331 -0.1348  2.3704
  125MOL0     H16436   1.481   2.079   1.954 -0.0286  1.6050 -0.0642
  125MOL0     H16437   1.288   1.890   1.596 -0.5300  0.5731 -1.5668
  125MOL0     H16438   1.308   2.068   1.585  0.8746  1.6386  4.1111
  125MOL0     H16439   1.085   1.936   1.746 -1.2857 -0.2941 -1.2648
  125MOL0     H16440   1.064   2.007   1.582  2.0512  0.2432 -0.8016
  125MOL0     H16441   1.147   2.229   1.671 -0.8775 -0.4031 -0.2262
  125MOL0     H16442   1.154   2.148   1.830 -0.3418  0.1245 -0.4327
  125MOL0     H16443   0.894   2.208   1.700  1.1533  1.7699 -0.3840
  125MOL0     H16444   0.921   2.081   1.814 -1.5533  0.5852 -1.5766
  125MOL0     H16445   0.850   2.332   1.906  0.4723  0.4706  0.8477
  125MOL0     H16446   1.011   2.378   1.866 -0.8383  1.7167  0.6148
  125MOL0     H16447   1.096   2.201   2.019  0.3599  1.3796  2.8591
  125MOL0     H16448   0.917   2.166   2.055 -0.4366  0.8177  0.7311
  125MOL0     H16449   1.068   2.425   2.112  1.3438 -1.3161  0.5705
  125MOL0     H16450   0.900   2.404   2.115  0.5118  0.4072 -4.7550
  125MOL0     H16451   1.119   2.264   2.299  0.8882  0.9654  0.3061
  125MOL0     H16452   0.948   2.213   2.292  1.6227 -1.5754  0.2060
  125MOL0     H16453   0.833   2.328   2.513  0.8356 -1.2311 -0.5724
  125MOL0     H16454   0.937   2.616   2.740  0.3641  0.2757 -0.2231
  125MOL0     H16455   0.844   2.458   2.730 -2.6359  1.0878  1.1895
  125MOL0     H16456   0.721   2.694   2.583  0.3607  0.0286  0.2307
  125MOL0     H16457   0.702   2.671   2.744  1.5119  2.9096 -1.2986
  125MOL0     H16458   0.597   2.505   2.517 -0.0935 -0.8339  0.1846
  125MOL0     H16459   0.647   2.400   2.648 -3.6936 -1.4781 -0.2009
  125MOL0     H16460   0.497   2.566   2.803 -0.1476  0.6111 -1.3060
  125MOL0     H16461   0.430   2.435   2.712  0.0527 -0.1081  0.4907
  125MOL0     H16462   0.352   2.609   2.392 -0.8683 -3.8987 -1.8617
  125MOL0     H16463   0.136   2.567   2.287 -1.3676 -0.7333  0.3630
  125MOL0     H16464  -0.305   2.416   2.258 -0.8658  1.8739  0.3049
  125MOL0     H16465  -0.539   2.352   2.224 -1.6556  0.3262  0.4393
  125MOL0     H16466  -0.662   2.177   2.327  0.0695  0.0205 -3.0639
  125MOL0     H16467  -0.783   2.265   2.234  1.0592  0.2236 -0.3700
  125MOL0     H16468  -0.817   2.098   2.487  3.3533  0.3550 -1.9548
  125MOL0     H16469  -0.910   2.115   2.330  1.6882 -1.3173  0.6916
  125MOL0     H16470  -1.014   2.328   2.412  0.9176  1.0107 -0.2517
  125MOL0     H16471  -0.909   2.317   2.562 -1.6396 -2.2140  3.6847
  125MOL0     H16472  -1.009   2.114   2.616  2.4541  2.3193  1.8265
  125MOL0     H16473  -1.113   2.247   2.635  0.0351 -0.4737 -0.5929
  125MOL0     H16474  -1.185   2.027   2.538  1.0334 -2.3948 -1.4238
  125MOL0     H16475  -1.112   2.065   2.381  0.6029  2.9823 -1.9469
  125MOL0     H16476  -1.330   2.247   2.522 -2.4129 -0.0865 -2.2865
  125MOL0     H16477  -1.372   2.119   2.418 -1.3735 -1.3528  3.7938
  125MOL0     H16478  -1.212   2.372   2.344  1.4869 -0.8294 -0.5351
  125MOL0     H16479  -1.216   2.238   2.236 -0.4054  4.2084 -2.2819
  125MOL0     H16480  -1.389   2.401   2.192 -1.3690  0.9792  0.8616
  125MOL0     H16481  -1.465   2.363   2.348 -0.1419 -0.9311  0.1681
  125MOL0     H16482  -0.626   2.430   2.638  0.3231 -1.0628  0.8855
  125MOL0     H16483  -0.371   2.467   2.672  2.5999 -0.1036 -1.4972
  125MOL0     H16484  -0.029   2.553   2.683  0.6959 -1.4962  0.4035
  125MOL0     H16485   0.189   2.584   2.775 -0.2413 -2.3560 -0.3742
  125MOL0     H16486   1.504   1.955   1.541 -1.1746  2.3074 -1.0196
  125MOL0     H16487   1.725   2.005   1.526 -2.2114  0.7667 -1.3249
  125MOL0     H16488   2.186   2.124   1.992  1.3841 -0.4845  0.5142
  125MOL0     H16489   2.407   2.193   1.945  0.2838 -0.3811  0.9315
  125MOL0     H16490   2.632   2.202   1.818  0.1962 -0.8164 -1.0601
  125MOL0     H16491   2.561   2.356   1.868  2.1105 -1.4066  1.8925
  125MOL0     H16492   2.751   2.345   1.633  2.9146  2.0520 -0.5882
  125MOL0     H16493   2.662   2.484   1.704  0.6815  0.4429  0.3336
  125MOL0     H16494   2.815   2.311   1.905 -0.4703  1.6487  1.8290
  125MOL0     H16495   2.787   2.468   1.915 -1.0607 -1.8796  1.1148
  125MOL0     H16496   2.963   2.531   1.767  1.1842  0.4198  3.0340
  125MOL0     H16497   3.033   2.413   1.866  0.8031  0.1483 -1.8982
  125MOL0     H16498   3.080   2.163   1.554 -0.4973  1.1638 -1.8797
  125MOL0     H16499   2.282   2.265   1.541  0.0836  2.0252  0.7176
  125MOL0     H16500   2.072   2.176   1.584 -0.1489 -3.7930  1.8637
  126MOL0     O16501   0.297   4.819   1.077  0.4555  0.1341  0.7609
  126MOL0     C16502   0.368   4.895   1.006  0.4753  0.8200  0.2069
  126MOL0     O16503   0.322   5.013   0.949 -0.2035  0.8066  0.0977
  126MOL0     C16504   0.193   5.048   0.941 -0.6371  0.2029  0.3912
  126MOL0     C16505   0.089   4.953   0.914 -0.1274  0.0306 -1.0985
  126MOL0     C16506  -0.045   4.985   0.900 -0.7185  0.0950  0.6182
  126MOL0     C16507  -0.080   5.125   0.909  0.1477 -0.5115 -0.0402
  126MOL0     O16508  -0.213   5.155   0.895  0.1894 -0.2357  0.6114
  126MOL0     C16509  -0.263   5.289   0.908 -0.1395 -0.1510  0.3857
  126MOL0     C16510  -0.406   5.293   0.850 -0.6054 -0.1430  0.4856
  126MOL0     C16511  -0.465   5.430   0.866 -0.1765 -0.6736 -0.6954
  126MOL0     C16512  -0.613   5.440   0.834 -0.3065  0.3636 -0.2709
  126MOL0     C16513  -0.723   5.423   0.940 -0.2283  0.0128 -0.7474
  126MOL0     C16514  -0.802   5.297   0.912 -0.6550 -0.1865  0.2779
  126MOL0     C16515  -0.912   5.269   1.015 -0.1979 -0.0983 -0.1719
  126MOL0     C16516  -0.986   5.141   0.980  0.6213 -0.3862  1.1943
  126MOL0     N16517  -1.104   5.119   1.060  0.2044  0.6885  0.0464
  126MOL0     C16518  -1.094   5.089   1.191  1.1609  0.0527 -0.6735
  126MOL0     C16519  -1.222   5.095   1.239 -0.6640 -0.7740  0.7790
  126MOL0     C16520  -1.261   5.060   1.378 -0.3544  0.2715  0.3448
  126MOL0     C16521  -1.360   5.156   1.450  0.0717  0.7598  0.2151
  126MOL0     C16522  -1.312   5.301   1.476  0.2836 -0.5420 -0.3822
  126MOL0     C16523  -1.407   5.381   1.559  0.9292  0.3314  0.3780
  126MOL0     O16524  -1.405   5.329   1.695  0.2368 -0.7808  0.2260
  126MOL0     C16525  -1.504   5.384   1.780  0.2685 -0.4214  0.4053
  126MOL0     C16526  -1.539   5.523   1.780 -0.2985  0.2549  0.2796
  126MOL0     C16527  -1.635   5.563   1.874 -0.6558 -0.6487 -0.2859
  126MOL0     C16528  -1.700   5.478   1.962  0.2800 -0.2305  0.7454
  126MOL0     C16529  -1.807   5.521   2.060 -0.6902 -0.0895  0.2624
  126MOL0     O16530  -1.874   5.426   2.129  0.0372  0.4069 -0.4520
  126MOL0     C16531  -1.974   5.459   2.218 -0.7372 -0.1363  0.0487
  126MOL0     C16532  -2.074   5.544   2.185  0.4066  0.2753  0.6256
  126MOL0     C16533  -2.173   5.582   2.276  0.1031  0.2197 -0.2324
  126MOL0     C16534  -2.167   5.530   2.409  0.4541 -0.0486 -0.4438
  126MOL0     O16535  -2.259   5.559   2.512 -0.6390 -0.0067  0.0214
  126MOL0     C16536  -2.365   5.654   2.488 -0.4315  0.1438  0.3337
  126MOL0     C16537  -2.477   5.609   2.581  0.0238  0.5054  0.3078
  126MOL0     C16538  -2.438   5.618   2.728 -1.0451  0.4823  1.0262
  126MOL0     C16539  -2.558   5.590   2.815 -0.6209 -0.5084  0.1911
  126MOL0     C16540  -2.548   5.668   2.953 -0.4068  0.6974 -0.0394
  126MOL0     C16541  -2.416   5.626   3.026 -0.3351 -0.7227 -0.0191
  126MOL0     C16542  -2.418   5.672   3.175  0.3781 -0.0393  0.7323
  126MOL0     C16543  -2.495   5.578   3.269 -0.5158 -0.1498  0.8162
  126MOL0    Cl16544  -2.376   5.444   3.292  0.1365  0.2753 -0.3985
  126MOL0     C16545  -2.064   5.450   2.451 -0.3561 -0.2299  0.1701
  126MOL0     C16546  -1.971   5.407   2.348 -0.4848 -0.1040 -0.7265
  126MOL0     O16547  -1.824   5.643   2.074 -0.2228  0.1073 -0.0406
  126MOL0     C16548  -1.673   5.340   1.948 -0.6022  0.2152 -0.2117
  126MOL0     C16549  -1.578   5.294   1.857  0.2884  0.2579 -1.4172
  126MOL0     N16550  -1.306   5.113   1.129 -0.0010 -1.0550 -0.0268
  126MOL0     N16551  -1.238   5.119   1.024 -1.3690  0.3153  0.2373
  126MOL0     C16552   0.012   5.223   0.941 -0.8265  0.6803 -0.2437
  126MOL0     C16553   0.153   5.180   0.953  0.3427 -0.7544  0.0029
  126MOL0     C16554   0.507   4.854   0.993  0.0238  0.3437  0.4959
  126MOL0     C16555   0.573   4.898   0.882  0.0724 -0.2130 -0.7568
  126MOL0     C16556   0.705   4.857   0.861  0.6486 -0.4261  1.0259
  126MOL0     C16557   0.771   4.769   0.938  0.3274  0.6713  0.4020
  126MOL0     O16558   0.902   4.726   0.900  0.2944  0.0746  0.0862
  126MOL0     C16559   0.981   4.657   1.004 -0.6090 -0.6587  0.5736
  126MOL0     C16560   1.136   4.665   0.961  0.1096 -0.1341 -0.4793
  126MOL0     C16561   1.213   4.578   1.058  0.7357  0.5133 -0.0376
  126MOL0     C16562   1.359   4.556   1.030  0.2386  0.3801  0.5848
  126MOL0     C16563   1.378   4.474   0.905  0.2299  0.3105 -0.7483
  126MOL0     C16564   1.396   4.414   0.804  0.1948  0.3064  0.0673
  126MOL0     C16565   0.699   4.721   1.045  0.0971  0.1454 -0.1664
  126MOL0     C16566   0.570   4.762   1.075  0.3169  0.2097  1.2324
  126MOL0     H16567   0.113   4.847   0.914  2.0803  0.1243  4.6866
  126MOL0     H16568  -0.119   4.909   0.876 -1.1036  0.7082 -0.1729
  126MOL0     H16569  -0.202   5.362   0.855  0.0834 -1.7542 -1.6834
  126MOL0     H16570  -0.265   5.313   1.015 -0.2692 -1.0273  0.5917
  126MOL0     H16571  -0.471   5.215   0.891 -1.9262 -0.1377 -1.4414
  126MOL0     H16572  -0.415   5.275   0.743  0.2144  2.7725 -0.1502
  126MOL0     H16573  -0.409   5.494   0.798  1.1998 -0.6786  0.3969
  126MOL0     H16574  -0.449   5.463   0.969 -1.4070 -0.3104 -0.5959
  126MOL0     H16575  -0.627   5.539   0.791  1.5667  0.4979 -0.6782
  126MOL0     H16576  -0.636   5.380   0.745 -2.4906 -0.5324  0.8213
  126MOL0     H16577  -0.784   5.512   0.958 -0.7591 -0.7889  1.7474
  126MOL0     H16578  -0.691   5.407   1.043 -1.4446 -2.8757 -0.7339
  126MOL0     H16579  -0.734   5.214   0.893 -0.8034 -0.0890 -0.7264
  126MOL0     H16580  -0.861   5.299   0.820 -0.4175 -1.7212  0.0793
  126MOL0     H16581  -0.864   5.260   1.113 -0.4311  0.6639  0.0174
  126MOL0     H16582  -0.983   5.352   1.024  1.4283  2.1361 -4.7053
  126MOL0     H16583  -0.920   5.056   1.000 -0.2484 -1.6607 -1.0626
  126MOL0     H16584  -1.015   5.137   0.875 -2.5467  1.3248  1.8898
  126MOL0     H16585  -1.003   5.069   1.247  0.6355 -3.2855 -0.8255
  126MOL0     H16586  -1.166   5.051   1.432  0.4873 -0.0907 -1.1315
  126MOL0     H16587  -1.304   4.960   1.366  3.5426 -1.4426 -0.9725
  126MOL0     H16588  -1.393   5.112   1.545 -0.6135 -0.0662 -0.3833
  126MOL0     H16589  -1.450   5.164   1.387  0.9251  0.1779 -1.1037
  126MOL0     H16590  -1.209   5.297   1.513 -0.3429  1.9313  1.9062
  126MOL0     H16591  -1.302   5.345   1.376 -0.8577  3.0533  0.9404
  126MOL0     H16592  -1.505   5.363   1.515  1.4587  1.1014 -1.2029
  126MOL0     H16593  -1.383   5.488   1.558 -0.6651  0.7487  1.9381
  126MOL0     H16594  -1.492   5.598   1.717  0.8126  1.1855  2.1505
  126MOL0     H16595  -1.658   5.667   1.892 -0.0141 -0.8592  2.0405
  126MOL0     H16596  -2.076   5.585   2.085  0.4982  2.9477  1.6233
  126MOL0     H16597  -2.248   5.647   2.230  2.7803  2.0750 -2.3076
  126MOL0     H16598  -2.397   5.640   2.384 -0.6678 -0.8978  0.5305
  126MOL0     H16599  -2.333   5.757   2.501 -1.9200  0.5168  1.3477
  126MOL0     H16600  -2.502   5.504   2.563  2.0556 -0.1732  1.1331
  126MOL0     H16601  -2.574   5.655   2.560 -0.1130 -0.5760 -1.6447
  126MOL0     H16602  -2.407   5.722   2.745 -0.8176  0.5175  0.4274
  126MOL0     H16603  -2.350   5.557   2.747  0.4248  2.0131 -0.4064
  126MOL0     H16604  -2.653   5.625   2.773 -0.7026 -0.7859  0.1481
  126MOL0     H16605  -2.565   5.482   2.828 -0.6385 -1.7582 -6.4998
  126MOL0     H16606  -2.636   5.642   3.011  0.3682  1.3640  1.4937
  126MOL0     H16607  -2.561   5.776   2.942  0.9980  0.9575  0.5985
  126MOL0     H16608  -2.334   5.677   2.975 -0.3227 -0.0709  0.6307
  126MOL0     H16609  -2.405   5.517   3.022  0.3717 -0.7037  1.1409
  126MOL0     H16610  -2.316   5.670   3.214  0.4507 -0.1877  0.5414
  126MOL0     H16611  -2.453   5.775   3.178 -2.7150 -0.9954  1.1976
  126MOL0     H16612  -2.585   5.527   3.233 -0.7277 -0.4286  1.7017
  126MOL0     H16613  -2.515   5.637   3.360  0.0547  0.1918  0.7288
  126MOL0     H16614  -2.046   5.419   2.553  0.3059 -0.6645 -0.0731
  126MOL0     H16615  -1.881   5.351   2.370 -0.6896 -0.1733 -0.0328
  126MOL0     H16616  -1.729   5.266   2.003  0.2988 -0.9534 -0.8209
  126MOL0     H16617  -1.564   5.186   1.857 -2.0371 -0.2350  2.3672
  126MOL0     H16618  -0.014   5.328   0.953  1.1094  1.2209 -0.3884
  126MOL0     H16619   0.237   5.247   0.967  1.9575 -1.9527 -2.9404
  126MOL0     H16620   0.527   4.947   0.797 -1.1342 -1.3327 -0.7622
  126MOL0     H16621   0.749   4.907   0.775 -0.8227  0.9474  1.0152
  126MOL0     H16622   0.960   4.550   1.011 -0.9037 -0.7355 -1.0164
  126MOL0     H16623   0.964   4.702   1.102  1.8131 -1.2929  1.3523
  126MOL0     H16624   1.148   4.625   0.860  1.9269 -0.8832 -0.0173
  126MOL0     H16625   1.155   4.772   0.970 -3.0867  0.4923 -0.0394
  126MOL0     H16626   1.175   4.475   1.059 -0.2390  0.8639  0.2364
  126MOL0     H16627   1.211   4.618   1.160 -0.9078 -2.8845  1.4318
  126MOL0     H16628   1.409   4.650   1.007  1.4861 -0.5060 -0.4154
  126MOL0     H16629   1.410   4.515   1.118  0.7830  1.0313  0.5780
  126MOL0     H16630   1.413   4.363   0.711  2.9635 -1.1773  1.2904
  126MOL0     H16631   0.749   4.664   1.123 -0.6121  0.4152  0.5030
  126MOL0     H16632   0.509   4.722   1.156 -1.6761  1.7112  0.5355
  127MOL0     O16633   3.093  10.623   3.643 -0.4546  0.3978 -0.5152
  127MOL0     C16634   3.116  10.667   3.530 -0.2565  0.1473  0.6845
  127MOL0     O16635   3.047  10.764   3.475  0.6491  0.3713  0.6455
  127MOL0     C16636   2.917  10.778   3.520 -0.1325  0.5205  0.0389
  127MOL0     C16637   2.824  10.672   3.496 -0.8776 -0.5576 -0.0639
  127MOL0     C16638   2.690  10.697   3.521 -0.3175 -0.4310  0.0783
  127MOL0     C16639   2.649  10.805   3.591 -0.2797 -0.0043 -0.3966
  127MOL0     O16640   2.521  10.829   3.642 -0.0324 -0.1144  0.3984
  127MOL0     C16641   2.413  10.732   3.623 -0.2459 -0.1271 -0.2769
  127MOL0     C16642   2.306  10.774   3.715  0.1718 -0.4873 -0.4095
  127MOL0     C16643   2.178  10.725   3.652  0.6297  0.1835  0.4379
  127MOL0     C16644   2.052  10.762   3.742 -0.2151 -0.6490 -0.6651
  127MOL0     C16645   1.912  10.743   3.681  0.7435 -0.7700  0.2768
  127MOL0     C16646   1.823  10.789   3.796  0.0915 -0.0975  0.6754
  127MOL0     C16647   1.676  10.766   3.761 -0.9470 -0.2740 -0.5972
  127MOL0     C16648   1.587  10.852   3.843 -0.8874  1.0111 -0.4559
  127MOL0     N16649   1.453  10.804   3.817  0.0845  0.4121 -0.7688
  127MOL0     C16650   1.358  10.879   3.761  0.3929  0.2763 -0.3157
  127MOL0     C16651   1.263  10.791   3.735 -0.3078 -0.5104  0.6886
  127MOL0     C16652   1.128  10.815   3.669  0.1238  0.3063 -0.0483
  127MOL0     C16653   1.119  10.947   3.591 -0.0236  0.1304  0.9405
  127MOL0     C16654   0.995  10.941   3.489 -0.3518  0.4621 -0.5720
  127MOL0     C16655   0.993  11.046   3.380 -0.1904 -0.9008  0.0837
  127MOL0     O16656   0.923  11.155   3.442 -0.4455  0.4515  0.5711
  127MOL0     C16657   0.793  11.188   3.410  0.4096  0.7615  0.7020
  127MOL0     C16658   0.761  11.323   3.439 -0.5950 -0.1711 -0.1108
  127MOL0     C16659   0.636  11.373   3.409 -0.8435  0.2401 -0.3094
  127MOL0     C16660   0.540  11.294   3.345 -0.6749  0.6136  0.2196
  127MOL0     C16661   0.413  11.354   3.308  0.5954  0.0646 -0.6736
  127MOL0     O16662   0.321  11.263   3.261  0.2494 -0.1604 -0.2322
  127MOL0     C16663   0.197  11.315   3.234 -0.0434  0.0305 -0.1025
  127MOL0     C16664   0.186  11.388   3.117  0.4974  0.8128 -0.2414
  127MOL0     C16665   0.056  11.445   3.092 -0.0511 -0.5790  0.1967
  127MOL0     C16666  -0.050  11.426   3.178  0.8112 -0.6602 -0.3502
  127MOL0     O16667  -0.173  11.483   3.157  0.6392 -0.3152 -0.1767
  127MOL0     C16668  -0.225  11.513   3.030  0.4325  0.6048  0.5790
  127MOL0     C16669  -0.376  11.485   3.018  0.6681 -0.1287 -0.2939
  127MOL0     C16670  -0.461  11.559   3.123  0.4090  0.4734  0.0744
  127MOL0     C16671  -0.607  11.505   3.108  0.2830 -0.5825  0.7377
  127MOL0     C16672  -0.696  11.559   3.217  0.2218 -0.7051 -0.0944
  127MOL0     C16673  -0.714  11.716   3.227  0.0017  1.1272  0.7379
  127MOL0     C16674  -0.826  11.755   3.329  0.1523  0.8519  0.1255
  127MOL0     C16675  -0.854  11.906   3.326 -0.1188 -0.6976  0.1144
  127MOL0    Cl16676  -0.938  11.945   3.167  0.3822 -0.1538 -0.0579
  127MOL0     C16677  -0.038  11.361   3.294 -0.5854  0.4781  0.1459
  127MOL0     C16678   0.088  11.305   3.322  0.2125 -0.1273 -0.1507
  127MOL0     O16679   0.405  11.478   3.309  0.3312 -0.2879 -0.4055
  127MOL0     C16680   0.570  11.162   3.306 -1.0799 -0.1627  0.7998
  127MOL0     C16681   0.705  11.114   3.328 -0.0544  0.3733 -0.2162
  127MOL0     N16682   1.298  10.669   3.770  0.2429  0.9048 -1.0464
  127MOL0     N16683   1.408  10.678   3.831 -0.2080 -0.8012 -0.6697
  127MOL0     C16684   2.745  10.896   3.632 -0.5201  0.3343  0.4283
  127MOL0     C16685   2.874  10.893   3.582  0.9939 -0.1615 -0.6728
  127MOL0     C16686   3.238  10.624   3.459 -0.2954  0.3042  0.0260
  127MOL0     C16687   3.348  10.568   3.524 -1.0456  0.4653  0.8987
  127MOL0     C16688   3.471  10.552   3.463 -0.2969 -0.5133 -0.1919
  127MOL0     C16689   3.487  10.586   3.332 -0.2045  0.1017 -0.2508
  127MOL0     O16690   3.594  10.552   3.248 -0.5995 -0.5611  0.1286
  127MOL0     C16691   3.729  10.527   3.294 -0.0312  0.0271 -0.3271
  127MOL0     C16692   3.789  10.408   3.226  0.1494 -0.5386  0.1702
  127MOL0     C16693   3.936  10.387   3.267  0.0154  0.0825 -0.2781
  127MOL0     C16694   3.995  10.271   3.202  0.6124  0.3825 -0.0926
  127MOL0     C16695   4.137  10.274   3.201 -0.1507 -1.1435  0.0315
  127MOL0     C16696   4.259  10.255   3.210 -0.2268  0.7929 -0.9529
  127MOL0     C16697   3.382  10.641   3.264  0.3590 -0.0756  0.0835
  127MOL0     C16698   3.255  10.646   3.327 -0.4298 -0.4698  1.0435
  127MOL0     H16699   2.873  10.584   3.456  3.3699  1.6403 -0.2153
  127MOL0     H16700   2.628  10.614   3.490 -3.3970  1.9094 -0.5252
  127MOL0     H16701   2.436  10.628   3.648 -1.1386 -0.0016  1.1862
  127MOL0     H16702   2.385  10.735   3.517  0.7524 -0.7307 -0.5774
  127MOL0     H16703   2.305  10.882   3.728  0.3063 -0.4652 -0.5721
  127MOL0     H16704   2.318  10.728   3.814 -2.1872  0.1102  0.1996
  127MOL0     H16705   2.177  10.617   3.637 -0.2908  0.4648 -2.0112
  127MOL0     H16706   2.173  10.770   3.552 -1.9903  0.4285  0.6178
  127MOL0     H16707   2.049  10.696   3.828 -1.7945 -3.0138 -2.4011
  127MOL0     H16708   2.075  10.867   3.763  1.8274 -0.9975 -0.9714
  127MOL0     H16709   1.886  10.638   3.669 -1.8939 -0.2593  0.8009
  127MOL0     H16710   1.887  10.807   3.596 -1.3720  2.3642  2.9584
  127MOL0     H16711   1.835  10.897   3.801 -0.2050 -0.0018 -0.4407
  127MOL0     H16712   1.832  10.741   3.894 -4.6259 -0.8609  0.9707
  127MOL0     H16713   1.659  10.794   3.657  2.7174 -0.2439 -1.3078
  127MOL0     H16714   1.656  10.660   3.779  0.0252 -0.5044 -0.7910
  127MOL0     H16715   1.605  10.957   3.820  1.0571  0.5378 -1.3141
  127MOL0     H16716   1.617  10.845   3.948 -1.6313  4.8536  0.1560
  127MOL0     H16717   1.360  10.982   3.728 -0.2823  0.9679  1.6160
  127MOL0     H16718   1.061  10.824   3.754  1.0930  0.1313  0.7450
  127MOL0     H16719   1.086  10.727   3.619 -0.4169  0.1425  0.6865
  127MOL0     H16720   1.204  10.978   3.529 -0.6351  1.9710  0.9542
  127MOL0     H16721   1.109  11.034   3.657  0.6034 -0.4582  1.8246
  127MOL0     H16722   1.010  10.851   3.429  1.4241  1.0267 -1.0294
  127MOL0     H16723   0.895  10.941   3.534 -0.4159  0.4047 -0.7114
  127MOL0     H16724   0.948  11.019   3.284  0.2488 -0.2521 -0.3133
  127MOL0     H16725   1.096  11.077   3.359 -0.3625 -0.9724 -0.9350
  127MOL0     H16726   0.840  11.381   3.485 -0.3225  0.6359 -1.5343
  127MOL0     H16727   0.604  11.473   3.437 -4.4069 -0.3005 -1.9269
  127MOL0     H16728   0.280  11.394   3.064  1.6281  1.7586  1.7617
  127MOL0     H16729   0.048  11.507   3.003 -0.9229 -1.4025 -0.3217
  127MOL0     H16730  -0.170  11.463   2.950 -1.8662  0.5358 -1.0662
  127MOL0     H16731  -0.208  11.621   3.023 -2.3156  1.1006  0.4886
  127MOL0     H16732  -0.385  11.376   3.031  0.0076  0.0396  0.7212
  127MOL0     H16733  -0.406  11.520   2.919  0.1221  1.5222  0.4338
  127MOL0     H16734  -0.444  11.667   3.115  1.3187  0.3147 -0.2946
  127MOL0     H16735  -0.417  11.531   3.219 -0.0678 -1.1712 -0.1562
  127MOL0     H16736  -0.641  11.528   3.007 -0.4097 -0.0155  1.0986
  127MOL0     H16737  -0.599  11.396   3.119  1.3575 -0.5810  0.0956
  127MOL0     H16738  -0.659  11.520   3.312  1.2223  0.7390  0.1333
  127MOL0     H16739  -0.799  11.524   3.209 -1.9361  3.9430  3.3250
  127MOL0     H16740  -0.754  11.743   3.129 -2.5943 -2.2576  0.6641
  127MOL0     H16741  -0.619  11.763   3.252 -0.2288  1.1874  1.5017
  127MOL0     H16742  -0.915  11.698   3.304 -0.3619  2.5104 -2.1757
  127MOL0     H16743  -0.793  11.726   3.429 -0.2051 -0.2074 -0.0532
  127MOL0     H16744  -0.755  11.953   3.336 -0.8106  0.7294  0.5615
  127MOL0     H16745  -0.918  11.942   3.407 -0.6432 -0.6141 -0.3311
  127MOL0     H16746  -0.109  11.349   3.375 -0.2956 -0.5185  0.2734
  127MOL0     H16747   0.101  11.266   3.423 -2.7221 -1.5244 -0.2029
  127MOL0     H16748   0.497  11.096   3.260 -0.8950 -0.8717  1.4918
  127MOL0     H16749   0.736  11.014   3.298 -0.3717 -0.4549  2.0319
  127MOL0     H16750   2.724  10.983   3.695 -1.0832 -0.5911  1.5549
  127MOL0     H16751   2.942  10.976   3.595  1.5840 -0.7382 -0.0546
  127MOL0     H16752   3.349  10.542   3.630  0.4829 -0.5192  0.6797
  127MOL0     H16753   3.551  10.506   3.520 -2.2899 -3.0380  0.7760
  127MOL0     H16754   3.724  10.512   3.402 -4.1607  0.8714 -0.2268
  127MOL0     H16755   3.795  10.612   3.272  1.0194 -0.0624  2.1140
  127MOL0     H16756   3.730  10.318   3.247 -0.6534  0.3667  1.9302
  127MOL0     H16757   3.793  10.427   3.118 -0.4621  0.3708  0.3033
  127MOL0     H16758   3.938  10.373   3.376 -2.4875 -0.6335 -0.2682
  127MOL0     H16759   3.996  10.472   3.234  1.4150 -1.0318 -0.7346
  127MOL0     H16760   3.964  10.177   3.249 -1.7598  0.2917 -1.6210
  127MOL0     H16761   3.965  10.272   3.097  1.6883  0.0272 -0.4219
  127MOL0     H16762   4.363  10.229   3.209 -0.3628  0.1691 -0.2197
  127MOL0     H16763   3.400  10.676   3.163 -2.9877  0.1166 -0.5480
  127MOL0     H16764   3.179  10.702   3.273 -1.9506 -3.1520  0.2255
  128MOL0     O16765   5.906   5.246   6.117 -0.0407 -0.4477  0.4656
  128MOL0     C16766   5.888   5.316   6.216 -1.4437 -0.0423 -0.1198
  128MOL0     O16767   5.762   5.340   6.276 -0.4499 -0.4274 -0.2122
  128MOL0     C16768   5.672   5.238   6.269  0.0420  0.2129  0.1745
  128MOL0     C16769   5.557   5.244   6.192 -0.5556  0.0681  1.1368
  128MOL0     C16770   5.474   5.145   6.180 -0.1700 -0.0522  0.1829
  128MOL0     C16771   5.501   5.017   6.248 -0.1501 -0.5035  0.9246
  128MOL0     O16772   5.419   4.903   6.249 -0.0462 -0.2391 -0.2347
  128MOL0     C16773   5.290   4.907   6.201  0.3559  0.0979  0.0620
  128MOL0     C16774   5.192   4.939   6.320  0.2076  0.1336  0.2472
  128MOL0     C16775   5.043   4.973   6.276  0.5239 -0.5848 -0.0029
  128MOL0     C16776   4.948   4.997   6.396  0.1485  0.1493  0.0508
  128MOL0     C16777   4.805   5.026   6.337  0.0502 -0.0470  0.0682
  128MOL0     C16778   4.699   5.049   6.442  0.4098  0.5174  1.1027
  128MOL0     C16779   4.572   5.085   6.368  0.9409 -0.2401 -0.2697
  128MOL0     C16780   4.464   5.090   6.483 -0.3755 -1.0563 -0.3463
  128MOL0     N16781   4.329   5.109   6.429 -0.3729 -1.1374  0.3064
  128MOL0     C16782   4.250   5.005   6.383  0.3811 -0.4679  0.4073
  128MOL0     C16783   4.145   5.066   6.326 -1.2867 -0.0232  0.5763
  128MOL0     C16784   4.036   4.988   6.251 -0.5959  0.8315 -0.0961
  128MOL0     C16785   3.925   5.074   6.191 -0.5387  0.3440 -0.6224
  128MOL0     C16786   3.953   5.144   6.056 -0.0697  0.5772  1.0400
  128MOL0     C16787   3.976   5.050   5.935  0.1219  0.3030  0.7914
  128MOL0     O16788   3.982   5.127   5.815  0.5530 -0.7725 -0.6392
  128MOL0     C16789   3.855   5.132   5.747  0.2063  0.6363  0.2724
  128MOL0     C16790   3.862   5.164   5.611 -0.6115  0.5066  0.1196
  128MOL0     C16791   3.752   5.168   5.533 -1.0258 -0.4524  0.7632
  128MOL0     C16792   3.626   5.138   5.583 -0.8549  0.3312  0.2902
  128MOL0     C16793   3.501   5.144   5.495  1.1544 -0.2555 -0.4846
  128MOL0     O16794   3.535   5.172   5.366  0.5308 -0.1848  0.4371
  128MOL0     C16795   3.430   5.228   5.288 -1.5918 -0.3931 -0.8349
  128MOL0     C16796   3.307   5.284   5.332  0.3709 -0.0557 -0.3816
  128MOL0     C16797   3.211   5.322   5.247 -0.1327  0.4345 -0.4653
  128MOL0     C16798   3.241   5.332   5.109 -0.0662 -0.2277  0.0283
  128MOL0     O16799   3.142   5.387   5.037 -0.7991 -1.0143  0.8145
  128MOL0     C16800   3.183   5.430   4.908  0.3707 -0.2524 -0.2550
  128MOL0     C16801   3.060   5.497   4.824  0.5291  0.2642  0.4351
  128MOL0     C16802   2.972   5.383   4.773  0.6154  0.7904  0.3837
  128MOL0     C16803   2.878   5.439   4.669  0.5357  0.3853 -0.1226
  128MOL0     C16804   2.763   5.346   4.643 -0.2391  0.8677  0.0981
  128MOL0     C16805   2.642   5.413   4.570 -0.4190 -1.2818 -1.2744
  128MOL0     C16806   2.671   5.488   4.435  0.1106 -0.9850 -0.7238
  128MOL0     C16807   2.539   5.546   4.379 -0.4097  0.0892  0.4034
  128MOL0    Cl16808   2.565   5.643   4.231  0.1242  0.1613 -0.3873
  128MOL0     C16809   3.374   5.300   5.063  0.0878  0.0493 -0.4294
  128MOL0     C16810   3.464   5.240   5.152  0.8960  0.5786  0.7373
  128MOL0     O16811   3.395   5.111   5.540  0.0302  0.3641  0.7143
  128MOL0     C16812   3.610   5.120   5.722 -0.1514  0.3294 -0.4987
  128MOL0     C16813   3.728   5.112   5.800  0.1219  0.5315 -0.3253
  128MOL0     N16814   4.155   5.202   6.341  0.2488  0.4014  0.2139
  128MOL0     N16815   4.266   5.230   6.399  0.1746 -0.5350 -0.1756
  128MOL0     C16816   5.617   5.010   6.323  0.4077 -0.8572  0.2631
  128MOL0     C16817   5.697   5.121   6.328 -0.4773  0.0794 -0.4226
  128MOL0     C16818   5.996   5.412   6.261  0.3170  0.7344 -0.5306
  128MOL0     C16819   5.969   5.497   6.366  0.1000  1.0581 -0.6920
  128MOL0     C16820   6.072   5.572   6.423  0.0033  0.5901  0.6981
  128MOL0     C16821   6.204   5.567   6.368  0.7491 -0.0296 -0.5892
  128MOL0     O16822   6.304   5.643   6.429 -0.3924  0.3910 -0.2436
  128MOL0     C16823   6.395   5.560   6.506 -0.0023 -0.1472  0.1631
  128MOL0     C16824   6.367   5.555   6.652  0.3805  0.5635 -0.7163
  128MOL0     C16825   6.370   5.681   6.738 -0.2881 -0.1979  0.2006
  128MOL0     C16826   6.320   5.649   6.882 -0.7810 -0.0991 -0.0718
  128MOL0     C16827   6.357   5.774   6.968  1.0474  0.0115 -0.0181
  128MOL0     C16828   6.391   5.870   7.034  0.0755 -0.4458  0.5703
  128MOL0     C16829   6.225   5.487   6.255  0.2321 -1.2520  0.8089
  128MOL0     C16830   6.123   5.414   6.197 -0.3439 -0.3699 -0.3817
  128MOL0     H16831   5.538   5.328   6.126 -1.1296 -1.0482 -0.1712
  128MOL0     H16832   5.388   5.155   6.115 -0.7950 -2.2354  0.5777
  128MOL0     H16833   5.247   4.816   6.159  2.0242 -1.4602  1.5823
  128MOL0     H16834   5.288   4.977   6.117  4.4942 -0.8560 -1.0255
  128MOL0     H16835   5.223   5.032   6.368 -2.7440 -0.0543  2.8683
  128MOL0     H16836   5.189   4.857   6.393  1.6599 -3.0796 -2.9723
  128MOL0     H16837   4.998   4.895   6.214  1.9372 -2.2729  1.0205
  128MOL0     H16838   5.051   5.066   6.219 -0.5042  0.3127  1.2583
  128MOL0     H16839   4.943   4.906   6.455 -0.2899 -0.4803 -0.9320
  128MOL0     H16840   4.980   5.084   6.455  1.1505 -1.4145  1.8931
  128MOL0     H16841   4.776   4.936   6.282 -0.3424 -2.3878  3.8043
  128MOL0     H16842   4.800   5.109   6.266  0.1178 -0.1645 -0.0749
  128MOL0     H16843   4.740   5.123   6.512  1.3127 -0.3192  1.4794
  128MOL0     H16844   4.689   4.957   6.500  0.5056 -1.8235 -2.3228
  128MOL0     H16845   4.585   5.179   6.314  0.6781  0.0487  0.1693
  128MOL0     H16846   4.546   4.999   6.305  1.6964  1.0908 -2.5157
  128MOL0     H16847   4.501   5.176   6.539  1.5327 -1.6696 -0.6037
  128MOL0     H16848   4.463   4.994   6.535 -0.8218 -1.4795 -1.1155
  128MOL0     H16849   4.272   4.899   6.375 -1.9515 -0.8587 -2.0064
  128MOL0     H16850   3.995   4.917   6.324 -0.4195  0.1163 -0.6724
  128MOL0     H16851   4.087   4.925   6.177 -2.5144 -3.0332  1.5636
  128MOL0     H16852   3.911   5.148   6.270 -0.1229 -0.2937  0.0550
  128MOL0     H16853   3.829   5.022   6.184  0.3200 -1.1552 -1.9638
  128MOL0     H16854   3.856   5.192   6.041  0.7268  1.3305 -2.4969
  128MOL0     H16855   4.037   5.213   6.069  0.8907 -0.7631  2.3308
  128MOL0     H16856   3.907   4.966   5.926  1.1354 -0.3296 -2.2386
  128MOL0     H16857   4.074   5.003   5.946 -1.0929 -4.3245 -3.8308
  128MOL0     H16858   3.955   5.193   5.564 -1.4627  0.4662 -1.6625
  128MOL0     H16859   3.762   5.203   5.431 -4.1066 -1.9409 -0.1641
  128MOL0     H16860   3.285   5.283   5.438  2.8634 -0.1076  0.2049
  128MOL0     H16861   3.123   5.373   5.286  1.9551  1.9817  2.6415
  128MOL0     H16862   3.213   5.342   4.851 -0.8919 -2.2033  1.9331
  128MOL0     H16863   3.263   5.504   4.910 -2.0301  2.5761 -1.1921
  128MOL0     H16864   3.106   5.544   4.737 -0.0722 -2.1130 -1.2684
  128MOL0     H16865   2.993   5.572   4.868  1.2131  3.2878 -3.2017
  128MOL0     H16866   2.906   5.346   4.853  0.0535  1.0891  0.0684
  128MOL0     H16867   3.021   5.291   4.741 -2.0104 -0.1906 -1.1552
  128MOL0     H16868   2.851   5.540   4.699  1.3620  0.1180  1.6070
  128MOL0     H16869   2.932   5.451   4.575  0.3911  3.1000  0.0707
  128MOL0     H16870   2.730   5.297   4.734  2.0897 -1.5526 -0.2219
  128MOL0     H16871   2.796   5.277   4.564  3.7765  2.0008  0.5313
  128MOL0     H16872   2.596   5.491   4.630 -0.6451 -1.2058 -1.5424
  128MOL0     H16873   2.564   5.337   4.559 -2.3546  0.2897  0.6275
  128MOL0     H16874   2.740   5.571   4.450 -2.0125  0.4218  2.3781
  128MOL0     H16875   2.716   5.415   4.366  0.4428  0.2140 -1.8054
  128MOL0     H16876   2.480   5.604   4.450  1.2306  0.1375  1.7860
  128MOL0     H16877   2.471   5.464   4.355 -3.4172  1.8600  2.2424
  128MOL0     H16878   3.409   5.294   4.961  0.7838 -0.8203 -0.1522
  128MOL0     H16879   3.554   5.192   5.117  1.1692  0.7293  1.2264
  128MOL0     H16880   3.510   5.123   5.765  0.5618  0.3932  1.2082
  128MOL0     H16881   3.706   5.087   5.903  1.8905  2.6656  0.6393
  128MOL0     H16882   5.634   4.910   6.363 -1.8840 -1.9851 -1.3497
  128MOL0     H16883   5.788   5.101   6.384 -0.5483  1.0478  0.0785
  128MOL0     H16884   5.873   5.484   6.413 -0.2438 -2.7910 -2.1237
  128MOL0     H16885   6.042   5.632   6.509 -0.3624  0.5500  0.6009
  128MOL0     H16886   6.495   5.603   6.498  0.1039 -0.5419 -0.9294
  128MOL0     H16887   6.400   5.457   6.469 -2.7363 -0.8575  1.4776
  128MOL0     H16888   6.270   5.505   6.658  0.4948  0.4114 -0.1038
  128MOL0     H16889   6.442   5.493   6.702 -0.4237  1.9440  2.4461
  128MOL0     H16890   6.307   5.759   6.694  0.6089  0.6365  0.3579
  128MOL0     H16891   6.474   5.715   6.736 -0.8344  1.5362 -0.9807
  128MOL0     H16892   6.213   5.629   6.890 -0.6079 -0.3026  2.8810
  128MOL0     H16893   6.371   5.560   6.920 -0.4811 -0.8633 -2.1221
  128MOL0     H16894   6.431   5.961   7.074  1.2590  0.0052 -1.4760
  128MOL0     H16895   6.325   5.496   6.213  0.1192 -2.2219  0.3005
  128MOL0     H16896   6.139   5.346   6.114 -0.1484  0.1803 -0.8064
  129MOL0     O16897  10.992  10.412   0.795 -0.5466  0.5828 -0.6596
  129MOL0     C16898  10.953  10.310   0.739  0.1320  0.1855 -0.6545
  129MOL0     O16899  10.825  10.272   0.731  0.5354  0.5596 -0.2338
  129MOL0     C16900  10.738  10.302   0.846 -0.5517  0.5363  0.4838
  129MOL0     C16901  10.775  10.297   0.979 -0.2292  0.1977 -0.4628
  129MOL0     C16902  10.693  10.332   1.084 -0.1427  1.3853 -0.0543
  129MOL0     C16903  10.566  10.381   1.060  0.6620  0.0191 -0.5517
  129MOL0     O16904  10.481  10.412   1.159 -0.4147 -0.3136 -0.4630
  129MOL0     C16905  10.526  10.420   1.290  0.8469 -0.9856 -0.4854
  129MOL0     C16906  10.428  10.497   1.379  0.0083 -1.1640  0.0410
  129MOL0     C16907  10.282  10.455   1.374 -0.5367  0.3441  0.8115
  129MOL0     C16908  10.194  10.528   1.475  0.3266  0.0285  0.0863
  129MOL0     C16909  10.048  10.486   1.470  0.5937 -0.7419 -0.1372
  129MOL0     C16910   9.962  10.578   1.564  0.6079 -0.0227  0.3420
  129MOL0     C16911   9.810  10.539   1.570 -0.2189 -0.1574 -0.3526
  129MOL0     C16912   9.743  10.617   1.689 -0.7065  0.5516  0.3696
  129MOL0     N16913   9.594  10.609   1.686  0.1738 -0.0059 -0.0396
  129MOL0     C16914   9.514  10.537   1.592  1.1073 -0.2457 -0.3589
  129MOL0     C16915   9.390  10.541   1.652  0.6988  0.7447 -0.9779
  129MOL0     C16916   9.263  10.476   1.613 -1.2666  0.1333  0.0042
  129MOL0     C16917   9.258  10.348   1.695 -0.3473  0.0341  0.1554
  129MOL0     C16918   9.142  10.250   1.667  1.0945  0.1069 -0.3286
  129MOL0     C16919   9.137  10.176   1.532  0.1469 -0.2255  0.5214
  129MOL0     O16920   9.127  10.036   1.543 -0.4348 -0.0504  0.7674
  129MOL0     C16921   9.023   9.972   1.604 -0.5730 -0.3119 -0.4859
  129MOL0     C16922   8.910  10.041   1.644 -0.0609 -0.0858 -1.0591
  129MOL0     C16923   8.807   9.976   1.712 -0.6468 -1.0091 -0.0390
  129MOL0     C16924   8.805   9.837   1.727 -0.0207 -0.2586  0.2408
  129MOL0     C16925   8.694   9.776   1.796  0.8883  0.2430 -0.5248
  129MOL0     O16926   8.585   9.855   1.817  0.3044  0.4807  0.9237
  129MOL0     C16927   8.480   9.817   1.893  0.1626  0.1058 -0.0104
  129MOL0     C16928   8.440   9.909   1.995 -0.3886  0.1854  0.3223
  129MOL0     C16929   8.329   9.877   2.071 -0.5192  0.1588  0.3293
  129MOL0     C16930   8.253   9.765   2.054  0.0809 -0.6678  0.1317
  129MOL0     O16931   8.140   9.733   2.125 -0.2920 -0.8403 -0.3311
  129MOL0     C16932   8.086   9.825   2.218  0.5053 -0.0266  0.3149
  129MOL0     C16933   8.012   9.941   2.155 -0.6640 -1.1279  0.1376
  129MOL0     C16934   7.910   9.916   2.044  0.2485 -0.0717 -0.8782
  129MOL0     C16935   7.801   9.810   2.084 -0.3767 -0.8426 -0.0553
  129MOL0     C16936   7.682   9.808   1.994  0.3964 -0.7015  0.7559
  129MOL0     C16937   7.599   9.938   1.982 -0.2041  0.0207  0.4093
  129MOL0     C16938   7.470   9.912   1.895  0.4763  0.6613 -0.0030
  129MOL0     C16939   7.376  10.034   1.867  0.4840 -0.9434  0.2027
  129MOL0    Cl16940   7.336  10.134   2.004  0.1026  0.0678  0.1297
  129MOL0     C16941   8.302   9.673   1.959 -0.2674  0.0451  0.7238
  129MOL0     C16942   8.407   9.704   1.872 -0.3648  0.9524 -0.2969
  129MOL0     O16943   8.697   9.651   1.828  0.6496 -0.2926 -0.5902
  129MOL0     C16944   8.912   9.761   1.682  0.8289  0.1249 -0.5920
  129MOL0     C16945   9.011   9.829   1.618 -0.3433  0.0100 -0.7579
  129MOL0     N16946   9.394  10.628   1.763 -0.2915  0.1267  0.1670
  129MOL0     N16947   9.514  10.664   1.782 -0.0954 -0.0769  0.0163
  129MOL0     C16948  10.522  10.380   0.930 -0.3656 -0.3318 -0.3439
  129MOL0     C16949  10.610  10.347   0.822  0.6134  0.4077  1.0048
  129MOL0     C16950  11.061  10.230   0.671  0.4328 -0.2902  0.6823
  129MOL0     C16951  11.182  10.293   0.635 -0.6509 -0.1840  0.4361
  129MOL0     C16952  11.289  10.217   0.590 -0.8419  0.5087  1.0953
  129MOL0     C16953  11.278  10.078   0.568  0.1006  0.1014 -0.0398
  129MOL0     O16954  11.397  10.005   0.537  0.4340  0.3303 -0.3202
  129MOL0     C16955  11.389   9.862   0.513 -0.1218 -0.0100  0.1453
  129MOL0     C16956  11.533   9.800   0.494 -0.0050  0.5651  0.5744
  129MOL0     C16957  11.615   9.858   0.381  0.9449 -0.1385  0.3389
  129MOL0     C16958  11.764   9.825   0.408  0.1593  0.5180 -1.0805
  129MOL0     C16959  11.838   9.852   0.284  0.0159  0.5887 -0.4489
  129MOL0     C16960  11.905   9.874   0.185 -0.7409  0.3422 -0.1679
  129MOL0     C16961  11.150  10.023   0.587  0.2174  0.6008  0.4879
  129MOL0     C16962  11.047  10.092   0.652  0.0225 -0.0965 -0.2477
  129MOL0     H16963  10.874  10.258   0.999  0.9210  0.6759 -4.4000
  129MOL0     H16964  10.727  10.295   1.180  0.8914  0.0430 -0.9026
  129MOL0     H16965  10.620  10.476   1.287  0.4888 -0.3118  0.4566
  129MOL0     H16966  10.538  10.318   1.329 -1.5840 -1.1556 -0.0631
  129MOL0     H16967  10.429  10.602   1.349  3.2165 -0.0898  3.1863
  129MOL0     H16968  10.467  10.490   1.481  0.5196  0.0943 -0.0524
  129MOL0     H16969  10.281  10.350   1.404 -1.5040  0.4713  1.2718
  129MOL0     H16970  10.233  10.470   1.278  1.6443 -1.2860 -0.6484
  129MOL0     H16971  10.214  10.499   1.578 -0.9748  0.3509  0.4519
  129MOL0     H16972  10.198  10.636   1.459 -0.2819  0.0001 -0.2993
  129MOL0     H16973  10.052  10.382   1.501 -0.8323 -2.1155 -3.9333
  129MOL0     H16974  10.015  10.481   1.366 -2.9190  0.1720  0.7741
  129MOL0     H16975   9.967  10.683   1.533 -0.2460  1.2360  4.0577
  129MOL0     H16976  10.006  10.580   1.664  1.4369 -0.3669 -0.0014
  129MOL0     H16977   9.762  10.567   1.476 -3.8471  0.3378  1.4720
  129MOL0     H16978   9.791  10.433   1.590 -1.4445  0.1016 -0.0766
  129MOL0     H16979   9.762  10.723   1.670  0.3358  0.1520 -1.0330
  129MOL0     H16980   9.788  10.589   1.784  0.3915  0.3393 -0.1944
  129MOL0     H16981   9.553  10.482   1.508 -0.0648 -1.3785 -0.2053
  129MOL0     H16982   9.261  10.462   1.505 -3.9461 -0.8248  0.1093
  129MOL0     H16983   9.171  10.528   1.642 -1.2161 -1.0810  2.5917
  129MOL0     H16984   9.259  10.380   1.799 -1.8561 -2.4661  1.0305
  129MOL0     H16985   9.350  10.293   1.675  0.2359  0.5882  1.2399
  129MOL0     H16986   9.132  10.183   1.753 -1.2795 -0.6870 -1.1725
  129MOL0     H16987   9.055  10.315   1.656  1.3925  0.4151 -0.9215
  129MOL0     H16988   9.231  10.201   1.481  0.3926 -1.0211  0.5669
  129MOL0     H16989   9.058  10.219   1.470  1.6273  1.0441 -0.5606
  129MOL0     H16990   8.902  10.145   1.613  0.6411 -0.5276 -2.8105
  129MOL0     H16991   8.717  10.026   1.745 -0.9330 -2.3513  1.3895
  129MOL0     H16992   8.500   9.996   2.018  0.5529  0.1803 -1.8674
  129MOL0     H16993   8.317   9.947   2.153  1.1080 -0.9910  1.6142
  129MOL0     H16994   8.167   9.854   2.287  2.0445  0.6366 -1.6548
  129MOL0     H16995   8.007   9.768   2.267  0.4342 -0.8880 -0.7608
  129MOL0     H16996   8.093  10.000   2.110  0.7477 -1.3032  2.2979
  129MOL0     H16997   7.967  10.003   2.234  1.2286  0.5294  0.0062
  129MOL0     H16998   7.963   9.874   1.958 -2.8839 -0.2001 -2.8932
  129MOL0     H16999   7.857  10.007   2.013 -1.7848 -1.1599 -0.7538
  129MOL0     H17000   7.838   9.709   2.064  0.0032 -0.6403 -0.3998
  129MOL0     H17001   7.761   9.825   2.184 -0.2060 -0.8517  0.0133
  129MOL0     H17002   7.615   9.729   2.030 -0.8547  0.5678  1.3222
  129MOL0     H17003   7.719   9.783   1.894  0.5578 -0.3133  0.7201
  129MOL0     H17004   7.655  10.019   1.935  0.2979  0.1778  1.2515
  129MOL0     H17005   7.566   9.970   2.081  1.1951  0.0722  0.8790
  129MOL0     H17006   7.504   9.878   1.797  2.4356  3.5515 -0.4341
  129MOL0     H17007   7.399   9.834   1.925 -1.3788  1.5504 -1.8353
  129MOL0     H17008   7.285   9.995   1.820 -0.8730  0.2682  1.7049
  129MOL0     H17009   7.420  10.111   1.804 -1.7286  0.7571  0.6133
  129MOL0     H17010   8.256   9.577   1.938 -0.0398  0.2112 -0.6309
  129MOL0     H17011   8.454   9.639   1.799  2.8371  0.2375  2.1946
  129MOL0     H17012   8.921   9.653   1.686  1.1770  0.0658 -2.4062
  129MOL0     H17013   9.090   9.763   1.584  0.8932  0.2611  1.4576
  129MOL0     H17014  10.420  10.407   0.904 -1.0282 -1.8496  0.5060
  129MOL0     H17015  10.577  10.366   0.720 -1.7116  1.4623  1.8666
  129MOL0     H17016  11.202  10.400   0.630  3.5329 -0.8368 -3.0490
  129MOL0     H17017  11.390  10.255   0.577 -0.6438 -0.4137 -0.2490
  129MOL0     H17018  11.328   9.840   0.425 -0.9785  1.7204  0.2596
  129MOL0     H17019  11.338   9.809   0.594 -1.3724 -1.7576 -1.6847
  129MOL0     H17020  11.605   9.820   0.575  3.2968 -0.8779 -1.7621
  129MOL0     H17021  11.522   9.692   0.483 -0.0389  0.7719 -1.9920
  129MOL0     H17022  11.599   9.966   0.385 -3.6389 -0.6529  4.3689
  129MOL0     H17023  11.584   9.820   0.283  2.0708  1.7804 -0.8511
  129MOL0     H17024  11.791   9.891   0.491 -1.8955  3.3749 -2.5348
  129MOL0     H17025  11.785   9.724   0.445  2.0032  0.2176 -2.7894
  129MOL0     H17026  11.966   9.879   0.097  0.2067  0.8099  0.5021
  129MOL0     H17027  11.123   9.922   0.558 -1.6405  1.4348 -0.9102
  129MOL0     H17028  10.952  10.043   0.675 -0.7969  1.2940 -0.5977
  130MOL0     O17029   2.493   2.548   9.801  0.4814  0.5485  0.4398
  130MOL0     C17030   2.558   2.596   9.891 -0.3678 -0.3452 -0.4830
  130MOL0     O17031   2.513   2.698   9.977 -0.6049  0.0787  0.2135
  130MOL0     C17032   2.382   2.743   9.960 -0.0308  1.6261 -0.3967
  130MOL0     C17033   2.346   2.802   9.842 -0.1999  0.6333  0.5991
  130MOL0     C17034   2.215   2.833   9.819 -0.4512  0.3890 -0.6968
  130MOL0     C17035   2.113   2.803   9.918  0.0365 -0.0880  0.3939
  130MOL0     O17036   1.982   2.833   9.877  0.4999  0.3783 -0.6462
  130MOL0     C17037   1.889   2.847   9.983 -0.2535  0.2694 -0.9314
  130MOL0     C17038   1.772   2.932   9.934 -0.8719 -0.6109  0.0199
  130MOL0     C17039   1.659   2.945  10.037 -0.3680  0.4123 -0.4526
  130MOL0     C17040   1.683   3.013  10.168 -0.5114 -0.4073  0.3454
  130MOL0     C17041   1.563   2.987  10.265 -0.1943 -0.1461 -0.2097
  130MOL0     C17042   1.566   3.095  10.380  0.3070 -0.7229  0.0436
  130MOL0     C17043   1.439   3.104  10.455  0.0625  0.3742 -0.7526
  130MOL0     C17044   1.317   3.166  10.378 -0.3455  0.7895 -0.3689
  130MOL0     N17045   1.206   3.192  10.473 -0.3602  0.1433  0.1540
  130MOL0     C17046   1.092   3.111  10.485  0.7558  0.0984  0.4712
  130MOL0     C17047   1.018   3.176  10.581 -0.3934  0.7763  0.0170
  130MOL0     C17048   0.889   3.121  10.647  0.3313  0.5110  0.5392
  130MOL0     C17049   0.890   3.158  10.799 -0.6602  0.7723 -0.2009
  130MOL0     C17050   0.954   3.059  10.888 -0.1518 -0.5362 -0.0459
  130MOL0     C17051   1.100   3.016  10.850  0.0828  0.5874 -0.7233
  130MOL0     O17052   1.108   2.918  10.739 -0.0690 -0.5834 -0.1957
  130MOL0     C17053   1.225   2.869  10.690  0.2259  0.2114 -0.4119
  130MOL0     C17054   1.232   2.797  10.570  0.4158  0.6623  0.0944
  130MOL0     C17055   1.348   2.753  10.515 -0.0378  0.2859 -0.2437
  130MOL0     C17056   1.472   2.777  10.591  0.2598  0.3087 -0.2192
  130MOL0     C17057   1.595   2.738  10.523  0.0718 -0.6681 -0.9440
  130MOL0     O17058   1.704   2.793  10.585 -0.0025 -0.2784 -0.2110
  130MOL0     C17059   1.826   2.740  10.545 -0.1649  0.7466 -0.3001
  130MOL0     C17060   1.856   2.614  10.603 -0.7271 -0.2697 -0.8862
  130MOL0     C17061   1.992   2.568  10.588  0.0336 -0.5727 -0.0637
  130MOL0     C17062   2.089   2.629  10.502  0.4817  0.6262 -0.0096
  130MOL0     O17063   2.227   2.591  10.490  0.1337 -0.2394 -0.3056
  130MOL0     C17064   2.266   2.461  10.533 -0.0708  0.8555 -0.8702
  130MOL0     C17065   2.407   2.431  10.486 -0.6215  0.3994 -0.0305
  130MOL0     C17066   2.448   2.284  10.539  0.1177 -0.0298 -0.2436
  130MOL0     C17067   2.577   2.237  10.487  0.3528 -0.3336  0.5270
  130MOL0     C17068   2.613   2.116  10.570 -0.0212  0.1612 -0.2565
  130MOL0     C17069   2.734   2.043  10.508 -0.3760  0.3806 -0.8809
  130MOL0     C17070   2.731   1.902  10.559  0.2414  1.0858  0.2647
  130MOL0     C17071   2.865   1.838  10.582  0.1200  0.4600 -0.0493
  130MOL0    Cl17072   2.965   1.882  10.442  0.2762  0.1205 -0.3128
  130MOL0     C17073   2.050   2.753  10.447 -0.2337  0.2537 -0.2501
  130MOL0     C17074   1.921   2.810  10.465  0.0027 -0.2781 -0.0603
  130MOL0     O17075   1.594   2.675  10.422  0.7109 -0.2365  0.1261
  130MOL0     C17076   1.468   2.842  10.718  0.2846 -0.2263  0.8896
  130MOL0     C17077   1.342   2.886  10.764 -0.5075 -0.1002 -0.4037
  130MOL0     N17078   1.089   3.289  10.629 -0.1066 -0.4989  0.7197
  130MOL0     N17079   1.204   3.288  10.571  0.0307 -0.1501 -0.2577
  130MOL0     C17080   2.147   2.739  10.036  0.5339  0.4969 -1.3498
  130MOL0     C17081   2.285   2.711  10.055  0.8346  0.0231 -0.0277
  130MOL0     C17082   2.702   2.566   9.886  0.2597 -0.4695  0.7851
  130MOL0     C17083   2.753   2.460   9.808  0.0763  0.0793  0.7576
  130MOL0     C17084   2.889   2.428   9.822  0.1136  0.4939  0.0437
  130MOL0     C17085   2.978   2.513   9.901 -0.2940 -0.0306  0.1311
  130MOL0     O17086   3.110   2.484   9.924 -0.4793  0.1898 -0.0449
  130MOL0     C17087   3.173   2.371   9.861 -0.6475  0.6924  0.0667
  130MOL0     C17088   3.321   2.369   9.903 -0.5339 -0.9192 -0.1648
  130MOL0     C17089   3.332   2.331  10.048  0.1726  0.8686 -0.5912
  130MOL0     C17090   3.476   2.350  10.109 -0.2765  0.1460  0.5310
  130MOL0     C17091   3.569   2.254  10.049  0.7585  0.3829 -0.6759
  130MOL0     C17092   3.653   2.175  10.021 -0.1651  0.9803 -0.3895
  130MOL0     C17093   2.932   2.627   9.959 -0.4953  0.4212 -0.5666
  130MOL0     C17094   2.789   2.655   9.957  0.8739 -0.4384  0.4983
  130MOL0     H17095   2.405   2.829   9.755  1.3609 -1.2640  0.9947
  130MOL0     H17096   2.178   2.890   9.734 -0.4112  3.5574  1.2338
  130MOL0     H17097   1.934   2.902  10.066  0.7758  0.7989 -1.8223
  130MOL0     H17098   1.858   2.747  10.017 -0.8435  0.3874 -1.1114
  130MOL0     H17099   1.741   2.888   9.839 -3.5866 -1.5989  1.2773
  130MOL0     H17100   1.812   3.032   9.916  1.7106 -1.8846 -1.9987
  130MOL0     H17101   1.616   2.847  10.062 -2.0360  1.6203  1.7649
  130MOL0     H17102   1.574   2.998   9.994 -0.1209  0.0665 -1.3864
  130MOL0     H17103   1.774   2.988  10.222  0.8198  0.6038 -1.3194
  130MOL0     H17104   1.694   3.121  10.153 -1.7667 -0.0472  1.8096
  130MOL0     H17105   1.576   2.889  10.312 -0.8459  1.0226  2.6008
  130MOL0     H17106   1.464   2.990  10.219  0.1777 -1.4246 -1.1733
  130MOL0     H17107   1.597   3.191  10.339  1.0552 -1.5562 -1.4185
  130MOL0     H17108   1.643   3.074  10.455  0.5276 -1.1623 -0.2993
  130MOL0     H17109   1.415   3.009  10.503 -0.4416  1.3145  0.9267
  130MOL0     H17110   1.461   3.178  10.533 -0.9189  1.5395 -1.5275
  130MOL0     H17111   1.283   3.095  10.301 -3.7649  1.0602  0.7138
  130MOL0     H17112   1.342   3.258  10.325 -1.5706  0.4705 -1.5788
  130MOL0     H17113   1.080   3.010  10.446 -0.2908  0.0131  0.9711
  130MOL0     H17114   0.892   3.012  10.636  2.0697  0.6434 -0.5630
  130MOL0     H17115   0.800   3.148  10.590 -1.3482 -0.7147  2.4158
  130MOL0     H17116   0.785   3.161  10.829 -1.3617 -2.1833 -1.9759
  130MOL0     H17117   0.944   3.253  10.811 -1.8647  1.4868 -0.2839
  130MOL0     H17118   0.951   3.100  10.990 -0.3967  2.5518 -1.1870
  130MOL0     H17119   0.889   2.971  10.893 -1.4462  0.2424 -1.8421
  130MOL0     H17120   1.142   2.982  10.945  0.3575 -0.1837 -1.1142
  130MOL0     H17121   1.153   3.104  10.813  1.6218 -0.9129 -2.3063
  130MOL0     H17122   1.144   2.776  10.511  0.4292  0.7937  0.0278
  130MOL0     H17123   1.349   2.710  10.416  1.1875  1.2036 -0.6534
  130MOL0     H17124   1.790   2.547  10.657 -2.1672  2.8114  1.5692
  130MOL0     H17125   2.006   2.470  10.632  0.3393 -1.2328 -1.5585
  130MOL0     H17126   2.205   2.378  10.496 -0.3522  0.0317  1.2913
  130MOL0     H17127   2.275   2.448  10.642  0.5070  2.1479 -0.7499
  130MOL0     H17128   2.481   2.502  10.525 -1.3068  1.8261 -1.2379
  130MOL0     H17129   2.409   2.435  10.377 -1.5475  0.0992 -0.0605
  130MOL0     H17130   2.374   2.204  10.528  0.4233 -0.4478  0.6542
  130MOL0     H17131   2.462   2.302  10.646 -0.2481  0.6732 -0.3092
  130MOL0     H17132   2.574   2.208  10.381  2.5034 -1.3418  0.6862
  130MOL0     H17133   2.653   2.316  10.488 -1.0037  1.0401 -0.2318
  130MOL0     H17134   2.530   2.045  10.573 -0.8494  1.1385  1.7112
  130MOL0     H17135   2.638   2.145  10.673 -1.3650  0.1437  0.0935
  130MOL0     H17136   2.831   2.085  10.537  0.8143 -2.8386  0.2644
  130MOL0     H17137   2.739   2.059  10.399  3.9904  0.9839 -0.7812
  130MOL0     H17138   2.677   1.878  10.651 -1.4762 -2.6176 -1.4559
  130MOL0     H17139   2.671   1.846  10.486 -0.8238  2.3856  0.1142
  130MOL0     H17140   2.832   1.734  10.588  0.4565  0.1424 -2.5285
  130MOL0     H17141   2.918   1.866  10.674 -1.4433  4.9801 -0.3121
  130MOL0     H17142   2.118   2.817  10.392 -0.0874 -0.5285 -1.0127
  130MOL0     H17143   1.892   2.904  10.418 -1.3774 -0.4618  0.3893
  130MOL0     H17144   1.561   2.864  10.769  1.1818  1.3849 -1.3248
  130MOL0     H17145   1.341   2.932  10.863  2.2336  0.4114 -0.5331
  130MOL0     H17146   2.068   2.714  10.105  0.1489 -0.3777 -2.0881
  130MOL0     H17147   2.302   2.649  10.142 -2.5922  0.2681  0.9516
  130MOL0     H17148   2.682   2.393   9.762 -0.3059 -0.8488  2.6067
  130MOL0     H17149   2.925   2.341   9.768  1.8162  1.3660 -0.3053
  130MOL0     H17150   3.153   2.393   9.756 -2.6368  2.7310  0.7881
  130MOL0     H17151   3.142   2.269   9.883 -2.0044  1.0242 -0.2051
  130MOL0     H17152   3.374   2.300   9.836 -1.8041 -3.6429  1.4780
  130MOL0     H17153   3.364   2.468   9.882  1.5258 -2.0213 -1.4723
  130MOL0     H17154   3.299   2.227  10.064  1.9908  0.5029  1.1867
  130MOL0     H17155   3.275   2.389  10.121  0.7793 -1.0426  1.5326
  130MOL0     H17156   3.514   2.452  10.099  0.0521 -0.0493 -0.3866
  130MOL0     H17157   3.482   2.315  10.212  0.1401 -3.0627 -0.4614
  130MOL0     H17158   3.714   2.089   9.999  0.4397  1.8737 -2.3616
  130MOL0     H17159   3.009   2.690  10.002  0.1410  0.3018 -1.4919
  130MOL0     H17160   2.743   2.736  10.013 -1.5841  0.4551 -2.5701
  131MOL0     O17161   9.422   4.729   4.256  0.5816 -0.0639 -0.5866
  131MOL0     C17162   9.434   4.826   4.330  0.4118  0.4065  0.0359
  131MOL0     O17163   9.330   4.891   4.385 -0.4560 -0.4539 -0.6143
  131MOL0     C17164   9.207   4.833   4.363  0.3910 -0.7138 -0.1558
  131MOL0     C17165   9.138   4.888   4.257  0.0290 -1.3583 -0.9071
  131MOL0     C17166   9.011   4.842   4.222  0.2910 -0.4584  0.0629
  131MOL0     C17167   8.956   4.735   4.296  0.0321  0.2613 -0.5708
  131MOL0     O17168   8.832   4.693   4.247 -0.7966 -0.0770  0.1645
  131MOL0     C17169   8.734   4.662   4.353  0.4090 -0.0818  0.2091
  131MOL0     C17170   8.594   4.645   4.290  0.8915 -0.2598  0.1006
  131MOL0     C17171   8.546   4.762   4.199 -0.3310 -1.1791 -0.1140
  131MOL0     C17172   8.539   4.898   4.278  0.4325  0.0166 -0.1687
  131MOL0     C17173   8.439   4.996   4.214  0.0231 -0.1644 -0.4844
  131MOL0     C17174   8.492   5.144   4.209 -0.1821 -0.0026 -0.4464
  131MOL0     C17175   8.371   5.235   4.162  0.7477  0.4100  0.1805
  131MOL0     C17176   8.266   5.249   4.267 -0.2788  0.2752 -0.2865
  131MOL0     N17177   8.156   5.330   4.211 -1.0103  0.1855  0.0173
  131MOL0     C17178   8.041   5.287   4.153 -0.7298  1.0504  0.4783
  131MOL0     C17179   7.979   5.395   4.094 -0.4422 -0.6764 -1.3411
  131MOL0     C17180   7.856   5.389   4.013  0.3433 -0.3985 -1.0316
  131MOL0     C17181   7.749   5.468   4.087 -0.6670  0.3042  0.6334
  131MOL0     C17182   7.609   5.420   4.062  0.4331 -0.5688  0.2130
  131MOL0     C17183   7.553   5.488   3.939 -0.1771  0.8640 -0.1101
  131MOL0     O17184   7.499   5.616   3.959 -0.7769 -0.6163  0.2203
  131MOL0     C17185   7.395   5.644   4.047 -0.3614 -0.2622 -0.6159
  131MOL0     C17186   7.384   5.776   4.087 -0.3688  0.0027 -1.1013
  131MOL0     C17187   7.282   5.822   4.169 -0.0249  1.2141 -0.0970
  131MOL0     C17188   7.184   5.729   4.208 -0.0253  0.3189 -0.5490
  131MOL0     C17189   7.071   5.778   4.295  0.1349 -0.1249  0.4217
  131MOL0     O17190   7.066   5.910   4.323 -0.9442  0.3192  0.4969
  131MOL0     C17191   6.964   5.955   4.395  0.7935 -0.7242 -0.1813
  131MOL0     C17192   6.991   6.027   4.515 -0.0163  1.0568 -0.1884
  131MOL0     C17193   6.893   6.086   4.586 -0.5243 -0.4181 -0.5896
  131MOL0     C17194   6.759   6.068   4.559  0.1516 -0.1371  0.2999
  131MOL0     O17195   6.672   6.125   4.640 -0.0950 -0.3878 -0.0810
  131MOL0     C17196   6.548   6.155   4.580  0.0303 -0.2433 -0.2357
  131MOL0     C17197   6.454   6.221   4.677 -0.0055  0.0336 -0.4944
  131MOL0     C17198   6.445   6.372   4.657 -0.0244  0.0055  0.0252
  131MOL0     C17199   6.341   6.448   4.740 -0.3016 -0.0661 -0.1646
  131MOL0     C17200   6.376   6.595   4.762  0.3319 -0.6540  0.4970
  131MOL0     C17201   6.269   6.665   4.849  0.2482 -0.0314  0.0967
  131MOL0     C17202   6.304   6.810   4.879  0.3490 -0.4529  0.5444
  131MOL0     C17203   6.417   6.832   4.981  1.0719  0.3068 -0.1907
  131MOL0    Cl17204   6.407   7.003   5.028 -0.0047  0.1974  0.5082
  131MOL0     C17205   6.731   5.996   4.441  0.1739 -0.7198 -0.9157
  131MOL0     C17206   6.835   5.941   4.359  0.2658 -0.8068 -0.2049
  131MOL0     O17207   6.994   5.686   4.331 -0.2057 -0.7317  0.6075
  131MOL0     C17208   7.192   5.590   4.164  0.9910 -0.5762 -0.1517
  131MOL0     C17209   7.294   5.553   4.081  0.8830  0.1651  1.2262
  131MOL0     N17210   8.058   5.503   4.131 -1.0608 -0.0003 -0.3722
  131MOL0     N17211   8.163   5.462   4.199  0.1957  0.4353  0.3263
  131MOL0     C17212   9.027   4.682   4.402 -0.0913 -1.3798 -0.6624
  131MOL0     C17213   9.153   4.728   4.432  0.9218  0.6977 -0.0601
  131MOL0     C17214   9.568   4.874   4.358 -0.0082  0.8711  0.4145
  131MOL0     C17215   9.681   4.839   4.279 -0.4853 -0.3601 -0.4795
  131MOL0     C17216   9.815   4.884   4.301  0.6966 -0.1636 -0.1219
  131MOL0     C17217   9.839   4.962   4.415  0.8075  0.4110 -0.7340
  131MOL0     O17218   9.959   5.000   4.475 -0.1114  0.9192 -0.0682
  131MOL0     C17219  10.072   4.989   4.381 -0.3749 -0.5148  0.5669
  131MOL0     C17220  10.135   4.848   4.374 -0.3315 -0.5818  0.1675
  131MOL0     C17221  10.292   4.847   4.368 -0.2127 -0.5523  0.1340
  131MOL0     C17222  10.348   4.898   4.235 -0.6467  0.4175  0.0059
  131MOL0     C17223  10.492   4.882   4.230 -0.0047  0.1471 -0.4161
  131MOL0     C17224  10.611   4.867   4.236 -0.3827 -0.5351 -1.0647
  131MOL0     C17225   9.736   4.984   4.504  0.5391  0.2236 -0.0291
  131MOL0     C17226   9.597   4.953   4.471 -0.7280  1.0204  0.8150
  131MOL0     H17227   9.180   4.971   4.203 -0.5254  0.0213  0.6770
  131MOL0     H17228   8.962   4.877   4.132  0.1396 -1.8129 -0.3968
  131MOL0     H17229   8.738   4.748   4.422 -0.7564  1.7238 -1.8411
  131MOL0     H17230   8.753   4.565   4.399 -1.2863  0.5010  2.3481
  131MOL0     H17231   8.523   4.622   4.370  0.3513 -1.9593 -0.8116
  131MOL0     H17232   8.588   4.554   4.229 -0.8157  0.0235 -0.2094
  131MOL0     H17233   8.441   4.745   4.173 -0.4372 -1.6057  0.5642
  131MOL0     H17234   8.613   4.769   4.113 -0.4108  2.7274 -0.0178
  131MOL0     H17235   8.517   4.882   4.384  0.0620 -0.3719 -0.3020
  131MOL0     H17236   8.631   4.958   4.271  0.2326  0.0814 -3.3415
  131MOL0     H17237   8.347   4.986   4.272  1.3663  0.3344  1.8387
  131MOL0     H17238   8.414   4.971   4.110 -2.9614  1.4036 -0.2587
  131MOL0     H17239   8.571   5.151   4.135 -0.5859 -2.0593 -1.1345
  131MOL0     H17240   8.521   5.175   4.310 -1.3721  0.7746 -0.3117
  131MOL0     H17241   8.399   5.336   4.130 -2.8136  0.1467 -4.8848
  131MOL0     H17242   8.326   5.193   4.072  0.1559  1.5950 -0.1016
  131MOL0     H17243   8.312   5.306   4.348 -5.2337  2.1039  1.6628
  131MOL0     H17244   8.219   5.156   4.303 -0.6325  0.2559 -0.7983
  131MOL0     H17245   8.011   5.183   4.140 -2.6635  1.7572 -1.0257
  131MOL0     H17246   7.827   5.287   3.990  1.2927 -0.4242 -2.2515
  131MOL0     H17247   7.881   5.436   3.917  0.7085  1.5668 -0.0382
  131MOL0     H17248   7.763   5.571   4.054 -1.0610  0.2834  0.4062
  131MOL0     H17249   7.768   5.458   4.195  0.3423 -0.1719  0.4330
  131MOL0     H17250   7.602   5.311   4.063 -0.7665 -0.5100  1.2036
  131MOL0     H17251   7.551   5.455   4.148  0.5152  1.0211 -0.3410
  131MOL0     H17252   7.483   5.417   3.894 -1.8811  2.6537 -0.4445
  131MOL0     H17253   7.638   5.496   3.871  0.7268 -1.6719  0.6253
  131MOL0     H17254   7.461   5.841   4.047 -0.8940  0.8220 -0.8071
  131MOL0     H17255   7.286   5.929   4.186  0.7315  1.4497 -1.6066
  131MOL0     H17256   7.094   6.031   4.550  0.0800  0.5351 -0.3971
  131MOL0     H17257   6.916   6.141   4.676 -0.1141 -1.9595  0.2749
  131MOL0     H17258   6.495   6.070   4.536  0.9877 -1.2020  0.4153
  131MOL0     H17259   6.555   6.222   4.494  0.9105  0.4989  0.3877
  131MOL0     H17260   6.480   6.193   4.780 -0.3409 -0.5563 -0.5705
  131MOL0     H17261   6.356   6.174   4.669 -1.1314  2.4524 -1.7842
  131MOL0     H17262   6.418   6.383   4.552 -1.4270 -1.2475  0.2065
  131MOL0     H17263   6.539   6.423   4.677 -0.6500  1.7203 -1.1895
  131MOL0     H17264   6.238   6.448   4.702 -0.2364 -0.1553 -0.3385
  131MOL0     H17265   6.338   6.399   4.838 -3.4710 -2.8495 -1.4984
  131MOL0     H17266   6.386   6.642   4.663  0.4691  3.7881  2.3763
  131MOL0     H17267   6.468   6.598   4.822  1.0482  0.6306 -0.5914
  131MOL0     H17268   6.251   6.620   4.947  2.4249 -0.3693  0.3838
  131MOL0     H17269   6.182   6.656   4.783  1.3528 -2.3936 -1.1491
  131MOL0     H17270   6.343   6.860   4.790  0.4835 -0.3393  0.6670
  131MOL0     H17271   6.217   6.865   4.917  1.4458  2.5833 -0.9972
  131MOL0     H17272   6.511   6.790   4.946  0.1277 -4.0852  1.8556
  131MOL0     H17273   6.393   6.771   5.069 -4.0839 -1.9581 -2.6872
  131MOL0     H17274   6.628   5.982   4.409 -0.4162 -3.8120  1.8816
  131MOL0     H17275   6.806   5.891   4.267 -0.2490  1.2155 -1.1992
  131MOL0     H17276   7.121   5.517   4.201  3.7969 -2.4276  1.9543
  131MOL0     H17277   7.305   5.447   4.059 -1.7064 -0.2343  1.5247
  131MOL0     H17278   8.985   4.589   4.440  0.9425 -1.6602 -0.1903
  131MOL0     H17279   9.206   4.671   4.508 -0.9356 -0.3740  0.4949
  131MOL0     H17280   9.668   4.791   4.182 -0.3960 -0.4396 -0.4530
  131MOL0     H17281   9.891   4.846   4.234  0.6060  3.3902 -2.5432
  131MOL0     H17282  10.143   5.064   4.417  2.6439 -2.4143 -1.0429
  131MOL0     H17283  10.054   5.018   4.277 -2.3800  1.9448  1.4784
  131MOL0     H17284  10.101   4.788   4.458 -1.6072 -0.5848 -0.3301
  131MOL0     H17285  10.093   4.790   4.291  0.5243 -0.2810 -0.4933
  131MOL0     H17286  10.331   4.745   4.370  0.9130 -0.1217  1.1863
  131MOL0     H17287  10.336   4.897   4.455 -0.1477 -2.1463  1.0579
  131MOL0     H17288  10.295   4.851   4.152  0.2433  1.3196 -1.1104
  131MOL0     H17289  10.328   5.004   4.216 -0.8449  0.7674  1.9418
  131MOL0     H17290  10.716   4.856   4.218  0.2265  2.6368 -0.0151
  131MOL0     H17291   9.753   5.030   4.601  1.9972 -0.6820  0.1727
  131MOL0     H17292   9.513   4.994   4.527 -0.9488  1.3736  0.2380
  132MOL0     O17293   0.960   0.922   3.766  0.0214 -0.3881  0.2415
  132MOL0     C17294   1.032   1.010   3.726 -0.1395  0.3940 -0.1237
  132MOL0     O17295   0.986   1.125   3.678 -0.2998 -0.2507  0.1519
  132MOL0     C17296   0.848   1.140   3.676 -0.0327 -1.4257  1.5026
  132MOL0     C17297   0.775   1.074   3.575  0.6126  0.8245  0.1940
  132MOL0     C17298   0.633   1.102   3.574 -0.3324  0.5072 -0.3696
  132MOL0     C17299   0.567   1.181   3.670 -1.0419 -0.9088  0.2629
  132MOL0     O17300   0.437   1.217   3.666  0.4890  0.0397  0.1136
  132MOL0     C17301   0.358   1.162   3.560  0.5205 -0.2826  1.0247
  132MOL0     C17302   0.216   1.217   3.560  0.0404 -0.3917 -0.3783
  132MOL0     C17303   0.133   1.177   3.671 -0.0583 -0.3098  0.1539
  132MOL0     C17304  -0.012   1.220   3.633  0.4246 -0.3399  0.0688
  132MOL0     C17305  -0.110   1.206   3.751  0.3293  0.7527 -0.2283
  132MOL0     C17306  -0.252   1.213   3.701 -0.4640 -0.0147 -0.0842
  132MOL0     C17307  -0.344   1.197   3.813  0.0904  0.3742  0.0368
  132MOL0     C17308  -0.401   1.326   3.855 -0.2356 -0.3096  0.2476
  132MOL0     N17309  -0.503   1.312   3.961 -0.2975  0.2359  0.0008
  132MOL0     C17310  -0.637   1.337   3.938 -0.0336 -0.9000  1.0235
  132MOL0     C17311  -0.692   1.325   4.063  0.2271  0.4088  0.4684
  132MOL0     C17312  -0.840   1.349   4.091 -0.1267  0.1370 -0.0211
  132MOL0     C17313  -0.932   1.275   3.991  0.3129 -0.8390  0.5612
  132MOL0     C17314  -1.082   1.269   4.043  0.8370 -0.7920 -0.1012
  132MOL0     C17315  -1.182   1.225   3.931  0.2474 -0.5436 -0.4408
  132MOL0     O17316  -1.192   1.292   3.801  1.2635  0.9522 -0.1314
  132MOL0     C17317  -1.288   1.243   3.713  0.2825 -0.7913  0.2939
  132MOL0     C17318  -1.308   1.325   3.604 -0.0045  0.0823 -0.3292
  132MOL0     C17319  -1.422   1.314   3.527 -0.6835  0.2026 -0.0588
  132MOL0     C17320  -1.509   1.211   3.552 -0.1155 -0.5191 -0.4775
  132MOL0     C17321  -1.633   1.189   3.476 -0.4563 -0.4687 -0.2138
  132MOL0     O17322  -1.728   1.113   3.527 -0.6121  0.0554 -0.9982
  132MOL0     C17323  -1.863   1.132   3.495 -0.5214  0.5193  0.0227
  132MOL0     C17324  -1.940   1.021   3.517  0.7727  0.0266 -0.3786
  132MOL0     C17325  -2.073   1.020   3.481  0.5187 -0.0429  0.3350
  132MOL0     C17326  -2.145   1.131   3.426  0.4091  0.7459 -0.5453
  132MOL0     O17327  -2.282   1.127   3.420  0.2111  0.4004 -0.1803
  132MOL0     C17328  -2.346   1.209   3.323 -0.5579 -0.6748  0.7266
  132MOL0     C17329  -2.490   1.160   3.294  0.0672 -0.0875 -0.7635
  132MOL0     C17330  -2.586   1.165   3.415 -0.6329 -0.0519  0.4071
  132MOL0     C17331  -2.732   1.158   3.376 -1.0360 -0.1103 -0.0615
  132MOL0     C17332  -2.803   1.123   3.505  0.1594  0.1496 -0.0172
  132MOL0     C17333  -2.958   1.133   3.470 -0.0125 -0.3510  0.3520
  132MOL0     C17334  -3.025   1.093   3.601 -0.0069 -0.6627  0.5743
  132MOL0     C17335  -3.174   1.103   3.585  0.9248 -0.1905  0.0127
  132MOL0    Cl17336  -3.277   1.070   3.726  0.0683 -0.0671 -0.3319
  132MOL0     C17337  -2.062   1.241   3.392  0.1580  0.3813  0.2639
  132MOL0     C17338  -1.918   1.236   3.423 -0.1902  0.2130 -1.0386
  132MOL0     O17339  -1.631   1.242   3.363 -0.5229 -0.0891  0.1394
  132MOL0     C17340  -1.481   1.111   3.648  0.6012  0.6062 -0.4298
  132MOL0     C17341  -1.376   1.134   3.733  0.4218  0.2892  0.8534
  132MOL0     N17342  -0.598   1.283   4.156 -0.4130  0.1485 -0.7437
  132MOL0     N17343  -0.489   1.291   4.096 -0.6444  0.4740 -0.6465
  132MOL0     C17344   0.648   1.236   3.771  0.4718  0.1029  0.3172
  132MOL0     C17345   0.785   1.223   3.771 -0.4364 -0.0705 -0.1560
  132MOL0     C17346   1.180   1.002   3.743  0.8528 -0.2322 -0.4600
  132MOL0     C17347   1.239   0.907   3.829 -0.5554  0.5157  0.1153
  132MOL0     C17348   1.377   0.896   3.836 -0.0179 -0.3669  0.4540
  132MOL0     C17349   1.465   0.962   3.749  0.2110 -0.1707  0.5582
  132MOL0     O17350   1.595   0.922   3.752 -0.3009 -0.3017 -0.5645
  132MOL0     C17351   1.692   1.002   3.680  0.1075 -0.6657  1.0158
  132MOL0     C17352   1.840   0.952   3.702  0.2812 -0.2747 -0.4590
  132MOL0     C17353   1.858   0.805   3.697  0.4755 -0.2694 -0.4957
  132MOL0     C17354   2.007   0.761   3.664 -0.4523 -0.3156  1.0665
  132MOL0     C17355   2.084   0.788   3.781  0.8454  0.0063  0.6376
  132MOL0     C17356   2.157   0.833   3.868  0.7271 -0.6621 -0.4632
  132MOL0     C17357   1.408   1.054   3.666  0.5712  0.2593  0.7885
  132MOL0     C17358   1.269   1.075   3.664  0.7091 -0.7402 -0.0827
  132MOL0     H17359   0.819   1.013   3.497  2.5558  0.6108  1.3925
  132MOL0     H17360   0.577   1.044   3.501 -1.6703  0.0896  0.9291
  132MOL0     H17361   0.350   1.054   3.571 -0.4744 -0.2748  0.5014
  132MOL0     H17362   0.387   1.184   3.457 -1.6925  3.1979  0.9429
  132MOL0     H17363   0.169   1.182   3.467  2.8781 -0.0074 -2.0716
  132MOL0     H17364   0.228   1.326   3.569 -3.6015  0.3211 -2.2147
  132MOL0     H17365   0.170   1.219   3.765  2.8357  2.3490 -1.9813
  132MOL0     H17366   0.142   1.068   3.671  2.7983 -0.2236 -3.1202
  132MOL0     H17367  -0.004   1.322   3.594 -0.5205 -0.3658 -0.2046
  132MOL0     H17368  -0.047   1.153   3.553 -0.7557  0.4287 -0.0729
  132MOL0     H17369  -0.103   1.276   3.834 -1.8617  1.0446 -0.2121
  132MOL0     H17370  -0.084   1.110   3.795 -0.0385  1.5759  1.9042
  132MOL0     H17371  -0.275   1.118   3.651 -2.5046 -0.3019  1.2789
  132MOL0     H17372  -0.261   1.300   3.635  2.9887  1.5670  1.2855
  132MOL0     H17373  -0.430   1.137   3.783 -0.7855  3.1791 -3.8630
  132MOL0     H17374  -0.297   1.156   3.904 -2.9972  0.6883  1.9155
  132MOL0     H17375  -0.443   1.374   3.767  0.3769  0.1203  0.1829
  132MOL0     H17376  -0.321   1.386   3.900  0.6554 -2.2085  1.3525
  132MOL0     H17377  -0.686   1.365   3.846  1.0753  1.2983  1.0516
  132MOL0     H17378  -0.849   1.458   4.093  2.2392  0.4143 -0.9643
  132MOL0     H17379  -0.845   1.304   4.191  1.2965 -1.5004 -0.6135
  132MOL0     H17380  -0.896   1.174   3.974  2.5425  0.0891 -0.5941
  132MOL0     H17381  -0.927   1.327   3.895  1.1699  0.2233  1.1510
  132MOL0     H17382  -1.077   1.199   4.127  0.6522  2.7232  3.1281
  132MOL0     H17383  -1.115   1.368   4.077  2.6261  0.3715 -1.5505
  132MOL0     H17384  -1.277   1.211   3.983  1.8119 -0.9283  2.5678
  132MOL0     H17385  -1.158   1.121   3.905  1.1019 -0.1513 -1.2724
  132MOL0     H17386  -1.231   1.400   3.585  0.6445 -0.2897  0.7472
  132MOL0     H17387  -1.448   1.387   3.450  1.5594  1.3224  0.1740
  132MOL0     H17388  -1.893   0.931   3.554 -0.1850 -1.5983 -2.8653
  132MOL0     H17389  -2.117   0.921   3.489 -0.2882  0.3449  0.7219
  132MOL0     H17390  -2.288   1.197   3.232  0.3194 -3.0830  1.5248
  132MOL0     H17391  -2.338   1.314   3.354 -1.9505 -0.0169 -0.9775
  132MOL0     H17392  -2.484   1.061   3.249  0.7116 -0.4416  0.0930
  132MOL0     H17393  -2.541   1.217   3.216  0.0716  0.2397 -0.5303
  132MOL0     H17394  -2.572   1.250   3.482  0.7553 -1.8579  2.5263
  132MOL0     H17395  -2.550   1.076   3.467  0.7611 -0.9548 -1.9697
  132MOL0     H17396  -2.771   1.252   3.335 -1.5712  1.4242  3.5495
  132MOL0     H17397  -2.752   1.085   3.297 -0.5550  0.2404 -0.5232
  132MOL0     H17398  -2.786   1.195   3.586 -1.0156  0.0622  0.3216
  132MOL0     H17399  -2.769   1.029   3.548  1.6091  0.5021 -0.3395
  132MOL0     H17400  -2.976   1.068   3.385  2.3607 -2.4686  1.3495
  132MOL0     H17401  -2.995   1.232   3.441  3.0806  0.7565 -0.2881
  132MOL0     H17402  -3.002   0.989   3.624  3.8609  0.0873  0.7251
  132MOL0     H17403  -3.002   1.160   3.685  0.7448 -0.4319  0.1929
  132MOL0     H17404  -3.208   1.038   3.504 -1.6126  0.5773  0.3750
  132MOL0     H17405  -3.192   1.208   3.560 -2.9109 -0.9786 -1.0415
  132MOL0     H17406  -2.105   1.319   3.330 -3.2069  0.9392  3.0185
  132MOL0     H17407  -1.850   1.315   3.393  1.5612 -1.1711 -0.8437
  132MOL0     H17408  -1.543   1.024   3.665 -0.8459  1.5160 -0.8962
  132MOL0     H17409  -1.354   1.066   3.814 -1.7875 -0.4696  0.8848
  132MOL0     H17410   0.594   1.302   3.838 -0.2586  0.0575 -0.2148
  132MOL0     H17411   0.836   1.275   3.852 -1.9295  0.7687  0.2965
  132MOL0     H17412   1.186   0.844   3.900  1.6960 -0.5674  0.9064
  132MOL0     H17413   1.418   0.822   3.903 -1.7678  1.6457  4.0173
  132MOL0     H17414   1.693   1.104   3.719  1.7041 -0.3269  0.1569
  132MOL0     H17415   1.663   1.007   3.574  1.7301  0.9351  0.6046
  132MOL0     H17416   1.905   0.998   3.626 -1.8907  2.6589 -0.7414
  132MOL0     H17417   1.880   0.986   3.798  1.6520 -0.2733 -1.0050
  132MOL0     H17418   1.794   0.764   3.617  0.2732  0.0328 -0.4912
  132MOL0     H17419   1.830   0.758   3.792  0.8064 -0.3378 -0.4323
  132MOL0     H17420   2.006   0.655   3.638 -1.2075 -0.2600  0.8406
  132MOL0     H17421   2.048   0.827   3.588 -0.0803 -0.1955  1.3711
  132MOL0     H17422   2.219   0.871   3.947  2.7275 -3.1221 -0.7274
  132MOL0     H17423   1.458   1.117   3.593  0.0697  1.5627  1.5367
  132MOL0     H17424   1.235   1.148   3.590  1.6766  0.6837  0.8330
  133MOL0     O17425   5.584   7.594   7.249  1.0937  0.2799  0.7246
  133MOL0     C17426   5.664   7.654   7.176 -0.3925  0.2531 -0.3573
  133MOL0     O17427   5.632   7.698   7.043  0.1307  0.0242  0.5835
  133MOL0     C17428   5.499   7.683   7.012 -0.8706 -0.6400  0.3788
  133MOL0     C17429   5.473   7.589   6.913 -0.0975  0.0421  0.3926
  133MOL0     C17430   5.344   7.582   6.861  0.2207  0.9378  0.5549
  133MOL0     C17431   5.238   7.659   6.907  0.0095  0.0549 -0.0708
  133MOL0     O17432   5.117   7.659   6.846  0.8390  0.7912 -0.2420
  133MOL0     C17433   5.084   7.600   6.718 -0.2500 -0.7832 -0.1030
  133MOL0     C17434   5.023   7.463   6.742 -0.5489  0.5782 -0.5606
  133MOL0     C17435   4.903   7.463   6.836 -0.8443 -0.6936 -0.7326
  133MOL0     C17436   4.780   7.543   6.795  1.3641  0.2880  0.1345
  133MOL0     C17437   4.714   7.492   6.667  0.4761 -1.0357 -0.6158
  133MOL0     C17438   4.695   7.342   6.652  0.1501  0.1148 -0.1482
  133MOL0     C17439   4.609   7.275   6.763 -0.6741  0.1445  0.3879
  133MOL0     C17440   4.616   7.119   6.743 -0.6772  0.0867  0.0324
  133MOL0     N17441   4.749   7.066   6.781 -0.2603 -0.0651  0.0864
  133MOL0     C17442   4.827   7.010   6.681  0.6189  0.3784 -0.9230
  133MOL0     C17443   4.932   6.965   6.755  0.3844  0.0087  0.7324
  133MOL0     C17444   5.073   6.916   6.710  0.5763 -0.4303 -0.0497
  133MOL0     C17445   5.187   6.968   6.788 -0.2491 -1.3522 -0.3361
  133MOL0     C17446   5.191   7.129   6.784 -0.1298  0.3801  0.4118
  133MOL0     C17447   5.302   7.197   6.862  0.2176  0.3552  0.3900
  133MOL0     O17448   5.427   7.141   6.810  0.6602  0.1496 -0.8134
  133MOL0     C17449   5.534   7.178   6.891  0.0029  0.3556  0.3028
  133MOL0     C17450   5.540   7.214   7.024 -0.2804 -0.1943 -0.0676
  133MOL0     C17451   5.665   7.258   7.077  0.3025  0.2729 -0.2542
  133MOL0     C17452   5.784   7.250   6.997 -0.4994 -0.1244  0.5376
  133MOL0     C17453   5.908   7.262   7.063  0.4224 -0.7506  0.2194
  133MOL0     O17454   5.905   7.254   7.204 -0.7166  0.6832 -0.7278
  133MOL0     C17455   6.017   7.263   7.286 -0.6002 -0.4611 -0.0991
  133MOL0     C17456   6.117   7.355   7.269 -0.7867 -0.1453  0.4984
  133MOL0     C17457   6.224   7.374   7.349  0.5553  0.8514 -0.5526
  133MOL0     C17458   6.245   7.281   7.459  0.6734 -0.5693  0.5754
  133MOL0     O17459   6.356   7.279   7.538 -0.4292 -0.6309  0.6118
  133MOL0     C17460   6.449   7.389   7.530 -0.5099  0.1753  0.0259
  133MOL0     C17461   6.517   7.383   7.662  0.1455 -0.1207 -0.9516
  133MOL0     C17462   6.606   7.263   7.690  0.7354  0.1760  0.0141
  133MOL0     C17463   6.722   7.248   7.597 -1.0994 -0.6223  0.9340
  133MOL0     C17464   6.808   7.380   7.600 -1.3909 -0.0845 -0.8461
  133MOL0     C17465   6.937   7.371   7.534  0.1869  0.8573 -0.5248
  133MOL0     C17466   6.925   7.351   7.384  0.3705 -0.6377  0.0506
  133MOL0     C17467   7.065   7.347   7.320  0.2407  0.7181 -1.1925
  133MOL0    Cl17468   7.149   7.505   7.332  0.0512 -0.5389  0.0159
  133MOL0     C17469   6.142   7.189   7.484  0.3783 -0.7389  0.5012
  133MOL0     C17470   6.032   7.180   7.398 -0.2277  0.2520 -0.1389
  133MOL0     O17471   6.004   7.291   6.998 -0.1099  0.4402  0.2410
  133MOL0     C17472   5.776   7.195   6.866 -0.4270  0.6904  0.1669
  133MOL0     C17473   5.651   7.167   6.820 -0.5179 -0.4205  0.4072
  133MOL0     N17474   4.910   6.977   6.891  0.4985 -0.4984 -0.5439
  133MOL0     N17475   4.793   7.031   6.908 -0.3274 -0.0472 -0.2347
  133MOL0     C17476   5.260   7.750   7.005 -0.4940 -0.5248 -0.3958
  133MOL0     C17477   5.391   7.763   7.052  0.1547 -0.6820 -0.2919
  133MOL0     C17478   5.800   7.669   7.219 -0.6645  0.0257 -0.0272
  133MOL0     C17479   5.837   7.663   7.354  0.0367  0.0359 -0.1675
  133MOL0     C17480   5.955   7.698   7.402 -0.5393  0.3312  0.3540
  133MOL0     C17481   6.065   7.731   7.316  0.3824 -0.0990  0.0248
  133MOL0     O17482   6.187   7.753   7.372 -1.1850 -0.1445 -0.3473
  133MOL0     C17483   6.305   7.754   7.284 -0.1847  0.9508 -0.3299
  133MOL0     C17484   6.429   7.798   7.358  0.5280  1.1491 -0.4279
  133MOL0     C17485   6.561   7.766   7.283 -0.6965  0.3867 -0.0717
  133MOL0     C17486   6.682   7.798   7.373  0.7981  0.0791  0.1237
  133MOL0     C17487   6.791   7.849   7.291 -0.0648 -0.6413  0.2968
  133MOL0     C17488   6.883   7.893   7.221  0.3968  0.0592 -0.0331
  133MOL0     C17489   6.032   7.718   7.179 -0.3501 -1.0668 -0.7638
  133MOL0     C17490   5.904   7.698   7.134  0.1043 -0.3727  0.0925
  133MOL0     H17491   5.545   7.525   6.864 -1.4378  0.0296 -1.6975
  133MOL0     H17492   5.337   7.521   6.772 -0.0245  1.1273  0.4429
  133MOL0     H17493   5.166   7.593   6.646 -0.8248  3.2586 -1.3765
  133MOL0     H17494   5.013   7.672   6.676 -0.3512  0.4269  1.9724
  133MOL0     H17495   5.105   7.397   6.772  1.6248  2.6297 -1.7587
  133MOL0     H17496   4.989   7.424   6.646 -0.3543  0.7114 -0.6836
  133MOL0     H17497   4.929   7.511   6.930  0.0828  3.0877 -2.7064
  133MOL0     H17498   4.878   7.360   6.864 -0.8077 -1.2332 -2.5512
  133MOL0     H17499   4.702   7.542   6.872 -0.3552 -0.9959 -1.5280
  133MOL0     H17500   4.805   7.650   6.792 -0.5983  0.8708  1.9507
  133MOL0     H17501   4.772   7.528   6.582  1.1826 -1.1255 -0.1798
  133MOL0     H17502   4.613   7.535   6.666  1.6912  2.0977 -0.3235
  133MOL0     H17503   4.795   7.299   6.657  0.4360  0.9053  2.0688
  133MOL0     H17504   4.656   7.317   6.552 -1.0036 -0.7236  0.4848
  133MOL0     H17505   4.638   7.294   6.867 -0.2665 -3.5702  1.1052
  133MOL0     H17506   4.508   7.313   6.745 -0.8151 -0.6333 -0.5481
  133MOL0     H17507   4.607   7.085   6.640  0.9982 -2.7614  0.7131
  133MOL0     H17508   4.543   7.062   6.802 -0.1754 -2.7354 -1.8693
  133MOL0     H17509   4.813   7.016   6.574  2.9578  0.2457 -1.2791
  133MOL0     H17510   5.084   6.931   6.602  0.9008 -1.5522 -0.1893
  133MOL0     H17511   5.081   6.815   6.752  2.5256  0.4149  1.7386
  133MOL0     H17512   5.280   6.931   6.745  0.5302 -0.3350  0.4262
  133MOL0     H17513   5.179   6.930   6.890 -1.0119  2.5322  1.2661
  133MOL0     H17514   5.203   7.160   6.680 -1.2857  0.3627  0.2584
  133MOL0     H17515   5.093   7.163   6.821  0.0578 -0.3040  1.5935
  133MOL0     H17516   5.275   7.180   6.967 -1.2862  1.4684  0.2205
  133MOL0     H17517   5.305   7.304   6.837 -0.9504  0.4507  0.5901
  133MOL0     H17518   5.450   7.221   7.083  0.4581  1.0412  0.9634
  133MOL0     H17519   5.662   7.289   7.181  1.9501  0.5743 -0.2724
  133MOL0     H17520   6.104   7.416   7.180  0.9548 -0.9407 -0.3459
  133MOL0     H17521   6.297   7.450   7.325  1.6477  0.0548  0.1246
  133MOL0     H17522   6.401   7.487   7.524 -1.5588 -0.3342 -0.2027
  133MOL0     H17523   6.511   7.377   7.440 -1.8543  2.0952 -1.2521
  133MOL0     H17524   6.448   7.387   7.747  1.0895  1.7693 -0.2228
  133MOL0     H17525   6.569   7.475   7.690  0.4229 -0.4426 -0.3975
  133MOL0     H17526   6.540   7.176   7.676  4.9563 -3.3644  0.0324
  133MOL0     H17527   6.639   7.257   7.794 -1.6395 -2.0700  0.7747
  133MOL0     H17528   6.773   7.153   7.618 -2.1499 -1.9704 -2.0298
  133MOL0     H17529   6.682   7.232   7.496  0.3155 -2.1495  0.5619
  133MOL0     H17530   6.820   7.408   7.705 -1.8775 -0.0811 -0.7882
  133MOL0     H17531   6.757   7.461   7.545 -3.3816 -1.0867 -0.5624
  133MOL0     H17532   6.995   7.290   7.580  0.1548 -0.5721 -2.8493
  133MOL0     H17533   6.986   7.464   7.562  0.4045  0.7754 -0.6297
  133MOL0     H17534   6.876   7.255   7.364 -2.6631  0.9072 -0.5255
  133MOL0     H17535   6.854   7.418   7.334 -0.4816 -0.6334  1.2233
  133MOL0     H17536   7.054   7.307   7.220 -0.9628 -4.1382  0.6141
  133MOL0     H17537   7.122   7.266   7.366 -0.2363  0.5749 -0.8399
  133MOL0     H17538   6.145   7.127   7.574  2.5406  0.8260  1.5860
  133MOL0     H17539   5.950   7.109   7.407  2.4434 -2.8870  1.6614
  133MOL0     H17540   5.865   7.184   6.805 -1.6309  0.4804 -1.6199
  133MOL0     H17541   5.652   7.138   6.716  0.0058  1.0085 -0.0170
  133MOL0     H17542   5.183   7.821   7.035  1.7339  1.7024  0.4477
  133MOL0     H17543   5.409   7.841   7.124  1.2053 -0.7760 -0.4446
  133MOL0     H17544   5.761   7.627   7.422  0.0135 -1.9586 -1.1737
  133MOL0     H17545   5.966   7.722   7.507  0.4101  1.6448 -0.0219
  133MOL0     H17546   6.293   7.815   7.194 -0.3474 -0.6293 -1.4306
  133MOL0     H17547   6.323   7.661   7.229  4.5389  3.1074 -3.0005
  133MOL0     H17548   6.421   7.905   7.380  2.5028  2.2475 -4.2991
  133MOL0     H17549   6.420   7.738   7.450 -1.8682 -1.0278 -1.9281
  133MOL0     H17550   6.563   7.831   7.194  1.6027 -0.1875 -0.5009
  133MOL0     H17551   6.566   7.661   7.252  0.4493 -0.3768  2.4998
  133MOL0     H17552   6.658   7.881   7.441  1.1713 -0.6479  1.1668
  133MOL0     H17553   6.718   7.712   7.429  1.1675  0.6033  0.7111
  133MOL0     H17554   6.957   7.931   7.154  1.8828  0.0880  1.5448
  133MOL0     H17555   6.117   7.723   7.113  0.2509 -0.0183  0.0563
  133MOL0     H17556   5.882   7.718   7.029 -0.4799  0.1871  0.3167
  134MOL0     O17557   6.458   4.695   5.847 -0.3138 -0.5395 -0.8731
  134MOL0     C17558   6.511   4.713   5.738  0.0648 -0.4194 -0.3753
  134MOL0     O17559   6.440   4.738   5.623  0.2201  0.0595  1.0056
  134MOL0     C17560   6.301   4.722   5.627 -0.4470 -0.4128 -0.0393
  134MOL0     C17561   6.244   4.596   5.606 -0.3489 -0.4576 -0.3818
  134MOL0     C17562   6.101   4.590   5.610 -0.7205 -0.0532  0.0326
  134MOL0     C17563   6.026   4.703   5.641 -0.9485  0.8605  0.9848
  134MOL0     O17564   5.892   4.710   5.663  0.0186  0.2052 -0.0937
  134MOL0     C17565   5.813   4.588   5.659  0.0246 -0.3206 -0.2867
  134MOL0     C17566   5.805   4.515   5.790 -0.3495  0.9413 -0.3450
  134MOL0     C17567   5.693   4.407   5.782  0.2347  0.0806 -0.1181
  134MOL0     C17568   5.672   4.350   5.929  0.3614  0.0634  1.2590
  134MOL0     C17569   5.612   4.210   5.925  0.4713 -0.3425 -0.1221
  134MOL0     C17570   5.482   4.202   5.845 -0.3859 -0.4475 -0.6263
  134MOL0     C17571   5.416   4.062   5.874  0.0004  0.1333  0.1292
  134MOL0     C17572   5.294   4.048   5.779 -0.5675 -0.3098  0.3124
  134MOL0     N17573   5.178   4.134   5.803  0.0125 -0.5620 -0.3323
  134MOL0     C17574   5.054   4.096   5.853  0.7143  0.7415 -0.0696
  134MOL0     C17575   4.981   4.209   5.871  0.4460 -0.7488  0.8694
  134MOL0     C17576   4.850   4.227   5.926  0.0589  0.4464 -0.2370
  134MOL0     C17577   4.741   4.211   5.808 -0.5249 -0.6627  0.3315
  134MOL0     C17578   4.598   4.240   5.859  0.5086 -0.0700 -0.8041
  134MOL0     C17579   4.505   4.263   5.748 -0.2208  0.7189 -1.1795
  134MOL0     O17580   4.375   4.295   5.807 -0.2270  0.7417  0.5361
  134MOL0     C17581   4.275   4.334   5.714 -0.9802 -0.3842 -0.2570
  134MOL0     C17582   4.289   4.341   5.575  0.3505 -0.5019  0.1354
  134MOL0     C17583   4.184   4.393   5.501  0.1169  0.2242  0.4081
  134MOL0     C17584   4.054   4.417   5.558 -0.0569 -0.9735 -0.1601
  134MOL0     C17585   3.946   4.456   5.474  0.7486  0.6377  0.3977
  134MOL0     O17586   3.830   4.462   5.536  0.6435 -0.1158 -0.2294
  134MOL0     C17587   3.729   4.506   5.459  0.4251 -0.0696 -0.2885
  134MOL0     C17588   3.610   4.438   5.451  0.2597  0.1740  1.0163
  134MOL0     C17589   3.498   4.495   5.388  0.5502  0.2665 -0.1426
  134MOL0     C17590   3.506   4.627   5.332 -0.8114  0.4967  0.5252
  134MOL0     O17591   3.395   4.673   5.271  0.3856  0.2818  1.1339
  134MOL0     C17592   3.367   4.814   5.272  0.5704  0.5481  0.3460
  134MOL0     C17593   3.228   4.874   5.227 -0.5046 -0.0952  0.1484
  134MOL0     C17594   3.193   4.826   5.083  0.6306  0.4757  0.4029
  134MOL0     C17595   3.279   4.896   4.970  0.4757  0.2008 -0.7231
  134MOL0     C17596   3.193   4.975   4.878  0.6048 -0.0656 -0.6919
  134MOL0     C17597   3.104   4.886   4.797 -0.4794  0.1535  0.5368
  134MOL0     C17598   3.028   4.960   4.684  0.1400  0.1518  0.8165
  134MOL0     C17599   2.947   4.872   4.586 -0.7112 -0.4132 -0.3241
  134MOL0    Cl17600   2.847   4.988   4.490 -0.1472 -0.5971  0.2153
  134MOL0     C17601   3.627   4.694   5.335  0.9996 -0.6523 -0.7296
  134MOL0     C17602   3.736   4.637   5.402 -0.0443  0.2853  0.8239
  134MOL0     O17603   3.964   4.465   5.349  0.0277 -0.2652  0.3998
  134MOL0     C17604   4.045   4.409   5.700 -0.0313  0.2851  0.4770
  134MOL0     C17605   4.155   4.369   5.773 -0.5159  0.4645 -0.7225
  134MOL0     N17606   5.062   4.316   5.823  0.2032 -0.1133  0.6018
  134MOL0     N17607   5.177   4.273   5.791 -0.4713  0.0954 -0.3093
  134MOL0     C17608   6.087   4.831   5.650  1.0139 -0.0977  0.2967
  134MOL0     C17609   6.229   4.833   5.652  0.9900  0.0832  0.1301
  134MOL0     C17610   6.654   4.690   5.731  0.5355 -0.4343 -0.1565
  134MOL0     C17611   6.713   4.666   5.608 -0.2365  0.9837  0.5321
  134MOL0     C17612   6.852   4.641   5.595 -0.7633 -0.3072  0.7879
  134MOL0     C17613   6.933   4.638   5.710  0.1007 -0.4778 -0.0810
  134MOL0     O17614   7.061   4.597   5.711  0.0673  0.4930  0.2769
  134MOL0     C17615   7.103   4.526   5.601  0.7628  0.3908 -0.4643
  134MOL0     C17616   7.046   4.384   5.597  0.6836  0.1987 -0.1188
  134MOL0     C17617   7.094   4.282   5.706 -0.1233 -0.7213 -0.2160
  134MOL0     C17618   6.987   4.184   5.736  0.4877 -0.1793  0.1694
  134MOL0     C17619   7.039   4.099   5.846  0.4111  0.6014  0.0929
  134MOL0     C17620   7.081   4.028   5.941 -1.2215 -1.0249 -0.4050
  134MOL0     C17621   6.873   4.663   5.829 -0.4841  0.5290 -0.8620
  134MOL0     C17622   6.736   4.691   5.847 -0.1681 -0.1698  0.2779
  134MOL0     H17623   6.310   4.511   5.590  1.0083  0.5617 -0.4497
  134MOL0     H17624   6.051   4.493   5.612 -1.4418  0.2886  2.4660
  134MOL0     H17625   5.841   4.514   5.583  1.6465 -3.0513  2.7276
  134MOL0     H17626   5.710   4.620   5.641  0.3292  0.1167 -1.3317
  134MOL0     H17627   5.782   4.581   5.874  0.2721 -1.0564  1.4771
  134MOL0     H17628   5.900   4.463   5.804 -1.5041 -0.4393  3.5565
  134MOL0     H17629   5.716   4.331   5.707  2.7222  1.0525 -0.4741
  134MOL0     H17630   5.599   4.446   5.741  0.4083  0.9539  0.2856
  134MOL0     H17631   5.765   4.341   5.985 -1.8198 -0.5791  5.0693
  134MOL0     H17632   5.615   4.420   5.992 -0.9918  1.6332 -1.4962
  134MOL0     H17633   5.590   4.168   6.023 -2.0812 -1.9117 -1.2710
  134MOL0     H17634   5.670   4.137   5.868  0.0899 -1.4632  0.8684
  134MOL0     H17635   5.496   4.205   5.736 -0.0437  0.2467 -0.5639
  134MOL0     H17636   5.417   4.286   5.871  0.8975  1.0148 -1.9276
  134MOL0     H17637   5.494   3.986   5.862 -0.1276  0.1908 -1.3066
  134MOL0     H17638   5.378   4.060   5.976 -1.7462  1.8512 -0.4188
  134MOL0     H17639   5.251   3.949   5.794  1.8642 -1.3116  1.1508
  134MOL0     H17640   5.334   4.074   5.680 -1.7024  3.4923  0.7009
  134MOL0     H17641   5.029   3.993   5.875  0.8368  0.3730 -1.5524
  134MOL0     H17642   4.832   4.330   5.959  2.5406  0.8956 -0.0624
  134MOL0     H17643   4.821   4.153   6.000 -1.6101 -1.3408 -2.5517
  134MOL0     H17644   4.744   4.112   5.760 -0.8510 -0.1501 -0.7662
  134MOL0     H17645   4.774   4.280   5.730  1.1238 -2.7050 -0.8912
  134MOL0     H17646   4.564   4.158   5.924 -0.7411 -2.3611 -4.0766
  134MOL0     H17647   4.603   4.330   5.920  1.8173 -1.9158  2.0459
  134MOL0     H17648   4.496   4.168   5.694  1.1432 -0.6131  0.7906
  134MOL0     H17649   4.545   4.347   5.690 -0.0303  0.3851 -1.5327
  134MOL0     H17650   4.373   4.310   5.514 -0.2087 -2.3761  0.2550
  134MOL0     H17651   4.192   4.389   5.392  0.6315  0.1991  0.4462
  134MOL0     H17652   3.598   4.346   5.508  2.1975  0.9639  2.8402
  134MOL0     H17653   3.404   4.444   5.369  0.5264  0.6077 -0.9670
  134MOL0     H17654   3.436   4.860   5.202 -0.2993  0.2085 -0.7600
  134MOL0     H17655   3.396   4.851   5.371  1.9824  0.8004 -0.1372
  134MOL0     H17656   3.231   4.983   5.235  0.8556 -0.0701 -0.4947
  134MOL0     H17657   3.152   4.836   5.297 -0.7091  1.7966  1.0207
  134MOL0     H17658   3.087   4.840   5.060  0.2753 -2.1859  0.0851
  134MOL0     H17659   3.211   4.718   5.079  0.0594  0.3407  1.2261
  134MOL0     H17660   3.348   4.958   5.028  1.2293 -0.4160 -0.9314
  134MOL0     H17661   3.327   4.818   4.909  0.1385  0.1733 -0.9531
  134MOL0     H17662   3.264   5.014   4.804  0.9849  1.2331  0.3150
  134MOL0     H17663   3.140   5.059   4.925  2.0402  0.2093  0.4955
  134MOL0     H17664   3.028   4.834   4.858 -2.2644  3.4056  1.3206
  134MOL0     H17665   3.166   4.806   4.754 -0.6249  0.4550 -0.2510
  134MOL0     H17666   2.959   5.032   4.730 -1.4520 -0.5354 -0.4204
  134MOL0     H17667   3.091   5.029   4.627  2.0759 -1.5063  0.8376
  134MOL0     H17668   2.879   4.809   4.644  0.9786 -1.1968  0.9004
  134MOL0     H17669   3.001   4.794   4.531  3.0355  1.2347  0.6635
  134MOL0     H17670   3.650   4.797   5.310  0.4722 -0.7104 -1.4829
  134MOL0     H17671   3.823   4.701   5.410  0.6950 -0.8426  2.3583
  134MOL0     H17672   3.960   4.429   5.764  0.8726 -1.2982  2.2919
  134MOL0     H17673   4.157   4.359   5.881 -4.2851 -2.1319 -0.7062
  134MOL0     H17674   6.034   4.920   5.681  1.5583 -0.3209  1.9722
  134MOL0     H17675   6.274   4.930   5.634  2.9397 -0.3433  2.1870
  134MOL0     H17676   6.643   4.662   5.525 -1.7700  3.7014  1.5633
  134MOL0     H17677   6.888   4.611   5.497  1.2635 -1.0131  1.6917
  134MOL0     H17678   7.212   4.527   5.617  0.3479  1.8594  3.3313
  134MOL0     H17679   7.092   4.574   5.503  1.2722 -0.7228 -1.0959
  134MOL0     H17680   6.937   4.390   5.590  0.6440 -0.9352 -0.7095
  134MOL0     H17681   7.081   4.345   5.501 -2.1969 -3.2069  0.0067
  134MOL0     H17682   7.122   4.337   5.797 -1.6446 -0.5817  0.2075
  134MOL0     H17683   7.190   4.237   5.680  1.1372  1.1281  0.9654
  134MOL0     H17684   6.889   4.222   5.768  1.4290  2.1109  0.5404
  134MOL0     H17685   6.965   4.120   5.651  1.9735  0.3621 -0.6597
  134MOL0     H17686   7.124   3.981   6.027 -0.1840  1.7567  0.6997
  134MOL0     H17687   6.938   4.655   5.915 -2.6303 -0.2727  0.7588
  134MOL0     H17688   6.701   4.701   5.950 -1.9730  1.0256 -0.3946
  135MOL0     O17689   8.865   4.643  10.674  0.0005 -0.4832 -0.2293
  135MOL0     C17690   8.805   4.582  10.590 -0.1069  0.1916  0.1428
  135MOL0     O17691   8.854   4.540  10.468  0.2158 -0.3284 -0.1839
  135MOL0     C17692   8.980   4.553  10.426 -0.3320  0.5602 -0.1579
  135MOL0     C17693   9.095   4.602  10.499  0.6976  0.7414 -0.2826
  135MOL0     C17694   9.228   4.601  10.447  0.0286  0.9262  0.6285
  135MOL0     C17695   9.244   4.537  10.318 -0.0103  0.4173 -0.0554
  135MOL0     O17696   9.376   4.518  10.281  0.3083 -0.7438  0.1241
  135MOL0     C17697   9.412   4.469  10.151  0.5474  0.1036 -0.2874
  135MOL0     C17698   9.547   4.409  10.164 -0.4131 -0.5584 -0.8113
  135MOL0     C17699   9.654   4.501  10.230  0.3665  0.0174 -0.6975
  135MOL0     C17700   9.659   4.652  10.189  0.3103  0.2014  0.4072
  135MOL0     C17701   9.806   4.705  10.200  0.4839 -0.1047 -1.2522
  135MOL0     C17702   9.889   4.675  10.074 -0.0961  0.1293  0.2585
  135MOL0     C17703  10.032   4.678  10.104  0.4966  0.2838  0.5599
  135MOL0     C17704  10.105   4.644   9.970 -0.1244  0.0729 -0.0639
  135MOL0     N17705  10.247   4.666   9.974 -0.7137 -0.7418 -0.1985
  135MOL0     C17706  10.328   4.702   9.867 -0.1125 -0.6212 -0.2817
  135MOL0     C17707  10.450   4.708   9.912 -0.2273 -0.2067 -1.2742
  135MOL0     C17708  10.572   4.720   9.831  0.4652 -0.0109 -0.1268
  135MOL0     C17709  10.589   4.591   9.748  0.0736 -0.1019  0.5826
  135MOL0     C17710  10.591   4.463   9.834  0.2553 -0.9861 -0.6901
  135MOL0     C17711  10.628   4.339   9.753  0.6740 -0.1662 -0.7082
  135MOL0     O17712  10.529   4.298   9.653 -0.7024  0.4265 -0.6372
  135MOL0     C17713  10.394   4.291   9.692  0.2154 -0.0512  0.4562
  135MOL0     C17714  10.305   4.358   9.606 -0.1563  0.2146  0.8603
  135MOL0     C17715  10.168   4.371   9.643 -0.3940  0.9242  0.5660
  135MOL0     C17716  10.116   4.327   9.762  0.1902 -0.8927  0.7618
  135MOL0     C17717   9.981   4.341   9.802  0.4495  0.0555  0.4357
  135MOL0     O17718   9.890   4.387   9.707 -0.0420 -1.3058 -0.5744
  135MOL0     C17719   9.758   4.408   9.734  0.5465  0.5842  0.3005
  135MOL0     C17720   9.697   4.533   9.726  0.7555  0.2089 -1.3318
  135MOL0     C17721   9.567   4.554   9.759 -0.2239  0.1486  0.4156
  135MOL0     C17722   9.485   4.447   9.796 -0.0489  0.3305 -0.3260
  135MOL0     O17723   9.356   4.460   9.839  0.0656 -0.8840 -0.4512
  135MOL0     C17724   9.275   4.559   9.780 -0.4940 -0.4250 -0.4673
  135MOL0     C17725   9.144   4.555   9.854 -0.2907  0.3874 -0.2607
  135MOL0     C17726   9.032   4.619   9.773  0.0073 -0.7499  0.1619
  135MOL0     C17727   8.898   4.610   9.855 -0.0616  0.2190 -0.4376
  135MOL0     C17728   8.773   4.690   9.794 -0.9621  0.4298  0.7588
  135MOL0     C17729   8.655   4.701   9.893 -0.3115 -0.3395  0.3413
  135MOL0     C17730   8.550   4.797   9.854 -0.0336 -0.2276 -0.5795
  135MOL0     C17731   8.414   4.759   9.905  0.9331 -0.2558 -0.5211
  135MOL0    Cl17732   8.286   4.861   9.847  0.1072  0.1208 -0.1051
  135MOL0     C17733   9.534   4.313   9.794  0.9910 -0.2767  0.8983
  135MOL0     C17734   9.672   4.301   9.764  0.1049  1.0694  1.1313
  135MOL0     O17735   9.954   4.333   9.918  0.4915 -0.8271 -0.1277
  135MOL0     C17736  10.210   4.255   9.839 -0.3292 -0.0743 -0.3337
  135MOL0     C17737  10.347   4.229   9.805 -0.4161 -0.2666  0.0705
  135MOL0     N17738  10.446   4.684  10.049  0.0314  0.0063 -0.5855
  135MOL0     N17739  10.330   4.662  10.082  0.0087  0.1230  0.2871
  135MOL0     C17740   9.134   4.500  10.240  0.1514  0.6721 -0.0266
  135MOL0     C17741   9.011   4.512  10.295  0.0864  0.8269 -0.3102
  135MOL0     C17742   8.672   4.537  10.637  0.2089 -0.0329  1.1266
  135MOL0     C17743   8.597   4.604  10.734 -0.6002 -0.6945  0.0024
  135MOL0     C17744   8.463   4.566  10.749  0.9383  0.3949 -0.4781
  135MOL0     C17745   8.395   4.473  10.666  0.2639  0.2600 -0.0447
  135MOL0     O17746   8.258   4.448  10.674  0.7420  0.5017  0.4439
  135MOL0     C17747   8.181   4.517  10.779 -0.3325 -0.1775  0.3862
  135MOL0     C17748   8.042   4.456  10.787  0.6625  0.5021  0.0251
  135MOL0     C17749   7.934   4.557  10.833  0.3514 -0.3872  0.4901
  135MOL0     C17750   7.805   4.483  10.872  1.1471 -0.0742  0.4549
  135MOL0     C17751   7.685   4.552  10.842  1.2816  0.1273  0.5699
  135MOL0     C17752   7.592   4.618  10.797  0.1768  0.6115  0.5717
  135MOL0     C17753   8.475   4.405  10.574  0.7851  0.5144  0.0237
  135MOL0     C17754   8.615   4.430  10.564 -0.5572  0.5836 -0.5861
  135MOL0     H17755   9.077   4.658  10.590  1.2627 -1.4376  1.2494
  135MOL0     H17756   9.307   4.644  10.508 -0.9848 -1.0563  3.5423
  135MOL0     H17757   9.420   4.547  10.075  1.9141 -3.6479 -4.3994
  135MOL0     H17758   9.342   4.390  10.122  0.8134 -0.4951  0.6378
  135MOL0     H17759   9.580   4.380  10.064 -0.6651 -2.1295 -0.4638
  135MOL0     H17760   9.550   4.318  10.225 -1.1992 -1.0390 -1.4838
  135MOL0     H17761   9.752   4.457  10.211  0.6890  1.0933 -1.6723
  135MOL0     H17762   9.645   4.494  10.338 -0.8918 -0.4555 -0.8150
  135MOL0     H17763   9.614   4.666  10.090 -1.3722  1.4379  1.2865
  135MOL0     H17764   9.587   4.707  10.251 -2.1976 -1.0400 -1.2032
  135MOL0     H17765   9.851   4.667  10.293 -2.0374 -0.8075 -0.2251
  135MOL0     H17766   9.803   4.814  10.209 -1.6413 -0.1569 -0.6742
  135MOL0     H17767   9.856   4.738   9.990  0.1451 -1.0612 -0.7530
  135MOL0     H17768   9.855   4.574  10.049 -1.9059  1.2005 -2.0688
  135MOL0     H17769  10.062   4.781  10.128 -0.4525  1.1301 -1.5564
  135MOL0     H17770  10.058   4.603  10.178 -1.7276 -0.8733  0.2525
  135MOL0     H17771  10.063   4.700   9.886 -0.5067  2.3397  1.5268
  135MOL0     H17772  10.082   4.538   9.958  3.4745 -0.8160 -0.2521
  135MOL0     H17773  10.297   4.716   9.764  0.2117  0.4507 -0.2448
  135MOL0     H17774  10.659   4.744   9.892  1.0955  0.9726 -1.3581
  135MOL0     H17775  10.559   4.806   9.764 -3.8567  0.2809  0.7897
  135MOL0     H17776  10.674   4.604   9.680  0.3153  1.2159  1.0948
  135MOL0     H17777  10.499   4.587   9.686  0.5063 -3.5357 -0.0197
  135MOL0     H17778  10.660   4.481   9.917 -1.4561 -2.0250  1.0366
  135MOL0     H17779  10.496   4.452   9.887  0.7859  1.3461  0.9227
  135MOL0     H17780  10.637   4.251   9.817 -1.3883  0.2869  0.2887
  135MOL0     H17781  10.724   4.355   9.702 -0.6852 -0.9353 -3.7817
  135MOL0     H17782  10.333   4.397   9.509  1.8287  0.3084  1.4443
  135MOL0     H17783  10.114   4.424   9.566  0.7218  1.6992  0.2825
  135MOL0     H17784   9.758   4.618   9.698  1.7632 -0.2391 -0.5597
  135MOL0     H17785   9.531   4.655   9.742  1.3648  0.3372 -2.2672
  135MOL0     H17786   9.265   4.553   9.671 -0.6478  2.7115 -0.7147
  135MOL0     H17787   9.310   4.659   9.804 -4.2228  1.3556 -1.7297
  135MOL0     H17788   9.142   4.610   9.949  0.1848  0.2263 -0.1569
  135MOL0     H17789   9.116   4.452   9.881  0.8172  0.3008  0.6326
  135MOL0     H17790   9.014   4.580   9.672 -2.2555  0.4913  0.0133
  135MOL0     H17791   9.063   4.720   9.745  0.6186 -0.9836 -0.0254
  135MOL0     H17792   8.867   4.506   9.865 -1.2521  0.4590 -1.4140
  135MOL0     H17793   8.914   4.663   9.949 -0.7182  4.3693 -2.4126
  135MOL0     H17794   8.739   4.653   9.697  4.2554  0.0402 -1.2314
  135MOL0     H17795   8.798   4.793   9.768 -4.0672  0.7701 -1.4149
  135MOL0     H17796   8.700   4.729   9.989  0.9695 -2.0154  0.2889
  135MOL0     H17797   8.604   4.605   9.907 -1.0856  0.0323  0.1169
  135MOL0     H17798   8.581   4.896   9.889 -0.1806  0.0880 -1.3330
  135MOL0     H17799   8.537   4.803   9.746 -1.4079  0.4896 -0.3921
  135MOL0     H17800   8.414   4.756  10.015 -0.8492  0.1062 -0.4888
  135MOL0     H17801   8.384   4.656   9.880 -0.0962  0.0149 -0.4443
  135MOL0     H17802   9.472   4.234   9.836 -0.8967  0.7859  0.2072
  135MOL0     H17803   9.715   4.201   9.763  2.0933  1.7874  3.9311
  135MOL0     H17804  10.171   4.215   9.932 -0.3162  0.9170  0.1040
  135MOL0     H17805  10.420   4.176   9.865 -2.8273 -1.2298  2.3384
  135MOL0     H17806   9.141   4.464  10.137  0.6693  0.6800  0.0010
  135MOL0     H17807   8.930   4.480  10.231 -1.2853  0.2598  1.6124
  135MOL0     H17808   8.643   4.675  10.801  0.8119 -1.7461  0.1773
  135MOL0     H17809   8.411   4.626  10.823  1.1730 -0.4589  0.4009
  135MOL0     H17810   8.177   4.617  10.736  0.9868 -0.9690 -1.7624
  135MOL0     H17811   8.232   4.507  10.875 -1.0658 -1.8774  0.6398
  135MOL0     H17812   8.023   4.413  10.688 -4.4801 -0.9449  1.3660
  135MOL0     H17813   8.040   4.379  10.864 -1.1977  0.4655 -0.0107
  135MOL0     H17814   7.914   4.623  10.747 -1.5279  0.1511  1.2750
  135MOL0     H17815   7.971   4.621  10.914  0.7935  0.7136 -0.5507
  135MOL0     H17816   7.798   4.387  10.821  3.9859 -0.8216  1.2607
  135MOL0     H17817   7.816   4.452  10.977  2.2122 -2.0289 -0.1775
  135MOL0     H17818   7.506   4.666  10.756 -0.2337 -1.7215 -1.5392
  135MOL0     H17819   8.429   4.328  10.513 -2.2563  0.5398  2.0515
  135MOL0     H17820   8.668   4.380  10.484 -2.2080  0.2621 -1.5359
  136MOL0     O17821   6.470   8.571  11.087 -0.7413 -0.4320 -0.3902
  136MOL0     C17822   6.546   8.669  11.090  0.3122  0.8138 -0.3200
  136MOL0     O17823   6.531   8.779  11.009 -0.0015 -0.5674 -0.2983
  136MOL0     C17824   6.426   8.781  10.931  0.2369  0.6005 -0.6182
  136MOL0     C17825   6.426   8.719  10.808 -0.6282 -0.6463  0.1990
  136MOL0     C17826   6.315   8.745  10.721 -0.5004  0.1773 -0.5282
  136MOL0     C17827   6.204   8.827  10.758  0.4269 -0.7017  0.5012
  136MOL0     O17828   6.084   8.850  10.686 -0.9902 -0.0629 -0.0391
  136MOL0     C17829   6.051   8.742  10.606 -0.0260 -0.0618  0.3357
  136MOL0     C17830   5.908   8.752  10.554  0.4227 -0.1224 -0.1610
  136MOL0     C17831   5.809   8.701  10.650 -0.2050  0.8940  0.2594
  136MOL0     C17832   5.671   8.698  10.585 -0.1028  0.2730 -0.0865
  136MOL0     C17833   5.568   8.641  10.682 -0.1897 -0.2868 -1.2983
  136MOL0     C17834   5.435   8.629  10.600 -0.4360 -0.0636 -0.0855
  136MOL0     C17835   5.342   8.520  10.659  0.3195  0.0331 -0.4713
  136MOL0     C17836   5.341   8.511  10.814 -0.1757 -0.7128 -0.3114
  136MOL0     N17837   5.205   8.461  10.858  0.0869  0.5617 -0.3793
  136MOL0     C17838   5.196   8.376  10.964 -0.5724 -0.2906 -0.6800
  136MOL0     C17839   5.060   8.368  10.979 -0.5546  0.5500 -1.0591
  136MOL0     C17840   4.996   8.286  11.082 -0.5169  0.3164  0.0113
  136MOL0     C17841   4.872   8.346  11.148  0.4004 -1.1033 -0.8030
  136MOL0     C17842   4.807   8.251  11.242  0.9670  0.4034  0.0890
  136MOL0     C17843   4.788   8.101  11.201 -0.6525  0.0563  0.4673
  136MOL0     O17844   4.766   8.020  11.321 -0.2938 -0.9073  0.2893
  136MOL0     C17845   4.639   7.990  11.358  0.3565  0.0076  0.5318
  136MOL0     C17846   4.536   8.082  11.333  0.2235 -0.0635 -0.1225
  136MOL0     C17847   4.409   8.052  11.383  0.2714 -0.0757  0.0863
  136MOL0     C17848   4.379   7.935  11.442  0.8954  1.2088  0.1640
  136MOL0     C17849   4.235   7.894  11.472 -1.2065 -0.2617  0.9378
  136MOL0     O17850   4.144   7.986  11.441 -0.1538  0.3721 -0.0455
  136MOL0     C17851   4.015   7.951  11.418 -0.1124  0.2559  0.4462
  136MOL0     C17852   3.939   7.882  11.514 -0.1966  0.5882 -0.4112
  136MOL0     C17853   3.803   7.861  11.495 -0.1731  0.2835  0.5906
  136MOL0     C17854   3.738   7.916  11.387 -0.6664 -0.0120  0.4178
  136MOL0     O17855   3.606   7.910  11.363 -0.0377  0.8099 -0.7617
  136MOL0     C17856   3.514   7.855  11.451 -0.0792  0.4012 -0.4908
  136MOL0     C17857   3.381   7.864  11.386  0.6112 -0.4791 -0.2303
  136MOL0     C17858   3.273   7.812  11.468 -0.2456 -0.2657  0.2758
  136MOL0     C17859   3.129   7.820  11.398 -0.5592 -0.4559 -0.0466
  136MOL0     C17860   3.035   7.708  11.457 -0.2644  0.2659  0.2489
  136MOL0     C17861   2.989   7.744  11.594 -0.0333  0.6406 -0.9413
  136MOL0     C17862   2.907   7.633  11.663 -0.2586  0.9195  0.1399
  136MOL0     C17863   2.873   7.655  11.810  0.6399  0.3620  0.1706
  136MOL0    Cl17864   2.740   7.778  11.817  0.0661  0.1986 -0.1541
  136MOL0     C17865   3.807   7.985  11.295 -0.6895 -0.6005  0.6179
  136MOL0     C17866   3.946   8.009  11.313  0.4228  0.1593  0.3472
  136MOL0     O17867   4.222   7.769  11.471  0.4648 -0.2408 -0.3284
  136MOL0     C17868   4.487   7.847  11.471 -0.3927  0.1542  0.3225
  136MOL0     C17869   4.616   7.877  11.430  1.0532  0.5845 -0.4063
  136MOL0     N17870   4.998   8.436  10.874  0.3081  0.2404 -0.4290
  136MOL0     N17871   5.085   8.493  10.800 -0.4275  0.1192 -0.3740
  136MOL0     C17872   6.218   8.896  10.874  0.2334  0.0156  0.1691
  136MOL0     C17873   6.328   8.874  10.959  0.2386  0.1754  0.7701
  136MOL0     C17874   6.671   8.651  11.172 -0.2899 -0.3305 -0.3784
  136MOL0     C17875   6.676   8.576  11.284  0.6044 -0.0022 -1.1400
  136MOL0     C17876   6.791   8.571  11.366  0.0348  0.2188  0.3400
  136MOL0     C17877   6.914   8.647  11.340  0.6956  0.2378 -1.0164
  136MOL0     O17878   7.030   8.646  11.412 -0.0068 -0.0502 -0.0366
  136MOL0     C17879   7.037   8.570  11.532 -0.5233 -0.4970 -0.1801
  136MOL0     C17880   7.112   8.446  11.516 -0.0293  0.2032 -0.4041
  136MOL0     C17881   7.150   8.365  11.643 -0.3721 -0.7209  0.3290
  136MOL0     C17882   7.032   8.315  11.728 -0.0983 -0.3033  1.0120
  136MOL0     C17883   6.932   8.232  11.652  0.2098  0.3973 -0.2117
  136MOL0     C17884   6.862   8.172  11.575 -0.3475  1.1235  0.5680
  136MOL0     C17885   6.901   8.731  11.231 -0.6241 -0.4377 -0.0377
  136MOL0     C17886   6.785   8.733  11.148  0.9039 -0.6041 -0.1838
  136MOL0     H17887   6.511   8.657  10.782  0.8065  1.1692  0.3508
  136MOL0     H17888   6.299   8.692  10.628  0.0304 -0.9142 -0.0195
  136MOL0     H17889   6.049   8.648  10.662  2.5397 -1.7900 -2.1668
  136MOL0     H17890   6.117   8.742  10.519 -0.8637  5.0964 -0.6395
  136MOL0     H17891   5.907   8.702  10.457  1.7711  1.8708 -1.2882
  136MOL0     H17892   5.886   8.857  10.531  0.2082 -0.7892 -3.6296
  136MOL0     H17893   5.810   8.768  10.737 -1.5373  1.4616 -0.1369
  136MOL0     H17894   5.815   8.594  10.672 -1.9992  0.7073 -0.0484
  136MOL0     H17895   5.636   8.795  10.548 -0.9507  0.0271  0.0449
  136MOL0     H17896   5.692   8.634  10.498  2.3353  1.3747 -0.3874
  136MOL0     H17897   5.554   8.705  10.770 -0.8338 -0.8723 -0.9687
  136MOL0     H17898   5.600   8.548  10.729  0.6445  1.2145  1.2893
  136MOL0     H17899   5.453   8.601  10.495  0.6203 -1.2257  0.3860
  136MOL0     H17900   5.394   8.730  10.607  1.0097  0.4998  0.6728
  136MOL0     H17901   5.243   8.547  10.623 -0.1472  2.6067  2.2850
  136MOL0     H17902   5.373   8.427  10.611 -0.8595 -0.0445 -1.0898
  136MOL0     H17903   5.365   8.606  10.863  3.2054 -2.0320  0.9204
  136MOL0     H17904   5.418   8.437  10.842  0.4491  0.2609  0.6121
  136MOL0     H17905   5.270   8.319  11.018 -1.7236 -0.0663  1.2436
  136MOL0     H17906   5.066   8.260  11.162  0.9902 -0.9168 -1.6586
  136MOL0     H17907   4.963   8.198  11.027 -0.0037 -0.2246  0.5482
  136MOL0     H17908   4.794   8.378  11.079  0.4136  0.2677 -0.2127
  136MOL0     H17909   4.919   8.435  11.191  0.7584 -0.1324 -3.0497
  136MOL0     H17910   4.862   8.242  11.336  0.4695 -1.0531  0.2551
  136MOL0     H17911   4.707   8.289  11.264  0.8869 -0.3028  1.0121
  136MOL0     H17912   4.887   8.064  11.171  0.0282  2.5492 -0.5871
  136MOL0     H17913   4.715   8.092  11.120  0.7566  1.0976 -0.9833
  136MOL0     H17914   4.553   8.166  11.266  2.7057  0.6608  1.2697
  136MOL0     H17915   4.328   8.119  11.356  0.8973  0.9425  0.6733
  136MOL0     H17916   3.990   7.838  11.599 -1.9844  0.6289  0.7453
  136MOL0     H17917   3.751   7.792  11.560  0.2184  0.6449  1.2990
  136MOL0     H17918   3.520   7.898  11.551  1.3377 -0.9454  0.0368
  136MOL0     H17919   3.534   7.749  11.464 -0.4180  0.4204  0.2283
  136MOL0     H17920   3.386   7.813  11.289 -1.5460 -0.7015 -0.2798
  136MOL0     H17921   3.348   7.964  11.355  0.3432 -0.5627 -0.2178
  136MOL0     H17922   3.267   7.863  11.564  0.7293 -0.7378  0.6035
  136MOL0     H17923   3.304   7.710  11.494 -0.3100 -0.7345 -1.3417
  136MOL0     H17924   3.090   7.922  11.403 -0.4189 -0.3542 -0.9641
  136MOL0     H17925   3.134   7.798  11.291  1.5909 -0.0519 -0.0734
  136MOL0     H17926   3.087   7.613  11.454 -1.1312 -0.2378 -2.8258
  136MOL0     H17927   2.953   7.700  11.384 -0.0986 -2.3904  0.2645
  136MOL0     H17928   2.930   7.836  11.599 -2.4479 -0.8104 -1.1002
  136MOL0     H17929   3.073   7.763  11.661 -0.2863 -3.4858  0.8854
  136MOL0     H17930   2.816   7.624  11.603  0.2650  0.6260 -0.6311
  136MOL0     H17931   2.971   7.545  11.660 -3.3446 -1.5836  1.6979
  136MOL0     H17932   2.963   7.669  11.869  0.4140 -2.7381  1.4155
  136MOL0     H17933   2.824   7.568  11.855 -1.1936  1.8277  1.2061
  136MOL0     H17934   3.766   8.039  11.210  1.3013 -1.4126 -0.9616
  136MOL0     H17935   3.998   8.092  11.266 -1.0356  2.4588  2.5605
  136MOL0     H17936   4.460   7.765  11.538  1.1763  1.3767  2.5980
  136MOL0     H17937   4.702   7.819  11.462 -0.3870 -0.9882  0.8535
  136MOL0     H17938   6.149   8.966  10.922 -1.2742  1.5487 -3.8075
  136MOL0     H17939   6.340   8.942  11.043  1.0924 -0.3579  1.0940
  136MOL0     H17940   6.594   8.512  11.312  0.1244  1.5683  1.3173
  136MOL0     H17941   6.783   8.507  11.453 -0.3404  1.0060  0.8929
  136MOL0     H17942   6.946   8.550  11.589 -0.2080 -0.5991  0.3000
  136MOL0     H17943   7.093   8.623  11.610 -1.3245 -1.4505  1.0880
  136MOL0     H17944   7.076   8.383  11.435  0.1096 -0.7433  0.2562
  136MOL0     H17945   7.211   8.467  11.473  1.0265 -3.7151 -0.2260
  136MOL0     H17946   7.228   8.409  11.707  1.9942 -1.5814 -1.7853
  136MOL0     H17947   7.199   8.272  11.612  0.0765  0.0107 -1.2737
  136MOL0     H17948   7.075   8.270  11.817 -0.6257  1.1313  2.0214
  136MOL0     H17949   6.977   8.399  11.770  0.5349 -0.2931  1.8388
  136MOL0     H17950   6.803   8.131  11.495  0.5048  0.6038  0.1910
  136MOL0     H17951   6.983   8.791  11.192  0.7426 -2.2301 -0.0398
  136MOL0     H17952   6.783   8.792  11.057  3.8924  0.7608  0.5181
  137MOL0     O17953   0.694   7.378   3.870 -0.3388 -0.4034  0.0932
  137MOL0     C17954   0.708   7.256   3.885  0.7142 -0.0534  0.8134
  137MOL0     O17955   0.604   7.171   3.924 -0.8634  0.0138  0.3102
  137MOL0     C17956   0.474   7.213   3.941  0.0737  0.7828  0.0833
  137MOL0     C17957   0.375   7.116   3.925  0.0405 -0.1107  0.8270
  137MOL0     C17958   0.243   7.138   3.962  0.3401 -0.7465  0.2948
  137MOL0     C17959   0.205   7.256   4.034  0.6517  0.0081 -0.3171
  137MOL0     O17960   0.079   7.291   4.082 -0.1540  0.3941  0.0210
  137MOL0     C17961  -0.029   7.210   4.025  0.6971  0.6526  0.3395
  137MOL0     C17962  -0.161   7.261   4.073  0.8909 -0.0084 -0.3583
  137MOL0     C17963  -0.204   7.400   4.034 -0.2797  0.5464  0.2080
  137MOL0     C17964  -0.245   7.485   4.154 -0.2956  0.1064  0.3240
  137MOL0     C17965  -0.126   7.520   4.243 -0.0432  0.0451  0.7091
  137MOL0     C17966  -0.031   7.616   4.171  0.4012  0.4583 -0.1442
  137MOL0     C17967   0.056   7.708   4.254 -0.2917 -0.1468 -0.3869
  137MOL0     C17968   0.156   7.632   4.335 -0.1835 -0.7235 -0.5932
  137MOL0     N17969   0.223   7.700   4.435  0.1437 -0.7074 -0.4408
  137MOL0     C17970   0.353   7.737   4.453 -0.2547  0.8167 -0.3996
  137MOL0     C17971   0.371   7.756   4.587 -0.6344  0.2216  0.1437
  137MOL0     C17972   0.489   7.801   4.663 -0.1755  0.4023 -0.1621
  137MOL0     C17973   0.628   7.733   4.623  0.7732 -0.2698  0.2415
  137MOL0     C17974   0.640   7.585   4.617 -0.2187 -0.2964 -0.1346
  137MOL0     C17975   0.646   7.534   4.753 -0.0848 -0.1553  1.2128
  137MOL0     O17976   0.756   7.570   4.835 -0.3547 -0.1006  0.0320
  137MOL0     C17977   0.882   7.543   4.810  0.2760  0.2423  0.4298
  137MOL0     C17978   0.972   7.644   4.849 -0.2066  0.3608 -0.0279
  137MOL0     C17979   1.110   7.619   4.827  0.3022 -0.2265  0.3239
  137MOL0     C17980   1.162   7.509   4.767  0.0840 -0.3847  0.4156
  137MOL0     C17981   1.306   7.492   4.752 -0.3353 -0.0422 -0.1113
  137MOL0     O17982   1.344   7.374   4.700  0.7076  0.4060  0.5362
  137MOL0     C17983   1.475   7.344   4.698 -0.3013  0.5644 -0.2139
  137MOL0     C17984   1.557   7.335   4.814  0.7310  0.2381 -0.2015
  137MOL0     C17985   1.688   7.282   4.806  0.0253  0.4246 -0.3375
  137MOL0     C17986   1.735   7.242   4.681  0.2935  0.5626 -0.5986
  137MOL0     O17987   1.863   7.187   4.685 -0.2605 -0.3172  0.0972
  137MOL0     C17988   1.939   7.225   4.574  0.6890  0.5407 -0.1261
  137MOL0     C17989   2.086   7.217   4.603 -0.5550  0.1401 -0.1423
  137MOL0     C17990   2.156   7.305   4.498  0.3280 -0.2373  0.2910
  137MOL0     C17991   2.303   7.321   4.554  0.2636  0.0014  1.0334
  137MOL0     C17992   2.393   7.404   4.467  0.3027 -0.8442  0.3628
  137MOL0     C17993   2.542   7.380   4.497 -0.5406  0.2818 -0.2271
  137MOL0     C17994   2.587   7.405   4.645 -0.4337 -0.4296  0.1576
  137MOL0     C17995   2.739   7.398   4.664 -0.1197  0.2857 -0.3992
  137MOL0    Cl17996   2.808   7.545   4.585  0.2537  0.7250  0.9566
  137MOL0     C17997   1.660   7.266   4.561  0.1459  0.7259  0.2769
  137MOL0     C17998   1.530   7.312   4.581 -0.4555 -0.8410  0.4359
  137MOL0     O17999   1.390   7.578   4.789  0.0606  0.1665  0.2716
  137MOL0     C18000   1.064   7.423   4.713 -0.6943 -0.4140  0.3696
  137MOL0     C18001   0.927   7.437   4.738  0.5645  0.2745  0.2434
  137MOL0     N18002   0.248   7.743   4.653  0.4581  0.0822  0.1298
  137MOL0     N18003   0.162   7.714   4.560  0.1323  0.7923  0.3368
  137MOL0     C18004   0.311   7.355   4.055  0.0129  1.6167 -0.1906
  137MOL0     C18005   0.440   7.327   4.012 -0.0097  0.2858 -0.1893
  137MOL0     C18006   0.840   7.196   3.856  0.6306  0.3639  0.0389
  137MOL0     C18007   0.954   7.276   3.843 -0.7584 -0.7866  0.3501
  137MOL0     C18008   1.078   7.218   3.816 -0.2316  0.6586  0.0122
  137MOL0     C18009   1.085   7.084   3.803 -0.2849 -0.4048  0.1411
  137MOL0     O18010   1.210   7.028   3.800  0.9751  0.3851 -0.3162
  137MOL0     C18011   1.231   6.906   3.877  0.3411  0.4271 -0.8876
  137MOL0     C18012   1.377   6.893   3.927  1.0746  0.1723 -0.1404
  137MOL0     C18013   1.482   6.936   3.829  0.2104 -0.2019  0.3715
  137MOL0     C18014   1.617   6.899   3.877 -0.1220  0.3688  0.5658
  137MOL0     C18015   1.715   6.949   3.787  0.1731 -0.1821 -0.3353
  137MOL0     C18016   1.806   6.991   3.719 -0.4452 -0.5370 -0.5121
  137MOL0     C18017   0.974   7.000   3.806  0.1135 -0.5061 -0.5222
  137MOL0     C18018   0.849   7.061   3.836  0.0665 -0.5951  0.4448
  137MOL0     H18019   0.404   7.014   3.901 -0.3741 -0.2723  1.0187
  137MOL0     H18020   0.173   7.060   3.932  0.2730  0.1638 -2.2003
  137MOL0     H18021  -0.018   7.102   4.043  0.7544  0.5567 -0.2384
  137MOL0     H18022  -0.028   7.218   3.916 -3.5262  0.0237  0.0828
  137MOL0     H18023  -0.176   7.239   4.179  1.7257  2.1347  0.2526
  137MOL0     H18024  -0.232   7.194   4.024 -0.0282  1.6199 -1.3269
  137MOL0     H18025  -0.286   7.390   3.962  0.1364  0.3239 -0.2428
  137MOL0     H18026  -0.125   7.440   3.968  1.1846 -2.2753  0.1159
  137MOL0     H18027  -0.295   7.579   4.128  0.5445 -0.2569 -2.9962
  137MOL0     H18028  -0.321   7.432   4.212 -2.9722  1.8044 -1.4043
  137MOL0     H18029  -0.054   7.439   4.257  0.8259  0.9572  1.6712
  137MOL0     H18030  -0.158   7.553   4.342 -1.7157 -3.2473  1.4124
  137MOL0     H18031  -0.096   7.682   4.112 -1.3021  0.0243  1.1597
  137MOL0     H18032   0.023   7.551   4.101 -1.7569 -3.2046  1.2699
  137MOL0     H18033   0.119   7.775   4.194 -0.2441  0.5078  0.3743
  137MOL0     H18034  -0.015   7.776   4.302 -0.8996  0.4019 -1.9993
  137MOL0     H18035   0.228   7.580   4.271 -0.0473 -1.3411  0.0543
  137MOL0     H18036   0.110   7.546   4.385  0.6823 -0.7355  0.1977
  137MOL0     H18037   0.429   7.738   4.376  2.2152 -2.2608  1.7339
  137MOL0     H18038   0.475   7.791   4.771 -2.1990  0.6376 -0.3616
  137MOL0     H18039   0.507   7.907   4.641 -5.1171  1.4582 -0.2944
  137MOL0     H18040   0.704   7.783   4.684  1.1311 -0.4080 -0.0831
  137MOL0     H18041   0.643   7.760   4.518  0.0838 -0.9729 -0.0513
  137MOL0     H18042   0.564   7.535   4.556 -0.4191  1.2516 -1.1972
  137MOL0     H18043   0.740   7.564   4.578  0.0901  0.4898  0.2150
  137MOL0     H18044   0.638   7.424   4.754 -0.6605 -0.1506 -0.2660
  137MOL0     H18045   0.557   7.573   4.802 -0.7547 -1.1934  0.8523
  137MOL0     H18046   0.937   7.733   4.901 -0.7304  1.0663 -1.5414
  137MOL0     H18047   1.167   7.702   4.867 -2.2112  0.9356  1.7103
  137MOL0     H18048   1.505   7.358   4.907 -0.9188 -0.7914 -0.8197
  137MOL0     H18049   1.744   7.271   4.898  1.1809  3.5204 -0.5727
  137MOL0     H18050   1.908   7.329   4.560  0.6175  0.7055  1.1125
  137MOL0     H18051   1.913   7.168   4.484  1.9464  4.0407 -2.9394
  137MOL0     H18052   2.109   7.112   4.587 -2.3964 -0.1544 -1.1222
  137MOL0     H18053   2.124   7.238   4.704  1.9268 -1.0509 -0.7485
  137MOL0     H18054   2.105   7.402   4.501  1.5228  0.3873  1.6059
  137MOL0     H18055   2.145   7.265   4.397 -0.0218  0.5266  0.0202
  137MOL0     H18056   2.296   7.373   4.650  0.8885  1.1519  0.4679
  137MOL0     H18057   2.349   7.223   4.564 -0.5073 -0.6395 -1.1256
  137MOL0     H18058   2.361   7.508   4.483  1.4599 -0.4828  0.4775
  137MOL0     H18059   2.384   7.385   4.359 -1.3871  0.0635  0.3163
  137MOL0     H18060   2.590   7.457   4.436 -0.8196  0.1839 -0.5771
  137MOL0     H18061   2.575   7.281   4.464 -0.6730 -0.5336  1.9538
  137MOL0     H18062   2.556   7.508   4.663 -1.1209 -1.1023  3.7549
  137MOL0     H18063   2.530   7.350   4.721 -0.3881  3.2308  3.0943
  137MOL0     H18064   2.790   7.309   4.627  2.6480  1.0287  1.3567
  137MOL0     H18065   2.761   7.409   4.771 -1.0136  1.7248 -0.3378
  137MOL0     H18066   1.715   7.262   4.468  1.1970 -0.9836  0.9196
  137MOL0     H18067   1.459   7.314   4.499  2.7571  1.4381 -2.5669
  137MOL0     H18068   1.101   7.336   4.658  3.5776  0.0852  2.0868
  137MOL0     H18069   0.860   7.362   4.696  1.8583 -0.1985 -1.0798
  137MOL0     H18070   0.287   7.454   4.093  2.4863  2.2096 -0.0142
  137MOL0     H18071   0.519   7.401   4.026 -1.3598  2.0567 -1.5096
  137MOL0     H18072   0.934   7.382   3.839 -0.4436 -0.7651 -1.4787
  137MOL0     H18073   1.171   7.274   3.814  0.3137 -0.2366  0.0045
  137MOL0     H18074   1.204   6.827   3.806  1.8764  1.9971 -3.3666
  137MOL0     H18075   1.166   6.912   3.965 -0.8392  0.1277 -1.7212
  137MOL0     H18076   1.386   6.965   4.008 -2.0069 -0.4751  0.8920
  137MOL0     H18077   1.399   6.795   3.972 -3.6308  0.3902  3.3355
  137MOL0     H18078   1.481   7.043   3.809  0.4016 -0.1887  0.4372
  137MOL0     H18079   1.473   6.888   3.731  0.2999 -0.6176  0.5634
  137MOL0     H18080   1.636   6.958   3.967  2.2352 -0.2835  0.5442
  137MOL0     H18081   1.623   6.791   3.897 -1.8211  0.5447  2.3632
  137MOL0     H18082   1.890   7.043   3.677 -0.2878  1.5440  2.0986
  137MOL0     H18083   0.975   6.893   3.789 -0.9511 -0.9275  1.6372
  137MOL0     H18084   0.764   6.994   3.849 -1.4738  1.3305  0.6292
  138MOL0     O18085   2.165   5.460   1.389  0.1288 -0.3643 -0.3349
  138MOL0     C18086   2.198   5.438   1.276  0.0575  0.2023 -0.4012
  138MOL0     O18087   2.110   5.434   1.166 -0.1592 -0.6142 -0.1814
  138MOL0     C18088   1.979   5.477   1.196 -0.7874  0.6208  0.8269
  138MOL0     C18089   1.873   5.400   1.158  0.0810  0.3903  1.3314
  138MOL0     C18090   1.733   5.440   1.175  0.0743 -0.1661 -0.4065
  138MOL0     C18091   1.707   5.570   1.226  0.3908 -0.7746  0.9998
  138MOL0     O18092   1.576   5.614   1.258  0.0799  0.1032  0.4047
  138MOL0     C18093   1.459   5.555   1.203  0.0566  0.2058 -0.3865
  138MOL0     C18094   1.338   5.581   1.297 -0.1555  0.0736 -0.5756
  138MOL0     C18095   1.207   5.491   1.274  0.2892  0.7471 -1.1491
  138MOL0     C18096   1.096   5.553   1.364 -0.7685  0.9369  0.2718
  138MOL0     C18097   0.970   5.466   1.366 -0.2289 -0.5671 -0.4957
  138MOL0     C18098   0.908   5.439   1.233 -0.4821  0.2145  0.2863
  138MOL0     C18099   0.871   5.573   1.168  0.6635  0.6121  0.6992
  138MOL0     C18100   0.797   5.536   1.031  0.0536 -0.0216 -0.7194
  138MOL0     N18101   0.671   5.482   1.070  0.1781  0.7115  0.0690
  138MOL0     C18102   0.571   5.549   1.130  0.7255 -0.2176 -0.2821
  138MOL0     C18103   0.473   5.459   1.133 -0.0039  0.8537 -0.3422
  138MOL0     C18104   0.339   5.485   1.203 -0.0347  0.0305  0.6856
  138MOL0     C18105   0.246   5.531   1.109  0.4376  0.2571 -0.6561
  138MOL0     C18106   0.104   5.520   1.171  0.6501  0.5642 -0.7049
  138MOL0     C18107  -0.004   5.604   1.101  0.3401 -0.1765 -0.6151
  138MOL0     O18108  -0.121   5.575   1.171  0.1332  0.3155 -0.0172
  138MOL0     C18109  -0.246   5.627   1.118  0.2013  0.7807 -0.2688
  138MOL0     C18110  -0.267   5.712   1.010  0.1281  0.0880 -0.6281
  138MOL0     C18111  -0.394   5.749   0.969 -0.4501 -0.4771  0.0260
  138MOL0     C18112  -0.510   5.721   1.054 -0.1836 -0.3957 -0.1793
  138MOL0     C18113  -0.642   5.780   1.040  0.5630  0.0794  0.1407
  138MOL0     O18114  -0.711   5.789   1.161 -0.1014  0.0534  0.1016
  138MOL0     C18115  -0.848   5.832   1.152 -0.7082  0.9861 -0.5143
  138MOL0     C18116  -0.876   5.954   1.093  0.0016  0.1296 -0.1265
  138MOL0     C18117  -1.008   5.991   1.069  0.3842  0.3252  0.3223
  138MOL0     C18118  -1.113   5.901   1.111 -0.8577  0.7792 -0.1837
  138MOL0     O18119  -1.246   5.944   1.098 -0.5638 -0.1084  0.7074
  138MOL0     C18120  -1.308   5.900   0.978 -0.5377 -0.0311  1.0061
  138MOL0     C18121  -1.282   5.992   0.853  0.7893 -0.1511  0.3780
  138MOL0     C18122  -1.365   6.127   0.849 -0.8758  0.8874 -0.4399
  138MOL0     C18123  -1.296   6.209   0.745  0.6464  0.3716  0.4869
  138MOL0     C18124  -1.174   6.281   0.792 -0.0789  0.0577 -0.8058
  138MOL0     C18125  -1.077   6.311   0.678  0.7173  0.3946 -0.4032
  138MOL0     C18126  -0.955   6.384   0.732  0.3829 -0.2469  0.4461
  138MOL0     C18127  -0.864   6.291   0.808 -0.1018 -0.3703  0.0772
  138MOL0    Cl18128  -0.711   6.384   0.840  0.2153  0.2668 -0.2021
  138MOL0     C18129  -1.079   5.783   1.182 -0.5943 -0.2813  0.1510
  138MOL0     C18130  -0.946   5.749   1.195  0.4234  0.4594  0.5903
  138MOL0     O18131  -0.678   5.820   0.923  0.1392  0.4141 -0.7824
  138MOL0     C18132  -0.481   5.640   1.167  0.1723 -0.0817  0.6104
  138MOL0     C18133  -0.349   5.590   1.197  0.1068 -0.6338 -0.1347
  138MOL0     N18134   0.515   5.336   1.083 -0.5670  0.6857  0.1542
  138MOL0     N18135   0.638   5.349   1.042  0.6317  0.8905 -0.4720
  138MOL0     C18136   1.813   5.653   1.244  0.7445  0.6176 -0.0562
  138MOL0     C18137   1.949   5.607   1.242 -0.3884 -0.0934  0.5238
  138MOL0     C18138   2.344   5.435   1.262  0.4244 -0.3783 -0.2875
  138MOL0     C18139   2.430   5.415   1.379 -0.3464  0.4225 -0.2259
  138MOL0     C18140   2.566   5.411   1.354  0.1142  0.7560  0.1922
  138MOL0     C18141   2.625   5.438   1.232 -0.6269  0.3566 -1.1674
  138MOL0     O18142   2.764   5.446   1.202  0.6795  0.3522 -0.2892
  138MOL0     C18143   2.854   5.456   1.307  0.0618  0.3451  0.7865
  138MOL0     C18144   2.991   5.495   1.260 -0.1346 -0.2122 -0.4100
  138MOL0     C18145   3.050   5.394   1.167  0.0488  0.2510 -0.0225
  138MOL0     C18146   3.195   5.426   1.117 -1.0615 -0.0059 -0.5519
  138MOL0     C18147   3.283   5.471   1.224 -0.6142  0.1920 -0.2477
  138MOL0     C18148   3.348   5.511   1.317 -0.4199  0.0416  0.0124
  138MOL0     C18149   2.541   5.470   1.131 -0.1389  0.0665  0.2459
  138MOL0     C18150   2.401   5.468   1.137  0.3492  1.0122 -0.9406
  138MOL0     H18151   1.889   5.299   1.120 -0.9783  0.8298 -0.4039
  138MOL0     H18152   1.646   5.386   1.138 -1.0384  1.3987 -0.2010
  138MOL0     H18153   1.455   5.446   1.209 -6.2359 -0.0317 -1.8822
  138MOL0     H18154   1.439   5.599   1.105 -0.2940  2.7959  0.7817
  138MOL0     H18155   1.314   5.688   1.295  0.6328  0.4547  3.0487
  138MOL0     H18156   1.368   5.567   1.402  3.1346  2.2029 -1.0978
  138MOL0     H18157   1.221   5.386   1.302 -0.8026  0.7557 -0.5023
  138MOL0     H18158   1.165   5.478   1.174  0.5238  1.0218 -1.2846
  138MOL0     H18159   1.135   5.554   1.467  2.6833 -0.4670 -0.8414
  138MOL0     H18160   1.081   5.658   1.338  0.1841  0.7288 -1.2637
  138MOL0     H18161   0.891   5.498   1.434  0.3966  0.1543 -0.0999
  138MOL0     H18162   1.003   5.368   1.402 -0.9514 -1.0133 -1.0095
  138MOL0     H18163   0.816   5.381   1.244  0.9239 -2.3123 -0.4539
  138MOL0     H18164   0.977   5.374   1.178  0.0648 -0.9848  2.3105
  138MOL0     H18165   0.804   5.639   1.226  0.8062  1.8208 -0.4571
  138MOL0     H18166   0.960   5.628   1.135 -0.6825  1.0679 -2.5701
  138MOL0     H18167   0.852   5.462   0.973 -0.5124 -0.2372 -0.9874
  138MOL0     H18168   0.801   5.617   0.958  2.1588 -1.0971 -1.8764
  138MOL0     H18169   0.561   5.650   1.169  1.4855 -0.5312  0.7778
  138MOL0     H18170   0.349   5.561   1.282 -0.6529  3.3986 -2.2351
  138MOL0     H18171   0.306   5.393   1.252 -1.1221  0.0090 -0.0600
  138MOL0     H18172   0.263   5.470   1.020 -2.3259 -1.3717 -0.1805
  138MOL0     H18173   0.270   5.637   1.091  1.7838 -0.4156 -3.5496
  138MOL0     H18174   0.078   5.413   1.170  2.3224  0.1201 -0.4287
  138MOL0     H18175   0.113   5.547   1.277  1.1896 -0.5447 -0.4467
  138MOL0     H18176  -0.009   5.578   0.995  1.3434  1.3572 -1.0714
  138MOL0     H18177   0.021   5.711   1.105  1.1996 -0.3786 -0.3954
  138MOL0     H18178  -0.177   5.755   0.967 -0.4881  1.8964 -0.1618
  138MOL0     H18179  -0.410   5.808   0.879 -0.5627  0.3881  0.5997
  138MOL0     H18180  -0.792   6.019   1.075 -0.0575  0.2337 -0.0321
  138MOL0     H18181  -1.034   6.085   1.022 -4.9217 -1.4184 -0.9893
  138MOL0     H18182  -1.416   5.896   0.992 -0.5467 -3.3633  0.7006
  138MOL0     H18183  -1.270   5.799   0.965  1.4408  0.7777  0.0593
  138MOL0     H18184  -1.309   5.926   0.770 -0.0874 -0.1150  0.6192
  138MOL0     H18185  -1.175   6.008   0.845  0.6454  1.4611  1.2480
  138MOL0     H18186  -1.356   6.170   0.949 -0.8037  1.9153 -0.8741
  138MOL0     H18187  -1.469   6.107   0.820 -0.5369 -2.0677  0.0407
  138MOL0     H18188  -1.270   6.155   0.654 -0.2712 -0.0388  0.4643
  138MOL0     H18189  -1.363   6.285   0.705  0.3982  0.0805  0.3535
  138MOL0     H18190  -1.120   6.227   0.871  0.7752  3.7797  1.3534
  138MOL0     H18191  -1.205   6.375   0.837  0.6288 -0.1369  0.1144
  138MOL0     H18192  -1.128   6.372   0.602  2.4770  0.0682 -1.9149
  138MOL0     H18193  -1.052   6.219   0.623  0.2064  0.9132 -1.5423
  138MOL0     H18194  -0.904   6.424   0.644  1.9313  2.2256  2.3255
  138MOL0     H18195  -0.989   6.471   0.789 -0.7082 -0.3732  0.0183
  138MOL0     H18196  -0.832   6.207   0.745 -0.5792 -0.7246  0.2980
  138MOL0     H18197  -0.910   6.249   0.898  0.5929  0.0942  0.6564
  138MOL0     H18198  -1.155   5.716   1.220 -0.5359  0.6280  1.9816
  138MOL0     H18199  -0.926   5.651   1.236 -1.9508  0.0945  1.0047
  138MOL0     H18200  -0.565   5.605   1.226  0.1918 -1.3071 -0.0643
  138MOL0     H18201  -0.323   5.534   1.285 -0.2164  0.8350  0.9354
  138MOL0     H18202   1.798   5.754   1.282  3.7567  2.2541 -2.6590
  138MOL0     H18203   2.024   5.682   1.267 -1.2760  1.1879 -0.5066
  138MOL0     H18204   2.402   5.385   1.479  0.4903 -2.1921 -0.7055
  138MOL0     H18205   2.626   5.385   1.441 -0.0486 -0.7600 -0.1087
  138MOL0     H18206   2.864   5.366   1.368  1.7426 -1.0708 -1.4419
  138MOL0     H18207   2.823   5.544   1.365 -3.0313  0.6549 -1.1170
  138MOL0     H18208   2.996   5.588   1.204 -0.6587  0.7948  1.1571
  138MOL0     H18209   3.053   5.504   1.350  0.9285  2.4402 -1.3329
  138MOL0     H18210   2.979   5.372   1.086  0.7511 -0.3614 -0.4892
  138MOL0     H18211   3.057   5.295   1.213 -0.3105  0.5046  0.5839
  138MOL0     H18212   3.217   5.331   1.069 -1.5937 -0.1749 -0.4623
  138MOL0     H18213   3.202   5.504   1.040 -0.2175 -0.8691 -1.3764
  138MOL0     H18214   3.406   5.561   1.393 -0.2304 -1.6987  1.0601
  138MOL0     H18215   2.584   5.508   1.039 -2.3820 -3.8734 -2.7466
  138MOL0     H18216   2.338   5.503   1.056 -1.3419  2.5013  0.9178
  139MOL0     O18217   6.561   9.169   7.962 -0.6154  0.3606  0.1761
  139MOL0     C18218   6.584   9.122   7.851 -0.3316  0.5127 -0.1995
  139MOL0     O18219   6.503   9.036   7.771 -0.1739 -0.1577 -0.3498
  139MOL0     C18220   6.394   8.976   7.838 -0.6966  0.1874 -0.9867
  139MOL0     C18221   6.422   8.884   7.935 -0.1612  0.3277 -0.3930
  139MOL0     C18222   6.314   8.834   8.016  0.2608  0.7592 -0.3347
  139MOL0     C18223   6.184   8.866   7.993 -0.1418 -0.1131 -0.0687
  139MOL0     O18224   6.068   8.819   8.060 -0.0056 -0.6673  0.3360
  139MOL0     C18225   6.076   8.714   8.151  0.1973  0.3192  1.0202
  139MOL0     C18226   5.947   8.724   8.248  0.0216 -0.0259 -0.0900
  139MOL0     C18227   5.830   8.659   8.182  0.0885  0.0569  0.0853
  139MOL0     C18228   5.704   8.656   8.261  0.0780  0.1756  0.5235
  139MOL0     C18229   5.583   8.591   8.183 -0.7437  0.3074 -0.4056
  139MOL0     C18230   5.455   8.589   8.267  0.3756 -0.7235 -0.2899
  139MOL0     C18231   5.345   8.508   8.203 -0.0527  0.8360 -0.4119
  139MOL0     C18232   5.253   8.591   8.109  0.2904 -0.1397  0.3924
  139MOL0     N18233   5.121   8.526   8.109  0.3572 -1.2311 -0.9213
  139MOL0     C18234   5.024   8.516   8.207  0.6223 -0.7314 -0.2271
  139MOL0     C18235   4.922   8.430   8.167 -1.0272 -0.4163  0.1336
  139MOL0     C18236   4.789   8.404   8.237  0.3321  0.3762  0.2594
  139MOL0     C18237   4.699   8.307   8.158  0.2685  0.3829 -0.4568
  139MOL0     C18238   4.636   8.374   8.035  0.5106  0.8622  0.3123
  139MOL0     C18239   4.555   8.274   7.954  0.3114 -0.2242 -0.6795
  139MOL0     O18240   4.459   8.204   8.038  0.3935 -0.4814  0.2463
  139MOL0     C18241   4.333   8.223   7.991  0.0019 -0.0682 -0.2445
  139MOL0     C18242   4.266   8.107   7.939  0.2505  0.2077 -0.7523
  139MOL0     C18243   4.137   8.120   7.881 -0.9075  0.1063  0.5327
  139MOL0     C18244   4.076   8.245   7.879 -0.6955  0.0590 -0.0755
  139MOL0     C18245   3.930   8.257   7.843 -0.4661 -0.0369  0.5609
  139MOL0     O18246   3.850   8.144   7.832 -0.4015 -0.0416 -0.0464
  139MOL0     C18247   3.715   8.139   7.813  1.0981  0.5652 -0.1218
  139MOL0     C18248   3.652   8.022   7.855 -0.2203  0.4777  0.0649
  139MOL0     C18249   3.515   8.004   7.854 -0.2948  0.6178  0.6484
  139MOL0     C18250   3.435   8.100   7.806 -0.0432 -0.3476 -1.1072
  139MOL0     O18251   3.301   8.068   7.819  0.2196  0.8282 -0.4337
  139MOL0     C18252   3.197   8.167   7.822  0.2152 -0.1028 -0.1833
  139MOL0     C18253   3.069   8.140   7.754 -0.1980 -0.8753 -0.9053
  139MOL0     C18254   2.985   8.270   7.749 -1.0196  0.2875 -0.7336
  139MOL0     C18255   2.860   8.229   7.668  1.0709 -0.9995 -0.1866
  139MOL0     C18256   2.761   8.344   7.646  0.2497  0.4168 -0.4132
  139MOL0     C18257   2.608   8.312   7.617  1.2133  0.0060 -0.7737
  139MOL0     C18258   2.537   8.450   7.612  0.2687  0.0225 -0.0454
  139MOL0     C18259   2.388   8.432   7.580 -0.0634 -0.2795  0.4550
  139MOL0    Cl18260   2.310   8.586   7.626 -0.4463 -0.2011  0.0587
  139MOL0     C18261   3.494   8.216   7.763  0.0416  0.3350  0.7027
  139MOL0     C18262   3.632   8.236   7.767  0.0890  0.0749  0.7565
  139MOL0     O18263   3.887   8.371   7.846  0.0316  0.4757 -0.3240
  139MOL0     C18264   4.143   8.362   7.917  0.2032 -0.0193 -0.2457
  139MOL0     C18265   4.271   8.348   7.968 -0.8625  0.3474  0.9158
  139MOL0     N18266   4.972   8.382   8.046 -0.4976 -0.3751  0.7195
  139MOL0     N18267   5.080   8.440   8.014 -0.1319  0.0848  0.1518
  139MOL0     C18268   6.155   8.960   7.889 -0.3685  0.6303  0.0069
  139MOL0     C18269   6.259   9.007   7.806  0.8885  0.4159  0.0863
  139MOL0     C18270   6.724   9.155   7.812 -0.3027  0.0699 -0.0937
  139MOL0     C18271   6.791   9.065   7.723 -0.6415 -0.1015 -0.3873
  139MOL0     C18272   6.929   9.089   7.682  0.9453  0.1674  0.5712
  139MOL0     C18273   6.995   9.196   7.735 -0.2973  0.2809  0.8630
  139MOL0     O18274   7.127   9.229   7.703  0.1365 -0.1683 -0.0336
  139MOL0     C18275   7.217   9.143   7.631  1.2995  0.0751 -0.4574
  139MOL0     C18276   7.342   9.214   7.588 -0.0977  0.0788 -0.0928
  139MOL0     C18277   7.435   9.120   7.498 -1.2886 -0.5227  0.2836
  139MOL0     C18278   7.551   9.191   7.430  0.3701 -1.1394  0.4148
  139MOL0     C18279   7.631   9.104   7.335  0.3816 -0.7411 -0.5104
  139MOL0     C18280   7.689   9.029   7.256 -1.0154 -0.4337  0.0569
  139MOL0     C18281   6.925   9.284   7.813 -0.1331  0.0951  0.2416
  139MOL0     C18282   6.797   9.270   7.860 -0.6780  0.6049 -0.2981
  139MOL0     H18283   6.523   8.869   7.969 -0.8236 -0.4671  1.3320
  139MOL0     H18284   6.340   8.760   8.090 -0.4131  1.0210  0.1708
  139MOL0     H18285   6.164   8.719   8.216  0.7937 -3.1753  0.6587
  139MOL0     H18286   6.089   8.616   8.105 -0.0754  0.8127 -0.1525
  139MOL0     H18287   5.911   8.826   8.266  1.5793  0.8275 -1.5232
  139MOL0     H18288   5.964   8.660   8.335 -0.1592 -0.7013 -0.5412
  139MOL0     H18289   5.859   8.555   8.165 -1.3696 -0.3037 -0.3654
  139MOL0     H18290   5.810   8.700   8.083  1.7933 -1.5702 -1.0111
  139MOL0     H18291   5.722   8.618   8.362 -1.9779 -0.1055  0.8168
  139MOL0     H18292   5.687   8.761   8.286  0.7713  0.1614  1.0827
  139MOL0     H18293   5.606   8.494   8.138 -1.8994 -0.7779  1.2369
  139MOL0     H18294   5.563   8.657   8.097 -0.7981  0.1041 -0.5479
  139MOL0     H18295   5.427   8.692   8.291 -1.6783 -0.9243 -1.5789
  139MOL0     H18296   5.481   8.543   8.362  2.1279 -0.9462 -0.8437
  139MOL0     H18297   5.387   8.424   8.147  4.5801  0.9776  2.2613
  139MOL0     H18298   5.283   8.468   8.283  0.7781  0.9951  0.3270
  139MOL0     H18299   5.289   8.596   8.005 -0.0582  1.8572  0.3333
  139MOL0     H18300   5.250   8.689   8.156  0.0492 -0.0650  0.2248
  139MOL0     H18301   5.020   8.572   8.300  1.3116  0.8608 -1.1084
  139MOL0     H18302   4.741   8.500   8.255  0.2919  0.2661  0.7383
  139MOL0     H18303   4.796   8.350   8.331 -1.6146 -0.5744 -0.0805
  139MOL0     H18304   4.625   8.280   8.234 -0.0362  1.0966 -0.4890
  139MOL0     H18305   4.750   8.215   8.129 -2.9579 -0.9234 -2.6170
  139MOL0     H18306   4.584   8.467   8.061  0.9071  1.1220  0.1893
  139MOL0     H18307   4.714   8.404   7.965  0.6937  0.5756  0.3927
  139MOL0     H18308   4.619   8.193   7.915  1.2678  0.2284 -0.0820
  139MOL0     H18309   4.517   8.320   7.862  1.3910 -0.1877 -1.1226
  139MOL0     H18310   4.299   8.006   7.961 -0.4163  0.6300  2.9453
  139MOL0     H18311   4.079   8.037   7.841 -1.2207  1.4549 -2.0569
  139MOL0     H18312   3.727   7.955   7.896 -0.2384  0.7134  0.4834
  139MOL0     H18313   3.481   7.909   7.895 -0.8256  0.2326 -0.6161
  139MOL0     H18314   3.236   8.257   7.774  3.2036 -1.7993 -1.2036
  139MOL0     H18315   3.170   8.188   7.926  1.6338 -1.5746  0.5293
  139MOL0     H18316   3.020   8.061   7.811 -0.6386 -0.5235 -0.7863
  139MOL0     H18317   3.087   8.094   7.656  1.0132 -2.4976  0.0255
  139MOL0     H18318   3.025   8.348   7.683 -0.9822  1.0441  0.1637
  139MOL0     H18319   2.959   8.309   7.848 -1.9368 -1.0554 -0.4228
  139MOL0     H18320   2.881   8.194   7.567  3.8436  1.8271 -0.7678
  139MOL0     H18321   2.808   8.152   7.725  1.5314 -0.7887  0.5358
  139MOL0     H18322   2.799   8.398   7.559  1.2398  0.8791  0.2890
  139MOL0     H18323   2.763   8.406   7.736 -2.0583  1.3642 -0.9359
  139MOL0     H18324   2.561   8.257   7.699 -0.1097  0.9331 -0.8918
  139MOL0     H18325   2.593   8.251   7.528  0.0488 -3.8005  1.7776
  139MOL0     H18326   2.555   8.497   7.709  1.5748 -0.3120 -0.1107
  139MOL0     H18327   2.583   8.508   7.531 -0.7700 -1.0325 -1.4513
  139MOL0     H18328   2.347   8.348   7.636 -1.5502 -0.2892 -0.5755
  139MOL0     H18329   2.368   8.415   7.474  0.0544  1.9859  0.0207
  139MOL0     H18330   3.439   8.303   7.727  0.0338  1.2049  2.6950
  139MOL0     H18331   3.679   8.328   7.733 -0.1386 -0.1573 -0.2149
  139MOL0     H18332   4.089   8.456   7.914  0.1520 -0.0745 -1.6581
  139MOL0     H18333   4.320   8.443   7.987  0.0259 -0.0986  0.9020
  139MOL0     H18334   6.051   8.985   7.873  0.4634  2.4515 -3.2625
  139MOL0     H18335   6.242   9.083   7.731 -0.1489  0.5761  0.4683
  139MOL0     H18336   6.739   8.982   7.677 -1.6152 -0.0727  0.6264
  139MOL0     H18337   6.969   9.030   7.600 -0.6576  3.0289 -2.5429
  139MOL0     H18338   7.172   9.117   7.535 -1.0099  0.8707  0.3380
  139MOL0     H18339   7.251   9.056   7.687  1.0173 -2.3533 -3.8016
  139MOL0     H18340   7.322   9.313   7.546 -1.5057  0.7483  1.9988
  139MOL0     H18341   7.401   9.238   7.677 -1.1495  1.3976  0.2810
  139MOL0     H18342   7.360   9.078   7.431 -1.9268  0.2450  0.4985
  139MOL0     H18343   7.483   9.041   7.556  0.5545  0.1199 -0.2990
  139MOL0     H18344   7.515   9.282   7.382 -1.6843 -1.8336  0.5181
  139MOL0     H18345   7.618   9.222   7.511 -1.9221  0.3448  1.8752
  139MOL0     H18346   7.743   8.967   7.187 -0.4835  0.0111  0.0643
  139MOL0     H18347   6.985   9.371   7.837  0.2832  0.0487 -0.5835
  139MOL0     H18348   6.757   9.346   7.927 -1.6101 -0.0010 -0.1486
  140MOL0     O18349   2.294   0.040   9.113 -0.0377 -0.7927  0.4559
  140MOL0     C18350   2.368  -0.055   9.125  0.5612  0.5519  0.8286
  140MOL0     O18351   2.359  -0.146   9.228  0.3694 -0.3191  0.0192
  140MOL0     C18352   2.264  -0.129   9.320  0.7082  0.5932  0.8010
  140MOL0     C18353   2.129  -0.113   9.291  0.8207  0.1099  0.0527
  140MOL0     C18354   2.031  -0.111   9.385  0.6183  0.6111  0.9378
  140MOL0     C18355   2.066  -0.110   9.521  0.4879  0.3476  0.4191
  140MOL0     O18356   1.979  -0.103   9.625 -0.4189  0.6883  0.5172
  140MOL0     C18357   1.835  -0.121   9.611  0.2525  0.6094  0.0282
  140MOL0     C18358   1.765  -0.155   9.739 -0.5202  0.1163  0.6402
  140MOL0     C18359   1.615  -0.175   9.713  0.0741 -0.7033 -0.2237
  140MOL0     C18360   1.536  -0.039   9.729  0.7790  0.7785  0.8077
  140MOL0     C18361   1.403  -0.043   9.648 -0.3069  0.1278  0.8097
  140MOL0     C18362   1.304  -0.159   9.684 -0.7462 -0.6626 -0.0300
  140MOL0     C18363   1.159  -0.119   9.650  0.2881  0.0834  0.5496
  140MOL0     C18364   1.065  -0.233   9.695 -0.7563 -0.1243 -0.1831
  140MOL0     N18365   0.926  -0.198   9.681  0.7736  0.3918 -0.6379
  140MOL0     C18366   0.835  -0.225   9.788 -0.0046  0.6324  0.1770
  140MOL0     C18367   0.718  -0.195   9.725  0.5155 -0.2522  0.3842
  140MOL0     C18368   0.581  -0.215   9.782 -0.1306  0.6639 -0.6801
  140MOL0     C18369   0.527  -0.357   9.776 -0.2269  0.1463 -0.5923
  140MOL0     C18370   0.514  -0.408   9.636  0.4298 -0.4689  0.1359
  140MOL0     C18371   0.403  -0.345   9.551  0.7142  0.0153  0.0488
  140MOL0     O18372   0.281  -0.390   9.608  1.0762 -0.3403 -0.4159
  140MOL0     C18373   0.168  -0.327   9.572  0.1090  0.0005 -0.3842
  140MOL0     C18374   0.058  -0.366   9.647 -0.2178 -0.1037  0.4241
  140MOL0     C18375  -0.070  -0.320   9.611 -0.7781 -0.3503 -0.4442
  140MOL0     C18376  -0.090  -0.247   9.491 -0.9370 -0.6244 -0.2517
  140MOL0     C18377  -0.230  -0.195   9.452 -0.2738 -0.1595  0.4862
  140MOL0     O18378  -0.327  -0.199   9.535  0.5184 -0.0324 -0.0492
  140MOL0     C18379  -0.462  -0.175   9.505 -0.4411 -0.1697 -0.4960
  140MOL0     C18380  -0.513  -0.079   9.424  0.5063 -0.4397  0.3707
  140MOL0     C18381  -0.653  -0.073   9.409  0.4314 -0.2523 -0.4843
  140MOL0     C18382  -0.732  -0.173   9.468  0.6223  0.2069  0.2608
  140MOL0     O18383  -0.862  -0.157   9.443  0.6129 -1.0959 -0.1817
  140MOL0     C18384  -0.962  -0.230   9.516 -0.0283  0.4251  0.0577
  140MOL0     C18385  -1.095  -0.154   9.515  0.4240 -0.2784  0.7741
  140MOL0     C18386  -1.200  -0.231   9.591 -0.1691  0.5241 -0.1080
  140MOL0     C18387  -1.333  -0.162   9.585  0.6796 -0.4447 -0.7005
  140MOL0     C18388  -1.454  -0.226   9.663  0.1715  0.0806  0.4856
  140MOL0     C18389  -1.422  -0.255   9.810 -0.2832 -0.0922  0.6149
  140MOL0     C18390  -1.536  -0.311   9.894  0.3784 -0.4299  0.3913
  140MOL0     C18391  -1.508  -0.330  10.038 -0.5692 -0.8823  0.3542
  140MOL0    Cl18392  -1.650  -0.394  10.119  0.3605  0.4400 -0.4196
  140MOL0     C18393  -0.674  -0.270   9.551 -0.2390 -0.3611  0.2732
  140MOL0     C18394  -0.537  -0.270   9.566 -0.1375 -1.0706 -0.0733
  140MOL0     O18395  -0.242  -0.145   9.337  0.4046  0.0006 -0.2483
  140MOL0     C18396   0.021  -0.202   9.423  0.1684  0.4116 -0.3015
  140MOL0     C18397   0.150  -0.235   9.460 -0.5261  0.5051 -0.6044
  140MOL0     N18398   0.735  -0.160   9.592  0.1562 -0.3919 -0.5253
  140MOL0     N18399   0.862  -0.162   9.569  0.2775  0.8428  0.1241
  140MOL0     C18400   2.207  -0.123   9.553 -0.4250 -0.2369 -0.0265
  140MOL0     C18401   2.296  -0.135   9.448 -0.5050  0.0207 -0.1186
  140MOL0     C18402   2.472  -0.062   9.022 -0.6091  0.4850 -0.0479
  140MOL0     C18403   2.572  -0.156   9.045  0.0107  0.5901  0.1600
  140MOL0     C18404   2.684  -0.160   8.951  0.7746 -0.4584  0.2222
  140MOL0     C18405   2.700  -0.073   8.835  0.2956 -0.1475 -0.1869
  140MOL0     O18406   2.787  -0.064   8.731 -0.5295 -0.2638 -0.1804
  140MOL0     C18407   2.898  -0.147   8.721 -0.4772 -0.0751  0.1875
  140MOL0     C18408   2.874  -0.287   8.677  0.2190  0.0702 -0.6706
  140MOL0     C18409   2.803  -0.285   8.533 -0.3810 -0.6126 -0.2664
  140MOL0     C18410   2.751  -0.424   8.473  0.2160  0.7362 -0.0900
  140MOL0     C18411   2.712  -0.412   8.334  0.2977 -0.1050 -0.3700
  140MOL0     C18412   2.676  -0.405   8.221 -1.0098  0.6805 -0.7923
  140MOL0     C18413   2.592   0.018   8.821 -0.6757 -0.0814 -0.1281
  140MOL0     C18414   2.483   0.022   8.912  0.1882  0.0563 -0.0825
  140MOL0     H18415   2.108  -0.122   9.185  1.6672  1.3119 -0.2419
  140MOL0     H18416   1.930  -0.101   9.347  0.9021 -0.8273 -0.3069
  140MOL0     H18417   1.813  -0.197   9.535 -1.8749  1.5277 -0.3585
  140MOL0     H18418   1.805  -0.024   9.570 -0.3034  0.8978  1.0739
  140MOL0     H18419   1.803  -0.087   9.817 -0.1321  0.7281 -0.0737
  140MOL0     H18420   1.801  -0.253   9.773  0.7009  0.9417  1.8607
  140MOL0     H18421   1.570  -0.242   9.787 -0.2391  1.1238  1.3393
  140MOL0     H18422   1.607  -0.227   9.617 -0.5751 -2.0236  0.5210
  140MOL0     H18423   1.507  -0.014   9.831 -0.9092  2.4867 -0.0194
  140MOL0     H18424   1.589   0.042   9.678 -0.4758 -0.3718 -2.6534
  140MOL0     H18425   1.415  -0.047   9.539 -1.1035 -1.2276  0.7505
  140MOL0     H18426   1.346   0.048   9.670 -0.9587  0.1112 -0.6909
  140MOL0     H18427   1.299  -0.175   9.792 -1.0814  1.2570  0.2687
  140MOL0     H18428   1.345  -0.251   9.642 -0.0242 -0.3309 -0.0627
  140MOL0     H18429   1.126  -0.029   9.702  0.9216 -0.1824  1.4276
  140MOL0     H18430   1.156  -0.106   9.541  2.4681  2.8892  0.7211
  140MOL0     H18431   1.078  -0.255   9.802  0.4238 -3.3439 -0.8684
  140MOL0     H18432   1.094  -0.319   9.634  2.7831  1.5390 -1.1182
  140MOL0     H18433   0.855  -0.240   9.893  2.5611  3.4869  0.2120
  140MOL0     H18434   0.509  -0.156   9.722 -1.2906  0.0860  0.1170
  140MOL0     H18435   0.571  -0.182   9.886 -1.0746 -2.3891  0.2982
  140MOL0     H18436   0.429  -0.357   9.825  1.1858  0.2472  2.4717
  140MOL0     H18437   0.586  -0.425   9.838 -1.8388  0.2073  1.1004
  140MOL0     H18438   0.605  -0.407   9.575 -0.5670 -0.4848 -1.3920
  140MOL0     H18439   0.482  -0.512   9.651 -1.3207 -0.0946 -0.8315
  140MOL0     H18440   0.398  -0.372   9.445  1.7280 -0.9161  0.2200
  140MOL0     H18441   0.421  -0.237   9.553 -0.0629  0.1876 -1.1679
  140MOL0     H18442   0.070  -0.438   9.727  0.2219  1.2015  1.5596
  140MOL0     H18443  -0.158  -0.345   9.669  0.3085  0.2221  1.5637
  140MOL0     H18444  -0.451  -0.007   9.371  0.3863 -0.7188 -0.1505
  140MOL0     H18445  -0.709  -0.002   9.349 -2.8085 -1.3800  0.9438
  140MOL0     H18446  -0.928  -0.260   9.615 -0.9925 -0.9232  0.0210
  140MOL0     H18447  -0.972  -0.321   9.456  0.1606  1.6965 -1.9880
  140MOL0     H18448  -1.131  -0.158   9.411 -0.6264 -2.2613  1.1532
  140MOL0     H18449  -1.079  -0.052   9.550 -2.1612  0.2277  0.6550
  140MOL0     H18450  -1.156  -0.256   9.688 -1.1851 -0.7577  0.0517
  140MOL0     H18451  -1.214  -0.324   9.535 -1.4857  0.1383  0.8013
  140MOL0     H18452  -1.322  -0.063   9.631 -2.2691 -0.2061 -0.3158
  140MOL0     H18453  -1.355  -0.160   9.477 -0.6797  1.0950 -0.4348
  140MOL0     H18454  -1.471  -0.316   9.602 -1.6748  0.1399  0.8740
  140MOL0     H18455  -1.539  -0.158   9.662 -0.5370 -0.7715 -1.0297
  140MOL0     H18456  -1.379  -0.167   9.860 -0.8506 -1.0844  2.9715
  140MOL0     H18457  -1.345  -0.332   9.818 -0.2102 -0.0047  0.7457
  140MOL0     H18458  -1.619  -0.242   9.876 -1.0737 -1.7585  1.7297
  140MOL0     H18459  -1.574  -0.402   9.848 -1.2227  0.6591 -0.5622
  140MOL0     H18460  -1.481  -0.239  10.092 -0.0789 -0.1642 -1.0438
  140MOL0     H18461  -1.416  -0.391  10.034 -0.1819 -0.2416 -1.7358
  140MOL0     H18462  -0.734  -0.350   9.593 -0.8793 -1.2039 -2.0854
  140MOL0     H18463  -0.503  -0.349   9.632  1.4612 -1.5549 -1.4152
  140MOL0     H18464  -0.003  -0.128   9.346 -3.1096 -0.7799 -0.5718
  140MOL0     H18465   0.236  -0.200   9.403 -0.6733 -0.7445 -1.6566
  140MOL0     H18466   2.243  -0.131   9.655  0.5808  0.2173 -0.3314
  140MOL0     H18467   2.397  -0.157   9.480  0.1490  0.8448 -1.5026
  140MOL0     H18468   2.571  -0.224   9.129 -2.4822 -0.4910 -0.6748
  140MOL0     H18469   2.770  -0.221   8.977  1.5334 -0.1354 -1.4229
  140MOL0     H18470   2.947  -0.148   8.818 -1.4794 -0.1631  0.7081
  140MOL0     H18471   2.955  -0.102   8.639 -1.7175 -0.2000 -0.7684
  140MOL0     H18472   2.960  -0.354   8.680 -0.1998 -0.4915  3.0477
  140MOL0     H18473   2.797  -0.326   8.743 -2.2381  2.5815 -1.8350
  140MOL0     H18474   2.862  -0.230   8.460 -0.9370  0.4939  0.0773
  140MOL0     H18475   2.714  -0.221   8.542  1.1876  1.7698 -0.7012
  140MOL0     H18476   2.829  -0.499   8.493 -1.9409 -1.1928  1.5777
  140MOL0     H18477   2.665  -0.458   8.532  1.6585  0.6645  2.1086
  140MOL0     H18478   2.625  -0.399   8.127 -0.7102  1.1987 -0.9283
  140MOL0     H18479   2.592   0.078   8.731 -2.7921  1.2898  0.6913
  140MOL0     H18480   2.408   0.100   8.905 -0.2989 -0.1477  2.0892
  141MOL0     O18481   4.878   5.765   5.155 -0.1012  0.3866  0.3980
  141MOL0     C18482   4.777   5.692   5.159 -0.4682 -0.1174 -0.1370
  141MOL0     O18483   4.780   5.562   5.117 -0.3115  0.7063  0.9551
  141MOL0     C18484   4.898   5.499   5.080 -0.0490  0.3237 -0.1224
  141MOL0     C18485   4.903   5.408   4.972  0.5302 -0.4780  0.1879
  141MOL0     C18486   5.023   5.356   4.919  0.2285 -0.2777  0.5184
  141MOL0     C18487   5.145   5.388   4.983 -0.7921  0.4545  0.3954
  141MOL0     O18488   5.273   5.329   4.958 -0.1917 -0.2110 -0.2596
  141MOL0     C18489   5.272   5.225   4.856 -0.8494  0.7971 -0.6627
  141MOL0     C18490   5.408   5.164   4.831  0.0440  0.3267  1.1470
  141MOL0     C18491   5.467   5.109   4.955  0.5320 -0.1162 -0.0977
  141MOL0     C18492   5.614   5.069   4.912 -0.6496  1.3779 -0.3208
  141MOL0     C18493   5.684   4.978   5.016  0.6046 -1.1265 -0.0598
  141MOL0     C18494   5.817   4.909   4.967  0.3326  0.7014 -0.0181
  141MOL0     C18495   5.798   4.818   4.840 -0.2584 -0.0016 -0.1191
  141MOL0     C18496   5.674   4.720   4.833 -0.5392  0.7233  0.2254
  141MOL0     N18497   5.704   4.614   4.937  0.0415 -0.4350 -0.4674
  141MOL0     C18498   5.674   4.611   5.076 -0.6496 -0.7086  0.2297
  141MOL0     C18499   5.716   4.487   5.124  0.4277  0.2413 -0.8280
  141MOL0     C18500   5.693   4.441   5.271  0.1812  0.2133  0.1584
  141MOL0     C18501   5.559   4.373   5.268  0.5151  0.6561 -0.3319
  141MOL0     C18502   5.518   4.321   5.407 -0.3025  0.2589 -1.2653
  141MOL0     C18503   5.379   4.267   5.406 -0.3012  0.0564 -0.3168
  141MOL0     O18504   5.288   4.377   5.390 -0.7230 -0.0710 -0.8554
  141MOL0     C18505   5.156   4.342   5.395 -0.5602  0.1839  0.3058
  141MOL0     C18506   5.080   4.437   5.329  0.3294 -1.0718  0.0510
  141MOL0     C18507   4.942   4.427   5.320  0.1868  0.0134 -0.1822
  141MOL0     C18508   4.880   4.323   5.391  0.5999  0.1665  0.1667
  141MOL0     C18509   4.723   4.319   5.392 -0.7513  0.2032  0.4433
  141MOL0     O18510   4.667   4.419   5.315 -0.0483  0.8956  0.5278
  141MOL0     C18511   4.540   4.418   5.272  0.4272 -0.0096  0.5431
  141MOL0     C18512   4.489   4.546   5.248  0.0941 -0.3071  0.2704
  141MOL0     C18513   4.363   4.573   5.190 -0.1214 -0.4839  0.3658
  141MOL0     C18514   4.289   4.467   5.140 -1.1504  0.5172  0.1601
  141MOL0     O18515   4.171   4.485   5.069  0.2777  0.9573  0.2473
  141MOL0     C18516   4.123   4.620   5.049 -0.5227  0.1559 -0.0057
  141MOL0     C18517   4.000   4.637   4.962 -0.4825 -0.7914 -0.0006
  141MOL0     C18518   3.888   4.548   5.009  0.2412 -0.5930 -0.1060
  141MOL0     C18519   3.782   4.551   4.896  0.4863  0.2133 -0.4901
  141MOL0     C18520   3.657   4.486   4.951  0.0427  0.3699  0.1402
  141MOL0     C18521   3.534   4.491   4.856 -0.1617 -0.2494 -0.0302
  141MOL0     C18522   3.412   4.442   4.928  0.0053 -0.6489 -0.1743
  141MOL0     C18523   3.266   4.473   4.867 -0.7556  0.3539  0.6763
  141MOL0    Cl18524   3.145   4.359   4.940  0.3035 -0.3389 -0.2028
  141MOL0     C18525   4.329   4.331   5.173  0.0457 -0.2341  0.6556
  141MOL0     C18526   4.456   4.309   5.235 -0.3013  0.6175  0.2055
  141MOL0     O18527   4.658   4.228   5.447 -0.5722  0.0657 -0.1263
  141MOL0     C18528   4.951   4.234   5.462  0.0615  0.7589  0.0283
  141MOL0     C18529   5.088   4.243   5.470  0.2827 -0.3683  0.2850
  141MOL0     N18530   5.780   4.420   5.018 -0.2576 -0.4133 -0.2997
  141MOL0     N18531   5.779   4.502   4.911 -0.6866  0.5543 -0.3160
  141MOL0     C18532   5.139   5.459   5.101  0.1594 -0.6073 -0.4821
  141MOL0     C18533   5.024   5.520   5.155  1.2965  0.1270  0.0700
  141MOL0     C18534   4.654   5.760   5.186  0.2762  0.5298 -0.5082
  141MOL0     C18535   4.645   5.873   5.273 -0.3571 -0.3105 -0.5640
  141MOL0     C18536   4.511   5.931   5.308 -0.2838  0.1163 -0.1666
  141MOL0     C18537   4.398   5.879   5.242  0.2979  0.2560 -0.1325
  141MOL0     O18538   4.281   5.934   5.276 -0.0718 -0.5828 -0.3626
  141MOL0     C18539   4.157   5.882   5.232  0.8983  0.3073  1.0126
  141MOL0     C18540   4.058   5.984   5.278  0.1280  0.9109 -0.3907
  141MOL0     C18541   3.916   5.956   5.219 -0.2205  0.2154  0.6785
  141MOL0     C18542   3.846   5.831   5.275  0.3481  0.8385  0.3582
  141MOL0     C18543   3.728   5.809   5.196  0.7538 -0.1530  0.3803
  141MOL0     C18544   3.627   5.793   5.133  0.4179  0.4185  0.5825
  141MOL0     C18545   4.415   5.767   5.162  0.2012  0.1910  0.8307
  141MOL0     C18546   4.537   5.713   5.127 -1.1753 -0.3480  0.4011
  141MOL0     H18547   4.808   5.384   4.926  1.0681 -3.1578  0.3544
  141MOL0     H18548   5.031   5.294   4.830  2.2039  1.7934 -0.8508
  141MOL0     H18549   5.231   5.269   4.765 -1.4522  3.3455  0.7442
  141MOL0     H18550   5.207   5.148   4.897  0.1041 -0.1396 -0.8579
  141MOL0     H18551   5.467   5.250   4.797 -1.3186  0.2018 -1.8077
  141MOL0     H18552   5.410   5.090   4.750  0.2468 -0.0984  1.5337
  141MOL0     H18553   5.401   5.024   4.975  1.6802 -1.9465 -3.3012
  141MOL0     H18554   5.473   5.171   5.045 -0.0593  0.5795 -0.5306
  141MOL0     H18555   5.607   5.014   4.818  1.4827 -1.0174  0.7966
  141MOL0     H18556   5.676   5.158   4.899  1.7244 -0.4257 -2.1319
  141MOL0     H18557   5.607   4.905   5.044  0.3220  0.6952  4.9481
  141MOL0     H18558   5.707   5.028   5.110  2.1616 -0.0571 -0.9729
  141MOL0     H18559   5.841   4.840   5.048  1.4120  0.0822 -0.8398
  141MOL0     H18560   5.894   4.985   4.950 -1.1794  1.9189 -1.9649
  141MOL0     H18561   5.788   4.884   4.754  2.7010 -2.3090 -2.4717
  141MOL0     H18562   5.891   4.768   4.810  0.0987  0.7642 -0.3086
  141MOL0     H18563   5.669   4.673   4.735 -2.5718  1.4555 -0.0613
  141MOL0     H18564   5.575   4.766   4.846 -2.4068 -2.4094 -1.6516
  141MOL0     H18565   5.617   4.692   5.120 -1.6697 -0.2015 -1.9013
  141MOL0     H18566   5.702   4.520   5.347 -5.1339 -0.3015  1.6952
  141MOL0     H18567   5.779   4.375   5.286  1.7941  1.9325 -0.9512
  141MOL0     H18568   5.561   4.289   5.198 -1.0414 -1.3104  1.8080
  141MOL0     H18569   5.499   4.461   5.246  2.0873  1.4088 -1.8465
  141MOL0     H18570   5.583   4.234   5.425  0.1311  0.3872 -2.1392
  141MOL0     H18571   5.522   4.391   5.490 -3.6309 -2.2966  1.3111
  141MOL0     H18572   5.370   4.218   5.503 -2.2791 -0.7289 -0.8586
  141MOL0     H18573   5.367   4.191   5.329  0.9468 -1.1937  0.6672
  141MOL0     H18574   5.131   4.523   5.287  1.6907 -0.3725  2.8941
  141MOL0     H18575   4.880   4.507   5.279  0.6894  0.2611 -0.4635
  141MOL0     H18576   4.555   4.630   5.268 -0.1344  0.3964 -1.7138
  141MOL0     H18577   4.338   4.678   5.184  1.7762  0.0368  0.9166
  141MOL0     H18578   4.208   4.678   5.013  0.9969 -1.2675  1.1353
  141MOL0     H18579   4.097   4.668   5.144  2.5892  0.0458  1.0093
  141MOL0     H18580   4.023   4.621   4.856 -0.8257 -1.3025 -0.0024
  141MOL0     H18581   3.979   4.744   4.970 -0.5628 -0.7802 -0.3444
  141MOL0     H18582   3.846   4.583   5.103 -1.4872  1.3493 -1.5079
  141MOL0     H18583   3.926   4.446   5.010 -0.0271 -0.7098 -0.7918
  141MOL0     H18584   3.751   4.653   4.870 -0.9271 -0.6670 -2.5980
  141MOL0     H18585   3.816   4.498   4.806  0.2358  2.8891 -2.2723
  141MOL0     H18586   3.631   4.537   5.045  0.7584  3.2068 -1.0852
  141MOL0     H18587   3.682   4.382   4.975 -0.1785  0.8440  2.7753
  141MOL0     H18588   3.530   4.438   4.761 -1.9639 -0.3473  0.0772
  141MOL0     H18589   3.530   4.595   4.823 -0.8967 -0.9966 -2.4436
  141MOL0     H18590   3.419   4.333   4.921  0.3933 -0.7165  0.9971
  141MOL0     H18591   3.402   4.480   5.030 -3.7853 -0.9026 -0.3013
  141MOL0     H18592   3.271   4.462   4.759  1.0258  0.8741  0.6683
  141MOL0     H18593   3.233   4.575   4.890 -2.3477 -0.3578  1.7403
  141MOL0     H18594   4.258   4.257   5.137 -2.3086  2.5506 -0.9325
  141MOL0     H18595   4.497   4.208   5.238 -1.1853  0.2160 -0.5506
  141MOL0     H18596   4.912   4.153   5.523 -1.0976  2.0676  1.0970
  141MOL0     H18597   5.138   4.173   5.536  1.0342 -0.0347  0.0804
  141MOL0     H18598   5.230   5.488   5.152 -1.1462  4.5765 -0.5531
  141MOL0     H18599   5.017   5.559   5.256 -0.2353 -2.3064  0.9967
  141MOL0     H18600   4.732   5.919   5.319  1.1453 -3.4328  0.0026
  141MOL0     H18601   4.487   6.010   5.378 -1.6482  1.8774 -2.4679
  141MOL0     H18602   4.132   5.785   5.277 -2.4333  0.9154  0.7561
  141MOL0     H18603   4.150   5.896   5.124 -0.8119 -0.4607  0.9840
  141MOL0     H18604   4.045   5.983   5.387  0.4337  0.9165 -0.3511
  141MOL0     H18605   4.096   6.079   5.240  1.9580 -0.0490 -1.0871
  141MOL0     H18606   3.926   5.942   5.111  0.7727  2.4545  0.4089
  141MOL0     H18607   3.862   6.051   5.229  1.5128  1.1972  1.0463
  141MOL0     H18608   3.902   5.738   5.264  0.2429  0.9892 -1.8337
  141MOL0     H18609   3.817   5.855   5.378  1.3679  1.7263  0.4572
  141MOL0     H18610   3.546   5.776   5.065  2.1442 -1.9365 -1.0673
  141MOL0     H18611   4.339   5.700   5.121  2.3506 -3.3765  2.2114
  141MOL0     H18612   4.530   5.635   5.052  1.3762  0.3620 -0.6715
  142MOL0     O18613   7.987   3.958   7.057  0.0486  0.5637 -0.3127
  142MOL0     C18614   8.015   3.859   7.130 -0.4883  0.5318  0.0914
  142MOL0     O18615   7.927   3.776   7.184  0.0863 -0.3748 -0.1298
  142MOL0     C18616   7.793   3.803   7.169  0.3376 -0.0246 -0.5061
  142MOL0     C18617   7.714   3.719   7.080 -0.4553  0.3402 -0.5734
  142MOL0     C18618   7.584   3.754   7.057 -0.1614  0.4948 -0.3945
  142MOL0     C18619   7.522   3.862   7.117  0.3249 -0.0857  0.2507
  142MOL0     O18620   7.389   3.887   7.091  0.2550  0.4249 -0.0323
  142MOL0     C18621   7.305   3.875   7.205  0.8443  0.5443 -0.2589
  142MOL0     C18622   7.167   3.831   7.156 -0.3651  0.1064  0.4111
  142MOL0     C18623   7.156   3.697   7.065 -0.8740 -0.6732 -0.8984
  142MOL0     C18624   7.046   3.704   6.952 -1.0524  0.7635 -0.0291
  142MOL0     C18625   7.053   3.579   6.849 -0.8323 -0.6819  0.1491
  142MOL0     C18626   7.012   3.454   6.915  0.2290  0.1334  0.1927
  142MOL0     C18627   7.007   3.334   6.814 -0.3526  0.1453 -0.8493
  142MOL0     C18628   6.868   3.339   6.743 -0.0437  0.9433 -0.2705
  142MOL0     N18629   6.866   3.235   6.640 -0.1974  0.5665  0.0855
  142MOL0     C18630   6.938   3.228   6.522  0.1055 -1.0442  0.7533
  142MOL0     C18631   6.904   3.108   6.471 -1.1093 -0.6986 -0.4961
  142MOL0     C18632   6.948   3.062   6.335 -0.8765  0.1154  0.6196
  142MOL0     C18633   7.101   3.041   6.358  0.1083  0.1198  0.4094
  142MOL0     C18634   7.154   2.953   6.241 -0.0123 -0.3846 -0.1360
  142MOL0     C18635   7.311   2.935   6.233  0.5243  0.3476  0.2016
  142MOL0     O18636   7.353   2.860   6.346 -0.2749  0.1550 -0.1752
  142MOL0     C18637   7.476   2.868   6.396  0.2638 -0.7002  0.0933
  142MOL0     C18638   7.500   2.778   6.500  1.4525  0.0677  0.1777
  142MOL0     C18639   7.626   2.759   6.551 -0.4883 -0.7521 -0.3418
  142MOL0     C18640   7.735   2.835   6.509  0.8553 -0.4801 -0.0889
  142MOL0     C18641   7.858   2.818   6.572 -1.0777 -0.2831  0.8684
  142MOL0     O18642   7.957   2.900   6.521  0.5084 -0.1819 -0.4539
  142MOL0     C18643   8.081   2.906   6.586 -0.5890  0.3226  0.7985
  142MOL0     C18644   8.206   2.882   6.523  0.1014 -0.3605  1.2253
  142MOL0     C18645   8.325   2.886   6.587  0.3478 -0.3305 -0.2279
  142MOL0     C18646   8.331   2.916   6.726  0.5151  0.1788  0.0279
  142MOL0     O18647   8.445   2.928   6.802 -0.3726  1.1192 -0.6255
  142MOL0     C18648   8.580   2.910   6.752 -0.7106 -1.1462 -0.2268
  142MOL0     C18649   8.680   2.885   6.861 -0.7172  0.1520 -0.6362
  142MOL0     C18650   8.629   2.757   6.941 -0.3253  0.1305 -0.9784
  142MOL0     C18651   8.735   2.719   7.049  0.2478  0.1440  0.0784
  142MOL0     C18652   8.693   2.605   7.139  0.2327 -0.1511  0.7605
  142MOL0     C18653   8.615   2.649   7.271  0.7996  1.2854  0.8199
  142MOL0     C18654   8.613   2.525   7.371 -0.3859 -0.4298 -0.1882
  142MOL0     C18655   8.563   2.395   7.310 -0.5464  1.0405 -0.0532
  142MOL0    Cl18656   8.400   2.404   7.240  0.2228 -0.1538  0.3655
  142MOL0     C18657   8.208   2.951   6.793 -0.4679  0.1309 -0.6385
  142MOL0     C18658   8.091   2.945   6.724  0.0252 -0.2139 -0.8056
  142MOL0     O18659   7.887   2.731   6.653 -0.1822 -0.0949  0.6425
  142MOL0     C18660   7.711   2.923   6.404 -0.4550 -0.4065  0.7109
  142MOL0     C18661   7.580   2.941   6.347  0.2032 -0.3306 -0.1818
  142MOL0     N18662   6.825   3.041   6.554 -0.7380  0.4212 -0.2127
  142MOL0     N18663   6.805   3.119   6.658 -0.2715  0.5955 -0.3148
  142MOL0     C18664   7.595   3.942   7.208  0.3607  0.2803  0.1838
  142MOL0     C18665   7.731   3.904   7.239  0.2008 -0.2318 -0.1167
  142MOL0     C18666   8.160   3.802   7.142 -0.2493 -0.6536 -0.7735
  142MOL0     C18667   8.274   3.884   7.126 -0.1855 -0.1014  0.3794
  142MOL0     C18668   8.407   3.831   7.141 -0.1960  0.7997  0.1250
  142MOL0     C18669   8.431   3.694   7.168  0.6329 -0.2486  0.2733
  142MOL0     O18670   8.564   3.653   7.168  0.1162  0.8455  0.1376
  142MOL0     C18671   8.600   3.613   7.032 -0.1931  0.0365  0.2358
  142MOL0     C18672   8.587   3.463   7.032  0.2383 -0.1970 -0.7325
  142MOL0     C18673   8.673   3.401   6.920 -0.3933 -0.0836 -0.1411
  142MOL0     C18674   8.653   3.249   6.920  0.5143  0.3545 -0.0286
  142MOL0     C18675   8.687   3.194   7.055  0.3767  0.1414  0.2572
  142MOL0     C18676   8.690   3.133   7.157 -0.9874 -0.1809  0.0835
  142MOL0     C18677   8.317   3.608   7.193  1.6515  0.0161  0.0852
  142MOL0     C18678   8.183   3.662   7.180 -0.6508 -0.3171  0.2533
  142MOL0     H18679   7.757   3.634   7.027 -1.0278 -0.9471  0.9479
  142MOL0     H18680   7.520   3.702   6.986 -1.5318  0.0393  1.0938
  142MOL0     H18681   7.293   3.967   7.263  4.4861  0.1802  1.3582
  142MOL0     H18682   7.346   3.806   7.279  0.3419  0.4308 -0.0868
  142MOL0     H18683   7.142   3.918   7.094  1.3155  0.8422  0.6909
  142MOL0     H18684   7.095   3.824   7.238 -0.0332  0.3837  0.7292
  142MOL0     H18685   7.134   3.622   7.141  1.0890 -0.3604  0.0431
  142MOL0     H18686   7.253   3.661   7.029 -0.0758 -0.3025  0.7491
  142MOL0     H18687   6.945   3.706   6.993 -0.5063 -0.9190  1.5511
  142MOL0     H18688   7.063   3.788   6.885  4.8192 -1.2381 -1.6220
  142MOL0     H18689   7.156   3.578   6.811 -0.4261 -1.1169  1.2430
  142MOL0     H18690   6.990   3.604   6.762 -0.9185 -0.2872  0.3248
  142MOL0     H18691   6.920   3.471   6.971 -0.3092 -1.9970  0.0440
  142MOL0     H18692   7.096   3.427   6.979 -0.9244 -0.4399  1.5180
  142MOL0     H18693   7.088   3.340   6.742 -2.2133 -0.0910 -3.0745
  142MOL0     H18694   7.036   3.240   6.862  1.6973 -0.1227 -2.5045
  142MOL0     H18695   6.856   3.433   6.689  4.2194  0.2176 -2.9618
  142MOL0     H18696   6.789   3.321   6.817  1.3643 -1.1320  0.8480
  142MOL0     H18697   7.003   3.301   6.475  0.1332 -0.7793  1.1988
  142MOL0     H18698   6.932   3.138   6.258 -0.3002  0.6554  1.0195
  142MOL0     H18699   6.897   2.971   6.302 -1.1582 -0.1839  1.8202
  142MOL0     H18700   7.125   2.991   6.453  0.1825  0.3204  0.4955
  142MOL0     H18701   7.162   3.131   6.349  2.5798 -1.4241  0.6875
  142MOL0     H18702   7.110   2.853   6.246  1.5324 -1.1004 -0.3589
  142MOL0     H18703   7.123   2.995   6.144 -0.2299 -1.8896 -0.7415
  142MOL0     H18704   7.360   3.033   6.227 -0.5861  0.8500 -1.0593
  142MOL0     H18705   7.331   2.887   6.137 -0.2879  0.9745 -0.2894
  142MOL0     H18706   7.420   2.707   6.519  1.0860  0.7553  1.3043
  142MOL0     H18707   7.643   2.678   6.622  0.8649 -0.9443 -0.8481
  142MOL0     H18708   8.197   2.871   6.415 -2.9021 -1.0388  1.4495
  142MOL0     H18709   8.413   2.864   6.526 -0.2896 -3.3433 -0.2559
  142MOL0     H18710   8.620   2.994   6.695  1.0972 -1.7084  0.1448
  142MOL0     H18711   8.592   2.826   6.682  0.6641 -1.3395  0.2144
  142MOL0     H18712   8.691   2.976   6.920 -2.8311  1.8644 -2.6817
  142MOL0     H18713   8.778   2.875   6.814  0.8633 -1.7571  2.6788
  142MOL0     H18714   8.626   2.676   6.867  2.3430 -3.2414  2.2246
  142MOL0     H18715   8.536   2.776   6.995 -0.0701 -1.5978  0.1438
  142MOL0     H18716   8.822   2.688   6.990  1.4723  1.7165  0.9497
  142MOL0     H18717   8.769   2.806   7.106  4.2491 -2.1765  1.6503
  142MOL0     H18718   8.778   2.539   7.158 -0.1734 -0.5893  1.0790
  142MOL0     H18719   8.626   2.543   7.079  0.3445 -1.4937  1.9735
  142MOL0     H18720   8.516   2.672   7.231 -0.2408 -1.4418  1.6149
  142MOL0     H18721   8.657   2.731   7.329  3.3383 -0.2254  1.2735
  142MOL0     H18722   8.708   2.513   7.423 -0.7710  0.3768  0.7340
  142MOL0     H18723   8.535   2.544   7.445  0.2928 -1.0140  0.6967
  142MOL0     H18724   8.574   2.310   7.378  0.5975  2.1157  1.1535
  142MOL0     H18725   8.627   2.361   7.227 -0.0729 -1.9529  1.3989
  142MOL0     H18726   8.208   2.984   6.896 -0.8242 -0.3820 -0.4712
  142MOL0     H18727   7.994   2.959   6.771  0.2238  2.0746 -0.9932
  142MOL0     H18728   7.792   2.981   6.361  0.0258 -0.2441  1.8127
  142MOL0     H18729   7.576   3.010   6.263  0.2557  0.4328  0.4292
  142MOL0     H18730   7.551   4.022   7.268 -0.0021 -0.5610  1.0608
  142MOL0     H18731   7.784   3.971   7.306  1.5866  1.8927 -3.1152
  142MOL0     H18732   8.259   3.991   7.115 -2.3004 -0.1883  1.8211
  142MOL0     H18733   8.496   3.891   7.123  0.3182 -0.0572 -0.2315
  142MOL0     H18734   8.700   3.650   7.007 -1.3359  1.8801 -1.9614
  142MOL0     H18735   8.535   3.658   6.957 -0.1296 -0.4070 -0.0865
  142MOL0     H18736   8.616   3.423   7.129  0.7887  0.5532 -0.5701
  142MOL0     H18737   8.485   3.431   7.013  0.1576 -1.2637  1.2190
  142MOL0     H18738   8.773   3.433   6.950  0.0342 -0.8684 -0.7004
  142MOL0     H18739   8.648   3.430   6.818  0.1081  0.9452  0.0136
  142MOL0     H18740   8.549   3.231   6.892 -0.0711 -0.2312  2.3143
  142MOL0     H18741   8.719   3.204   6.844  1.1597 -2.0920  1.8383
  142MOL0     H18742   8.696   3.068   7.242 -4.1045  0.0753  0.6443
  142MOL0     H18743   8.311   3.501   7.206 -1.0245 -0.2412 -2.1048
  142MOL0     H18744   8.090   3.607   7.187 -3.0193  3.5140  2.0315
  143MOL0     O18745   2.747   5.120   9.747 -0.3928  1.2071 -0.3322
  143MOL0     C18746   2.800   5.188   9.833 -0.1961 -0.5638  0.6505
  143MOL0     O18747   2.843   5.311   9.811 -0.5666 -0.1197  0.0268
  143MOL0     C18748   2.800   5.392   9.710 -0.7309  0.1290 -0.4812
  143MOL0     C18749   2.892   5.486   9.666  0.4567 -0.2957 -0.4149
  143MOL0     C18750   2.865   5.576   9.563 -0.2956 -0.6393  0.1434
  143MOL0     C18751   2.745   5.561   9.496  0.1600 -0.4852  0.2762
  143MOL0     O18752   2.712   5.652   9.394  0.2643  0.7076  0.0285
  143MOL0     C18753   2.785   5.772   9.354  0.1564 -0.2268 -0.3979
  143MOL0     C18754   2.736   5.835   9.225 -0.1685  0.2054 -0.2064
  143MOL0     C18755   2.593   5.880   9.220  0.0983  0.5660  0.0231
  143MOL0     C18756   2.591   6.033   9.219  0.6041 -0.3257  0.2821
  143MOL0     C18757   2.490   6.094   9.311  0.3604  0.0780  0.8051
  143MOL0     C18758   2.349   6.084   9.248 -0.3793  0.1910 -0.8376
  143MOL0     C18759   2.257   6.171   9.327  1.2011  0.1703 -0.2986
  143MOL0     C18760   2.222   6.125   9.468  0.5223 -0.2408  1.1431
  143MOL0     N18761   2.199   5.980   9.487 -0.3045  0.7719  0.1689
  143MOL0     C18762   2.293   5.876   9.514 -1.1489 -0.1168 -0.0138
  143MOL0     C18763   2.232   5.755   9.502 -0.6003  0.1182  0.2465
  143MOL0     C18764   2.287   5.616   9.515  0.3201  0.4759  0.3070
  143MOL0     C18765   2.198   5.530   9.613 -0.3947 -0.0173 -0.1320
  143MOL0     C18766   2.213   5.378   9.581 -0.8584 -0.6508 -0.0625
  143MOL0     C18767   2.124   5.340   9.453 -0.3814  0.0071 -0.5627
  143MOL0     O18768   2.103   5.197   9.457  0.4488  0.3610  0.6415
  143MOL0     C18769   1.974   5.158   9.498  0.2007  0.0824 -0.8747
  143MOL0     C18770   1.900   5.210   9.605  0.8083 -0.0295  0.0032
  143MOL0     C18771   1.775   5.148   9.643 -0.3705  0.4650 -0.6688
  143MOL0     C18772   1.718   5.039   9.574 -0.4174  0.1058  1.1212
  143MOL0     C18773   1.589   4.981   9.613 -0.8591  0.2532 -0.1591
  143MOL0     O18774   1.545   4.869   9.538 -0.1355 -0.0980  0.2851
  143MOL0     C18775   1.422   4.815   9.572  0.3714 -0.9350 -0.0515
  143MOL0     C18776   1.303   4.868   9.518 -0.5696 -0.2491 -0.1156
  143MOL0     C18777   1.182   4.819   9.554 -0.0022  0.0478 -0.5807
  143MOL0     C18778   1.178   4.714   9.649 -0.4054  0.0467 -0.9767
  143MOL0     O18779   1.047   4.668   9.680 -0.2435 -0.4397 -0.0653
  143MOL0     C18780   1.020   4.629   9.815  0.6417  0.3833 -0.5917
  143MOL0     C18781   0.872   4.570   9.819  0.4458 -0.9894 -0.2860
  143MOL0     C18782   0.889   4.437   9.746  0.3929 -0.2670  0.7157
  143MOL0     C18783   0.762   4.360   9.711 -0.2855  0.2398 -0.6252
  143MOL0     C18784   0.647   4.353   9.820 -0.3276 -0.4144 -0.8517
  143MOL0     C18785   0.521   4.287   9.759  0.2150  0.1665 -0.7289
  143MOL0     C18786   0.547   4.139   9.718 -0.3861 -0.4735 -0.4392
  143MOL0     C18787   0.423   4.054   9.698 -0.1962  0.9748  0.5167
  143MOL0    Cl18788   0.348   4.071   9.543 -0.3365 -0.1314  0.2292
  143MOL0     C18789   1.291   4.652   9.694  0.2584 -0.0627 -0.5643
  143MOL0     C18790   1.411   4.715   9.666 -0.3577 -0.0768  0.1427
  143MOL0     O18791   1.527   5.040   9.700 -0.1413  0.4872  0.5291
  143MOL0     C18792   1.795   4.990   9.466  1.1125 -0.4509 -0.0943
  143MOL0     C18793   1.910   5.059   9.426  0.2150  0.6319 -0.2909
  143MOL0     N18794   2.101   5.788   9.464  0.4032  0.4349 -0.0704
  143MOL0     N18795   2.084   5.913   9.459  0.3390  0.1009  1.3863
  143MOL0     C18796   2.654   5.456   9.526 -0.4327  0.1803 -0.2183
  143MOL0     C18797   2.687   5.374   9.632  0.0621 -0.9380  0.1309
  143MOL0     C18798   2.842   5.129   9.965 -0.1965  0.3085  0.1050
  143MOL0     C18799   2.891   5.219  10.063  0.2890  0.8095 -0.6336
  143MOL0     C18800   2.935   5.180  10.188  0.2964 -0.5722 -0.2266
  143MOL0     C18801   2.921   5.046  10.223  0.8942  0.4323  0.7173
  143MOL0     O18802   2.973   5.010  10.343 -0.2252  0.1357 -0.6631
  143MOL0     C18803   3.009   4.873  10.366  0.8126 -0.1123 -0.3217
  143MOL0     C18804   2.891   4.808  10.440  0.4416 -0.8618 -0.7787
  143MOL0     C18805   2.854   4.885  10.569  0.3322  0.8126 -0.2539
  143MOL0     C18806   2.964   4.920  10.663  0.2501  0.4735 -0.6179
  143MOL0     C18807   3.025   4.807  10.739 -0.4960 -0.4769  0.6118
  143MOL0     C18808   3.088   4.743  10.832  0.0560 -0.3925  0.8850
  143MOL0     C18809   2.857   4.951  10.134 -0.2107  0.3967  0.2893
  143MOL0     C18810   2.815   4.989  10.002 -0.9395 -0.2608  0.2322
  143MOL0     H18811   2.982   5.494   9.727 -0.5084 -2.3485  1.3915
  143MOL0     H18812   2.935   5.655   9.538  2.7944 -2.8773  1.1511
  143MOL0     H18813   2.888   5.753   9.321 -0.1134  2.4138 -3.2211
  143MOL0     H18814   2.783   5.852   9.429 -0.1013  0.0105 -0.6554
  143MOL0     H18815   2.759   5.776   9.135 -1.3973  1.2423 -1.2554
  143MOL0     H18816   2.801   5.921   9.206 -1.7187  1.8344  1.4985
  143MOL0     H18817   2.545   5.835   9.307  0.1475 -1.2631 -0.8596
  143MOL0     H18818   2.550   5.839   9.129  1.1895 -3.1076  0.9930
  143MOL0     H18819   2.684   6.080   9.254 -1.3389  4.9757 -0.6856
  143MOL0     H18820   2.577   6.063   9.115  2.9994  0.3191  0.0787
  143MOL0     H18821   2.521   6.197   9.328  2.1424 -0.3370  0.3322
  143MOL0     H18822   2.494   6.041   9.407  1.9657 -3.9605 -1.2486
  143MOL0     H18823   2.312   5.981   9.248 -0.9623  0.3904 -0.2154
  143MOL0     H18824   2.359   6.115   9.143  3.0924 -1.1125 -1.0229
  143MOL0     H18825   2.299   6.272   9.326  3.9003 -0.7635  2.1697
  143MOL0     H18826   2.160   6.185   9.279  0.7340  0.1711  0.6303
  143MOL0     H18827   2.137   6.180   9.510  1.1445  2.2591 -0.6196
  143MOL0     H18828   2.311   6.140   9.531 -0.0905 -0.5105  2.0978
  143MOL0     H18829   2.399   5.892   9.533 -1.5368  1.8157  0.7030
  143MOL0     H18830   2.391   5.627   9.546 -0.0382  0.4957  1.5713
  143MOL0     H18831   2.271   5.571   9.417  4.5118  1.0837 -0.8333
  143MOL0     H18832   2.092   5.555   9.603 -0.1147  1.9153  1.1362
  143MOL0     H18833   2.217   5.561   9.716 -0.3257  0.7465 -0.3684
  143MOL0     H18834   2.315   5.342   9.564 -1.6374 -1.9258 -2.6411
  143MOL0     H18835   2.179   5.329   9.672  0.7499  0.9121  1.4807
  143MOL0     H18836   2.184   5.371   9.367  2.3159  2.5937  2.0124
  143MOL0     H18837   2.033   5.399   9.439  0.7841  1.5534 -1.9709
  143MOL0     H18838   1.937   5.300   9.654  2.7740 -2.1673  2.8015
  143MOL0     H18839   1.715   5.185   9.726 -3.1075 -0.0513 -2.2851
  143MOL0     H18840   1.321   4.951   9.450  0.1718 -0.3702 -0.0833
  143MOL0     H18841   1.095   4.867   9.510 -0.4572 -0.8419 -0.6629
  143MOL0     H18842   1.026   4.718   9.879 -0.5454  0.0835 -0.0333
  143MOL0     H18843   1.092   4.553   9.846  1.9464  0.3748 -3.3412
  143MOL0     H18844   0.806   4.641   9.771  1.5562  0.2497 -0.0403
  143MOL0     H18845   0.841   4.558   9.924 -0.4267 -0.1608 -0.4358
  143MOL0     H18846   0.966   4.373   9.790  0.7675 -0.4321 -0.1605
  143MOL0     H18847   0.937   4.452   9.649  0.4823  0.8143  0.9153
  143MOL0     H18848   0.720   4.408   9.622  3.5478  1.7191 -1.8500
  143MOL0     H18849   0.778   4.257   9.680 -0.1176  0.7523 -2.3788
  143MOL0     H18850   0.617   4.452   9.855  1.8449  0.3421 -1.0039
  143MOL0     H18851   0.678   4.297   9.910 -1.1667  1.1571  0.4730
  143MOL0     H18852   0.496   4.351   9.675 -0.5322  0.1180 -0.5475
  143MOL0     H18853   0.441   4.287   9.834  1.6719  0.0778  0.9035
  143MOL0     H18854   0.596   4.149   9.621  0.9963 -3.1568 -0.1237
  143MOL0     H18855   0.623   4.103   9.789  0.5829  0.5631 -0.9252
  143MOL0     H18856   0.357   4.060   9.785 -1.7017  3.0137 -0.6743
  143MOL0     H18857   0.458   3.951   9.688 -0.1912  1.1729 -2.1033
  143MOL0     H18858   1.278   4.574   9.767 -2.0093  1.8256  1.1809
  143MOL0     H18859   1.507   4.678   9.701  0.1325  0.2458 -0.8453
  143MOL0     H18860   1.753   4.904   9.415  1.5486 -0.1396 -1.0077
  143MOL0     H18861   1.959   5.017   9.339 -0.4372 -0.7828 -0.0205
  143MOL0     H18862   2.564   5.445   9.467 -0.8914 -3.6505  0.9363
  143MOL0     H18863   2.607   5.307   9.660 -0.3697 -1.5565 -2.3468
  143MOL0     H18864   2.883   5.325  10.040  2.8600  1.1723 -0.1426
  143MOL0     H18865   2.965   5.247  10.268  0.3704 -0.9349  0.0495
  143MOL0     H18866   3.104   4.862  10.420  0.2988  0.0612  0.6336
  143MOL0     H18867   3.024   4.828  10.267  0.5172  2.7187 -1.7372
  143MOL0     H18868   2.807   4.797  10.371  0.0763 -2.2289 -0.1577
  143MOL0     H18869   2.920   4.707  10.469  2.1199 -0.3862 -0.6821
  143MOL0     H18870   2.764   4.837  10.608  0.0503  0.8262 -0.8626
  143MOL0     H18871   2.805   4.974  10.529 -3.5167 -1.2964 -0.7419
  143MOL0     H18872   3.039   4.979  10.609  0.7161 -1.1785 -1.8771
  143MOL0     H18873   2.920   4.987  10.737  0.5850  0.6714 -0.5942
  143MOL0     H18874   3.155   4.699  10.903 -0.2280 -1.5377  0.4514
  143MOL0     H18875   2.857   4.845  10.158  1.6774  0.1437 -0.6917
  143MOL0     H18876   2.777   4.927   9.922  0.1641  1.7240 -1.9495
  144MOL0     O18877   7.755  10.021   9.550 -0.5244 -0.8676 -0.2298
  144MOL0     C18878   7.879   9.991   9.536  0.7472  0.7188 -0.2139
  144MOL0     O18879   7.964  10.032   9.432  0.7957  0.0995 -0.3820
  144MOL0     C18880   7.909  10.119   9.341  0.4570  0.1260  0.4194
  144MOL0     C18881   7.817  10.219   9.362 -0.0976 -0.7131 -0.7475
  144MOL0     C18882   7.774  10.291   9.246  0.0881 -0.1818 -0.5040
  144MOL0     C18883   7.810  10.259   9.116 -0.3813 -0.1987  0.0501
  144MOL0     O18884   7.762  10.333   9.016 -0.6888 -0.2677 -0.2100
  144MOL0     C18885   7.638  10.294   8.959  0.5349  0.2007 -0.5487
  144MOL0     C18886   7.653  10.213   8.834 -0.2010 -0.2877 -0.5722
  144MOL0     C18887   7.534  10.230   8.733  0.3958 -1.2647  0.2183
  144MOL0     C18888   7.401  10.167   8.778  0.2226  0.4061  0.3178
  144MOL0     C18889   7.310  10.145   8.659 -0.2522  0.7181 -0.3673
  144MOL0     C18890   7.173  10.098   8.704  0.8639 -0.3473 -0.1443
  144MOL0     C18891   7.072  10.112   8.590 -0.9497  0.5215 -0.7173
  144MOL0     C18892   6.937  10.042   8.604  1.0808  0.2957  0.3179
  144MOL0     N18893   6.872  10.111   8.720 -0.0363  0.5352  0.2623
  144MOL0     C18894   6.756  10.189   8.719  0.5287 -0.5160  0.9799
  144MOL0     C18895   6.705  10.183   8.839  0.0228 -0.3450 -0.2964
  144MOL0     C18896   6.570  10.251   8.878  0.0775 -0.0272 -0.3574
  144MOL0     C18897   6.458  10.154   8.890  0.6615  1.1542  0.3609
  144MOL0     C18898   6.327  10.233   8.935  0.7615 -0.5006 -0.2812
  144MOL0     C18899   6.220  10.149   8.999 -0.3137 -0.2439 -0.0182
  144MOL0     O18900   6.144  10.091   8.894 -0.0379 -0.6701 -0.4449
  144MOL0     C18901   6.031  10.017   8.934  0.1847  0.2181  0.3453
  144MOL0     C18902   5.975   9.936   8.834  0.1823  0.0162 -0.2810
  144MOL0     C18903   5.856   9.862   8.858  0.4716 -0.2685  0.8134
  144MOL0     C18904   5.788   9.869   8.977 -0.9204  0.6772 -0.1265
  144MOL0     C18905   5.659   9.811   8.996  0.8365 -0.6121  0.6633
  144MOL0     O18906   5.630   9.719   8.908 -0.0154  0.4869  0.0608
  144MOL0     C18907   5.495   9.674   8.895 -0.7783 -0.1622  0.3146
  144MOL0     C18908   5.392   9.672   8.993  0.4076  1.1477  0.1404
  144MOL0     C18909   5.263   9.621   8.970  0.0443 -0.9532  0.5727
  144MOL0     C18910   5.217   9.604   8.838 -0.3317  0.0962  0.1203
  144MOL0     O18911   5.102   9.534   8.804  1.0650  0.6397 -0.4720
  144MOL0     C18912   5.050   9.447   8.904  0.8164 -0.4110 -0.1462
  144MOL0     C18913   4.915   9.387   8.858  1.0691  1.0074 -0.2802
  144MOL0     C18914   4.809   9.489   8.809 -0.1024  0.4525 -0.2750
  144MOL0     C18915   4.672   9.426   8.782 -0.2562  0.0700 -0.2212
  144MOL0     C18916   4.593   9.526   8.700  0.2113  0.9677  0.4803
  144MOL0     C18917   4.462   9.455   8.656  0.4509  0.5620  0.3375
  144MOL0     C18918   4.355   9.550   8.602 -0.4039 -0.1527 -0.8921
  144MOL0     C18919   4.391   9.601   8.469 -1.1395 -0.3290 -0.2277
  144MOL0    Cl18920   4.292   9.751   8.426 -0.4657  0.1503  0.1979
  144MOL0     C18921   5.316   9.615   8.742  0.3040 -0.0588 -0.3568
  144MOL0     C18922   5.451   9.634   8.770  0.5955 -0.2006  0.1759
  144MOL0     O18923   5.586   9.856   9.078  1.5812 -0.2696 -0.0214
  144MOL0     C18924   5.833   9.969   9.067  0.2766 -0.0845 -1.0383
  144MOL0     C18925   5.955  10.032   9.049 -0.2649  0.6170 -0.7616
  144MOL0     N18926   6.769  10.097   8.917 -0.4829 -0.6236  0.2050
  144MOL0     N18927   6.871  10.048   8.845 -0.4483  0.7675 -0.2179
  144MOL0     C18928   7.898  10.156   9.091 -0.0018 -0.7179  0.4950
  144MOL0     C18929   7.956  10.093   9.206 -0.3450 -0.5539  0.1775
  144MOL0     C18930   7.939   9.903   9.637  1.0424  0.5595  0.1730
  144MOL0     C18931   7.852   9.838   9.726 -0.5005  0.1012  1.0039
  144MOL0     C18932   7.907   9.743   9.815 -1.1753 -0.9538 -0.1069
  144MOL0     C18933   8.037   9.712   9.810 -0.2683 -0.7022 -0.4604
  144MOL0     O18934   8.078   9.618   9.913 -0.2546 -0.7694  1.7177
  144MOL0     C18935   8.213   9.642   9.954 -0.6442  0.2504  0.6758
  144MOL0     C18936   8.251   9.560  10.075  0.3930  0.4843 -0.0529
  144MOL0     C18937   8.358   9.625  10.157 -0.1002  0.5883 -0.2621
  144MOL0     C18938   8.379   9.554  10.291  1.2753  0.3988  0.4860
  144MOL0     C18939   8.512   9.582  10.344  0.5165 -0.8097  0.1235
  144MOL0     C18940   8.621   9.629  10.375 -0.1654 -0.0518  0.0796
  144MOL0     C18941   8.121   9.779   9.723  0.2708  0.3012  0.0877
  144MOL0     C18942   8.074   9.874   9.637  0.3052  0.4716 -0.3154
  144MOL0     H18943   7.783  10.259   9.457  1.2093  1.6059 -1.1602
  144MOL0     H18944   7.699  10.368   9.262 -1.3109 -1.4289 -0.8105
  144MOL0     H18945   7.593  10.387   8.921  0.3217  0.8549  1.2107
  144MOL0     H18946   7.575  10.246   9.034  2.1393  0.4035  1.0199
  144MOL0     H18947   7.658  10.105   8.851 -2.5342 -0.5375 -1.1656
  144MOL0     H18948   7.747  10.244   8.788 -0.5210  0.8983 -0.4568
  144MOL0     H18949   7.567  10.187   8.638 -0.8371  0.6738 -1.1422
  144MOL0     H18950   7.514  10.336   8.718 -0.5857 -1.3966  0.5780
  144MOL0     H18951   7.418  10.071   8.828 -0.4467 -0.9421 -1.9236
  144MOL0     H18952   7.344  10.230   8.848 -0.6888 -0.6830  0.5883
  144MOL0     H18953   7.348  10.064   8.596 -0.0724 -0.7220  1.5271
  144MOL0     H18954   7.297  10.239   8.604 -0.2492  0.5913 -0.5879
  144MOL0     H18955   7.141  10.157   8.791 -0.3586  0.7676 -1.3106
  144MOL0     H18956   7.176   9.993   8.737 -0.3773 -0.1705  0.6112
  144MOL0     H18957   7.052  10.219   8.586 -3.0873  0.3215  1.7403
  144MOL0     H18958   7.116  10.085   8.494  0.4207  3.4286 -0.9923
  144MOL0     H18959   6.942   9.933   8.616 -0.0693 -0.1177 -2.3717
  144MOL0     H18960   6.884  10.047   8.508 -0.3161  0.2970  1.0609
  144MOL0     H18961   6.716  10.260   8.647 -2.2115 -0.0436  2.8646
  144MOL0     H18962   6.540  10.326   8.804 -0.6198  0.9094  0.8391
  144MOL0     H18963   6.594  10.294   8.975 -1.6380 -1.0854  0.6105
  144MOL0     H18964   6.478  10.071   8.958 -0.0636  1.1581  0.5848
  144MOL0     H18965   6.438  10.118   8.788 -0.6542  1.0458  0.6404
  144MOL0     H18966   6.347  10.310   9.010  0.8377  2.1742 -2.8549
  144MOL0     H18967   6.291  10.291   8.850 -0.6923  0.3511  0.8675
  144MOL0     H18968   6.166  10.230   9.048  2.7165  1.6567  0.3820
  144MOL0     H18969   6.266  10.068   9.056  3.0743  0.5552 -1.3871
  144MOL0     H18970   6.032   9.926   8.742 -0.1815  0.0902 -0.5195
  144MOL0     H18971   5.824   9.802   8.773 -1.2906  1.1248  0.4426
  144MOL0     H18972   5.419   9.693   9.096  0.2823 -1.3319  0.7428
  144MOL0     H18973   5.200   9.630   9.059  0.0159  0.6994  0.4168
  144MOL0     H18974   5.034   9.499   8.999  1.3461  1.3366 -0.9720
  144MOL0     H18975   5.121   9.364   8.914  1.6861  0.3779  0.4268
  144MOL0     H18976   4.879   9.332   8.945  0.6632  0.5919 -0.7105
  144MOL0     H18977   4.943   9.313   8.782  2.3101  0.9970  0.1655
  144MOL0     H18978   4.847   9.539   8.719 -0.5003  1.8716  0.3209
  144MOL0     H18979   4.795   9.573   8.877 -1.8095 -1.2369  1.6020
  144MOL0     H18980   4.674   9.331   8.728 -0.1802  0.6720 -1.3031
  144MOL0     H18981   4.614   9.417   8.874  1.1776  3.4339  1.1647
  144MOL0     H18982   4.654   9.553   8.613 -0.7856 -2.4587 -1.4621
  144MOL0     H18983   4.574   9.617   8.758 -0.0855  0.6081  0.9574
  144MOL0     H18984   4.430   9.399   8.744  0.3881  0.2283  0.1015
  144MOL0     H18985   4.480   9.387   8.572 -1.9779  2.3442 -1.7676
  144MOL0     H18986   4.264   9.489   8.597  1.1208 -2.6819  0.0076
  144MOL0     H18987   4.349   9.623   8.684  2.1271 -2.3242  1.4355
  144MOL0     H18988   4.389   9.522   8.394  0.8338  1.3272 -2.1245
  144MOL0     H18989   4.496   9.629   8.476 -1.0175  0.0056 -2.7487
  144MOL0     H18990   5.276   9.605   8.642 -2.6025 -0.4164  0.7261
  144MOL0     H18991   5.517   9.631   8.684 -0.2845 -1.4709 -0.4743
  144MOL0     H18992   5.775   9.993   9.156  0.0885 -1.7231 -0.6798
  144MOL0     H18993   5.981  10.106   9.125  0.1114  0.9799 -1.2363
  144MOL0     H18994   7.930  10.110   8.998  2.6711 -2.2400  2.0256
  144MOL0     H18995   8.024  10.011   9.186 -0.7608 -1.0425  0.7169
  144MOL0     H18996   7.745   9.852   9.718 -0.8108 -2.6405 -1.3564
  144MOL0     H18997   7.858   9.684   9.892  0.6865 -3.0511 -0.4284
  144MOL0     H18998   8.236   9.748   9.969  0.6549 -0.3069  3.3799
  144MOL0     H18999   8.273   9.602   9.872 -0.0456 -0.4536  1.4320
  144MOL0     H19000   8.164   9.560  10.141  1.9563  0.2433  2.0863
  144MOL0     H19001   8.277   9.457  10.050  2.7585  0.5291  1.8602
  144MOL0     H19002   8.321   9.727  10.173 -0.5549  0.6346 -1.5119
  144MOL0     H19003   8.444   9.638  10.091  0.1636 -0.1835 -0.0812
  144MOL0     H19004   8.316   9.600  10.367  0.6879 -3.3329  2.5112
  144MOL0     H19005   8.356   9.447  10.288 -2.5151  1.1023 -0.3750
  144MOL0     H19006   8.722   9.655  10.396  1.5900 -1.8081 -4.9039
  144MOL0     H19007   8.224   9.744   9.723 -0.1721 -1.0451 -1.1295
  144MOL0     H19008   8.151   9.914   9.571  1.5367 -1.5062 -0.1853
  145MOL0     O19009   9.654   3.483   4.132  0.1695  0.9751 -0.6632
  145MOL0     C19010   9.654   3.553   4.028  0.5824 -0.0141  0.0611
  145MOL0     O19011   9.543   3.598   3.958 -0.4984 -0.2145 -0.6772
  145MOL0     C19012   9.416   3.561   3.973  0.8912 -0.1279 -0.1613
  145MOL0     C19013   9.347   3.497   3.867 -0.1981 -0.6173 -0.6229
  145MOL0     C19014   9.214   3.460   3.891 -0.5870 -0.3458  0.0904
  145MOL0     C19015   9.155   3.464   4.016  0.3289 -0.0004 -0.0598
  145MOL0     O19016   9.032   3.412   4.031  0.2467 -0.1892  0.0547
  145MOL0     C19017   8.991   3.366   4.162  0.4015 -0.1983  0.1828
  145MOL0     C19018   8.850   3.307   4.149 -0.0671 -0.3803 -0.3986
  145MOL0     C19019   8.743   3.411   4.134  0.3931 -0.0838  0.4248
  145MOL0     C19020   8.604   3.360   4.174 -0.2279  0.1108 -0.6711
  145MOL0     C19021   8.484   3.467   4.149 -1.0568  0.0121  0.1282
  145MOL0     C19022   8.439   3.448   4.003  0.4800  0.0011 -0.9093
  145MOL0     C19023   8.297   3.494   3.979  0.5432  0.4342  0.3128
  145MOL0     C19024   8.285   3.645   3.985 -0.0528 -0.1227  0.0488
  145MOL0     N19025   8.153   3.691   3.992  0.2738 -0.1790  0.7397
  145MOL0     C19026   8.075   3.727   3.885 -0.2220 -0.4130 -0.3206
  145MOL0     C19027   7.984   3.820   3.935 -0.1434 -0.7196  0.1970
  145MOL0     C19028   7.874   3.886   3.858  0.4137 -0.9340  0.4313
  145MOL0     C19029   7.785   3.778   3.805 -0.3142 -0.3096 -0.2224
  145MOL0     C19030   7.657   3.841   3.752  0.3540 -0.1787  0.6336
  145MOL0     C19031   7.543   3.730   3.720 -0.2104  0.1628 -0.8875
  145MOL0     O19032   7.435   3.804   3.661  0.0918  0.2836  0.1762
  145MOL0     C19033   7.328   3.731   3.608 -0.5627  0.4417  0.4531
  145MOL0     C19034   7.251   3.798   3.509  0.2514  0.1417 -1.2834
  145MOL0     C19035   7.139   3.736   3.462  1.2970 -0.4724  0.3077
  145MOL0     C19036   7.106   3.601   3.483  0.1950  0.2264  0.2390
  145MOL0     C19037   6.994   3.537   3.415  0.4852 -0.6683  0.1816
  145MOL0     O19038   6.997   3.400   3.412 -0.5486 -0.0936 -0.2679
  145MOL0     C19039   6.892   3.336   3.343 -0.7390 -0.8400 -0.8040
  145MOL0     C19040   6.762   3.368   3.380  0.4981  0.9465 -0.4857
  145MOL0     C19041   6.648   3.302   3.329 -0.6190  0.9494 -0.0970
  145MOL0     C19042   6.661   3.216   3.213  0.3137  0.6846  0.9813
  145MOL0     O19043   6.559   3.163   3.142  0.0708  0.3061  0.5821
  145MOL0     C19044   6.424   3.163   3.194  0.1332 -0.3247  0.9064
  145MOL0     C19045   6.409   3.064   3.312  0.5583  0.4775 -0.4728
  145MOL0     C19046   6.259   3.039   3.339  0.0416 -0.2132  0.3052
  145MOL0     C19047   6.220   2.935   3.444 -0.2836 -0.4985 -0.7252
  145MOL0     C19048   6.069   2.898   3.424  0.1333 -0.0038 -0.0976
  145MOL0     C19049   5.968   3.017   3.445  0.0910  0.7349 -0.2877
  145MOL0     C19050   5.836   2.967   3.491 -0.3327  0.4515  0.2546
  145MOL0     C19051   5.773   2.867   3.390  0.0762 -0.2497 -0.5536
  145MOL0    Cl19052   5.620   2.816   3.464  0.0303 -0.2297  0.1971
  145MOL0     C19053   6.796   3.183   3.180  0.6445 -0.8184 -1.4162
  145MOL0     C19054   6.910   3.242   3.244  0.0697 -0.1814  0.1839
  145MOL0     O19055   6.917   3.604   3.353  0.0431 -0.6091 -0.7783
  145MOL0     C19056   7.180   3.538   3.576  0.9026 -0.1897  0.2864
  145MOL0     C19057   7.298   3.593   3.631  0.0856  0.5485 -0.2431
  145MOL0     N19058   7.997   3.827   4.070 -0.0093 -0.9388  0.1743
  145MOL0     N19059   8.096   3.750   4.102  0.1685  0.1247 -0.8124
  145MOL0     C19060   9.233   3.507   4.122 -0.0462  0.0680  0.6097
  145MOL0     C19061   9.356   3.570   4.101 -0.2806  0.0751  0.1838
  145MOL0     C19062   9.791   3.590   3.986 -1.1841  0.5609  0.3948
  145MOL0     C19063   9.916   3.575   4.063 -0.1278  0.0849  0.3089
  145MOL0     C19064  10.044   3.620   4.022 -0.2631 -0.4641 -0.5564
  145MOL0     C19065  10.055   3.684   3.898 -0.7894 -0.2040  0.2090
  145MOL0     O19066  10.169   3.730   3.846 -0.0295  0.1386  0.5244
  145MOL0     C19067  10.289   3.710   3.917  0.5765 -0.5625  0.0069
  145MOL0     C19068  10.399   3.723   3.810 -0.3090 -0.3485 -0.4477
  145MOL0     C19069  10.530   3.764   3.878  0.4746  0.0807  0.0874
  145MOL0     C19070  10.633   3.791   3.766 -0.5245  0.0984  0.3935
  145MOL0     C19071  10.731   3.891   3.811 -0.0163  0.0484  0.0911
  145MOL0     C19072  10.808   3.968   3.866  0.2182  0.1659  0.4316
  145MOL0     C19073   9.941   3.710   3.823  0.0884  0.2360 -0.7423
  145MOL0     C19074   9.812   3.669   3.867  0.1221  1.4370  1.0002
  145MOL0     H19075   9.393   3.488   3.769 -1.2761  0.3756 -1.2328
  145MOL0     H19076   9.147   3.415   3.818  0.6047 -0.2713 -1.0866
  145MOL0     H19077   8.982   3.435   4.247 -1.2817  1.4572 -1.2682
  145MOL0     H19078   9.064   3.287   4.186  1.2225  0.6224  0.4443
  145MOL0     H19079   8.834   3.254   4.243  1.8213  0.9796  0.7790
  145MOL0     H19080   8.839   3.234   4.068 -1.1816 -0.1373 -0.4710
  145MOL0     H19081   8.742   3.438   4.028 -0.2671 -1.7986 -0.0285
  145MOL0     H19082   8.766   3.497   4.198  0.8799  0.6665 -0.7170
  145MOL0     H19083   8.593   3.254   4.148 -1.8702 -0.8504  3.1967
  145MOL0     H19084   8.615   3.356   4.283 -2.0454  1.8374 -0.3735
  145MOL0     H19085   8.508   3.573   4.159  1.1101 -0.3467 -0.5835
  145MOL0     H19086   8.409   3.436   4.222 -1.5035 -0.3329 -0.4661
  145MOL0     H19087   8.448   3.340   3.988  4.9300  0.0032  0.2842
  145MOL0     H19088   8.512   3.488   3.932  0.5661  0.2495 -0.6862
  145MOL0     H19089   8.265   3.463   3.879 -3.0519 -0.2245  1.4913
  145MOL0     H19090   8.235   3.444   4.054  2.6238 -1.6790  0.7322
  145MOL0     H19091   8.338   3.688   3.899 -3.1411  2.3553 -0.8028
  145MOL0     H19092   8.338   3.666   4.078  3.4460  0.8012 -1.9743
  145MOL0     H19093   8.091   3.713   3.779  1.4161 -0.8396 -0.0438
  145MOL0     H19094   7.911   3.943   3.772  0.7737 -1.8311 -0.0159
  145MOL0     H19095   7.810   3.954   3.915  2.2300 -1.0748  2.7702
  145MOL0     H19096   7.759   3.701   3.878 -1.2276  2.2094  2.2926
  145MOL0     H19097   7.826   3.727   3.717  1.0242  1.3970 -0.6441
  145MOL0     H19098   7.616   3.912   3.825 -0.7800 -1.0097  0.8291
  145MOL0     H19099   7.689   3.884   3.657 -0.4869 -0.0420  0.3975
  145MOL0     H19100   7.509   3.683   3.813  0.3989 -0.1194 -0.8024
  145MOL0     H19101   7.576   3.652   3.651 -0.5061 -0.2645 -0.5556
  145MOL0     H19102   7.290   3.895   3.482  2.4341 -0.3330 -0.0552
  145MOL0     H19103   7.091   3.790   3.382 -1.5253 -2.7095  0.3365
  145MOL0     H19104   6.736   3.448   3.449  0.2931 -0.2380  0.8358
  145MOL0     H19105   6.554   3.317   3.382 -0.8066 -1.1916  0.2426
  145MOL0     H19106   6.362   3.127   3.111 -1.3146 -0.5710  2.0600
  145MOL0     H19107   6.390   3.262   3.225 -3.0910 -1.4878  1.4683
  145MOL0     H19108   6.466   3.101   3.398  3.3909 -1.9672 -1.1445
  145MOL0     H19109   6.449   2.964   3.292 -0.7383 -1.1495  3.8507
  145MOL0     H19110   6.210   3.015   3.244  0.2292 -1.1257  0.4305
  145MOL0     H19111   6.222   3.135   3.374  1.2121  1.9324 -3.6660
  145MOL0     H19112   6.283   2.846   3.444 -2.1202 -1.8847 -2.4062
  145MOL0     H19113   6.219   2.998   3.534 -1.1524  2.6582 -2.7793
  145MOL0     H19114   6.043   2.819   3.495  2.5293 -0.2372  0.6186
  145MOL0     H19115   6.059   2.852   3.325  0.6816 -0.5813  0.1121
  145MOL0     H19116   5.966   3.079   3.355 -0.6151  0.2215 -0.6387
  145MOL0     H19117   6.001   3.086   3.522  3.2701 -0.1943 -0.6689
  145MOL0     H19118   5.842   2.934   3.595  1.0374  2.5064  0.8835
  145MOL0     H19119   5.764   3.048   3.506  0.1374  1.0712 -0.7043
  145MOL0     H19120   5.830   2.774   3.381  1.1240  0.3562 -0.3848
  145MOL0     H19121   5.764   2.914   3.291  4.4952  1.6453 -0.2685
  145MOL0     H19122   6.817   3.115   3.098 -4.3200 -1.9400 -2.0693
  145MOL0     H19123   7.007   3.206   3.210  0.3910  0.9097 -0.0977
  145MOL0     H19124   7.160   3.438   3.614 -0.6886  0.4378  1.1828
  145MOL0     H19125   7.360   3.532   3.696 -1.8392  0.8746  2.0292
  145MOL0     H19126   9.193   3.508   4.223 -0.6743  0.2962  0.3611
  145MOL0     H19127   9.423   3.613   4.174  1.2096 -0.9183 -0.5516
  145MOL0     H19128   9.908   3.544   4.167 -3.1106  3.7456  1.3846
  145MOL0     H19129  10.129   3.610   4.089 -1.1880  0.5936  0.8282
  145MOL0     H19130  10.299   3.611   3.962  3.1041 -0.9055 -1.1352
  145MOL0     H19131  10.298   3.785   3.995  1.5646 -1.9740  1.2971
  145MOL0     H19132  10.411   3.625   3.762  0.6139 -0.7947  0.6256
  145MOL0     H19133  10.374   3.795   3.731  0.1052 -1.6034 -1.7737
  145MOL0     H19134  10.564   3.697   3.957  2.3880 -0.8937 -1.4956
  145MOL0     H19135  10.522   3.862   3.926 -0.5122  1.4872 -2.7441
  145MOL0     H19136  10.667   3.688   3.753 -1.7097 -0.2238 -0.3011
  145MOL0     H19137  10.585   3.820   3.672 -3.5810  2.2147  2.4210
  145MOL0     H19138  10.870   4.033   3.926  0.9128 -2.3668  2.6734
  145MOL0     H19139   9.954   3.783   3.743 -0.1191 -0.3155 -1.2898
  145MOL0     H19140   9.726   3.690   3.805 -1.6159  1.9068  3.4355
  146MOL0     O19141   1.089   2.219   4.646 -0.0900  0.3266 -0.2015
  146MOL0     C19142   1.188   2.188   4.580 -0.1008 -0.5768  0.5280
  146MOL0     O19143   1.262   2.069   4.589  0.5714  0.0985  0.4147
  146MOL0     C19144   1.237   1.977   4.683 -0.2379 -0.3522 -0.8604
  146MOL0     C19145   1.113   1.918   4.691 -0.0968  0.1677  0.1358
  146MOL0     C19146   1.094   1.803   4.775 -0.0119  0.5711 -0.7779
  146MOL0     C19147   1.201   1.746   4.842 -0.7615 -0.1982 -0.0734
  146MOL0     O19148   1.189   1.624   4.899  0.3955  0.5333  0.1090
  146MOL0     C19149   1.061   1.588   4.953 -0.4069  0.0748 -0.2831
  146MOL0     C19150   1.073   1.447   5.007  0.0494  0.2585  0.0113
  146MOL0     C19151   0.942   1.404   5.079  0.0820 -0.5321 -0.0208
  146MOL0     C19152   0.934   1.482   5.207  0.4272 -0.7284 -0.5239
  146MOL0     C19153   0.847   1.426   5.312  0.3358 -0.0509  0.3523
  146MOL0     C19154   0.695   1.405   5.271 -0.0584  0.0043  0.6053
  146MOL0     C19155   0.620   1.535   5.262 -0.1704 -1.0499  0.4836
  146MOL0     C19156   0.606   1.606   5.394 -0.7019  0.2956 -0.2891
  146MOL0     N19157   0.537   1.734   5.371  0.0498 -0.3324 -0.1544
  146MOL0     C19158   0.559   1.814   5.263 -0.1400  0.7147 -0.2245
  146MOL0     C19159   0.461   1.898   5.236  0.0595  0.5395 -0.4004
  146MOL0     C19160   0.444   1.994   5.120 -0.2278  0.5815  0.4546
  146MOL0     C19161   0.457   2.142   5.149 -0.0648  0.0544  0.3162
  146MOL0     C19162   0.438   2.237   5.023  0.2284  0.5636  0.1385
  146MOL0     C19163   0.293   2.268   4.990 -0.4387  0.3025 -0.9956
  146MOL0     O19164   0.244   2.164   4.908  0.0299  0.3212 -0.2865
  146MOL0     C19165   0.109   2.151   4.893 -0.0398 -0.4151 -0.6676
  146MOL0     C19166   0.063   2.071   4.799  0.4213  0.1925  0.3559
  146MOL0     C19167  -0.072   2.082   4.761  0.6871  0.1260 -0.1573
  146MOL0     C19168  -0.165   2.171   4.820 -0.0127 -0.5039  0.8034
  146MOL0     C19169  -0.297   2.173   4.779 -0.4578 -0.6093 -0.5313
  146MOL0     O19170  -0.314   2.197   4.643  0.2329  0.4500 -0.7231
  146MOL0     C19171  -0.431   2.249   4.598  1.1773 -0.5812 -0.0426
  146MOL0     C19172  -0.553   2.182   4.609 -0.4144  0.7207 -0.1113
  146MOL0     C19173  -0.672   2.218   4.545 -0.5156 -0.7238 -0.3895
  146MOL0     C19174  -0.662   2.343   4.470  0.0079  0.0368  0.2120
  146MOL0     O19175  -0.767   2.391   4.395 -0.6813  0.0484  0.0764
  146MOL0     C19176  -0.904   2.342   4.412  0.2438 -0.4369  0.3600
  146MOL0     C19177  -0.997   2.395   4.295 -0.1454  0.1013 -0.8025
  146MOL0     C19178  -1.149   2.362   4.292 -0.8371  0.1790 -1.0401
  146MOL0     C19179  -1.214   2.420   4.179  0.1959 -0.3535  0.6036
  146MOL0     C19180  -1.358   2.368   4.147  0.2118 -0.6953  0.1057
  146MOL0     C19181  -1.447   2.473   4.079  0.2611  0.2291 -0.1295
  146MOL0     C19182  -1.579   2.413   4.027  0.3663 -0.1489 -0.7647
  146MOL0     C19183  -1.692   2.516   4.019  0.4873 -0.7223  0.1060
  146MOL0    Cl19184  -1.757   2.540   4.181 -0.0164 -0.0411 -0.0095
  146MOL0     C19185  -0.543   2.415   4.464 -0.1038  0.4568 -0.0630
  146MOL0     C19186  -0.434   2.361   4.523 -0.1569  0.2638  0.7307
  146MOL0     O19187  -0.383   2.182   4.868  0.2693 -0.5295  0.1216
  146MOL0     C19188  -0.116   2.243   4.930  0.0891  1.2471 -0.5775
  146MOL0     C19189   0.016   2.227   4.972 -0.3141 -0.2587 -0.2898
  146MOL0     N19190   0.365   1.866   5.339  0.1048 -0.1962  0.0546
  146MOL0     N19191   0.410   1.774   5.418  0.0498 -0.5749 -1.1914
  146MOL0     C19192   1.325   1.812   4.845 -0.5026  0.3512 -0.9505
  146MOL0     C19193   1.342   1.933   4.771  0.0449 -0.2725 -0.3788
  146MOL0     C19194   1.226   2.292   4.475 -0.0454  0.3588 -0.2374
  146MOL0     C19195   1.142   2.398   4.436  0.3403 -0.2958  1.4574
  146MOL0     C19196   1.178   2.484   4.324  0.6035  0.7140 -0.0566
  146MOL0     C19197   1.297   2.461   4.262 -0.1737 -0.0592 -0.2711
  146MOL0     O19198   1.304   2.543   4.153 -0.4080 -0.7343  0.8386
  146MOL0     C19199   1.384   2.506   4.039 -0.7582  0.0860  0.3109
  146MOL0     C19200   1.345   2.591   3.918 -0.4393 -0.6151 -0.2030
  146MOL0     C19201   1.333   2.744   3.940 -1.3896  0.5122 -0.8632
  146MOL0     C19202   1.356   2.816   3.801 -0.3451  0.4557  0.4343
  146MOL0     C19203   1.245   2.798   3.708 -0.1779 -0.0426 -0.3133
  146MOL0     C19204   1.154   2.771   3.636 -0.1644 -0.6274  0.0564
  146MOL0     C19205   1.390   2.367   4.305  0.4258  0.1033  0.2473
  146MOL0     C19206   1.352   2.281   4.412  0.4089 -0.0506 -0.1965
  146MOL0     H19207   1.027   1.959   4.638  0.4232  1.3016  0.1327
  146MOL0     H19208   0.997   1.755   4.759  0.1824 -0.1059  0.0159
  146MOL0     H19209   0.986   1.586   4.873 -0.5456  4.5780 -0.4916
  146MOL0     H19210   1.034   1.663   5.027 -3.3504  0.1152 -1.2625
  146MOL0     H19211   1.160   1.440   5.073  0.5289  0.5762 -0.5802
  146MOL0     H19212   1.086   1.379   4.922 -5.4470 -2.4004  0.8524
  146MOL0     H19213   0.945   1.297   5.101 -0.2508 -0.6469 -0.5130
  146MOL0     H19214   0.852   1.421   5.019  0.9779 -1.3690 -1.6680
  146MOL0     H19215   1.039   1.480   5.238  0.4377  1.9395 -0.1401
  146MOL0     H19216   0.908   1.586   5.184  1.2403  0.2620  2.6036
  146MOL0     H19217   0.864   1.493   5.397 -0.0136  1.7532 -0.9462
  146MOL0     H19218   0.880   1.326   5.342 -1.3062 -0.4075  1.0349
  146MOL0     H19219   0.638   1.337   5.334  0.2178  1.0171  1.9965
  146MOL0     H19220   0.691   1.362   5.170 -1.2566  2.0753 -0.3052
  146MOL0     H19221   0.685   1.595   5.198  2.3709 -0.6599  3.2107
  146MOL0     H19222   0.519   1.513   5.224 -0.8110 -0.9129  2.0436
  146MOL0     H19223   0.705   1.625   5.437 -1.5727 -0.0787  1.9904
  146MOL0     H19224   0.553   1.543   5.466  4.2239 -2.5430  1.2966
  146MOL0     H19225   0.641   1.823   5.193 -0.1900 -1.3996 -0.6248
  146MOL0     H19226   0.342   1.970   5.091 -0.5520  0.4423  1.6924
  146MOL0     H19227   0.523   1.965   5.050 -0.3824 -2.9799  1.6049
  146MOL0     H19228   0.563   2.159   5.165 -0.1842  0.5613  0.5656
  146MOL0     H19229   0.408   2.176   5.241 -2.6180  1.4305 -1.4190
  146MOL0     H19230   0.479   2.333   5.057  2.2295  0.4380 -1.6753
  146MOL0     H19231   0.506   2.206   4.943  0.5076  0.3200  0.4678
  146MOL0     H19232   0.283   2.364   4.938  2.2775  0.8859 -0.6334
  146MOL0     H19233   0.236   2.276   5.083  0.5677 -0.9332 -0.2400
  146MOL0     H19234   0.120   2.005   4.735  1.1861  1.2657 -0.0776
  146MOL0     H19235  -0.102   2.023   4.675  0.2428 -0.4150  0.3614
  146MOL0     H19236  -0.548   2.083   4.652  0.5394  1.5249  1.7421
  146MOL0     H19237  -0.760   2.154   4.549 -0.4220 -0.8311  0.0557
  146MOL0     H19238  -0.943   2.372   4.510 -2.5796 -1.6222 -0.2923
  146MOL0     H19239  -0.909   2.233   4.413 -1.2356 -0.3930  0.1699
  146MOL0     H19240  -0.963   2.339   4.207 -0.1402 -2.4709  0.7263
  146MOL0     H19241  -0.971   2.498   4.271  1.4256 -0.9809 -4.4280
  146MOL0     H19242  -1.191   2.403   4.384 -2.6527 -0.1323 -1.7013
  146MOL0     H19243  -1.162   2.253   4.296 -1.0431  0.2247  1.2333
  146MOL0     H19244  -1.216   2.528   4.197 -2.8491  0.1891 -2.1502
  146MOL0     H19245  -1.152   2.405   4.090 -0.8237 -0.6118 -0.0795
  146MOL0     H19246  -1.406   2.340   4.241  1.0621 -2.6843  0.0004
  146MOL0     H19247  -1.349   2.275   4.089  1.1426  0.6158 -1.9598
  146MOL0     H19248  -1.387   2.518   3.999 -0.5865 -1.7097 -1.9516
  146MOL0     H19249  -1.468   2.551   4.153  1.0329  1.3162 -1.0199
  146MOL0     H19250  -1.561   2.376   3.926  0.0095  1.8205 -1.5899
  146MOL0     H19251  -1.612   2.324   4.082  0.7329  0.6315  0.7822
  146MOL0     H19252  -1.776   2.483   3.957  0.1383  2.2035 -1.1110
  146MOL0     H19253  -1.655   2.604   3.967 -0.7172 -0.1483  0.1891
  146MOL0     H19254  -0.519   2.494   4.394 -1.5977  0.3408 -0.7485
  146MOL0     H19255  -0.334   2.403   4.519  1.1707 -2.4837  2.0408
  146MOL0     H19256  -0.193   2.308   4.972  0.2693 -0.0774  2.0109
  146MOL0     H19257   0.041   2.302   5.047 -2.1081  1.9122 -1.7184
  146MOL0     H19258   1.410   1.768   4.896  0.7642 -1.6137 -4.4336
  146MOL0     H19259   1.436   1.987   4.771 -1.6425  2.8849 -0.4529
  146MOL0     H19260   1.040   2.405   4.473  0.0673  1.4430  0.4975
  146MOL0     H19261   1.107   2.545   4.270  0.4639  0.2869 -0.3598
  146MOL0     H19262   1.384   2.399   4.018 -0.2190 -0.2436  1.8964
  146MOL0     H19263   1.489   2.534   4.058 -1.3668  2.8497  0.0320
  146MOL0     H19264   1.427   2.576   3.847 -0.0716 -1.5479  0.3883
  146MOL0     H19265   1.254   2.558   3.868 -0.9434 -0.9012  0.8783
  146MOL0     H19266   1.403   2.779   4.017 -1.4806  1.9703 -1.4173
  146MOL0     H19267   1.232   2.765   3.977 -1.6668  0.8711 -1.8032
  146MOL0     H19268   1.359   2.924   3.819 -0.6998  0.5599 -0.1379
  146MOL0     H19269   1.443   2.765   3.758 -0.9719 -2.9505  2.7900
  146MOL0     H19270   1.071   2.756   3.571  0.9969 -0.0631 -1.6291
  146MOL0     H19271   1.482   2.348   4.250  1.0517  1.0367  0.9353
  146MOL0     H19272   1.419   2.204   4.447 -0.7671 -2.0360 -2.1305
  147MOL0     O19273   3.983   9.448   1.740 -0.2717  0.5454  0.0546
  147MOL0     C19274   4.018   9.472   1.858 -0.5692  0.1840 -0.0917
  147MOL0     O19275   3.947   9.531   1.957  0.3551 -0.0578  1.0004
  147MOL0     C19276   3.825   9.597   1.927 -0.8523 -0.2136 -0.5316
  147MOL0     C19277   3.712   9.563   2.008 -0.6171 -0.5180  0.9200
  147MOL0     C19278   3.588   9.629   1.978  0.8436 -1.0326 -0.7276
  147MOL0     C19279   3.583   9.724   1.871  0.2246 -0.5777 -0.3382
  147MOL0     O19280   3.466   9.793   1.844 -0.2898  0.2744  0.7983
  147MOL0     C19281   3.468   9.919   1.918 -0.2170 -0.1635  0.7643
  147MOL0     C19282   3.339  10.006   1.897  0.5316  0.0601  0.3584
  147MOL0     C19283   3.211   9.929   1.936  0.3553  0.3215  0.1750
  147MOL0     C19284   3.094  10.033   1.931  1.2693  0.0281 -0.0143
  147MOL0     C19285   2.957   9.967   1.974 -0.1158 -0.4369 -0.1582
  147MOL0     C19286   2.953   9.926   2.121 -0.4518  0.4438  1.2562
  147MOL0     C19287   2.975  10.033   2.229 -0.1166 -0.0043 -0.2618
  147MOL0     C19288   2.932   9.994   2.374 -0.5946  0.1681  0.2120
  147MOL0     N19289   2.789  10.008   2.385 -0.5668  0.4408  0.0463
  147MOL0     C19290   2.700   9.904   2.411 -1.2138 -0.1438  0.3090
  147MOL0     C19291   2.582   9.966   2.440  0.3764  0.4991 -1.0419
  147MOL0     C19292   2.454   9.891   2.480  0.3720 -0.5269  0.5039
  147MOL0     C19293   2.330   9.979   2.504  0.1608 -0.0833  0.2752
  147MOL0     C19294   2.210   9.907   2.573  0.1557  0.1082  0.3824
  147MOL0     C19295   2.243   9.850   2.710 -0.3474  0.0662  0.2168
  147MOL0     O19296   2.122   9.815   2.771  0.2670 -0.1448  0.5128
  147MOL0     C19297   2.092   9.864   2.892 -0.6231 -0.1510 -0.2295
  147MOL0     C19298   2.159   9.962   2.973 -0.0683 -0.6048  0.2488
  147MOL0     C19299   2.115  10.003   3.095 -0.5441  0.1653 -0.3547
  147MOL0     C19300   2.012   9.938   3.151  0.3477  0.1776 -0.9040
  147MOL0     C19301   1.966   9.979   3.289  0.4417  0.3936  0.4613
  147MOL0     O19302   1.889   9.894   3.355 -0.2190 -0.2653  0.3361
  147MOL0     C19303   1.857   9.921   3.486 -0.1377  1.3512 -0.6278
  147MOL0     C19304   1.962   9.926   3.581  0.3503 -1.1050 -0.9357
  147MOL0     C19305   1.914   9.926   3.716 -0.1693 -0.2124 -0.1331
  147MOL0     C19306   1.781   9.919   3.748  0.2405 -0.7230 -0.3519
  147MOL0     O19307   1.745   9.928   3.878 -0.2948 -0.7754  0.1603
  147MOL0     C19308   1.748   9.799   3.940 -0.1046 -0.9284  0.0849
  147MOL0     C19309   1.709   9.803   4.087  1.2692  0.0975 -0.0494
  147MOL0     C19310   1.759   9.689   4.175 -0.7460 -0.3414  0.7951
  147MOL0     C19311   1.909   9.682   4.183  0.2498  0.7808 -0.6689
  147MOL0     C19312   1.959   9.566   4.277 -0.9836 -0.4460 -0.3447
  147MOL0     C19313   2.106   9.571   4.312 -0.3588  1.0093 -0.1550
  147MOL0     C19314   2.198   9.554   4.197  0.4704 -0.3660 -0.6492
  147MOL0     C19315   2.180   9.427   4.117  0.2983 -0.5631  0.7638
  147MOL0    Cl19316   2.324   9.409   4.019  0.1486 -0.3606  0.0999
  147MOL0     C19317   1.682   9.933   3.656  0.4536  0.4182  0.0456
  147MOL0     C19318   1.725   9.921   3.525  0.0715  0.6125 -0.6521
  147MOL0     O19319   2.003  10.092   3.329  0.3074 -0.0843  0.4933
  147MOL0     C19320   1.949   9.833   3.088  0.5908 -0.3490  0.5291
  147MOL0     C19321   1.981   9.803   2.955 -0.0059  0.0701  0.1301
  147MOL0     N19322   2.601  10.101   2.441 -0.2212 -0.2871 -0.8946
  147MOL0     N19323   2.717  10.125   2.395 -0.0651 -0.1595  0.1173
  147MOL0     C19324   3.693   9.744   1.803 -0.1057 -0.6655 -1.2150
  147MOL0     C19325   3.815   9.688   1.825  0.2382  0.1208  0.7483
  147MOL0     C19326   4.161   9.440   1.889 -0.2185 -0.2144  0.6684
  147MOL0     C19327   4.230   9.498   1.997  0.0521  0.1862  0.2860
  147MOL0     C19328   4.357   9.462   2.022 -0.5591 -0.5871  0.1341
  147MOL0     C19329   4.439   9.394   1.923 -0.0351 -0.5592  0.1169
  147MOL0     O19330   4.572   9.392   1.948  0.0845  0.4478  0.6640
  147MOL0     C19331   4.664   9.349   1.842  0.0758  0.8262 -0.1129
  147MOL0     C19332   4.702   9.471   1.745 -0.5196  0.1208 -0.0878
  147MOL0     C19333   4.826   9.544   1.805  0.2788 -0.9875  0.3348
  147MOL0     C19334   4.833   9.693   1.770 -1.2282  0.2281 -0.4070
  147MOL0     C19335   4.843   9.728   1.625  0.0203 -0.1435 -0.3703
  147MOL0     C19336   4.856   9.753   1.508 -0.6108 -0.4007 -0.3821
  147MOL0     C19337   4.377   9.348   1.803 -0.1261  0.3082  0.0284
  147MOL0     C19338   4.241   9.365   1.793 -0.4822  0.2609 -0.0209
  147MOL0     H19339   3.711   9.507   2.100 -2.2755 -0.4247  0.9851
  147MOL0     H19340   3.503   9.639   2.045  0.9183  3.5990 -1.0069
  147MOL0     H19341   3.549   9.983   1.882 -0.3327  0.6111  1.8079
  147MOL0     H19342   3.497   9.902   2.022 -1.8864 -0.1323  1.2674
  147MOL0     H19343   3.331  10.047   1.796 -1.8471  3.9206  1.9161
  147MOL0     H19344   3.351  10.087   1.970 -0.3272 -0.3994  1.0207
  147MOL0     H19345   3.230   9.902   2.041  3.2322  0.9920 -0.0935
  147MOL0     H19346   3.171   9.847   1.875 -0.0315 -0.1965  1.0971
  147MOL0     H19347   3.118  10.117   1.997 -1.0616  0.4767  0.3320
  147MOL0     H19348   3.075  10.069   1.830  1.0987 -2.1949 -0.8224
  147MOL0     H19349   2.920   9.883   1.913  0.2688 -1.0107  0.3807
  147MOL0     H19350   2.882  10.046   1.962 -1.3018 -1.3698  0.7783
  147MOL0     H19351   3.020   9.841   2.133 -0.4215  0.3148  0.2421
  147MOL0     H19352   2.852   9.890   2.142 -0.8919  0.2391 -0.9188
  147MOL0     H19353   3.079  10.068   2.235 -0.5700  2.1907 -3.2326
  147MOL0     H19354   2.928  10.126   2.195  0.1637  0.1979 -0.0988
  147MOL0     H19355   2.983  10.057   2.447 -0.6466  0.4126  0.0403
  147MOL0     H19356   2.957   9.889   2.395 -4.3032 -1.2199 -1.4118
  147MOL0     H19357   2.729   9.800   2.405 -0.3791  0.1458 -2.1105
  147MOL0     H19358   2.464   9.815   2.558  0.3837 -1.5315 -0.4507
  147MOL0     H19359   2.435   9.825   2.395 -2.4396 -1.2716  1.5932
  147MOL0     H19360   2.300  10.022   2.408  0.1416 -0.3940  0.1394
  147MOL0     H19361   2.363  10.065   2.562  1.0969 -0.2270 -0.0372
  147MOL0     H19362   2.126   9.976   2.572  0.2143  0.2230  1.5465
  147MOL0     H19363   2.173   9.821   2.517  2.7735 -1.1907  0.5058
  147MOL0     H19364   2.296   9.925   2.770  2.3097 -1.0260 -0.6602
  147MOL0     H19365   2.301   9.758   2.705 -0.2504  0.2112 -1.7703
  147MOL0     H19366   2.248  10.013   2.937  0.8823 -1.7774  0.8471
  147MOL0     H19367   2.165  10.086   3.144  2.3674 -1.3970 -0.4605
  147MOL0     H19368   2.067   9.912   3.554  0.1449 -1.6807 -1.4385
  147MOL0     H19369   1.991   9.922   3.793 -0.5111  0.6343  0.2625
  147MOL0     H19370   1.844   9.749   3.921  0.7091  1.4320 -2.7394
  147MOL0     H19371   1.673   9.734   3.894 -0.8832 -0.0845  0.1416
  147MOL0     H19372   1.600   9.803   4.101  1.0443  1.3051 -1.5030
  147MOL0     H19373   1.753   9.892   4.133 -2.8868  1.6573  1.4344
  147MOL0     H19374   1.726   9.591   4.139 -1.4897  0.7466 -1.6396
  147MOL0     H19375   1.723   9.701   4.278  0.9077  5.0166  1.0361
  147MOL0     H19376   1.955   9.655   4.087 -3.4296  3.5622 -3.5023
  147MOL0     H19377   1.949   9.779   4.215  0.5616  1.2634 -2.4018
  147MOL0     H19378   1.941   9.464   4.241 -0.5260 -1.2422  1.5759
  147MOL0     H19379   1.906   9.582   4.371 -1.1689  3.2302 -0.9193
  147MOL0     H19380   2.123   9.491   4.385 -3.5552  0.6079  0.3109
  147MOL0     H19381   2.133   9.659   4.371 -1.6203  0.8764  0.6438
  147MOL0     H19382   2.180   9.641   4.132 -0.5219  1.9264  2.4782
  147MOL0     H19383   2.296   9.559   4.244 -0.4997 -0.8023  1.5235
  147MOL0     H19384   2.086   9.424   4.061 -0.1993 -1.8557  1.6169
  147MOL0     H19385   2.177   9.332   4.171  0.1466 -2.2088 -1.9182
  147MOL0     H19386   1.578   9.948   3.683  0.9220  1.0088  1.6416
  147MOL0     H19387   1.654   9.932   3.444  1.7128 -0.9911 -2.3956
  147MOL0     H19388   1.859   9.800   3.139  0.9513 -1.1963  0.6327
  147MOL0     H19389   1.928   9.729   2.896  0.3946 -0.3956  0.3428
  147MOL0     H19390   3.687   9.812   1.719  2.0082  1.3821  0.1584
  147MOL0     H19391   3.905   9.716   1.772  1.7508 -1.4933  2.3428
  147MOL0     H19392   4.171   9.552   2.070 -2.4387 -2.1579  0.1888
  147MOL0     H19393   4.403   9.492   2.116 -0.4089  1.9858 -0.6670
  147MOL0     H19394   4.634   9.255   1.795 -1.4302 -0.7462  3.5425
  147MOL0     H19395   4.750   9.302   1.891 -2.7014 -3.3637  1.3758
  147MOL0     H19396   4.727   9.431   1.647 -3.3015 -0.6127 -0.5959
  147MOL0     H19397   4.615   9.537   1.734 -0.0433  0.6538 -0.7416
  147MOL0     H19398   4.924   9.510   1.772  2.7319  3.9016  1.6703
  147MOL0     H19399   4.834   9.526   1.913  1.8428  1.7827  0.7640
  147MOL0     H19400   4.750   9.752   1.810 -1.9583 -1.8366  1.3000
  147MOL0     H19401   4.916   9.733   1.829 -2.0418 -1.8142  2.3073
  147MOL0     H19402   4.865   9.773   1.403 -1.0944  0.1345 -0.3250
  147MOL0     H19403   4.438   9.310   1.722  2.8602  1.0372  1.7654
  147MOL0     H19404   4.186   9.340   1.703 -2.6267 -1.2857  1.6217
  148MOL0     O19405   3.583   5.990   0.795  0.0956  0.6378  0.1264
  148MOL0     C19406   3.680   6.074   0.800  0.3672  0.1222 -0.0112
  148MOL0     O19407   3.663   6.209   0.792  0.2446  0.6378 -0.0024
  148MOL0     C19408   3.531   6.256   0.803  0.4849  0.6507  0.7238
  148MOL0     C19409   3.489   6.320   0.916 -0.1318  0.3240 -1.0179
  148MOL0     C19410   3.362   6.374   0.925  0.3022 -0.6147 -0.1274
  148MOL0     C19411   3.284   6.384   0.810  0.9771  0.1143 -0.2170
  148MOL0     O19412   3.167   6.455   0.832 -0.3348  0.6370 -0.0294
  148MOL0     C19413   3.043   6.390   0.806 -0.6618  1.0670 -0.0633
  148MOL0     C19414   2.924   6.462   0.869 -0.4816  0.5398 -0.7755
  148MOL0     C19415   2.924   6.605   0.793  0.9706  0.1498  0.5874
  148MOL0     C19416   2.792   6.681   0.824 -0.3014  0.0549 -0.5187
  148MOL0     C19417   2.786   6.811   0.747  0.0294 -0.3280 -0.1517
  148MOL0     C19418   2.641   6.859   0.750  0.4060 -0.4500  0.1566
  148MOL0     C19419   2.633   6.983   0.660 -0.2024 -0.2317  0.4909
  148MOL0     C19420   2.486   7.022   0.659  0.0592  0.3793  0.9313
  148MOL0     N19421   2.444   7.151   0.603  0.5917 -0.4513  0.0264
  148MOL0     C19422   2.513   7.264   0.628 -0.5391 -0.1644 -0.6486
  148MOL0     C19423   2.450   7.358   0.552 -0.7916 -0.1970 -0.0392
  148MOL0     C19424   2.488   7.508   0.554  0.2949 -0.1577  0.6013
  148MOL0     C19425   2.403   7.592   0.452  0.1641 -0.6415 -0.2031
  148MOL0     C19426   2.269   7.632   0.513 -0.7386  0.0079  0.2264
  148MOL0     C19427   2.202   7.718   0.407  0.4151  0.0358 -0.2512
  148MOL0     O19428   2.091   7.792   0.464 -0.6061  0.3566 -0.3222
  148MOL0     C19429   2.039   7.914   0.424 -0.7819 -0.7685 -1.1336
  148MOL0     C19430   1.925   7.963   0.494  0.8432 -0.2104  0.0465
  148MOL0     C19431   1.870   8.083   0.452  0.4510 -0.1511 -0.2073
  148MOL0     C19432   1.910   8.163   0.338  0.1567  0.2424 -0.7670
  148MOL0     C19433   1.829   8.281   0.290 -0.2543  0.2520  0.0312
  148MOL0     O19434   1.719   8.315   0.359  0.3329 -0.2658  0.7895
  148MOL0     C19435   1.643   8.429   0.315  0.3459  1.1216 -0.4722
  148MOL0     C19436   1.558   8.413   0.208  0.6349  0.2945 -0.1640
  148MOL0     C19437   1.456   8.508   0.179 -1.0387  0.1926  0.0109
  148MOL0     C19438   1.431   8.612   0.270 -0.0170 -0.6058 -0.0261
  148MOL0     O19439   1.337   8.702   0.244 -0.4692  0.2592  0.1648
  148MOL0     C19440   1.243   8.730   0.349 -0.3090  0.3259 -0.0863
  148MOL0     C19441   1.163   8.846   0.301  0.1878  0.5924  0.4795
  148MOL0     C19442   1.257   8.966   0.278  0.9300 -0.4800  0.7579
  148MOL0     C19443   1.352   9.018   0.393 -0.6038  0.8601  0.9198
  148MOL0     C19444   1.395   9.166   0.362  0.0415  0.4898 -0.5242
  148MOL0     C19445   1.483   9.230   0.475  0.1340 -0.0870 -0.3973
  148MOL0     C19446   1.626   9.171   0.484  0.0615 -0.3598 -0.4579
  148MOL0     C19447   1.706   9.227   0.606  0.3151  0.0563 -0.3390
  148MOL0    Cl19448   1.771   9.401   0.580 -0.2969 -0.3585 -0.1376
  148MOL0     C19449   1.514   8.623   0.389 -0.5086  1.1310  1.0011
  148MOL0     C19450   1.618   8.525   0.411 -1.0001 -1.6070  0.3091
  148MOL0     O19451   1.871   8.334   0.186 -0.2388 -0.4613  0.0164
  148MOL0     C19452   2.020   8.107   0.276  0.8190  0.4740  0.9079
  148MOL0     C19453   2.088   7.995   0.314  0.1770  0.6547 -0.1477
  148MOL0     N19454   2.348   7.299   0.480 -0.1615 -0.2672  0.0589
  148MOL0     N19455   2.343   7.175   0.512 -0.0861 -0.2019 -0.3585
  148MOL0     C19456   3.315   6.306   0.701 -0.3566 -0.7195  0.1659
  148MOL0     C19457   3.435   6.247   0.697  0.7259 -0.0148 -0.5120
  148MOL0     C19458   3.818   6.025   0.785 -0.3860 -0.5894  0.4382
  148MOL0     C19459   3.853   5.888   0.809  0.0186  0.3622  0.1966
  148MOL0     C19460   3.984   5.843   0.799  0.8518  0.5328 -0.8797
  148MOL0     C19461   4.083   5.934   0.766  0.2358  0.0500  0.1166
  148MOL0     O19462   4.214   5.908   0.757 -0.0482  0.1031 -0.4392
  148MOL0     C19463   4.276   5.800   0.836  0.6935  0.4088  0.2820
  148MOL0     C19464   4.424   5.833   0.825 -0.9681 -0.4332 -0.0263
  148MOL0     C19465   4.512   5.754   0.728 -0.2109  0.2812 -0.0860
  148MOL0     C19466   4.651   5.750   0.789 -0.4909  0.1804 -0.0460
  148MOL0     C19467   4.754   5.705   0.693  0.0840  0.6961 -0.4181
  148MOL0     C19468   4.847   5.665   0.620 -0.3215 -1.0304 -0.6903
  148MOL0     C19469   4.059   6.066   0.748  0.0259 -1.1528  0.3611
  148MOL0     C19470   3.927   6.111   0.752 -0.0794 -0.5267  0.4251
  148MOL0     H19471   3.549   6.318   1.006 -1.3311 -1.2346 -0.2032
  148MOL0     H19472   3.329   6.427   1.013 -2.7051 -0.7432 -1.0472
  148MOL0     H19473   3.054   6.298   0.864  0.5214  0.7127 -0.8239
  148MOL0     H19474   3.028   6.360   0.702  1.1149 -0.9727  0.1978
  148MOL0     H19475   2.929   6.484   0.976  1.3758  2.5453 -1.1978
  148MOL0     H19476   2.828   6.411   0.858 -0.3840  0.0221  0.6244
  148MOL0     H19477   2.927   6.579   0.687 -0.7434  1.3126  0.2120
  148MOL0     H19478   3.013   6.660   0.826  1.5649 -1.6383  2.1901
  148MOL0     H19479   2.703   6.619   0.803 -2.0275  1.6987  1.5072
  148MOL0     H19480   2.794   6.691   0.933 -0.5157  0.8111 -0.5807
  148MOL0     H19481   2.806   6.790   0.642  1.4504  2.0240 -0.4198
  148MOL0     H19482   2.851   6.893   0.780  0.0690 -0.5430  0.3155
  148MOL0     H19483   2.600   6.863   0.852 -1.1128 -4.3234 -0.0973
  148MOL0     H19484   2.577   6.780   0.710 -0.0962 -0.0616  0.1792
  148MOL0     H19485   2.685   7.069   0.703 -0.9207  1.2292 -1.4254
  148MOL0     H19486   2.677   6.962   0.562  2.3876  1.5166  1.1913
  148MOL0     H19487   2.447   7.021   0.761 -3.8322  0.8277 -0.3572
  148MOL0     H19488   2.433   6.945   0.601  1.0466  0.5006 -0.1799
  148MOL0     H19489   2.598   7.283   0.693  0.1265 -0.4089 -1.4171
  148MOL0     H19490   2.590   7.522   0.519 -0.3764 -1.2003 -2.0050
  148MOL0     H19491   2.475   7.549   0.654 -0.1042 -0.0027  0.4865
  148MOL0     H19492   2.396   7.543   0.355  0.6069 -0.0680 -0.5313
  148MOL0     H19493   2.461   7.681   0.427 -0.2090 -0.0210  1.0155
  148MOL0     H19494   2.198   7.551   0.533  0.5112 -1.4298 -0.9704
  148MOL0     H19495   2.302   7.688   0.601 -0.7886 -2.5552  1.9875
  148MOL0     H19496   2.172   7.654   0.324  2.3701 -0.9755 -0.2312
  148MOL0     H19497   2.272   7.785   0.357  0.9094 -0.4502 -0.2102
  148MOL0     H19498   1.867   7.916   0.573 -2.3868  0.4970 -1.7131
  148MOL0     H19499   1.778   8.109   0.504  0.0348 -2.1930  0.1796
  148MOL0     H19500   1.569   8.326   0.144  0.6980  0.1347  0.0599
  148MOL0     H19501   1.388   8.482   0.099  1.0730  2.5414 -2.7674
  148MOL0     H19502   1.297   8.747   0.443  0.8780 -1.5916 -0.3600
  148MOL0     H19503   1.188   8.637   0.367  1.3972 -0.4250  1.7368
  148MOL0     H19504   1.078   8.862   0.367 -2.0368 -1.5761 -1.6406
  148MOL0     H19505   1.115   8.829   0.205  2.5261 -2.0292 -0.3630
  148MOL0     H19506   1.205   9.053   0.235  1.6226 -1.0091 -1.2960
  148MOL0     H19507   1.323   8.943   0.194 -2.1243 -0.3074 -1.9209
  148MOL0     H19508   1.299   9.011   0.487 -0.7318 -1.0051  0.7423
  148MOL0     H19509   1.442   8.956   0.401 -1.4571 -0.3122  1.7089
  148MOL0     H19510   1.298   9.217   0.351 -1.8000 -2.5405  0.2687
  148MOL0     H19511   1.453   9.157   0.270  1.7374 -0.9530  0.6375
  148MOL0     H19512   1.425   9.208   0.565  1.0807 -2.3080 -0.2544
  148MOL0     H19513   1.498   9.336   0.454  2.6763  0.3989  2.9480
  148MOL0     H19514   1.622   9.062   0.489  2.2731 -0.4530  0.7309
  148MOL0     H19515   1.679   9.196   0.391 -2.2913  1.9875 -1.2873
  148MOL0     H19516   1.799   9.175   0.629  2.1698  2.4188 -2.0297
  148MOL0     H19517   1.644   9.221   0.696  4.2407  0.7856  2.6773
  148MOL0     H19518   1.495   8.694   0.469 -2.7749  2.1101 -0.3150
  148MOL0     H19519   1.685   8.525   0.496  0.1975 -1.1475 -0.6110
  148MOL0     H19520   2.062   8.150   0.186  0.4550 -1.4163 -0.2168
  148MOL0     H19521   2.174   7.961   0.255  0.9015 -0.3316  1.4170
  148MOL0     H19522   3.251   6.312   0.613 -0.3942 -1.2454  0.1512
  148MOL0     H19523   3.457   6.200   0.601 -2.4074 -0.1451 -1.2488
  148MOL0     H19524   3.773   5.819   0.836 -0.3497 -0.0753 -1.8505
  148MOL0     H19525   4.000   5.736   0.804  2.4534  0.7629 -0.7752
  148MOL0     H19526   4.249   5.708   0.783  1.3541  0.2651  0.1862
  148MOL0     H19527   4.241   5.792   0.939 -0.8662 -0.1499 -0.2598
  148MOL0     H19528   4.431   5.938   0.797  0.7454 -0.1950  1.1398
  148MOL0     H19529   4.467   5.829   0.926 -0.9521  1.6447  0.0843
  148MOL0     H19530   4.525   5.805   0.632 -1.3473 -0.9690 -0.9334
  148MOL0     H19531   4.472   5.656   0.703  0.3141  0.3653 -1.3114
  148MOL0     H19532   4.672   5.851   0.825 -0.6764 -0.0349  0.6865
  148MOL0     H19533   4.656   5.679   0.873  2.0669 -0.7702 -0.8899
  148MOL0     H19534   4.929   5.634   0.558  1.4118  0.7285  0.6048
  148MOL0     H19535   4.151   6.124   0.736 -0.9627  1.0464  2.6042
  148MOL0     H19536   3.913   6.217   0.736  0.3313 -0.5770 -0.2909
  149MOL0     O19537   0.370   2.467   9.170 -0.3398 -0.2884 -0.3165
  149MOL0     C19538   0.406   2.371   9.240 -0.2845 -1.0881 -0.3005
  149MOL0     O19539   0.339   2.261   9.271  0.3060  0.3271 -0.4834
  149MOL0     C19540   0.208   2.261   9.233 -0.0789 -0.2301 -0.0060
  149MOL0     C19541   0.147   2.138   9.210 -1.1281  0.1069 -0.2703
  149MOL0     C19542   0.014   2.125   9.171 -0.0848  0.2758 -0.2261
  149MOL0     C19543  -0.069   2.235   9.156 -0.0003  0.4934 -0.4834
  149MOL0     O19544  -0.196   2.204   9.105 -0.0050  0.2764 -0.1452
  149MOL0     C19545  -0.272   2.292   9.019 -0.5251 -0.1678  0.0955
  149MOL0     C19546  -0.392   2.226   8.942  0.5818  0.2030  0.4843
  149MOL0     C19547  -0.448   2.104   9.017  0.2139 -0.7253 -0.5224
  149MOL0     C19548  -0.530   2.149   9.139  0.4897  0.0619 -0.5891
  149MOL0     C19549  -0.561   2.033   9.220  0.8867  0.5348 -0.0965
  149MOL0     C19550  -0.682   2.066   9.319  0.7788 -0.2938 -0.0519
  149MOL0     C19551  -0.699   1.961   9.428  0.0854  0.9812 -0.2918
  149MOL0     C19552  -0.775   1.837   9.377 -0.3857  0.0479  0.4219
  149MOL0     N19553  -0.911   1.836   9.323  0.0745 -0.3724 -0.4653
  149MOL0     C19554  -1.012   1.920   9.370  0.0145  0.9482 -0.5743
  149MOL0     C19555  -1.122   1.893   9.298  0.3509  0.6453 -0.1036
  149MOL0     C19556  -1.252   1.964   9.342  0.3904  0.9577 -0.0998
  149MOL0     C19557  -1.285   2.084   9.254 -0.3367  0.4502  0.1809
  149MOL0     C19558  -1.430   2.135   9.288 -0.5642  0.6365  0.2520
  149MOL0     C19559  -1.464   2.261   9.206  0.0370  1.0275 -0.1420
  149MOL0     O19560  -1.528   2.346   9.294 -0.2058  0.5338 -0.4742
  149MOL0     C19561  -1.659   2.302   9.330  0.6722 -0.5745  0.3087
  149MOL0     C19562  -1.738   2.201   9.269  0.0291  0.3719  0.7680
  149MOL0     C19563  -1.858   2.164   9.326  0.4684 -0.7985  0.9006
  149MOL0     C19564  -1.918   2.241   9.429  0.8828 -0.5522 -0.3783
  149MOL0     C19565  -2.061   2.220   9.471 -0.0050 -0.2214  0.1769
  149MOL0     O19566  -2.105   2.104   9.427 -0.8132 -0.1894 -0.1952
  149MOL0     C19567  -2.238   2.069   9.447 -0.1186  1.0122 -0.6713
  149MOL0     C19568  -2.341   2.150   9.407 -0.2957 -1.1324  0.3374
  149MOL0     C19569  -2.470   2.121   9.457 -0.4802 -0.5308 -0.2249
  149MOL0     C19570  -2.509   2.004   9.518 -0.4811  0.8775 -1.0330
  149MOL0     O19571  -2.640   1.979   9.539  0.3464  1.0262 -0.2959
  149MOL0     C19572  -2.687   1.845   9.505 -0.0969 -0.1989  0.3009
  149MOL0     C19573  -2.811   1.859   9.419  0.6478 -0.3239  0.9648
  149MOL0     C19574  -2.898   1.985   9.468 -0.7844  0.1656  1.2774
  149MOL0     C19575  -3.025   1.993   9.379 -0.0654  0.6569  0.3401
  149MOL0     C19576  -3.103   2.121   9.414 -0.7143  0.1042 -0.4452
  149MOL0     C19577  -3.254   2.103   9.405 -0.0583  0.3934 -0.6082
  149MOL0     C19578  -3.329   2.211   9.475  1.4481  0.0226 -0.4315
  149MOL0     C19579  -3.473   2.173   9.516 -1.0138  0.2380  0.6163
  149MOL0    Cl19580  -3.574   2.148   9.354  0.6388 -0.0976 -0.0214
  149MOL0     C19581  -2.401   1.919   9.551  0.5684 -0.9880 -0.2784
  149MOL0     C19582  -2.277   1.955   9.517 -0.3045  0.3838 -0.9588
  149MOL0     O19583  -2.120   2.313   9.531  0.3584  0.4943 -0.2477
  149MOL0     C19584  -1.847   2.347   9.486 -0.5294 -0.3889  0.9399
  149MOL0     C19585  -1.718   2.369   9.441 -0.0748 -0.9859 -0.2101
  149MOL0     N19586  -1.089   1.794   9.206 -0.1424 -0.8494 -0.0891
  149MOL0     N19587  -0.961   1.767   9.211 -0.6237  0.3896  0.7239
  149MOL0     C19588  -0.013   2.362   9.190 -0.3585  0.9098 -0.3875
  149MOL0     C19589   0.119   2.376   9.224 -0.8374 -0.0502  0.0219
  149MOL0     C19590   0.542   2.382   9.293  0.4655  0.0621  0.2625
  149MOL0     C19591   0.627   2.271   9.299  0.7233  1.3197 -0.9907
  149MOL0     C19592   0.760   2.284   9.356  0.7497 -0.7265 -1.5898
  149MOL0     C19593   0.820   2.412   9.386  0.4231 -0.1092 -0.0084
  149MOL0     O19594   0.941   2.447   9.438 -0.0556 -0.7166  0.0242
  149MOL0     C19595   1.004   2.354   9.520  0.5849 -0.8992 -0.2946
  149MOL0     C19596   1.110   2.268   9.436  0.1352  0.0562 -0.3081
  149MOL0     C19597   1.208   2.208   9.533  0.2917 -0.4328  0.1052
  149MOL0     C19598   1.319   2.116   9.482 -0.5307 -0.4659 -0.1088
  149MOL0     C19599   1.262   1.980   9.460  0.8996 -0.4477 -0.6771
  149MOL0     C19600   1.218   1.864   9.451 -0.7466  0.2265 -0.8362
  149MOL0     C19601   0.725   2.518   9.371  0.0829  0.2510  0.2124
  149MOL0     C19602   0.597   2.506   9.319  1.0640  0.3511  0.5036
  149MOL0     H19603   0.213   2.052   9.217 -3.4126 -1.7930 -0.8178
  149MOL0     H19604  -0.020   2.024   9.153  2.0029 -0.4096 -0.5748
  149MOL0     H19605  -0.202   2.334   8.947 -0.2031  1.0494  1.0707
  149MOL0     H19606  -0.314   2.379   9.072  0.5669  0.9626 -0.8343
  149MOL0     H19607  -0.364   2.188   8.843 -0.6709  3.9427 -1.5160
  149MOL0     H19608  -0.463   2.302   8.907  0.2434 -1.0012 -1.6583
  149MOL0     H19609  -0.374   2.029   9.046  0.6171  0.0226  0.4365
  149MOL0     H19610  -0.520   2.048   8.958 -0.4898  0.0973 -0.4574
  149MOL0     H19611  -0.467   2.209   9.206  0.7063 -0.9667  0.1566
  149MOL0     H19612  -0.614   2.210   9.105  0.4717  0.8850  0.8658
  149MOL0     H19613  -0.469   2.015   9.277  1.5422  0.8700 -1.0248
  149MOL0     H19614  -0.584   1.952   9.150 -1.1481  0.9066  0.0678
  149MOL0     H19615  -0.771   2.082   9.258  1.8273 -1.9284 -2.1472
  149MOL0     H19616  -0.653   2.161   9.364  0.5579  0.2966 -1.1405
  149MOL0     H19617  -0.603   1.925   9.465 -1.3778 -2.9598  0.1622
  149MOL0     H19618  -0.746   2.007   9.516  1.5651  0.1850  0.9658
  149MOL0     H19619  -0.787   1.774   9.465 -2.8318  2.8065  2.2254
  149MOL0     H19620  -0.703   1.788   9.311  0.8186  3.3400 -0.9392
  149MOL0     H19621  -1.007   1.996   9.447  0.9482 -0.4890  0.8629
  149MOL0     H19622  -1.247   1.987   9.449 -0.7688 -2.2124  0.7409
  149MOL0     H19623  -1.329   1.888   9.333 -0.2435  1.3854  1.3761
  149MOL0     H19624  -1.284   2.056   9.148  1.7706 -1.4883  0.6432
  149MOL0     H19625  -1.207   2.155   9.282  2.3230 -3.2025  3.0249
  149MOL0     H19626  -1.490   2.047   9.264  0.4776  0.5944 -2.5548
  149MOL0     H19627  -1.428   2.166   9.393  0.6280  2.8994 -0.3748
  149MOL0     H19628  -1.528   2.223   9.125  0.0496 -3.3838  1.6366
  149MOL0     H19629  -1.374   2.308   9.166  1.3220  0.0240  1.4475
  149MOL0     H19630  -1.701   2.160   9.176  0.5054  2.3562  0.0175
  149MOL0     H19631  -1.913   2.078   9.288 -1.2680  0.7277 -0.2231
  149MOL0     H19632  -2.314   2.242   9.356 -2.9330 -0.0048  0.8055
  149MOL0     H19633  -2.540   2.197   9.421 -0.0907  0.2231  0.5741
  149MOL0     H19634  -2.719   1.786   9.591 -0.1960  0.0352  0.4256
  149MOL0     H19635  -2.614   1.782   9.453 -2.2258 -4.3687  1.8863
  149MOL0     H19636  -2.869   1.766   9.421 -0.6720  0.4521 -0.0445
  149MOL0     H19637  -2.774   1.870   9.317  2.1299  1.2925  1.6146
  149MOL0     H19638  -2.840   2.078   9.467 -0.4852 -0.0030  2.0899
  149MOL0     H19639  -2.930   1.972   9.572 -1.4382  2.5160  1.4116
  149MOL0     H19640  -3.007   1.992   9.272  0.3545 -2.2685  0.3734
  149MOL0     H19641  -3.084   1.907   9.412  0.7403  0.6885  1.9878
  149MOL0     H19642  -3.069   2.209   9.358  1.7987 -0.3207  0.3014
  149MOL0     H19643  -3.079   2.139   9.519  1.1313 -2.5691 -0.3270
  149MOL0     H19644  -3.272   2.007   9.454  1.3958 -0.7703 -2.2307
  149MOL0     H19645  -3.298   2.085   9.307 -2.7150 -0.7285  0.7181
  149MOL0     H19646  -3.292   2.235   9.575 -1.7335 -1.3252  1.1996
  149MOL0     H19647  -3.330   2.305   9.420  2.1531  0.5928  0.4897
  149MOL0     H19648  -3.513   2.250   9.583  0.0048  0.5677  0.8515
  149MOL0     H19649  -3.467   2.081   9.575 -1.0410 -0.1899 -0.0328
  149MOL0     H19650  -2.408   1.828   9.610  3.1669 -0.1222  1.5565
  149MOL0     H19651  -2.202   1.893   9.566 -0.7063  1.1648  0.6936
  149MOL0     H19652  -1.869   2.405   9.575  1.9601  2.0082  0.1500
  149MOL0     H19653  -1.651   2.445   9.481 -1.1721 -0.3310  0.4156
  149MOL0     H19654  -0.084   2.444   9.181 -1.7493  0.3405  3.4146
  149MOL0     H19655   0.164   2.468   9.260  2.9583 -2.7527  2.9343
  149MOL0     H19656   0.588   2.174   9.269 -2.8973  1.9415  1.1698
  149MOL0     H19657   0.815   2.192   9.377 -1.8039 -2.7319 -3.0893
  149MOL0     H19658   0.938   2.280   9.566  0.9429  0.4380  2.6500
  149MOL0     H19659   1.050   2.410   9.602  1.7757 -0.7001 -1.0715
  149MOL0     H19660   1.061   2.186   9.383 -1.1345 -0.8737  2.1400
  149MOL0     H19661   1.163   2.333   9.366  0.0471 -1.5774 -1.9634
  149MOL0     H19662   1.139   2.147   9.592 -1.4691  1.1007 -0.2800
  149MOL0     H19663   1.241   2.294   9.591  0.2780 -2.2326  2.9549
  149MOL0     H19664   1.364   2.150   9.389  0.6176 -1.7728 -0.0688
  149MOL0     H19665   1.394   2.108   9.562 -1.2956 -0.9725  0.5745
  149MOL0     H19666   1.158   1.777   9.436  0.0899 -0.2512 -1.4135
  149MOL0     H19667   0.769   2.616   9.392  0.1039  0.1270  0.7591
  149MOL0     H19668   0.542   2.596   9.295  3.6444  1.5131 -1.5539
  150MOL0     O19669  10.016  10.061  10.914 -0.4870 -0.6005  0.1899
  150MOL0     C19670  10.042  10.019  10.804  0.3351  0.1266 -0.3798
  150MOL0     O19671   9.956  10.030  10.699 -0.9776  0.5968 -0.3582
  150MOL0     C19672   9.827  10.057  10.713 -0.6201 -0.0657  0.4346
  150MOL0     C19673   9.769  10.173  10.670  0.1678  0.4210  0.0139
  150MOL0     C19674   9.633  10.197  10.693  0.7843 -1.1473 -0.6414
  150MOL0     C19675   9.552  10.103  10.756 -0.4569 -0.4958 -0.6797
  150MOL0     O19676   9.421  10.115  10.757  0.5847  0.1786 -0.2505
  150MOL0     C19677   9.369  10.254  10.761 -0.5297  0.0481  0.1586
  150MOL0     C19678   9.228  10.238  10.813  0.7309  0.1112 -0.5770
  150MOL0     C19679   9.149  10.363  10.777 -0.1191 -0.0043  0.0672
  150MOL0     C19680   8.998  10.369  10.823  0.5036  0.3616  0.1294
  150MOL0     C19681   8.947  10.488  10.740 -0.0394 -0.6435 -0.0978
  150MOL0     C19682   8.800  10.507  10.773 -0.0763  0.4236 -0.0005
  150MOL0     C19683   8.747  10.647  10.737  0.3289  0.6009 -0.1697
  150MOL0     C19684   8.651  10.643  10.611 -1.1176 -0.1207 -0.8321
  150MOL0     N19685   8.635  10.777  10.547 -0.7693 -0.4316  0.1121
  150MOL0     C19686   8.620  10.892  10.615  0.3958 -0.3169 -0.1025
  150MOL0     C19687   8.647  10.996  10.529 -0.3696  0.1827  0.7437
  150MOL0     C19688   8.639  11.141  10.552 -0.8585 -0.1034 -0.4233
  150MOL0     C19689   8.495  11.196  10.521 -0.2775  0.4624  0.2527
  150MOL0     C19690   8.492  11.331  10.451  0.0337  0.8995 -0.0577
  150MOL0     C19691   8.361  11.407  10.450 -1.0042  0.2026  0.2179
  150MOL0     O19692   8.274  11.317  10.386  0.3530  0.1270  0.3375
  150MOL0     C19693   8.149  11.363  10.368 -0.8509 -0.0878  0.2425
  150MOL0     C19694   8.063  11.276  10.299 -0.8578  0.3700  0.3251
  150MOL0     C19695   7.924  11.295  10.296  0.0427  0.0737 -0.9092
  150MOL0     C19696   7.870  11.422  10.341  0.0610  0.3141 -0.3882
  150MOL0     C19697   7.728  11.449  10.325 -0.1895 -0.1976  0.1689
  150MOL0     O19698   7.640  11.355  10.269  0.2380  0.6016  0.1523
  150MOL0     C19699   7.512  11.371  10.315  0.0233 -0.2421 -0.0162
  150MOL0     C19700   7.455  11.290  10.412 -0.1972 -0.0837 -0.5942
  150MOL0     C19701   7.321  11.297  10.439 -0.4692  0.6830 -0.2258
  150MOL0     C19702   7.238  11.384  10.378 -0.1118 -0.3067 -0.0628
  150MOL0     O19703   7.108  11.403  10.393 -0.1891  0.3264  0.1753
  150MOL0     C19704   7.041  11.294  10.453 -0.2697  0.8471  0.8450
  150MOL0     C19705   6.889  11.296  10.453 -0.0397 -0.3426 -0.0420
  150MOL0     C19706   6.836  11.354  10.581  0.3023 -1.0863 -0.5379
  150MOL0     C19707   6.680  11.381  10.573  0.4083  0.5075 -0.1144
  150MOL0     C19708   6.630  11.435  10.705  0.2556  0.2582 -0.6854
  150MOL0     C19709   6.475  11.434  10.712  0.5951 -0.3014  1.2363
  150MOL0     C19710   6.429  11.480  10.850  0.0316 -0.3318  0.9253
  150MOL0     C19711   6.274  11.455  10.864  0.2668 -1.2446  0.4876
  150MOL0    Cl19712   6.221  11.517  11.020  0.0622  0.2590  0.3781
  150MOL0     C19713   7.293  11.465  10.283 -0.3112  0.1582  0.1354
  150MOL0     C19714   7.429  11.460  10.246 -0.1322  0.0583  0.2031
  150MOL0     O19715   7.696  11.560  10.365  0.2471  0.2363  0.4863
  150MOL0     C19716   7.956  11.515  10.406 -0.2571  0.5176 -0.4030
  150MOL0     C19717   8.087  11.482  10.422 -0.1172  0.2252 -0.6443
  150MOL0     N19718   8.690  10.936  10.413  0.2421  0.4651  0.2472
  150MOL0     N19719   8.696  10.809  10.429  0.3624 -0.1107 -0.0820
  150MOL0     C19720   9.603   9.986  10.797  0.4358  0.0650 -0.3647
  150MOL0     C19721   9.743   9.963  10.774 -0.1222  1.0805 -0.1256
  150MOL0     C19722  10.172   9.962  10.774  0.8576  0.0867 -0.2281
  150MOL0     C19723  10.215   9.961  10.642  0.4512  0.2901  0.5310
  150MOL0     C19724  10.336   9.902  10.610  0.3540  0.0906  0.6434
  150MOL0     C19725  10.425   9.856  10.714  0.2906  0.1929  0.4381
  150MOL0     O19726  10.548   9.808  10.687  0.2230  0.7711  0.8469
  150MOL0     C19727  10.552   9.688  10.605 -0.3329 -0.5338 -0.0585
  150MOL0     C19728  10.704   9.653  10.632  0.2873 -0.2446  0.6173
  150MOL0     C19729  10.725   9.504  10.589  0.1940  0.0764  0.0098
  150MOL0     C19730  10.869   9.446  10.605  0.2078  0.6171 -0.1809
  150MOL0     C19731  10.968   9.522  10.524  0.1976  0.1120  0.4814
  150MOL0     C19732  11.067   9.567  10.470 -0.4102 -0.5488 -1.1558
  150MOL0     C19733  10.367   9.850  10.847  0.2181  0.4469 -0.2070
  150MOL0     C19734  10.244   9.907  10.878 -0.1778  0.2967  0.0157
  150MOL0     H19735   9.834  10.248  10.628 -2.3899  1.1588 -3.0812
  150MOL0     H19736   9.593  10.286  10.645 -2.3150 -2.0108  0.1288
  150MOL0     H19737   9.372  10.309  10.666 -0.8468 -0.3606 -0.0906
  150MOL0     H19738   9.427  10.310  10.835 -0.9118  0.6322  0.0246
  150MOL0     H19739   9.231  10.204  10.917  0.0619 -0.8256 -0.8447
  150MOL0     H19740   9.182  10.155  10.758 -1.3894  1.1701 -0.5064
  150MOL0     H19741   9.146  10.370  10.668 -0.4562 -1.0004  0.0043
  150MOL0     H19742   9.205  10.452  10.810  2.5805 -1.7623  0.5860
  150MOL0     H19743   8.948  10.273  10.804  3.1921 -1.3937  1.3400
  150MOL0     H19744   8.989  10.391  10.929  3.9231  1.2595  0.3556
  150MOL0     H19745   8.959  10.464  10.634  0.7995 -4.3322  0.7078
  150MOL0     H19746   9.007  10.575  10.767 -1.6628 -0.3458  2.9674
  150MOL0     H19747   8.796  10.500  10.882  1.5238 -2.9851 -0.0187
  150MOL0     H19748   8.747  10.424  10.725  2.7158 -0.8997 -1.0118
  150MOL0     H19749   8.693  10.680  10.826  0.2008  1.3530 -0.5193
  150MOL0     H19750   8.837  10.704  10.718  0.1264  1.4190  1.1833
  150MOL0     H19751   8.551  10.611  10.642 -0.6129 -0.7739  0.1901
  150MOL0     H19752   8.689  10.578  10.531 -1.8907 -0.0750 -1.2441
  150MOL0     H19753   8.574  10.901  10.712 -1.9811  0.2025 -1.1977
  150MOL0     H19754   8.715  11.194  10.495 -0.2855  1.0371  1.3127
  150MOL0     H19755   8.653  11.162  10.659 -0.8241 -1.9279 -0.0424
  150MOL0     H19756   8.450  11.201  10.621  0.7039 -1.0714  0.8094
  150MOL0     H19757   8.446  11.128  10.450  0.6040 -3.2193  2.8711
  150MOL0     H19758   8.559  11.393  10.512 -0.4242  1.0018  0.3511
  150MOL0     H19759   8.534  11.324  10.350  2.4083 -0.4339  0.9444
  150MOL0     H19760   8.376  11.494  10.386  1.8598 -1.5736 -1.7428
  150MOL0     H19761   8.329  11.436  10.551  2.2282  1.6559  0.9560
  150MOL0     H19762   8.104  11.184  10.259  1.5491  1.4420  0.1472
  150MOL0     H19763   7.872  11.212  10.249 -0.5294  0.3389 -0.7507
  150MOL0     H19764   7.515  11.214  10.462  0.5716  0.1620 -1.1371
  150MOL0     H19765   7.285  11.218  10.504  0.5744  0.0591 -0.3676
  150MOL0     H19766   7.070  11.282  10.558 -3.3715 -0.2495  1.6906
  150MOL0     H19767   7.069  11.204  10.397  0.9575  0.8540  1.4036
  150MOL0     H19768   6.841  11.198  10.444 -1.7464  0.4882 -0.3555
  150MOL0     H19769   6.862  11.369  10.376  1.5151 -1.2707 -1.5285
  150MOL0     H19770   6.898  11.438  10.612 -1.7534  0.4787 -0.4010
  150MOL0     H19771   6.844  11.273  10.654  0.5541 -0.0504  0.6161
  150MOL0     H19772   6.650  11.454  10.498 -2.1550  1.1809  1.4190
  150MOL0     H19773   6.623  11.288  10.560  0.8251  0.1936  0.2988
  150MOL0     H19774   6.654  11.540  10.726  0.0184  0.0677  0.6384
  150MOL0     H19775   6.678  11.380  10.786 -0.0505 -1.6307 -1.7494
  150MOL0     H19776   6.439  11.332  10.696  0.2520 -0.3767  2.4212
  150MOL0     H19777   6.430  11.503  10.641  0.3155  0.6442  2.3000
  150MOL0     H19778   6.495  11.438  10.926  0.5618 -0.6940  0.2734
  150MOL0     H19779   6.452  11.587  10.847  0.0512 -0.2930  2.0588
  150MOL0     H19780   6.256  11.347  10.864 -0.1468 -1.2875 -2.9718
  150MOL0     H19781   6.226  11.510  10.782 -1.3908  1.9799  3.3675
  150MOL0     H19782   7.223  11.528  10.230  0.8850 -0.2786 -2.0920
  150MOL0     H19783   7.483  11.531  10.183  0.4665  1.6149  2.3326
  150MOL0     H19784   7.913  11.609  10.441  1.0579 -0.2564  3.7708
  150MOL0     H19785   8.149  11.550  10.480 -1.1791 -1.3785  2.6388
  150MOL0     H19786   9.531   9.916  10.838 -1.5667  2.1778 -0.0204
  150MOL0     H19787   9.788   9.872  10.812 -2.5656  0.4287  1.3943
  150MOL0     H19788  10.147   9.992  10.564  0.6683 -2.4906 -0.8815
  150MOL0     H19789  10.366   9.911  10.506  2.1726  0.0536  1.1348
  150MOL0     H19790  10.537   9.708  10.499  1.5179 -1.2497 -0.4997
  150MOL0     H19791  10.481   9.611  10.637  0.1746 -0.6310  0.8649
  150MOL0     H19792  10.773   9.722  10.584  2.0544 -0.7073  2.3546
  150MOL0     H19793  10.734   9.664  10.737 -0.7734  2.5447  0.7045
  150MOL0     H19794  10.712   9.508  10.481  0.0304 -1.0839 -0.0291
  150MOL0     H19795  10.647   9.439  10.631  0.0976 -0.8394 -1.5462
  150MOL0     H19796  10.902   9.448  10.710  0.1625 -1.0148 -0.1081
  150MOL0     H19797  10.869   9.344  10.567 -0.8867  1.4263 -2.5257
  150MOL0     H19798  11.158   9.605  10.429  0.9334 -1.9412  0.3882
  150MOL0     H19799  10.433   9.814  10.926  2.0269  1.7026 -1.0758
  150MOL0     H19800  10.210   9.917  10.980  0.1399  1.1020  0.0544
  151MOL0     O19801  10.545   6.576   9.826  0.5096 -0.0857  0.3564
  151MOL0     C19802  10.570   6.483   9.901 -0.8595 -0.7025 -0.2762
  151MOL0     O19803  10.484   6.430   9.995 -0.0666  0.4387 -0.6716
  151MOL0     C19804  10.372   6.506  10.010 -0.1240 -0.0030  0.1844
  151MOL0     C19805  10.249   6.454   9.975  0.2928  0.2762  0.1648
  151MOL0     C19806  10.139   6.535   9.984  0.2413  0.3775  0.7789
  151MOL0     C19807  10.143   6.658  10.047  0.1174  1.1746 -0.0138
  151MOL0     O19808  10.021   6.710  10.083  0.3690  0.0538 -0.1614
  151MOL0     C19809  10.007   6.776  10.204 -0.6498  0.2823 -0.2475
  151MOL0     C19810   9.859   6.781  10.252 -0.2796 -0.2158  0.2443
  151MOL0     C19811   9.773   6.883  10.177 -0.6855  0.2717 -0.1024
  151MOL0     C19812   9.624   6.878  10.208  0.9042  0.6577  0.2176
  151MOL0     C19813   9.538   6.976  10.132 -0.6172 -0.4320  0.3673
  151MOL0     C19814   9.392   6.979  10.161  0.5268 -0.0646 -0.2429
  151MOL0     C19815   9.318   7.086  10.097  0.0610 -0.3182 -1.0206
  151MOL0     C19816   9.171   7.057  10.097 -0.1879 -0.5533 -0.1679
  151MOL0     N19817   9.084   7.169  10.052 -0.2525  0.4784 -0.3119
  151MOL0     C19818   9.055   7.198   9.921  0.1045  0.2880 -0.2248
  151MOL0     C19819   8.966   7.296   9.925 -0.0469 -0.1785  0.6911
  151MOL0     C19820   8.911   7.375   9.813  0.5078 -0.2116  0.4012
  151MOL0     C19821   8.776   7.315   9.773 -0.6488 -0.5425 -0.0918
  151MOL0     C19822   8.776   7.186   9.686  0.8672 -0.6999  0.4822
  151MOL0     C19823   8.636   7.125   9.664  0.6438  0.4041  0.2138
  151MOL0     O19824   8.525   7.217   9.678 -0.1952 -0.1417  0.3408
  151MOL0     C19825   8.401   7.168   9.645  0.1583 -0.0332 -0.1988
  151MOL0     C19826   8.370   7.033   9.629  0.6929  0.6036  0.6201
  151MOL0     C19827   8.238   6.992   9.621  1.0213  0.3765  0.3611
  151MOL0     C19828   8.132   7.085   9.635 -0.0540  0.1492 -0.8296
  151MOL0     C19829   7.993   7.038   9.610 -0.7046 -0.0959  0.7121
  151MOL0     O19830   7.967   6.907   9.640  0.2867  0.0938  0.0900
  151MOL0     C19831   7.836   6.862   9.655 -0.1058 -0.8188  0.1974
  151MOL0     C19832   7.796   6.746   9.593  0.5803 -0.5915  0.3548
  151MOL0     C19833   7.664   6.696   9.596 -0.3193  0.0395  0.4751
  151MOL0     C19834   7.564   6.777   9.645 -0.1241 -0.0261  0.3111
  151MOL0     O19835   7.433   6.733   9.646 -1.0650 -0.5369  0.2823
  151MOL0     C19836   7.339   6.813   9.714  0.5037 -0.9479  0.5725
  151MOL0     C19837   7.198   6.744   9.687 -0.1881  0.1251 -0.1166
  151MOL0     C19838   7.081   6.811   9.757 -0.3344 -0.6367  0.5736
  151MOL0     C19839   6.973   6.706   9.761 -0.2753  0.3244 -0.7146
  151MOL0     C19840   6.840   6.760   9.824  0.8552 -0.1971  1.0258
  151MOL0     C19841   6.712   6.677   9.787  0.5864  0.2921  0.9918
  151MOL0     C19842   6.588   6.712   9.862 -0.3694  0.3608  1.1991
  151MOL0     C19843   6.454   6.641   9.819  0.0390  0.0996 -0.5829
  151MOL0    Cl19844   6.316   6.684   9.929  0.4341  0.3987 -0.2516
  151MOL0     C19845   7.602   6.893   9.714 -0.3840 -0.9592 -0.3294
  151MOL0     C19846   7.735   6.932   9.717  0.2165  0.3001  1.2019
  151MOL0     O19847   7.910   7.129   9.574 -0.0039  0.8378 -0.1044
  151MOL0     C19848   8.163   7.220   9.641 -1.5236 -0.8192 -0.0931
  151MOL0     C19849   8.296   7.264   9.650 -1.0225 -0.0614 -0.1139
  151MOL0     N19850   8.934   7.322  10.055  0.5354  0.0333  0.9355
  151MOL0     N19851   8.999   7.240  10.135 -0.3840  0.5896 -0.6311
  151MOL0     C19852  10.266   6.706  10.096  0.2997 -0.6161  0.2068
  151MOL0     C19853  10.385   6.628  10.078 -0.1700  0.0295 -1.0110
  151MOL0     C19854  10.698   6.413   9.873 -0.7353 -0.2503  0.0108
  151MOL0     C19855  10.730   6.300   9.947  0.1743 -0.2615 -0.8055
  151MOL0     C19856  10.852   6.239   9.942 -0.1196 -0.2842  0.2038
  151MOL0     C19857  10.949   6.282   9.847 -0.2532 -0.5646 -0.3391
  151MOL0     O19858  11.073   6.230   9.830 -0.5358  0.0377  0.4672
  151MOL0     C19859  11.137   6.160   9.939  1.0400 -0.6627 -0.2371
  151MOL0     C19860  11.274   6.111   9.906  0.6020  0.7842 -0.6767
  151MOL0     C19861  11.375   6.229   9.896  0.7451  0.6306  0.2004
  151MOL0     C19862  11.508   6.189   9.828  1.1297 -0.1875  0.6160
  151MOL0     C19863  11.604   6.295   9.835  0.4860  0.1166 -0.2293
  151MOL0     C19864  11.693   6.374   9.845  0.1051 -1.0005  0.3133
  151MOL0     C19865  10.916   6.393   9.764  0.0521  0.3126  0.0438
  151MOL0     C19866  10.793   6.461   9.778 -0.6566 -0.4209 -0.2453
  151MOL0     H19867  10.244   6.352   9.939 -1.1012 -0.4417  2.2275
  151MOL0     H19868  10.046   6.498   9.942  0.2499  0.6561  0.5184
  151MOL0     H19869  10.040   6.879  10.212 -2.0781  0.7271  0.3835
  151MOL0     H19870  10.074   6.725  10.275  0.3119  0.3194 -1.1161
  151MOL0     H19871   9.873   6.820  10.354  0.4351  0.7994 -0.2188
  151MOL0     H19872   9.814   6.682  10.254  1.6132 -1.1482 -0.3113
  151MOL0     H19873   9.778   6.855  10.071  0.7075 -0.8386  0.2378
  151MOL0     H19874   9.801   6.989  10.183 -2.6519  0.7421  1.9582
  151MOL0     H19875   9.591   6.779  10.177  0.6435  0.7143  0.3100
  151MOL0     H19876   9.602   6.879  10.315 -0.2444  2.1597  0.0052
  151MOL0     H19877   9.555   6.973  10.024  1.7618 -0.5480  0.6787
  151MOL0     H19878   9.574   7.074  10.164 -0.1736 -0.0098 -1.3421
  151MOL0     H19879   9.388   6.984  10.271 -2.2503  0.2111 -0.2853
  151MOL0     H19880   9.343   6.891  10.120 -0.2529  0.3422 -0.1869
  151MOL0     H19881   9.327   7.177  10.157 -1.0351 -0.7865 -0.1082
  151MOL0     H19882   9.351   7.112   9.996 -1.1176 -1.0055 -1.6049
  151MOL0     H19883   9.154   7.030  10.202 -1.3340 -0.0764 -0.2172
  151MOL0     H19884   9.151   6.965  10.041  0.0274 -1.4198  1.1275
  151MOL0     H19885   9.108   7.152   9.839  1.5184  3.6084 -1.3519
  151MOL0     H19886   8.982   7.382   9.729  0.9681 -1.3240  0.6798
  151MOL0     H19887   8.904   7.478   9.850 -0.2752 -0.4776  1.0113
  151MOL0     H19888   8.728   7.386   9.705 -3.2935 -1.3237  0.8012
  151MOL0     H19889   8.714   7.306   9.863 -0.4049 -2.0065 -0.0457
  151MOL0     H19890   8.799   7.229   9.588 -0.2494 -0.4541  0.3066
  151MOL0     H19891   8.841   7.107   9.723 -1.0594 -1.5688  2.1668
  151MOL0     H19892   8.618   7.053   9.745 -5.0515 -0.4581 -1.4135
  151MOL0     H19893   8.627   7.080   9.565 -4.2337  4.0748 -1.4211
  151MOL0     H19894   8.438   6.950   9.643  1.0322  0.8246  0.3177
  151MOL0     H19895   8.213   6.887   9.610  0.1358  0.6966 -1.0213
  151MOL0     H19896   7.872   6.689   9.539  0.4566 -0.6698  0.2635
  151MOL0     H19897   7.624   6.598   9.569  0.0946 -0.2219  0.7905
  151MOL0     H19898   7.341   6.911   9.666  2.1236 -1.5534 -0.6917
  151MOL0     H19899   7.366   6.831   9.819 -2.6888  0.3030  1.2853
  151MOL0     H19900   7.208   6.641   9.720  0.5615 -0.0128 -0.7399
  151MOL0     H19901   7.174   6.730   9.581  0.9082 -1.6434 -0.1651
  151MOL0     H19902   7.054   6.907   9.714  3.1973  0.0031 -0.5901
  151MOL0     H19903   7.117   6.831   9.859  1.4416  2.3060 -0.5013
  151MOL0     H19904   6.955   6.679   9.657  1.8992  1.2636 -1.3987
  151MOL0     H19905   7.008   6.617   9.814  1.8919 -1.0041 -4.0927
  151MOL0     H19906   6.824   6.864   9.795  1.0544 -0.1351  1.1341
  151MOL0     H19907   6.846   6.769   9.933 -2.8588 -2.2911  1.5485
  151MOL0     H19908   6.727   6.569   9.798  0.5369  0.0565 -0.9741
  151MOL0     H19909   6.682   6.684   9.682  1.2917  0.8155  0.8156
  151MOL0     H19910   6.605   6.695   9.969 -0.3819  1.4888  1.3941
  151MOL0     H19911   6.572   6.820   9.853 -1.1412  0.1387 -0.7165
  151MOL0     H19912   6.478   6.535   9.833  4.5312  1.2255  2.4503
  151MOL0     H19913   6.431   6.661   9.714 -1.2638  0.8034 -0.1710
  151MOL0     H19914   7.534   6.963   9.762 -0.9882 -0.9514 -1.1689
  151MOL0     H19915   7.757   7.019   9.779 -0.8329  1.1982  0.3417
  151MOL0     H19916   8.081   7.290   9.630  0.4171  1.1863 -3.5021
  151MOL0     H19917   8.308   7.372   9.651  0.5571 -0.2133  0.9845
  151MOL0     H19918  10.278   6.792  10.160 -0.6954 -2.0699  2.4799
  151MOL0     H19919  10.479   6.667  10.115 -0.8797 -0.9550  2.1160
  151MOL0     H19920  10.657   6.249  10.009  1.4007 -2.5324 -1.1322
  151MOL0     H19921  10.858   6.157  10.013 -0.3384  0.7513  1.4553
  151MOL0     H19922  11.085   6.065   9.955 -1.0429  0.3259 -0.7828
  151MOL0     H19923  11.139   6.216  10.033  0.3673 -1.2540  0.1349
  151MOL0     H19924  11.308   6.043   9.984  0.6996 -1.2894 -2.4185
  151MOL0     H19925  11.274   6.053   9.813 -1.9572  0.0721 -0.3158
  151MOL0     H19926  11.386   6.257  10.001  0.8799 -1.5704  0.8443
  151MOL0     H19927  11.328   6.306   9.834 -1.2239 -2.3875 -2.4237
  151MOL0     H19928  11.546   6.103   9.884 -0.1804 -0.2253  1.4733
  151MOL0     H19929  11.493   6.151   9.726  0.2707  0.0035  0.6666
  151MOL0     H19930  11.758   6.458   9.860 -3.2153  1.5928  1.5795
  151MOL0     H19931  10.981   6.426   9.684 -0.0153  0.7485  0.1652
  151MOL0     H19932  10.776   6.554   9.725  0.5342  0.2372  0.4886
  152MOL0     O19933   3.146   1.184   3.341 -0.8210 -0.2417 -0.5525
  152MOL0     C19934   3.199   1.278   3.282  0.1421 -0.4066 -0.4785
  152MOL0     O19935   3.135   1.403   3.250 -0.6076  0.3002 -0.4709
  152MOL0     C19936   3.002   1.403   3.290 -0.7622 -0.3046  0.0059
  152MOL0     C19937   2.901   1.395   3.199 -0.5421 -0.7421 -0.2885
  152MOL0     C19938   2.774   1.436   3.227 -0.0956  0.4051  0.2983
  152MOL0     C19939   2.742   1.463   3.361 -0.3117  0.2158  0.6615
  152MOL0     O19940   2.612   1.485   3.386 -0.9090  0.3582 -0.4203
  152MOL0     C19941   2.577   1.529   3.514  0.5658  0.4291 -0.1765
  152MOL0     C19942   2.437   1.578   3.494  0.4818  0.4277  0.3780
  152MOL0     C19943   2.384   1.642   3.624  0.3250  0.4858 -0.3784
  152MOL0     C19944   2.376   1.551   3.752  0.0955  0.2233  0.2860
  152MOL0     C19945   2.309   1.625   3.865 -0.3225 -0.5514 -0.2320
  152MOL0     C19946   2.305   1.538   3.997 -0.3445 -0.1090 -0.4380
  152MOL0     C19947   2.266   1.610   4.130  0.0670 -0.7128  0.4321
  152MOL0     C19948   2.128   1.670   4.141  0.5682  0.4497  1.1703
  152MOL0     N19949   2.036   1.554   4.142  0.0248 -0.3368 -0.3116
  152MOL0     C19950   2.030   1.463   4.234  0.2201  0.8131  0.2278
  152MOL0     C19951   1.942   1.374   4.187  0.2932 -0.0553 -0.2192
  152MOL0     C19952   1.892   1.251   4.252 -0.4880 -0.1746  0.4034
  152MOL0     C19953   1.777   1.282   4.358 -1.2001 -1.1439  0.8970
  152MOL0     C19954   1.660   1.354   4.293 -0.4033 -0.1988 -0.8150
  152MOL0     C19955   1.531   1.360   4.373  0.0269  0.8177  0.6151
  152MOL0     O19956   1.471   1.224   4.388 -0.5581 -0.0001  0.0008
  152MOL0     C19957   1.362   1.200   4.465  0.2291  0.2120 -0.1463
  152MOL0     C19958   1.312   1.069   4.470 -0.1599  0.7862  0.0364
  152MOL0     C19959   1.192   1.048   4.528  0.6332  0.4036  0.8684
  152MOL0     C19960   1.111   1.164   4.574  0.0871 -0.2312  0.1231
  152MOL0     C19961   0.975   1.151   4.617  0.3479  0.5777  0.4143
  152MOL0     O19962   0.914   1.032   4.600  0.9174  0.6809  0.2415
  152MOL0     C19963   0.778   1.018   4.595  1.2253  0.0440  1.3720
  152MOL0     C19964   0.722   0.913   4.666  0.7310  0.9396 -0.5737
  152MOL0     C19965   0.581   0.883   4.651 -0.1852  0.2335  0.7718
  152MOL0     C19966   0.491   0.964   4.571 -0.5426 -0.0842 -0.6664
  152MOL0     O19967   0.362   0.951   4.545 -0.7942 -0.5435 -0.5111
  152MOL0     C19968   0.276   0.900   4.647  0.6615  0.1843  0.4800
  152MOL0     C19969   0.131   0.903   4.601  0.1591 -0.4114  0.6722
  152MOL0     C19970   0.031   0.837   4.691 -0.5460 -0.3494  0.5370
  152MOL0     C19971  -0.107   0.837   4.629 -0.7869  0.1600  0.3975
  152MOL0     C19972  -0.208   0.777   4.724 -0.2804  0.3953  1.1704
  152MOL0     C19973  -0.338   0.824   4.677  0.4462 -0.3245  1.0391
  152MOL0     C19974  -0.452   0.807   4.773 -0.6910  0.3696 -0.3326
  152MOL0     C19975  -0.587   0.822   4.715 -0.1560 -0.6292 -0.2299
  152MOL0    Cl19976  -0.708   0.772   4.827  0.2032  0.0263  0.1269
  152MOL0     C19977   0.546   1.068   4.499  0.2876 -0.8144  0.5375
  152MOL0     C19978   0.685   1.098   4.509 -0.0444 -0.1962  0.7550
  152MOL0     O19979   0.917   1.243   4.670 -0.5999 -0.5856 -0.5408
  152MOL0     C19980   1.171   1.288   4.582  0.3603 -0.6685 -0.3796
  152MOL0     C19981   1.294   1.303   4.523  0.0954  0.5404 -0.2071
  152MOL0     N19982   1.892   1.412   4.065  0.6801  0.3083  0.8704
  152MOL0     N19983   1.955   1.521   4.031 -0.1939 -0.4610 -1.0283
  152MOL0     C19984   2.844   1.468   3.454  0.4261  0.3542 -0.5629
  152MOL0     C19985   2.977   1.443   3.422 -0.0327 -0.1568  0.2997
  152MOL0     C19986   3.340   1.264   3.226 -1.0262 -0.0541 -0.1899
  152MOL0     C19987   3.400   1.138   3.228  0.2760 -0.0675  0.2907
  152MOL0     C19988   3.537   1.124   3.193  0.6879  0.9448 -0.6744
  152MOL0     C19989   3.610   1.232   3.161  0.0483 -1.9308  0.8827
  152MOL0     O19990   3.745   1.223   3.139 -0.2803 -0.2509  0.2423
  152MOL0     C19991   3.781   1.252   3.000 -0.4707 -0.2658 -0.2853
  152MOL0     C19992   3.867   1.144   2.932 -0.2481 -0.1469 -0.2403
  152MOL0     C19993   3.973   1.203   2.829 -0.4111  0.2201  0.0120
  152MOL0     C19994   4.033   1.103   2.746  0.4318 -0.6325 -0.2135
  152MOL0     C19995   4.133   1.024   2.817  0.5732 -0.0437 -0.4275
  152MOL0     C19996   4.209   0.966   2.891  0.2278 -0.5500  0.2634
  152MOL0     C19997   3.549   1.358   3.147  0.7931 -0.2667  1.0198
  152MOL0     C19998   3.418   1.376   3.186 -0.3300  0.7486  0.2774
  152MOL0     H19999   2.921   1.355   3.100 -2.6695 -1.8793 -0.3179
  152MOL0     H20000   2.697   1.431   3.151  2.0048  1.1379 -2.0133
  152MOL0     H20001   2.648   1.595   3.564  2.2838 -1.4082 -0.0874
  152MOL0     H20002   2.573   1.444   3.582  0.1508 -0.8156 -1.6724
  152MOL0     H20003   2.370   1.493   3.479  1.5016 -0.6750  1.8652
  152MOL0     H20004   2.444   1.648   3.410 -1.4403  1.9529  1.4094
  152MOL0     H20005   2.283   1.672   3.598  0.8739  0.9390 -2.1342
  152MOL0     H20006   2.447   1.729   3.647  0.0333  0.5766  0.0826
  152MOL0     H20007   2.318   1.462   3.727  0.5542  0.2150 -0.8041
  152MOL0     H20008   2.475   1.513   3.780  0.7052  0.3308 -1.5825
  152MOL0     H20009   2.205   1.651   3.840 -1.4877 -3.9022  0.5766
  152MOL0     H20010   2.371   1.714   3.879  0.3759 -0.6150 -2.5688
  152MOL0     H20011   2.402   1.492   4.019 -0.8512  0.2135  3.0904
  152MOL0     H20012   2.239   1.454   3.973 -1.6070  0.5173  0.7027
  152MOL0     H20013   2.286   1.550   4.219  1.3729  3.0472  2.9497
  152MOL0     H20014   2.347   1.683   4.146  1.7362 -2.4645  0.3419
  152MOL0     H20015   2.112   1.743   4.062  1.7796  1.2635  1.6374
  152MOL0     H20016   2.123   1.735   4.228 -2.2028  2.4545 -0.3409
  152MOL0     H20017   2.081   1.452   4.330 -1.7151 -3.6883  1.0332
  152MOL0     H20018   1.971   1.214   4.318  0.0697  4.3095  2.6240
  152MOL0     H20019   1.866   1.172   4.180  0.5161  1.4371 -1.8422
  152MOL0     H20020   1.808   1.356   4.432 -1.6425 -1.2608  1.2091
  152MOL0     H20021   1.752   1.189   4.411 -0.0596 -0.2811  3.0480
  152MOL0     H20022   1.697   1.457   4.285  3.4582 -1.3550  0.1794
  152MOL0     H20023   1.645   1.300   4.199  0.6384 -1.1332 -0.4637
  152MOL0     H20024   1.461   1.421   4.315 -2.4102 -1.5292  0.9468
  152MOL0     H20025   1.558   1.399   4.472 -1.5800  2.2892  0.5282
  152MOL0     H20026   1.373   0.996   4.418  1.3337  1.7700  0.3344
  152MOL0     H20027   1.145   0.950   4.532  1.7769 -0.1597  1.0634
  152MOL0     H20028   0.788   0.854   4.729 -1.9267 -4.6448 -2.3186
  152MOL0     H20029   0.540   0.801   4.710  0.2232 -0.2011  0.4617
  152MOL0     H20030   0.270   0.961   4.737 -5.3304 -1.1482  1.4392
  152MOL0     H20031   0.299   0.796   4.673 -0.6717 -0.1350  0.4852
  152MOL0     H20032   0.129   0.845   4.508 -2.2439 -1.9541  1.6266
  152MOL0     H20033   0.104   1.007   4.578 -1.8461 -1.0198  0.1565
  152MOL0     H20034   0.024   0.904   4.778  1.5602  1.0689 -0.3199
  152MOL0     H20035   0.080   0.743   4.721  2.9657  1.1398 -0.0015
  152MOL0     H20036  -0.124   0.942   4.603 -1.8022 -0.6516 -2.5857
  152MOL0     H20037  -0.103   0.786   4.532 -0.7726 -0.7842  0.8879
  152MOL0     H20038  -0.189   0.820   4.823  1.8445 -0.3620  1.1373
  152MOL0     H20039  -0.187   0.670   4.728  2.4524  0.8834  2.1631
  152MOL0     H20040  -0.370   0.770   4.587 -0.5103 -1.3313  1.9494
  152MOL0     H20041  -0.328   0.926   4.640  3.0812 -1.5948 -2.3869
  152MOL0     H20042  -0.445   0.712   4.828 -1.7117  1.4293  1.7506
  152MOL0     H20043  -0.434   0.881   4.852  0.9870 -0.3271 -0.0305
  152MOL0     H20044  -0.591   0.771   4.618  2.1123  1.3078 -1.4534
  152MOL0     H20045  -0.605   0.928   4.695 -0.0661  0.1319  3.1909
  152MOL0     H20046   0.472   1.126   4.445  1.4159 -0.3874 -0.6042
  152MOL0     H20047   0.716   1.189   4.459  2.2305 -0.5791  1.3771
  152MOL0     H20048   1.122   1.374   4.628 -0.4569 -1.7006  0.7518
  152MOL0     H20049   1.329   1.405   4.516 -2.8073  1.6663 -0.0181
  152MOL0     H20050   2.823   1.492   3.557  1.6621  0.6606 -0.3611
  152MOL0     H20051   3.060   1.473   3.484 -2.0363  1.9497  2.1475
  152MOL0     H20052   3.342   1.048   3.251  0.8131  0.0095  2.1477
  152MOL0     H20053   3.594   1.031   3.190  0.6294  0.7752  1.7511
  152MOL0     H20054   3.832   1.348   2.997 -0.0473 -0.4891 -0.2739
  152MOL0     H20055   3.703   1.266   2.925  1.5177  2.0302 -2.0784
  152MOL0     H20056   3.908   1.087   3.016 -1.9201  0.3069  0.9342
  152MOL0     H20057   3.791   1.080   2.886 -1.7504 -0.9638  3.0725
  152MOL0     H20058   4.050   1.267   2.872 -0.4141 -1.0112  1.9347
  152MOL0     H20059   3.926   1.273   2.759  0.7359  0.1710 -0.8421
  152MOL0     H20060   3.946   1.044   2.713 -0.2139  0.7279 -1.0093
  152MOL0     H20061   4.082   1.140   2.656  0.5988  1.1648  0.5757
  152MOL0     H20062   4.271   0.922   2.966 -2.5840  0.6138  3.5131
  152MOL0     H20063   3.608   1.443   3.114 -0.1226 -0.0745 -0.1664
  152MOL0     H20064   3.381   1.478   3.190 -1.7099  0.2969 -0.3088
  153MOL0     O20065   2.767   7.707   8.733  0.1850  0.3802  0.5996
  153MOL0     C20066   2.768   7.673   8.850  0.2763 -0.7681  0.0879
  153MOL0     O20067   2.707   7.739   8.946  0.4390 -0.0918  0.6159
  153MOL0     C20068   2.622   7.842   8.923  0.1481  0.4738 -1.1464
  153MOL0     C20069   2.620   7.951   9.019 -0.0588  0.6218 -0.5937
  153MOL0     C20070   2.523   8.046   9.020  0.3379 -0.8622  0.8344
  153MOL0     C20071   2.423   8.041   8.923 -0.5411  0.3892 -0.3006
  153MOL0     O20072   2.313   8.129   8.927 -0.5795 -0.0777 -0.2511
  153MOL0     C20073   2.219   8.119   9.032 -0.4221  0.3095  0.4585
  153MOL0     C20074   2.104   8.210   9.012 -0.2331  1.2462  0.2305
  153MOL0     C20075   1.991   8.179   9.114 -0.1683  0.1678 -0.4791
  153MOL0     C20076   1.885   8.285   9.095  0.2650 -0.8313 -0.3336
  153MOL0     C20077   1.768   8.269   9.194  0.3261  0.1870 -0.4844
  153MOL0     C20078   1.796   8.311   9.339  0.6850  0.3009  0.1212
  153MOL0     C20079   1.675   8.303   9.435 -0.1713  0.5551  0.4730
  153MOL0     C20080   1.722   8.344   9.573 -0.2357  0.3052 -1.3358
  153MOL0     N20081   1.610   8.324   9.661  0.4308  0.3976 -0.6261
  153MOL0     C20082   1.613   8.238   9.766  0.0429 -0.6340  0.2703
  153MOL0     C20083   1.493   8.231   9.823 -0.3656  0.7211  0.1429
  153MOL0     C20084   1.462   8.134   9.930 -0.1889 -0.9199  0.3536
  153MOL0     C20085   1.417   7.998   9.875 -0.1049  0.8777  0.0829
  153MOL0     C20086   1.303   8.005   9.775  0.2947 -0.0089  0.1723
  153MOL0     C20087   1.168   8.061   9.825  0.0648  0.5643 -0.1879
  153MOL0     O20088   1.072   8.072   9.719 -0.0181 -0.3304  0.0292
  153MOL0     C20089   0.944   8.102   9.754 -0.6898 -0.1390  0.1587
  153MOL0     C20090   0.896   8.124   9.883  0.1403 -0.9581 -0.1674
  153MOL0     C20091   0.758   8.156   9.905 -0.4869  0.9985  0.0008
  153MOL0     C20092   0.665   8.160   9.795 -0.1258  0.0977 -0.1382
  153MOL0     C20093   0.528   8.204   9.811  0.5630  0.3210  0.3276
  153MOL0     O20094   0.453   8.206   9.701  0.0229  0.2217 -0.6067
  153MOL0     C20095   0.333   8.271   9.695 -0.3183  0.7274 -0.2848
  153MOL0     C20096   0.236   8.239   9.791 -0.5293  0.3823  0.3021
  153MOL0     C20097   0.112   8.289   9.786  0.2266  0.1325  0.3537
  153MOL0     C20098   0.067   8.362   9.675  0.5632 -0.5642 -0.5901
  153MOL0     O20099  -0.063   8.415   9.655 -0.4704 -0.1034  0.8292
  153MOL0     C20100  -0.170   8.375   9.746  0.5253  0.1828  0.3556
  153MOL0     C20101  -0.307   8.383   9.685 -0.2629 -0.1763  0.0242
  153MOL0     C20102  -0.406   8.303   9.764  0.1295 -0.3705  0.2027
  153MOL0     C20103  -0.546   8.328   9.708 -0.5009  0.1224 -0.6887
  153MOL0     C20104  -0.643   8.234   9.792 -0.4014 -0.3214 -1.3757
  153MOL0     C20105  -0.784   8.277   9.767 -0.0831  0.4234  0.4470
  153MOL0     C20106  -0.880   8.193   9.854 -0.4883  0.3349 -0.4271
  153MOL0     C20107  -1.012   8.275   9.861  0.1842  0.1550 -0.5255
  153MOL0    Cl20108  -1.154   8.170   9.905  0.0073  0.3901  0.4005
  153MOL0     C20109   0.153   8.392   9.573  0.2277 -0.0088 -0.0004
  153MOL0     C20110   0.285   8.348   9.588  0.2149  0.2303  0.2309
  153MOL0     O20111   0.499   8.240   9.927 -0.6254  0.7578  0.0496
  153MOL0     C20112   0.714   8.138   9.670  0.3093  0.2909 -0.3928
  153MOL0     C20113   0.851   8.103   9.652 -0.2551  0.1532 -0.8439
  153MOL0     N20114   1.411   8.323   9.755 -1.1320  0.0703 -0.4924
  153MOL0     N20115   1.481   8.374   9.660 -0.1823  0.3020  0.5081
  153MOL0     C20116   2.425   7.941   8.827  0.6100 -0.8284  0.1854
  153MOL0     C20117   2.517   7.840   8.829 -0.5946  0.1708 -0.1805
  153MOL0     C20118   2.849   7.554   8.884  0.0108 -0.3631  0.3958
  153MOL0     C20119   2.871   7.457   8.789 -0.3819 -0.0639  0.0651
  153MOL0     C20120   2.952   7.348   8.816  0.5509  0.2144 -0.4134
  153MOL0     C20121   3.022   7.333   8.936 -0.4290  0.8783 -0.3131
  153MOL0     O20122   3.099   7.221   8.967 -0.5677 -0.4827  0.4722
  153MOL0     C20123   3.178   7.209   9.086  0.6238 -0.4112  0.3342
  153MOL0     C20124   3.299   7.303   9.093  0.1131  0.1254 -0.1055
  153MOL0     C20125   3.384   7.286   9.223 -0.2201 -0.1994 -0.2881
  153MOL0     C20126   3.452   7.421   9.268 -0.0431  0.0351  0.1867
  153MOL0     C20127   3.529   7.384   9.387  0.0031  0.1688  0.2757
  153MOL0     C20128   3.606   7.355   9.480  0.3729  0.2715  0.3809
  153MOL0     C20129   2.989   7.431   9.040  0.0438  0.4836  0.0712
  153MOL0     C20130   2.910   7.542   9.011  0.6049  0.2904 -0.1556
  153MOL0     H20131   2.702   7.945   9.089 -0.3343 -2.5996 -0.3902
  153MOL0     H20132   2.523   8.112   9.106 -0.2144  0.3256 -0.0463
  153MOL0     H20133   2.261   8.137   9.131  1.7630 -1.0443 -0.1754
  153MOL0     H20134   2.185   8.015   9.034  3.1761 -1.0598 -1.2124
  153MOL0     H20135   2.063   8.197   8.911 -2.7975 -3.2737  1.5800
  153MOL0     H20136   2.139   8.311   9.035  3.8029 -0.3973  2.2202
  153MOL0     H20137   2.027   8.187   9.216 -1.9044  0.1619  0.1650
  153MOL0     H20138   1.952   8.081   9.085  0.0589  0.6244 -2.4851
  153MOL0     H20139   1.927   8.386   9.099 -2.0605  0.1544  0.8100
  153MOL0     H20140   1.843   8.283   8.994  1.3625 -1.2576 -0.7964
  153MOL0     H20141   1.741   8.163   9.199  0.6127 -0.0569 -2.8075
  153MOL0     H20142   1.678   8.322   9.163 -0.4308 -1.3966 -1.1256
  153MOL0     H20143   1.835   8.412   9.325 -1.3805  0.7045 -4.2280
  153MOL0     H20144   1.882   8.255   9.377  2.1721  3.2856  1.5603
  153MOL0     H20145   1.583   8.351   9.398 -0.2895 -2.0483 -3.1358
  153MOL0     H20146   1.638   8.200   9.426 -2.5942  1.4958 -1.7989
  153MOL0     H20147   1.754   8.449   9.579  2.5849 -0.5071 -0.4224
  153MOL0     H20148   1.804   8.279   9.605 -0.6467  0.8747  1.0268
  153MOL0     H20149   1.694   8.169   9.789 -0.7918 -2.2961 -1.5104
  153MOL0     H20150   1.383   8.175   9.993  0.7207 -2.3670  2.5634
  153MOL0     H20151   1.547   8.120   9.996 -0.4458 -0.5843  0.7589
  153MOL0     H20152   1.389   7.933   9.958  2.3243 -3.2219 -1.9504
  153MOL0     H20153   1.505   7.948   9.831 -0.0342 -0.5115  1.7106
  153MOL0     H20154   1.336   8.066   9.691 -0.9129 -0.0491 -0.3451
  153MOL0     H20155   1.286   7.902   9.742  0.9111 -0.8108  2.1808
  153MOL0     H20156   1.186   8.159   9.870 -2.5902  0.7689  0.5528
  153MOL0     H20157   1.134   7.992   9.903  1.2177  1.4560  1.1737
  153MOL0     H20158   0.954   8.135   9.974  0.2430  4.2483 -0.5411
  153MOL0     H20159   0.725   8.180  10.005 -2.7871 -1.0370 -0.1783
  153MOL0     H20160   0.265   8.175   9.875 -0.8333 -0.4823 -0.2393
  153MOL0     H20161   0.044   8.262   9.866 -0.4790  3.2135  0.9424
  153MOL0     H20162  -0.171   8.443   9.831 -0.6964  1.0570 -0.3338
  153MOL0     H20163  -0.151   8.270   9.773  0.6240  0.4662  1.4485
  153MOL0     H20164  -0.307   8.348   9.582 -0.4957  0.0207 -0.0441
  153MOL0     H20165  -0.342   8.487   9.683  0.2455  0.0354  1.3540
  153MOL0     H20166  -0.411   8.325   9.871  0.2487 -2.0686  0.5755
  153MOL0     H20167  -0.380   8.199   9.746 -1.8867 -1.1494  1.4546
  153MOL0     H20168  -0.574   8.434   9.716  1.5098  0.5976  1.3589
  153MOL0     H20169  -0.539   8.301   9.603 -0.3890 -0.8051 -0.4461
  153MOL0     H20170  -0.621   8.228   9.899 -1.0443 -1.9575 -1.3054
  153MOL0     H20171  -0.635   8.131   9.756 -2.4609 -1.2146  0.4613
  153MOL0     H20172  -0.816   8.260   9.663 -1.5000  0.1715  0.9044
  153MOL0     H20173  -0.795   8.382   9.794  4.2862  0.7105  1.8101
  153MOL0     H20174  -0.904   8.100   9.802 -0.0356 -1.1363  1.8585
  153MOL0     H20175  -0.848   8.174   9.957 -1.3302  1.1581 -0.0008
  153MOL0     H20176  -1.030   8.332   9.769  0.3975  2.5706  0.8603
  153MOL0     H20177  -0.990   8.347   9.940  2.4078 -1.1984  0.1661
  153MOL0     H20178   0.110   8.445   9.489 -0.5879 -0.4396  0.1401
  153MOL0     H20179   0.357   8.349   9.507  0.0179  0.4139  0.0565
  153MOL0     H20180   0.660   8.150   9.577  1.7529  2.5793 -1.0109
  153MOL0     H20181   0.876   8.071   9.551  0.0116 -0.5818 -0.5497
  153MOL0     H20182   2.345   7.945   8.754  0.2799  3.9707  0.5046
  153MOL0     H20183   2.503   7.747   8.774  0.2819 -1.9258  2.8418
  153MOL0     H20184   2.822   7.455   8.692  0.3256 -3.5710 -0.3280
  153MOL0     H20185   2.958   7.288   8.726  0.1567  1.7187 -1.4866
  153MOL0     H20186   3.212   7.105   9.094 -0.7087 -0.9417 -0.4139
  153MOL0     H20187   3.108   7.221   9.169 -1.3696  1.7235 -1.5114
  153MOL0     H20188   3.360   7.300   9.002  1.5476  0.8555  0.7958
  153MOL0     H20189   3.273   7.409   9.095  1.3120  0.4581 -0.8759
  153MOL0     H20190   3.454   7.202   9.223  1.7886  1.3987  0.5028
  153MOL0     H20191   3.315   7.252   9.300  1.5338  1.1323  2.0057
  153MOL0     H20192   3.519   7.464   9.193 -2.6028  1.5086 -1.4063
  153MOL0     H20193   3.376   7.490   9.307 -0.9679 -1.3179  0.8417
  153MOL0     H20194   3.678   7.324   9.553 -1.0869 -0.8540  1.4100
  153MOL0     H20195   3.039   7.432   9.136  0.9988  0.4413 -0.4147
  153MOL0     H20196   2.893   7.615   9.089 -0.0725 -0.8325  0.7772
  154MOL0     O20197   8.389   4.090   5.689  0.2953 -0.1394 -0.3715
  154MOL0     C20198   8.438   4.003   5.757  0.4880 -0.1096 -0.6986
  154MOL0     O20199   8.373   3.895   5.805  0.1581 -0.5489  0.0945
  154MOL0     C20200   8.240   3.915   5.807  0.3511  0.0612 -0.0114
  154MOL0     C20201   8.178   4.023   5.869  0.1009  0.1582 -0.5882
  154MOL0     C20202   8.041   4.026   5.884  0.3814  1.0293 -0.2269
  154MOL0     C20203   7.951   3.923   5.839 -1.1651 -0.0096 -0.6101
  154MOL0     O20204   7.815   3.944   5.852  0.2990 -0.3181 -0.3775
  154MOL0     C20205   7.734   3.849   5.785  0.3149  0.8383  1.0087
  154MOL0     C20206   7.581   3.878   5.809  0.3223  0.7198 -0.4011
  154MOL0     C20207   7.490   3.767   5.748  0.2631  0.2150 -1.1656
  154MOL0     C20208   7.337   3.808   5.778  0.2050  0.1887 -0.4397
  154MOL0     C20209   7.248   3.734   5.678  0.1769 -0.2923 -0.4779
  154MOL0     C20210   7.102   3.782   5.695 -0.0938 -0.0035  0.5647
  154MOL0     C20211   7.008   3.704   5.599 -0.2260 -1.0379  0.0573
  154MOL0     C20212   6.865   3.724   5.634 -0.2276  0.2004  0.5668
  154MOL0     N20213   6.787   3.629   5.552  0.4723  0.2156 -0.4792
  154MOL0     C20214   6.758   3.638   5.416 -0.1317 -0.1109  0.1464
  154MOL0     C20215   6.642   3.568   5.399  0.1272  0.0889 -0.1371
  154MOL0     C20216   6.571   3.568   5.271 -0.6741  0.5281  0.1743
  154MOL0     C20217   6.416   3.549   5.284 -0.7569 -0.3120  0.2694
  154MOL0     C20218   6.396   3.404   5.322  0.1871 -0.4912  0.2026
  154MOL0     C20219   6.257   3.354   5.280 -0.1183  0.5867 -0.4174
  154MOL0     O20220   6.239   3.376   5.137  0.7087 -0.2242 -0.0749
  154MOL0     C20221   6.120   3.332   5.093 -0.1066  0.0950  0.4634
  154MOL0     C20222   6.038   3.241   5.153 -0.9154 -0.0771  0.5009
  154MOL0     C20223   5.926   3.192   5.092 -0.6623 -0.8533  0.0749
  154MOL0     C20224   5.897   3.228   4.958  0.8589 -0.0871 -0.6852
  154MOL0     C20225   5.784   3.163   4.881 -0.0396 -0.1127 -0.1555
  154MOL0     O20226   5.736   3.216   4.764  0.1422  0.0176  0.1244
  154MOL0     C20227   5.660   3.126   4.684  0.4472  0.6236  0.4567
  154MOL0     C20228   5.521   3.152   4.671 -0.7101  0.3783  0.5831
  154MOL0     C20229   5.453   3.075   4.577  0.3219  0.9530 -0.1806
  154MOL0     C20230   5.509   2.963   4.506  0.0888 -0.8107 -0.3417
  154MOL0     O20231   5.437   2.874   4.427  0.5689 -0.4003 -0.0995
  154MOL0     C20232   5.309   2.915   4.358  0.4096 -0.0928 -0.3170
  154MOL0     C20233   5.276   2.810   4.243 -0.0922 -0.1088  0.8326
  154MOL0     C20234   5.403   2.789   4.164 -0.1607  0.4351  0.0436
  154MOL0     C20235   5.389   2.721   4.026 -0.6447  1.4772 -0.8359
  154MOL0     C20236   5.515   2.744   3.946 -1.1077 -0.3173 -0.1351
  154MOL0     C20237   5.652   2.724   4.004  0.0208 -0.0180 -0.4824
  154MOL0     C20238   5.752   2.730   3.889  0.2051  0.2083 -0.1455
  154MOL0     C20239   5.880   2.783   3.938 -0.0488 -0.6575  0.4485
  154MOL0    Cl20240   6.002   2.824   3.806  0.0197  0.2085  0.0849
  154MOL0     C20241   5.646   2.939   4.523  0.3699  0.3958  0.2952
  154MOL0     C20242   5.720   3.011   4.615 -0.1255  1.2942  0.4280
  154MOL0     O20243   5.749   3.057   4.929  0.9188  0.3484  0.4786
  154MOL0     C20244   5.971   3.330   4.899  0.6734  0.0647  0.6335
  154MOL0     C20245   6.084   3.376   4.964 -0.3175  0.1247 -0.2672
  154MOL0     N20246   6.617   3.512   5.523 -0.1649 -0.0136  0.5902
  154MOL0     N20247   6.704   3.542   5.605  0.2208  0.1951 -0.0539
  154MOL0     C20248   8.019   3.812   5.785  0.4313  0.4083 -0.4893
  154MOL0     C20249   8.157   3.809   5.770 -0.6365  0.3160 -0.7342
  154MOL0     C20250   8.586   4.010   5.782 -0.3757  0.3277  0.4921
  154MOL0     C20251   8.625   3.993   5.917 -0.4242  0.2020 -0.9712
  154MOL0     C20252   8.758   3.999   5.953  0.0357 -0.6899 -0.6076
  154MOL0     C20253   8.856   4.043   5.861  0.7560  0.9144 -0.2833
  154MOL0     O20254   8.982   4.061   5.913 -0.2524  0.3980 -0.6202
  154MOL0     C20255   9.087   4.111   5.828 -0.3311  0.1332  0.7581
  154MOL0     C20256   9.151   3.992   5.747  0.5496 -0.1772 -0.3502
  154MOL0     C20257   9.287   4.011   5.690 -0.3328  0.0854  0.2235
  154MOL0     C20258   9.308   4.158   5.641 -0.7817 -0.7573  0.2249
  154MOL0     C20259   9.442   4.176   5.585  0.5536  0.3341 -1.1908
  154MOL0     C20260   9.545   4.199   5.529  0.4019  1.2456 -0.5517
  154MOL0     C20261   8.819   4.063   5.729  0.7260  0.9921 -0.1569
  154MOL0     C20262   8.687   4.046   5.686  0.7603 -1.0264 -0.5442
  154MOL0     H20263   8.238   4.101   5.915  1.0122 -0.9819  0.2114
  154MOL0     H20264   7.990   4.105   5.939 -2.0959 -0.0236 -0.8343
  154MOL0     H20265   7.763   3.748   5.815  0.4489  0.2296 -1.0478
  154MOL0     H20266   7.749   3.856   5.677 -0.2037 -0.9381  0.7942
  154MOL0     H20267   7.553   3.973   5.762  1.3700  0.8721 -0.7465
  154MOL0     H20268   7.567   3.888   5.917  1.6865  0.9210 -0.2258
  154MOL0     H20269   7.505   3.667   5.788 -0.7698  0.2428 -0.6870
  154MOL0     H20270   7.513   3.770   5.641 -0.1598 -1.3513 -1.3226
  154MOL0     H20271   7.312   3.791   5.884 -1.3402  0.8547 -0.6539
  154MOL0     H20272   7.319   3.915   5.759 -0.6153 -0.0999 -1.3590
  154MOL0     H20273   7.257   3.627   5.697  2.1766 -0.6496 -2.9283
  154MOL0     H20274   7.278   3.750   5.574  3.1236  0.5092  0.4215
  154MOL0     H20275   7.104   3.890   5.676  0.0688 -0.1942 -0.5463
  154MOL0     H20276   7.062   3.776   5.797 -0.4123 -2.1700  0.3602
  154MOL0     H20277   7.027   3.742   5.498  1.1748 -1.7105  0.0516
  154MOL0     H20278   7.032   3.598   5.611  1.2701 -0.6272  0.8491
  154MOL0     H20279   6.839   3.830   5.626  3.0403  0.9783 -1.8415
  154MOL0     H20280   6.853   3.708   5.741  1.0454  1.7768  0.9939
  154MOL0     H20281   6.824   3.704   5.360 -1.2075  1.3467  0.5473
  154MOL0     H20282   6.615   3.497   5.200 -0.2548  1.1403 -0.1831
  154MOL0     H20283   6.572   3.672   5.236 -1.7913 -0.5912 -3.6553
  154MOL0     H20284   6.383   3.559   5.180  0.3768  0.5879 -0.0311
  154MOL0     H20285   6.373   3.621   5.354  1.2683  2.7170 -1.3581
  154MOL0     H20286   6.472   3.341   5.275 -0.6468 -1.0556 -0.3986
  154MOL0     H20287   6.388   3.397   5.431 -2.2500 -0.4223  0.0756
  154MOL0     H20288   6.185   3.418   5.332  0.4873  0.1179  1.0420
  154MOL0     H20289   6.241   3.251   5.312  1.1670 -0.5806 -3.1803
  154MOL0     H20290   6.051   3.207   5.256 -0.2920 -2.2159 -0.2346
  154MOL0     H20291   5.867   3.118   5.145 -0.4647 -0.3175  1.0767
  154MOL0     H20292   5.475   3.238   4.719  1.8045  1.4779  1.1405
  154MOL0     H20293   5.346   3.087   4.559 -0.2376  0.3475  2.3819
  154MOL0     H20294   5.325   3.014   4.315 -0.1764  0.2434  0.2204
  154MOL0     H20295   5.218   2.918   4.419  0.5941 -2.1065  0.1118
  154MOL0     H20296   5.208   2.857   4.171 -0.6013 -0.2177  1.2411
  154MOL0     H20297   5.247   2.713   4.284  2.0527 -1.7128 -1.1928
  154MOL0     H20298   5.458   2.717   4.225 -2.5955  0.0102  1.8902
  154MOL0     H20299   5.465   2.879   4.158  0.2787  0.0852 -1.0570
  154MOL0     H20300   5.369   2.614   4.040  0.5146  1.3688  0.2058
  154MOL0     H20301   5.310   2.764   3.964 -0.9873  1.0951 -0.6708
  154MOL0     H20302   5.505   2.849   3.916 -0.8331  0.1709  1.4169
  154MOL0     H20303   5.505   2.685   3.854 -0.3846  0.3280 -0.6375
  154MOL0     H20304   5.656   2.628   4.056 -3.1086  0.5481  1.0026
  154MOL0     H20305   5.675   2.802   4.076  1.0078 -0.1515 -0.6243
  154MOL0     H20306   5.774   2.630   3.849 -0.5523 -0.1426  0.2804
  154MOL0     H20307   5.714   2.791   3.807  1.4623  2.2058  0.6847
  154MOL0     H20308   5.930   2.727   4.017  4.2913  1.1223 -0.7504
  154MOL0     H20309   5.863   2.877   3.992  1.2474 -0.4550  0.5455
  154MOL0     H20310   5.698   2.852   4.482  1.3794  0.6003  1.1124
  154MOL0     H20311   5.827   2.994   4.622 -0.3700 -0.7011  0.0395
  154MOL0     H20312   5.945   3.358   4.798 -2.3908 -1.3807  0.9076
  154MOL0     H20313   6.146   3.450   4.914 -1.1274  0.5497 -0.6660
  154MOL0     H20314   7.965   3.733   5.734  0.2619  0.0109  0.2889
  154MOL0     H20315   8.194   3.714   5.733 -1.5484 -0.2312 -0.2905
  154MOL0     H20316   8.559   3.956   5.995  5.0871 -3.5243  2.6412
  154MOL0     H20317   8.771   3.975   6.058 -0.2515  0.2884 -0.3328
  154MOL0     H20318   9.170   4.156   5.882  0.2296  1.4587 -1.0932
  154MOL0     H20319   9.041   4.190   5.767 -1.8234 -0.6662  0.7986
  154MOL0     H20320   9.169   3.907   5.813  2.4094  0.6533  0.2937
  154MOL0     H20321   9.074   3.967   5.673 -1.8042  4.3532  0.2278
  154MOL0     H20322   9.310   3.934   5.616 -2.4284 -0.8465  0.4753
  154MOL0     H20323   9.350   3.997   5.778 -1.5235  0.1981  1.1192
  154MOL0     H20324   9.231   4.166   5.564 -0.5619  0.0046  0.0856
  154MOL0     H20325   9.300   4.230   5.724 -0.1584 -1.7937  1.2164
  154MOL0     H20326   9.645   4.208   5.491  1.6988 -0.6949  2.0947
  154MOL0     H20327   8.882   4.106   5.652 -2.6485  4.4286 -1.2894
  154MOL0     H20328   8.657   4.081   5.587  0.4559 -2.2004 -0.8919
  155MOL0     O20329   4.899   1.343   9.862 -0.1819  0.1902 -0.0438
  155MOL0     C20330   4.924   1.303   9.750  0.4372  0.4680 -0.8363
  155MOL0     O20331   4.840   1.240   9.666  0.6732 -0.2234 -0.2239
  155MOL0     C20332   4.709   1.265   9.697  0.2634 -0.0676  0.2648
  155MOL0     C20333   4.634   1.179   9.777  0.0029 -0.1680 -0.6957
  155MOL0     C20334   4.492   1.183   9.783 -0.5395  0.5539  0.2375
  155MOL0     C20335   4.419   1.279   9.709 -0.5014  0.5419  0.3580
  155MOL0     O20336   4.280   1.289   9.710 -0.5169  0.9146  0.2386
  155MOL0     C20337   4.199   1.168   9.711 -0.1966  0.5701 -0.0418
  155MOL0     C20338   4.121   1.152   9.582  0.6851  0.3165 -1.0456
  155MOL0     C20339   3.998   1.242   9.571 -0.0675 -0.2987 -0.9704
  155MOL0     C20340   3.875   1.184   9.649 -0.1643 -0.7901 -0.2054
  155MOL0     C20341   3.750   1.278   9.639 -0.3769  0.2516 -0.2936
  155MOL0     C20342   3.691   1.289   9.498  0.9202 -0.7557  0.5276
  155MOL0     C20343   3.564   1.383   9.506 -0.1876  0.1524  0.0049
  155MOL0     C20344   3.440   1.306   9.560  0.3769 -0.2977 -0.3980
  155MOL0     N20345   3.334   1.394   9.621  0.0446  0.1633 -0.0299
  155MOL0     C20346   3.217   1.438   9.563  0.6203  0.5469 -0.6618
  155MOL0     C20347   3.164   1.528   9.649  0.5474  0.0342 -0.4734
  155MOL0     C20348   3.026   1.586   9.649 -0.5750  1.2201  0.1760
  155MOL0     C20349   2.937   1.525   9.759  0.7721  0.6455 -0.7917
  155MOL0     C20350   2.876   1.398   9.709 -0.3187 -0.3939 -0.6396
  155MOL0     C20351   2.812   1.334   9.829  0.3134  0.1572  0.1337
  155MOL0     O20352   2.764   1.204   9.808  0.4839  0.1843  0.7726
  155MOL0     C20353   2.702   1.133   9.906  0.7149  0.4642  0.7166
  155MOL0     C20354   2.716   0.995   9.912 -0.0064 -0.1508  0.3089
  155MOL0     C20355   2.684   0.918  10.014 -0.4789 -0.6182 -0.2553
  155MOL0     C20356   2.623   0.974  10.129 -0.0518 -0.4126  0.0737
  155MOL0     C20357   2.566   0.897  10.239  0.4495 -0.6814 -0.4056
  155MOL0     O20358   2.610   0.763  10.243  0.6253  0.1470 -0.1255
  155MOL0     C20359   2.584   0.682  10.349  0.2140 -0.8421  0.5621
  155MOL0     C20360   2.671   0.681  10.461  0.1526  0.5001  0.9403
  155MOL0     C20361   2.647   0.603  10.574  0.9350  0.1683  0.1122
  155MOL0     C20362   2.534   0.515  10.567  0.1580  1.0093 -0.0753
  155MOL0     O20363   2.514   0.423  10.668 -0.1160 -0.3417  0.2881
  155MOL0     C20364   2.568   0.432  10.799  0.5194  0.0632 -0.4117
  155MOL0     C20365   2.482   0.360  10.904  0.1491 -0.3063 -0.8775
  155MOL0     C20366   2.340   0.419  10.899 -1.4436  0.6404 -0.6996
  155MOL0     C20367   2.271   0.412  11.033  0.2022 -0.9620  0.0104
  155MOL0     C20368   2.121   0.379  11.018 -0.2308 -0.9174  0.2882
  155MOL0     C20369   2.044   0.473  10.925 -0.0008  0.2345  0.2158
  155MOL0     C20370   1.899   0.420  10.918  1.0715 -0.6812 -0.3969
  155MOL0     C20371   1.846   0.498  10.801 -0.1483 -0.2970  0.0101
  155MOL0    Cl20372   1.811   0.666  10.835  0.0339 -0.0056 -0.2008
  155MOL0     C20373   2.444   0.509  10.452  0.0464  0.0560 -0.2977
  155MOL0     C20374   2.470   0.598  10.347 -0.2635 -0.0149 -0.4917
  155MOL0     O20375   2.492   0.958  10.322 -0.5443  0.5101 -0.5757
  155MOL0     C20376   2.600   1.114  10.132  0.0229  0.5089  0.9189
  155MOL0     C20377   2.646   1.193  10.023 -0.2216 -0.0719 -0.5172
  155MOL0     N20378   3.255   1.537   9.753 -0.4931  0.4049  0.4924
  155MOL0     N20379   3.358   1.458   9.731 -0.1154  1.0027 -0.8960
  155MOL0     C20380   4.493   1.380   9.643  0.2158  0.1957 -0.1481
  155MOL0     C20381   4.635   1.371   9.640 -0.6205 -0.0176  0.1508
  155MOL0     C20382   5.055   1.339   9.698 -0.0614 -0.7575  0.2752
  155MOL0     C20383   5.157   1.359   9.791  0.0599 -0.7038  0.3195
  155MOL0     C20384   5.283   1.411   9.740  0.9052  1.0634  0.0211
  155MOL0     C20385   5.307   1.447   9.609  0.7974  0.3404  0.9126
  155MOL0     O20386   5.417   1.508   9.552  0.6876 -0.3522 -0.1983
  155MOL0     C20387   5.530   1.523   9.639 -0.1697  0.5906  0.1388
  155MOL0     C20388   5.636   1.618   9.575  0.2995 -0.5874  0.4056
  155MOL0     C20389   5.767   1.637   9.654  0.1439  0.8697  0.3569
  155MOL0     C20390   5.862   1.714   9.567 -0.1927  0.6133 -0.2166
  155MOL0     C20391   5.997   1.706   9.633  0.8692  1.0236 -0.1502
  155MOL0     C20392   6.101   1.696   9.689 -0.1108 -0.1785 -0.0781
  155MOL0     C20393   5.197   1.431   9.520 -1.0913 -0.0235 -0.2658
  155MOL0     C20394   5.072   1.380   9.561  0.2458  0.2560 -1.0492
  155MOL0     H20395   4.685   1.101   9.833 -1.9112 -1.5605 -0.7908
  155MOL0     H20396   4.445   1.108   9.846  0.7352 -1.1764 -0.7805
  155MOL0     H20397   4.121   1.156   9.787 -0.1446 -0.5308 -0.1384
  155MOL0     H20398   4.265   1.081   9.721 -1.2486 -0.0452  2.2691
  155MOL0     H20399   4.087   1.050   9.562  2.1802  0.2138 -3.4088
  155MOL0     H20400   4.190   1.168   9.499  0.7418  1.6871 -0.7666
  155MOL0     H20401   3.977   1.256   9.465 -1.9772  2.2872 -0.3405
  155MOL0     H20402   4.026   1.343   9.605 -2.3830  0.0877 -0.0216
  155MOL0     H20403   3.842   1.086   9.614 -1.4487  0.1070 -1.6338
  155MOL0     H20404   3.902   1.176   9.754 -1.0411 -0.7033  0.0360
  155MOL0     H20405   3.782   1.376   9.676 -0.0494 -0.2922  0.8955
  155MOL0     H20406   3.682   1.236   9.713  4.4887 -3.4180  2.7187
  155MOL0     H20407   3.674   1.189   9.458  0.8253 -0.0988 -1.1305
  155MOL0     H20408   3.767   1.336   9.435 -0.2507 -1.2933 -1.3618
  155MOL0     H20409   3.582   1.473   9.566 -0.8180 -0.5444  1.2847
  155MOL0     H20410   3.558   1.423   9.404  0.2273  2.4449  0.8241
  155MOL0     H20411   3.469   1.231   9.634  1.3834  3.2580  3.1288
  155MOL0     H20412   3.405   1.242   9.478 -0.3544  0.0698 -0.3807
  155MOL0     H20413   3.164   1.413   9.472  1.0951  1.3502 -1.1669
  155MOL0     H20414   2.981   1.561   9.553  4.3359 -0.3321 -2.0908
  155MOL0     H20415   3.019   1.695   9.648 -0.6315  1.2174 -1.4840
  155MOL0     H20416   2.865   1.601   9.791  0.1261 -1.0605  2.1992
  155MOL0     H20417   2.992   1.511   9.853 -0.4496  0.1381 -0.1362
  155MOL0     H20418   2.809   1.399   9.622  0.7075 -0.1125 -1.4376
  155MOL0     H20419   2.957   1.329   9.684  0.6663 -0.1334  1.6190
  155MOL0     H20420   2.725   1.397   9.850  0.7963  1.7674 -2.1832
  155MOL0     H20421   2.879   1.336   9.915  1.2536 -0.0608 -0.5840
  155MOL0     H20422   2.745   0.943   9.821 -0.7862 -1.7233  0.9225
  155MOL0     H20423   2.689   0.810  10.003 -3.4576 -0.7532 -1.1133
  155MOL0     H20424   2.754   0.750  10.454  0.9007 -0.0517  3.3735
  155MOL0     H20425   2.702   0.614  10.667  0.2687  0.9505  0.4172
  155MOL0     H20426   2.563   0.536  10.831 -0.5737 -0.6153  1.8202
  155MOL0     H20427   2.663   0.378  10.807  0.5070 -0.1282 -1.4228
  155MOL0     H20428   2.522   0.377  11.004  0.5012 -1.3610 -0.8283
  155MOL0     H20429   2.489   0.252  10.888 -0.3897 -0.6409  0.9505
  155MOL0     H20430   2.284   0.359  10.826 -2.2428 -0.7754  1.0079
  155MOL0     H20431   2.351   0.525  10.875 -2.7642  0.4604 -2.2840
  155MOL0     H20432   2.320   0.341  11.099 -2.9031 -2.1314  1.2423
  155MOL0     H20433   2.270   0.508  11.086  1.5721 -1.1315  0.3811
  155MOL0     H20434   2.071   0.396  11.114 -1.3792 -2.6242  0.0388
  155MOL0     H20435   2.107   0.276  10.985 -1.8390 -0.3810 -0.8035
  155MOL0     H20436   2.092   0.455  10.828  0.6884  2.8732 -0.0056
  155MOL0     H20437   2.051   0.579  10.950 -0.9184  1.2683 -3.3027
  155MOL0     H20438   1.887   0.315  10.889 -0.8153 -0.0109 -2.3779
  155MOL0     H20439   1.843   0.447  11.008  0.9272  0.6716 -0.8591
  155MOL0     H20440   1.747   0.456  10.780 -0.1442  0.4061 -1.5602
  155MOL0     H20441   1.912   0.489  10.714  0.5272 -0.4234  0.5391
  155MOL0     H20442   2.368   0.431  10.452 -0.8742  0.9312 -0.5539
  155MOL0     H20443   2.419   0.601  10.251  1.6075  0.9033 -1.5212
  155MOL0     H20444   2.547   1.163  10.213 -0.0633  2.2586 -0.1564
  155MOL0     H20445   2.630   1.300  10.016 -2.0577 -0.3879 -2.0077
  155MOL0     H20446   4.437   1.449   9.580  1.4994  0.8869 -0.5661
  155MOL0     H20447   4.690   1.440   9.578 -0.4644 -0.0834  0.2166
  155MOL0     H20448   5.154   1.325   9.894  2.1408 -1.3057  0.2304
  155MOL0     H20449   5.358   1.437   9.814  0.6952  0.2757  0.5272
  155MOL0     H20450   5.565   1.421   9.652  0.0327  0.4647 -1.1918
  155MOL0     H20451   5.509   1.578   9.731  1.1841  0.3124  0.6449
  155MOL0     H20452   5.659   1.559   9.486  0.7622 -1.9406  1.3827
  155MOL0     H20453   5.588   1.715   9.559 -0.0468 -0.3020  2.8587
  155MOL0     H20454   5.802   1.535   9.671  0.2077  0.4226 -2.0207
  155MOL0     H20455   5.748   1.683   9.751  0.1468 -1.9360  1.7982
  155MOL0     H20456   5.861   1.668   9.468  1.0153  1.5646 -0.6959
  155MOL0     H20457   5.819   1.814   9.556  0.4091  0.8567 -0.4069
  155MOL0     H20458   6.204   1.689   9.717 -0.2638  0.1392  0.5880
  155MOL0     H20459   5.210   1.467   9.418 -0.8339 -0.0153 -0.2285
  155MOL0     H20460   4.993   1.372   9.487  1.3853 -1.3386 -2.1635
  156MOL0     O20461   2.919   3.999   4.866  0.4638 -0.0754  0.2045
  156MOL0     C20462   2.893   4.002   4.749 -0.1921  0.0142 -0.0463
  156MOL0     O20463   2.779   3.970   4.686  0.8451  0.2724 -0.1076
  156MOL0     C20464   2.667   3.922   4.758 -0.0856 -0.6689 -0.4632
  156MOL0     C20465   2.668   3.802   4.826 -0.5306  0.2268 -0.1814
  156MOL0     C20466   2.543   3.735   4.849  0.7388  0.2324 -0.2115
  156MOL0     C20467   2.421   3.809   4.835 -0.0727  0.6332  0.8091
  156MOL0     O20468   2.300   3.761   4.853  0.5587  0.2694 -0.0141
  156MOL0     C20469   2.288   3.616   4.852  0.0664  0.6359  0.5802
  156MOL0     C20470   2.146   3.551   4.861  0.1888 -0.1297  0.6852
  156MOL0     C20471   2.063   3.596   4.973  0.0939  0.3419 -0.3979
  156MOL0     C20472   1.919   3.545   4.946  0.4956 -0.2117 -0.2385
  156MOL0     C20473   1.828   3.663   4.900 -0.7094 -0.3485  0.1096
  156MOL0     C20474   1.699   3.617   4.849 -0.1137  0.4229 -0.4259
  156MOL0     C20475   1.608   3.724   4.783 -0.1790 -0.4673  0.8846
  156MOL0     C20476   1.551   3.816   4.892 -0.0108 -0.1390  0.0877
  156MOL0     N20477   1.427   3.881   4.843  0.7730  0.1308 -0.5141
  156MOL0     C20478   1.319   3.806   4.804 -0.4173 -0.1832  0.3662
  156MOL0     C20479   1.230   3.894   4.751 -0.5885 -0.6099 -0.2789
  156MOL0     C20480   1.094   3.874   4.692 -0.1397  0.7106  0.3148
  156MOL0     C20481   0.984   3.900   4.795  0.6349  0.5761  0.4224
  156MOL0     C20482   0.854   3.918   4.721 -0.2607 -0.8655 -0.2194
  156MOL0     C20483   0.743   3.906   4.824  0.5587 -0.3944  0.9542
  156MOL0     O20484   0.622   3.952   4.767  0.4516 -0.6128  0.6229
  156MOL0     C20485   0.503   3.950   4.828 -0.4553 -0.1286 -0.2885
  156MOL0     C20486   0.400   4.026   4.777 -0.0398 -0.0533  0.2917
  156MOL0     C20487   0.281   4.049   4.830  0.1465 -0.0117 -0.1872
  156MOL0     C20488   0.254   3.994   4.955  0.1929  0.3624 -0.0086
  156MOL0     C20489   0.120   4.013   5.020  1.1407 -0.1359  0.0051
  156MOL0     O20490   0.101   3.950   5.135 -0.2122  0.1783  0.0520
  156MOL0     C20491  -0.017   3.956   5.210 -1.4944 -0.1138  0.3805
  156MOL0     C20492  -0.054   3.845   5.275  0.0590 -0.2011 -0.1097
  156MOL0     C20493  -0.182   3.824   5.334 -0.3881 -0.1224  0.0686
  156MOL0     C20494  -0.256   3.939   5.357  0.0887  0.9144 -0.1210
  156MOL0     O20495  -0.370   3.934   5.433 -0.3333  0.2180 -0.0777
  156MOL0     C20496  -0.426   3.806   5.461  0.4624 -0.6052  0.0807
  156MOL0     C20497  -0.566   3.832   5.518  0.6850 -0.6443  0.0528
  156MOL0     C20498  -0.650   3.717   5.522  0.4418  0.2252 -1.0986
  156MOL0     C20499  -0.792   3.734   5.582 -0.6808  1.1709  0.6008
  156MOL0     C20500  -0.875   3.603   5.598 -0.5739 -0.5201  0.2819
  156MOL0     C20501  -1.017   3.645   5.653 -0.3223  0.2598 -0.4675
  156MOL0     C20502  -1.091   3.527   5.717  0.7151  0.6954  1.0765
  156MOL0     C20503  -1.242   3.568   5.738  0.8496 -0.3376  0.3743
  156MOL0    Cl20504  -1.336   3.441   5.816  0.2113  0.3826  0.0249
  156MOL0     C20505  -0.213   4.059   5.306  0.7303  0.6655  0.6456
  156MOL0     C20506  -0.103   4.071   5.223  1.6146 -0.2326 -0.2637
  156MOL0     O20507   0.041   4.099   4.977 -0.3462  0.6471  0.4166
  156MOL0     C20508   0.350   3.911   5.017 -0.2080  0.0798  0.2637
  156MOL0     C20509   0.477   3.889   4.952 -0.7998  0.0116 -1.4162
  156MOL0     N20510   1.279   4.023   4.785 -0.2557  0.8589 -0.1720
  156MOL0     N20511   1.402   4.017   4.831 -0.2480  1.1778 -0.0798
  156MOL0     C20512   2.428   3.941   4.785 -0.1648  0.4204  0.6394
  156MOL0     C20513   2.550   3.998   4.742  0.2494  0.7426 -0.3037
  156MOL0     C20514   3.012   4.038   4.665 -0.8541 -0.3715  0.2277
  156MOL0     C20515   3.135   4.102   4.707  0.5655  0.7182 -0.8285
  156MOL0     C20516   3.244   4.116   4.634 -0.7004 -0.4604 -0.2623
  156MOL0     C20517   3.237   4.086   4.492  0.2579  0.1168  0.3886
  156MOL0     O20518   3.331   4.104   4.397 -0.1576 -1.2644  0.4952
  156MOL0     C20519   3.448   4.168   4.437 -0.3949 -0.4705  0.5235
  156MOL0     C20520   3.537   4.209   4.318  0.6130  0.6823  0.0879
  156MOL0     C20521   3.665   4.280   4.365  0.3024 -0.1105  0.6196
  156MOL0     C20522   3.637   4.390   4.465 -1.0909 -0.5656 -0.4679
  156MOL0     C20523   3.768   4.453   4.500 -0.5444  0.1251  0.8684
  156MOL0     C20524   3.880   4.495   4.531  0.1734  0.1113 -0.4468
  156MOL0     C20525   3.123   4.028   4.439  0.0801 -0.1055  0.3343
  156MOL0     C20526   3.010   4.012   4.525  0.2006 -0.7456  0.9649
  156MOL0     H20527   2.766   3.761   4.850  0.1644  2.4913  1.1944
  156MOL0     H20528   2.551   3.634   4.887 -3.3884 -0.2534 -0.1642
  156MOL0     H20529   2.344   3.570   4.933 -1.6509  0.2845  1.6164
  156MOL0     H20530   2.337   3.581   4.760 -0.7470 -0.8786  0.6929
  156MOL0     H20531   2.150   3.442   4.849  1.2842  0.1277 -1.9940
  156MOL0     H20532   2.102   3.594   4.771  2.0318 -0.2977 -0.3548
  156MOL0     H20533   2.072   3.701   5.001  0.2588  0.1260  0.3930
  156MOL0     H20534   2.100   3.531   5.053 -0.7068  0.5912  0.1957
  156MOL0     H20535   1.909   3.469   4.869 -0.3223 -1.6518  1.2151
  156MOL0     H20536   1.866   3.511   5.036 -2.0639  0.9267 -1.2065
  156MOL0     H20537   1.861   3.716   4.810 -0.3106 -1.9964 -0.7502
  156MOL0     H20538   1.822   3.724   4.991 -1.2857 -2.2333  1.4101
  156MOL0     H20539   1.647   3.575   4.936  1.5483  1.8445  1.3514
  156MOL0     H20540   1.724   3.534   4.782  1.7687 -1.0514  1.8879
  156MOL0     H20541   1.672   3.781   4.715 -0.2128 -1.3465  0.1016
  156MOL0     H20542   1.535   3.673   4.720 -1.2331  3.0049 -0.9514
  156MOL0     H20543   1.632   3.878   4.932  1.2001 -1.1321 -0.7378
  156MOL0     H20544   1.515   3.759   4.978  0.5487 -1.9782 -0.8488
  156MOL0     H20545   1.294   3.701   4.815 -0.5345  0.0897  3.5227
  156MOL0     H20546   1.082   3.776   4.646  2.9738  0.6312 -0.5381
  156MOL0     H20547   1.081   3.945   4.610 -2.9562  0.3947  0.3940
  156MOL0     H20548   1.010   3.992   4.848  1.5444 -0.0537  1.0849
  156MOL0     H20549   0.980   3.808   4.853  2.1692 -0.0362 -0.3930
  156MOL0     H20550   0.857   4.012   4.665 -0.5057 -0.6677  0.0939
  156MOL0     H20551   0.833   3.854   4.635 -2.1968 -0.7301  0.1038
  156MOL0     H20552   0.773   3.965   4.912  2.7511 -0.2884  0.1905
  156MOL0     H20553   0.735   3.804   4.862 -2.8621 -0.5787  0.1282
  156MOL0     H20554   0.425   4.062   4.678  0.2570 -4.7312 -1.5773
  156MOL0     H20555   0.207   4.098   4.767 -0.5418  0.2844  0.8340
  156MOL0     H20556   0.023   3.771   5.255 -1.3103 -2.0800  1.1072
  156MOL0     H20557  -0.194   3.726   5.378 -2.4164  0.2687  0.4765
  156MOL0     H20558  -0.375   3.745   5.536 -1.3863 -0.1047  1.8226
  156MOL0     H20559  -0.449   3.751   5.369  2.7041 -0.8766 -0.3648
  156MOL0     H20560  -0.613   3.903   5.450  1.2372 -1.7860 -1.5898
  156MOL0     H20561  -0.556   3.875   5.618  2.4991  1.8091 -1.0898
  156MOL0     H20562  -0.585   3.656   5.586 -0.5477  3.0833  3.0983
  156MOL0     H20563  -0.667   3.680   5.421 -0.7768  0.1034 -0.8676
  156MOL0     H20564  -0.778   3.775   5.682  1.2213  0.1219  0.7984
  156MOL0     H20565  -0.842   3.806   5.516  0.3009  1.6203  0.3332
  156MOL0     H20566  -0.828   3.535   5.670  0.9014 -0.3448 -0.4890
  156MOL0     H20567  -0.893   3.556   5.501 -0.2510 -0.8532  0.3820
  156MOL0     H20568  -1.087   3.678   5.577  0.0560 -3.0407 -2.4465
  156MOL0     H20569  -1.005   3.722   5.730  0.2570 -1.7174  1.5542
  156MOL0     H20570  -1.088   3.440   5.649 -0.0621  0.2369  1.6161
  156MOL0     H20571  -1.045   3.500   5.812  0.2283 -0.4179  1.0110
  156MOL0     H20572  -1.293   3.578   5.641 -0.3350 -0.3576  0.9735
  156MOL0     H20573  -1.250   3.659   5.798  2.2337 -0.1719  0.3392
  156MOL0     H20574  -0.279   4.144   5.310 -1.6056 -0.9161 -1.1955
  156MOL0     H20575  -0.093   4.172   5.187 -1.8685 -0.0185 -0.9978
  156MOL0     H20576   0.324   3.853   5.105  2.3627  2.0625  2.5265
  156MOL0     H20577   0.543   3.816   4.999 -1.0511  2.2856  2.9499
  156MOL0     H20578   2.336   3.999   4.782  0.6507  1.7397 -0.1003
  156MOL0     H20579   2.549   4.091   4.686  0.2123 -0.6174 -2.6998
  156MOL0     H20580   3.151   4.119   4.813  1.5527  0.4109 -0.9210
  156MOL0     H20581   3.324   4.168   4.687 -0.9426 -1.0608  0.7115
  156MOL0     H20582   3.506   4.115   4.513 -0.2628  3.1917  3.2143
  156MOL0     H20583   3.421   4.260   4.489 -0.1507  1.2401 -2.1935
  156MOL0     H20584   3.574   4.116   4.274  2.1285  1.0656  0.5287
  156MOL0     H20585   3.476   4.264   4.245  1.4587 -0.4615 -1.5386
  156MOL0     H20586   3.705   4.323   4.273 -1.4724  0.2768 -0.0078
  156MOL0     H20587   3.733   4.204   4.406  0.8041 -0.1252 -0.2239
  156MOL0     H20588   3.570   4.468   4.427 -1.6409 -2.1208 -2.9177
  156MOL0     H20589   3.605   4.356   4.564  3.1295 -0.3184  1.1960
  156MOL0     H20590   3.982   4.514   4.559  0.4282 -1.2591 -0.3705
  156MOL0     H20591   3.118   3.989   4.338  1.2172 -1.5810  0.7991
  156MOL0     H20592   2.922   3.963   4.484 -1.3665  2.5334  0.0423
  157MOL0     O20593  10.415   4.902   0.351  0.2605 -0.2390 -0.2840
  157MOL0     C20594  10.447   4.882   0.467 -0.6750 -0.2603 -0.3679
  157MOL0     O20595  10.358   4.864   0.565 -0.5170 -0.4239  0.7722
  157MOL0     C20596  10.228   4.824   0.548 -0.1030  0.0578  0.3928
  157MOL0     C20597  10.138   4.844   0.652  0.6222 -0.3414  0.0529
  157MOL0     C20598  10.006   4.797   0.648  0.1718 -0.0215 -0.1389
  157MOL0     C20599   9.957   4.729   0.536 -0.2998 -0.2594  0.4085
  157MOL0     O20600   9.832   4.670   0.526 -0.1718  0.5476  0.3486
  157MOL0     C20601   9.739   4.682   0.635 -0.0194 -0.4804 -1.4598
  157MOL0     C20602   9.600   4.634   0.575 -0.6021 -0.1798  0.7002
  157MOL0     C20603   9.476   4.681   0.646  0.2037  0.3692  0.2835
  157MOL0     C20604   9.461   4.644   0.797 -0.4143 -0.0718 -0.2210
  157MOL0     C20605   9.344   4.718   0.857  1.5664  0.6498 -0.4732
  157MOL0     C20606   9.265   4.652   0.971 -0.3382  0.4161  0.3150
  157MOL0     C20607   9.126   4.722   0.996  0.5517  0.0226  0.4098
  157MOL0     C20608   9.057   4.677   1.122  0.6324 -0.2430 -0.8081
  157MOL0     N20609   8.939   4.761   1.154  0.0701 -0.1478  0.2444
  157MOL0     C20610   8.943   4.867   1.251 -0.1838  0.8015 -0.0605
  157MOL0     C20611   8.819   4.921   1.231 -0.0424 -0.1685 -0.0530
  157MOL0     C20612   8.763   5.030   1.316 -0.8148  0.4698  0.8366
  157MOL0     C20613   8.666   4.973   1.414 -0.6243 -0.5450 -0.4345
  157MOL0     C20614   8.521   4.984   1.359  0.2303  0.3266 -0.1910
  157MOL0     C20615   8.429   4.975   1.478  0.6434  0.7533 -0.2934
  157MOL0     O20616   8.295   4.955   1.420 -0.5879  0.1292  0.4332
  157MOL0     C20617   8.213   4.895   1.510 -0.0950 -0.4890 -0.6125
  157MOL0     C20618   8.218   4.764   1.554 -0.6935 -0.4110 -0.0554
  157MOL0     C20619   8.128   4.709   1.638 -0.2008  0.0190 -0.0665
  157MOL0     C20620   8.037   4.786   1.701 -0.5156 -0.6225  0.0462
  157MOL0     C20621   7.940   4.731   1.796 -0.4207 -1.0056 -0.4234
  157MOL0     O20622   7.985   4.624   1.877  0.0579 -0.3770  0.9868
  157MOL0     C20623   7.885   4.565   1.953  0.3125  0.1081 -0.8258
  157MOL0     C20624   7.792   4.634   2.027 -0.3094 -0.0467 -1.1476
  157MOL0     C20625   7.711   4.562   2.118  0.0366 -0.8304  0.2041
  157MOL0     C20626   7.717   4.427   2.127  0.0015 -0.3350 -0.2122
  157MOL0     O20627   7.645   4.357   2.228 -0.0503 -0.1890 -0.2646
  157MOL0     C20628   7.542   4.261   2.183 -0.1747 -0.9315  0.5596
  157MOL0     C20629   7.443   4.234   2.298  0.1613  0.5677 -0.2625
  157MOL0     C20630   7.321   4.169   2.246  0.1343 -0.2979  0.3478
  157MOL0     C20631   7.234   4.134   2.363  0.6662  0.8405  0.6460
  157MOL0     C20632   7.124   4.041   2.320  0.1421  0.2436  0.4825
  157MOL0     C20633   7.051   3.956   2.431 -0.2955 -0.3382  0.1546
  157MOL0     C20634   6.986   4.048   2.539  0.3921 -0.5586 -0.3262
  157MOL0     C20635   6.890   3.965   2.636  0.0359  0.5380  1.3863
  157MOL0    Cl20636   6.976   3.871   2.764 -0.2504 -0.2298  0.2048
  157MOL0     C20637   7.816   4.363   2.057  0.1119  0.3026 -0.6310
  157MOL0     C20638   7.903   4.428   1.975  0.4931  0.3611 -1.0548
  157MOL0     O20639   7.825   4.781   1.784 -0.7046  0.4896  0.1626
  157MOL0     C20640   8.032   4.923   1.658  0.2528 -0.5964  0.5396
  157MOL0     C20641   8.116   4.974   1.567  0.1292 -0.4493  0.7534
  157MOL0     N20642   8.745   4.847   1.134 -0.0568  0.6436 -0.2028
  157MOL0     N20643   8.819   4.747   1.094 -0.0468 -0.3696 -0.0093
  157MOL0     C20644  10.045   4.717   0.426  0.8738  0.3626 -0.1021
  157MOL0     C20645  10.178   4.763   0.430 -0.0035 -0.0783  0.4099
  157MOL0     C20646  10.591   4.903   0.497 -0.0973  0.1720 -0.3028
  157MOL0     C20647  10.636   4.941   0.631 -0.2512 -0.2432 -0.8792
  157MOL0     C20648  10.776   4.949   0.667 -0.1252  0.4397  0.2928
  157MOL0     C20649  10.876   4.942   0.565 -0.3225  0.6237  0.0706
  157MOL0     O20650  11.003   4.971   0.587  0.1189  0.1977 -0.7178
  157MOL0     C20651  11.116   4.955   0.495  0.1547 -0.1942 -1.0266
  157MOL0     C20652  11.244   4.961   0.585 -0.4037 -0.0773  0.6984
  157MOL0     C20653  11.369   4.968   0.484  0.2563 -0.0821 -0.2728
  157MOL0     C20654  11.497   4.988   0.561 -0.5029  0.0377  0.1132
  157MOL0     C20655  11.533   4.862   0.629 -0.1630  0.2790 -0.5920
  157MOL0     C20656  11.567   4.764   0.695  0.2375 -0.9866  0.3084
  157MOL0     C20657  10.827   4.923   0.439 -0.3454  0.1953  0.0570
  157MOL0     C20658  10.693   4.889   0.407 -0.3366  0.4345 -0.0508
  157MOL0     H20659  10.176   4.891   0.742 -1.4573  2.9455 -0.6125
  157MOL0     H20660   9.942   4.798   0.736 -1.0601 -2.3414 -0.9171
  157MOL0     H20661   9.732   4.788   0.659  2.3325 -0.9024  1.8867
  157MOL0     H20662   9.768   4.624   0.723  1.1614  0.0993 -1.4483
  157MOL0     H20663   9.597   4.527   0.551  2.5454 -0.3243  0.4921
  157MOL0     H20664   9.600   4.673   0.473  3.6741 -0.9818  0.1793
  157MOL0     H20665   9.387   4.650   0.591  1.2074 -2.5371  0.1323
  157MOL0     H20666   9.470   4.790   0.634 -2.0579  0.0534 -2.5272
  157MOL0     H20667   9.445   4.535   0.793  1.6170 -0.4221  0.2848
  157MOL0     H20668   9.549   4.666   0.857 -1.2854 -1.1219  1.5445
  157MOL0     H20669   9.268   4.719   0.778  1.6962 -1.3580 -0.6761
  157MOL0     H20670   9.380   4.819   0.879  1.6872  0.2602  1.2353
  157MOL0     H20671   9.324   4.670   1.062 -0.8980  3.7991  0.1346
  157MOL0     H20672   9.258   4.543   0.972  0.7529  0.3119  2.8392
  157MOL0     H20673   9.143   4.828   1.019  2.2930 -0.4883  1.6328
  157MOL0     H20674   9.068   4.722   0.903  3.2889  0.9622 -1.4343
  157MOL0     H20675   9.122   4.673   1.210  0.8874 -0.4874 -1.0029
  157MOL0     H20676   9.026   4.573   1.109  0.6250 -0.2029 -1.1115
  157MOL0     H20677   9.013   4.891   1.331  1.0829 -1.3210 -0.4756
  157MOL0     H20678   8.718   5.109   1.255  3.7119  2.0557 -0.8400
  157MOL0     H20679   8.840   5.078   1.377 -3.6843  3.3292  2.4832
  157MOL0     H20680   8.677   5.031   1.507 -1.1643  0.8485 -1.2111
  157MOL0     H20681   8.704   4.874   1.441 -0.5558  0.1515  2.3126
  157MOL0     H20682   8.515   5.079   1.306  1.6982  0.8355  0.5015
  157MOL0     H20683   8.496   4.914   1.279  0.1465  0.4613 -0.2846
  157MOL0     H20684   8.428   5.072   1.529  1.1576  0.7078 -0.1974
  157MOL0     H20685   8.455   4.904   1.557 -1.1135 -1.0096 -1.1868
  157MOL0     H20686   8.305   4.709   1.519  0.0816 -0.7267  2.2309
  157MOL0     H20687   8.137   4.604   1.667 -1.9908 -0.3035 -0.6039
  157MOL0     H20688   7.791   4.742   2.033  0.0438 -0.0996  3.0202
  157MOL0     H20689   7.636   4.618   2.174 -0.2220 -0.6680 -0.2988
  157MOL0     H20690   7.586   4.166   2.152  0.2687 -0.4578 -0.2737
  157MOL0     H20691   7.489   4.308   2.100  1.7489  0.7457  0.2287
  157MOL0     H20692   7.403   4.331   2.329 -3.0307 -1.2670  1.9548
  157MOL0     H20693   7.495   4.180   2.377 -3.3550  0.2583  2.0705
  157MOL0     H20694   7.345   4.077   2.192  2.0677  0.7553 -0.6891
  157MOL0     H20695   7.274   4.238   2.175  0.1061  0.8145  1.4040
  157MOL0     H20696   7.297   4.095   2.443 -0.1750  0.4992  1.1540
  157MOL0     H20697   7.187   4.225   2.402  0.1512  1.8699 -2.1177
  157MOL0     H20698   7.162   3.969   2.247  2.1172  0.3782  1.3111
  157MOL0     H20699   7.053   4.110   2.273  1.6053  0.7287 -1.1005
  157MOL0     H20700   7.118   3.876   2.464  1.7964  1.6245  0.9083
  157MOL0     H20701   6.965   3.908   2.384 -0.0839  0.3711 -1.0038
  157MOL0     H20702   7.062   4.108   2.590 -0.6130  0.5566 -0.0893
  157MOL0     H20703   6.912   4.113   2.491 -0.5122 -1.1120  0.2888
  157MOL0     H20704   6.845   3.886   2.574  0.2298  0.2062  1.6674
  157MOL0     H20705   6.812   4.024   2.685 -1.8132  1.1769 -1.9793
  157MOL0     H20706   7.847   4.262   2.083  2.0208  1.7321  3.5304
  157MOL0     H20707   7.984   4.378   1.924  0.2201  0.6164 -1.7488
  157MOL0     H20708   7.965   4.996   1.702 -0.0955 -0.9680  0.6331
  157MOL0     H20709   8.109   5.077   1.533  3.2045 -0.0111  1.1850
  157MOL0     H20710  10.010   4.676   0.332 -2.0120 -1.2277  1.5196
  157MOL0     H20711  10.230   4.731   0.340  0.7399  2.1013  0.0259
  157MOL0     H20712  10.569   4.954   0.716  2.9367 -1.6030  2.0819
  157MOL0     H20713  10.815   4.963   0.767  0.4421  1.3911 -0.0499
  157MOL0     H20714  11.121   5.036   0.422 -0.8500  1.6636  0.8589
  157MOL0     H20715  11.117   4.867   0.431  1.1844  0.6831 -2.2598
  157MOL0     H20716  11.241   5.042   0.658  0.9391 -0.3600  1.0932
  157MOL0     H20717  11.253   4.863   0.632  1.6006 -1.7335 -2.6979
  157MOL0     H20718  11.360   5.051   0.412 -0.5517 -0.9216 -1.1721
  157MOL0     H20719  11.372   4.871   0.435 -2.7633 -1.2491  1.5607
  157MOL0     H20720  11.579   5.016   0.495  0.0746 -0.4013  0.6390
  157MOL0     H20721  11.486   5.069   0.633  1.2948  0.6015 -0.2093
  157MOL0     H20722  11.615   4.679   0.740  3.8097  0.9802  0.6144
  157MOL0     H20723  10.905   4.921   0.365 -1.6335 -0.0902 -1.3446
  157MOL0     H20724  10.681   4.869   0.301 -0.4346 -2.4368  0.4199
  158MOL0     O20725   3.528   4.610   8.316 -0.0962  0.1570  0.0452
  158MOL0     C20726   3.550   4.599   8.440  0.2637  0.2583  1.0645
  158MOL0     O20727   3.442   4.596   8.530 -1.2729 -0.2733 -0.0768
  158MOL0     C20728   3.333   4.659   8.481  0.5845  1.1365 -0.3955
  158MOL0     C20729   3.242   4.595   8.391  0.0593  0.4650 -1.1879
  158MOL0     C20730   3.116   4.644   8.366 -0.1323 -0.7261  0.4547
  158MOL0     C20731   3.074   4.762   8.435  0.5850  0.3892  0.3214
  158MOL0     O20732   2.949   4.822   8.421 -0.5447  0.1906 -0.1554
  158MOL0     C20733   2.841   4.738   8.374 -1.5051  1.0879  0.7407
  158MOL0     C20734   2.706   4.793   8.420  0.4578 -0.5022 -0.5389
  158MOL0     C20735   2.664   4.921   8.351 -0.1918 -1.1628 -0.4037
  158MOL0     C20736   2.518   4.953   8.351 -0.5035  0.0372 -0.4906
  158MOL0     C20737   2.484   5.077   8.261 -0.2700 -0.3955 -0.9313
  158MOL0     C20738   2.480   5.053   8.105  0.4105  0.4469 -0.4072
  158MOL0     C20739   2.388   4.938   8.056  0.0688 -0.9842  0.7237
  158MOL0     C20740   2.329   4.952   7.916  0.2289 -0.6812 -0.1243
  158MOL0     N20741   2.226   4.847   7.889 -0.1936 -0.2961 -0.3916
  158MOL0     C20742   2.140   4.860   7.783  0.1645  0.2020  0.2781
  158MOL0     C20743   2.085   4.740   7.769 -0.3730  0.7833  0.0010
  158MOL0     C20744   1.970   4.707   7.682 -0.0394  0.3576  0.1442
  158MOL0     C20745   1.834   4.710   7.751  0.8681  0.4945  0.5597
  158MOL0     C20746   1.793   4.847   7.809  0.0358  0.2692 -0.1284
  158MOL0     C20747   1.782   4.957   7.702 -0.7738  1.1125 -0.4436
  158MOL0     O20748   1.669   4.936   7.613  0.3165  0.1230 -0.2804
  158MOL0     C20749   1.535   4.985   7.651 -0.0187 -0.8582 -0.2387
  158MOL0     C20750   1.497   5.027   7.783 -0.5600  0.0313  0.3455
  158MOL0     C20751   1.371   5.084   7.802 -0.0349  0.3159 -0.2415
  158MOL0     C20752   1.277   5.096   7.701 -0.1087 -0.0657  0.1848
  158MOL0     C20753   1.138   5.145   7.740 -0.6564  0.4496  0.1687
  158MOL0     O20754   1.099   5.177   7.864  0.5075  0.4823 -0.1212
  158MOL0     C20755   0.973   5.227   7.882 -0.1677  1.2931 -0.0249
  158MOL0     C20756   0.973   5.353   7.941 -0.1745 -0.1889 -0.3215
  158MOL0     C20757   0.861   5.416   7.971 -0.4502 -0.1669 -0.2215
  158MOL0     C20758   0.737   5.368   7.946 -0.4888  0.4588  1.1630
  158MOL0     O20759   0.624   5.439   7.988 -0.0277 -0.2978 -0.1044
  158MOL0     C20760   0.490   5.393   7.989  0.4355 -0.3970 -0.6393
  158MOL0     C20761   0.415   5.439   8.108  0.3631  0.0735  0.1520
  158MOL0     C20762   0.257   5.413   8.104 -0.5613 -0.3932 -0.0513
  158MOL0     C20763   0.186   5.459   8.233 -0.2229  0.4923 -0.5881
  158MOL0     C20764   0.033   5.498   8.211 -0.6671 -0.2842  0.0768
  158MOL0     C20765  -0.062   5.372   8.201 -0.1664  0.0191  0.0702
  158MOL0     C20766  -0.213   5.388   8.246  0.1288  0.0301  0.1796
  158MOL0     C20767  -0.280   5.249   8.251 -0.1270 -0.6583 -0.0065
  158MOL0    Cl20768  -0.452   5.259   8.304  0.1013  0.0116 -0.1583
  158MOL0     C20769   0.729   5.243   7.879  0.5545 -0.0969 -0.1276
  158MOL0     C20770   0.844   5.171   7.849 -0.4667 -0.0898  0.4358
  158MOL0     O20771   1.065   5.166   7.638 -0.5196 -0.0382 -0.1498
  158MOL0     C20772   1.318   5.058   7.567  0.0983 -0.1443 -0.3495
  158MOL0     C20773   1.446   4.999   7.543  0.1691 -0.2148 -0.1614
  158MOL0     N20774   2.151   4.650   7.853 -0.0385  0.9961  0.5334
  158MOL0     N20775   2.240   4.718   7.922  0.0179 -0.4689  0.3138
  158MOL0     C20776   3.170   4.825   8.505 -0.4356 -0.8294  0.9629
  158MOL0     C20777   3.297   4.778   8.534 -0.4138  0.8330 -0.1473
  158MOL0     C20778   3.688   4.574   8.480  0.2942  0.1408 -0.4832
  158MOL0     C20779   3.797   4.611   8.400 -0.8042 -0.1183 -0.5529
  158MOL0     C20780   3.925   4.603   8.458 -0.5652 -0.6595  0.3733
  158MOL0     C20781   3.952   4.548   8.579 -0.2056 -0.2440  0.3548
  158MOL0     O20782   4.081   4.538   8.618 -0.8577 -0.4321 -0.5488
  158MOL0     C20783   4.110   4.468   8.741  0.4470 -0.4795  0.3127
  158MOL0     C20784   4.108   4.559   8.864 -0.4291 -0.0518  0.2994
  158MOL0     C20785   4.240   4.630   8.878  0.4606 -0.8634 -0.2704
  158MOL0     C20786   4.250   4.767   8.802  0.5646 -0.4508  0.5883
  158MOL0     C20787   4.144   4.862   8.839 -0.5146  0.5391 -0.2495
  158MOL0     C20788   4.057   4.945   8.865 -0.8048  1.0085  0.2693
  158MOL0     C20789   3.840   4.512   8.660  0.1185  0.8073  0.1737
  158MOL0     C20790   3.709   4.525   8.607 -0.2868 -0.7102 -0.4180
  158MOL0     H20791   3.264   4.498   8.346 -0.4030 -0.4898  0.5815
  158MOL0     H20792   3.049   4.595   8.296 -0.3005 -1.2473  0.9703
  158MOL0     H20793   2.860   4.635   8.404 -0.9952  1.2541  1.0044
  158MOL0     H20794   2.836   4.748   8.265 -2.1850  1.3440  0.7909
  158MOL0     H20795   2.696   4.824   8.524  3.2880  1.5626 -0.7542
  158MOL0     H20796   2.629   4.720   8.395 -3.4756  3.2436 -0.4468
  158MOL0     H20797   2.712   4.922   8.253 -2.3329 -3.0352 -1.5624
  158MOL0     H20798   2.699   5.010   8.404 -1.4119  0.1957 -1.8014
  158MOL0     H20799   2.467   4.863   8.316  0.7858  0.2268 -3.1023
  158MOL0     H20800   2.482   4.970   8.453 -0.8162 -0.7886 -0.4596
  158MOL0     H20801   2.552   5.160   8.283  0.8031 -1.4646 -0.0362
  158MOL0     H20802   2.381   5.105   8.286  0.5660 -0.0709  2.7978
  158MOL0     H20803   2.585   5.029   8.089  0.0336 -1.5939 -0.0655
  158MOL0     H20804   2.463   5.153   8.065  1.3015  2.1376  3.0378
  158MOL0     H20805   2.442   4.843   8.056  0.2714 -0.8711  0.3455
  158MOL0     H20806   2.303   4.937   8.124  2.0450 -0.1735  3.3410
  158MOL0     H20807   2.399   4.955   7.832 -2.9149  0.9377 -2.9297
  158MOL0     H20808   2.279   5.049   7.924  1.1400 -0.2776  1.0315
  158MOL0     H20809   2.105   4.952   7.737  2.1311  2.8069  3.4964
  158MOL0     H20810   1.980   4.605   7.642 -0.0900 -0.2858  1.6776
  158MOL0     H20811   1.981   4.774   7.597  2.2547  2.0219  1.6333
  158MOL0     H20812   1.829   4.631   7.827  1.2590  0.8768  0.9891
  158MOL0     H20813   1.755   4.687   7.680  2.3551  0.9411 -1.3345
  158MOL0     H20814   1.700   4.820   7.861  1.0231 -1.7879  0.6957
  158MOL0     H20815   1.862   4.884   7.885  3.2080 -0.9055 -2.2315
  158MOL0     H20816   1.873   4.958   7.641  0.1553 -0.6343  0.8070
  158MOL0     H20817   1.767   5.052   7.755 -1.1724  1.1968 -0.7066
  158MOL0     H20818   1.562   5.019   7.870 -0.6503 -2.0621  0.2744
  158MOL0     H20819   1.349   5.099   7.907 -1.1909  0.2764 -0.4657
  158MOL0     H20820   1.070   5.391   7.972  0.1822  0.4731 -2.1444
  158MOL0     H20821   0.873   5.509   8.026  1.6026 -2.3151  3.3833
  158MOL0     H20822   0.482   5.284   7.991  1.3116 -0.4665 -0.4050
  158MOL0     H20823   0.449   5.433   7.897  3.2502  3.3069 -0.4927
  158MOL0     H20824   0.432   5.546   8.121  1.1986 -0.2942  2.7335
  158MOL0     H20825   0.466   5.384   8.188  1.6625  2.5376  1.1409
  158MOL0     H20826   0.224   5.311   8.084 -1.5539 -0.0800 -0.0921
  158MOL0     H20827   0.221   5.483   8.028 -1.9902  0.8739  1.6750
  158MOL0     H20828   0.198   5.381   8.308  0.2031  1.7224  0.6601
  158MOL0     H20829   0.244   5.535   8.286 -0.3848 -1.4961  2.6921
  158MOL0     H20830   0.027   5.568   8.127 -1.9194 -0.6470 -0.1590
  158MOL0     H20831   0.002   5.565   8.292  2.1555  0.3095  0.7790
  158MOL0     H20832  -0.029   5.291   8.266 -0.8317 -2.0057 -1.9846
  158MOL0     H20833  -0.051   5.316   8.107  0.8924 -1.2253  0.9011
  158MOL0     H20834  -0.217   5.426   8.349  2.3515  0.6442  0.0909
  158MOL0     H20835  -0.271   5.461   8.189  0.0784  0.9647  1.3691
  158MOL0     H20836  -0.231   5.198   8.335 -0.8670  0.2991  1.0273
  158MOL0     H20837  -0.270   5.190   8.159 -1.8215 -2.2685  0.7686
  158MOL0     H20838   0.637   5.194   7.850  0.1788  0.9816 -0.8229
  158MOL0     H20839   0.846   5.076   7.795  0.5650  0.8736 -1.3173
  158MOL0     H20840   1.236   5.070   7.497  0.6859  0.3821 -0.9618
  158MOL0     H20841   1.473   4.947   7.452 -1.1483  2.8426 -2.4741
  158MOL0     H20842   3.161   4.916   8.563  1.6100  0.7956 -1.1082
  158MOL0     H20843   3.358   4.820   8.613  0.4516  0.3425 -0.5404
  158MOL0     H20844   3.788   4.647   8.299  2.0972  0.4883 -0.7039
  158MOL0     H20845   4.012   4.621   8.396 -1.8063 -1.8269 -1.8095
  158MOL0     H20846   4.201   4.408   8.736  1.1841  0.3688  2.4139
  158MOL0     H20847   4.040   4.388   8.767  1.3723 -0.7944  1.9485
  158MOL0     H20848   4.027   4.633   8.869 -0.1282  0.2095  1.7726
  158MOL0     H20849   4.083   4.499   8.952 -0.0134 -0.7628 -0.0581
  158MOL0     H20850   4.322   4.560   8.856 -0.8942 -2.6936  0.3076
  158MOL0     H20851   4.257   4.649   8.984  0.8948 -1.2808 -0.2638
  158MOL0     H20852   4.343   4.824   8.815  1.5344 -2.0289  0.8233
  158MOL0     H20853   4.240   4.740   8.696  0.3298  1.3458  0.1262
  158MOL0     H20854   3.980   5.017   8.883  0.5866  3.7205 -3.2361
  158MOL0     H20855   3.851   4.471   8.759 -0.9675 -1.4563 -0.5704
  158MOL0     H20856   3.631   4.498   8.677  1.6917 -0.0893  2.1713
  159MOL0     O20857   3.564   2.891   3.597  0.5906 -0.3148 -0.2171
  159MOL0     C20858   3.607   3.011   3.603 -0.3352  0.2999  0.0883
  159MOL0     O20859   3.540   3.118   3.562  0.3928  0.2834 -0.2006
  159MOL0     C20860   3.400   3.116   3.543 -0.0344 -0.0134 -0.2366
  159MOL0     C20861   3.314   3.042   3.625  0.1124  0.4187  0.5550
  159MOL0     C20862   3.179   3.053   3.604  0.1696  0.4807  0.4664
  159MOL0     C20863   3.123   3.131   3.513 -0.1296 -0.1513  0.4901
  159MOL0     O20864   2.988   3.161   3.508 -0.4558  0.0313 -0.7830
  159MOL0     C20865   2.893   3.095   3.601 -0.2679  0.1454  1.0856
  159MOL0     C20866   2.749   3.131   3.557  0.0504 -1.0628 -0.9766
  159MOL0     C20867   2.650   3.087   3.665 -1.0748 -0.0682 -0.6694
  159MOL0     C20868   2.510   3.081   3.611 -0.1293  0.2930 -0.5967
  159MOL0     C20869   2.402   3.047   3.726  0.5259 -0.1563  0.8752
  159MOL0     C20870   2.267   3.008   3.660 -0.2282  0.8225  0.6499
  159MOL0     C20871   2.157   2.975   3.771 -1.0492  0.0793  0.1515
  159MOL0     C20872   2.024   2.950   3.723 -0.1020 -0.3034  0.4426
  159MOL0     N20873   1.928   2.949   3.826  0.5292 -0.4454  0.0010
  159MOL0     C20874   1.946   2.941   3.963 -0.1712  0.2743 -0.3905
  159MOL0     C20875   1.826   2.929   4.003 -0.1911  0.2502  0.5661
  159MOL0     C20876   1.793   2.913   4.145 -0.1572 -0.7634  0.6236
  159MOL0     C20877   1.769   3.048   4.208  0.1303  0.4005  0.4682
  159MOL0     C20878   1.738   3.028   4.352 -0.2944 -0.1718  0.6763
  159MOL0     C20879   1.681   3.159   4.419 -0.5179  0.3100 -0.0304
  159MOL0     O20880   1.578   3.105   4.505 -0.2876 -0.2911  0.4282
  159MOL0     C20881   1.477   3.191   4.540 -1.0690 -0.4276  0.0251
  159MOL0     C20882   1.361   3.120   4.582 -0.3580  0.4150  0.9281
  159MOL0     C20883   1.250   3.191   4.626  0.0817 -0.0284  0.0407
  159MOL0     C20884   1.241   3.328   4.611  0.3147 -0.6529  0.2373
  159MOL0     C20885   1.116   3.401   4.638 -0.4706  0.1422 -1.0205
  159MOL0     O20886   1.012   3.330   4.685  0.0469 -0.0484 -0.1041
  159MOL0     C20887   0.889   3.385   4.671  0.7139  0.4532  0.5559
  159MOL0     C20888   0.816   3.364   4.558  0.1410  0.1966  0.6750
  159MOL0     C20889   0.680   3.400   4.554  0.1766 -0.3827 -0.1313
  159MOL0     C20890   0.615   3.458   4.664 -0.6867  0.6923 -0.6565
  159MOL0     O20891   0.483   3.501   4.656 -0.3387 -0.1882 -0.0975
  159MOL0     C20892   0.417   3.554   4.764 -0.3107 -1.1440 -0.3982
  159MOL0     C20893   0.276   3.598   4.723  0.3556  0.1360 -0.1990
  159MOL0     C20894   0.194   3.637   4.846 -0.4565 -0.0521  0.0197
  159MOL0     C20895   0.069   3.721   4.803  0.1556  0.2823  0.1808
  159MOL0     C20896  -0.032   3.718   4.910  1.6152  0.2791 -0.5942
  159MOL0     C20897  -0.130   3.596   4.911 -0.5253 -0.4720  0.0903
  159MOL0     C20898  -0.199   3.606   5.052 -0.4776  0.0116 -0.5665
  159MOL0     C20899  -0.309   3.501   5.085  0.0584 -0.4611  0.5118
  159MOL0    Cl20900  -0.256   3.342   5.038 -0.1793 -0.1029 -0.0510
  159MOL0     C20901   0.697   3.478   4.779 -1.0492  0.8596  0.3441
  159MOL0     C20902   0.836   3.454   4.775  0.3461  0.5317 -0.4670
  159MOL0     O20903   1.118   3.519   4.610  0.2162 -0.5127  0.7358
  159MOL0     C20904   1.363   3.396   4.574  0.4830 -0.4703 -0.7880
  159MOL0     C20905   1.476   3.330   4.543 -1.1991  0.4258 -0.1758
  159MOL0     N20906   1.730   2.928   3.902 -0.1611 -0.3305  0.4577
  159MOL0     N20907   1.790   2.952   3.791 -0.5403  0.0325  0.0546
  159MOL0     C20908   3.205   3.199   3.423  0.5166  0.3404 -0.0360
  159MOL0     C20909   3.344   3.186   3.436  0.3410  0.0834  0.3414
  159MOL0     C20910   3.733   3.041   3.663  0.0717 -0.7002 -0.4169
  159MOL0     C20911   3.829   2.941   3.677 -0.0625  0.1206 -0.2247
  159MOL0     C20912   3.950   2.978   3.736  0.0504 -0.1676 -0.3662
  159MOL0     C20913   3.980   3.112   3.775  0.3113  0.3604 -1.2200
  159MOL0     O20914   4.095   3.162   3.831  0.3948 -0.1798  0.1677
  159MOL0     C20915   4.179   3.064   3.911 -0.1862 -0.4513  1.0496
  159MOL0     C20916   4.269   3.144   4.012  0.1948 -0.5947 -0.6070
  159MOL0     C20917   4.385   3.060   4.072 -0.2154 -0.3653 -0.3529
  159MOL0     C20918   4.449   3.134   4.180 -0.7919 -0.5436 -0.2805
  159MOL0     C20919   4.517   3.255   4.124 -0.6787  0.5589  0.1171
  159MOL0     C20920   4.577   3.358   4.089 -0.8721 -0.0760  0.0422
  159MOL0     C20921   3.879   3.204   3.760 -0.4590  0.9155 -0.4040
  159MOL0     C20922   3.765   3.173   3.704  0.9002 -0.3792  0.3435
  159MOL0     H20923   3.358   2.979   3.702  0.0149 -0.8467 -0.3960
  159MOL0     H20924   3.122   2.996   3.677  0.9436 -1.2204 -0.2080
  159MOL0     H20925   2.908   3.128   3.705  0.1952 -2.4227  1.8963
  159MOL0     H20926   2.898   2.986   3.600  3.4894  0.0620 -2.5834
  159MOL0     H20927   2.738   3.080   3.461 -0.9107  1.0096 -2.0371
  159MOL0     H20928   2.740   3.240   3.547  0.4049 -1.0419 -1.0919
  159MOL0     H20929   2.656   3.151   3.753  1.4655  0.9803 -1.5105
  159MOL0     H20930   2.675   2.987   3.699  1.9422  0.9146  0.2963
  159MOL0     H20931   2.477   3.177   3.571 -1.1803  1.0856  1.9165
  159MOL0     H20932   2.517   3.000   3.538  1.0648 -0.3746  0.2299
  159MOL0     H20933   2.385   3.131   3.794 -0.1869 -0.7758  1.4668
  159MOL0     H20934   2.433   2.966   3.791 -1.6622 -1.5661  0.2566
  159MOL0     H20935   2.280   2.924   3.591 -0.7516  1.2411  0.0253
  159MOL0     H20936   2.225   3.086   3.595  0.2035 -0.3299 -1.0809
  159MOL0     H20937   2.196   2.894   3.834 -0.7017  0.6561  0.6923
  159MOL0     H20938   2.152   3.062   3.838  1.0500  1.0572 -0.8479
  159MOL0     H20939   2.038   2.851   3.678  0.5276  0.4206 -1.0268
  159MOL0     H20940   2.002   3.020   3.642 -2.6668 -1.5666 -0.0645
  159MOL0     H20941   2.038   2.932   4.020  0.7565 -1.3111 -2.0232
  159MOL0     H20942   1.875   2.862   4.195 -0.4142 -1.4585  0.3473
  159MOL0     H20943   1.708   2.844   4.153 -1.7438  0.4162 -3.4079
  159MOL0     H20944   1.705   3.121   4.159  1.9943  0.6474 -1.7581
  159MOL0     H20945   1.869   3.093   4.214 -0.0233  0.6034  1.9134
  159MOL0     H20946   1.659   2.952   4.347  1.1215 -1.7275  0.9652
  159MOL0     H20947   1.831   3.003   4.404 -0.0660  0.0665  0.3836
  159MOL0     H20948   1.630   3.214   4.339 -1.9484 -1.7081 -0.6160
  159MOL0     H20949   1.752   3.229   4.463 -2.8169  1.8276  1.4722
  159MOL0     H20950   1.357   3.011   4.580 -1.9247  0.4451  0.6664
  159MOL0     H20951   1.160   3.142   4.663 -1.2097  2.8217  1.0037
  159MOL0     H20952   0.866   3.317   4.474  0.6695 -0.7270  1.4749
  159MOL0     H20953   0.615   3.378   4.470 -1.3522 -0.4182  1.0190
  159MOL0     H20954   0.458   3.650   4.796 -1.3941 -0.4187 -1.1139
  159MOL0     H20955   0.415   3.477   4.841  2.7277 -1.8698 -0.8957
  159MOL0     H20956   0.229   3.514   4.671 -0.6091  0.8858 -0.5636
  159MOL0     H20957   0.288   3.681   4.653  0.5254  1.3733  1.2404
  159MOL0     H20958   0.257   3.693   4.916  0.1640  1.8881 -1.9538
  159MOL0     H20959   0.156   3.548   4.897 -1.5047 -1.5301 -3.0718
  159MOL0     H20960   0.109   3.821   4.781 -1.1280  0.3080 -2.3339
  159MOL0     H20961   0.025   3.677   4.713 -2.3301 -1.0127  1.9010
  159MOL0     H20962  -0.094   3.807   4.898 -0.2668 -0.7474  0.9505
  159MOL0     H20963   0.003   3.728   5.013 -3.1611 -0.9666  1.4473
  159MOL0     H20964  -0.073   3.503   4.900  2.1383  0.9276  1.1820
  159MOL0     H20965  -0.200   3.610   4.828 -1.4826 -0.1342  0.9250
  159MOL0     H20966  -0.131   3.607   5.137 -0.4800  1.1707 -0.5604
  159MOL0     H20967  -0.251   3.702   5.053 -1.6153 -0.5423 -1.8525
  159MOL0     H20968  -0.396   3.524   5.022 -0.1678 -1.1147  0.5837
  159MOL0     H20969  -0.346   3.512   5.188 -1.1528 -1.0442  0.1622
  159MOL0     H20970   0.663   3.535   4.865  0.0940  0.8340  0.8306
  159MOL0     H20971   0.895   3.480   4.863  1.9593 -2.3908 -0.5662
  159MOL0     H20972   1.365   3.504   4.565  4.1010 -0.4943 -1.5775
  159MOL0     H20973   1.572   3.377   4.521 -0.8490 -0.5983 -0.9190
  159MOL0     H20974   3.153   3.249   3.341 -0.5493  0.9327  0.9641
  159MOL0     H20975   3.417   3.219   3.363  1.2259 -2.6235 -0.1111
  159MOL0     H20976   3.803   2.839   3.650 -0.2792  0.5747 -1.8333
  159MOL0     H20977   4.030   2.906   3.749  1.5011  1.2943 -0.7824
  159MOL0     H20978   4.233   3.012   3.831 -1.2169 -0.4097  0.3096
  159MOL0     H20979   4.118   2.992   3.966 -3.3250  1.6420  0.5822
  159MOL0     H20980   4.329   3.213   3.952  0.6040 -1.5177 -1.2741
  159MOL0     H20981   4.212   3.197   4.089 -0.7298  0.3435 -1.8891
  159MOL0     H20982   4.452   3.029   3.991 -0.6927 -0.2985 -0.7752
  159MOL0     H20983   4.342   2.966   4.107 -0.2783 -0.2754 -0.1859
  159MOL0     H20984   4.374   3.150   4.258 -0.4205  0.7595 -0.1668
  159MOL0     H20985   4.516   3.070   4.237  0.5401  1.2389  0.2120
  159MOL0     H20986   4.634   3.445   4.064  0.1022 -0.6028  0.3628
  159MOL0     H20987   3.901   3.305   3.792  0.3131 -0.0455  2.3250
  159MOL0     H20988   3.699   3.253   3.671 -0.1514 -0.0294  3.0573
  160MOL0     O20989   8.941   6.457   2.916 -0.3592 -0.7567  0.8979
  160MOL0     C20990   8.997   6.533   2.994 -0.0075  0.0977 -0.0605
  160MOL0     O20991   8.934   6.613   3.085 -0.3149  0.6686 -0.0640
  160MOL0     C20992   8.795   6.610   3.096 -0.6731  0.2524 -0.3108
  160MOL0     C20993   8.733   6.541   3.203  0.0163 -0.1133  0.3716
  160MOL0     C20994   8.592   6.530   3.214  0.3021  1.0035 -0.1096
  160MOL0     C20995   8.513   6.583   3.109  0.7181 -0.1775 -0.6581
  160MOL0     O20996   8.379   6.571   3.119  0.6975 -0.8315 -0.8918
  160MOL0     C20997   8.289   6.613   3.016 -0.3259  0.7360 -0.2058
  160MOL0     C20998   8.149   6.548   3.050 -0.6147  0.1262  0.7811
  160MOL0     C20999   8.154   6.395   3.029 -0.3109  0.3529  0.1130
  160MOL0     C21000   8.026   6.328   2.984  0.1419 -0.3310  0.0544
  160MOL0     C21001   8.063   6.182   2.965  0.1876  0.4677 -0.1077
  160MOL0     C21002   7.977   6.119   2.863  0.2589  0.6020  0.9919
  160MOL0     C21003   8.014   6.134   2.719 -0.1510  0.0490  0.7842
  160MOL0     C21004   7.951   6.023   2.637  0.6442  0.0404 -0.1699
  160MOL0     N21005   7.810   6.046   2.602 -0.1160 -0.4239 -0.0524
  160MOL0     C21006   7.776   6.142   2.513  0.3908  0.0898 -0.4934
  160MOL0     C21007   7.653   6.096   2.478  0.9206 -1.1084  0.2665
  160MOL0     C21008   7.575   6.178   2.372  0.6330 -0.2674 -0.0904
  160MOL0     C21009   7.498   6.311   2.406 -0.2836 -0.3236  0.2317
  160MOL0     C21010   7.421   6.319   2.545 -0.0420 -0.9300  0.1684
  160MOL0     C21011   7.304   6.226   2.561  0.4535 -0.1532  1.1690
  160MOL0     O21012   7.252   6.255   2.687 -0.2518 -0.1518  0.5163
  160MOL0     C21013   7.139   6.184   2.715  1.1768  0.1909  0.2328
  160MOL0     C21014   7.064   6.099   2.635 -0.9396  0.0925 -0.4413
  160MOL0     C21015   6.945   6.040   2.681 -0.1569  0.3220 -0.5933
  160MOL0     C21016   6.912   6.044   2.818 -0.6142  0.0774  0.3654
  160MOL0     C21017   6.782   5.997   2.878  0.3111 -0.4762  0.1931
  160MOL0     O21018   6.688   5.962   2.787  0.1831  0.8921  0.0924
  160MOL0     C21019   6.557   5.976   2.817 -0.6776 -0.4931 -0.4474
  160MOL0     C21020   6.503   5.894   2.918  0.5456  0.0668  0.2686
  160MOL0     C21021   6.364   5.920   2.956 -0.1695 -0.0874 -0.1005
  160MOL0     C21022   6.287   6.017   2.889 -0.2388 -0.2679 -0.0812
  160MOL0     O21023   6.163   6.054   2.924  0.4123  0.1348 -0.3304
  160MOL0     C21024   6.068   5.947   2.963  0.5017 -0.3989  0.2707
  160MOL0     C21025   5.921   5.991   2.917 -0.2766  0.5494  0.4361
  160MOL0     C21026   5.855   6.059   3.034 -0.4380  0.0280 -0.7147
  160MOL0     C21027   5.714   6.108   3.002 -0.7010  0.2052 -0.2202
  160MOL0     C21028   5.666   6.202   3.111 -0.6662  1.0640 -0.5084
  160MOL0     C21029   5.541   6.271   3.074  0.0904 -0.0699 -0.7576
  160MOL0     C21030   5.497   6.363   3.191  0.4127 -0.0828  0.1959
  160MOL0     C21031   5.348   6.400   3.165 -0.0999  0.4814 -0.9091
  160MOL0    Cl21032   5.316   6.416   2.996  0.2389  0.3255 -0.5502
  160MOL0     C21033   6.349   6.097   2.791 -0.1039  1.7698 -0.2384
  160MOL0     C21034   6.478   6.073   2.753  0.1092 -0.5022  0.0779
  160MOL0     O21035   6.765   5.996   3.000  0.2421 -0.5521 -0.4475
  160MOL0     C21036   6.993   6.125   2.906  0.4481 -0.0332  0.1194
  160MOL0     C21037   7.099   6.196   2.851 -0.8186 -0.5704  0.6208
  160MOL0     N21038   7.615   5.990   2.554  0.1774  0.7213 -0.6824
  160MOL0     N21039   7.711   5.960   2.629 -0.5802 -0.3608 -0.9692
  160MOL0     C21040   8.577   6.652   3.005  0.1393  0.1577  0.5601
  160MOL0     C21041   8.714   6.664   3.002 -0.7313 -0.0480  0.5398
  160MOL0     C21042   9.145   6.516   3.010  0.2280 -0.3068  0.5155
  160MOL0     C21043   9.213   6.426   2.930  0.5812 -0.1916 -0.1574
  160MOL0     C21044   9.350   6.423   2.926 -0.7606 -0.4420 -0.7439
  160MOL0     C21045   9.422   6.515   2.996 -0.2480 -0.3372 -0.1021
  160MOL0     O21046   9.562   6.523   2.981 -0.1882  0.5790 -0.6778
  160MOL0     C21047   9.643   6.608   3.066 -0.6253  0.1397 -0.7390
  160MOL0     C21048   9.786   6.615   3.018  0.0438  0.9487 -0.0028
  160MOL0     C21049   9.805   6.727   2.921  0.1223 -0.6985  0.6150
  160MOL0     C21050   9.956   6.772   2.911  0.3153  0.2942 -0.2236
  160MOL0     C21051  10.046   6.655   2.897  0.8224 -0.3222 -0.0635
  160MOL0     C21052  10.123   6.561   2.889  0.6945 -0.0180  0.7589
  160MOL0     C21053   9.360   6.612   3.076  0.4161 -0.6526 -1.0730
  160MOL0     C21054   9.219   6.611   3.081  0.1568 -0.4173 -0.0421
  160MOL0     H21055   8.803   6.496   3.272  0.9437 -3.0045 -2.2263
  160MOL0     H21056   8.541   6.486   3.298 -1.1054  0.0249 -1.4169
  160MOL0     H21057   8.321   6.566   2.923  1.3469 -4.1355  2.4793
  160MOL0     H21058   8.284   6.722   3.004 -1.1640  0.5350 -1.8445
  160MOL0     H21059   8.084   6.595   2.976  0.5677  0.5865  0.0152
  160MOL0     H21060   8.101   6.579   3.144 -1.0895  2.8969 -0.2736
  160MOL0     H21061   8.186   6.350   3.124 -0.7072  0.3754  0.2566
  160MOL0     H21062   8.229   6.372   2.953 -0.4428  0.5493 -0.0756
  160MOL0     H21063   7.949   6.346   3.060 -0.6086 -3.6661  0.2157
  160MOL0     H21064   7.985   6.370   2.892  0.3871 -0.8039 -0.2727
  160MOL0     H21065   8.054   6.135   3.063  0.2129  3.2174  1.2766
  160MOL0     H21066   8.165   6.169   2.928 -0.6275  0.9980 -2.7526
  160MOL0     H21067   7.873   6.148   2.877 -0.6491 -0.0644 -3.0752
  160MOL0     H21068   7.977   6.011   2.882  1.2201  0.1323 -1.3964
  160MOL0     H21069   7.994   6.236   2.683 -1.6227  0.8238  3.5330
  160MOL0     H21070   8.121   6.118   2.711 -0.1818  0.8108 -2.3426
  160MOL0     H21071   7.951   5.924   2.683 -0.3430  0.3241  0.4856
  160MOL0     H21072   8.011   6.008   2.547  0.0457 -1.4215 -0.3558
  160MOL0     H21073   7.840   6.225   2.484 -1.8383  1.6591 -1.1677
  160MOL0     H21074   7.497   6.111   2.333 -2.8698  0.4830  4.7373
  160MOL0     H21075   7.657   6.207   2.305 -0.8692  3.8241 -0.4103
  160MOL0     H21076   7.434   6.349   2.326 -0.1377 -0.4211  0.0691
  160MOL0     H21077   7.578   6.384   2.402  0.0972 -0.7831 -1.0342
  160MOL0     H21078   7.497   6.306   2.623 -0.8142  0.7275  1.2657
  160MOL0     H21079   7.378   6.419   2.557 -1.6946 -1.7204  1.3542
  160MOL0     H21080   7.330   6.121   2.548 -0.0436 -0.1159 -0.4160
  160MOL0     H21081   7.227   6.247   2.486  1.5055  1.2386  0.4103
  160MOL0     H21082   7.096   6.085   2.532  2.7609  0.5987  0.5094
  160MOL0     H21083   6.874   5.996   2.612 -0.7256  1.6909 -0.9089
  160MOL0     H21084   6.560   5.819   2.970  2.2937 -0.2684 -1.9668
  160MOL0     H21085   6.310   5.871   3.036 -0.0123  0.8782  0.6158
  160MOL0     H21086   6.077   5.929   3.070  1.3997  0.1549  0.2953
  160MOL0     H21087   6.099   5.856   2.911 -0.1410 -0.8947  0.7356
  160MOL0     H21088   5.862   5.910   2.875  1.4819 -1.3692  1.4975
  160MOL0     H21089   5.928   6.066   2.838 -1.5909 -0.1184 -0.3434
  160MOL0     H21090   5.911   6.152   3.046  2.0344 -1.6098  1.6508
  160MOL0     H21091   5.855   5.995   3.122 -4.4685 -0.0154 -0.5268
  160MOL0     H21092   5.730   6.150   2.902 -1.6167  0.2037 -0.3722
  160MOL0     H21093   5.638   6.029   2.998 -1.3036  0.7975 -0.6658
  160MOL0     H21094   5.743   6.274   3.140 -0.6336  0.5321  0.8041
  160MOL0     H21095   5.649   6.137   3.197 -2.4700  1.4203 -0.5683
  160MOL0     H21096   5.467   6.191   3.063  3.7123 -3.7512 -0.5918
  160MOL0     H21097   5.571   6.328   2.986  3.1631  1.6800  1.2063
  160MOL0     H21098   5.510   6.309   3.286 -2.4712 -0.5188  0.4540
  160MOL0     H21099   5.555   6.455   3.200 -2.0636  1.6257 -0.3219
  160MOL0     H21100   5.326   6.492   3.220  1.0330 -0.5656  1.4591
  160MOL0     H21101   5.287   6.320   3.209  2.1102 -1.2648 -0.8669
  160MOL0     H21102   6.289   6.170   2.738  1.0509  2.6494 -0.3552
  160MOL0     H21103   6.519   6.144   2.681 -1.9235  1.1340  0.4501
  160MOL0     H21104   6.969   6.127   3.012  0.7055 -0.5761  0.1965
  160MOL0     H21105   7.166   6.251   2.916 -2.2153  1.7139  0.2345
  160MOL0     H21106   8.514   6.692   2.926 -1.1209 -1.6509  0.5962
  160MOL0     H21107   8.757   6.713   2.916 -2.9758 -0.1674 -0.7299
  160MOL0     H21108   9.156   6.355   2.870  0.3835 -0.7584  0.6870
  160MOL0     H21109   9.410   6.359   2.862  2.0351  0.3669  0.8938
  160MOL0     H21110   9.652   6.566   3.166 -1.9604  1.7985  0.1365
  160MOL0     H21111   9.604   6.706   3.093  3.8092  2.0509 -0.3458
  160MOL0     H21112   9.847   6.623   3.109 -0.2039  3.2963  0.0028
  160MOL0     H21113   9.818   6.521   2.972  1.5165  1.5013 -0.1685
  160MOL0     H21114   9.744   6.814   2.945 -1.0271 -1.6035  1.0798
  160MOL0     H21115   9.771   6.704   2.820 -1.7909  2.4331  0.4085
  160MOL0     H21116   9.965   6.845   2.830  2.7097  0.4149  0.0713
  160MOL0     H21117   9.981   6.834   2.997  2.4335  1.4867 -1.6108
  160MOL0     H21118  10.183   6.476   2.862 -1.7888 -1.1985 -1.5532
  160MOL0     H21119   9.406   6.695   3.128 -0.2908 -0.1887 -1.1719
  160MOL0     H21120   9.170   6.690   3.137  0.8861  0.0751 -0.0920
  161MOL0     O21121   3.029   1.812   9.331  0.6459 -0.2958 -0.4236
  161MOL0     C21122   3.109   1.853   9.253 -0.2416  0.0590 -0.1589
  161MOL0     O21123   3.077   1.915   9.140 -0.5340 -0.2904 -0.0641
  161MOL0     C21124   2.955   1.979   9.121 -0.1960 -0.0741 -0.1269
  161MOL0     C21125   2.908   2.003   8.987 -0.8949  0.2725  0.0863
  161MOL0     C21126   2.792   2.082   8.972 -0.5488  0.3114 -0.1932
  161MOL0     C21127   2.720   2.126   9.082  0.6385  0.2900  0.2638
  161MOL0     O21128   2.602   2.192   9.068  0.5423 -0.0536  0.3648
  161MOL0     C21129   2.486   2.112   9.093  0.2029 -0.0912 -0.7501
  161MOL0     C21130   2.351   2.167   9.034 -0.0659  0.6645 -0.2939
  161MOL0     C21131   2.311   2.297   9.108 -0.0380 -0.1714 -0.8865
  161MOL0     C21132   2.159   2.320   9.117 -0.4613 -0.3797  0.5153
  161MOL0     C21133   2.089   2.210   9.198  0.0960  0.7644  0.3635
  161MOL0     C21134   1.943   2.239   9.216  0.2075 -0.1241  0.2076
  161MOL0     C21135   1.886   2.126   9.291  0.0249 -0.2293 -0.3290
  161MOL0     C21136   1.738   2.147   9.304 -0.5815  0.6145  0.3096
  161MOL0     N21137   1.702   2.039   9.397  0.2458 -0.3809  0.0402
  161MOL0     C21138   1.700   2.044   9.536  1.1525  0.2738  0.2169
  161MOL0     C21139   1.641   1.923   9.573  0.3743 -0.7683  0.6796
  161MOL0     C21140   1.600   1.891   9.717  0.2055 -0.0917  0.1928
  161MOL0     C21141   1.555   1.746   9.707 -0.1865 -0.1537  0.1805
  161MOL0     C21142   1.474   1.706   9.826 -0.4515  0.3713 -0.5958
  161MOL0     C21143   1.335   1.762   9.802 -0.1514 -0.0784 -0.7837
  161MOL0     O21144   1.233   1.683   9.868  0.1311  0.0618  0.2353
  161MOL0     C21145   1.107   1.746   9.880  0.4984 -1.2660 -0.1034
  161MOL0     C21146   1.009   1.666   9.941  0.8416  0.1926  0.0616
  161MOL0     C21147   0.871   1.709   9.956  0.5629  0.1949 -0.0237
  161MOL0     C21148   0.842   1.831   9.897  1.2056 -0.6106  0.4841
  161MOL0     C21149   0.709   1.889   9.919  0.8335  0.0587 -0.3753
  161MOL0     O21150   0.621   1.811   9.981  0.4301 -0.4255  0.1555
  161MOL0     C21151   0.491   1.851  10.002  0.2486 -0.0799 -0.2793
  161MOL0     C21152   0.422   1.940   9.909  0.0799 -0.3586 -0.5247
  161MOL0     C21153   0.296   1.989   9.954 -0.1689 -0.0794 -0.3590
  161MOL0     C21154   0.235   1.948  10.072  0.2921  0.2886  0.0119
  161MOL0     O21155   0.102   1.983  10.104 -0.1923 -0.0004  0.3222
  161MOL0     C21156   0.013   2.018   9.998 -0.0239 -0.0050  0.9289
  161MOL0     C21157  -0.128   2.013  10.053 -0.8591  0.3377 -0.0500
  161MOL0     C21158  -0.225   2.020   9.943  0.0936 -0.3220  0.4336
  161MOL0     C21159  -0.373   1.967   9.984  0.0434  0.1569  0.3682
  161MOL0     C21160  -0.482   1.981   9.875  0.1708  0.0046 -0.2401
  161MOL0     C21161  -0.609   1.904   9.905  0.5426 -0.2505  0.2090
  161MOL0     C21162  -0.694   1.907   9.775  0.2934  0.6987  0.2786
  161MOL0     C21163  -0.838   1.864   9.820 -0.3926  0.5458 -0.1869
  161MOL0    Cl21164  -0.955   1.866   9.699 -0.1922  0.0148 -0.1187
  161MOL0     C21165   0.305   1.848  10.147  0.7473 -0.2102 -0.1003
  161MOL0     C21166   0.432   1.807  10.114 -0.1999 -0.4706  0.0390
  161MOL0     O21167   0.693   2.001   9.883  0.2812 -0.6571 -0.0428
  161MOL0     C21168   0.941   1.913   9.838 -0.2117 -0.3459  0.0134
  161MOL0     C21169   1.070   1.870   9.826 -0.0850 -1.6902 -0.3357
  161MOL0     N21170   1.605   1.860   9.453  0.2552 -0.3937  0.2662
  161MOL0     N21171   1.635   1.933   9.350  0.7230  0.1354  0.2866
  161MOL0     C21172   2.754   2.091   9.205  0.3581 -0.4989 -0.2865
  161MOL0     C21173   2.870   2.030   9.225  0.4713  0.0467  0.2572
  161MOL0     C21174   3.253   1.813   9.277  0.1533 -0.2528  0.1661
  161MOL0     C21175   3.288   1.760   9.399  0.2019 -0.0554  0.2334
  161MOL0     C21176   3.418   1.704   9.426 -0.4504  0.8276  0.2564
  161MOL0     C21177   3.514   1.718   9.320 -0.2510 -0.0637  0.3768
  161MOL0     O21178   3.635   1.662   9.349  0.5657 -0.1980 -0.2564
  161MOL0     C21179   3.741   1.676   9.258 -0.5718  0.1033 -0.0298
  161MOL0     C21180   3.865   1.629   9.334  0.3908 -0.3519 -0.1922
  161MOL0     C21181   3.981   1.615   9.245 -0.0897  0.8423  0.2551
  161MOL0     C21182   4.105   1.574   9.328  0.7355  0.0445 -0.5910
  161MOL0     C21183   4.227   1.540   9.254  0.1470  0.4899 -0.4627
  161MOL0     C21184   4.336   1.499   9.229  0.3346 -0.0908  0.3915
  161MOL0     C21185   3.477   1.777   9.199  0.2289 -0.1287  0.4799
  161MOL0     C21186   3.350   1.820   9.175  0.1979  0.2404 -0.5875
  161MOL0     H21187   2.969   1.971   8.902  0.0376 -0.4451  1.0014
  161MOL0     H21188   2.766   2.106   8.869 -0.5958  0.7208 -0.0866
  161MOL0     H21189   2.477   2.087   9.199 -3.8355  1.4803 -0.5357
  161MOL0     H21190   2.499   2.011   9.052 -1.7406 -1.9453  2.6913
  161MOL0     H21191   2.275   2.089   9.042  0.3447  0.2930 -0.0205
  161MOL0     H21192   2.353   2.184   8.926 -0.6759  1.2951 -0.2124
  161MOL0     H21193   2.372   2.380   9.071 -0.9776  1.6300  1.3445
  161MOL0     H21194   2.347   2.297   9.212 -0.5764 -2.9547 -0.6160
  161MOL0     H21195   2.145   2.412   9.175 -0.7751 -0.0063 -0.1504
  161MOL0     H21196   2.116   2.343   9.020  0.9844  0.3244  0.0067
  161MOL0     H21197   2.146   2.220   9.291 -0.2653 -0.9989  0.8009
  161MOL0     H21198   2.098   2.111   9.153 -0.2752  1.1904 -0.6667
  161MOL0     H21199   1.895   2.242   9.117 -0.4633 -0.0028  0.5314
  161MOL0     H21200   1.933   2.338   9.262  0.9507  0.7432 -1.3988
  161MOL0     H21201   1.914   2.034   9.240  0.6770 -0.2586  0.0670
  161MOL0     H21202   1.931   2.119   9.391 -0.3818  1.9941  0.0762
  161MOL0     H21203   1.687   2.132   9.209 -0.2298  1.8507 -0.0971
  161MOL0     H21204   1.707   2.243   9.347  2.7509  1.8908  0.1806
  161MOL0     H21205   1.747   2.111   9.607  0.2410  0.4304  0.6869
  161MOL0     H21206   1.516   1.952   9.752  1.5554  1.6044  0.5920
  161MOL0     H21207   1.691   1.897   9.777  0.4638  1.9375 -0.3309
  161MOL0     H21208   1.647   1.687   9.702  1.7480  2.6370  0.5348
  161MOL0     H21209   1.496   1.727   9.616  1.6835  0.4690 -1.2224
  161MOL0     H21210   1.475   1.596   9.827  0.0518  0.3208 -2.5138
  161MOL0     H21211   1.514   1.743   9.921 -0.3620 -1.3519  0.0872
  161MOL0     H21212   1.311   1.772   9.696  1.0014  2.4674 -0.8900
  161MOL0     H21213   1.330   1.865   9.840 -0.2721 -0.6586  0.8535
  161MOL0     H21214   1.035   1.567   9.976 -0.8733 -0.4559 -0.3630
  161MOL0     H21215   0.796   1.650  10.008 -0.2725  1.0637 -0.2182
  161MOL0     H21216   0.476   1.964   9.818  0.0018  2.0971  0.0086
  161MOL0     H21217   0.236   2.054   9.891 -2.4292 -1.0388  0.6757
  161MOL0     H21218   0.019   1.949   9.914 -3.8165  0.5369  0.0527
  161MOL0     H21219   0.029   2.118   9.957 -1.6386  0.0462  0.3821
  161MOL0     H21220  -0.137   2.093  10.128 -0.2820 -0.8207  1.2947
  161MOL0     H21221  -0.136   1.912  10.092 -3.2699 -0.1324 -1.5557
  161MOL0     H21222  -0.192   1.952   9.865 -3.1716 -1.0216 -0.4916
  161MOL0     H21223  -0.226   2.123   9.908 -1.2566  0.8344  3.4616
  161MOL0     H21224  -0.353   1.862  10.008 -2.8717 -0.2778  1.1981
  161MOL0     H21225  -0.411   2.012  10.076 -0.8934  0.0950  0.0188
  161MOL0     H21226  -0.438   1.935   9.787 -2.8141 -2.3919 -0.6498
  161MOL0     H21227  -0.504   2.084   9.846 -4.3095 -0.5851  0.2688
  161MOL0     H21228  -0.669   1.958   9.979 -0.5557  0.1499 -0.9469
  161MOL0     H21229  -0.592   1.799   9.931  1.4816 -0.2879 -0.4888
  161MOL0     H21230  -0.685   2.005   9.728  3.7813 -0.3492 -1.5927
  161MOL0     H21231  -0.653   1.836   9.702  0.0147  1.6309 -0.8243
  161MOL0     H21232  -0.872   1.923   9.905  0.1646  1.0441 -0.3017
  161MOL0     H21233  -0.837   1.764   9.864 -3.1073  0.7689  0.5521
  161MOL0     H21234   0.243   1.797  10.220 -2.5901  4.5576  0.8748
  161MOL0     H21235   0.476   1.726  10.170  0.5003 -0.8769 -1.0604
  161MOL0     H21236   0.907   2.002   9.785  1.2396  0.7353  0.8447
  161MOL0     H21237   1.134   1.938   9.771 -1.4357  1.0492  1.2860
  161MOL0     H21238   2.693   2.117   9.291  0.8373  0.4514 -0.2108
  161MOL0     H21239   2.890   2.006   9.329  1.2586  0.2940  0.1703
  161MOL0     H21240   3.214   1.774   9.478  0.4511 -2.7439  1.0449
  161MOL0     H21241   3.448   1.657   9.519  0.8636  1.1866  0.0245
  161MOL0     H21242   3.760   1.777   9.221  0.5800 -0.0201  0.1574
  161MOL0     H21243   3.727   1.621   9.165 -0.4918  0.1297 -0.0573
  161MOL0     H21244   3.902   1.710   9.398 -1.2745  0.6974 -0.4808
  161MOL0     H21245   3.855   1.528   9.376  3.2591 -2.0528 -3.1263
  161MOL0     H21246   3.999   1.703   9.183  0.9595  1.3437  1.2405
  161MOL0     H21247   3.971   1.525   9.184  0.5920 -0.0397  1.3939
  161MOL0     H21248   4.125   1.651   9.403  1.5310  0.2657 -1.0179
  161MOL0     H21249   4.081   1.477   9.373  1.4485 -1.6982 -3.6667
  161MOL0     H21250   4.437   1.469   9.214  0.6790 -1.1683  4.0699
  161MOL0     H21251   3.554   1.787   9.123 -2.9940 -3.5509 -3.8178
  161MOL0     H21252   3.323   1.857   9.076  0.5373  0.5707 -0.5580
  162MOL0     O21253   7.758   5.710   6.560  0.0709  0.5221  0.5237
  162MOL0     C21254   7.806   5.813   6.604 -0.1694 -0.1387  0.1527
  162MOL0     O21255   7.761   5.890   6.713  0.2756  0.7949 -0.2556
  162MOL0     C21256   7.651   5.835   6.784 -0.9627  0.1718 -0.0824
  162MOL0     C21257   7.658   5.713   6.844 -0.1578  0.5268  0.0100
  162MOL0     C21258   7.548   5.661   6.916 -0.1523  0.0214  0.0889
  162MOL0     C21259   7.436   5.738   6.936  0.7187 -0.1188  0.1179
  162MOL0     O21260   7.329   5.683   6.995  0.7000 -0.2402 -0.2750
  162MOL0     C21261   7.287   5.753   7.118 -0.2420 -0.0982  0.7405
  162MOL0     C21262   7.152   5.689   7.162  0.0043 -0.0336  0.2639
  162MOL0     C21263   7.153   5.543   7.206 -0.1173  0.0145  0.6187
  162MOL0     C21264   7.007   5.484   7.205 -0.4517  0.0134  0.4404
  162MOL0     C21265   6.905   5.577   7.276  0.6548 -0.2992 -0.9217
  162MOL0     C21266   6.922   5.599   7.437  0.2084 -0.6766  0.5866
  162MOL0     C21267   6.888   5.479   7.521 -0.5159  0.8532  0.8835
  162MOL0     C21268   6.916   5.504   7.670  0.2534  0.2812 -0.3106
  162MOL0     N21269   6.869   5.402   7.762 -0.7655 -0.2400  0.7471
  162MOL0     C21270   6.747   5.389   7.811  0.4817  0.3026  0.1708
  162MOL0     C21271   6.753   5.266   7.856  0.9274  0.4848 -0.8681
  162MOL0     C21272   6.636   5.186   7.903  0.2079 -0.0986 -0.8951
  162MOL0     C21273   6.564   5.260   8.019 -0.6265 -0.3243  1.1859
  162MOL0     C21274   6.471   5.160   8.084  0.2301 -0.0798 -0.3737
  162MOL0     C21275   6.367   5.222   8.182  0.3321 -0.1686 -0.7142
  162MOL0     O21276   6.299   5.119   8.244 -0.2992  0.5807  0.3730
  162MOL0     C21277   6.174   5.137   8.288  0.2245 -1.0730 -0.1059
  162MOL0     C21278   6.097   5.025   8.315  1.0198  0.0171 -0.8579
  162MOL0     C21279   5.960   5.037   8.352 -0.0690 -0.4991  0.6265
  162MOL0     C21280   5.908   5.162   8.370  0.5880 -0.1286 -0.0179
  162MOL0     C21281   5.771   5.171   8.431  0.1953  0.2071 -0.1154
  162MOL0     O21282   5.702   5.062   8.463 -0.6696 -0.1292 -0.3162
  162MOL0     C21283   5.574   5.064   8.511  0.5238  0.0176 -0.8963
  162MOL0     C21284   5.508   5.167   8.578  0.2915  0.0050 -0.5721
  162MOL0     C21285   5.373   5.163   8.619 -0.8059  0.2995 -0.0448
  162MOL0     C21286   5.303   5.045   8.600  0.0765  0.4388 -0.0964
  162MOL0     O21287   5.175   5.013   8.634 -0.3432 -0.0313  0.2087
  162MOL0     C21288   5.108   5.109   8.711  0.8961 -0.2783  0.4379
  162MOL0     C21289   5.038   5.221   8.619  0.0737  0.1875 -0.3970
  162MOL0     C21290   4.933   5.167   8.534 -0.3521 -0.1216 -0.9696
  162MOL0     C21291   4.817   5.082   8.605 -0.4317  0.3608  0.6068
  162MOL0     C21292   4.701   5.071   8.504  0.3737  0.1302 -0.0706
  162MOL0     C21293   4.572   5.022   8.585 -0.4574 -0.7482 -0.0377
  162MOL0     C21294   4.438   5.020   8.505 -0.0631 -0.5099  0.5765
  162MOL0     C21295   4.447   4.915   8.385  0.9659  0.1283 -0.1729
  162MOL0    Cl21296   4.290   4.895   8.296 -0.1245  0.5716  0.1720
  162MOL0     C21297   5.363   4.937   8.543 -0.1356 -0.0852  0.5703
  162MOL0     C21298   5.498   4.948   8.501 -0.5245  0.0437  0.0832
  162MOL0     O21299   5.721   5.286   8.438  0.0551  0.1194 -0.0846
  162MOL0     C21300   5.984   5.276   8.344  0.6151  0.2849  0.1727
  162MOL0     C21301   6.114   5.266   8.309 -0.4658 -0.3904 -0.3113
  162MOL0     N21302   6.876   5.210   7.841 -0.3078  0.7205 -0.0644
  162MOL0     N21303   6.955   5.295   7.783 -0.1590 -0.7322  0.1250
  162MOL0     C21304   7.426   5.870   6.873 -0.6017  0.6777 -0.6895
  162MOL0     C21305   7.533   5.914   6.793 -0.7781  0.0042  0.3484
  162MOL0     C21306   7.933   5.867   6.548  0.7509  0.2172  0.1260
  162MOL0     C21307   7.972   6.000   6.569  0.5029 -0.1233 -0.0435
  162MOL0     C21308   8.085   6.057   6.506  0.2917 -0.7721 -0.5360
  162MOL0     C21309   8.168   5.968   6.433  0.1531 -0.7316  0.9784
  162MOL0     O21310   8.281   6.027   6.382 -0.5983 -0.4137 -0.0005
  162MOL0     C21311   8.402   5.954   6.408  0.0242 -0.8505 -0.4587
  162MOL0     C21312   8.465   6.016   6.531 -0.3227  0.3837 -0.2823
  162MOL0     C21313   8.518   6.155   6.492 -0.8334  0.0038  0.5499
  162MOL0     C21314   8.556   6.232   6.610  0.3231  0.1258  0.4279
  162MOL0     C21315   8.437   6.250   6.688  0.5097  0.7030  0.1817
  162MOL0     C21316   8.331   6.244   6.757  0.5703 -0.0106  0.4727
  162MOL0     C21317   8.129   5.834   6.408 -0.4016  0.0054  0.1128
  162MOL0     C21318   8.012   5.779   6.473 -0.0787 -0.5432 -0.5094
  162MOL0     H21319   7.752   5.660   6.847 -0.1763  0.4814  3.1526
  162MOL0     H21320   7.554   5.564   6.965  3.2891 -0.0019 -0.1587
  162MOL0     H21321   7.266   5.860   7.107 -0.5894 -0.3394 -1.3223
  162MOL0     H21322   7.358   5.746   7.201 -0.1165  0.7257  0.7100
  162MOL0     H21323   7.082   5.702   7.078  1.6671  1.3119 -0.9879
  162MOL0     H21324   7.112   5.753   7.241 -1.2950  3.8633 -3.1654
  162MOL0     H21325   7.185   5.544   7.311 -0.4985  2.4487  0.7702
  162MOL0     H21326   7.219   5.481   7.144 -1.3915 -0.8180  0.0545
  162MOL0     H21327   6.989   5.471   7.098  2.8698  0.3326 -0.2434
  162MOL0     H21328   7.011   5.384   7.249 -1.5483  0.4956  1.7227
  162MOL0     H21329   6.807   5.542   7.242  0.9116 -0.0015 -2.0144
  162MOL0     H21330   6.894   5.676   7.231 -1.8293 -0.4037 -0.6981
  162MOL0     H21331   6.867   5.689   7.467 -1.1673 -1.2789 -0.0155
  162MOL0     H21332   7.027   5.629   7.442  0.5520 -1.6859 -0.1192
  162MOL0     H21333   6.782   5.461   7.503 -0.2159 -0.0709 -0.0807
  162MOL0     H21334   6.943   5.389   7.492 -2.0975  0.3753 -0.7604
  162MOL0     H21335   6.870   5.601   7.687  0.5367  0.3754 -0.0623
  162MOL0     H21336   7.019   5.524   7.702  0.0646 -0.7363  1.0157
  162MOL0     H21337   6.662   5.457   7.819  0.7721  0.6133  0.6784
  162MOL0     H21338   6.678   5.094   7.945 -2.4947 -0.2194  1.8876
  162MOL0     H21339   6.573   5.149   7.821  0.1244 -0.6133 -0.6071
  162MOL0     H21340   6.514   5.353   7.988 -0.3467 -1.1638 -2.2210
  162MOL0     H21341   6.640   5.284   8.094  2.4625 -4.6804 -0.1574
  162MOL0     H21342   6.419   5.107   8.003  0.3850  0.2938 -0.7212
  162MOL0     H21343   6.531   5.082   8.132  1.0564 -1.9537 -4.0483
  162MOL0     H21344   6.304   5.288   8.121  0.4661 -0.5166 -1.2394
  162MOL0     H21345   6.410   5.285   8.260 -2.3026  0.8147  0.0597
  162MOL0     H21346   6.138   4.924   8.305 -0.6753 -0.7613 -0.3335
  162MOL0     H21347   5.896   4.950   8.359  1.3622 -1.4755  3.0916
  162MOL0     H21348   5.565   5.253   8.610 -1.6467 -0.2443  4.4429
  162MOL0     H21349   5.336   5.237   8.690 -1.1386 -1.3426  1.5627
  162MOL0     H21350   5.177   5.158   8.780  3.2508 -1.0534 -1.2249
  162MOL0     H21351   5.031   5.065   8.775  0.5179  1.7114  1.4377
  162MOL0     H21352   5.111   5.267   8.552  1.8001  0.5210  1.6077
  162MOL0     H21353   5.001   5.310   8.672 -4.7057 -0.9539 -1.3348
  162MOL0     H21354   4.973   5.097   8.460 -2.4808 -3.9328  1.1675
  162MOL0     H21355   4.883   5.246   8.477  2.5614  0.3287 -3.1286
  162MOL0     H21356   4.852   4.982   8.632 -2.1504 -0.9827 -1.6983
  162MOL0     H21357   4.794   5.128   8.701  2.5282  2.0027  0.6501
  162MOL0     H21358   4.721   4.996   8.426 -5.8737 -1.3211 -0.8450
  162MOL0     H21359   4.684   5.167   8.455  0.2312 -0.5310 -1.3792
  162MOL0     H21360   4.558   5.090   8.670 -0.4392  0.9108 -1.3233
  162MOL0     H21361   4.585   4.919   8.619  0.0002 -0.6776  0.0055
  162MOL0     H21362   4.350   4.983   8.559  0.5060 -1.2408  1.0148
  162MOL0     H21363   4.410   5.123   8.479  1.3943  0.3427  2.1714
  162MOL0     H21364   4.461   4.813   8.422 -0.7761  0.8189  2.6265
  162MOL0     H21365   4.527   4.937   8.314  0.4378 -3.8184 -2.2907
  162MOL0     H21366   5.309   4.846   8.521 -1.8140  1.1676 -0.7477
  162MOL0     H21367   5.539   4.856   8.462  1.3694  0.3434  1.2450
  162MOL0     H21368   5.941   5.371   8.374 -2.0331 -0.6263 -0.4350
  162MOL0     H21369   6.167   5.359   8.295 -0.0789 -0.7304 -1.2321
  162MOL0     H21370   7.336   5.931   6.871 -2.1476 -1.3816  0.8798
  162MOL0     H21371   7.536   6.006   6.734 -2.6929 -0.8735 -1.2280
  162MOL0     H21372   7.915   6.072   6.628 -1.5435 -3.5425  2.5749
  162MOL0     H21373   8.097   6.165   6.505  1.1676 -0.8673 -0.5425
  162MOL0     H21374   8.475   5.969   6.327  2.1702  3.8823  1.9442
  162MOL0     H21375   8.386   5.846   6.418  1.7436 -1.2030 -1.0933
  162MOL0     H21376   8.390   6.015   6.611 -0.2236  2.5611 -0.1051
  162MOL0     H21377   8.550   5.957   6.567  0.3422  2.5793  1.9807
  162MOL0     H21378   8.433   6.198   6.438 -0.2307  0.7041  0.1257
  162MOL0     H21379   8.603   6.145   6.424 -0.5448 -1.1068  1.0597
  162MOL0     H21380   8.630   6.178   6.670  0.1683 -0.8889 -0.2849
  162MOL0     H21381   8.607   6.324   6.580 -0.4851  0.8100  1.0974
  162MOL0     H21382   8.230   6.250   6.790  0.5301  1.7444  0.0975
  162MOL0     H21383   8.192   5.781   6.337 -0.6625  1.1294 -0.9970
  162MOL0     H21384   7.986   5.674   6.465 -1.2764 -0.1591 -2.0836
  163MOL0     O21385   0.836  10.763   0.862  0.2343 -0.0548 -0.0422
  163MOL0     C21386   0.874  10.868   0.808 -0.0301 -0.8567  0.3567
  163MOL0     O21387   0.812  10.985   0.815 -0.1530  0.6017 -0.4675
  163MOL0     C21388   0.679  10.984   0.868 -0.3373  0.7886 -0.5105
  163MOL0     C21389   0.575  10.940   0.785  0.1708 -1.3543  1.0518
  163MOL0     C21390   0.453  10.940   0.846  0.8838 -0.2589 -0.2080
  163MOL0     C21391   0.429  10.965   0.985 -1.1786 -0.1299 -0.7037
  163MOL0     O21392   0.307  10.945   1.042 -0.0272  0.0030 -0.4826
  163MOL0     C21393   0.194  10.943   0.951  0.1765  0.5245 -0.4402
  163MOL0     C21394   0.056  10.941   1.026  0.2150 -0.0897 -0.0592
  163MOL0     C21395   0.049  11.079   1.090  0.0988 -0.8063 -0.4012
  163MOL0     C21396  -0.082  11.108   1.155 -0.0560  0.3784  0.0780
  163MOL0     C21397  -0.096  11.260   1.164 -0.2245  0.0033  0.8654
  163MOL0     C21398  -0.182  11.311   1.266  0.3828 -0.1214 -0.1155
  163MOL0     C21399  -0.333  11.280   1.256  0.1872  0.2873  0.3521
  163MOL0     C21400  -0.388  11.316   1.117 -0.1845 -0.3309 -0.1580
  163MOL0     N21401  -0.526  11.286   1.095 -0.5903  0.2479 -0.0417
  163MOL0     C21402  -0.627  11.363   1.140 -0.4142 -0.5682  0.0175
  163MOL0     C21403  -0.743  11.311   1.097  0.0084 -0.0473  0.4281
  163MOL0     C21404  -0.881  11.366   1.123 -0.1690 -0.2049  0.5602
  163MOL0     C21405  -0.991  11.256   1.147  0.3844 -0.5417 -0.3949
  163MOL0     C21406  -1.129  11.309   1.083 -0.5848 -0.2111 -0.0778
  163MOL0     C21407  -1.235  11.211   1.060 -0.1929  1.0899 -0.0392
  163MOL0     O21408  -1.341  11.272   0.997 -0.5987  0.1011 -0.2082
  163MOL0     C21409  -1.425  11.179   0.934  0.0615 -0.3246 -0.5558
  163MOL0     C21410  -1.400  11.146   0.805 -0.0434 -0.3098 -0.6540
  163MOL0     C21411  -1.484  11.055   0.731  0.1461 -0.1284 -0.2728
  163MOL0     C21412  -1.608  11.012   0.788 -0.0421 -0.0674 -0.0373
  163MOL0     C21413  -1.705  10.933   0.706 -0.1095 -0.3797  0.5017
  163MOL0     O21414  -1.818  10.900   0.769 -0.7844  0.0064 -0.4589
  163MOL0     C21415  -1.928  10.841   0.693  0.1712  0.4013  0.0852
  163MOL0     C21416  -1.976  10.871   0.557 -0.0177 -0.7657  0.2266
  163MOL0     C21417  -2.086  10.813   0.497  0.3481  1.2790  0.0371
  163MOL0     C21418  -2.179  10.740   0.574 -0.6964 -0.2183 -0.0090
  163MOL0     O21419  -2.290  10.677   0.530 -0.2049 -0.1583  0.2133
  163MOL0     C21420  -2.265  10.588   0.427 -1.0953 -0.3282  0.2737
  163MOL0     C21421  -2.359  10.462   0.430  0.2454 -0.6358 -0.9851
  163MOL0     C21422  -2.488  10.500   0.361  0.5111  0.4340 -0.8336
  163MOL0     C21423  -2.601  10.398   0.404  0.0970 -0.2077 -0.1775
  163MOL0     C21424  -2.713  10.422   0.305  0.0578  0.2703  0.4221
  163MOL0     C21425  -2.692  10.338   0.179  0.1273  0.2970  0.8308
  163MOL0     C21426  -2.793  10.371   0.066 -0.9961  0.3135  0.7900
  163MOL0     C21427  -2.887  10.257   0.053  0.5077 -0.4379  0.3384
  163MOL0    Cl21428  -3.002  10.280  -0.092 -0.2468 -0.0186  0.1209
  163MOL0     C21429  -2.135  10.707   0.702 -0.0717  0.0727  0.2141
  163MOL0     C21430  -2.017  10.751   0.757 -0.0702  1.1570 -0.2327
  163MOL0     O21431  -1.677  10.904   0.586 -0.9754 -0.7003  0.4168
  163MOL0     C21432  -1.637  11.049   0.925  0.0609  0.3263  0.4678
  163MOL0     C21433  -1.540  11.135   0.995  1.1199  0.6871 -0.0754
  163MOL0     N21434  -0.702  11.206   1.001 -0.5955 -0.9974  0.3799
  163MOL0     N21435  -0.575  11.195   1.005  0.2375 -0.0055 -0.1648
  163MOL0     C21436   0.529  11.021   1.060  0.3150 -0.1085  1.1691
  163MOL0     C21437   0.655  11.032   1.000  0.1021 -0.2412  0.2262
  163MOL0     C21438   0.998  10.878   0.729 -0.0683  0.5673 -0.0928
  163MOL0     C21439   1.068  10.759   0.706 -0.1419  0.2739 -0.1349
  163MOL0     C21440   1.182  10.757   0.625 -0.3306  0.3518  0.4232
  163MOL0     C21441   1.230  10.879   0.572 -0.4449 -0.7347  0.7706
  163MOL0     O21442   1.334  10.890   0.486 -0.2670  0.2992 -0.8883
  163MOL0     C21443   1.429  10.786   0.451 -0.6917 -0.2250 -0.0547
  163MOL0     C21444   1.532  10.768   0.570 -0.2990  0.4287 -0.8685
  163MOL0     C21445   1.662  10.697   0.528  0.2635 -0.4864 -0.5295
  163MOL0     C21446   1.747  10.688   0.658 -0.4604 -0.1209  0.7238
  163MOL0     C21447   1.885  10.661   0.628 -0.5386  0.3087  0.3183
  163MOL0     C21448   1.997  10.628   0.610 -0.2919  0.4015  0.2477
  163MOL0     C21449   1.170  11.004   0.616  0.6935  1.1331 -0.2812
  163MOL0     C21450   1.051  11.001   0.689  0.1103  0.1289 -0.3759
  163MOL0     H21451   0.601  10.908   0.685 -1.8888  2.2616 -0.8780
  163MOL0     H21452   0.365  10.906   0.793 -0.2432  2.5441 -0.2791
  163MOL0     H21453   0.196  10.852   0.889 -1.7657 -1.1573  1.7984
  163MOL0     H21454   0.214  11.031   0.890  4.3232  0.1105  0.0124
  163MOL0     H21455   0.046  10.868   1.107 -0.8648 -1.5201 -1.4232
  163MOL0     H21456  -0.027  10.929   0.957 -0.4072 -0.1884  0.6896
  163MOL0     H21457   0.068  11.153   1.011 -0.8003  2.0576  1.8755
  163MOL0     H21458   0.126  11.088   1.167  1.2339 -1.3370 -1.4484
  163MOL0     H21459  -0.161  11.058   1.099  1.3065  0.0810 -1.6743
  163MOL0     H21460  -0.087  11.069   1.257  0.2853  2.1771  0.8307
  163MOL0     H21461  -0.116  11.302   1.065  0.6899 -0.3596  0.5187
  163MOL0     H21462   0.004  11.297   1.190  0.0100 -0.3645  0.4924
  163MOL0     H21463  -0.176  11.420   1.260 -3.2100  0.3082 -7.2463
  163MOL0     H21464  -0.145  11.270   1.360 -0.1893  0.1924  0.2540
  163MOL0     H21465  -0.336  11.171   1.263 -0.6516  0.2356 -0.6143
  163MOL0     H21466  -0.395  11.333   1.327 -2.8304 -0.7364 -1.3361
  163MOL0     H21467  -0.329  11.268   1.038  0.3968 -0.7526  0.5192
  163MOL0     H21468  -0.384  11.424   1.104 -0.4879 -0.3683 -0.5964
  163MOL0     H21469  -0.619  11.451   1.203 -1.3767 -0.3659 -0.1261
  163MOL0     H21470  -0.906  11.428   1.037 -0.4395  1.4515  1.7805
  163MOL0     H21471  -0.868  11.437   1.205  1.7982 -0.0771  0.1916
  163MOL0     H21472  -0.998  11.246   1.256  0.9919  0.7895 -0.2092
  163MOL0     H21473  -0.961  11.156   1.117 -0.2528 -0.9571  0.3134
  163MOL0     H21474  -1.165  11.393   1.143  1.3466 -1.2735  2.7667
  163MOL0     H21475  -1.104  11.356   0.987  2.0236  1.8669  1.4882
  163MOL0     H21476  -1.262  11.170   1.158  3.3109 -0.6692  0.3644
  163MOL0     H21477  -1.197  11.131   0.995 -0.3548  1.7761 -0.9992
  163MOL0     H21478  -1.307  11.175   0.758 -0.0400 -0.8936 -1.0210
  163MOL0     H21479  -1.445  11.025   0.634 -0.8000  0.0720 -0.7266
  163MOL0     H21480  -1.927  10.940   0.489 -0.8636 -1.1061 -0.7655
  163MOL0     H21481  -2.101  10.836   0.392  0.7662 -0.0303 -0.3344
  163MOL0     H21482  -2.161  10.554   0.424 -0.9588  0.1155 -0.1377
  163MOL0     H21483  -2.275  10.627   0.325  1.7916 -1.8910 -0.7039
  163MOL0     H21484  -2.385  10.438   0.534 -1.6558  4.7491  0.1173
  163MOL0     H21485  -2.305  10.384   0.377 -0.8008 -0.1774 -2.8090
  163MOL0     H21486  -2.466  10.505   0.254  0.9214  0.6697 -0.7394
  163MOL0     H21487  -2.521  10.600   0.387  0.8170  0.0480  1.1606
  163MOL0     H21488  -2.579  10.291   0.397 -2.4499 -0.7932 -0.2248
  163MOL0     H21489  -2.628  10.433   0.504  0.7726  4.3562 -1.3628
  163MOL0     H21490  -2.721  10.526   0.271 -1.1198  0.3605  0.9212
  163MOL0     H21491  -2.813  10.401   0.344 -0.8215  0.4725 -1.6329
  163MOL0     H21492  -2.704  10.234   0.211 -0.2840  0.6582  1.9170
  163MOL0     H21493  -2.590  10.358   0.144  0.3092  2.5276  2.3717
  163MOL0     H21494  -2.847  10.459   0.104 -1.3731 -0.3057  1.6996
  163MOL0     H21495  -2.752  10.388  -0.034  0.0449  2.5823  1.5269
  163MOL0     H21496  -2.950  10.253   0.143 -1.5472 -1.6880 -1.0601
  163MOL0     H21497  -2.834  10.163   0.041  1.0904  0.1735 -2.4897
  163MOL0     H21498  -2.203  10.646   0.761 -1.4710 -0.8977 -2.2411
  163MOL0     H21499  -1.996  10.726   0.860 -1.8341 -0.5904 -0.2316
  163MOL0     H21500  -1.719  11.007   0.983  0.7339  0.4540  1.5275
  163MOL0     H21501  -1.565  11.159   1.098 -0.0144 -1.3523  0.1793
  163MOL0     H21502   0.505  11.052   1.161  0.3451  2.9355  0.3221
  163MOL0     H21503   0.737  11.072   1.058 -2.6412  3.2341  2.1260
  163MOL0     H21504   1.018  10.670   0.744 -0.6110  0.8347  0.5867
  163MOL0     H21505   1.227  10.661   0.602  0.4207  0.5532  1.0092
  163MOL0     H21506   1.489  10.811   0.363  1.7636  0.7438  1.7656
  163MOL0     H21507   1.387  10.688   0.427 -1.4029  0.8718 -4.1265
  163MOL0     H21508   1.557  10.870   0.601 -0.1268  0.0251  0.4096
  163MOL0     H21509   1.482  10.710   0.649 -0.4698 -0.1193 -1.3736
  163MOL0     H21510   1.706  10.766   0.456 -2.1098  0.0543 -1.5694
  163MOL0     H21511   1.648  10.600   0.480 -1.2143  0.7233 -2.6968
  163MOL0     H21512   1.750  10.773   0.727  4.3029  1.7119 -1.3117
  163MOL0     H21513   1.711  10.601   0.713  1.2794 -2.6993 -1.8927
  163MOL0     H21514   2.098  10.595   0.601 -0.7962 -0.7939 -1.6491
  163MOL0     H21515   1.214  11.094   0.575 -0.3617  1.2713 -1.1491
  163MOL0     H21516   1.003  11.095   0.714  0.3413 -0.2435  1.5577
  164MOL0     O21517   9.917   7.337   0.050 -0.4258 -0.1596 -0.2508
  164MOL0     C21518   9.929   7.315   0.173  0.2175 -0.8312  0.7661
  164MOL0     O21519   9.832   7.329   0.273 -0.1726  0.2605 -0.4347
  164MOL0     C21520   9.701   7.342   0.247  0.2492  0.3868  0.2299
  164MOL0     C21521   9.647   7.302   0.123  1.1932 -0.3860  0.4134
  164MOL0     C21522   9.510   7.286   0.106 -0.5726  0.3869  0.0978
  164MOL0     C21523   9.429   7.308   0.220  0.3094  0.5255 -0.5754
  164MOL0     O21524   9.291   7.296   0.196 -1.0051 -0.2073 -1.1637
  164MOL0     C21525   9.216   7.235   0.297  0.3156 -0.0716 -0.5630
  164MOL0     C21526   9.091   7.169   0.235  0.2872 -0.5872  0.4887
  164MOL0     C21527   8.975   7.129   0.329  0.1269 -0.0223 -0.3005
  164MOL0     C21528   8.872   7.043   0.250 -0.3294  0.1382  0.2155
  164MOL0     C21529   8.757   7.004   0.348  0.1295 -0.4658 -0.3715
  164MOL0     C21530   8.665   6.906   0.274 -0.1655 -0.3363 -0.2166
  164MOL0     C21531   8.536   6.866   0.358 -0.2028  0.6222  0.6571
  164MOL0     C21532   8.443   6.986   0.367  0.6207 -0.1900 -0.2047
  164MOL0     N21533   8.307   6.945   0.415 -1.1964  0.1933  0.1610
  164MOL0     C21534   8.187   6.952   0.339  1.1853 -1.1715  0.1008
  164MOL0     C21535   8.081   6.901   0.416 -0.5777 -0.7999  0.2236
  164MOL0     C21536   7.941   6.873   0.376  1.0089  0.1803  0.7615
  164MOL0     C21537   7.922   6.855   0.219 -0.2496  0.0607  0.7183
  164MOL0     C21538   7.797   6.769   0.187 -0.0019 -0.4202 -0.0172
  164MOL0     C21539   7.666   6.835   0.231 -0.1373  0.3782 -0.3947
  164MOL0     O21540   7.571   6.730   0.206  0.3016 -0.4196 -0.3663
  164MOL0     C21541   7.441   6.758   0.239 -0.7095  0.1429 -0.7104
  164MOL0     C21542   7.350   6.656   0.211 -0.2229 -0.4885 -0.6914
  164MOL0     C21543   7.213   6.664   0.255  0.0626  0.3002 -0.1281
  164MOL0     C21544   7.169   6.784   0.316  0.4522 -0.2215 -0.2964
  164MOL0     C21545   7.032   6.797   0.368  0.5865  0.0229 -0.2533
  164MOL0     O21546   6.937   6.701   0.332  0.3467  0.1819 -0.5416
  164MOL0     C21547   6.810   6.708   0.374  0.3624 -0.0097  0.3906
  164MOL0     C21548   6.739   6.817   0.416 -0.8230 -0.4365  0.1852
  164MOL0     C21549   6.611   6.804   0.463  0.0721 -0.6851  0.3006
  164MOL0     C21550   6.551   6.678   0.472  0.8126  0.7921  0.2413
  164MOL0     O21551   6.428   6.662   0.541  0.3432 -0.0067  0.2813
  164MOL0     C21552   6.308   6.706   0.471 -0.2652 -0.0746 -0.0609
  164MOL0     C21553   6.189   6.612   0.491  0.0006  0.8890  0.0866
  164MOL0     C21554   6.091   6.625   0.377  0.4155 -0.0399  0.6871
  164MOL0     C21555   5.963   6.550   0.420  0.2424  1.0789 -0.2179
  164MOL0     C21556   5.830   6.623   0.367 -0.4759  0.2833 -0.3323
  164MOL0     C21557   5.709   6.532   0.407  0.0860  0.2541  0.1432
  164MOL0     C21558   5.697   6.532   0.560 -0.7004 -0.2301 -0.1485
  164MOL0     C21559   5.544   6.507   0.600 -0.4454 -0.3702  1.1496
  164MOL0    Cl21560   5.504   6.336   0.536  0.3349 -0.3455  0.1456
  164MOL0     C21561   6.624   6.568   0.435 -0.4244 -0.1612 -0.0523
  164MOL0     C21562   6.748   6.583   0.388 -0.6381 -0.1737  0.3237
  164MOL0     O21563   7.018   6.891   0.446  0.2510  0.0829  0.5957
  164MOL0     C21564   7.261   6.889   0.331  0.3354  0.2430  0.7499
  164MOL0     C21565   7.391   6.876   0.294  0.1145 -0.2332  0.1905
  164MOL0     N21566   8.138   6.861   0.533  0.3723  0.0574 -0.6386
  164MOL0     N21567   8.268   6.884   0.533 -0.5610  0.4078 -0.0986
  164MOL0     C21568   9.485   7.346   0.343  0.4802 -0.2342 -0.3030
  164MOL0     C21569   9.618   7.381   0.355  0.0617  0.7972  0.2064
  164MOL0     C21570  10.057   7.284   0.237  0.4260 -0.8787  0.5959
  164MOL0     C21571  10.170   7.289   0.154  0.7258 -0.9594  0.1440
  164MOL0     C21572  10.297   7.247   0.189  0.5188  0.0632  0.1564
  164MOL0     C21573  10.311   7.184   0.318  0.3570 -0.0126 -0.1183
  164MOL0     O21574  10.423   7.111   0.348  0.1147  0.2362  0.2029
  164MOL0     C21575  10.552   7.177   0.310 -0.2217 -0.2865  0.4350
  164MOL0     C21576  10.668   7.090   0.359 -0.3878 -0.5991  0.3958
  164MOL0     C21577  10.653   6.944   0.329 -1.1180  0.5793 -0.2446
  164MOL0     C21578  10.744   6.846   0.406  0.9931 -0.0547 -0.5815
  164MOL0     C21579  10.883   6.871   0.390  0.1822  0.0999 -0.0112
  164MOL0     C21580  10.995   6.908   0.395 -0.3485 -0.4773  0.4108
  164MOL0     C21581  10.196   7.166   0.397 -0.0238 -0.0977  0.7003
  164MOL0     C21582  10.070   7.219   0.364  0.4913  0.8228  0.1880
  164MOL0     H21583   9.709   7.272   0.040 -0.2085 -0.0136 -0.8085
  164MOL0     H21584   9.465   7.248   0.015  1.8747 -2.9073  0.0921
  164MOL0     H21585   9.193   7.300   0.382  2.6558 -0.9898  0.8809
  164MOL0     H21586   9.278   7.154   0.336  0.9386  0.4361 -0.5003
  164MOL0     H21587   9.137   7.080   0.191  2.0059 -0.6350  2.2288
  164MOL0     H21588   9.055   7.232   0.154  0.1983 -0.0910  0.9117
  164MOL0     H21589   8.927   7.219   0.367  2.2562  0.7122  0.7978
  164MOL0     H21590   9.005   7.075   0.420 -1.5424 -1.4130 -0.5119
  164MOL0     H21591   8.840   7.101   0.162  0.4407 -0.2611 -0.3437
  164MOL0     H21592   8.920   6.950   0.219 -4.2164 -1.6767 -1.0209
  164MOL0     H21593   8.705   7.088   0.394 -0.2926 -0.2360 -1.2433
  164MOL0     H21594   8.789   6.951   0.438  0.8417 -0.3761 -0.5621
  164MOL0     H21595   8.727   6.824   0.237  1.5723  0.5315  0.6051
  164MOL0     H21596   8.635   6.955   0.181  2.5947  0.5219 -0.7720
  164MOL0     H21597   8.485   6.783   0.310  0.0147  0.7565  0.1855
  164MOL0     H21598   8.566   6.824   0.454  1.7431 -2.8283 -1.2448
  164MOL0     H21599   8.429   7.040   0.273 -1.1549 -0.0276  0.1292
  164MOL0     H21600   8.475   7.062   0.438 -1.1501  0.2224  0.2057
  164MOL0     H21601   8.178   6.985   0.236  1.8819  1.1847  0.7333
  164MOL0     H21602   7.879   6.955   0.412  1.4788 -0.3252  2.8816
  164MOL0     H21603   7.910   6.777   0.419  0.2941 -0.0496 -0.2428
  164MOL0     H21604   8.007   6.800   0.179 -0.1472  1.4618 -1.1014
  164MOL0     H21605   7.912   6.952   0.171  1.3388 -0.7082 -1.2958
  164MOL0     H21606   7.787   6.752   0.080 -2.0310 -1.9922  0.3592
  164MOL0     H21607   7.819   6.672   0.233  0.0391  0.7169  2.5399
  164MOL0     H21608   7.633   6.918   0.168  0.1753  1.5535  0.9394
  164MOL0     H21609   7.680   6.870   0.334 -0.4092 -0.3725 -0.0955
  164MOL0     H21610   7.377   6.559   0.173  0.1596 -1.2747  1.4248
  164MOL0     H21611   7.143   6.581   0.248  0.5545 -0.2226  0.9647
  164MOL0     H21612   6.787   6.915   0.418  1.7355 -1.6323  0.7972
  164MOL0     H21613   6.558   6.891   0.500  0.7459 -1.1241  2.4125
  164MOL0     H21614   6.330   6.714   0.364  0.1427 -0.1723  0.0158
  164MOL0     H21615   6.276   6.809   0.488  1.9721  0.4681  1.1990
  164MOL0     H21616   6.150   6.634   0.590 -0.2003  2.5469 -0.3373
  164MOL0     H21617   6.225   6.508   0.489  0.5928  1.0952 -0.1178
  164MOL0     H21618   6.132   6.588   0.282 -1.3823 -0.1483 -0.0781
  164MOL0     H21619   6.059   6.729   0.373 -1.4784 -0.4702  2.7773
  164MOL0     H21620   5.957   6.453   0.370  0.2522  1.1554 -0.3664
  164MOL0     H21621   5.955   6.528   0.527  0.9125 -1.6061 -0.6445
  164MOL0     H21622   5.848   6.610   0.260  0.0176 -2.2015 -0.0008
  164MOL0     H21623   5.813   6.729   0.388  0.3356  0.2567  0.5301
  164MOL0     H21624   5.715   6.434   0.359 -0.8817 -0.7040  1.8751
  164MOL0     H21625   5.618   6.581   0.370 -0.9088  0.7884  3.0743
  164MOL0     H21626   5.760   6.455   0.605 -1.2939 -0.7560 -0.1937
  164MOL0     H21627   5.721   6.634   0.592 -0.9585  0.3185 -1.6013
  164MOL0     H21628   5.469   6.578   0.563 -0.2117 -0.3860  0.6370
  164MOL0     H21629   5.526   6.495   0.707  0.0600 -1.1885  1.1526
  164MOL0     H21630   6.565   6.479   0.454 -0.6845 -0.9035 -3.5490
  164MOL0     H21631   6.813   6.500   0.364  1.1883  1.0393  0.8893
  164MOL0     H21632   7.232   6.982   0.379  0.4617  1.3818 -1.2741
  164MOL0     H21633   7.459   6.955   0.323  1.0827 -0.0396 -2.4361
  164MOL0     H21634   9.429   7.370   0.433 -0.4255  0.2025 -0.9678
  164MOL0     H21635   9.659   7.411   0.451 -1.1167 -1.2244  1.4066
  164MOL0     H21636  10.158   7.321   0.051  1.3800  0.8574  0.5992
  164MOL0     H21637  10.375   7.255   0.114  1.0142 -1.4155  0.4721
  164MOL0     H21638  10.563   7.273   0.362  2.2381 -0.1953 -0.1194
  164MOL0     H21639  10.564   7.190   0.202 -1.4162  2.6357  0.5698
  164MOL0     H21640  10.760   7.124   0.311  0.4189  1.3085  3.0945
  164MOL0     H21641  10.674   7.099   0.468  3.2473 -1.9444  0.4353
  164MOL0     H21642  10.675   6.930   0.223  0.4957 -2.5539  0.3865
  164MOL0     H21643  10.552   6.906   0.348 -1.3198  0.2642 -1.8039
  164MOL0     H21644  10.722   6.848   0.513  2.2630  0.7116 -0.3147
  164MOL0     H21645  10.728   6.744   0.371  2.2243 -2.1225  4.0788
  164MOL0     H21646  11.089   6.959   0.388 -0.0011 -1.2182 -0.4705
  164MOL0     H21647  10.201   7.116   0.494  1.7759 -3.0355 -0.7618
  164MOL0     H21648   9.983   7.191   0.422 -0.1176 -2.6161 -2.0678
  165MOL0     O21649   6.632   4.894   9.462 -0.0728  0.8133  0.0620
  165MOL0     C21650   6.629   4.851   9.576  0.7012 -0.0762 -0.3913
  165MOL0     O21651   6.517   4.828   9.651  0.2157 -0.2402 -0.2073
  165MOL0     C21652   6.395   4.885   9.621 -0.1305  0.9357 -0.5229
  165MOL0     C21653   6.274   4.809   9.643  0.3791 -0.2253 -0.1459
  165MOL0     C21654   6.147   4.862   9.627  0.6974 -0.1270 -0.0219
  165MOL0     C21655   6.135   4.999   9.594  0.4279 -0.3800  0.0930
  165MOL0     O21656   6.008   5.046   9.574 -0.3120 -0.1880  0.1321
  165MOL0     C21657   5.977   5.183   9.614  1.3389 -0.2840 -0.2175
  165MOL0     C21658   5.889   5.248   9.501  0.6397  0.1542  1.0462
  165MOL0     C21659   5.766   5.309   9.556 -0.8463  0.0670 -0.6741
  165MOL0     C21660   5.696   5.387   9.453  0.6882 -1.0365  1.1840
  165MOL0     C21661   5.561   5.439   9.504 -0.3517 -0.0395 -0.6246
  165MOL0     C21662   5.479   5.511   9.385  0.1440 -0.6778 -1.4325
  165MOL0     C21663   5.431   5.408   9.289 -0.0546 -0.0202 -0.0910
  165MOL0     C21664   5.332   5.312   9.360 -0.5348  0.3189 -1.3313
  165MOL0     N21665   5.251   5.226   9.267  0.0156 -0.1366 -0.4226
  165MOL0     C21666   5.129   5.175   9.295 -0.4758 -0.4277 -0.0885
  165MOL0     C21667   5.090   5.106   9.187 -0.9442  0.1469  0.3873
  165MOL0     C21668   4.953   5.044   9.175 -0.7346 -0.1200  0.7421
  165MOL0     C21669   4.847   5.160   9.161  0.1863 -0.1760  0.9831
  165MOL0     C21670   4.701   5.105   9.157 -0.5579  0.4346 -0.0135
  165MOL0     C21671   4.648   5.045   9.287  0.0921  0.6001  0.3848
  165MOL0     O21672   4.523   4.968   9.276  0.5958 -0.1932 -0.1202
  165MOL0     C21673   4.407   5.040   9.264 -0.0296 -0.2729 -0.2598
  165MOL0     C21674   4.392   5.167   9.329  0.4605  0.3830 -0.4396
  165MOL0     C21675   4.270   5.237   9.291 -0.2760  0.4942 -0.1865
  165MOL0     C21676   4.170   5.175   9.224 -0.1283 -0.2288  0.6336
  165MOL0     C21677   4.043   5.249   9.207  0.5143  0.1121 -0.3579
  165MOL0     O21678   3.937   5.173   9.178 -0.5039 -0.1765 -0.6320
  165MOL0     C21679   3.814   5.239   9.169  0.3204  0.0470 -0.5363
  165MOL0     C21680   3.736   5.251   9.059 -0.4658  0.1313 -0.3218
  165MOL0     C21681   3.607   5.292   9.062 -0.0115 -0.2262 -0.4844
  165MOL0     C21682   3.539   5.331   9.173 -0.8393 -0.5132  0.4556
  165MOL0     O21683   3.410   5.375   9.154  0.7751 -0.0079 -0.3021
  165MOL0     C21684   3.362   5.469   9.250 -0.5560 -0.2027 -0.6788
  165MOL0     C21685   3.216   5.510   9.213  0.0671  0.0586 -0.5532
  165MOL0     C21686   3.113   5.404   9.242  0.4412  0.0374 -0.0091
  165MOL0     C21687   2.967   5.441   9.193  0.8509  0.7361 -0.7095
  165MOL0     C21688   2.874   5.324   9.228 -0.8282  0.2164 -0.0309
  165MOL0     C21689   2.733   5.326   9.176  1.2498  0.3586  0.1154
  165MOL0     C21690   2.657   5.215   9.247 -0.4777 -0.8214  0.7296
  165MOL0     C21691   2.523   5.197   9.173 -0.3421  0.0412 -0.3492
  165MOL0    Cl21692   2.423   5.329   9.240 -0.2200 -0.0352  0.2806
  165MOL0     C21693   3.620   5.323   9.293 -0.5047  0.9424  0.5827
  165MOL0     C21694   3.752   5.276   9.289  0.4896 -0.3900 -0.8005
  165MOL0     O21695   4.050   5.372   9.200  0.2387 -0.1934  0.6338
  165MOL0     C21696   4.191   5.039   9.166  0.1738 -0.6127 -0.0694
  165MOL0     C21697   4.309   4.972   9.192 -0.4674 -0.3414 -0.0690
  165MOL0     N21698   5.195   5.107   9.104  0.5620  0.1330 -0.6830
  165MOL0     N21699   5.282   5.182   9.146  0.0079  0.3855  0.4031
  165MOL0     C21700   6.245   5.078   9.563  0.0607 -0.4953  0.7984
  165MOL0     C21701   6.372   5.013   9.573 -0.2474  0.2270  0.0022
  165MOL0     C21702   6.747   4.849   9.660  0.5400 -0.9685  0.2247
  165MOL0     C21703   6.743   4.778   9.782 -0.1207 -0.3627  0.1716
  165MOL0     C21704   6.858   4.780   9.857  0.3573 -0.1315 -0.7643
  165MOL0     C21705   6.978   4.842   9.819  0.5175  1.0586 -0.0957
  165MOL0     O21706   7.071   4.861   9.910 -0.4897  0.9312  0.4841
  165MOL0     C21707   7.203   4.845   9.854 -0.2949 -0.8689  0.3565
  165MOL0     C21708   7.297   4.814   9.975 -0.0587 -0.8405 -0.5221
  165MOL0     C21709   7.320   4.947  10.067 -0.4263  0.7576 -0.3134
  165MOL0     C21710   7.428   4.912  10.172  1.2273 -0.5693  0.8288
  165MOL0     C21711   7.565   4.896  10.120  0.6161 -0.4613 -0.0841
  165MOL0     C21712   7.673   4.876  10.077  0.2502  1.5666  0.0245
  165MOL0     C21713   6.975   4.913   9.698 -0.6774  0.2688 -0.3362
  165MOL0     C21714   6.863   4.916   9.618 -0.2235  0.5063  0.4023
  165MOL0     H21715   6.287   4.706   9.677 -2.4726 -0.4997  0.4195
  165MOL0     H21716   6.062   4.797   9.645  0.9648 -0.6380 -0.5769
  165MOL0     H21717   6.056   5.258   9.627 -2.1646  4.0455 -1.2566
  165MOL0     H21718   5.921   5.172   9.707  0.7944 -1.4109 -0.6651
  165MOL0     H21719   5.866   5.183   9.416  0.0993  1.5404  0.0975
  165MOL0     H21720   5.947   5.331   9.458 -0.5295 -0.8967 -3.0319
  165MOL0     H21721   5.786   5.369   9.645 -0.8792  2.1875 -2.0366
  165MOL0     H21722   5.696   5.229   9.583 -1.7311  1.5295  1.7417
  165MOL0     H21723   5.761   5.460   9.404 -1.0378 -1.0063 -1.2714
  165MOL0     H21724   5.668   5.310   9.381 -1.6034 -0.4403  1.3477
  165MOL0     H21725   5.574   5.506   9.589  0.6254 -0.4089 -0.4745
  165MOL0     H21726   5.528   5.346   9.551  0.4441  1.1480  2.5460
  165MOL0     H21727   5.543   5.590   9.346  2.0760 -0.6224  1.5635
  165MOL0     H21728   5.395   5.562   9.433  0.4792 -2.4251  1.2367
  165MOL0     H21729   5.394   5.464   9.203  2.8272  3.5436  0.7246
  165MOL0     H21730   5.507   5.342   9.245 -1.8068 -3.1818  1.2542
  165MOL0     H21731   5.257   5.362   9.422 -0.6728 -1.9050  0.4099
  165MOL0     H21732   5.389   5.239   9.418 -1.8127  1.2574  1.2556
  165MOL0     H21733   5.065   5.186   9.381 -0.6726  0.5909 -0.3575
  165MOL0     H21734   4.940   4.982   9.264  1.1183  1.8440  2.4933
  165MOL0     H21735   4.949   4.982   9.085  3.8031  1.6276 -1.0084
  165MOL0     H21736   4.877   5.219   9.073  0.8704 -0.0288  1.3060
  165MOL0     H21737   4.863   5.221   9.250 -1.9954 -0.5259  1.6468
  165MOL0     H21738   4.636   5.191   9.134  1.5784  2.7154  1.8906
  165MOL0     H21739   4.676   5.025   9.086 -1.6431 -0.7187  1.6239
  165MOL0     H21740   4.658   5.120   9.366 -0.3844  1.0819 -0.0027
  165MOL0     H21741   4.724   4.969   9.308 -0.3894 -0.7634 -2.2838
  165MOL0     H21742   4.458   5.212   9.402 -0.2571  0.4054  0.2141
  165MOL0     H21743   4.251   5.332   9.339 -0.6479  0.7795 -0.8790
  165MOL0     H21744   3.791   5.237   8.967  1.6423 -1.2721  1.0536
  165MOL0     H21745   3.558   5.309   8.967 -0.1000  0.2445 -0.3565
  165MOL0     H21746   3.427   5.556   9.255 -1.9536  0.8180  2.6455
  165MOL0     H21747   3.364   5.427   9.350  0.9837 -1.6865 -1.2961
  165MOL0     H21748   3.222   5.536   9.107 -1.5942 -0.4267 -0.7828
  165MOL0     H21749   3.204   5.597   9.277  1.4658 -0.1703  0.0778
  165MOL0     H21750   3.106   5.401   9.351  1.3015 -5.2637  0.1532
  165MOL0     H21751   3.139   5.305   9.203 -2.5020 -1.3143  1.2309
  165MOL0     H21752   2.930   5.531   9.242  0.4423 -0.2435  0.8400
  165MOL0     H21753   2.974   5.461   9.085 -0.0106 -1.3397 -1.2046
  165MOL0     H21754   2.861   5.317   9.336 -0.5177  1.0795  0.0763
  165MOL0     H21755   2.922   5.231   9.196 -0.4614 -0.1795  1.5815
  165MOL0     H21756   2.730   5.320   9.067  1.9225  1.1610  0.0428
  165MOL0     H21757   2.688   5.423   9.199 -1.4846 -0.8276  0.1835
  165MOL0     H21758   2.707   5.119   9.231  0.6559  0.1415 -2.1801
  165MOL0     H21759   2.648   5.228   9.355  1.6796  0.4141  0.7939
  165MOL0     H21760   2.478   5.100   9.194  0.6229 -0.5507 -0.9639
  165MOL0     H21761   2.529   5.199   9.064  2.2969  2.4007 -0.2986
  165MOL0     H21762   3.573   5.345   9.388 -0.1683 -0.6977  1.1626
  165MOL0     H21763   3.790   5.255   9.389 -2.6763 -2.3381  0.1563
  165MOL0     H21764   4.115   4.988   9.107 -1.2041  2.1829 -0.9234
  165MOL0     H21765   4.336   4.875   9.152  0.0725  0.4822 -1.7783
  165MOL0     H21766   6.247   5.181   9.528  0.9099 -1.1554 -1.2206
  165MOL0     H21767   6.460   5.069   9.544 -0.2536  0.6515  0.7764
  165MOL0     H21768   6.658   4.715   9.809 -0.4309 -0.1976 -0.4022
  165MOL0     H21769   6.866   4.727   9.952  1.3474  0.3222 -0.5696
  165MOL0     H21770   7.237   4.933   9.799 -0.6224 -1.6408 -1.1574
  165MOL0     H21771   7.208   4.765   9.779 -0.7335 -0.8045  0.2490
  165MOL0     H21772   7.256   4.729  10.031  4.6736 -1.6185  2.4139
  165MOL0     H21773   7.398   4.784   9.945  0.5796  0.2521  0.4412
  165MOL0     H21774   7.233   4.973  10.128  1.2581 -1.1168  3.1929
  165MOL0     H21775   7.353   5.030  10.004  1.1773  0.8222  0.5476
  165MOL0     H21776   7.425   4.986  10.253  2.8869  1.2713 -0.6992
  165MOL0     H21777   7.408   4.815  10.218  1.8886  0.1960  2.8374
  165MOL0     H21778   7.773   4.878  10.038 -0.1185  1.5201 -0.9474
  165MOL0     H21779   7.053   4.980   9.664 -0.1943  0.1664  0.5441
  165MOL0     H21780   6.868   4.961   9.520 -1.6500  1.4894  0.7475
  166MOL0     O21781   0.989   8.327   1.095  0.7673  0.2054 -0.3899
  166MOL0     C21782   1.041   8.436   1.118 -0.0641 -0.3532 -0.3806
  166MOL0     O21783   0.977   8.549   1.123 -0.0244 -0.2424 -0.4878
  166MOL0     C21784   0.832   8.555   1.116  0.3716 -0.2677  0.5986
  166MOL0     C21785   0.768   8.656   1.033 -0.9522 -0.4798 -0.3917
  166MOL0     C21786   0.627   8.652   1.016 -0.0704  0.5304 -1.2268
  166MOL0     C21787   0.544   8.573   1.105  1.1423  0.4948  1.0534
  166MOL0     O21788   0.409   8.557   1.095 -0.1614  0.3155 -0.4831
  166MOL0     C21789   0.335   8.677   1.057 -0.6216  0.5091 -0.2536
  166MOL0     C21790   0.191   8.667   1.102 -0.8206  0.1762 -0.4556
  166MOL0     C21791   0.113   8.794   1.077  0.4312  0.1521 -0.0252
  166MOL0     C21792  -0.028   8.784   1.140  0.3593  0.4560 -0.1852
  166MOL0     C21793  -0.072   8.930   1.156 -0.2084  0.4982 -0.8173
  166MOL0     C21794  -0.214   8.945   1.212  0.5694 -0.0865 -0.3084
  166MOL0     C21795  -0.315   8.910   1.096  1.1665  0.7147  0.5015
  166MOL0     C21796  -0.450   8.971   1.115  0.2303  0.7498  0.3899
  166MOL0     N21797  -0.503   8.938   1.248 -0.0794 -0.5928  0.0143
  166MOL0     C21798  -0.475   8.827   1.323 -0.5650  0.2505  1.0472
  166MOL0     C21799  -0.567   8.822   1.419 -0.0917  1.2207 -0.1095
  166MOL0     C21800  -0.572   8.725   1.535 -0.1387 -0.0663 -0.5683
  166MOL0     C21801  -0.682   8.618   1.531  0.7595 -0.1927 -0.1617
  166MOL0     C21802  -0.655   8.499   1.622  0.8138 -0.0383 -0.2158
  166MOL0     C21803  -0.759   8.385   1.600 -0.0986 -0.3656 -0.3249
  166MOL0     O21804  -0.893   8.441   1.618 -0.2489 -0.5346 -0.3981
  166MOL0     C21805  -1.007   8.363   1.616 -0.3061 -0.6799  0.5215
  166MOL0     C21806  -1.008   8.223   1.591  0.4558 -0.0558  0.0272
  166MOL0     C21807  -1.130   8.155   1.605  0.1641 -0.2877 -0.2232
  166MOL0     C21808  -1.250   8.225   1.618  0.1963 -1.0503 -0.1508
  166MOL0     C21809  -1.382   8.155   1.596  1.4407  0.5371  0.0921
  166MOL0     O21810  -1.495   8.233   1.594 -0.2869  0.1805 -0.1480
  166MOL0     C21811  -1.619   8.180   1.563  0.3830 -0.8362 -0.7268
  166MOL0     C21812  -1.643   8.062   1.485  0.3495 -0.4586 -0.8946
  166MOL0     C21813  -1.775   8.007   1.481  0.1624  1.5406 -0.2910
  166MOL0     C21814  -1.881   8.064   1.550  0.2069 -0.1053  0.6098
  166MOL0     O21815  -2.005   7.998   1.560 -0.0341  0.3978  0.0752
  166MOL0     C21816  -2.100   8.038   1.666 -0.1714  0.0914 -0.7135
  166MOL0     C21817  -2.193   7.925   1.692  0.6196  0.2654  0.2554
  166MOL0     C21818  -2.333   7.975   1.747 -0.7589 -0.5449 -0.5813
  166MOL0     C21819  -2.313   7.996   1.899  0.8600  0.4309 -0.1198
  166MOL0     C21820  -2.442   8.045   1.951  0.3347 -0.6073 -0.1758
  166MOL0     C21821  -2.427   8.065   2.104  0.0892  0.5838 -0.4311
  166MOL0     C21822  -2.557   8.123   2.156  0.6748  0.7099  0.6932
  166MOL0     C21823  -2.665   8.018   2.197  0.1468  0.0668 -0.2358
  166MOL0    Cl21824  -2.819   8.074   2.258 -0.1269  0.0060  0.6739
  166MOL0     C21825  -1.853   8.186   1.619 -0.1325 -0.2478 -0.3869
  166MOL0     C21826  -1.726   8.236   1.632 -0.2799  0.2952 -0.4944
  166MOL0     O21827  -1.372   8.033   1.579  0.8705 -0.7285  0.7154
  166MOL0     C21828  -1.253   8.363   1.639 -0.9604 -1.2317  0.1692
  166MOL0     C21829  -1.128   8.433   1.647  0.9724  0.0807 -0.1412
  166MOL0     N21830  -0.650   8.929   1.394  0.4456 -0.7340  0.5552
  166MOL0     N21831  -0.599   9.011   1.308  0.9446  0.2262  0.0244
  166MOL0     C21832   0.608   8.495   1.200 -0.3870  0.2645 -0.2469
  166MOL0     C21833   0.748   8.475   1.203  0.1767  0.0695 -0.2209
  166MOL0     C21834   1.187   8.439   1.153  0.4674  0.2286 -0.2607
  166MOL0     C21835   1.245   8.317   1.197  0.1761 -0.0234 -0.2525
  166MOL0     C21836   1.381   8.309   1.219  0.3738  0.1161  0.4395
  166MOL0     C21837   1.465   8.416   1.195 -0.4054  0.4593 -0.6547
  166MOL0     O21838   1.600   8.402   1.201  0.2120  0.5242  0.1038
  166MOL0     C21839   1.693   8.506   1.163  0.9193 -0.7301 -0.5476
  166MOL0     C21840   1.836   8.463   1.179 -0.5027  0.8643 -0.4460
  166MOL0     C21841   1.854   8.427   1.323 -0.0233  0.3295 -0.2583
  166MOL0     C21842   1.876   8.550   1.419 -0.5253 -0.3386 -0.6528
  166MOL0     C21843   1.894   8.487   1.550  0.1512  0.5140 -0.6444
  166MOL0     C21844   1.904   8.423   1.656 -0.2814  0.3363  0.2805
  166MOL0     C21845   1.410   8.542   1.158  0.1595  0.1773 -0.2712
  166MOL0     C21846   1.268   8.552   1.147  0.2175 -0.1504  0.4521
  166MOL0     H21847   0.845   8.704   0.974  1.3618 -5.5561 -2.1379
  166MOL0     H21848   0.565   8.705   0.944 -1.0444 -0.1534 -0.9101
  166MOL0     H21849   0.339   8.690   0.948  0.7952 -1.0946 -0.4358
  166MOL0     H21850   0.381   8.765   1.103 -0.5645  1.0879 -1.3944
  166MOL0     H21851   0.213   8.657   1.208  2.2421  0.6349 -0.9477
  166MOL0     H21852   0.141   8.580   1.058 -1.5961  0.5572 -0.3426
  166MOL0     H21853   0.111   8.815   0.969 -1.7182 -1.5965 -0.4085
  166MOL0     H21854   0.166   8.877   1.125  1.7382 -0.2600 -0.7155
  166MOL0     H21855  -0.097   8.727   1.078 -0.4710  1.7740 -0.5063
  166MOL0     H21856  -0.017   8.734   1.237  0.0883  0.4351 -0.1648
  166MOL0     H21857  -0.064   8.977   1.057  0.7769  1.6443 -0.2098
  166MOL0     H21858  -0.001   8.984   1.219 -1.0191 -0.5299  1.0439
  166MOL0     H21859  -0.219   9.054   1.224 -0.1866 -0.1333 -0.1932
  166MOL0     H21860  -0.227   8.888   1.305 -0.4552  0.3058 -0.1995
  166MOL0     H21861  -0.280   8.937   0.996 -1.7678 -0.6853 -1.0291
  166MOL0     H21862  -0.334   8.803   1.100  0.5607  0.6663 -2.1347
  166MOL0     H21863  -0.525   8.945   1.040  0.1895  3.1986 -0.5088
  166MOL0     H21864  -0.425   9.077   1.109  0.8604  0.5161 -3.4304
  166MOL0     H21865  -0.393   8.757   1.311 -0.6657 -0.1760  2.5907
  166MOL0     H21866  -0.566   8.774   1.632 -1.0590 -0.8974 -0.0736
  166MOL0     H21867  -0.477   8.671   1.536 -0.4372 -0.6039  0.3645
  166MOL0     H21868  -0.696   8.572   1.433  2.1139  1.9816 -1.4621
  166MOL0     H21869  -0.779   8.663   1.556  1.4740  0.0788  2.5072
  166MOL0     H21870  -0.558   8.462   1.587  1.2023  0.9006 -0.1388
  166MOL0     H21871  -0.651   8.531   1.726  1.7749 -1.4890  0.2305
  166MOL0     H21872  -0.739   8.314   1.681  0.2014  0.9893  0.8424
  166MOL0     H21873  -0.737   8.338   1.504  2.0665 -0.1834  0.0260
  166MOL0     H21874  -0.914   8.172   1.574  0.1204 -0.1990 -1.4946
  166MOL0     H21875  -1.126   8.047   1.594  1.3147 -0.3927  0.8825
  166MOL0     H21876  -1.556   8.022   1.434  1.3668  0.1112  0.3410
  166MOL0     H21877  -1.794   7.910   1.435  0.2202  0.5196  1.6995
  166MOL0     H21878  -2.151   8.127   1.628  2.5445  1.4986 -1.3461
  166MOL0     H21879  -2.052   8.058   1.763 -0.7273  2.7828 -0.9012
  166MOL0     H21880  -2.159   7.839   1.750  2.8367  0.6929 -0.3325
  166MOL0     H21881  -2.226   7.892   1.593 -0.4056  5.1034 -1.2871
  166MOL0     H21882  -2.411   7.898   1.742 -1.5376  0.1464  0.4923
  166MOL0     H21883  -2.360   8.074   1.710 -1.2589 -0.3994  0.1393
  166MOL0     H21884  -2.285   7.903   1.949  4.9661  1.4490 -0.1407
  166MOL0     H21885  -2.237   8.074   1.909 -0.2372  1.5360 -0.1835
  166MOL0     H21886  -2.523   7.974   1.930  0.2812 -0.7883  0.6154
  166MOL0     H21887  -2.469   8.138   1.901 -0.7132 -0.2401  1.0260
  166MOL0     H21888  -2.348   8.138   2.125 -0.4863  0.4891  2.4273
  166MOL0     H21889  -2.414   7.969   2.153  0.3286  1.0889  0.5108
  166MOL0     H21890  -2.534   8.185   2.243  2.6126  0.3910  0.4382
  166MOL0     H21891  -2.607   8.183   2.079 -1.9153 -1.9687  0.1261
  166MOL0     H21892  -2.612   7.941   2.253  2.6929  0.1252 -2.3584
  166MOL0     H21893  -2.696   7.966   2.106 -2.0456 -0.9988  1.0633
  166MOL0     H21894  -1.928   8.240   1.676 -0.5218 -1.3427  0.1561
  166MOL0     H21895  -1.708   8.314   1.706 -0.7935  1.8868 -1.9663
  166MOL0     H21896  -1.348   8.414   1.654 -2.5979 -4.4035  1.6241
  166MOL0     H21897  -1.113   8.538   1.670  0.9260 -0.4102  2.4082
  166MOL0     H21898   0.552   8.441   1.276  2.5709 -0.0499  1.8852
  166MOL0     H21899   0.783   8.393   1.266 -1.4465 -0.1613  0.4433
  166MOL0     H21900   1.189   8.225   1.210  4.2200 -2.6695  0.2393
  166MOL0     H21901   1.432   8.213   1.229 -0.3051 -0.4283 -1.0309
  166MOL0     H21902   1.679   8.599   1.218  0.2336 -0.8606 -0.4885
  166MOL0     H21903   1.679   8.528   1.057  2.2731  3.7273 -0.0074
  166MOL0     H21904   1.846   8.381   1.107  2.2245  2.5592 -2.1559
  166MOL0     H21905   1.892   8.555   1.161  0.7352  0.5470  1.5350
  166MOL0     H21906   1.933   8.353   1.334 -2.4538 -2.1761  2.0629
  166MOL0     H21907   1.762   8.383   1.364  0.8232 -0.1867  1.1367
  166MOL0     H21908   1.968   8.606   1.395  0.3021 -1.3415  0.0873
  166MOL0     H21909   1.784   8.608   1.408  1.1291  2.2188 -2.0893
  166MOL0     H21910   1.912   8.365   1.745  0.0810  0.0864  0.0882
  166MOL0     H21911   1.479   8.621   1.131  2.3481 -1.4715  0.2574
  166MOL0     H21912   1.227   8.649   1.119  2.0597 -0.1953 -2.9127
  167MOL0     O21913  10.105   1.153   7.850 -0.1669  0.3565  0.6028
  167MOL0     C21914  10.195   1.151   7.771  0.2845  0.3472  0.1646
  167MOL0     O21915  10.181   1.127   7.634 -0.2675 -0.1339  0.0960
  167MOL0     C21916  10.057   1.103   7.591  0.5983  0.7712  1.0393
  167MOL0     C21917   9.978   0.997   7.633 -0.2545 -0.2263 -0.0202
  167MOL0     C21918   9.849   0.974   7.594  0.1451  0.8678 -0.2480
  167MOL0     C21919   9.800   1.046   7.480  0.0278 -1.1578 -0.3576
  167MOL0     O21920   9.678   1.022   7.425 -0.0464  1.1192 -0.3140
  167MOL0     C21921   9.637   0.879   7.427 -0.9600  0.3358 -0.4366
  167MOL0     C21922   9.512   0.855   7.345  0.0489 -0.1059  0.8696
  167MOL0     C21923   9.543   0.882   7.194  0.4172 -0.6706 -0.3120
  167MOL0     C21924   9.416   0.897   7.101  1.2974  0.4292 -0.2175
  167MOL0     C21925   9.329   0.768   7.093  0.8409  0.3924  0.5898
  167MOL0     C21926   9.257   0.748   6.956 -0.1678 -0.6372  0.2871
  167MOL0     C21927   9.179   0.624   6.966 -0.1395 -0.0318 -0.0332
  167MOL0     C21928   9.115   0.583   6.835  0.3463 -0.0901  0.3964
  167MOL0     N21929   9.013   0.687   6.795 -0.4008 -0.2232  0.6741
  167MOL0     C21930   8.904   0.723   6.871 -0.0380 -0.0169 -0.1868
  167MOL0     C21931   8.825   0.791   6.791  0.7092 -0.2693 -0.4563
  167MOL0     C21932   8.686   0.839   6.826  0.0719 -0.2077 -0.3872
  167MOL0     C21933   8.581   0.782   6.722  0.2815 -0.0079 -0.5725
  167MOL0     C21934   8.443   0.811   6.782  0.4722 -0.0347 -0.1944
  167MOL0     C21935   8.396   0.955   6.734 -1.1594  0.7342 -0.1841
  167MOL0     O21936   8.255   0.967   6.733 -0.6799  0.1197 -0.3058
  167MOL0     C21937   8.188   1.064   6.661 -0.5946  0.7418  0.6974
  167MOL0     C21938   8.242   1.190   6.649 -0.2514  0.8407 -0.0568
  167MOL0     C21939   8.159   1.287   6.577  0.2260 -0.2775  0.7159
  167MOL0     C21940   8.030   1.253   6.527 -1.2275  0.3900 -0.3330
  167MOL0     C21941   7.952   1.346   6.444  0.3791 -0.2625 -0.4316
  167MOL0     O21942   8.009   1.466   6.400 -0.1204  0.0369  0.6424
  167MOL0     C21943   7.942   1.556   6.318 -0.9597  0.7450 -0.3664
  167MOL0     C21944   8.012   1.630   6.229 -0.1442 -0.5385  1.1777
  167MOL0     C21945   7.949   1.725   6.144 -0.1385 -0.0699  0.5428
  167MOL0     C21946   7.809   1.752   6.150 -0.2182  0.5535 -0.3126
  167MOL0     O21947   7.758   1.845   6.065 -0.6960 -0.1743 -0.1654
  167MOL0     C21948   7.614   1.871   6.062 -0.6283 -0.2032 -0.2072
  167MOL0     C21949   7.580   2.021   6.037  1.2297  0.4613 -0.2352
  167MOL0     C21950   7.589   2.112   6.164 -0.2304 -0.5038 -0.0344
  167MOL0     C21951   7.717   2.090   6.254  0.3354  0.8432 -0.5970
  167MOL0     C21952   7.845   2.143   6.200  0.0982 -0.9631 -0.9524
  167MOL0     C21953   7.953   2.126   6.305  0.2586  0.4372 -0.8792
  167MOL0     C21954   8.033   1.991   6.293  0.3464 -0.0826 -0.0247
  167MOL0     C21955   8.157   1.997   6.385 -0.3357 -0.7404 -0.8429
  167MOL0    Cl21956   8.121   2.049   6.556  0.0415 -0.1081  0.1265
  167MOL0     C21957   7.741   1.677   6.251  0.9430  0.4707 -0.2709
  167MOL0     C21958   7.803   1.583   6.335  0.8894 -0.0647  0.1445
  167MOL0     O21959   7.843   1.299   6.420 -0.2351  0.6865  0.6286
  167MOL0     C21960   7.982   1.117   6.551  0.2165 -1.0770 -1.1386
  167MOL0     C21961   8.062   1.025   6.621 -0.1692 -0.4268 -0.0515
  167MOL0     N21962   8.877   0.800   6.664  0.1963  0.0417  0.1757
  167MOL0     N21963   8.990   0.738   6.671 -0.4794 -0.6393 -0.3149
  167MOL0     C21964   9.884   1.146   7.433  0.3571 -0.1658 -0.4791
  167MOL0     C21965  10.010   1.178   7.485  0.9240 -0.5018  0.3716
  167MOL0     C21966  10.328   1.170   7.834  0.2287  0.0635 -0.0472
  167MOL0     C21967  10.339   1.217   7.969  0.2028  0.0469 -0.6132
  167MOL0     C21968  10.459   1.249   8.025 -0.5927  0.3522  0.1423
  167MOL0     C21969  10.577   1.228   7.955  0.3438  0.2515  0.2853
  167MOL0     O21970  10.692   1.267   8.000 -0.3709  0.1350  0.0989
  167MOL0     C21971  10.722   1.285   8.142  0.1986 -0.1131  0.0602
  167MOL0     C21972  10.716   1.434   8.163  0.2099  0.6898  0.4788
  167MOL0     C21973  10.755   1.471   8.309  1.1713 -0.5835 -0.3811
  167MOL0     C21974  10.908   1.451   8.337 -0.1635  0.3461 -0.5609
  167MOL0     C21975  10.998   1.561   8.297 -0.9565  0.3378  0.4216
  167MOL0     C21976  11.088   1.635   8.261  1.2140  0.7894 -0.3627
  167MOL0     C21977  10.574   1.181   7.821  0.0088  0.5025  0.3623
  167MOL0     C21978  10.449   1.147   7.763  0.0123 -0.5068 -0.9218
  167MOL0     H21979  10.023   0.930   7.705 -1.0002 -0.6615  0.0482
  167MOL0     H21980   9.796   0.900   7.654  0.1044  1.7605  0.8317
  167MOL0     H21981   9.619   0.851   7.531 -2.0090 -1.2881 -1.0229
  167MOL0     H21982   9.720   0.822   7.385  1.9942  3.4969  0.5804
  167MOL0     H21983   9.428   0.915   7.380  0.4604  0.4589  0.8983
  167MOL0     H21984   9.476   0.752   7.358  0.8127 -0.9891 -2.7297
  167MOL0     H21985   9.612   0.803   7.163 -1.8348 -2.4134 -1.0978
  167MOL0     H21986   9.596   0.978   7.184  0.5901 -0.6887  0.3602
  167MOL0     H21987   9.352   0.971   7.149  1.1714 -0.8385  1.6503
  167MOL0     H21988   9.441   0.941   7.004 -0.9235  3.0589  0.2650
  167MOL0     H21989   9.255   0.765   7.173  0.8129 -0.0264  0.5536
  167MOL0     H21990   9.408   0.692   7.095  1.2426  0.2721 -4.8286
  167MOL0     H21991   9.316   0.738   6.864 -1.1787 -1.1050 -0.3340
  167MOL0     H21992   9.191   0.833   6.938  0.0511 -0.6134 -0.4765
  167MOL0     H21993   9.245   0.538   6.982 -3.0611 -2.0490  2.0667
  167MOL0     H21994   9.114   0.618   7.054 -1.7245 -0.3843 -1.1850
  167MOL0     H21995   9.070   0.485   6.857 -0.9420  0.5179  0.5301
  167MOL0     H21996   9.183   0.573   6.749 -0.8403 -1.4623 -0.4459
  167MOL0     H21997   8.891   0.703   6.977  0.0977 -1.5346 -0.4338
  167MOL0     H21998   8.679   0.948   6.823 -0.8510 -0.2634 -0.5313
  167MOL0     H21999   8.678   0.795   6.926 -1.2167 -2.3272 -1.3425
  167MOL0     H22000   8.598   0.674   6.712 -1.0774 -0.3390  0.3656
  167MOL0     H22001   8.594   0.833   6.626  0.9836  2.4165  0.7116
  167MOL0     H22002   8.374   0.736   6.743  0.1966 -0.0424  0.3020
  167MOL0     H22003   8.441   0.809   6.891 -0.4238  2.9939 -0.0476
  167MOL0     H22004   8.418   0.949   6.627 -0.9303  4.1348 -0.4239
  167MOL0     H22005   8.460   1.034   6.775  1.7162 -0.5597 -1.8083
  167MOL0     H22006   8.341   1.214   6.688  1.2481 -2.3557 -1.5524
  167MOL0     H22007   8.201   1.385   6.560 -3.1456  1.0333 -1.0417
  167MOL0     H22008   8.114   1.596   6.213 -0.1003  0.4005 -0.8067
  167MOL0     H22009   8.018   1.776   6.078  2.2657 -2.5971  0.9100
  167MOL0     H22010   7.559   1.833   6.149 -0.1433  0.2332  0.2990
  167MOL0     H22011   7.582   1.821   5.970  0.2378  0.1472 -0.7032
  167MOL0     H22012   7.476   2.029   6.004  0.0649  1.5251  3.2589
  167MOL0     H22013   7.640   2.061   5.954 -0.5629  0.6380 -1.5164
  167MOL0     H22014   7.501   2.100   6.227  0.1901  2.1667  1.2291
  167MOL0     H22015   7.584   2.215   6.126  1.3200  1.1637  3.7720
  167MOL0     H22016   7.691   2.151   6.341  2.4025  2.5691 -1.1077
  167MOL0     H22017   7.722   1.985   6.282 -1.7129  0.6896 -0.6053
  167MOL0     H22018   7.835   2.249   6.179 -1.0891 -0.4660  1.6745
  167MOL0     H22019   7.876   2.089   6.110 -0.2383  0.1940 -1.7836
  167MOL0     H22020   7.919   2.136   6.408 -2.8880 -0.4524 -1.7336
  167MOL0     H22021   8.024   2.207   6.282  0.7832 -0.2772 -1.8661
  167MOL0     H22022   7.959   1.914   6.312  1.1790 -1.0469 -0.6033
  167MOL0     H22023   8.073   1.986   6.191  0.3467  0.8272 -0.0795
  167MOL0     H22024   8.232   2.065   6.342  1.2740  0.4402  3.3562
  167MOL0     H22025   8.207   1.899   6.386 -1.2367 -1.3907  4.1165
  167MOL0     H22026   7.633   1.671   6.243  0.9130 -3.3291  1.0629
  167MOL0     H22027   7.746   1.533   6.413  1.6572 -1.4565 -0.1612
  167MOL0     H22028   7.879   1.093   6.527 -0.6035  1.0321 -0.0874
  167MOL0     H22029   8.038   0.921   6.637  2.6334 -1.0760  0.4807
  167MOL0     H22030   9.843   1.201   7.348 -0.8612 -0.4344 -0.0781
  167MOL0     H22031  10.075   1.250   7.436 -2.9565  1.6718 -2.0961
  167MOL0     H22032  10.258   1.239   8.038  1.4341 -1.5193  1.4251
  167MOL0     H22033  10.447   1.303   8.119 -4.2567  2.5666 -1.3919
  167MOL0     H22034  10.822   1.245   8.161 -0.4763 -1.6043  0.6602
  167MOL0     H22035  10.648   1.247   8.213 -1.4936  3.5789  0.4972
  167MOL0     H22036  10.792   1.480   8.099  3.7412 -2.4241  2.0351
  167MOL0     H22037  10.612   1.464   8.150 -0.4738 -1.0475  1.5441
  167MOL0     H22038  10.691   1.422   8.383  0.8458  0.4262  0.0183
  167MOL0     H22039  10.725   1.574   8.331  2.0318 -0.4830  0.3714
  167MOL0     H22040  10.918   1.440   8.445 -1.0693  2.3959 -0.2253
  167MOL0     H22041  10.946   1.360   8.291 -0.8982 -0.1623 -0.1892
  167MOL0     H22042  11.147   1.713   8.217  2.2936  2.0911  3.0900
  167MOL0     H22043  10.666   1.181   7.765 -0.1606  0.9435  0.0731
  167MOL0     H22044  10.442   1.137   7.655 -2.0512 -0.2401 -0.8492
  168MOL0     O22045   0.619   0.130   1.552  0.2111  0.0653 -0.3977
  168MOL0     C22046   0.652   0.022   1.609  0.6061 -0.6987 -0.0231
  168MOL0     O22047   0.576  -0.043   1.695  0.8315 -0.2110  0.3251
  168MOL0     C22048   0.462   0.025   1.749 -0.4162 -0.2031 -0.0389
  168MOL0     C22049   0.484   0.146   1.817 -0.2655 -0.0732 -0.0391
  168MOL0     C22050   0.371   0.201   1.887  0.4792 -0.1357  1.1395
  168MOL0     C22051   0.246   0.139   1.883 -0.5597 -0.9206 -0.8003
  168MOL0     O22052   0.134   0.183   1.950  0.0108  0.5790  0.2534
  168MOL0     C22053   0.145   0.241   2.073  0.9396 -0.0240 -0.3165
  168MOL0     C22054   0.013   0.240   2.147 -0.2950  0.8997 -0.5917
  168MOL0     C22055  -0.097   0.324   2.083 -0.6128  0.0907  0.0965
  168MOL0     C22056  -0.218   0.332   2.175 -0.2971 -0.0927  0.0503
  168MOL0     C22057  -0.341   0.395   2.109 -0.0380  0.2789  0.3199
  168MOL0     C22058  -0.316   0.540   2.083  0.4855  0.2606  0.2745
  168MOL0     C22059  -0.445   0.616   2.036 -0.7213  0.0508  0.6055
  168MOL0     C22060  -0.528   0.655   2.153  0.0421  0.8472  0.3664
  168MOL0     N22061  -0.461   0.766   2.216  0.5268 -0.0616  0.0143
  168MOL0     C22062  -0.413   0.756   2.341  0.1350 -0.5944  0.1034
  168MOL0     C22063  -0.395   0.893   2.369  0.9659  0.6237 -0.1359
  168MOL0     C22064  -0.371   0.932   2.514  0.0467  0.9003 -0.6454
  168MOL0     C22065  -0.501   0.917   2.593  0.8739  0.0863 -0.1080
  168MOL0     C22066  -0.613   1.022   2.585  0.5523  0.3166  0.3327
  168MOL0     C22067  -0.722   1.017   2.691  0.8010 -0.3137  0.2500
  168MOL0     O22068  -0.794   1.137   2.658 -0.3477 -0.4677 -0.9863
  168MOL0     C22069  -0.917   1.139   2.712 -0.9087 -0.5785  0.7416
  168MOL0     C22070  -1.034   1.081   2.649  0.3870 -0.3087 -0.0319
  168MOL0     C22071  -1.156   1.082   2.716 -0.1461  0.1233  0.0185
  168MOL0     C22072  -1.168   1.157   2.836  0.1847  0.5989  0.6195
  168MOL0     C22073  -1.302   1.157   2.897 -0.0099 -0.5973 -0.5944
  168MOL0     O22074  -1.403   1.093   2.828 -0.1145 -0.5569  0.6337
  168MOL0     C22075  -1.536   1.131   2.842 -0.0986  0.2673  0.2618
  168MOL0     C22076  -1.586   1.256   2.873  0.5998 -0.6186 -0.3825
  168MOL0     C22077  -1.727   1.284   2.864 -1.7558 -0.8549  0.4321
  168MOL0     C22078  -1.810   1.186   2.836  0.5047  0.2965  0.1304
  168MOL0     O22079  -1.942   1.227   2.845 -0.3834  0.0082 -0.9669
  168MOL0     C22080  -2.035   1.122   2.881 -0.4063 -0.3447  0.2441
  168MOL0     C22081  -2.140   1.176   2.976 -0.2268  0.2221  0.6447
  168MOL0     C22082  -2.260   1.214   2.890  0.5852  0.6763 -0.5231
  168MOL0     C22083  -2.371   1.117   2.887  0.7010 -0.2121  0.6045
  168MOL0     C22084  -2.510   1.178   2.869  0.3143  0.3243  0.2603
  168MOL0     C22085  -2.615   1.074   2.865 -0.2719 -0.5029 -0.8061
  168MOL0     C22086  -2.759   1.132   2.854 -0.6415 -1.0299 -0.3006
  168MOL0     C22087  -2.866   1.040   2.895  0.0396  0.2326 -0.1389
  168MOL0    Cl22088  -2.857   0.991   3.070  0.0036 -0.1487 -0.0291
  168MOL0     C22089  -1.766   1.054   2.807 -0.3135  0.0564 -0.7088
  168MOL0     C22090  -1.623   1.033   2.818 -0.2355  0.3666  0.4655
  168MOL0     O22091  -1.313   1.210   3.004  0.0513  0.8213 -0.1555
  168MOL0     C22092  -1.049   1.200   2.891 -1.4309  0.2576 -0.2873
  168MOL0     C22093  -0.933   1.212   2.820  0.6014 -0.2053 -0.4425
  168MOL0     N22094  -0.418   0.973   2.263  0.3596 -0.1686 -0.5244
  168MOL0     N22095  -0.474   0.895   2.176 -0.5331 -0.3394 -0.7758
  168MOL0     C22096   0.231   0.016   1.824 -0.1688 -0.0470 -0.3875
  168MOL0     C22097   0.346  -0.044   1.752  0.1924 -1.2111  0.4949
  168MOL0     C22098   0.789  -0.016   1.585 -0.0664 -1.2015  0.2144
  168MOL0     C22099   0.863   0.026   1.475 -0.2595  0.9289  0.1232
  168MOL0     C22100   0.996  -0.008   1.456 -0.4827  0.8809 -0.2550
  168MOL0     C22101   1.063  -0.094   1.544  0.6644 -0.1297  0.2148
  168MOL0     O22102   1.185  -0.139   1.508 -0.3635 -0.3375 -0.5202
  168MOL0     C22103   1.281  -0.035   1.523  0.1709 -0.5403  0.0549
  168MOL0     C22104   1.408  -0.074   1.459 -0.7971 -0.1322 -0.2692
  168MOL0     C22105   1.483  -0.188   1.542  0.4246 -0.3917 -0.0736
  168MOL0     C22106   1.623  -0.228   1.505 -0.6114 -0.3704  0.3991
  168MOL0     C22107   1.619  -0.305   1.383 -0.2305  1.1111 -1.2516
  168MOL0     C22108   1.618  -0.360   1.273 -0.1688 -0.2135  0.5011
  168MOL0     C22109   0.991  -0.143   1.657  0.2520  1.5277 -0.0196
  168MOL0     C22110   0.856  -0.107   1.675 -0.6815  0.1253 -0.0207
  168MOL0     H22111   0.576   0.204   1.827 -0.4235  0.1679  0.0293
  168MOL0     H22112   0.376   0.290   1.948 -0.5082  0.3863  0.4939
  168MOL0     H22113   0.179   0.344   2.062 -0.4957  0.5440  0.3274
  168MOL0     H22114   0.210   0.187   2.143 -0.9985  1.2682  2.6452
  168MOL0     H22115   0.025   0.271   2.251 -2.2899 -1.2516  0.3752
  168MOL0     H22116  -0.013   0.135   2.162  0.6439  0.6712 -0.5142
  168MOL0     H22117  -0.127   0.282   1.987 -4.1207  0.4732  0.8622
  168MOL0     H22118  -0.062   0.426   2.065  2.6955 -0.4859  2.3464
  168MOL0     H22119  -0.249   0.234   2.213  0.4065  0.5366  2.4656
  168MOL0     H22120  -0.203   0.391   2.266  1.3676  2.0257 -1.4902
  168MOL0     H22121  -0.424   0.394   2.180  0.7550 -1.0844  1.2707
  168MOL0     H22122  -0.355   0.339   2.016  1.4739 -1.6533  1.1800
  168MOL0     H22123  -0.241   0.543   2.003  0.3889 -2.7133 -0.0480
  168MOL0     H22124  -0.280   0.601   2.166 -0.3492  1.2185 -0.0399
  168MOL0     H22125  -0.409   0.705   1.985 -0.7486 -0.6698 -0.7178
  168MOL0     H22126  -0.505   0.563   1.962  0.2706 -2.6694  1.6172
  168MOL0     H22127  -0.538   0.568   2.220 -0.9375  0.9440  0.3679
  168MOL0     H22128  -0.629   0.683   2.121 -1.2113 -1.5635  1.8332
  168MOL0     H22129  -0.394   0.666   2.399  1.9488 -1.6263 -1.9282
  168MOL0     H22130  -0.325   1.028   2.537  0.6807  0.2214  1.1399
  168MOL0     H22131  -0.292   0.864   2.548 -0.2502  1.0644  0.3970
  168MOL0     H22132  -0.472   0.917   2.698  0.0544  2.7009  0.1874
  168MOL0     H22133  -0.538   0.815   2.575  0.0347  0.6457 -1.6941
  168MOL0     H22134  -0.564   1.117   2.606  2.3892  0.1539 -2.6400
  168MOL0     H22135  -0.654   1.013   2.484 -1.8633 -0.9349  1.3274
  168MOL0     H22136  -0.681   1.018   2.793  0.3660 -0.4556  0.4294
  168MOL0     H22137  -0.784   0.930   2.669  1.0213  0.3695 -3.7354
  168MOL0     H22138  -1.023   1.032   2.552  0.4855 -1.9553  0.7769
  168MOL0     H22139  -1.242   1.034   2.671  0.4453 -1.0787  0.1403
  168MOL0     H22140  -1.522   1.342   2.894  1.3771 -0.9605 -1.2836
  168MOL0     H22141  -1.756   1.388   2.873  1.9682  0.2194  1.6976
  168MOL0     H22142  -1.986   1.041   2.937 -0.3783 -1.9340 -1.9305
  168MOL0     H22143  -2.079   1.081   2.790 -0.9123 -0.7363  0.6544
  168MOL0     H22144  -2.095   1.269   3.015  0.7745 -0.3101  0.7953
  168MOL0     H22145  -2.167   1.113   3.061 -0.5401 -1.6649 -0.8040
  168MOL0     H22146  -2.236   1.247   2.788  1.3521  0.9105 -0.2702
  168MOL0     H22147  -2.295   1.309   2.933  3.0911  1.7965 -0.7870
  168MOL0     H22148  -2.366   1.049   2.801  0.3622  1.7337 -1.0397
  168MOL0     H22149  -2.383   1.064   2.982 -2.8505 -1.4295 -0.3648
  168MOL0     H22150  -2.519   1.242   2.781 -0.1487 -1.8395 -1.3595
  168MOL0     H22151  -2.537   1.242   2.954 -4.2650 -0.9408  0.0237
  168MOL0     H22152  -2.613   1.019   2.960  0.0078 -0.6121 -0.8745
  168MOL0     H22153  -2.608   1.009   2.777 -1.4954  0.9231 -1.9934
  168MOL0     H22154  -2.766   1.213   2.927 -0.4365 -1.3013  0.0196
  168MOL0     H22155  -2.788   1.166   2.754 -0.2282 -3.5642 -1.3596
  168MOL0     H22156  -2.847   0.953   2.832  0.9108  0.8157 -0.6993
  168MOL0     H22157  -2.963   1.085   2.872 -0.6134 -0.6078  0.8644
  168MOL0     H22158  -1.826   0.969   2.778  0.6187 -0.4166 -1.2868
  168MOL0     H22159  -1.589   0.932   2.799 -2.6561 -0.6376  1.0313
  168MOL0     H22160  -1.045   1.222   2.997  0.3666  0.7944 -0.4396
  168MOL0     H22161  -0.846   1.246   2.875 -1.4305  1.8116  1.7056
  168MOL0     H22162   0.137  -0.037   1.830  0.9176 -2.3998 -2.4708
  168MOL0     H22163   0.343  -0.135   1.692  1.6228 -0.3953 -0.8875
  168MOL0     H22164   0.816   0.082   1.395  0.3657 -1.8869 -2.3927
  168MOL0     H22165   1.032   0.029   1.360 -2.1050  1.6583 -0.6186
  168MOL0     H22166   1.298  -0.011   1.628 -1.4952 -1.0212  0.4625
  168MOL0     H22167   1.255   0.057   1.470 -1.3119 -1.2259 -0.4673
  168MOL0     H22168   1.385  -0.119   1.362 -1.9491 -2.0119  0.8028
  168MOL0     H22169   1.487  -0.001   1.443 -1.9522  0.5203 -3.6412
  168MOL0     H22170   1.412  -0.271   1.540  0.9149 -0.8156 -0.1389
  168MOL0     H22171   1.491  -0.155   1.646  1.4262 -1.0033  0.0519
  168MOL0     H22172   1.682  -0.136   1.495 -0.5153 -0.2084  2.2306
  168MOL0     H22173   1.678  -0.299   1.568  0.6488 -1.3009 -1.6127
  168MOL0     H22174   1.633  -0.405   1.177  2.8226  2.6639 -0.5838
  168MOL0     H22175   1.045  -0.207   1.726  0.1477  0.2928 -1.0401
  168MOL0     H22176   0.803  -0.143   1.762  2.6212 -0.0536  2.1066
  169MOL0     O22177   5.392   7.190  10.757  0.6082 -0.7283 -0.3150
  169MOL0     C22178   5.443   7.287  10.704  0.7252  0.0466 -0.1133
  169MOL0     O22179   5.374   7.391  10.662 -0.4240 -0.8704 -0.2702
  169MOL0     C22180   5.238   7.394  10.657  0.0112  0.0919  0.2327
  169MOL0     C22181   5.185   7.518  10.699  0.1602 -0.1087 -0.0808
  169MOL0     C22182   5.044   7.530  10.687 -0.5473  0.5468  0.0874
  169MOL0     C22183   4.955   7.427  10.654  0.1890 -0.6968  0.0900
  169MOL0     O22184   4.820   7.448  10.655 -0.8644 -0.1800 -0.5720
  169MOL0     C22185   4.735   7.365  10.573  0.1671 -0.8852 -0.3724
  169MOL0     C22186   4.608   7.448  10.527  0.8899  0.3443  0.4463
  169MOL0     C22187   4.488   7.435  10.622 -0.1492 -0.3823  0.3591
  169MOL0     C22188   4.409   7.311  10.613  0.0450 -0.4631 -0.2940
  169MOL0     C22189   4.317   7.298  10.491  0.9646  0.3856  0.6056
  169MOL0     C22190   4.223   7.169  10.505 -0.2090 -0.2308 -0.3693
  169MOL0     C22191   4.111   7.181  10.397  0.0221 -0.8233 -0.0018
  169MOL0     C22192   3.977   7.118  10.441 -0.0881  0.4097  0.8005
  169MOL0     N22193   3.888   7.200  10.523  0.1300  0.5211  0.6032
  169MOL0     C22194   3.910   7.231  10.651 -0.5197  0.7320 -0.0373
  169MOL0     C22195   3.828   7.323  10.699  0.4079  0.5947 -0.0706
  169MOL0     C22196   3.836   7.400  10.823 -0.5357 -0.8125 -0.7356
  169MOL0     C22197   3.903   7.540  10.792  0.4293 -0.2449 -1.1063
  169MOL0     C22198   3.828   7.636  10.695 -0.2097 -0.6123 -0.1265
  169MOL0     C22199   3.680   7.642  10.718  0.6264  0.7080 -0.3533
  169MOL0     O22200   3.649   7.678  10.850 -0.1032 -0.5352  0.4999
  169MOL0     C22201   3.528   7.730  10.889 -0.2325 -0.6242 -0.4567
  169MOL0     C22202   3.526   7.851  10.962 -0.1862 -1.2780  0.7174
  169MOL0     C22203   3.405   7.908  11.000  0.7295  0.6642  0.1397
  169MOL0     C22204   3.282   7.858  10.951  0.1668  1.4313 -0.6846
  169MOL0     C22205   3.161   7.928  11.002 -0.2641  0.1451 -0.2225
  169MOL0     O22206   3.049   7.904  10.929  0.0292  0.5571  0.4038
  169MOL0     C22207   2.933   7.971  10.949 -0.3282 -0.4164  0.3253
  169MOL0     C22208   2.806   7.913  10.956  0.0145 -0.2398  0.4454
  169MOL0     C22209   2.695   7.992  10.955  0.9868  0.1064  0.5987
  169MOL0     C22210   2.699   8.132  10.962 -0.4998 -0.6875 -0.3875
  169MOL0     O22211   2.584   8.210  10.960  0.2320  0.1799 -1.0189
  169MOL0     C22212   2.592   8.339  10.915  0.1446  0.4232 -0.5368
  169MOL0     C22213   2.462   8.405  10.957  0.5097  0.2577  0.0473
  169MOL0     C22214   2.466   8.558  10.924 -0.7072 -0.9210 -0.0070
  169MOL0     C22215   2.541   8.633  11.034  0.5987 -0.0367  0.2767
  169MOL0     C22216   2.563   8.785  10.997  0.1870 -0.7580  0.6121
  169MOL0     C22217   2.440   8.878  10.999  0.1172  0.2906  0.6360
  169MOL0     C22218   2.386   8.909  11.141  0.5466 -0.5175 -0.6865
  169MOL0     C22219   2.265   8.824  11.185  0.0593 -0.5029  0.1623
  169MOL0    Cl22220   2.153   8.902  11.299 -0.5336  0.2033  0.1424
  169MOL0     C22221   2.836   8.190  10.966 -0.1741 -0.1590 -0.8356
  169MOL0     C22222   2.939   8.108  10.964  0.2698 -0.4271  0.4835
  169MOL0     O22223   3.173   8.000  11.107  0.0469  0.4504 -0.4195
  169MOL0     C22224   3.283   7.736  10.884  0.4422 -0.4867  0.4835
  169MOL0     C22225   3.402   7.671  10.857  0.8527 -0.1688 -0.8207
  169MOL0     N22226   3.739   7.341  10.589  0.4882 -0.4303 -0.4556
  169MOL0     N22227   3.772   7.266  10.487 -0.1876 -0.2797  0.3257
  169MOL0     C22228   5.017   7.312  10.606  0.4139  0.7130 -0.3857
  169MOL0     C22229   5.151   7.292  10.623  0.6073  0.7827  0.7774
  169MOL0     C22230   5.592   7.284  10.681 -0.6967 -0.2284  0.0199
  169MOL0     C22231   5.657   7.366  10.584 -0.6224  0.3886 -0.4926
  169MOL0     C22232   5.804   7.362  10.573 -0.2104  0.2275  0.0105
  169MOL0     C22233   5.874   7.279  10.655 -0.5611 -0.1996  0.3057
  169MOL0     O22234   6.009   7.270  10.657 -0.5764 -0.7213 -0.0872
  169MOL0     C22235   6.084   7.389  10.656 -0.3091  0.3868  0.6211
  169MOL0     C22236   6.230   7.350  10.670  0.3749 -0.8030  0.6073
  169MOL0     C22237   6.320   7.466  10.611 -0.1258 -0.0807 -0.2025
  169MOL0     C22238   6.335   7.588  10.703 -0.2779  0.8017  0.4794
  169MOL0     C22239   6.466   7.651  10.680  0.5310  0.1258 -0.3027
  169MOL0     C22240   6.575   7.706  10.674 -0.2313  0.7260 -0.3812
  169MOL0     C22241   5.808   7.184  10.726 -0.3294 -0.8255 -0.3337
  169MOL0     C22242   5.669   7.195  10.752 -0.3569 -0.1490  0.2113
  169MOL0     H22243   5.240   7.599  10.746  0.0163  0.4676 -0.8827
  169MOL0     H22244   4.987   7.618  10.718 -0.2940  0.7658 -0.0667
  169MOL0     H22245   4.714   7.272  10.627  0.5102 -1.0454 -0.5103
  169MOL0     H22246   4.784   7.332  10.481 -2.6540 -0.6484 -2.0470
  169MOL0     H22247   4.568   7.416  10.431 -2.3480  1.7063  1.2336
  169MOL0     H22248   4.648   7.547  10.504  1.8229  0.4401  2.2843
  169MOL0     H22249   4.414   7.512  10.603  0.5363 -0.2686 -2.1917
  169MOL0     H22250   4.533   7.446  10.721  2.8743 -0.9647 -0.8321
  169MOL0     H22251   4.488   7.237  10.596 -0.4811 -1.1258  0.1235
  169MOL0     H22252   4.360   7.283  10.707 -3.3978 -0.6804 -2.0074
  169MOL0     H22253   4.384   7.284  10.406  0.2578  0.5240  0.0168
  169MOL0     H22254   4.253   7.386  10.483 -0.8951 -0.7828  1.6507
  169MOL0     H22255   4.180   7.160  10.606  0.1845  0.3514 -0.1470
  169MOL0     H22256   4.278   7.077  10.485  1.7317  1.0458 -1.1763
  169MOL0     H22257   4.082   7.286  10.383  1.9827 -0.2299 -0.0098
  169MOL0     H22258   4.142   7.140  10.301 -1.9988  0.8633 -1.4676
  169MOL0     H22259   4.004   7.024  10.491 -0.0667 -1.3728 -2.2629
  169MOL0     H22260   3.932   7.090  10.345  0.3937  1.9000  0.1125
  169MOL0     H22261   4.003   7.202  10.698 -1.5233 -2.3979  0.2286
  169MOL0     H22262   3.904   7.350  10.893  2.8383 -2.7444 -4.9059
  169MOL0     H22263   3.738   7.409  10.870  0.8732 -1.0386  2.4868
  169MOL0     H22264   4.003   7.531  10.747 -0.6483 -1.9412 -3.3697
  169MOL0     H22265   3.909   7.590  10.889  0.5127  2.2209 -2.3105
  169MOL0     H22266   3.899   7.719  10.686 -0.2461 -0.3993  1.2264
  169MOL0     H22267   3.835   7.592  10.596  1.1131  1.0814 -0.8394
  169MOL0     H22268   3.629   7.548  10.695 -1.0754  0.8479  2.3607
  169MOL0     H22269   3.631   7.716  10.655  1.9224  0.8556 -1.2132
  169MOL0     H22270   3.621   7.890  10.998 -0.0589 -2.6446  1.9682
  169MOL0     H22271   3.403   7.993  11.068 -1.3878 -1.0412  2.4072
  169MOL0     H22272   2.803   7.805  10.947 -0.5015 -0.1684 -0.3577
  169MOL0     H22273   2.602   7.937  10.943  1.8661 -1.3866  0.3081
  169MOL0     H22274   2.611   8.339  10.807 -1.3233 -0.9779 -0.8400
  169MOL0     H22275   2.673   8.388  10.969 -1.5846 -1.4686  4.2732
  169MOL0     H22276   2.447   8.388  11.064 -0.1477  2.3958  0.3514
  169MOL0     H22277   2.374   8.361  10.909  0.3374  2.3314 -1.7080
  169MOL0     H22278   2.363   8.592  10.912 -0.1649  0.3688 -1.5505
  169MOL0     H22279   2.506   8.573  10.823 -2.2024  1.8544 -0.2823
  169MOL0     H22280   2.487   8.633  11.129 -1.0140  0.2865 -0.6146
  169MOL0     H22281   2.638   8.584  11.049 -1.0270 -3.5090  0.4080
  169MOL0     H22282   2.605   8.791  10.897 -0.1149  2.7084  0.5891
  169MOL0     H22283   2.641   8.817  11.067  0.7836  0.3390 -0.5333
  169MOL0     H22284   2.362   8.827  10.942  1.8705 -1.4243 -0.3439
  169MOL0     H22285   2.463   8.970  10.945 -1.0729  0.3182  0.1515
  169MOL0     H22286   2.462   8.913  11.219  0.9416  1.4584 -1.1163
  169MOL0     H22287   2.350   9.012  11.140  1.4953 -0.1787 -1.9448
  169MOL0     H22288   2.296   8.728  11.226 -1.9481 -1.5685 -0.7128
  169MOL0     H22289   2.196   8.799  11.105 -1.0862 -1.1967  1.3343
  169MOL0     H22290   2.851   8.296  10.983  0.6486  0.0690 -2.7931
  169MOL0     H22291   3.038   8.151  10.958  1.0338 -2.2820 -0.9095
  169MOL0     H22292   3.188   7.691  10.857 -0.2373  0.3489  1.3690
  169MOL0     H22293   3.398   7.572  10.814 -1.1613 -0.2399 -0.5486
  169MOL0     H22294   4.954   7.227  10.580 -2.4652  1.1349  4.1143
  169MOL0     H22295   5.187   7.196  10.588  1.0142  2.1949 -3.2493
  169MOL0     H22296   5.593   7.420  10.515 -2.6633 -1.8440 -0.5020
  169MOL0     H22297   5.861   7.434  10.515  1.2267 -2.9581 -2.9408
  169MOL0     H22298   6.051   7.460  10.732 -2.8752  0.7946 -0.7355
  169MOL0     H22299   6.077   7.443  10.561 -2.7772 -1.9837 -0.6976
  169MOL0     H22300   6.261   7.340  10.774 -2.2911 -3.2140  1.2945
  169MOL0     H22301   6.250   7.252  10.625 -1.5809 -0.8582 -0.2358
  169MOL0     H22302   6.279   7.492  10.513  1.9813 -0.3646 -1.2089
  169MOL0     H22303   6.421   7.430  10.593  1.3754  3.7010 -0.2403
  169MOL0     H22304   6.257   7.658  10.675 -1.1692 -1.4784 -3.5285
  169MOL0     H22305   6.343   7.547  10.805  2.1723 -3.3900 -1.1400
  169MOL0     H22306   6.672   7.752  10.667  0.1335  0.2844  1.4011
  169MOL0     H22307   5.865   7.117  10.790 -0.1057  0.5556  0.9705
  169MOL0     H22308   5.618   7.136  10.828 -0.3053  0.4986  0.7596
  170MOL0     O22309   2.719   3.683   6.551  0.5404  0.4380  0.6098
  170MOL0     C22310   2.626   3.607   6.522 -0.2526  0.3445 -0.2110
  170MOL0     O22311   2.641   3.488   6.465  0.7771  0.3540 -0.0967
  170MOL0     C22312   2.758   3.473   6.405  0.9138  1.4679  0.1212
  170MOL0     C22313   2.823   3.358   6.437  0.5287  0.1171  0.9484
  170MOL0     C22314   2.947   3.331   6.371  0.5857 -0.6120 -0.1657
  170MOL0     C22315   2.995   3.419   6.266 -0.9283 -0.0895  0.3212
  170MOL0     O22316   3.110   3.409   6.194  0.1627  0.2723 -0.3881
  170MOL0     C22317   3.205   3.307   6.235 -0.2604  0.4396 -0.6779
  170MOL0     C22318   3.347   3.339   6.205 -0.0429  0.2472 -0.0056
  170MOL0     C22319   3.443   3.237   6.253 -0.5619  0.6074 -0.0787
  170MOL0     C22320   3.408   3.096   6.196 -0.4204  0.2072 -0.1729
  170MOL0     C22321   3.519   2.997   6.202 -0.9273 -0.2360 -1.0423
  170MOL0     C22322   3.564   2.960   6.349  0.5651  0.3115  0.5086
  170MOL0     C22323   3.631   2.822   6.356 -0.3893 -0.4452 -0.5225
  170MOL0     C22324   3.646   2.766   6.495 -0.1650 -0.9170 -0.2000
  170MOL0     N22325   3.521   2.709   6.553 -0.0404  0.2518  0.4224
  170MOL0     C22326   3.461   2.740   6.671 -0.3225 -0.7570 -0.1615
  170MOL0     C22327   3.341   2.678   6.676 -0.1030 -1.1710 -0.2146
  170MOL0     C22328   3.237   2.688   6.783 -0.3375  0.4655 -0.2672
  170MOL0     C22329   3.252   2.560   6.877 -0.3959  0.3916  0.4898
  170MOL0     C22330   3.156   2.551   6.991 -0.2567 -0.2751  0.2008
  170MOL0     C22331   3.008   2.545   6.950 -0.3028 -0.1992 -0.7168
  170MOL0     O22332   2.982   2.675   6.908  0.3559 -0.0330  0.0183
  170MOL0     C22333   2.856   2.725   6.888  0.3769  0.2488 -0.0520
  170MOL0     C22334   2.846   2.859   6.851  0.3377 -0.1394  0.2065
  170MOL0     C22335   2.728   2.925   6.842  0.2455 -0.3678  0.6908
  170MOL0     C22336   2.605   2.864   6.853 -1.0147  0.6516 -0.4371
  170MOL0     C22337   2.480   2.940   6.833 -0.0800  0.2899 -0.6942
  170MOL0     O22338   2.486   3.084   6.845  0.0783 -0.3094  0.9583
  170MOL0     C22339   2.375   3.160   6.830 -0.2163 -0.1479  0.4223
  170MOL0     C22340   2.302   3.159   6.720  0.2463 -0.6186 -0.3907
  170MOL0     C22341   2.172   3.217   6.705  0.0572 -0.1692 -0.4988
  170MOL0     C22342   2.123   3.288   6.810  0.3518 -0.6508  0.0649
  170MOL0     O22343   2.006   3.349   6.810  0.4258 -0.2290  0.2626
  170MOL0     C22344   1.924   3.361   6.690  0.0460 -0.0149 -0.0765
  170MOL0     C22345   1.797   3.436   6.728  0.1807  0.9159 -0.1943
  170MOL0     C22346   1.680   3.437   6.618 -0.8096  0.3360 -0.4926
  170MOL0     C22347   1.628   3.300   6.601 -0.5272  0.7017 -0.8249
  170MOL0     C22348   1.502   3.293   6.511 -0.5170 -0.3023  0.0784
  170MOL0     C22349   1.521   3.337   6.363 -0.9144  0.5807  0.4165
  170MOL0     C22350   1.402   3.312   6.276 -0.0109 -0.5366  0.4737
  170MOL0     C22351   1.268   3.384   6.305  0.5559 -0.2888  0.3690
  170MOL0    Cl22352   1.303   3.565   6.332 -0.0189  0.4818  0.3301
  170MOL0     C22353   2.194   3.302   6.931  0.3578  0.2213  0.2985
  170MOL0     C22354   2.316   3.233   6.936 -0.4785 -0.4574 -0.0226
  170MOL0     O22355   2.377   2.879   6.814 -0.4420  0.2000 -0.5739
  170MOL0     C22356   2.613   2.729   6.906  0.1930  0.0178  0.7818
  170MOL0     C22357   2.736   2.663   6.923  0.8302  1.2864  0.7421
  170MOL0     N22358   3.336   2.606   6.559  0.6014  0.3866 -0.3203
  170MOL0     N22359   3.442   2.617   6.491 -0.2170 -0.0710 -0.3911
  170MOL0     C22360   2.926   3.537   6.239  0.1336 -0.4060 -0.0667
  170MOL0     C22361   2.800   3.557   6.309 -0.1078 -0.3441  0.1445
  170MOL0     C22362   2.491   3.661   6.543 -0.4266 -0.5276  0.3632
  170MOL0     C22363   2.369   3.588   6.512 -0.5403  0.4768 -0.1487
  170MOL0     C22364   2.237   3.639   6.537  0.5229 -1.3696 -0.7459
  170MOL0     C22365   2.219   3.765   6.599 -0.0297  0.7764  0.7034
  170MOL0     O22366   2.101   3.821   6.643  0.4436 -0.0919 -0.2616
  170MOL0     C22367   1.978   3.767   6.587 -0.4664  0.1677 -0.2300
  170MOL0     C22368   1.854   3.855   6.636  0.6026 -1.2884 -0.3841
  170MOL0     C22369   1.851   3.862   6.796  0.0475 -0.2347  0.5461
  170MOL0     C22370   1.706   3.862   6.849 -0.0213  0.1677  0.1572
  170MOL0     C22371   1.627   3.965   6.786 -0.1850  0.8563 -0.3936
  170MOL0     C22372   1.563   4.051   6.724 -0.2200  0.0414 -0.6747
  170MOL0     C22373   2.341   3.825   6.633  0.0270 -0.4251 -0.4467
  170MOL0     C22374   2.474   3.777   6.609  1.1888 -1.4128 -1.1494
  170MOL0     H22375   2.782   3.288   6.509 -1.6179  0.5483  0.1999
  170MOL0     H22376   2.999   3.246   6.414 -0.4641  0.3249  3.2949
  170MOL0     H22377   3.169   3.211   6.197 -0.3191  0.0606  0.3011
  170MOL0     H22378   3.207   3.305   6.344  0.1268  0.5584 -0.6813
  170MOL0     H22379   3.377   3.427   6.262  0.9576 -0.2159  0.1924
  170MOL0     H22380   3.360   3.352   6.097  1.8858  2.1821  0.3781
  170MOL0     H22381   3.452   3.232   6.362 -2.4441 -0.1002  0.0795
  170MOL0     H22382   3.543   3.263   6.217 -0.4613  0.0885 -0.1826
  170MOL0     H22383   3.326   3.060   6.259  0.1600 -0.8760 -0.0204
  170MOL0     H22384   3.385   3.100   6.089 -0.5488 -1.1601 -0.2131
  170MOL0     H22385   3.596   3.041   6.138 -2.9487  1.4363 -2.4315
  170MOL0     H22386   3.480   2.905   6.159  0.5929 -0.6370 -1.6445
  170MOL0     H22387   3.475   2.951   6.410 -0.1779 -1.3608 -0.7224
  170MOL0     H22388   3.636   3.029   6.393  1.5441 -0.4383  0.1286
  170MOL0     H22389   3.568   2.756   6.296 -1.8786  2.6257 -2.5894
  170MOL0     H22390   3.726   2.832   6.302 -1.5855  0.4155 -2.6103
  170MOL0     H22391   3.683   2.847   6.559  0.8286  1.6564 -3.7255
  170MOL0     H22392   3.725   2.691   6.500  0.7748 -0.0171 -0.9719
  170MOL0     H22393   3.499   2.814   6.740 -2.6923 -2.0175  2.7034
  170MOL0     H22394   3.137   2.687   6.739 -1.1345  0.1228  1.4865
  170MOL0     H22395   3.245   2.769   6.856  1.8033  0.8434 -0.8508
  170MOL0     H22396   3.354   2.570   6.915 -0.2098  1.6353 -0.2927
  170MOL0     H22397   3.235   2.467   6.822  0.3259 -0.7676  2.1367
  170MOL0     H22398   3.183   2.469   7.059  3.1255 -0.1589 -0.8226
  170MOL0     H22399   3.168   2.637   7.057 -0.4658 -0.0127 -0.1015
  170MOL0     H22400   2.946   2.507   7.032  1.4093 -1.2696  0.1430
  170MOL0     H22401   2.987   2.470   6.873 -2.7336 -0.0534 -0.2739
  170MOL0     H22402   2.942   2.909   6.841 -0.5467  1.8024  0.9264
  170MOL0     H22403   2.720   3.030   6.818  0.5565 -0.4170  0.3646
  170MOL0     H22404   2.332   3.100   6.633 -0.8769 -1.5309 -0.1901
  170MOL0     H22405   2.116   3.216   6.612 -1.6017 -2.0142  0.4402
  170MOL0     H22406   1.903   3.257   6.663  3.2560 -0.6222 -0.7029
  170MOL0     H22407   1.982   3.409   6.611 -1.2350  1.9014  0.0942
  170MOL0     H22408   1.835   3.534   6.758 -2.0600  1.0923  2.4519
  170MOL0     H22409   1.753   3.387   6.815  1.5242 -2.1206 -1.0996
  170MOL0     H22410   1.720   3.469   6.522  0.3048 -1.2788 -0.6016
  170MOL0     H22411   1.603   3.514   6.634 -0.2817  0.8873 -0.5433
  170MOL0     H22412   1.703   3.232   6.561 -1.4731  0.5062 -2.3387
  170MOL0     H22413   1.594   3.264   6.699 -1.4360 -0.5610 -1.5809
  170MOL0     H22414   1.436   3.363   6.562  2.2516  0.9975  2.1012
  170MOL0     H22415   1.458   3.193   6.514  0.5868 -0.8558 -1.0840
  170MOL0     H22416   1.600   3.271   6.327  1.2766  3.0241  0.4706
  170MOL0     H22417   1.551   3.442   6.352 -2.5941  1.1104  0.6479
  170MOL0     H22418   1.429   3.336   6.172 -0.1383 -0.1905  0.5172
  170MOL0     H22419   1.379   3.206   6.270 -1.5505 -0.1937 -0.1808
  170MOL0     H22420   1.232   3.343   6.400  1.4360  0.3145  0.9784
  170MOL0     H22421   1.194   3.367   6.226  0.0427 -0.2417  0.8336
  170MOL0     H22422   2.147   3.357   7.012 -0.5075  1.2944 -0.8862
  170MOL0     H22423   2.379   3.250   7.023  1.0051 -2.0572 -0.7250
  170MOL0     H22424   2.523   2.677   6.937 -0.0656 -0.2962 -0.4450
  170MOL0     H22425   2.731   2.563   6.963  1.7230  0.5210 -0.9610
  170MOL0     H22426   2.960   3.602   6.159 -1.8786  0.5646 -0.1934
  170MOL0     H22427   2.738   3.638   6.273 -1.2400 -0.8166  0.9535
  170MOL0     H22428   2.375   3.487   6.472  1.4125  0.0142  1.1799
  170MOL0     H22429   2.147   3.583   6.516 -0.2362 -0.4565 -0.0081
  170MOL0     H22430   1.955   3.665   6.619 -1.5540  0.5538  0.2850
  170MOL0     H22431   1.992   3.743   6.482 -0.5377 -2.6193  0.3036
  170MOL0     H22432   1.859   3.958   6.601  0.3217 -1.3273 -0.5410
  170MOL0     H22433   1.757   3.819   6.599  0.4971 -2.7602  1.1807
  170MOL0     H22434   1.906   3.949   6.832  0.5520  1.0984 -3.0117
  170MOL0     H22435   1.899   3.775   6.840 -1.1935 -1.0443  0.3627
  170MOL0     H22436   1.654   3.769   6.824 -2.7581  2.3714 -3.3904
  170MOL0     H22437   1.701   3.866   6.958  1.4898  0.0346  0.2574
  170MOL0     H22438   1.504   4.128   6.678  0.4627  1.6821  1.0547
  170MOL0     H22439   2.342   3.923   6.678 -3.9007 -0.1693 -0.5568
  170MOL0     H22440   2.553   3.848   6.631 -1.5457  1.8513 -1.0117
  171MOL0     O22441   7.863   3.282   7.604  0.5790  0.8798 -0.1830
  171MOL0     C22442   7.924   3.366   7.544  0.1252  0.5874 -0.1776
  171MOL0     O22443   7.869   3.450   7.451 -0.1499 -0.1245 -0.6574
  171MOL0     C22444   7.743   3.435   7.408  1.0223 -0.0836  0.4613
  171MOL0     C22445   7.686   3.308   7.378  0.3455 -0.3022  0.2953
  171MOL0     C22446   7.563   3.307   7.317 -0.4755  0.5238 -0.1782
  171MOL0     C22447   7.489   3.426   7.287  0.0515  0.3676 -0.5942
  171MOL0     O22448   7.358   3.429   7.229  0.5595  0.2478 -0.2324
  171MOL0     C22449   7.334   3.309   7.149  0.2195  0.3951 -0.7871
  171MOL0     C22450   7.254   3.213   7.245 -0.1853 -0.0062  0.3532
  171MOL0     C22451   7.122   3.189   7.181  0.0943 -0.0239 -0.2271
  171MOL0     C22452   7.036   3.110   7.267  0.2543  1.2226  0.6587
  171MOL0     C22453   6.900   3.083   7.198 -0.0634  0.3770  0.1014
  171MOL0     C22454   6.806   3.197   7.212 -0.8356 -0.1129  1.0212
  171MOL0     C22455   6.665   3.157   7.156  0.3207  0.1081  0.5581
  171MOL0     C22456   6.575   3.282   7.131 -0.1165 -0.6318  0.4743
  171MOL0     N22457   6.442   3.257   7.089  0.7644  0.5494 -0.3252
  171MOL0     C22458   6.344   3.355   7.107 -0.8390  0.6889  0.1560
  171MOL0     C22459   6.236   3.294   7.048  0.0952 -0.7422 -0.3385
  171MOL0     C22460   6.100   3.366   7.042  0.2997  0.1717  0.3674
  171MOL0     C22461   6.013   3.320   7.155  1.2006 -0.0634  0.2377
  171MOL0     C22462   5.892   3.416   7.180  0.2315 -0.0692 -0.0861
  171MOL0     C22463   5.789   3.411   7.072  0.4749  0.9002  0.1086
  171MOL0     O22464   5.672   3.457   7.138 -0.4246 -0.8097 -0.2023
  171MOL0     C22465   5.567   3.507   7.063 -0.4236 -0.1731  0.3666
  171MOL0     C22466   5.568   3.532   6.925 -0.5819 -1.1872 -0.5854
  171MOL0     C22467   5.456   3.588   6.859  0.2866  0.2711  1.0252
  171MOL0     C22468   5.347   3.628   6.932 -0.5772 -0.1267  0.6100
  171MOL0     C22469   5.220   3.665   6.865  0.4874  0.7225  0.1524
  171MOL0     O22470   5.109   3.653   6.943 -0.3991 -0.2771  0.1489
  171MOL0     C22471   4.994   3.647   6.871  0.0742  0.6635 -0.8123
  171MOL0     C22472   4.942   3.525   6.835 -0.9873  0.3720  1.0080
  171MOL0     C22473   4.822   3.510   6.768 -0.2990 -0.1068  0.2762
  171MOL0     C22474   4.735   3.616   6.755  0.9744  0.6800 -0.2777
  171MOL0     O22475   4.611   3.599   6.696  0.4955  0.1359 -0.5060
  171MOL0     C22476   4.525   3.712   6.677 -0.5655  0.2391  0.2423
  171MOL0     C22477   4.391   3.653   6.625 -0.8883  0.3625 -0.7650
  171MOL0     C22478   4.275   3.756   6.651 -0.0456 -0.6207  0.6606
  171MOL0     C22479   4.132   3.706   6.625 -0.7159  0.3752  0.6142
  171MOL0     C22480   4.070   3.726   6.484 -0.2900 -0.0419  0.6459
  171MOL0     C22481   3.935   3.645   6.486 -0.3035 -0.8127  0.3097
  171MOL0     C22482   3.872   3.653   6.346  0.0505  0.4617  0.2468
  171MOL0     C22483   3.736   3.586   6.352  0.4782  0.5249 -0.2757
  171MOL0    Cl22484   3.672   3.568   6.191 -0.3781 -0.3053  0.2204
  171MOL0     C22485   4.776   3.741   6.807  0.5241 -0.2406 -0.0834
  171MOL0     C22486   4.899   3.754   6.870  0.1905  1.1654  0.6965
  171MOL0     O22487   5.227   3.695   6.744 -0.6981  0.1141  0.0653
  171MOL0     C22488   5.345   3.610   7.073  0.1190  0.1501 -0.8356
  171MOL0     C22489   5.461   3.547   7.137 -0.7426 -0.1918  0.3079
  171MOL0     N22490   6.268   3.168   7.001  0.7421  0.3120 -0.3472
  171MOL0     N22491   6.392   3.156   7.018  0.1379 -0.1915 -0.6574
  171MOL0     C22492   7.544   3.549   7.328 -0.3210 -0.2908  0.6245
  171MOL0     C22493   7.668   3.553   7.379 -0.6673 -0.2586 -0.2866
  171MOL0     C22494   8.070   3.384   7.576  0.4819 -0.3691 -0.4096
  171MOL0     C22495   8.153   3.458   7.495  0.1203  0.3719 -0.0581
  171MOL0     C22496   8.291   3.464   7.515  1.5384 -0.0384 -0.4814
  171MOL0     C22497   8.353   3.407   7.628 -0.6281 -0.4787 -0.5787
  171MOL0     O22498   8.480   3.428   7.672 -0.1876  0.7616  0.3799
  171MOL0     C22499   8.570   3.522   7.616 -0.0616  0.4044  0.8101
  171MOL0     C22500   8.653   3.429   7.527 -0.1028  0.0223  0.6262
  171MOL0     C22501   8.764   3.510   7.451 -0.0660  0.6073  0.0978
  171MOL0     C22502   8.869   3.420   7.386 -0.3926  1.0408  0.2739
  171MOL0     C22503   8.994   3.491   7.361  0.5157 -0.1798  0.2416
  171MOL0     C22504   9.098   3.542   7.348  0.0265 -0.3212 -0.9552
  171MOL0     C22505   8.269   3.341   7.718  0.6911 -0.5489 -0.6041
  171MOL0     C22506   8.124   3.322   7.693  0.1081 -0.0194 -0.3551
  171MOL0     H22507   7.729   3.213   7.409 -0.3218  0.0955  2.6536
  171MOL0     H22508   7.516   3.210   7.304 -2.1574  1.0404  1.5178
  171MOL0     H22509   7.423   3.268   7.100  1.6190  1.8314  0.4741
  171MOL0     H22510   7.275   3.336   7.061 -0.2237  2.4318  0.0923
  171MOL0     H22511   7.243   3.265   7.341  2.4414 -2.1922  1.9847
  171MOL0     H22512   7.312   3.121   7.252  1.1772  0.6433 -1.3908
  171MOL0     H22513   7.138   3.128   7.092  1.9061  2.0450 -1.4445
  171MOL0     H22514   7.077   3.284   7.152 -1.7170 -0.0639  2.2239
  171MOL0     H22515   7.080   3.013   7.291 -0.8440 -0.4774 -3.3907
  171MOL0     H22516   7.030   3.172   7.358  1.0763  1.7929  0.3375
  171MOL0     H22517   6.859   2.991   7.242 -0.6237 -0.6657 -2.4346
  171MOL0     H22518   6.897   3.065   7.090 -2.7314  2.1699 -0.2191
  171MOL0     H22519   6.844   3.284   7.158  0.0204  0.4971  2.5514
  171MOL0     H22520   6.798   3.230   7.315 -0.2760  1.2346  0.6465
  171MOL0     H22521   6.667   3.106   7.059 -0.1683 -2.0825  1.6353
  171MOL0     H22522   6.604   3.090   7.216  1.5315 -1.3947  0.1707
  171MOL0     H22523   6.622   3.337   7.050  0.2566 -1.9937 -0.2646
  171MOL0     H22524   6.573   3.347   7.219 -0.6467  0.5053 -0.3491
  171MOL0     H22525   6.362   3.452   7.152  0.9736 -0.1078  1.2836
  171MOL0     H22526   6.061   3.332   6.946  0.2319 -1.0348  0.8059
  171MOL0     H22527   6.111   3.474   7.035  1.8378  0.0121 -0.0453
  171MOL0     H22528   6.079   3.328   7.242  0.8444  0.5938  0.4539
  171MOL0     H22529   5.985   3.215   7.145 -0.5881  0.4060  0.0321
  171MOL0     H22530   5.847   3.380   7.274  3.6210 -2.6790  0.7409
  171MOL0     H22531   5.927   3.518   7.196 -1.3052  0.7136 -1.5148
  171MOL0     H22532   5.777   3.306   7.041  2.8401  0.8046 -0.6733
  171MOL0     H22533   5.827   3.463   6.984  0.7592 -2.3342 -1.8669
  171MOL0     H22534   5.665   3.525   6.876  0.6960 -0.6314  1.6890
  171MOL0     H22535   5.461   3.591   6.751  0.1119 -0.3148  0.9977
  171MOL0     H22536   5.011   3.442   6.849 -0.2756  1.0986  1.9595
  171MOL0     H22537   4.780   3.414   6.740 -1.1330 -0.3557  2.2028
  171MOL0     H22538   4.577   3.789   6.618  1.3715 -0.2724  1.2012
  171MOL0     H22539   4.500   3.758   6.773 -2.8218 -1.2411  0.4332
  171MOL0     H22540   4.371   3.554   6.667 -0.4593  0.6724  0.1898
  171MOL0     H22541   4.409   3.628   6.520 -0.7402  0.0164 -0.6615
  171MOL0     H22542   4.303   3.838   6.584 -1.4282 -0.5410  0.1432
  171MOL0     H22543   4.276   3.791   6.755  1.1404 -1.2041  0.8563
  171MOL0     H22544   4.123   3.603   6.658  1.7395 -0.5548 -1.2327
  171MOL0     H22545   4.081   3.764   6.702  0.8529  1.8029  0.6581
  171MOL0     H22546   4.134   3.677   6.410  1.8930  0.8438  1.8712
  171MOL0     H22547   4.059   3.828   6.446 -1.3037  0.0918  1.2492
  171MOL0     H22548   3.876   3.691   6.566 -2.3055 -2.8200  0.0615
  171MOL0     H22549   3.951   3.540   6.512 -1.4060 -1.0852 -0.0831
  171MOL0     H22550   3.857   3.758   6.319  1.0072  0.4366 -0.4187
  171MOL0     H22551   3.944   3.610   6.276 -0.5777  3.1437 -2.2713
  171MOL0     H22552   3.676   3.643   6.424  1.4710  2.0050 -0.5685
  171MOL0     H22553   3.743   3.491   6.406  0.9442  1.2682  1.0091
  171MOL0     H22554   4.707   3.824   6.808 -0.1178 -0.7559 -0.3287
  171MOL0     H22555   4.934   3.845   6.919  1.3915  1.0966  0.0076
  171MOL0     H22556   5.255   3.621   7.131 -0.4141  0.4871 -1.7076
  171MOL0     H22557   5.479   3.550   7.244  0.2168 -0.7633  0.1779
  171MOL0     H22558   7.497   3.647   7.317 -2.0018 -1.3259 -2.7332
  171MOL0     H22559   7.725   3.642   7.407 -1.1444  0.0619 -0.3158
  171MOL0     H22560   8.104   3.508   7.412 -0.9931 -2.4842 -1.2536
  171MOL0     H22561   8.350   3.515   7.439 -2.0449  0.0019 -3.5307
  171MOL0     H22562   8.639   3.561   7.692  0.1839  2.7952 -0.5271
  171MOL0     H22563   8.510   3.597   7.564 -0.6139  0.1363  1.0513
  171MOL0     H22564   8.702   3.352   7.588  0.5505 -0.3320 -0.3395
  171MOL0     H22565   8.581   3.383   7.458 -1.5901  0.9816  1.4727
  171MOL0     H22566   8.806   3.574   7.528 -1.0534 -0.6208  1.7268
  171MOL0     H22567   8.714   3.567   7.372  0.0347  2.1249  1.0921
  171MOL0     H22568   8.891   3.331   7.446 -0.1454 -0.7023 -2.2382
  171MOL0     H22569   8.819   3.388   7.293 -2.0013  2.4583  0.5904
  171MOL0     H22570   9.194   3.588   7.354 -0.0551 -0.3188  3.6319
  171MOL0     H22571   8.299   3.299   7.813 -0.6078  3.6563  1.9509
  171MOL0     H22572   8.065   3.261   7.761  0.9857 -0.5119 -0.0138
  172MOL0     O22573   0.141   1.937   4.473 -0.2949 -0.3992  0.0800
  172MOL0     C22574   0.205   1.952   4.365  0.6698 -0.4386  0.1837
  172MOL0     O22575   0.143   1.986   4.244  0.2936 -0.4023 -0.1684
  172MOL0     C22576   0.007   2.016   4.245 -0.0883 -0.4434 -1.0266
  172MOL0     C22577  -0.068   1.962   4.145 -0.6585 -0.5332  0.5047
  172MOL0     C22578  -0.204   1.978   4.125  0.0801 -0.4246 -0.6074
  172MOL0     C22579  -0.274   2.049   4.229 -0.4932 -0.1519  0.1061
  172MOL0     O22580  -0.405   2.086   4.237 -0.2050  0.4439 -0.3091
  172MOL0     C22581  -0.486   2.058   4.125  0.2813 -0.2937  0.3099
  172MOL0     C22582  -0.632   2.097   4.149  0.5339  0.4269 -0.2176
  172MOL0     C22583  -0.708   2.087   4.020 -0.0168  1.1834 -0.0577
  172MOL0     C22584  -0.853   2.139   4.040  0.0450  0.5051  0.1204
  172MOL0     C22585  -0.934   2.116   3.910  0.1411 -0.3641  0.4464
  172MOL0     C22586  -1.083   2.145   3.931 -0.0523  0.2387 -0.2107
  172MOL0     C22587  -1.162   2.162   3.813 -0.3560 -0.0216  0.7713
  172MOL0     C22588  -1.311   2.154   3.839  1.2435  0.2420 -0.2077
  172MOL0     N22589  -1.387   2.085   3.732 -0.2262 -0.6861  0.3920
  172MOL0     C22590  -1.392   2.141   3.605 -0.2126 -0.3929 -0.0768
  172MOL0     C22591  -1.489   2.071   3.547  0.5040  0.1840 -0.4238
  172MOL0     C22592  -1.533   2.104   3.403 -0.5186 -0.3580  0.0396
  172MOL0     C22593  -1.550   1.984   3.317  0.0988 -0.2462  0.5577
  172MOL0     C22594  -1.428   1.891   3.310 -0.2145  0.1521 -0.1511
  172MOL0     C22595  -1.416   1.788   3.428 -0.2239 -0.5657 -0.0790
  172MOL0     O22596  -1.305   1.694   3.388 -0.0734 -0.4023 -0.9362
  172MOL0     C22597  -1.187   1.681   3.463 -0.1624 -0.2163  0.7046
  172MOL0     C22598  -1.103   1.569   3.437  0.3190  0.2846  0.1457
  172MOL0     C22599  -0.975   1.565   3.499  0.2041  0.8131 -0.0987
  172MOL0     C22600  -0.941   1.656   3.602  0.0822 -0.6028  0.2744
  172MOL0     C22601  -0.810   1.643   3.669 -0.6410  0.3430 -0.4762
  172MOL0     O22602  -0.734   1.757   3.673  0.1132  0.9631  0.1289
  172MOL0     C22603  -0.602   1.737   3.697 -0.3135 -0.4943 -0.6223
  172MOL0     C22604  -0.524   1.712   3.593  0.2330 -0.7943 -0.0177
  172MOL0     C22605  -0.387   1.705   3.602 -0.5096 -0.0144  0.8022
  172MOL0     C22606  -0.321   1.715   3.728 -0.0148 -0.0419  0.0829
  172MOL0     O22607  -0.183   1.702   3.726 -0.0503  0.1824 -0.5593
  172MOL0     C22608  -0.116   1.651   3.849 -0.3600 -0.0562 -0.1726
  172MOL0     C22609   0.031   1.619   3.810 -0.5623  0.6855 -0.8414
  172MOL0     C22610   0.085   1.550   3.937  0.4572 -0.1878 -0.7698
  172MOL0     C22611   0.229   1.531   3.939  1.0429 -0.4876 -0.4419
  172MOL0     C22612   0.268   1.476   4.072 -0.3796 -0.1456 -0.2183
  172MOL0     C22613   0.414   1.424   4.089  0.4315 -0.1058 -0.5138
  172MOL0     C22614   0.521   1.536   4.103  0.1007  0.1416 -0.1355
  172MOL0     C22615   0.663   1.491   4.153 -0.2047 -0.1756  0.7565
  172MOL0    Cl22616   0.649   1.475   4.335  0.4508 -0.7446 -0.1789
  172MOL0     C22617  -0.405   1.721   3.839 -0.3343 -0.5989 -0.1655
  172MOL0     C22618  -0.540   1.746   3.823  0.7246  0.2332 -0.1939
  172MOL0     O22619  -0.767   1.527   3.693  1.0735  0.2322 -0.3350
  172MOL0     C22620  -1.022   1.763   3.631  0.0006 -0.9275  0.7006
  172MOL0     C22621  -1.132   1.785   3.552  1.2329  0.3992 -0.1826
  172MOL0     N22622  -1.558   1.997   3.639  0.1073  0.1592  0.1386
  172MOL0     N22623  -1.494   2.003   3.755 -0.2229 -0.6867  0.6031
  172MOL0     C22624  -0.202   2.110   4.327 -0.1519  0.0810 -0.0875
  172MOL0     C22625  -0.063   2.104   4.332  0.1643 -1.0306  0.3524
  172MOL0     C22626   0.346   1.904   4.358  0.1666 -0.1388 -0.4942
  172MOL0     C22627   0.410   1.843   4.468 -0.3375  0.4241  0.8792
  172MOL0     C22628   0.542   1.796   4.452  0.0382 -0.5195 -0.0592
  172MOL0     C22629   0.610   1.808   4.334  0.1798 -0.8993  0.0440
  172MOL0     O22630   0.733   1.755   4.312 -0.4550 -0.0043  0.3466
  172MOL0     C22631   0.824   1.760   4.426 -0.3936  0.0006  0.3433
  172MOL0     C22632   0.949   1.659   4.397  0.6029 -0.5968 -0.5356
  172MOL0     C22633   1.041   1.707   4.281  0.5414  0.6010  0.4768
  172MOL0     C22634   1.172   1.641   4.278 -0.0980  0.4832 -0.2529
  172MOL0     C22635   1.260   1.690   4.390  0.3407  0.6354  0.3954
  172MOL0     C22636   1.339   1.747   4.464  1.0737  0.3756 -0.7152
  172MOL0     C22637   0.548   1.862   4.225  0.5193 -0.9567  0.0972
  172MOL0     C22638   0.420   1.912   4.234 -0.5482 -0.1457 -0.5108
  172MOL0     H22639  -0.020   1.901   4.069 -1.3762  0.2189 -0.5807
  172MOL0     H22640  -0.254   1.934   4.039  3.3456  0.2196 -2.9938
  172MOL0     H22641  -0.484   1.952   4.097 -3.9631 -0.1409 -1.2750
  172MOL0     H22642  -0.446   2.124   4.048  1.1621  0.6870  1.5659
  172MOL0     H22643  -0.633   2.200   4.184 -1.4891  0.8624 -1.4061
  172MOL0     H22644  -0.676   2.024   4.218 -2.2103  0.0199 -2.2267
  172MOL0     H22645  -0.711   1.982   3.993  2.1924  1.2923 -0.9547
  172MOL0     H22646  -0.655   2.146   3.945  0.6751 -2.5815 -2.7879
  172MOL0     H22647  -0.891   2.083   4.126  0.3651 -0.3627 -0.3028
  172MOL0     H22648  -0.857   2.248   4.049 -2.7467  0.5557 -0.7463
  172MOL0     H22649  -0.925   2.008   3.893 -1.8917 -0.8506  1.9838
  172MOL0     H22650  -0.886   2.171   3.829 -1.6491  0.1812 -0.2898
  172MOL0     H22651  -1.085   2.238   3.989 -0.5284 -0.8261  1.5606
  172MOL0     H22652  -1.118   2.061   3.992 -0.6377 -1.3457 -2.5726
  172MOL0     H22653  -1.122   2.235   3.742  2.4808 -1.5967  0.5480
  172MOL0     H22654  -1.133   2.074   3.754  0.8702  0.6668  0.3077
  172MOL0     H22655  -1.345   2.255   3.862  1.4287  0.2254  0.1479
  172MOL0     H22656  -1.331   2.091   3.926 -0.8262  0.7774 -0.2414
  172MOL0     H22657  -1.319   2.219   3.581  1.5462 -1.7294  0.6758
  172MOL0     H22658  -1.461   2.173   3.360  0.7811 -0.2329  2.2658
  172MOL0     H22659  -1.630   2.152   3.423  0.0059 -0.0194  2.0223
  172MOL0     H22660  -1.570   2.019   3.216  2.0059 -1.8215 -0.4330
  172MOL0     H22661  -1.639   1.939   3.362  0.1363  0.1801  1.0706
  172MOL0     H22662  -1.434   1.832   3.218  2.1280 -1.2818  0.5319
  172MOL0     H22663  -1.338   1.953   3.310  0.1553 -0.2426  2.6828
  172MOL0     H22664  -1.512   1.738   3.438 -2.4888  3.6355  1.6543
  172MOL0     H22665  -1.401   1.829   3.528 -1.5760  0.8559 -0.4157
  172MOL0     H22666  -1.127   1.501   3.356 -0.0112 -0.6273  1.0040
  172MOL0     H22667  -0.907   1.484   3.475 -0.2294  0.3997  0.0469
  172MOL0     H22668  -0.567   1.705   3.494 -0.7799 -0.8730  0.4137
  172MOL0     H22669  -0.327   1.683   3.514 -1.0425  3.4019 -0.5706
  172MOL0     H22670  -0.166   1.562   3.888 -0.5687 -0.3926 -1.1796
  172MOL0     H22671  -0.128   1.726   3.928 -0.4182 -0.7263  0.4561
  172MOL0     H22672   0.088   1.710   3.790  1.5201 -0.5851 -1.0974
  172MOL0     H22673   0.035   1.543   3.731 -1.0999  0.3771 -0.5819
  172MOL0     H22674   0.030   1.459   3.962  0.6712 -0.0693  0.1584
  172MOL0     H22675   0.083   1.628   4.014  3.4618 -1.6933  1.0355
  172MOL0     H22676   0.254   1.462   3.858 -1.8647 -1.0935 -0.9314
  172MOL0     H22677   0.285   1.623   3.922 -1.6829  1.4655  0.4506
  172MOL0     H22678   0.200   1.393   4.096  3.2250 -2.5106  2.9867
  172MOL0     H22679   0.246   1.554   4.145 -1.1540  2.7635 -3.2885
  172MOL0     H22680   0.436   1.354   4.009  0.0021 -1.2268  0.3221
  172MOL0     H22681   0.433   1.363   4.178  1.0941 -0.9300 -1.2125
  172MOL0     H22682   0.529   1.592   4.010  1.2784  1.1768  0.5436
  172MOL0     H22683   0.485   1.604   4.181 -1.0535 -0.8945  0.2567
  172MOL0     H22684   0.741   1.562   4.124  0.4190 -0.1052  2.5442
  172MOL0     H22685   0.685   1.389   4.120 -0.7132  0.0277 -0.2827
  172MOL0     H22686  -0.360   1.717   3.938  2.7689 -2.2753 -1.4881
  172MOL0     H22687  -0.595   1.761   3.916 -0.4241  1.5076 -1.0332
  172MOL0     H22688  -0.997   1.840   3.703  0.0120  1.9333 -2.1187
  172MOL0     H22689  -1.198   1.871   3.563 -1.9731 -2.2298  3.9818
  172MOL0     H22690  -0.257   2.177   4.392 -0.1843 -0.5947  0.5957
  172MOL0     H22691  -0.012   2.169   4.402  2.1148 -1.7225 -0.3814
  172MOL0     H22692   0.351   1.832   4.559 -1.5871  0.3425  0.0825
  172MOL0     H22693   0.579   1.741   4.537 -2.1301  1.4191  2.2890
  172MOL0     H22694   0.768   1.724   4.513 -1.4904  3.2183  1.1066
  172MOL0     H22695   0.861   1.858   4.458 -0.3082 -0.5295  1.9855
  172MOL0     H22696   0.999   1.649   4.494  0.9490 -0.1821 -0.6696
  172MOL0     H22697   0.904   1.565   4.361  0.4303 -0.3321 -1.0251
  172MOL0     H22698   1.055   1.816   4.277 -1.0914  0.8278  0.0679
  172MOL0     H22699   0.996   1.684   4.184  0.3674 -1.2935  0.9725
  172MOL0     H22700   1.150   1.534   4.282  1.4275  0.1646  0.2971
  172MOL0     H22701   1.225   1.661   4.185  0.9692  2.3299  0.6834
  172MOL0     H22702   1.411   1.784   4.534  2.9982 -0.0092 -2.3876
  172MOL0     H22703   0.600   1.877   4.131 -0.1397  0.2293 -0.0879
  172MOL0     H22704   0.371   1.961   4.150  2.1142  0.6469 -1.7048
  173MOL0     O22705   1.639   0.665   1.047 -0.1398 -0.3533  0.1963
  173MOL0     C22706   1.583   0.656   0.942  0.4154 -0.3296  0.1142
  173MOL0     O22707   1.627   0.702   0.819  0.0950  0.7560  0.0888
  173MOL0     C22708   1.765   0.714   0.815 -0.6622  0.1030  1.2088
  173MOL0     C22709   1.826   0.837   0.830 -0.0410  0.5419 -0.2439
  173MOL0     C22710   1.969   0.846   0.822  0.6465 -0.1148  0.0204
  173MOL0     C22711   2.050   0.735   0.808 -0.1187 -0.7289 -0.1870
  173MOL0     O22712   2.189   0.762   0.805  0.3064 -0.1663  0.2092
  173MOL0     C22713   2.278   0.648   0.770  0.2492  0.5366  0.5149
  173MOL0     C22714   2.418   0.689   0.797  0.0872 -0.4208 -0.4144
  173MOL0     C22715   2.442   0.737   0.938 -0.2463 -0.3969 -0.1035
  173MOL0     C22716   2.394   0.641   1.047  0.3014  0.2099  0.1516
  173MOL0     C22717   2.465   0.694   1.175  0.6994  0.0453 -0.1737
  173MOL0     C22718   2.419   0.612   1.303  0.1078 -0.8194 -0.4826
  173MOL0     C22719   2.501   0.647   1.424 -0.0544  0.0045  0.0576
  173MOL0     C22720   2.484   0.554   1.541 -0.3199 -0.2674  0.4258
  173MOL0     N22721   2.351   0.564   1.590 -0.6665  0.3409  0.1412
  173MOL0     C22722   2.317   0.642   1.697  0.6890 -0.1454  0.3099
  173MOL0     C22723   2.187   0.618   1.709  1.1665  0.6012  0.2734
  173MOL0     C22724   2.093   0.680   1.811 -0.1486 -0.5415 -0.1154
  173MOL0     C22725   1.964   0.741   1.754  0.1034  0.0044 -0.4721
  173MOL0     C22726   1.878   0.795   1.867 -0.0080  0.2067 -0.3955
  173MOL0     C22727   1.749   0.854   1.807 -0.4396  0.2532 -0.8026
  173MOL0     O22728   1.767   0.990   1.755 -0.3791 -0.3342  0.3305
  173MOL0     C22729   1.651   1.060   1.716  0.1941  0.1177 -0.1822
  173MOL0     C22730   1.539   0.992   1.661 -0.2746 -0.4775  0.2299
  173MOL0     C22731   1.429   1.064   1.633 -0.1496 -0.3493  0.5504
  173MOL0     C22732   1.415   1.200   1.656 -0.3778  0.2005 -0.6064
  173MOL0     C22733   1.285   1.272   1.643  0.7146 -0.6269  0.6331
  173MOL0     O22734   1.281   1.410   1.639  0.1943  0.2100 -0.4680
  173MOL0     C22735   1.159   1.479   1.664 -0.0627 -0.6023 -0.1630
  173MOL0     C22736   1.075   1.439   1.766  0.3114 -0.5349  0.5179
  173MOL0     C22737   0.945   1.499   1.788  0.1391 -0.1234 -0.7868
  173MOL0     C22738   0.902   1.609   1.715  1.0010 -0.5468  0.3598
  173MOL0     O22739   0.778   1.674   1.726  0.6538 -0.1724  0.5360
  173MOL0     C22740   0.733   1.707   1.852  0.2438  1.2294 -0.0215
  173MOL0     C22741   0.805   1.840   1.890 -0.3000  0.7877 -0.2859
  173MOL0     C22742   0.713   1.916   1.976 -0.0590  0.7940 -0.7408
  173MOL0     C22743   0.602   1.978   1.901 -0.0288  0.5203  0.2262
  173MOL0     C22744   0.497   2.047   1.994 -0.4369 -0.0960  0.0132
  173MOL0     C22745   0.541   2.194   2.017  0.7304 -0.0602  0.5077
  173MOL0     C22746   0.449   2.280   2.104  0.4469  0.1166 -0.7887
  173MOL0     C22747   0.467   2.255   2.253  0.4778 -0.3575 -0.0252
  173MOL0    Cl22748   0.628   2.315   2.295 -0.7759  0.2545  0.2067
  173MOL0     C22749   0.989   1.657   1.620  0.1385 -0.3264  0.0611
  173MOL0     C22750   1.116   1.598   1.592  0.3211  0.0876  0.3617
  173MOL0     O22751   1.185   1.202   1.634 -0.0378  0.2881  0.3453
  173MOL0     C22752   1.531   1.269   1.701 -0.8213 -0.5701  0.2008
  173MOL0     C22753   1.648   1.197   1.727  0.0884 -0.2051  0.4090
  173MOL0     N22754   2.146   0.521   1.621  0.0653  0.2999  0.3729
  173MOL0     N22755   2.249   0.486   1.556 -0.4148  0.6153 -0.3592
  173MOL0     C22756   1.987   0.610   0.792 -0.0846 -0.5046  0.1677
  173MOL0     C22757   1.847   0.601   0.796  0.7284  0.0805  0.3741
  173MOL0     C22758   1.441   0.630   0.953 -0.1059  0.5268  0.7322
  173MOL0     C22759   1.357   0.654   0.840 -0.6314 -0.5500 -1.1850
  173MOL0     C22760   1.223   0.616   0.852 -0.1294 -0.0625  0.4896
  173MOL0     C22761   1.168   0.584   0.976  0.2765  0.0523 -0.1171
  173MOL0     O22762   1.037   0.567   0.989 -0.4869 -0.1632 -0.3074
  173MOL0     C22763   0.978   0.681   1.057 -0.2873  0.4012 -0.5710
  173MOL0     C22764   0.858   0.652   1.146  0.2531 -0.2040 -0.7596
  173MOL0     C22765   0.796   0.510   1.113 -0.4780 -0.6799  0.0889
  173MOL0     C22766   0.864   0.401   1.206  0.9396  0.2541 -0.0546
  173MOL0     C22767   0.787   0.287   1.189 -1.4631  0.7623 -0.0185
  173MOL0     C22768   0.723   0.192   1.183 -0.2770 -0.5050  0.8761
  173MOL0     C22769   1.248   0.568   1.081 -0.6674  0.0737 -0.6714
  173MOL0     C22770   1.382   0.597   1.075 -1.0274  0.7593 -0.3303
  173MOL0     H22771   1.761   0.924   0.836 -0.0462  1.0168 -4.3111
  173MOL0     H22772   2.018   0.943   0.819 -0.3379  0.5187  2.4511
  173MOL0     H22773   2.279   0.627   0.663 -1.0118 -0.4826  0.6781
  173MOL0     H22774   2.256   0.556   0.824  1.5393 -0.5648 -0.7780
  173MOL0     H22775   2.434   0.769   0.723  1.4712 -1.0194 -0.8021
  173MOL0     H22776   2.489   0.607   0.783  3.2323  1.0410  4.4537
  173MOL0     H22777   2.391   0.829   0.967  0.6429  0.4323 -1.0989
  173MOL0     H22778   2.549   0.757   0.946  0.5329 -4.3706  1.6291
  173MOL0     H22779   2.287   0.662   1.054  0.4141  0.8445  0.0227
  173MOL0     H22780   2.420   0.537   1.023  0.8350  0.1859  0.8197
  173MOL0     H22781   2.448   0.798   1.204  2.3689  0.3104 -0.0733
  173MOL0     H22782   2.570   0.675   1.152  1.3060 -4.0655  4.3244
  173MOL0     H22783   2.434   0.506   1.281  0.3665 -1.1815  1.3158
  173MOL0     H22784   2.313   0.631   1.323  0.2638  3.0228 -2.4815
  173MOL0     H22785   2.603   0.638   1.384 -0.4211 -0.8962 -0.7371
  173MOL0     H22786   2.482   0.751   1.451 -1.6903  0.4933 -2.5782
  173MOL0     H22787   2.555   0.582   1.619 -3.8960  0.2827  3.7832
  173MOL0     H22788   2.498   0.454   1.497 -1.1052  1.2435 -3.7221
  173MOL0     H22789   2.370   0.720   1.751  0.8325  0.9599 -1.3311
  173MOL0     H22790   2.152   0.757   1.861  1.0578 -1.5483  0.0369
  173MOL0     H22791   2.067   0.613   1.893 -1.2933  1.9982  1.7044
  173MOL0     H22792   1.904   0.672   1.695 -1.4391  0.5286  0.4203
  173MOL0     H22793   1.983   0.828   1.691 -2.6387  1.0442  0.0128
  173MOL0     H22794   1.853   0.720   1.942 -3.2468 -2.3307 -3.6610
  173MOL0     H22795   1.930   0.873   1.924 -2.3593  2.0200 -0.5503
  173MOL0     H22796   1.675   0.852   1.888  0.7146  0.0737  0.2714
  173MOL0     H22797   1.714   0.781   1.734 -1.6750 -2.4625  2.2296
  173MOL0     H22798   1.537   0.885   1.644  1.7205 -0.2745 -1.7930
  173MOL0     H22799   1.345   1.026   1.576 -0.9589  0.2686  1.3034
  173MOL0     H22800   1.112   1.353   1.820  0.3320 -2.8585 -2.8974
  173MOL0     H22801   0.880   1.466   1.868  0.3381  2.4787  0.5761
  173MOL0     H22802   0.753   1.631   1.928 -0.1830 -1.2280 -2.2208
  173MOL0     H22803   0.624   1.698   1.856  0.4084 -2.4741 -0.4236
  173MOL0     H22804   0.822   1.882   1.790 -3.0865  0.5872 -0.9297
  173MOL0     H22805   0.905   1.827   1.931  0.4633 -1.8882 -2.6477
  173MOL0     H22806   0.776   1.996   2.015  1.3152 -0.3495 -0.5458
  173MOL0     H22807   0.671   1.860   2.060 -1.0045  0.2691 -1.5362
  173MOL0     H22808   0.647   2.054   1.836 -0.3255 -0.0389 -0.6599
  173MOL0     H22809   0.563   1.901   1.833  1.6503 -1.2116  1.1354
  173MOL0     H22810   0.504   2.002   2.093  0.4134  0.5392  0.2623
  173MOL0     H22811   0.393   2.044   1.960 -0.8312  1.2243  0.9845
  173MOL0     H22812   0.564   2.236   1.918  2.4044 -0.8035  0.5382
  173MOL0     H22813   0.638   2.204   2.068  1.1037  1.7839 -0.4588
  173MOL0     H22814   0.489   2.379   2.079  2.3128 -0.1903  0.8191
  173MOL0     H22815   0.345   2.271   2.070 -0.3673  0.5333  1.4168
  173MOL0     H22816   0.462   2.149   2.278  0.0351 -0.6948 -1.4618
  173MOL0     H22817   0.396   2.311   2.315  0.3807  1.2090 -1.4752
  173MOL0     H22818   0.955   1.751   1.578  2.7643  1.2150  1.1183
  173MOL0     H22819   1.190   1.644   1.527  2.2319 -2.2817  0.6853
  173MOL0     H22820   1.518   1.377   1.708 -2.8333 -0.6478 -1.2693
  173MOL0     H22821   1.738   1.250   1.754 -0.2825 -0.2273  1.7412
  173MOL0     H22822   2.041   0.521   0.760 -3.9460 -3.3879  0.8732
  173MOL0     H22823   1.806   0.503   0.770 -1.0726  1.1382 -1.0257
  173MOL0     H22824   1.407   0.678   0.747  0.5671  1.6929 -0.0359
  173MOL0     H22825   1.163   0.621   0.762 -2.0641 -1.5934  1.6226
  173MOL0     H22826   0.947   0.755   0.983 -2.5483  0.3210  0.2153
  173MOL0     H22827   1.049   0.742   1.113  0.3124  2.6054 -3.5024
  173MOL0     H22828   0.894   0.642   1.249 -3.7258 -0.2852  0.8066
  173MOL0     H22829   0.772   0.721   1.142  1.2356  1.0729 -0.5605
  173MOL0     H22830   0.790   0.482   1.008 -0.0687  1.8049 -0.6631
  173MOL0     H22831   0.690   0.518   1.140 -0.3846 -1.0721  0.5923
  173MOL0     H22832   0.967   0.390   1.168  0.0349 -2.3343 -2.1098
  173MOL0     H22833   0.867   0.428   1.312  0.9677  0.0192  0.0059
  173MOL0     H22834   0.670   0.100   1.199  0.0932 -0.6522  1.2786
  173MOL0     H22835   1.207   0.554   1.180 -0.4948 -2.6630 -0.8912
  173MOL0     H22836   1.442   0.588   1.165 -3.2349 -1.2103  1.0503
  174MOL0     O22837   4.859   3.548   4.843 -0.0767  0.5875  0.9481
  174MOL0     C22838   4.930   3.590   4.750  0.2597 -0.3526  0.7760
  174MOL0     O22839   4.897   3.585   4.616  0.4083 -0.3749  0.6730
  174MOL0     C22840   4.778   3.533   4.570  0.6110  0.2205 -0.1462
  174MOL0     C22841   4.650   3.567   4.632  0.4998  0.2924 -0.2660
  174MOL0     C22842   4.531   3.510   4.589  0.6581  0.1751 -0.2389
  174MOL0     C22843   4.525   3.419   4.478 -0.8281 -1.2005  0.4151
  174MOL0     O22844   4.408   3.359   4.440 -0.4511  0.3755  0.2988
  174MOL0     C22845   4.283   3.431   4.449 -0.0367  0.3109 -0.3596
  174MOL0     C22846   4.196   3.379   4.337 -0.3993  0.4490 -0.8550
  174MOL0     C22847   4.046   3.415   4.359 -0.3502  0.0572 -1.4280
  174MOL0     C22848   3.968   3.364   4.236  0.1758 -0.2892 -0.1449
  174MOL0     C22849   3.905   3.228   4.264 -0.2636 -0.6221 -0.6646
  174MOL0     C22850   3.842   3.158   4.141 -0.8373  0.6374  0.6417
  174MOL0     C22851   3.752   3.041   4.180 -0.4612 -0.0372 -0.3226
  174MOL0     C22852   3.694   2.985   4.049 -0.7308  0.3731 -0.9175
  174MOL0     N22853   3.602   2.871   4.074 -0.3279 -0.5650  0.0479
  174MOL0     C22854   3.473   2.888   4.121 -0.2692  0.0586  0.6625
  174MOL0     C22855   3.427   2.761   4.149 -0.7595 -0.0464  0.5853
  174MOL0     C22856   3.282   2.726   4.187  0.9204  0.2246 -0.7388
  174MOL0     C22857   3.232   2.614   4.092 -0.8530 -0.8021  0.4677
  174MOL0     C22858   3.082   2.602   4.087  0.5946  0.4852 -0.0417
  174MOL0     C22859   3.025   2.558   4.218  0.6609 -0.1071  0.3811
  174MOL0     O22860   2.889   2.612   4.235  0.3388 -0.1892  0.8648
  174MOL0     C22861   2.787   2.540   4.294  0.3042  0.3971  0.5769
  174MOL0     C22862   2.803   2.413   4.352 -0.5694 -0.1878  0.4979
  174MOL0     C22863   2.698   2.344   4.407  0.9174 -0.1122 -0.9810
  174MOL0     C22864   2.572   2.408   4.408  0.2778 -0.4820 -0.8187
  174MOL0     C22865   2.461   2.343   4.472 -0.7421 -0.6322  0.0238
  174MOL0     O22866   2.480   2.267   4.588  0.4939 -0.3720  0.5476
  174MOL0     C22867   2.382   2.205   4.654 -0.1786  0.3404  0.0495
  174MOL0     C22868   2.244   2.245   4.661  0.0978 -0.0942  0.0725
  174MOL0     C22869   2.151   2.168   4.733 -0.5274 -0.0466 -0.6093
  174MOL0     C22870   2.183   2.048   4.805 -0.1790 -0.6395  0.1802
  174MOL0     O22871   2.095   1.973   4.878 -0.5813 -0.0453  0.2587
  174MOL0     C22872   2.012   2.050   4.962  0.3048 -0.4490  0.0839
  174MOL0     C22873   1.980   1.964   5.083 -0.3649  0.7136 -0.9277
  174MOL0     C22874   1.900   1.837   5.048 -0.6143 -0.2973 -0.3057
  174MOL0     C22875   1.751   1.838   5.089 -0.9038  0.4698 -0.1222
  174MOL0     C22876   1.685   1.705   5.061  0.0867  0.4234 -0.3299
  174MOL0     C22877   1.745   1.587   5.145 -0.3010  0.3749  0.5353
  174MOL0     C22878   1.770   1.621   5.296  0.9678 -0.1755  0.0559
  174MOL0     C22879   1.803   1.508   5.390 -0.5161 -0.0584  0.8975
  174MOL0    Cl22880   1.687   1.382   5.375 -0.0236 -0.0454  0.3472
  174MOL0     C22881   2.319   2.015   4.807  0.6422 -0.6558  0.2511
  174MOL0     C22882   2.414   2.091   4.734  0.1791  0.9694  0.3544
  174MOL0     O22883   2.359   2.350   4.398  0.9159  0.4469 -0.6786
  174MOL0     C22884   2.553   2.535   4.352  0.1896  0.1214  0.0878
  174MOL0     C22885   2.661   2.594   4.289  0.3750  0.3871 -0.7232
  174MOL0     N22886   3.525   2.674   4.111  0.2485 -0.1981 -0.1471
  174MOL0     N22887   3.629   2.741   4.067  0.2066 -0.3655  0.8047
  174MOL0     C22888   4.645   3.389   4.416  0.4586 -0.5943  0.4226
  174MOL0     C22889   4.768   3.449   4.460  0.0260  0.3725  0.8372
  174MOL0     C22890   5.063   3.642   4.794 -0.9372 -0.9366  0.2826
  174MOL0     C22891   5.155   3.676   4.693  0.0908  0.2506 -0.1616
  174MOL0     C22892   5.278   3.740   4.730  0.1560 -0.4143 -0.5853
  174MOL0     C22893   5.315   3.762   4.866  0.8663  1.1336 -0.7590
  174MOL0     O22894   5.424   3.830   4.921 -0.1958  0.3645  0.4631
  174MOL0     C22895   5.509   3.925   4.848  0.4085  0.6714 -0.0240
  174MOL0     C22896   5.548   4.012   4.973  0.1150 -1.0222  0.1491
  174MOL0     C22897   5.663   3.954   5.039 -0.4006 -0.4013 -0.1982
  174MOL0     C22898   5.718   4.049   5.142 -0.2382  0.0628 -0.0221
  174MOL0     C22899   5.855   4.019   5.181  0.5438 -0.4200 -0.3611
  174MOL0     C22900   5.970   4.040   5.213 -0.7036  1.0840  0.4431
  174MOL0     C22901   5.219   3.714   4.954  0.4195  0.2661  0.1004
  174MOL0     C22902   5.094   3.660   4.923  0.6913  0.0949  0.4868
  174MOL0     H22903   4.649   3.636   4.715  2.5167  1.6920 -1.3468
  174MOL0     H22904   4.435   3.532   4.634  0.0190 -0.7858 -1.0654
  174MOL0     H22905   4.286   3.540   4.443 -1.0458  0.3525 -0.3525
  174MOL0     H22906   4.233   3.400   4.541 -2.1439  2.7568 -0.5706
  174MOL0     H22907   4.219   3.273   4.341  1.2469  0.7985  0.1729
  174MOL0     H22908   4.230   3.403   4.236 -3.5211 -2.1184 -2.6982
  174MOL0     H22909   4.040   3.524   4.362  0.3190  0.0881 -0.9663
  174MOL0     H22910   4.011   3.372   4.454 -0.1552  0.9044 -0.9557
  174MOL0     H22911   3.887   3.430   4.206 -1.7963 -1.3222  2.4752
  174MOL0     H22912   4.037   3.337   4.156  1.8692 -5.6843  2.5963
  174MOL0     H22913   3.828   3.247   4.339 -0.2170 -1.8007 -0.3086
  174MOL0     H22914   3.980   3.164   4.310  0.3293  0.6641  0.1948
  174MOL0     H22915   3.926   3.122   4.081 -0.7291  1.3599  0.3553
  174MOL0     H22916   3.782   3.230   4.086 -0.3548 -0.7826 -1.9394
  174MOL0     H22917   3.798   2.961   4.238 -1.0494  0.8848  1.4851
  174MOL0     H22918   3.666   3.073   4.239 -0.0237 -0.8633  0.7739
  174MOL0     H22919   3.777   2.944   3.990  0.9806  1.8261  0.3764
  174MOL0     H22920   3.638   3.068   4.006  0.5273  2.5868  1.4383
  174MOL0     H22921   3.423   2.980   4.150 -0.2994  0.0487  0.6426
  174MOL0     H22922   3.224   2.816   4.165  0.6473 -0.1885 -1.7964
  174MOL0     H22923   3.293   2.700   4.292  1.3175  3.1023 -0.0088
  174MOL0     H22924   3.286   2.523   4.120  0.6281 -0.3036 -0.6132
  174MOL0     H22925   3.258   2.634   3.988  1.9113 -1.7282  0.8945
  174MOL0     H22926   3.048   2.705   4.073  0.7101  0.7819  1.6603
  174MOL0     H22927   3.041   2.536   4.009  0.2861 -0.2397  0.7209
  174MOL0     H22928   3.089   2.594   4.299  2.5591 -2.8740  0.2454
  174MOL0     H22929   3.028   2.449   4.225 -1.9116 -0.3252 -0.7027
  174MOL0     H22930   2.901   2.365   4.356 -1.6966 -2.6576  0.6401
  174MOL0     H22931   2.713   2.237   4.420  0.4201 -0.8994 -5.3944
  174MOL0     H22932   2.201   2.330   4.610  0.0790 -0.1766 -0.0496
  174MOL0     H22933   2.047   2.199   4.720 -1.0131 -1.9026 -1.3735
  174MOL0     H22934   1.921   2.086   4.913  1.7371  0.6669 -1.9140
  174MOL0     H22935   2.058   2.136   5.011 -0.4286 -0.6005  1.0454
  174MOL0     H22936   1.913   2.022   5.147 -0.1816 -2.1223  2.1684
  174MOL0     H22937   2.073   1.947   5.137  0.5387  1.3461 -2.2473
  174MOL0     H22938   1.959   1.759   5.097  0.4162  2.5217  3.3685
  174MOL0     H22939   1.908   1.808   4.943 -1.6145 -2.1282  0.0637
  174MOL0     H22940   1.740   1.876   5.191 -2.0356 -1.3779  0.5072
  174MOL0     H22941   1.686   1.900   5.026 -1.9115  0.4873  0.8977
  174MOL0     H22942   1.695   1.685   4.953 -1.3005 -0.6689 -0.2902
  174MOL0     H22943   1.580   1.718   5.089 -0.1758 -1.5667 -0.2295
  174MOL0     H22944   1.841   1.566   5.097 -0.6378  3.0009 -1.5101
  174MOL0     H22945   1.681   1.499   5.134  1.1271 -0.3880 -2.4616
  174MOL0     H22946   1.847   1.698   5.307  0.1661  0.5861  0.4715
  174MOL0     H22947   1.684   1.670   5.342  1.0901  0.2414 -0.1520
  174MOL0     H22948   1.823   1.544   5.491  0.5444  2.9775 -0.2703
  174MOL0     H22949   1.897   1.462   5.357 -0.8447 -1.1459  1.4232
  174MOL0     H22950   2.353   1.935   4.872 -0.7040 -2.0915 -0.7283
  174MOL0     H22951   2.518   2.061   4.729 -0.5569 -1.8466  0.3790
  174MOL0     H22952   2.458   2.589   4.345  0.8488  1.5831  1.5861
  174MOL0     H22953   2.650   2.690   4.238  0.1261  2.0442  2.2485
  174MOL0     H22954   4.639   3.308   4.344 -2.8085 -0.0860 -0.0153
  174MOL0     H22955   4.867   3.425   4.420  0.3251 -0.0007  1.7690
  174MOL0     H22956   5.134   3.667   4.587 -2.8325  2.7379  0.0544
  174MOL0     H22957   5.342   3.779   4.652  0.0577  1.5646  0.2613
  174MOL0     H22958   5.459   3.986   4.772 -1.8770  1.8157  2.2490
  174MOL0     H22959   5.583   3.863   4.797 -1.3642 -1.6283  0.0407
  174MOL0     H22960   5.566   4.109   4.927 -0.0047 -0.8652  0.4318
  174MOL0     H22961   5.466   4.036   5.041 -2.1426  0.7834 -2.9494
  174MOL0     H22962   5.743   3.938   4.966  0.2049 -1.8286  0.7586
  174MOL0     H22963   5.636   3.860   5.087 -1.1959 -0.3409 -0.5076
  174MOL0     H22964   5.710   4.150   5.101  2.1653  0.0395 -0.6998
  174MOL0     H22965   5.657   4.050   5.233  0.9912  1.8235  0.8399
  174MOL0     H22966   6.074   4.048   5.238 -0.3358  1.1648 -1.0103
  174MOL0     H22967   5.231   3.735   5.060  3.3008  1.3809 -0.3516
  174MOL0     H22968   5.021   3.639   5.001 -0.1323 -0.0674 -0.3006
  175MOL0     O22969   1.059   2.358   9.053 -0.2707  0.7123 -0.0882
  175MOL0     C22970   1.044   2.386   8.935 -0.3912  0.8046  0.1684
  175MOL0     O22971   1.145   2.398   8.838 -0.1244  0.2806 -0.2907
  175MOL0     C22972   1.276   2.374   8.868 -0.6859  0.4521  0.0680
  175MOL0     C22973   1.341   2.367   8.996 -0.4108  0.1581  0.0598
  175MOL0     C22974   1.477   2.347   9.011 -0.9689  0.6391  0.3029
  175MOL0     C22975   1.561   2.346   8.898 -1.0679  0.0543  0.2857
  175MOL0     O22976   1.694   2.313   8.921 -0.0760  0.2197  0.0341
  175MOL0     C22977   1.752   2.196   8.862  0.3950 -0.0842  0.4103
  175MOL0     C22978   1.876   2.242   8.782  1.0449 -0.1100 -0.7692
  175MOL0     C22979   1.957   2.122   8.741 -0.6285  0.6689  2.0020
  175MOL0     C22980   2.080   2.173   8.647 -0.2792 -0.2759 -0.3618
  175MOL0     C22981   2.165   2.054   8.589 -0.1253 -0.1985  0.1623
  175MOL0     C22982   2.075   1.942   8.517  0.8297  1.2127  0.3545
  175MOL0     C22983   2.151   1.823   8.475  0.1687 -0.3523  0.3129
  175MOL0     C22984   2.065   1.716   8.407 -0.2553 -1.0649  0.3823
  175MOL0     N22985   1.974   1.654   8.503 -0.1904  0.0712  0.2538
  175MOL0     C22986   2.017   1.550   8.578  0.6148 -0.9596 -0.2520
  175MOL0     C22987   1.911   1.503   8.653 -1.6206  0.2405 -0.3173
  175MOL0     C22988   1.938   1.385   8.739 -0.1838 -0.1767 -0.4025
  175MOL0     C22989   1.823   1.352   8.837 -0.7587 -1.2177  0.8323
  175MOL0     C22990   1.686   1.303   8.767 -0.3407 -0.0223  0.2667
  175MOL0     C22991   1.572   1.293   8.868  0.3406  0.0264  0.6356
  175MOL0     O22992   1.538   1.416   8.931 -0.7869 -0.6241 -0.6688
  175MOL0     C22993   1.432   1.432   9.020 -0.2716  0.1948 -0.1658
  175MOL0     C22994   1.421   1.552   9.091  0.1029  0.2068 -0.2099
  175MOL0     C22995   1.321   1.572   9.187 -0.5631 -0.0794  0.9572
  175MOL0     C22996   1.226   1.471   9.213  0.4677  0.4050  0.1959
  175MOL0     C22997   1.110   1.477   9.305 -0.0372 -0.0184 -0.1343
  175MOL0     O22998   1.009   1.383   9.279  0.0940  0.3820  0.2131
  175MOL0     C22999   0.884   1.405   9.320 -0.9484 -0.1766 -0.4200
  175MOL0     C23000   0.811   1.297   9.372  0.2885  0.6601  0.5361
  175MOL0     C23001   0.675   1.306   9.408 -0.0546 -0.7985  0.0272
  175MOL0     C23002   0.609   1.430   9.382 -0.0982  0.0215 -0.3838
  175MOL0     O23003   0.477   1.445   9.396  0.5637 -0.3776  0.2319
  175MOL0     C23004   0.392   1.329   9.381  0.5492  0.6513  0.5732
  175MOL0     C23005   0.241   1.373   9.384  0.1443  0.4209  0.3331
  175MOL0     C23006   0.192   1.418   9.521 -0.2782 -0.0244 -0.0169
  175MOL0     C23007   0.044   1.450   9.540  0.7775 -0.0001 -0.0269
  175MOL0     C23008  -0.042   1.330   9.530 -0.6492 -0.3789  0.6543
  175MOL0     C23009  -0.181   1.364   9.573  0.5381  0.4547  0.4964
  175MOL0     C23010  -0.282   1.257   9.528 -0.7319  0.3765  0.7362
  175MOL0     C23011  -0.427   1.306   9.581  0.2747  0.4839 -0.8779
  175MOL0    Cl23012  -0.541   1.190   9.510  0.2924  0.3808 -0.1539
  175MOL0     C23013   0.681   1.532   9.329 -0.7775 -0.0249  0.1685
  175MOL0     C23014   0.822   1.519   9.288  0.7232 -0.7221  0.5024
  175MOL0     O23015   1.101   1.555   9.398  0.3904 -0.4528  0.3301
  175MOL0     C23016   1.248   1.341   9.154 -0.0246  0.6374  0.5636
  175MOL0     C23017   1.345   1.326   9.051 -0.1199 -0.1154  0.4078
  175MOL0     N23018   1.809   1.600   8.626 -0.0992  0.2241 -0.3086
  175MOL0     N23019   1.846   1.683   8.535 -0.2741  0.5475  0.3361
  175MOL0     C23020   1.504   2.356   8.765 -0.1704  0.2411  0.2396
  175MOL0     C23021   1.362   2.376   8.755 -0.7689 -0.1497  0.1786
  175MOL0     C23022   0.900   2.388   8.888 -0.0372 -0.6152 -0.3302
  175MOL0     C23023   0.795   2.407   8.980 -0.4605  0.3854 -0.8538
  175MOL0     C23024   0.655   2.414   8.939 -0.8245 -0.5942 -0.5150
  175MOL0     C23025   0.631   2.401   8.806 -1.0612 -0.6267  0.9140
  175MOL0     O23026   0.509   2.396   8.746 -0.4965 -0.4529  0.1899
  175MOL0     C23027   0.406   2.334   8.830  0.3179 -0.9957  0.1940
  175MOL0     C23028   0.296   2.288   8.737 -0.2451  0.1547  0.6129
  175MOL0     C23029   0.179   2.225   8.811  0.0468  0.1945 -0.9654
  175MOL0     C23030   0.091   2.152   8.718  1.0795 -0.6764 -0.0865
  175MOL0     C23031   0.011   2.058   8.795  0.5905 -0.3018  0.2010
  175MOL0     C23032  -0.065   1.983   8.861 -0.7197  0.4095  0.2075
  175MOL0     C23033   0.732   2.390   8.712 -0.1727 -0.1674 -0.4761
  175MOL0     C23034   0.864   2.392   8.754  0.1822 -0.6967 -0.2346
  175MOL0     H23035   1.279   2.374   9.085 -1.4736 -0.9189 -0.5731
  175MOL0     H23036   1.517   2.361   9.111 -1.9377  1.2242  0.6279
  175MOL0     H23037   1.689   2.150   8.785  0.8870 -2.5563  1.4120
  175MOL0     H23038   1.774   2.122   8.938 -0.7565 -0.6018  0.2671
  175MOL0     H23039   1.932   2.305   8.852  1.7945 -0.0084 -1.4481
  175MOL0     H23040   1.842   2.300   8.696  2.0526 -1.0857 -1.8605
  175MOL0     H23041   1.888   2.056   8.687  0.1557  0.2607  1.4865
  175MOL0     H23042   1.996   2.069   8.828  2.9494  1.8131  1.2456
  175MOL0     H23043   2.033   2.237   8.572  1.4712  2.5135  0.7759
  175MOL0     H23044   2.149   2.235   8.704  0.8416 -1.7204 -0.0870
  175MOL0     H23045   2.232   1.998   8.655 -0.9285 -3.6461 -1.6857
  175MOL0     H23046   2.234   2.088   8.511 -0.5078 -0.5746 -0.3426
  175MOL0     H23047   2.020   1.978   8.430 -0.3130  2.2420  1.4596
  175MOL0     H23048   1.996   1.915   8.588  0.0494  1.1882 -0.5072
  175MOL0     H23049   2.219   1.874   8.405 -1.6954  0.0785 -1.2658
  175MOL0     H23050   2.207   1.789   8.563  0.2800  1.7666  1.1118
  175MOL0     H23051   2.127   1.639   8.361  0.2919  0.0743 -0.8402
  175MOL0     H23052   2.011   1.756   8.321  0.3511 -0.8144  0.1099
  175MOL0     H23053   2.118   1.510   8.576  0.6525 -0.9796 -4.2332
  175MOL0     H23054   2.030   1.402   8.795 -1.3251 -0.7573  1.7861
  175MOL0     H23055   1.958   1.301   8.673  4.5419  1.2077 -1.1100
  175MOL0     H23056   1.802   1.443   8.894 -2.9322 -1.7212  0.9206
  175MOL0     H23057   1.858   1.273   8.904 -1.4518  0.4959  3.3707
  175MOL0     H23058   1.661   1.374   8.689 -1.0301 -0.3197  0.2065
  175MOL0     H23059   1.706   1.205   8.721  0.3157  0.6722 -0.9708
  175MOL0     H23060   1.591   1.214   8.942 -0.9900 -0.8940  0.0158
  175MOL0     H23061   1.490   1.252   8.810  1.4470 -2.6633  0.8295
  175MOL0     H23062   1.500   1.619   9.057  1.1752 -1.3013 -0.8267
  175MOL0     H23063   1.319   1.665   9.242  4.1574  0.3832  0.7137
  175MOL0     H23064   0.861   1.202   9.382  2.5534  1.5095 -1.6894
  175MOL0     H23065   0.616   1.225   9.450  1.1695 -2.8565 -1.9674
  175MOL0     H23066   0.408   1.263   9.467 -1.0066  0.8114  1.0167
  175MOL0     H23067   0.417   1.288   9.283 -0.6171 -1.3777  1.0573
  175MOL0     H23068   0.178   1.291   9.350 -0.1836  0.8308 -0.0547
  175MOL0     H23069   0.237   1.451   9.308  0.4755 -0.7362 -0.9194
  175MOL0     H23070   0.244   1.510   9.550 -2.2221  1.4757 -1.1040
  175MOL0     H23071   0.234   1.342   9.589  0.4475 -0.6657 -1.1557
  175MOL0     H23072   0.035   1.490   9.642 -1.8287  0.3936 -0.3365
  175MOL0     H23073   0.020   1.529   9.469 -0.8365 -1.4909 -1.2303
  175MOL0     H23074   0.006   1.255   9.594 -1.2715 -0.6914  0.7582
  175MOL0     H23075  -0.033   1.288   9.429 -1.6082  1.4354 -0.2298
  175MOL0     H23076  -0.203   1.462   9.531  0.0181  1.5992  3.2154
  175MOL0     H23077  -0.185   1.380   9.681  1.0141  1.0051  0.4356
  175MOL0     H23078  -0.286   1.256   9.418  3.3828 -2.7774  0.3518
  175MOL0     H23079  -0.249   1.160   9.566 -0.1515  0.3307  0.1370
  175MOL0     H23080  -0.452   1.402   9.536  0.4858 -0.1290 -2.3727
  175MOL0     H23081  -0.433   1.305   9.690 -0.1956  1.5488 -0.8898
  175MOL0     H23082   0.628   1.625   9.311 -3.2344 -1.6358 -1.6231
  175MOL0     H23083   0.879   1.599   9.240  2.3757 -1.5066  1.0813
  175MOL0     H23084   1.196   1.248   9.171 -0.6577  0.3230 -2.4448
  175MOL0     H23085   1.360   1.227   9.009  1.5089 -0.0263  0.7149
  175MOL0     H23086   1.569   2.364   8.679  0.9905  1.6511  1.2110
  175MOL0     H23087   1.318   2.395   8.658 -0.0731 -0.0371 -0.1224
  175MOL0     H23088   0.829   2.423   9.082 -1.3230  2.4622 -0.8398
  175MOL0     H23089   0.575   2.415   9.011 -1.5485 -1.4711 -1.2859
  175MOL0     H23090   0.374   2.411   8.901 -2.6114 -0.3580 -1.6210
  175MOL0     H23091   0.440   2.252   8.894 -0.5984 -0.8390  0.9077
  175MOL0     H23092   0.260   2.363   8.666 -2.7568 -0.6834  0.9090
  175MOL0     H23093   0.346   2.218   8.668 -0.2132  0.0481  0.7444
  175MOL0     H23094   0.113   2.293   8.864  0.5349 -0.3756  0.4172
  175MOL0     H23095   0.214   2.154   8.886 -1.5135  1.6215  1.2212
  175MOL0     H23096   0.031   2.218   8.655  2.8529  0.4540 -0.6635
  175MOL0     H23097   0.150   2.098   8.644  0.6375  0.3802 -1.2499
  175MOL0     H23098  -0.125   1.914   8.916  1.0136 -1.6435 -0.3696
  175MOL0     H23099   0.711   2.390   8.606 -1.1638  0.9338 -0.3048
  175MOL0     H23100   0.934   2.384   8.672 -2.1074  0.9200 -2.5160
  176MOL0     O23101   9.632   3.813   1.565  0.5216  0.1924 -0.1380
  176MOL0     C23102   9.713   3.720   1.568  0.2903 -0.2129 -1.5343
  176MOL0     O23103   9.680   3.596   1.603 -0.1492  0.1324  0.6157
  176MOL0     C23104   9.548   3.572   1.628 -0.3146  0.5445 -0.9794
  176MOL0     C23105   9.503   3.621   1.751  0.1712 -0.1831 -0.0440
  176MOL0     C23106   9.366   3.601   1.779 -0.5579 -0.6413  0.5160
  176MOL0     C23107   9.291   3.526   1.692  0.9002 -0.3678  0.4671
  176MOL0     O23108   9.166   3.503   1.740  0.1067  0.4889 -0.7544
  176MOL0     C23109   9.058   3.556   1.671 -1.4345  1.1218  0.1313
  176MOL0     C23110   8.940   3.483   1.699 -0.1275 -0.4141 -0.0032
  176MOL0     C23111   8.934   3.342   1.621  0.2075 -0.1430 -0.0050
  176MOL0     C23112   8.794   3.286   1.645 -0.1122  0.5059 -1.1027
  176MOL0     C23113   8.757   3.161   1.574 -0.5238  0.8547  0.7072
  176MOL0     C23114   8.767   3.163   1.423  0.7178  0.6030 -0.0780
  176MOL0     C23115   8.668   3.063   1.354 -0.1521 -0.0331  0.2552
  176MOL0     C23116   8.589   3.136   1.244 -0.5009 -0.4859  0.3117
  176MOL0     N23117   8.478   3.214   1.302 -0.6091 -0.0482  0.5152
  176MOL0     C23118   8.358   3.152   1.343 -0.3184  0.3277 -0.5639
  176MOL0     C23119   8.287   3.263   1.389  0.5920  0.6020 -0.6504
  176MOL0     C23120   8.165   3.243   1.475  0.0048 -0.3847 -0.1662
  176MOL0     C23121   8.028   3.311   1.434 -0.5891  0.3159 -0.3025
  176MOL0     C23122   7.933   3.320   1.553 -0.5419 -0.3174 -0.4801
  176MOL0     C23123   7.928   3.460   1.627 -0.0866  0.6632 -0.2567
  176MOL0     O23124   7.878   3.452   1.765 -0.1122 -0.3468 -0.1868
  176MOL0     C23125   7.746   3.436   1.787 -0.2599 -0.4430  0.1121
  176MOL0     C23126   7.718   3.423   1.918  0.2404 -0.0388 -0.1040
  176MOL0     C23127   7.594   3.385   1.965 -0.0528 -0.9557  0.2353
  176MOL0     C23128   7.487   3.373   1.876  0.1096 -0.1125  0.0141
  176MOL0     C23129   7.362   3.313   1.923  0.5258 -0.6887 -0.1758
  176MOL0     O23130   7.356   3.264   2.051 -0.6559 -0.0442 -0.1178
  176MOL0     C23131   7.242   3.202   2.093 -0.7668  0.6403 -0.6741
  176MOL0     C23132   7.162   3.254   2.197 -0.2826  0.3779  0.3492
  176MOL0     C23133   7.050   3.177   2.243  0.3821 -0.9076  0.0449
  176MOL0     C23134   6.996   3.072   2.170  0.2007  0.2507  1.5552
  176MOL0     O23135   6.888   2.996   2.200  0.0051  0.3602 -0.2391
  176MOL0     C23136   6.813   3.018   2.323  0.6844  0.0267  0.8525
  176MOL0     C23137   6.673   2.959   2.301  0.3940 -0.8020  0.8051
  176MOL0     C23138   6.596   2.939   2.435  0.2941 -0.3205  0.2866
  176MOL0     C23139   6.448   2.909   2.416 -1.0079  0.4273  0.1753
  176MOL0     C23140   6.376   2.902   2.542  0.0159  0.2899 -0.5850
  176MOL0     C23141   6.230   2.861   2.516  0.2092  0.2877  0.2105
  176MOL0     C23142   6.146   2.936   2.613  0.7464 -0.0648 -0.8555
  176MOL0     C23143   5.998   2.894   2.616  0.6178  0.2285 -0.2523
  176MOL0    Cl23144   5.906   2.989   2.737  0.2651 -0.0115 -0.0233
  176MOL0     C23145   7.079   3.019   2.070 -0.3464  0.4691 -0.0616
  176MOL0     C23146   7.198   3.079   2.041 -0.6661 -0.4289  0.6571
  176MOL0     O23147   7.284   3.295   1.832  0.6327 -0.5375  0.3186
  176MOL0     C23148   7.513   3.396   1.742 -0.0660  0.2774 -0.2600
  176MOL0     C23149   7.641   3.414   1.697 -0.4080 -0.6721  0.6310
  176MOL0     N23150   8.360   3.374   1.370  0.2325 -0.2971 -0.4434
  176MOL0     N23151   8.477   3.349   1.324  0.0334 -0.1474  0.7855
  176MOL0     C23152   9.339   3.473   1.573  0.5299 -0.4923  0.1565
  176MOL0     C23153   9.471   3.507   1.543  0.2157  0.3016  0.5885
  176MOL0     C23154   9.850   3.748   1.517 -0.5638 -0.1619 -1.0480
  176MOL0     C23155   9.946   3.656   1.570 -0.3018 -0.8758 -0.1044
  176MOL0     C23156  10.073   3.662   1.515 -0.3013 -0.0682 -0.3060
  176MOL0     C23157  10.106   3.760   1.418  0.2290  0.1112 -1.0174
  176MOL0     O23158  10.221   3.758   1.341 -0.2900 -0.1008 -0.0231
  176MOL0     C23159  10.312   3.649   1.356 -0.6083  0.5912 -0.0993
  176MOL0     C23160  10.446   3.661   1.284  0.0815  0.9429 -0.2895
  176MOL0     C23161  10.544   3.543   1.314 -0.4521 -0.0079 -0.2818
  176MOL0     C23162  10.675   3.547   1.241 -0.6844 -0.9151  0.0309
  176MOL0     C23163  10.753   3.429   1.255 -0.0188  0.2887 -0.6363
  176MOL0     C23164  10.823   3.331   1.266  0.3408  0.2144  1.0357
  176MOL0     C23165  10.016   3.859   1.385 -0.4304 -0.2830  0.2393
  176MOL0     C23166   9.887   3.863   1.448 -0.1139  0.4487  0.3973
  176MOL0     H23167   9.563   3.668   1.827  0.8900  3.1027 -2.4276
  176MOL0     H23168   9.319   3.631   1.872  2.0572  1.6832  1.2018
  176MOL0     H23169   9.077   3.563   1.564 -0.7045  1.2807  0.2613
  176MOL0     H23170   9.055   3.657   1.713  0.2001  0.5170  1.8876
  176MOL0     H23171   8.855   3.546   1.670 -1.7237 -2.1467  0.7125
  176MOL0     H23172   8.925   3.467   1.806 -1.2007 -5.5180 -0.6753
  176MOL0     H23173   9.019   3.285   1.659 -0.5171 -2.2094 -1.3554
  176MOL0     H23174   8.952   3.358   1.515 -3.1506 -0.4836 -0.7149
  176MOL0     H23175   8.774   3.264   1.751 -3.4775  1.6878 -1.4015
  176MOL0     H23176   8.713   3.354   1.617  0.5375  1.0852 -1.6014
  176MOL0     H23177   8.651   3.151   1.597 -0.3021 -1.5216  0.8860
  176MOL0     H23178   8.807   3.071   1.613 -3.3193 -0.5332  1.3515
  176MOL0     H23179   8.869   3.138   1.394  0.0414 -1.8879 -0.5554
  176MOL0     H23180   8.744   3.264   1.387  2.1917  1.2854  0.7883
  176MOL0     H23181   8.735   2.992   1.304 -1.7261 -2.3813  1.2790
  176MOL0     H23182   8.614   3.008   1.432 -1.3166  0.4203 -0.2113
  176MOL0     H23183   8.535   3.060   1.187 -2.9920  2.9484 -2.4058
  176MOL0     H23184   8.654   3.197   1.181  0.5041 -0.3328  1.4601
  176MOL0     H23185   8.341   3.046   1.357  0.1402  0.3603  0.3029
  176MOL0     H23186   8.187   3.284   1.574 -2.4118  1.6185 -0.3658
  176MOL0     H23187   8.150   3.135   1.485  0.5427 -0.5296 -0.8057
  176MOL0     H23188   7.994   3.240   1.358  2.1492 -0.4569 -0.9286
  176MOL0     H23189   8.041   3.415   1.404 -1.1114  0.6167  0.4673
  176MOL0     H23190   7.827   3.302   1.530 -0.9435  0.0130  0.9932
  176MOL0     H23191   7.964   3.243   1.625 -2.3543 -0.7889 -0.1549
  176MOL0     H23192   7.864   3.534   1.578 -1.3179 -0.4552 -0.3588
  176MOL0     H23193   8.022   3.517   1.635 -0.3783  0.8321  4.0297
  176MOL0     H23194   7.797   3.429   1.992  2.3682 -0.1149 -2.2527
  176MOL0     H23195   7.581   3.384   2.072 -1.6332  2.5101  0.1968
  176MOL0     H23196   7.187   3.345   2.250  0.6343 -0.1520  0.8563
  176MOL0     H23197   6.999   3.210   2.333  1.7253  0.8867  0.2108
  176MOL0     H23198   6.804   3.127   2.318  0.7490  0.0405  1.0164
  176MOL0     H23199   6.865   2.973   2.408  0.0735 -2.8618 -0.1903
  176MOL0     H23200   6.682   2.867   2.242  0.3000 -1.4210  1.7353
  176MOL0     H23201   6.624   3.037   2.241  2.2403  1.5176  2.1565
  176MOL0     H23202   6.626   3.029   2.488  1.6292 -0.4297 -0.2303
  176MOL0     H23203   6.637   2.857   2.494 -1.6961  0.2780  2.6761
  176MOL0     H23204   6.400   2.982   2.351 -2.3129 -0.5407  0.0298
  176MOL0     H23205   6.435   2.808   2.375  1.8582 -2.0843  4.5450
  176MOL0     H23206   6.379   3.002   2.586  0.5168 -1.0189  2.5937
  176MOL0     H23207   6.431   2.833   2.606 -0.7785  1.2418  1.1961
  176MOL0     H23208   6.204   2.755   2.526 -0.2212  0.1862 -1.5452
  176MOL0     H23209   6.197   2.883   2.414 -0.2272 -0.4055  0.1923
  176MOL0     H23210   6.189   2.924   2.714 -0.0695 -0.7548 -0.5810
  176MOL0     H23211   6.144   3.038   2.574  0.7113 -0.9112 -3.1615
  176MOL0     H23212   5.976   2.792   2.648  0.8178 -0.2564 -1.5815
  176MOL0     H23213   5.945   2.907   2.521 -2.3432  0.9996  1.3917
  176MOL0     H23214   7.065   2.922   2.024  4.3468 -0.5520  0.1369
  176MOL0     H23215   7.258   3.021   1.972 -0.3364 -0.8587  1.2963
  176MOL0     H23216   7.436   3.373   1.669 -0.7263  0.6505  0.3151
  176MOL0     H23217   7.654   3.410   1.590  1.0513 -2.2556  0.8191
  176MOL0     H23218   9.270   3.423   1.505 -0.9261  1.3932  0.1560
  176MOL0     H23219   9.526   3.473   1.457 -1.3159 -1.1343  0.1194
  176MOL0     H23220   9.921   3.574   1.636  2.0323 -0.2139  1.7537
  176MOL0     H23221  10.145   3.597   1.562  0.5203  1.7854  1.1180
  176MOL0     H23222  10.253   3.565   1.318 -0.1181  0.2630 -0.1489
  176MOL0     H23223  10.329   3.640   1.464 -2.7472 -1.0676  0.1720
  176MOL0     H23224  10.414   3.652   1.180 -1.1329  1.0038  0.0630
  176MOL0     H23225  10.496   3.753   1.317  2.8319 -1.3552  2.5229
  176MOL0     H23226  10.499   3.444   1.305 -1.0257  0.1271  0.9500
  176MOL0     H23227  10.568   3.545   1.420  0.8883 -1.4435 -0.5203
  176MOL0     H23228  10.667   3.580   1.137  0.1795  1.3703  0.6137
  176MOL0     H23229  10.726   3.633   1.286 -0.1967 -0.8296 -0.6607
  176MOL0     H23230  10.894   3.251   1.264 -0.4841 -0.5394  0.8719
  176MOL0     H23231  10.047   3.926   1.306 -0.6697 -1.5413 -0.9560
  176MOL0     H23232   9.819   3.933   1.403  1.6599  1.6830 -0.4610
  177MOL0     O23233   6.332   4.654  10.702  0.7964 -0.0795  0.0828
  177MOL0     C23234   6.395   4.683  10.801 -0.8577  0.2484 -0.1585
  177MOL0     O23235   6.350   4.749  10.911  0.3767 -0.1062 -0.0431
  177MOL0     C23236   6.227   4.805  10.913  0.0562 -0.3321 -0.3817
  177MOL0     C23237   6.108   4.751  10.873  0.0044  0.2385  0.6736
  177MOL0     C23238   5.980   4.803  10.917  0.3137  0.0607  0.6895
  177MOL0     C23239   5.976   4.928  10.985  0.0050  1.2475  0.8834
  177MOL0     O23240   5.867   4.992  11.029  0.3607  0.7679  0.3309
  177MOL0     C23241   5.740   4.922  11.034  0.5353 -0.0555 -0.1561
  177MOL0     C23242   5.635   5.007  11.110 -0.9075 -0.5847  0.3193
  177MOL0     C23243   5.485   4.982  11.087  0.5315 -0.6932  0.9020
  177MOL0     C23244   5.444   4.833  11.094 -0.2784  0.6266 -0.9588
  177MOL0     C23245   5.296   4.809  11.095 -0.9386 -0.8485 -0.1746
  177MOL0     C23246   5.217   4.837  10.966 -0.7856 -0.7432 -0.1772
  177MOL0     C23247   5.065   4.791  10.971  0.1826 -0.1278  1.2001
  177MOL0     C23248   4.975   4.892  11.047  0.9694  0.9037  0.1192
  177MOL0     N23249   4.836   4.890  10.995  0.3087  0.3745 -0.0388
  177MOL0     C23250   4.753   4.784  10.955 -0.2000 -0.0537 -0.8810
  177MOL0     C23251   4.642   4.850  10.907 -0.9165  0.9026 -0.2590
  177MOL0     C23252   4.522   4.789  10.846 -0.4185  0.4897 -0.3289
  177MOL0     C23253   4.425   4.739  10.951 -0.0893 -0.4696  0.7227
  177MOL0     C23254   4.380   4.839  11.062  0.2311  0.0520  0.6884
  177MOL0     C23255   4.272   4.771  11.155  0.4790  0.0567  0.4877
  177MOL0     O23256   4.227   4.874  11.239  0.7414 -0.0377  1.4422
  177MOL0     C23257   4.098   4.875  11.291 -1.1394  0.1279  0.3937
  177MOL0     C23258   4.026   4.748  11.315 -0.1783 -0.0075 -0.3473
  177MOL0     C23259   3.891   4.756  11.359 -0.8387  0.4725  0.0442
  177MOL0     C23260   3.829   4.876  11.381 -0.4479  0.0563 -0.3301
  177MOL0     C23261   3.695   4.892  11.437 -0.5525 -0.3956  0.1049
  177MOL0     O23262   3.628   4.767  11.467 -0.4673 -0.1246  0.1924
  177MOL0     C23263   3.487   4.747  11.483 -0.7160  0.1631  0.6872
  177MOL0     C23264   3.384   4.833  11.426 -0.5268 -0.5716 -0.9982
  177MOL0     C23265   3.253   4.826  11.467 -0.5838 -0.2548 -0.6143
  177MOL0     C23266   3.208   4.723  11.558 -1.2806 -1.0260  0.7850
  177MOL0     O23267   3.075   4.699  11.588 -0.2499 -0.7722  0.0551
  177MOL0     C23268   2.978   4.787  11.533 -0.1185 -0.2734 -0.2001
  177MOL0     C23269   2.841   4.768  11.595 -0.2489  0.5428 -0.0641
  177MOL0     C23270   2.746   4.875  11.541  0.5678 -0.5129  0.2502
  177MOL0     C23271   2.602   4.858  11.588 -0.2019  0.4881 -0.1727
  177MOL0     C23272   2.494   4.974  11.563 -0.3496  0.2869  0.0645
  177MOL0     C23273   2.529   5.113  11.626 -0.3682 -0.2930  0.2328
  177MOL0     C23274   2.426   5.219  11.590  0.6663 -0.0161 -0.1761
  177MOL0     C23275   2.287   5.191  11.654  0.4275  0.4233  0.3367
  177MOL0    Cl23276   2.296   5.194  11.830  0.4728 -0.4577 -0.3704
  177MOL0     C23277   3.308   4.635  11.600  0.5699  0.2457  0.4706
  177MOL0     C23278   3.444   4.654  11.573  0.5511  0.0506  0.6231
  177MOL0     O23279   3.644   4.999  11.427 -0.0940 -0.1465  0.1678
  177MOL0     C23280   3.895   4.998  11.356  0.0896 -0.1112 -0.5100
  177MOL0     C23281   4.028   4.995  11.312 -0.8185 -0.3022 -0.9474
  177MOL0     N23282   4.663   4.990  10.915  0.4992  0.6587  0.2823
  177MOL0     N23283   4.779   5.011  10.960  0.1374  0.0180  0.5455
  177MOL0     C23284   6.098   4.977  11.028  0.1762 -0.2045 -0.2456
  177MOL0     C23285   6.217   4.921  10.997 -0.0518  0.3200  0.2582
  177MOL0     C23286   6.534   4.642  10.807  0.4807 -0.4228  1.0204
  177MOL0     C23287   6.589   4.588  10.691 -0.5828 -0.1831 -0.2563
  177MOL0     C23288   6.720   4.538  10.692  0.3073 -0.2129  0.2314
  177MOL0     C23289   6.801   4.549  10.804  0.9481  0.8882 -0.1018
  177MOL0     O23290   6.938   4.514  10.791  0.3067  0.0289  0.2951
  177MOL0     C23291   7.003   4.504  10.919  0.0879 -0.0158  0.5988
  177MOL0     C23292   7.142   4.432  10.884 -0.1017 -0.6634 -0.6852
  177MOL0     C23293   7.197   4.403  11.024 -0.8458  0.2600 -0.4006
  177MOL0     C23294   7.344   4.360  11.009  0.4026 -0.3222 -0.1679
  177MOL0     C23295   7.418   4.343  11.133 -0.4532 -0.5705  1.0651
  177MOL0     C23296   7.479   4.345  11.237 -0.0968  0.4559  0.1180
  177MOL0     C23297   6.748   4.610  10.919 -0.4612  0.5104  0.1247
  177MOL0     C23298   6.618   4.656  10.918 -0.2281  0.2592  0.3068
  177MOL0     H23299   6.104   4.661  10.812 -0.1233 -0.6592  1.9813
  177MOL0     H23300   5.890   4.749  10.888 -0.1488 -0.2067  2.5212
  177MOL0     H23301   5.746   4.818  11.066 -1.3269 -0.0945  0.1670
  177MOL0     H23302   5.705   4.907  10.932 -0.1615  0.5684 -0.0219
  177MOL0     H23303   5.665   5.111  11.095 -1.7864 -0.3970 -0.2012
  177MOL0     H23304   5.656   4.986  11.216  1.0318 -0.4969 -0.0024
  177MOL0     H23305   5.458   5.020  10.988 -0.6284  1.8634  2.1388
  177MOL0     H23306   5.423   5.037  11.158  0.3061  0.5171 -0.1917
  177MOL0     H23307   5.480   4.787  11.001 -0.2839 -3.4277  0.8552
  177MOL0     H23308   5.487   4.788  11.184 -2.0449 -1.2642 -0.9904
  177MOL0     H23309   5.253   4.867  11.178  2.2550  1.8248 -0.1704
  177MOL0     H23310   5.273   4.703  11.108 -1.8893 -0.6909 -0.4562
  177MOL0     H23311   5.260   4.778  10.885 -0.1965 -1.3805  0.5904
  177MOL0     H23312   5.227   4.941  10.936 -0.1782 -0.4531  0.9787
  177MOL0     H23313   5.025   4.805  10.870  0.1596 -2.0261  0.8925
  177MOL0     H23314   5.067   4.686  11.002  3.0589 -0.0586  1.4812
  177MOL0     H23315   5.013   4.994  11.042 -2.9432  2.5851  0.6338
  177MOL0     H23316   4.967   4.859  11.151  4.3486 -2.2347 -0.3932
  177MOL0     H23317   4.773   4.680  10.976 -0.7491 -0.4083 -2.0483
  177MOL0     H23318   4.561   4.702  10.793  1.8597 -0.5149  2.6753
  177MOL0     H23319   4.466   4.844  10.770 -1.0538 -1.4808 -1.3469
  177MOL0     H23320   4.469   4.658  11.009 -0.9679 -0.4949  1.3747
  177MOL0     H23321   4.328   4.711  10.906 -0.9344  2.5451  0.4335
  177MOL0     H23322   4.466   4.848  11.129  0.8159 -2.4460  0.3674
  177MOL0     H23323   4.334   4.936  11.040 -0.7062 -0.5498 -0.0700
  177MOL0     H23324   4.306   4.688  11.219 -1.5724 -1.4337 -0.2570
  177MOL0     H23325   4.190   4.732  11.094 -0.0648  0.3000  1.0467
  177MOL0     H23326   4.080   4.656  11.296  1.7998  0.4295  2.5885
  177MOL0     H23327   3.840   4.664  11.385  0.1431 -0.3063 -0.6945
  177MOL0     H23328   3.410   4.915  11.358 -0.6741  1.5570  1.3636
  177MOL0     H23329   3.187   4.905  11.432 -0.3717 -0.4593 -1.4921
  177MOL0     H23330   2.966   4.751  11.430 -0.0289 -3.6097  0.8243
  177MOL0     H23331   3.000   4.893  11.547 -3.7966  0.9130 -2.1706
  177MOL0     H23332   2.844   4.771  11.704 -4.4587  1.5724  0.1929
  177MOL0     H23333   2.809   4.666  11.573 -1.1812  0.8093  0.0110
  177MOL0     H23334   2.740   4.886  11.432 -4.7189 -0.5800  0.2904
  177MOL0     H23335   2.776   4.976  11.570 -1.8338 -0.2959  2.2712
  177MOL0     H23336   2.565   4.786  11.514  2.2241 -1.2219  0.1645
  177MOL0     H23337   2.606   4.818  11.689 -1.4179 -0.8830 -0.6359
  177MOL0     H23338   2.402   4.939  11.609 -0.3314  0.2251  0.0543
  177MOL0     H23339   2.489   4.985  11.454  0.6967  0.6104  0.0393
  177MOL0     H23340   2.634   5.138  11.606 -0.0579 -0.8798  1.0755
  177MOL0     H23341   2.526   5.104  11.735 -0.2764 -2.0433  0.1199
  177MOL0     H23342   2.463   5.318  11.620  0.3725 -0.2184  0.9037
  177MOL0     H23343   2.412   5.225  11.482 -1.1429  1.3034  0.0853
  177MOL0     H23344   2.228   5.113  11.606  0.9011 -0.3496  0.9951
  177MOL0     H23345   2.240   5.284  11.621  1.4755  0.7281 -0.3571
  177MOL0     H23346   3.284   4.549  11.662  0.1085 -1.1203 -1.5025
  177MOL0     H23347   3.502   4.568  11.603  1.6478  0.7887  0.6777
  177MOL0     H23348   3.854   5.093  11.388  1.0317  1.0344 -2.4658
  177MOL0     H23349   4.077   5.091  11.303 -1.7020  0.5244  1.8447
  177MOL0     H23350   6.092   5.071  11.083 -0.4351 -0.8625  0.8362
  177MOL0     H23351   6.308   4.968  11.032 -1.1835  3.6231 -0.7974
  177MOL0     H23352   6.528   4.555  10.608 -0.9440  0.4946 -0.2730
  177MOL0     H23353   6.781   4.498  10.611  2.9026  1.2131  1.3634
  177MOL0     H23354   6.942   4.443  10.986 -1.3148 -0.8416 -1.3565
  177MOL0     H23355   7.018   4.601  10.967  1.0392 -0.2858  0.8749
  177MOL0     H23356   7.143   4.341  10.825  0.0751 -0.0819 -1.6028
  177MOL0     H23357   7.200   4.512  10.837  2.7188 -2.3422 -0.2765
  177MOL0     H23358   7.130   4.323  11.059  2.0346 -2.2895 -0.2776
  177MOL0     H23359   7.194   4.490  11.090 -0.5173  1.4034 -1.8467
  177MOL0     H23360   7.350   4.271  10.945 -5.7424 -1.2072 -0.1262
  177MOL0     H23361   7.395   4.437  10.951  2.1266  0.4164  2.1842
  177MOL0     H23362   7.538   4.356  11.326 -2.7473 -0.9342  2.1978
  177MOL0     H23363   6.814   4.621  11.004  0.0044 -1.8523  0.1490
  177MOL0     H23364   6.585   4.708  11.007 -0.8570 -2.2064  1.6097
  178MOL0     O23365   1.322   3.151   9.153 -0.1491 -0.3213  0.0881
  178MOL0     C23366   1.308   3.127   9.270  0.8969  0.7153 -0.1985
  178MOL0     O23367   1.192   3.131   9.337 -0.0063 -0.4130 -0.4719
  178MOL0     C23368   1.069   3.164   9.282 -0.2123  0.2012  0.3016
  178MOL0     C23369   1.042   3.215   9.152 -0.1340 -0.4650 -0.5384
  178MOL0     C23370   0.908   3.235   9.117  0.0390  0.5109 -0.1032
  178MOL0     C23371   0.806   3.229   9.211 -0.6357 -0.9465 -0.1034
  178MOL0     O23372   0.685   3.292   9.181 -0.2755 -0.1046  0.9511
  178MOL0     C23373   0.567   3.270   9.263  0.4092 -0.5020  0.3072
  178MOL0     C23374   0.443   3.298   9.184  0.0071 -0.2017 -0.9600
  178MOL0     C23375   0.327   3.279   9.278  0.1726  0.2202  0.5814
  178MOL0     C23376   0.198   3.343   9.212 -0.4608 -0.4183  0.4276
  178MOL0     C23377   0.074   3.327   9.305 -0.1509 -0.2229 -0.2919
  178MOL0     C23378  -0.052   3.327   9.218  0.1413 -0.7094 -0.5841
  178MOL0     C23379  -0.187   3.310   9.288 -0.6594  0.3559  0.2446
  178MOL0     C23380  -0.279   3.356   9.177 -0.0951  0.1584  0.5280
  178MOL0     N23381  -0.416   3.346   9.222  0.0662 -0.2325  0.0142
  178MOL0     C23382  -0.468   3.427   9.319 -0.3385  0.6203  0.6148
  178MOL0     C23383  -0.588   3.362   9.340  0.5316  0.4126  0.1695
  178MOL0     C23384  -0.671   3.399   9.464 -0.5199  0.6125  0.3954
  178MOL0     C23385  -0.818   3.348   9.457  0.1089 -0.0731 -0.4372
  178MOL0     C23386  -0.913   3.426   9.360  0.0519 -0.1266 -0.8875
  178MOL0     C23387  -0.928   3.575   9.390  0.1932  0.1233 -0.4522
  178MOL0     O23388  -0.974   3.601   9.527 -0.5551 -1.0925 -0.0152
  178MOL0     C23389  -1.101   3.573   9.550 -0.3457 -0.6683  0.0730
  178MOL0     C23390  -1.202   3.578   9.450  0.0705 -0.3379 -0.2283
  178MOL0     C23391  -1.328   3.542   9.492 -0.2592  0.4095  0.1844
  178MOL0     C23392  -1.354   3.489   9.615  0.4300 -0.4265 -0.0738
  178MOL0     C23393  -1.491   3.434   9.639  0.4167  0.3514  0.4362
  178MOL0     O23394  -1.491   3.354   9.741  1.1096  0.3285  0.2157
  178MOL0     C23395  -1.602   3.274   9.763  0.3307  0.4004 -0.5535
  178MOL0     C23396  -1.729   3.335   9.789  0.2145  0.4136  0.1929
  178MOL0     C23397  -1.842   3.267   9.828 -0.7012 -0.2935  0.5213
  178MOL0     C23398  -1.833   3.125   9.847  0.2195  0.2590 -0.2759
  178MOL0     O23399  -1.944   3.062   9.905 -0.4908  0.2203  0.1644
  178MOL0     C23400  -1.928   2.933   9.962  0.6118  0.6826  0.4231
  178MOL0     C23401  -1.995   2.930  10.097  0.0379 -0.3388 -0.7898
  178MOL0     C23402  -2.148   2.915  10.105 -0.6528 -0.4117 -0.4315
  178MOL0     C23403  -2.233   3.039  10.070  0.3000  0.0455  0.3081
  178MOL0     C23404  -2.381   3.042  10.117 -0.1291  0.0434 -0.8934
  178MOL0     C23405  -2.461   2.928  10.051 -0.1341 -0.6493 -0.6773
  178MOL0     C23406  -2.616   2.926  10.094  0.5135 -0.4716  0.2476
  178MOL0     C23407  -2.642   2.897  10.240  0.8328  0.1346 -0.2057
  178MOL0    Cl23408  -2.822   2.882  10.262  0.1597  0.1263  0.3122
  178MOL0     C23409  -1.708   3.064   9.813  0.0067 -0.0725  0.0365
  178MOL0     C23410  -1.591   3.137   9.787  0.1865 -0.4038 -0.8108
  178MOL0     O23411  -1.589   3.463   9.570  0.0619 -0.0465  0.1236
  178MOL0     C23412  -1.254   3.489   9.710  0.0052 -0.0739  0.2633
  178MOL0     C23413  -1.127   3.529   9.673  0.5417 -0.1128 -0.2699
  178MOL0     N23414  -0.611   3.256   9.259  0.2052 -0.0334 -0.4393
  178MOL0     N23415  -0.500   3.241   9.194  0.2557 -0.4401 -0.0198
  178MOL0     C23416   0.843   3.191   9.338  0.5668  0.4011  0.6806
  178MOL0     C23417   0.969   3.156   9.376 -0.4569  0.1893 -0.0380
  178MOL0     C23418   1.426   3.085   9.353 -0.5370  0.3842  0.1096
  178MOL0     C23419   1.408   3.027   9.483  0.0397  0.0851  0.4619
  178MOL0     C23420   1.518   2.993   9.560  0.9116 -0.1089 -0.8889
  178MOL0     C23421   1.649   3.021   9.520 -0.0693  0.0769 -0.3834
  178MOL0     O23422   1.738   2.981   9.610 -0.6879  0.2519 -0.3878
  178MOL0     C23423   1.878   2.980   9.576  0.0268 -1.1179 -0.2458
  178MOL0     C23424   1.947   2.854   9.539  0.2671  0.2662  0.6598
  178MOL0     C23425   1.906   2.802   9.392 -0.1069  0.1375 -0.7377
  178MOL0     C23426   1.944   2.658   9.366 -0.4290  0.5366  0.3042
  178MOL0     C23427   1.900   2.626   9.231  0.9495 -0.8047 -0.0513
  178MOL0     C23428   1.861   2.582   9.121  0.7257  0.7698 -0.2590
  178MOL0     C23429   1.661   3.073   9.391 -0.6549  0.0519 -0.4828
  178MOL0     C23430   1.556   3.103   9.306 -0.3258 -0.0147  0.0294
  178MOL0     H23431   1.122   3.221   9.079 -0.8756 -1.2052 -1.4324
  178MOL0     H23432   0.888   3.271   9.017 -1.2078 -0.0320 -0.0647
  178MOL0     H23433   0.569   3.340   9.347  2.0085 -0.3469  0.1602
  178MOL0     H23434   0.554   3.166   9.296  1.1994 -1.1565 -1.3205
  178MOL0     H23435   0.433   3.236   9.094 -2.0833  0.1183 -0.9817
  178MOL0     H23436   0.450   3.403   9.154  1.4717  0.2638  0.8536
  178MOL0     H23437   0.353   3.340   9.365  2.3463 -0.6541  0.5966
  178MOL0     H23438   0.303   3.178   9.314 -1.9402  0.3739 -0.2505
  178MOL0     H23439   0.208   3.448   9.185  3.0641 -0.8541 -0.4592
  178MOL0     H23440   0.182   3.284   9.121 -0.1737 -1.2183  0.8861
  178MOL0     H23441   0.054   3.409   9.375 -0.7568  0.4378 -1.2060
  178MOL0     H23442   0.068   3.229   9.352 -3.2897  0.0555  0.1165
  178MOL0     H23443  -0.043   3.244   9.147  0.5560  0.8555 -2.4532
  178MOL0     H23444  -0.049   3.421   9.162 -0.3309  0.2191  0.8815
  178MOL0     H23445  -0.196   3.210   9.330 -1.8138  0.4933  0.3829
  178MOL0     H23446  -0.203   3.384   9.367 -3.4286  1.2345 -0.9858
  178MOL0     H23447  -0.274   3.286   9.093  1.1705 -1.5056  1.9028
  178MOL0     H23448  -0.245   3.457   9.155  0.8740  0.5954  3.6004
  178MOL0     H23449  -0.432   3.517   9.366  1.0917  0.8574 -0.8165
  178MOL0     H23450  -0.659   3.506   9.482 -0.5496  1.0719 -2.0136
  178MOL0     H23451  -0.624   3.355   9.553 -0.7319  0.5916  0.4993
  178MOL0     H23452  -0.854   3.350   9.560  1.1078 -0.0792 -0.0703
  178MOL0     H23453  -0.808   3.244   9.425  1.0139 -0.4627  0.9970
  178MOL0     H23454  -0.873   3.409   9.260  0.3424 -2.3834 -0.4407
  178MOL0     H23455  -1.017   3.392   9.352  0.2523 -0.3166 -3.3828
  178MOL0     H23456  -0.994   3.610   9.311 -0.5072  0.1930  0.1467
  178MOL0     H23457  -0.824   3.609   9.390  0.2850 -0.1603 -0.9551
  178MOL0     H23458  -1.185   3.616   9.350 -0.2761 -0.4913 -0.3482
  178MOL0     H23459  -1.416   3.549   9.429 -0.7521 -2.5332  0.4086
  178MOL0     H23460  -1.737   3.439   9.761  0.7857  0.4269  0.0522
  178MOL0     H23461  -1.937   3.318   9.839 -0.4180  0.5241 -0.6871
  178MOL0     H23462  -1.825   2.897   9.965  0.8372  1.2865  0.1718
  178MOL0     H23463  -1.978   2.867   9.890 -0.6789  1.2834  0.7336
  178MOL0     H23464  -1.971   3.021  10.152  1.7822 -1.5281  0.5751
  178MOL0     H23465  -1.948   2.851  10.157  0.3259  0.0095 -0.5511
  178MOL0     H23466  -2.176   2.889  10.207 -3.0166 -1.8163 -1.3611
  178MOL0     H23467  -2.169   2.825  10.046  1.1361 -0.9834 -0.2578
  178MOL0     H23468  -2.183   3.125  10.116 -3.7505  2.7954  0.1387
  178MOL0     H23469  -2.226   3.058   9.962 -1.1843 -0.6986  0.0628
  178MOL0     H23470  -2.427   3.134  10.081  0.3188  0.5476 -0.2029
  178MOL0     H23471  -2.403   3.041  10.225 -3.0277 -1.1991 -1.4055
  178MOL0     H23472  -2.415   2.833  10.080 -1.1362 -0.3308  2.2923
  178MOL0     H23473  -2.462   2.946   9.943  1.6404  0.0702 -0.6048
  178MOL0     H23474  -2.662   3.019  10.060  1.0740 -0.2078  0.1855
  178MOL0     H23475  -2.661   2.842  10.040  2.4506 -0.7199 -1.0862
  178MOL0     H23476  -2.598   2.975  10.303 -2.1081  2.3522 -0.7048
  178MOL0     H23477  -2.589   2.804  10.263  0.8328  0.4292  1.0620
  178MOL0     H23478  -1.695   2.956   9.810  2.3802  0.1774 -0.3401
  178MOL0     H23479  -1.500   3.083   9.764  0.1891 -0.7219 -0.0587
  178MOL0     H23480  -1.261   3.449   9.811 -0.9037  0.4881  0.4363
  178MOL0     H23481  -1.052   3.534   9.752 -0.6040  0.3704  0.8307
  178MOL0     H23482   0.767   3.209   9.413  2.3877  1.5434  2.3418
  178MOL0     H23483   0.991   3.139   9.481 -0.1730  3.5082  0.5347
  178MOL0     H23484   1.308   3.002   9.515  0.1057 -1.2466 -0.2780
  178MOL0     H23485   1.502   2.956   9.661 -0.0389  0.4565 -0.8201
  178MOL0     H23486   1.937   3.026   9.656  1.1742 -1.3051 -0.9589
  178MOL0     H23487   1.892   3.048   9.491  0.6878 -0.4464  0.3849
  178MOL0     H23488   2.057   2.855   9.541  0.3856  0.4992 -2.0265
  178MOL0     H23489   1.919   2.777   9.612  0.3782 -0.1789  0.2340
  178MOL0     H23490   1.942   2.865   9.311 -1.8086  2.6631  0.3478
  178MOL0     H23491   1.797   2.807   9.395 -0.1135  1.8698  3.1512
  178MOL0     H23492   2.053   2.650   9.366 -0.4759 -0.6901 -1.1134
  178MOL0     H23493   1.890   2.590   9.433 -1.4074 -0.1218 -1.0980
  178MOL0     H23494   1.820   2.557   9.025  0.2164  2.4143 -0.5108
  178MOL0     H23495   1.759   3.097   9.353  0.0255  0.9202  1.6267
  178MOL0     H23496   1.575   3.140   9.206 -1.9266 -1.8910 -1.0411
  179MOL0     O23497   7.023   8.098   1.750  0.3313 -0.4768  0.0142
  179MOL0     C23498   7.122   8.042   1.797 -0.2989  0.4126 -0.5658
  179MOL0     O23499   7.125   7.920   1.855 -0.0378  0.4589  0.2136
  179MOL0     C23500   7.013   7.851   1.888  0.0126  0.1055  0.8698
  179MOL0     C23501   6.896   7.907   1.935 -0.7145 -0.7749  0.5017
  179MOL0     C23502   6.788   7.832   1.973  0.0841  0.0658 -0.2503
  179MOL0     C23503   6.794   7.698   1.937 -0.2587 -0.0322 -0.6936
  179MOL0     O23504   6.690   7.605   1.964  0.1979 -0.4469  0.4620
  179MOL0     C23505   6.562   7.662   1.977  0.4916  0.2640  0.1966
  179MOL0     C23506   6.540   7.685   2.128 -1.1105  0.2683 -0.6797
  179MOL0     C23507   6.499   7.563   2.202 -0.1150  0.2894 -0.3759
  179MOL0     C23508   6.345   7.532   2.189  0.5606  0.6946 -0.1984
  179MOL0     C23509   6.316   7.405   2.281  0.8628  0.0468  0.7056
  179MOL0     C23510   6.310   7.276   2.204 -0.3022 -0.4563 -0.5508
  179MOL0     C23511   6.248   7.167   2.289  0.2116  0.6628  1.4196
  179MOL0     C23512   6.250   7.025   2.223 -0.3814 -0.7929  0.7141
  179MOL0     N23513   6.173   7.022   2.092 -0.1389 -0.5045 -0.1199
  179MOL0     C23514   6.256   7.007   1.982 -0.6059  0.3462 -0.2436
  179MOL0     C23515   6.176   6.949   1.887 -1.0687 -0.2049 -0.2698
  179MOL0     C23516   6.207   6.915   1.740 -0.1778  0.5555 -0.0150
  179MOL0     C23517   6.238   7.030   1.652 -0.0576 -0.4193  0.0536
  179MOL0     C23518   6.308   6.983   1.527 -0.1182 -0.6055 -0.6762
  179MOL0     C23519   6.300   7.094   1.428  0.4490 -0.3352 -0.0617
  179MOL0     O23520   6.368   7.075   1.307  0.1420 -0.3263 -0.3855
  179MOL0     C23521   6.506   7.097   1.324 -0.3479  0.5719  0.0579
  179MOL0     C23522   6.568   7.219   1.363  0.6447  0.3071  0.3175
  179MOL0     C23523   6.708   7.239   1.348 -0.7654  0.0147 -0.0132
  179MOL0     C23524   6.787   7.137   1.288 -0.6704 -1.0193  0.1561
  179MOL0     C23525   6.931   7.160   1.274 -0.3154  0.6841  0.7047
  179MOL0     O23526   7.000   7.055   1.228  0.5036  0.7687 -0.0109
  179MOL0     C23527   7.135   7.059   1.200  0.3201  0.6209 -0.0363
  179MOL0     C23528   7.224   7.133   1.277 -0.7536  1.1270 -1.3510
  179MOL0     C23529   7.363   7.108   1.259  0.4103 -0.2432 -0.0166
  179MOL0     C23530   7.407   7.033   1.153 -0.2949  0.9300  0.1194
  179MOL0     O23531   7.544   7.023   1.141  0.4088  0.4386 -0.3588
  179MOL0     C23532   7.591   6.988   1.015 -0.3398  0.2056  0.1303
  179MOL0     C23533   7.732   7.030   0.997 -0.2603 -0.5986 -0.5212
  179MOL0     C23534   7.805   6.958   0.889  0.0314  0.8781  0.4088
  179MOL0     C23535   7.946   7.010   0.861  0.6062  0.3469  1.3548
  179MOL0     C23536   8.046   6.933   0.951 -0.9019 -0.9573 -0.1154
  179MOL0     C23537   8.194   6.962   0.910 -0.0705  0.1699 -0.0628
  179MOL0     C23538   8.292   6.875   0.994  1.2513  0.7056 -0.2238
  179MOL0     C23539   8.434   6.921   0.972  0.4896  0.5718 -0.7243
  179MOL0    Cl23540   8.561   6.825   1.057 -0.2022 -0.2226  0.4597
  179MOL0     C23541   7.313   6.964   1.067 -0.4928 -0.3083  0.1630
  179MOL0     C23542   7.179   6.980   1.095  1.0037  0.4933 -0.8080
  179MOL0     O23543   6.977   7.267   1.298  1.2246 -0.1598  0.2478
  179MOL0     C23544   6.726   7.008   1.266  0.4052 -0.2010  0.4931
  179MOL0     C23545   6.590   6.989   1.287  0.5537  0.0938 -0.0601
  179MOL0     N23546   6.050   6.940   1.938  0.6968  0.1726  0.4539
  179MOL0     N23547   6.044   6.984   2.064 -0.4776 -0.0283  0.7804
  179MOL0     C23548   6.912   7.637   1.878 -0.2555 -0.2775  0.1133
  179MOL0     C23549   7.019   7.716   1.850 -0.7570  0.8493  0.1697
  179MOL0     C23550   7.248   8.115   1.788 -0.5511  0.5317  0.8611
  179MOL0     C23551   7.372   8.050   1.805 -0.2449 -0.4337 -0.1577
  179MOL0     C23552   7.495   8.115   1.794  0.0107 -0.6724 -0.1349
  179MOL0     C23553   7.500   8.252   1.764 -0.0463  0.0696  0.0421
  179MOL0     O23554   7.617   8.334   1.769  0.1050 -0.2832 -0.3465
  179MOL0     C23555   7.740   8.265   1.796  0.0926  0.1972 -0.6865
  179MOL0     C23556   7.857   8.358   1.772 -1.5807 -0.0586 -0.3213
  179MOL0     C23557   7.986   8.285   1.832 -0.4635 -0.0474  0.1524
  179MOL0     C23558   8.064   8.379   1.927  0.0168 -0.1876  0.7360
  179MOL0     C23559   8.008   8.401   2.068  0.2757  0.5978 -0.8067
  179MOL0     C23560   7.963   8.422   2.183 -0.8348 -0.3300 -0.1396
  179MOL0     C23561   7.378   8.318   1.740 -0.3763  0.7339  0.0754
  179MOL0     C23562   7.252   8.250   1.760  0.0239  0.1986  1.1167
  179MOL0     H23563   6.907   8.011   1.965  1.5975 -0.0754 -2.3332
  179MOL0     H23564   6.706   7.884   2.020  1.2377  1.5241  0.2363
  179MOL0     H23565   6.478   7.603   1.939  1.3091 -0.2641 -0.8432
  179MOL0     H23566   6.555   7.754   1.917  3.0343 -1.3479 -2.8315
  179MOL0     H23567   6.461   7.760   2.143 -1.2410 -0.0070  0.0526
  179MOL0     H23568   6.631   7.731   2.166 -0.6159  2.2228 -3.8280
  179MOL0     H23569   6.524   7.583   2.307 -2.9900  0.0679  0.4459
  179MOL0     H23570   6.551   7.475   2.163 -1.7906 -0.9209 -0.0305
  179MOL0     H23571   6.280   7.615   2.219  0.6805  0.3443  1.0695
  179MOL0     H23572   6.319   7.510   2.085 -0.6158  3.0640 -0.4771
  179MOL0     H23573   6.219   7.426   2.326 -0.7628 -0.6423 -2.2632
  179MOL0     H23574   6.395   7.377   2.352 -0.1215 -1.0923  1.3767
  179MOL0     H23575   6.408   7.246   2.167 -1.1136 -1.3304 -2.0739
  179MOL0     H23576   6.239   7.300   2.124 -2.3829  2.7107  1.9682
  179MOL0     H23577   6.301   7.168   2.384  0.0420  0.4025  1.5166
  179MOL0     H23578   6.145   7.200   2.304 -0.1460 -0.2312  1.0171
  179MOL0     H23579   6.220   6.951   2.297  0.4045 -0.8247  1.0102
  179MOL0     H23580   6.353   6.988   2.219  0.4267  1.4072 -0.8850
  179MOL0     H23581   6.362   7.022   1.964 -0.6195 -0.5472 -1.1426
  179MOL0     H23582   6.128   6.857   1.692 -0.9473 -0.1075  1.9616
  179MOL0     H23583   6.298   6.853   1.735  0.0632  0.8947  0.1166
  179MOL0     H23584   6.293   7.104   1.711 -2.7021  0.9544  0.9566
  179MOL0     H23585   6.140   7.070   1.625  1.2440  2.6368 -0.5363
  179MOL0     H23586   6.412   6.960   1.553 -0.3696 -0.3060  0.6465
  179MOL0     H23587   6.261   6.895   1.482 -0.0491 -1.8481  1.5549
  179MOL0     H23588   6.334   7.190   1.467  0.6532  0.1475 -1.3767
  179MOL0     H23589   6.196   7.112   1.400  0.9489  0.3199 -1.6152
  179MOL0     H23590   6.493   7.291   1.391 -2.2766 -2.5915  0.5729
  179MOL0     H23591   6.742   7.341   1.364 -1.2690  0.2232 -0.2425
  179MOL0     H23592   7.206   7.187   1.369  0.1222  1.9909 -1.6660
  179MOL0     H23593   7.429   7.156   1.330 -1.6265 -0.0066  1.8152
  179MOL0     H23594   7.537   7.040   0.935  1.8478 -1.5958 -2.6679
  179MOL0     H23595   7.588   6.880   0.998  0.3717  0.2548 -0.3316
  179MOL0     H23596   7.795   7.009   1.084  1.2098  2.0354 -0.8376
  179MOL0     H23597   7.737   7.140   0.996 -0.1793 -0.4944  2.6236
  179MOL0     H23598   7.739   6.965   0.802  1.0355 -0.2309 -0.4676
  179MOL0     H23599   7.811   6.855   0.925 -0.6902  1.2701  1.7191
  179MOL0     H23600   7.964   7.004   0.753 -1.7683  0.4627  0.8940
  179MOL0     H23601   7.942   7.116   0.890 -0.7635  0.1365  2.0122
  179MOL0     H23602   8.028   6.825   0.947  2.2342 -1.5834 -3.3636
  179MOL0     H23603   8.044   6.964   1.056  2.0502 -3.3567  0.8079
  179MOL0     H23604   8.222   7.068   0.917 -0.5159  0.1622  3.1181
  179MOL0     H23605   8.215   6.927   0.808 -0.5255 -2.5512  0.6896
  179MOL0     H23606   8.265   6.882   1.100 -1.7140  1.1332 -0.9386
  179MOL0     H23607   8.281   6.768   0.970  1.2938  0.4614  0.7859
  179MOL0     H23608   8.449   7.029   0.985 -3.3332  1.0362  0.9447
  179MOL0     H23609   8.469   6.900   0.870  2.4738  3.3837 -0.7403
  179MOL0     H23610   7.349   6.908   0.981 -2.1624 -2.1314  0.6152
  179MOL0     H23611   7.109   6.922   1.034 -0.1700  0.0926  0.8516
  179MOL0     H23612   6.793   6.930   1.232  4.3781  1.8729  2.8245
  179MOL0     H23613   6.547   6.894   1.257  0.6337 -0.5765  1.8086
  179MOL0     H23614   6.913   7.531   1.856 -1.6487  0.1032 -1.9693
  179MOL0     H23615   7.114   7.678   1.814  0.7324  1.2527  3.2759
  179MOL0     H23616   7.375   7.944   1.831  1.6510  0.1220  2.3892
  179MOL0     H23617   7.586   8.057   1.809 -0.3428 -0.6292  3.0089
  179MOL0     H23618   7.754   8.174   1.736 -0.4933 -1.5334  1.6233
  179MOL0     H23619   7.740   8.235   1.901  0.9815  1.4013 -0.3231
  179MOL0     H23620   7.876   8.378   1.667  1.2717 -3.1487 -0.5699
  179MOL0     H23621   7.833   8.447   1.831 -2.3335 -0.8109  0.5390
  179MOL0     H23622   8.050   8.262   1.746  1.3906 -2.4176  2.0173
  179MOL0     H23623   7.958   8.189   1.876 -0.4190 -0.6546 -1.0918
  179MOL0     H23624   8.167   8.344   1.932  0.1167  0.0990  0.6773
  179MOL0     H23625   8.066   8.475   1.875  0.1577 -0.2081  0.7064
  179MOL0     H23626   7.923   8.427   2.282  0.2271 -2.2902  0.4375
  179MOL0     H23627   7.383   8.424   1.718 -1.2146  0.5395 -1.1526
  179MOL0     H23628   7.168   8.317   1.746  0.7346  0.8241 -0.4351
  180MOL0     O23629   9.236  10.581   4.715 -0.3506  0.0520 -0.2459
  180MOL0     C23630   9.227  10.578   4.837  0.4113  0.0104  0.4722
  180MOL0     O23631   9.108  10.580   4.904 -0.7485 -0.1167 -0.3121
  180MOL0     C23632   9.005  10.612   4.831  0.1145  0.3289  0.1403
  180MOL0     C23633   8.961  10.742   4.809 -0.1021  0.6037 -0.5355
  180MOL0     C23634   8.844  10.773   4.736  0.4253  0.0734 -0.3714
  180MOL0     C23635   8.763  10.675   4.678 -0.3449  0.8399 -0.0262
  180MOL0     O23636   8.656  10.697   4.603  0.4590 -0.6283  0.3126
  180MOL0     C23637   8.565  10.790   4.668  1.0795  0.6488  0.5855
  180MOL0     C23638   8.435  10.806   4.596  0.4211  0.5408  0.4941
  180MOL0     C23639   8.444  10.871   4.458 -0.3658  0.1169  0.5454
  180MOL0     C23640   8.303  10.911   4.400 -0.9459 -0.0004  0.1487
  180MOL0     C23641   8.308  10.963   4.256  0.2322  1.0031  0.0038
  180MOL0     C23642   8.309  10.859   4.140  0.2499 -1.1484 -0.0467
  180MOL0     C23643   8.305  10.921   3.997 -0.6603 -0.3693 -0.5712
  180MOL0     C23644   8.323  10.814   3.885  0.0425  0.3667 -0.7960
  180MOL0     N23645   8.328  10.873   3.755  0.1693  0.3414  0.2205
  180MOL0     C23646   8.211  10.899   3.685  0.3616 -0.2463 -0.9326
  180MOL0     C23647   8.251  10.957   3.577 -0.3868  0.0854 -0.5120
  180MOL0     C23648   8.142  11.018   3.482 -0.5043  0.1708  0.1971
  180MOL0     C23649   8.218  11.104   3.384  0.3461  0.3139  0.1310
  180MOL0     C23650   8.306  11.028   3.282 -0.1940  0.0213  1.4223
  180MOL0     C23651   8.399  11.133   3.227  0.5823  0.5737 -0.7600
  180MOL0     O23652   8.475  11.071   3.124  0.1920  0.0990 -0.1365
  180MOL0     C23653   8.576  11.150   3.080  0.2090  0.6802  0.0941
  180MOL0     C23654   8.680  11.168   3.167  0.2942  0.6841 -0.2501
  180MOL0     C23655   8.788  11.244   3.132  0.0052 -0.1563  0.2337
  180MOL0     C23656   8.789  11.304   3.004 -0.1504 -0.6383  0.3694
  180MOL0     C23657   8.914  11.373   2.963 -1.4038 -0.3397  0.7129
  180MOL0     O23658   8.925  11.423   2.834  0.0452  0.3426 -0.7844
  180MOL0     C23659   9.052  11.447   2.796 -0.1532  0.8065 -0.1040
  180MOL0     C23660   9.141  11.544   2.843 -0.8306  0.3217 -1.1882
  180MOL0     C23661   9.280  11.557   2.815 -0.5675  0.0720  0.4433
  180MOL0     C23662   9.315  11.481   2.705 -0.5701 -0.4716  0.9126
  180MOL0     O23663   9.444  11.506   2.655  0.3528 -0.1292 -0.2326
  180MOL0     C23664   9.535  11.402   2.683  0.0594  1.2261  0.3383
  180MOL0     C23665   9.657  11.450   2.765 -0.2654  0.3316  0.8032
  180MOL0     C23666   9.630  11.543   2.882 -0.8187 -0.1395  0.3296
  180MOL0     C23667   9.765  11.588   2.938  0.0194 -0.7202 -0.1934
  180MOL0     C23668   9.744  11.709   3.030 -0.3967  0.9042 -0.0339
  180MOL0     C23669   9.863  11.739   3.130 -0.0571 -0.6830 -0.5638
  180MOL0     C23670   9.923  11.620   3.202 -0.5706  0.0278 -0.5550
  180MOL0     C23671  10.030  11.668   3.302 -0.2915  0.1319  0.4767
  180MOL0    Cl23672  10.108  11.519   3.365 -0.1614  0.4455 -0.1530
  180MOL0     C23673   9.230  11.389   2.642  0.0177  0.1728  0.1602
  180MOL0     C23674   9.100  11.363   2.698 -0.3185  0.3680 -0.6595
  180MOL0     O23675   8.998  11.385   3.052  0.3076 -0.2889  0.0237
  180MOL0     C23676   8.677  11.296   2.918  0.5576 -0.1230  0.5226
  180MOL0     C23677   8.574  11.213   2.961 -0.3325 -0.0795 -0.7071
  180MOL0     N23678   8.387  10.978   3.578  0.1684  0.8052  0.1292
  180MOL0     N23679   8.436  10.924   3.686 -0.2740 -0.7321  0.1030
  180MOL0     C23680   8.811  10.539   4.696 -0.3183 -0.4486  0.0115
  180MOL0     C23681   8.929  10.505   4.768 -0.2411 -0.0498  0.4473
  180MOL0     C23682   9.358  10.581   4.912  0.1501 -1.1939  0.0942
  180MOL0     C23683   9.483  10.588   4.854  0.6721 -0.4980  0.4218
  180MOL0     C23684   9.595  10.578   4.926 -0.0407  0.5666  0.1949
  180MOL0     C23685   9.589  10.554   5.070  0.0629 -0.2610  0.5238
  180MOL0     O23686   9.692  10.544   5.157 -0.3612  0.0781  0.6849
  180MOL0     C23687   9.822  10.531   5.097  0.1472 -1.2891  0.3866
  180MOL0     C23688   9.930  10.521   5.198 -0.2189 -0.4794 -0.8418
  180MOL0     C23689   9.966  10.661   5.253  0.2416 -0.4550  0.7303
  180MOL0     C23690   9.994  10.657   5.400  0.2449 -0.1233 -0.5442
  180MOL0     C23691  10.114  10.577   5.422 -0.0026 -0.1576  0.5521
  180MOL0     C23692  10.205  10.514   5.441 -0.1377  0.5154 -0.4460
  180MOL0     C23693   9.463  10.553   5.132 -0.1755 -0.0367  0.4483
  180MOL0     C23694   9.346  10.581   5.056 -0.5564  0.2380  0.0591
  180MOL0     H23695   9.032  10.815   4.848 -0.2897  0.3260  0.3329
  180MOL0     H23696   8.839  10.875   4.701 -0.0402  0.1151 -0.1950
  180MOL0     H23697   8.610  10.889   4.681 -0.5199  1.8084 -1.9296
  180MOL0     H23698   8.550  10.749   4.769  1.1182 -2.7732 -0.6750
  180MOL0     H23699   8.371  10.873   4.654 -1.5253  0.0287 -0.9160
  180MOL0     H23700   8.390  10.707   4.587  0.1493  0.6219  0.9281
  180MOL0     H23701   8.499  10.810   4.386  1.3792  2.5297 -0.3041
  180MOL0     H23702   8.512  10.957   4.465  2.4640 -2.0807  2.2505
  180MOL0     H23703   8.228  10.831   4.397 -2.3919  1.3336 -1.4881
  180MOL0     H23704   8.272  10.993   4.465  0.6978  2.4505 -1.9644
  180MOL0     H23705   8.396  11.027   4.243  3.0414 -2.3142  0.9448
  180MOL0     H23706   8.220  11.027   4.243 -0.2810  0.2602 -0.2357
  180MOL0     H23707   8.223  10.792   4.143 -0.0890 -0.8026 -1.3602
  180MOL0     H23708   8.409  10.819   4.161  0.7851  0.1396 -0.0459
  180MOL0     H23709   8.212  10.976   3.980  0.3315  0.8016 -2.6166
  180MOL0     H23710   8.387  10.994   3.987 -0.3653 -0.0474  2.9749
  180MOL0     H23711   8.245  10.738   3.894  2.0034 -1.7453 -0.7570
  180MOL0     H23712   8.422  10.768   3.895 -0.2008  0.1589  1.0613
  180MOL0     H23713   8.108  10.880   3.715 -0.1618 -0.2900 -2.6751
  180MOL0     H23714   8.072  11.073   3.546 -0.3005  1.3166 -0.5317
  180MOL0     H23715   8.084  10.941   3.430 -1.3703 -0.1383  1.5561
  180MOL0     H23716   8.275  11.175   3.444  1.0199 -1.4845  1.7061
  180MOL0     H23717   8.143  11.159   3.326 -2.8534 -3.2820  0.5361
  180MOL0     H23718   8.352  10.937   3.322 -1.6922 -1.1474  0.6176
  180MOL0     H23719   8.239  10.986   3.207 -0.0807  1.0861  0.7073
  180MOL0     H23720   8.457  11.173   3.311 -0.5120  3.5075 -1.2720
  180MOL0     H23721   8.350  11.211   3.168 -0.2089 -0.3471 -1.3523
  180MOL0     H23722   8.692  11.113   3.260 -1.8659 -0.7656 -0.7496
  180MOL0     H23723   8.868  11.254   3.205  0.2848 -0.8425  0.0290
  180MOL0     H23724   9.120  11.622   2.916  1.9509 -0.3363  0.4545
  180MOL0     H23725   9.349  11.631   2.854  2.5948 -1.2012 -2.3042
  180MOL0     H23726   9.553  11.350   2.588  0.6248  0.9593  0.5889
  180MOL0     H23727   9.485  11.325   2.742 -0.0977  1.6990  0.8265
  180MOL0     H23728   9.721  11.499   2.691  0.6703 -0.7196  0.8763
  180MOL0     H23729   9.723  11.371   2.804 -0.8830 -1.0660 -0.8302
  180MOL0     H23730   9.572  11.486   2.955  1.2316 -0.1860  2.0275
  180MOL0     H23731   9.571  11.629   2.850  0.3948  0.1956 -1.1389
  180MOL0     H23732   9.811  11.503   2.988 -1.4499 -0.4317  1.7886
  180MOL0     H23733   9.836  11.615   2.859 -2.9042 -0.1771 -2.8708
  180MOL0     H23734   9.655  11.692   3.091 -0.4032  1.2589  0.0615
  180MOL0     H23735   9.720  11.798   2.970  0.7286  3.1224  2.6002
  180MOL0     H23736   9.822  11.805   3.207 -0.1523  0.7233 -1.7923
  180MOL0     H23737   9.937  11.803   3.081 -0.1182  1.9317  2.4562
  180MOL0     H23738   9.849  11.561   3.256  0.8156 -2.1381 -0.8687
  180MOL0     H23739   9.964  11.556   3.123 -0.1822 -0.5573  0.1104
  180MOL0     H23740   9.980  11.731   3.375 -2.3870  3.3124 -3.3226
  180MOL0     H23741  10.104  11.725   3.246 -1.1324  0.1943 -0.6158
  180MOL0     H23742   9.255  11.334   2.551 -0.2211 -1.7877  1.2108
  180MOL0     H23743   9.025  11.292   2.664 -1.8375  1.6150 -0.0589
  180MOL0     H23744   8.673  11.346   2.822  2.8535 -1.4124 -0.3383
  180MOL0     H23745   8.487  11.217   2.896 -1.0634  0.6241  0.2897
  180MOL0     H23746   8.747  10.466   4.646 -1.3696  0.6865 -0.3566
  180MOL0     H23747   8.952  10.400   4.782 -1.2110  0.2268  6.4931
  180MOL0     H23748   9.487  10.606   4.747  1.1032 -0.5391  0.4291
  180MOL0     H23749   9.691  10.587   4.877 -0.2251  3.4696  0.2053
  180MOL0     H23750   9.849  10.619   5.038  0.2078 -0.2390  1.9350
  180MOL0     H23751   9.814  10.444   5.031  0.2831  0.2460 -1.7673
  180MOL0     H23752   9.897  10.460   5.282 -2.8557  3.3599  1.2301
  180MOL0     H23753  10.023  10.482   5.156  1.1724  1.9237 -0.1795
  180MOL0     H23754   9.891  10.739   5.240  0.2774 -0.5781 -0.3275
  180MOL0     H23755  10.050  10.693   5.191 -1.3649  0.7624 -0.8991
  180MOL0     H23756  10.015  10.757   5.439  1.4244 -1.0582  1.3389
  180MOL0     H23757   9.912  10.611   5.456  1.5523  0.0510  1.6083
  180MOL0     H23758  10.285  10.445   5.458 -0.6211 -0.2083 -1.0337
  180MOL0     H23759   9.450  10.522   5.235  1.3832  2.8583  1.6383
  180MOL0     H23760   9.246  10.587   5.098 -1.1231 -2.1672 -0.8067
  181MOL0     O23761   7.853  10.099   3.191 -0.1392  0.6252  0.1458
  181MOL0     C23762   7.960  10.068   3.136 -0.0794  0.0619 -0.3351
  181MOL0     O23763   7.966   9.990   3.021 -1.0142 -0.3596 -0.3301
  181MOL0     C23764   7.841   9.968   2.962  0.6597  0.0826  0.7274
  181MOL0     C23765   7.744   9.875   3.016 -0.1817  1.2785  0.1188
  181MOL0     C23766   7.618   9.867   2.960  0.6472 -0.1642 -0.4051
  181MOL0     C23767   7.584   9.944   2.853 -0.1279 -0.7751  0.0962
  181MOL0     O23768   7.456   9.919   2.797 -0.7184 -0.6345  0.2732
  181MOL0     C23769   7.392  10.021   2.716 -0.1702  0.4519  0.0649
  181MOL0     C23770   7.255   9.972   2.664  0.6652 -0.0469  0.4066
  181MOL0     C23771   7.199  10.079   2.570  0.3157 -0.1925  0.1361
  181MOL0     C23772   7.060  10.053   2.507 -0.7529  0.0044 -0.2115
  181MOL0     C23773   7.022  10.151   2.403 -0.3588  0.0788 -0.0543
  181MOL0     C23774   7.088  10.115   2.260 -0.6788 -1.0915 -0.7325
  181MOL0     C23775   7.025   9.983   2.208  0.4708  0.2778  0.3323
  181MOL0     C23776   6.874   9.996   2.181 -0.0914  0.4459  0.3339
  181MOL0     N23777   6.844  10.121   2.112 -0.5621 -0.2679  0.4155
  181MOL0     C23778   6.865  10.152   1.974 -1.6253  0.0630 -0.5551
  181MOL0     C23779   6.796  10.261   1.946  0.3543  0.1021 -0.1324
  181MOL0     C23780   6.787  10.349   1.821 -0.6852  0.6825 -0.0510
  181MOL0     C23781   6.662  10.302   1.746  0.8741  0.6497 -0.2042
  181MOL0     C23782   6.531  10.347   1.803 -0.1106  0.6270  0.0680
  181MOL0     C23783   6.419  10.282   1.721 -0.1157 -0.0871  0.6349
  181MOL0     O23784   6.294  10.330   1.771  0.2414 -0.3799  0.4248
  181MOL0     C23785   6.168  10.271   1.745 -0.4608  0.5557 -1.0533
  181MOL0     C23786   6.064  10.276   1.839 -0.3316 -1.0929  0.2654
  181MOL0     C23787   5.941  10.215   1.830 -0.0236  0.1761 -0.8560
  181MOL0     C23788   5.923  10.141   1.719  0.6863 -0.0850  0.2038
  181MOL0     C23789   5.791  10.080   1.696 -0.1082 -0.4301  0.1925
  181MOL0     O23790   5.751  10.041   1.577 -0.1043  0.4933  0.5572
  181MOL0     C23791   5.640   9.973   1.569 -0.3562 -0.2480  0.2119
  181MOL0     C23792   5.532  10.042   1.527  0.7021  0.2481 -0.2443
  181MOL0     C23793   5.396   9.981   1.534 -0.8796  0.0192 -0.5827
  181MOL0     C23794   5.382   9.848   1.575  0.7332 -0.6427 -0.6332
  181MOL0     O23795   5.253   9.793   1.570 -0.6248 -0.0760  0.0940
  181MOL0     C23796   5.226   9.682   1.651 -0.6678  0.5106  0.3486
  181MOL0     C23797   5.266   9.545   1.584  0.2915 -0.0444 -0.7913
  181MOL0     C23798   5.300   9.446   1.689  1.0616 -0.7240  0.2472
  181MOL0     C23799   5.352   9.320   1.631 -0.1456 -0.5284 -0.0201
  181MOL0     C23800   5.492   9.335   1.571  0.0022  0.0558  0.0362
  181MOL0     C23801   5.614   9.365   1.666  0.5836 -0.1153 -0.4212
  181MOL0     C23802   5.747   9.338   1.598 -0.6862 -0.1777 -0.0005
  181MOL0     C23803   5.863   9.432   1.649  0.2788 -0.1653 -0.0709
  181MOL0    Cl23804   6.016   9.421   1.549  0.3413 -0.0909 -0.2967
  181MOL0     C23805   5.501   9.774   1.621  0.3979 -0.2146 -1.0128
  181MOL0     C23806   5.628   9.840   1.612 -0.0860  0.5069 -0.5291
  181MOL0     O23807   5.735  10.058   1.799  0.3853 -0.9003  0.2305
  181MOL0     C23808   6.026  10.123   1.623  0.9658 -0.1685  0.2850
  181MOL0     C23809   6.143  10.196   1.633 -0.0269 -0.0792  0.8561
  181MOL0     N23810   6.727  10.295   2.059  0.1701  0.3191 -0.1492
  181MOL0     N23811   6.738  10.200   2.146 -0.0721  0.5765 -0.0199
  181MOL0     C23812   7.663  10.042   2.813  0.2732 -0.1586  0.2039
  181MOL0     C23813   7.789  10.056   2.870  0.2518  0.1801 -0.2865
  181MOL0     C23814   8.085  10.110   3.190 -0.0031 -0.2375 -0.3414
  181MOL0     C23815   8.094  10.218   3.275  0.2170  1.4587  0.2030
  181MOL0     C23816   8.217  10.261   3.332 -0.0797 -0.2588  0.6452
  181MOL0     C23817   8.334  10.217   3.276 -0.0876  0.0913 -0.1633
  181MOL0     O23818   8.443  10.263   3.335 -0.5949 -0.1292  0.4870
  181MOL0     C23819   8.570  10.196   3.335 -0.3925  0.1766  0.3853
  181MOL0     C23820   8.661  10.264   3.445 -0.4239 -0.5254 -0.8641
  181MOL0     C23821   8.783  10.172   3.475  0.5702 -0.3081 -0.0621
  181MOL0     C23822   8.745  10.043   3.545  0.7475  0.8758  0.0306
  181MOL0     C23823   8.656  10.049   3.664  0.1190 -0.4484  0.0830
  181MOL0     C23824   8.576  10.066   3.755  0.3286 -0.5399  0.4300
  181MOL0     C23825   8.334  10.115   3.183  0.5610  0.6328 -0.1596
  181MOL0     C23826   8.209  10.051   3.141  0.3032 -0.6281  0.2216
  181MOL0     H23827   7.772   9.806   3.095  5.1734 -1.3703 -3.5216
  181MOL0     H23828   7.545   9.793   2.992  0.4916  0.7701  1.5199
  181MOL0     H23829   7.450  10.049   2.627 -1.9673 -5.2252 -3.4706
  181MOL0     H23830   7.367  10.110   2.774 -3.9619 -0.5176  0.1603
  181MOL0     H23831   7.182   9.941   2.739 -0.5496 -1.4962 -1.2839
  181MOL0     H23832   7.267   9.879   2.608  0.1605  1.2747 -2.0670
  181MOL0     H23833   7.270  10.091   2.488 -1.5434 -1.3963 -1.7378
  181MOL0     H23834   7.186  10.175   2.621  0.4608 -0.1026  0.0059
  181MOL0     H23835   7.062   9.949   2.472 -0.5307 -0.1102  0.1342
  181MOL0     H23836   6.992  10.062   2.593 -0.8743  3.5447 -0.5304
  181MOL0     H23837   7.051  10.250   2.440  3.8123 -1.5331  1.5591
  181MOL0     H23838   6.913  10.154   2.392 -0.5062 -0.4780  1.1399
  181MOL0     H23839   7.196  10.100   2.266 -0.7881 -2.2544 -1.3470
  181MOL0     H23840   7.078  10.196   2.187  1.6605 -0.4701 -0.4303
  181MOL0     H23841   7.074   9.956   2.113  1.9524  0.7042  0.9419
  181MOL0     H23842   7.041   9.897   2.273  3.4075  0.6774  0.3120
  181MOL0     H23843   6.825   9.980   2.277 -0.5904 -1.1570 -0.1637
  181MOL0     H23844   6.841   9.904   2.132 -1.5963  1.0201  0.2428
  181MOL0     H23845   6.945  10.112   1.911 -0.3356 -1.5565  1.9444
  181MOL0     H23846   6.879  10.327   1.765 -0.0928  1.2083  0.6909
  181MOL0     H23847   6.787  10.457   1.837 -1.5671  1.2812 -3.3959
  181MOL0     H23848   6.668  10.193   1.742  1.5114  0.4832  2.7736
  181MOL0     H23849   6.660  10.355   1.650 -2.4873  1.5477  0.2198
  181MOL0     H23850   6.519  10.318   1.908 -2.5564 -0.0249 -0.3399
  181MOL0     H23851   6.524  10.456   1.810  0.1822  0.5576  3.7270
  181MOL0     H23852   6.427  10.174   1.734  0.8108  0.0343  1.2198
  181MOL0     H23853   6.435  10.300   1.614  1.5610 -1.3522  0.6265
  181MOL0     H23854   6.083  10.343   1.922  0.5208 -2.0959  0.8984
  181MOL0     H23855   5.862  10.232   1.903  1.1773 -0.6981  0.7232
  181MOL0     H23856   5.530  10.144   1.490  0.5305  0.9104  1.4865
  181MOL0     H23857   5.308  10.044   1.529  1.2029  3.1822 -0.3453
  181MOL0     H23858   5.117   9.683   1.644 -0.6876 -0.9888  0.1291
  181MOL0     H23859   5.256   9.696   1.755 -3.5364 -0.9990  1.4888
  181MOL0     H23860   5.354   9.568   1.524 -0.1113  0.1752 -1.3165
  181MOL0     H23861   5.187   9.508   1.517 -2.4412  1.7987  1.1520
  181MOL0     H23862   5.207   9.414   1.736 -0.0469 -1.3786 -2.2161
  181MOL0     H23863   5.359   9.478   1.776 -1.1453 -0.2210  1.6447
  181MOL0     H23864   5.360   9.249   1.715  2.8454 -0.3116  0.0018
  181MOL0     H23865   5.284   9.288   1.551 -2.3512  1.6008  0.8968
  181MOL0     H23866   5.482   9.405   1.488 -2.3085 -1.2398 -0.8841
  181MOL0     H23867   5.495   9.240   1.516 -1.1933  0.4725 -0.7779
  181MOL0     H23868   5.608   9.306   1.758  0.8663  0.1760 -0.2120
  181MOL0     H23869   5.611   9.471   1.696  2.5099 -0.2515  0.3861
  181MOL0     H23870   5.774   9.233   1.615 -0.6704 -0.5170 -1.9682
  181MOL0     H23871   5.742   9.345   1.489  1.0167 -2.3375 -0.2877
  181MOL0     H23872   5.890   9.414   1.754  2.5989  0.6863 -0.4545
  181MOL0     H23873   5.820   9.532   1.636 -1.0175 -0.3975  1.9129
  181MOL0     H23874   5.512   9.669   1.643  0.7763  0.2894  1.4817
  181MOL0     H23875   5.715   9.785   1.646  0.0382  0.7279 -0.4848
  181MOL0     H23876   6.003  10.057   1.540 -0.5157 -1.8411  1.9415
  181MOL0     H23877   6.223  10.195   1.560 -1.1287 -0.2165 -0.3880
  181MOL0     H23878   7.644  10.111   2.731  3.0761  0.5648  0.0524
  181MOL0     H23879   7.850  10.141   2.842  1.0458 -0.4457 -0.5171
  181MOL0     H23880   7.999  10.255   3.311 -2.0006 -2.3778 -1.1505
  181MOL0     H23881   8.208  10.336   3.410  0.2693  2.2715 -1.5903
  181MOL0     H23882   8.620  10.195   3.238  0.3184  0.2439  0.7436
  181MOL0     H23883   8.555  10.092   3.365  1.7746  0.2952  2.1149
  181MOL0     H23884   8.693  10.365   3.416 -1.4286 -0.0878 -0.4749
  181MOL0     H23885   8.612  10.278   3.542  1.6987 -3.3705  0.7744
  181MOL0     H23886   8.861  10.225   3.529 -0.3990  2.1717 -0.9520
  181MOL0     H23887   8.827  10.146   3.378  0.6893  0.7160 -0.2921
  181MOL0     H23888   8.693   9.990   3.465  0.6732  2.4998 -1.0466
  181MOL0     H23889   8.832   9.982   3.570  2.3766  3.6269  1.5951
  181MOL0     H23890   8.493  10.074   3.821 -2.1333  0.8879 -2.5950
  181MOL0     H23891   8.431  10.092   3.141 -0.2119 -2.1848 -0.6097
  181MOL0     H23892   8.212   9.976   3.062  0.3492  2.8993 -3.4174
  182MOL0     O23893   8.942   9.042   7.261  0.0106  0.1732 -0.0332
  182MOL0     C23894   8.960   9.129   7.348  0.2716  0.0142  0.0733
  182MOL0     O23895   8.893   9.243   7.359  0.8018 -0.4354 -0.8030
  182MOL0     C23896   8.812   9.283   7.250  0.2255 -0.2240  0.5952
  182MOL0     C23897   8.701   9.360   7.286 -0.0470  0.3717 -0.4645
  182MOL0     C23898   8.603   9.402   7.190 -0.4814 -0.4903 -1.2140
  182MOL0     C23899   8.612   9.373   7.054  1.1101  0.2031 -0.7518
  182MOL0     O23900   8.509   9.409   6.976  0.0855  0.1262 -0.8357
  182MOL0     C23901   8.467   9.311   6.880 -0.4074 -0.1802  0.2667
  182MOL0     C23902   8.320   9.340   6.847 -0.1638 -0.4817  0.1939
  182MOL0     C23903   8.311   9.472   6.767  0.6791 -0.3762 -0.0697
  182MOL0     C23904   8.160   9.510   6.761  0.6731  0.3101  0.3896
  182MOL0     C23905   8.067   9.387   6.720  0.0867  1.1527 -0.4189
  182MOL0     C23906   7.934   9.446   6.676 -0.0957 -0.4958  0.3644
  182MOL0     C23907   7.833   9.328   6.660 -1.0909 -0.2491 -0.4048
  182MOL0     C23908   7.711   9.361   6.574  0.1934 -0.1293  0.1581
  182MOL0     N23909   7.731   9.437   6.447  1.0468  0.3033 -0.2022
  182MOL0     C23910   7.803   9.400   6.337 -0.4936  0.2604  0.7914
  182MOL0     C23911   7.779   9.499   6.247  0.1663  0.2604  0.5243
  182MOL0     C23912   7.871   9.518   6.121  0.1620 -0.0278 -0.3848
  182MOL0     C23913   8.017   9.526   6.159  0.5221 -0.6076  0.5546
  182MOL0     C23914   8.048   9.610   6.287  0.4951  1.1330 -0.1740
  182MOL0     C23915   8.195   9.635   6.305 -0.0178 -0.4994 -0.3787
  182MOL0     O23916   8.267   9.516   6.314  0.3204  0.2009  0.0792
  182MOL0     C23917   8.383   9.523   6.391  0.9109 -0.2496  0.1724
  182MOL0     C23918   8.455   9.637   6.437 -0.0905  0.0268  0.9502
  182MOL0     C23919   8.570   9.626   6.513 -0.5263  0.3104 -0.2051
  182MOL0     C23920   8.630   9.503   6.540  0.1044 -0.1077  0.1479
  182MOL0     C23921   8.756   9.489   6.623  0.5230  0.2545 -0.6060
  182MOL0     O23922   8.830   9.595   6.643  0.0075 -0.4703 -0.0434
  182MOL0     C23923   8.923   9.591   6.742  0.5889 -0.0848 -0.0506
  182MOL0     C23924   9.056   9.553   6.706  0.6655  0.0515  0.2865
  182MOL0     C23925   9.167   9.548   6.793  0.6212  0.6629  0.3617
  182MOL0     C23926   9.142   9.577   6.933 -0.0087 -0.3056  0.5289
  182MOL0     O23927   9.249   9.565   7.019  0.2242  0.3437 -1.3294
  182MOL0     C23928   9.213   9.461   7.118 -0.4549 -0.2335 -0.1704
  182MOL0     C23929   9.345   9.433   7.204 -0.6045  0.2332  0.2163
  182MOL0     C23930   9.458   9.378   7.108 -0.6722  0.5174  0.1895
  182MOL0     C23931   9.597   9.399   7.167  0.4555  0.5869 -1.3618
  182MOL0     C23932   9.646   9.534   7.155  0.4571 -0.1262 -1.0051
  182MOL0     C23933   9.799   9.536   7.125  0.0199 -0.6686  0.4936
  182MOL0     C23934   9.870   9.505   7.252 -0.0804  0.0641 -0.6319
  182MOL0     C23935   9.998   9.439   7.227 -1.3059  0.3192 -0.0057
  182MOL0    Cl23936  10.092   9.558   7.130 -0.4499  0.3430  0.4588
  182MOL0     C23937   9.013   9.608   6.969  1.0975 -0.2299  0.1965
  182MOL0     C23938   8.907   9.614   6.881  0.9019 -0.0998 -0.2742
  182MOL0     O23939   8.783   9.368   6.653  0.2677 -0.0572  0.2570
  182MOL0     C23940   8.558   9.394   6.489 -0.0032  0.4450  0.2027
  182MOL0     C23941   8.439   9.404   6.415 -0.2657 -0.1810  0.7902
  182MOL0     N23942   7.701   9.596   6.304  0.2423 -1.2384 -0.0236
  182MOL0     N23943   7.675   9.558   6.428 -0.1438  0.5282 -0.2302
  182MOL0     C23944   8.726   9.307   7.017 -0.0495  0.9709 -0.2874
  182MOL0     C23945   8.821   9.259   7.104 -0.3623  0.2061 -0.5775
  182MOL0     C23946   9.053   9.101   7.459 -0.0881  0.5995  0.0901
  182MOL0     C23947   9.137   8.984   7.467  0.3540  0.8951  0.1189
  182MOL0     C23948   9.220   8.954   7.575 -0.3400  0.3491 -0.3239
  182MOL0     C23949   9.234   9.047   7.680  0.2864  0.4293  0.1916
  182MOL0     O23950   9.312   9.030   7.795  0.8071 -0.2098  0.4161
  182MOL0     C23951   9.347   8.904   7.848  0.5726 -0.0519  0.4204
  182MOL0     C23952   9.455   8.903   7.963 -0.4141  0.1248 -0.3596
  182MOL0     C23953   9.509   8.773   8.020 -0.5082 -0.0406  0.2798
  182MOL0     C23954   9.407   8.667   8.050  0.8262  1.1526 -0.1653
  182MOL0     C23955   9.307   8.725   8.140  0.0024 -0.1952  0.1182
  182MOL0     C23956   9.233   8.797   8.203  0.1650  0.5357 -0.0328
  182MOL0     C23957   9.160   9.162   7.662 -0.5118  0.4846 -0.0422
  182MOL0     C23958   9.076   9.191   7.559  0.6779 -0.0694 -0.3183
  182MOL0     H23959   8.672   9.378   7.389  0.3766 -1.2500 -0.0282
  182MOL0     H23960   8.521   9.451   7.240  0.4573  1.0192 -1.0693
  182MOL0     H23961   8.477   9.214   6.928  0.7125  0.6440  1.7892
  182MOL0     H23962   8.525   9.315   6.787 -2.4346  2.4004 -1.0344
  182MOL0     H23963   8.262   9.335   6.940  0.3310 -2.7910  0.4428
  182MOL0     H23964   8.269   9.264   6.787  0.0777  0.5226 -1.3361
  182MOL0     H23965   8.330   9.459   6.660  0.6412 -0.7852 -0.0310
  182MOL0     H23966   8.375   9.545   6.817  2.7949 -1.9441 -0.3554
  182MOL0     H23967   8.127   9.560   6.852 -0.4804  1.9940 -0.8902
  182MOL0     H23968   8.145   9.587   6.685 -3.1457  0.3116  0.9305
  182MOL0     H23969   8.058   9.326   6.811 -0.5546  0.2847 -1.0507
  182MOL0     H23970   8.106   9.338   6.630 -0.6006  2.2827 -1.3470
  182MOL0     H23971   7.956   9.482   6.575 -1.8103 -2.5020 -0.8171
  182MOL0     H23972   7.900   9.517   6.752  3.4376  1.3731  0.3959
  182MOL0     H23973   7.893   9.252   6.609  0.2940 -0.6092  1.6490
  182MOL0     H23974   7.809   9.284   6.757  1.0612  3.7263  2.2337
  182MOL0     H23975   7.644   9.415   6.641  1.4786 -0.3761  1.6980
  182MOL0     H23976   7.658   9.266   6.564 -1.4526  0.6393  1.1628
  182MOL0     H23977   7.877   9.320   6.333  0.5784  0.5362  6.4874
  182MOL0     H23978   7.837   9.613   6.078  0.4549  0.5245  0.5580
  182MOL0     H23979   7.860   9.444   6.042  0.4436 -0.6717  0.1743
  182MOL0     H23980   8.070   9.564   6.072 -1.0699 -2.9295 -1.5759
  182MOL0     H23981   8.058   9.428   6.186  2.3754  0.5382  2.2135
  182MOL0     H23982   7.989   9.702   6.284 -1.2573  0.0548 -0.6924
  182MOL0     H23983   8.025   9.555   6.379  0.7787 -1.4399 -1.5370
  182MOL0     H23984   8.212   9.682   6.402 -0.7123 -2.4740  0.7576
  182MOL0     H23985   8.244   9.692   6.225 -1.6108 -2.5969 -3.0063
  182MOL0     H23986   8.418   9.736   6.413 -0.7046  0.1178  2.1549
  182MOL0     H23987   8.626   9.715   6.540 -0.5103 -0.1806  1.4365
  182MOL0     H23988   9.087   9.523   6.606  2.5365 -0.3083  0.9265
  182MOL0     H23989   9.268   9.544   6.755  0.8915 -0.4905  1.1426
  182MOL0     H23990   9.185   9.370   7.063 -0.0998 -1.6286  1.8457
  182MOL0     H23991   9.132   9.483   7.188  0.9702  2.0167  0.8783
  182MOL0     H23992   9.320   9.355   7.276 -2.8317 -1.1477 -1.9070
  182MOL0     H23993   9.376   9.528   7.250 -0.1208  1.4113 -2.3745
  182MOL0     H23994   9.452   9.408   7.003 -2.3074  1.7925  0.6180
  182MOL0     H23995   9.452   9.269   7.102 -1.0485  0.6052 -1.5374
  182MOL0     H23996   9.588   9.370   7.272  1.3438  2.5674 -0.6968
  182MOL0     H23997   9.664   9.325   7.122 -1.2415 -3.3305  1.9397
  182MOL0     H23998   9.626   9.582   7.252  4.3311  0.1943 -0.2162
  182MOL0     H23999   9.588   9.585   7.078  2.7162  1.9260 -1.4923
  182MOL0     H24000   9.834   9.630   7.082 -1.1597 -0.4880 -0.1054
  182MOL0     H24001   9.829   9.461   7.051  1.5487  0.1056  0.2997
  182MOL0     H24002   9.893   9.598   7.305  0.1077  0.0936 -0.7612
  182MOL0     H24003   9.814   9.442   7.322 -0.7991  0.5484 -0.7622
  182MOL0     H24004   9.988   9.338   7.187 -1.0077 -1.6295  4.2973
  182MOL0     H24005  10.064   9.423   7.313 -0.7278 -1.4110 -0.7228
  182MOL0     H24006   8.990   9.632   7.073 -3.3261  3.0770 -1.2723
  182MOL0     H24007   8.808   9.645   6.913  0.3146 -2.1732  0.0716
  182MOL0     H24008   8.605   9.300   6.514  1.5674  0.3197 -2.7985
  182MOL0     H24009   8.384   9.317   6.382 -0.1944 -0.6874  1.9855
  182MOL0     H24010   8.746   9.292   6.911  0.4359 -2.2616  0.1722
  182MOL0     H24011   8.905   9.202   7.064 -0.2906 -0.6740  0.7488
  182MOL0     H24012   9.139   8.904   7.394  1.6910  3.1919 -2.5604
  182MOL0     H24013   9.272   8.860   7.588  0.2257  0.2226 -2.9704
  182MOL0     H24014   9.379   8.843   7.763 -0.1442  0.4349 -0.2091
  182MOL0     H24015   9.254   8.855   7.879  0.2606  1.3380  1.8140
  182MOL0     H24016   9.547   8.955   7.934  1.4867 -2.8823 -0.1490
  182MOL0     H24017   9.410   8.958   8.047  0.1629  1.0722 -0.6473
  182MOL0     H24018   9.572   8.801   8.105 -2.9480  1.5119  1.7145
  182MOL0     H24019   9.579   8.737   7.944 -1.1588 -0.7271 -0.0014
  182MOL0     H24020   9.359   8.625   7.961  1.3678  0.6025 -0.2071
  182MOL0     H24021   9.442   8.577   8.101 -1.3625 -0.0238 -0.6105
  182MOL0     H24022   9.168   8.870   8.248  0.1265  0.2487  0.3796
  182MOL0     H24023   9.174   9.233   7.744 -1.6987  0.7039 -0.0137
  182MOL0     H24024   9.024   9.286   7.560  0.8153  0.0971  3.1613
  183MOL0     O24025   0.971   7.201   3.126  0.4492 -0.2003  0.0810
  183MOL0     C24026   1.026   7.303   3.095  0.9215 -1.6763 -0.8745
  183MOL0     O24027   0.960   7.424   3.064  0.3561  0.4217  0.5225
  183MOL0     C24028   0.826   7.436   3.084  0.1810 -0.2122  0.5831
  183MOL0     C24029   0.788   7.572   3.094 -0.3765 -0.3412 -0.1252
  183MOL0     C24030   0.660   7.611   3.119  0.0983  0.4897  0.2259
  183MOL0     C24031   0.552   7.523   3.121  0.3840  0.6148  0.7694
  183MOL0     O24032   0.415   7.565   3.129 -0.6848  0.3234 -0.0449
  183MOL0     C24033   0.389   7.675   3.210 -0.1529  0.1831 -0.0396
  183MOL0     C24034   0.245   7.720   3.159  0.0129 -0.1126 -0.6656
  183MOL0     C24035   0.184   7.813   3.271  0.1755 -0.3984  0.4099
  183MOL0     C24036   0.041   7.851   3.236  0.3753 -0.5788  0.7841
  183MOL0     C24037  -0.009   7.946   3.343  0.1498  0.0180 -0.1044
  183MOL0     C24038  -0.158   7.980   3.317  0.7142  0.1245  0.0868
  183MOL0     C24039  -0.214   8.059   3.435  0.5944  0.3043  0.2298
  183MOL0     C24040  -0.364   8.095   3.420 -0.0775 -0.5266 -0.5766
  183MOL0     N24041  -0.398   8.236   3.432 -0.2186  0.1158  0.2672
  183MOL0     C24042  -0.386   8.306   3.554  0.2937  0.2274 -0.1081
  183MOL0     C24043  -0.417   8.437   3.524 -0.4727 -0.5945 -0.3786
  183MOL0     C24044  -0.422   8.544   3.616  0.1222  0.0821 -0.1386
  183MOL0     C24045  -0.513   8.527   3.735 -0.3123  0.1832  0.5623
  183MOL0     C24046  -0.485   8.657   3.816  0.0611  0.9518  1.3144
  183MOL0     C24047  -0.567   8.651   3.943 -0.6072  0.4441  0.5612
  183MOL0     O24048  -0.698   8.618   3.915  0.8088 -0.3114 -0.1934
  183MOL0     C24049  -0.786   8.600   4.017 -0.1378 -0.5667  0.2336
  183MOL0     C24050  -0.927   8.602   3.978  0.2446  0.2016 -0.0208
  183MOL0     C24051  -1.024   8.597   4.071 -0.6620 -0.0951  0.2915
  183MOL0     C24052  -0.987   8.585   4.210  0.2549  0.4423 -0.4784
  183MOL0     C24053  -1.092   8.565   4.312 -1.4672  0.4133  0.1133
  183MOL0     O24054  -1.217   8.558   4.265 -0.2861  0.1258  0.3318
  183MOL0     C24055  -1.322   8.552   4.347 -0.1456  0.4609  0.4566
  183MOL0     C24056  -1.428   8.633   4.315  0.1718  0.0703  0.2078
  183MOL0     C24057  -1.535   8.661   4.401  0.2612 -0.2346 -0.5733
  183MOL0     C24058  -1.543   8.589   4.523 -0.9695  0.1444 -0.7286
  183MOL0     O24059  -1.640   8.613   4.618  0.4714  0.5987  0.1921
  183MOL0     C24060  -1.760   8.672   4.566  0.1226 -0.0211 -0.2397
  183MOL0     C24061  -1.832   8.597   4.456  1.2215  0.9794  0.4740
  183MOL0     C24062  -1.887   8.453   4.483  0.3169 -0.4003 -1.0642
  183MOL0     C24063  -1.932   8.375   4.361  0.6742  0.4001  0.4058
  183MOL0     C24064  -2.009   8.247   4.391  0.4523  0.0093 -0.0253
  183MOL0     C24065  -1.922   8.127   4.438  0.0750 -0.2655  0.1373
  183MOL0     C24066  -2.009   8.010   4.489  0.1213  0.6529 -0.0097
  183MOL0     C24067  -1.942   7.928   4.596 -0.0374  0.2164 -0.7972
  183MOL0    Cl24068  -1.785   7.875   4.535 -0.1238  0.3256  0.1799
  183MOL0     C24069  -1.447   8.484   4.547  0.0018  0.1777 -0.2177
  183MOL0     C24070  -1.338   8.472   4.462 -0.0268 -0.5802 -0.3583
  183MOL0     O24071  -1.066   8.561   4.432  0.3874 -0.6680  0.5921
  183MOL0     C24072  -0.846   8.582   4.245 -0.2540  0.1789  0.6349
  183MOL0     C24073  -0.745   8.592   4.153 -0.1105 -0.2058 -0.5063
  183MOL0     N24074  -0.440   8.441   3.383 -0.4720  1.0269  0.0043
  183MOL0     N24075  -0.429   8.325   3.333 -0.0448 -0.3825  0.5186
  183MOL0     C24076   0.589   7.387   3.091  1.1630  0.4528  0.3694
  183MOL0     C24077   0.720   7.346   3.076 -0.5711  0.5165  0.2284
  183MOL0     C24078   1.174   7.307   3.103 -0.4606 -0.1501  0.0329
  183MOL0     C24079   1.252   7.198   3.106 -0.0067  0.1180 -0.4240
  183MOL0     C24080   1.390   7.203   3.119  0.3908  0.0859  0.5341
  183MOL0     C24081   1.448   7.333   3.122  0.6020  1.1201  0.4151
  183MOL0     O24082   1.586   7.359   3.125  0.8046 -0.0619  0.1642
  183MOL0     C24083   1.670   7.247   3.154 -0.9741  0.4347  0.6464
  183MOL0     C24084   1.818   7.298   3.149 -0.0247 -0.1553 -0.2582
  183MOL0     C24085   1.918   7.179   3.168 -0.0741  0.5923  0.1295
  183MOL0     C24086   1.908   7.066   3.056  0.1045 -0.0537 -0.3614
  183MOL0     C24087   1.946   7.126   2.929 -0.2573  0.5217  0.3529
  183MOL0     C24088   1.977   7.170   2.823 -0.9234  0.2763  0.3797
  183MOL0     C24089   1.373   7.449   3.115  0.9898 -0.1408 -0.5368
  183MOL0     C24090   1.237   7.439   3.105  0.0916  0.4988 -0.0042
  183MOL0     H24091   0.872   7.640   3.101  0.0244 -0.5603 -2.2680
  183MOL0     H24092   0.654   7.717   3.145  2.2920  0.9345 -0.8532
  183MOL0     H24093   0.463   7.755   3.201 -0.0109  0.4105  2.3733
  183MOL0     H24094   0.376   7.622   3.305 -3.2000 -0.5920 -0.8034
  183MOL0     H24095   0.186   7.635   3.126 -1.8867  1.4635 -1.5484
  183MOL0     H24096   0.255   7.781   3.068 -1.9889 -0.3830 -1.1015
  183MOL0     H24097   0.237   7.903   3.302  0.4586 -1.0539  1.8947
  183MOL0     H24098   0.170   7.761   3.366  3.4435 -0.0895  1.1518
  183MOL0     H24099   0.018   7.897   3.139  0.0948  1.3654  1.7434
  183MOL0     H24100  -0.010   7.754   3.240 -0.0894 -0.3454  0.6120
  183MOL0     H24101   0.043   8.042   3.333  0.7677 -0.0342  2.1965
  183MOL0     H24102   0.004   7.907   3.444 -0.3982  0.8577  0.3046
  183MOL0     H24103  -0.218   7.889   3.309  0.0562  0.4898  0.7154
  183MOL0     H24104  -0.159   8.027   3.219  1.7359  1.6064  0.7473
  183MOL0     H24105  -0.198   8.006   3.528  3.0953 -1.8196 -1.2866
  183MOL0     H24106  -0.155   8.151   3.444  0.0392  0.5544  1.4699
  183MOL0     H24107  -0.419   8.026   3.484 -1.9089 -0.7528 -2.2797
  183MOL0     H24108  -0.392   8.071   3.317  0.0347 -0.5575 -0.5997
  183MOL0     H24109  -0.344   8.278   3.650 -0.5365  0.2764  0.2819
  183MOL0     H24110  -0.465   8.625   3.556  0.3680 -0.3363 -0.8859
  183MOL0     H24111  -0.318   8.560   3.646  0.8176  3.3783 -3.5823
  183MOL0     H24112  -0.490   8.440   3.797  1.8992  0.9896  0.9580
  183MOL0     H24113  -0.616   8.515   3.699 -0.3127  0.5295  0.4387
  183MOL0     H24114  -0.382   8.662   3.851  1.4005  1.4394 -2.2966
  183MOL0     H24115  -0.495   8.740   3.746  1.7355 -1.8941 -2.6750
  183MOL0     H24116  -0.573   8.747   3.993 -0.6972  0.5907  0.2734
  183MOL0     H24117  -0.512   8.585   4.011  1.9466 -0.1099 -1.8305
  183MOL0     H24118  -0.939   8.621   3.872  1.7536 -0.5813 -0.3640
  183MOL0     H24119  -1.128   8.601   4.040 -0.3276 -1.0522 -1.0048
  183MOL0     H24120  -1.415   8.690   4.223  1.6468  0.1870  0.4575
  183MOL0     H24121  -1.617   8.726   4.373  0.5264  0.0828 -0.6116
  183MOL0     H24122  -1.738   8.777   4.544 -1.3506 -0.1526 -2.6904
  183MOL0     H24123  -1.835   8.684   4.646 -0.7021 -4.5782 -0.0357
  183MOL0     H24124  -1.771   8.569   4.370 -0.5337  0.2769 -0.6013
  183MOL0     H24125  -1.911   8.662   4.416 -0.7535 -0.5554  1.6862
  183MOL0     H24126  -1.976   8.463   4.545  0.5948  1.0621 -0.8588
  183MOL0     H24127  -1.808   8.402   4.539  0.2064  1.0441  0.4967
  183MOL0     H24128  -2.003   8.442   4.313 -1.5873 -1.0674  1.5342
  183MOL0     H24129  -1.849   8.347   4.295  0.3305  1.5025 -0.5112
  183MOL0     H24130  -2.069   8.216   4.305 -1.8017  2.2533  0.6385
  183MOL0     H24131  -2.077   8.278   4.471 -0.7141  1.5735 -1.5366
  183MOL0     H24132  -1.869   8.158   4.529 -0.9459 -1.6330  1.2247
  183MOL0     H24133  -1.856   8.092   4.358  0.8134  0.6450  0.3298
  183MOL0     H24134  -2.101   8.051   4.533 -0.9106 -1.1148 -0.4426
  183MOL0     H24135  -2.036   7.948   4.404 -2.8291 -1.1427  2.0432
  183MOL0     H24136  -2.000   7.842   4.629  0.8887  0.6563  2.2207
  183MOL0     H24137  -1.915   7.986   4.684  3.2183 -1.5921 -0.4323
  183MOL0     H24138  -1.452   8.412   4.627 -0.2239 -0.8254 -1.1098
  183MOL0     H24139  -1.255   8.405   4.480 -0.0146 -1.0574 -2.0164
  183MOL0     H24140  -0.807   8.576   4.346 -2.6716 -0.0825  1.6190
  183MOL0     H24141  -0.642   8.591   4.189 -0.8345  0.1232  1.7282
  183MOL0     H24142   0.509   7.315   3.083  0.5163  0.9527  1.9317
  183MOL0     H24143   0.742   7.244   3.048 -0.6565  0.5978 -0.1465
  183MOL0     H24144   1.192   7.108   3.110  0.1520 -0.5007 -5.6466
  183MOL0     H24145   1.449   7.111   3.120 -1.0135 -0.8541  1.2276
  183MOL0     H24146   1.663   7.166   3.081  1.8732 -1.6611  2.5024
  183MOL0     H24147   1.653   7.212   3.256 -1.0094  1.3655  0.9731
  183MOL0     H24148   1.837   7.350   3.055  0.3857 -0.0656 -0.1328
  183MOL0     H24149   1.824   7.367   3.234 -0.7377 -1.1823  0.6610
  183MOL0     H24150   1.899   7.134   3.266 -0.0441 -0.2970 -0.2627
  183MOL0     H24151   2.022   7.213   3.169 -0.0949  0.6429  1.4672
  183MOL0     H24152   1.974   6.982   3.082  0.8260  0.3337 -0.9097
  183MOL0     H24153   1.805   7.028   3.056 -0.4465  0.9656  3.5123
  183MOL0     H24154   2.002   7.196   2.722  0.1467 -0.6441  0.3895
  183MOL0     H24155   1.410   7.550   3.121 -2.2668  1.2394 -1.3879
  183MOL0     H24156   1.184   7.533   3.096 -1.7608 -0.2280  2.1988
  184MOL0     O24157   5.578  10.721   2.459 -0.1172  0.2639 -0.3433
  184MOL0     C24158   5.581  10.816   2.384 -0.1143 -0.6617 -0.4127
  184MOL0     O24159   5.495  10.838   2.273 -0.2641  0.2668 -0.2598
  184MOL0     C24160   5.398  10.744   2.262  1.0175 -0.3007 -0.9523
  184MOL0     C24161   5.285  10.757   2.342 -0.2552 -0.4433 -0.2484
  184MOL0     C24162   5.189  10.661   2.341  0.8951  0.3101 -0.0760
  184MOL0     C24163   5.194  10.546   2.259  0.0599  0.4095 -0.1744
  184MOL0     O24164   5.090  10.451   2.263  0.0872  0.8548  0.1460
  184MOL0     C24165   5.083  10.360   2.155  0.0514 -0.2767  0.9516
  184MOL0     C24166   4.946  10.291   2.153 -0.2961  0.1351  0.0350
  184MOL0     C24167   4.840  10.391   2.103 -0.0590  0.7441 -0.8338
  184MOL0     C24168   4.702  10.316   2.121  1.2090  0.1511 -0.9090
  184MOL0     C24169   4.597  10.420   2.090 -0.0493 -0.1022  0.0965
  184MOL0     C24170   4.446  10.378   2.124  0.1297 -0.0567  0.8166
  184MOL0     C24171   4.351  10.502   2.109 -0.0197  0.8605  0.0064
  184MOL0     C24172   4.198  10.470   2.093 -0.9617  0.2417  0.5533
  184MOL0     N24173   4.160  10.406   1.965 -0.6735 -0.3598  1.1581
  184MOL0     C24174   4.174  10.470   1.841  0.1512  0.0867 -0.7690
  184MOL0     C24175   4.178  10.372   1.752  0.1017  0.5866 -0.9737
  184MOL0     C24176   4.175  10.389   1.599 -0.0841 -0.6979 -0.6950
  184MOL0     C24177   4.034  10.384   1.551 -0.1791 -0.3766 -1.0548
  184MOL0     C24178   4.022  10.432   1.412 -0.5144 -0.6250  0.7337
  184MOL0     C24179   3.895  10.384   1.349  1.4284  0.3514  0.8143
  184MOL0     O24180   3.778  10.451   1.379  0.5603  0.4988 -0.2796
  184MOL0     C24181   3.674  10.455   1.293 -0.0449  0.1637  0.8191
  184MOL0     C24182   3.547  10.487   1.335 -0.4130 -0.2178 -0.6151
  184MOL0     C24183   3.431  10.494   1.257  0.0771  0.3747  0.4019
  184MOL0     C24184   3.444  10.475   1.119  0.8106 -0.0977  0.7508
  184MOL0     C24185   3.331  10.501   1.027 -0.5109  0.5872  0.6251
  184MOL0     O24186   3.207  10.520   1.087 -0.0263  0.1591 -0.9326
  184MOL0     C24187   3.095  10.531   1.014  0.2044 -0.6011 -0.5640
  184MOL0     C24188   3.016  10.643   1.035 -0.9752  0.0403 -0.3007
  184MOL0     C24189   2.896  10.658   0.969 -0.7745 -0.5015  0.1604
  184MOL0     C24190   2.860  10.576   0.864 -0.3793 -0.4176  0.9100
  184MOL0     O24191   2.738  10.578   0.804 -0.0333 -0.3277 -0.1223
  184MOL0     C24192   2.624  10.584   0.894 -0.3392 -1.0771  0.0537
  184MOL0     C24193   2.558  10.723   0.910 -0.2303 -0.2832  0.3817
  184MOL0     C24194   2.515  10.773   0.772  0.2758  0.0481  0.3123
  184MOL0     C24195   2.431  10.901   0.774 -0.0732  0.5452 -0.5116
  184MOL0     C24196   2.280  10.875   0.790 -0.1668 -0.2842 -0.4149
  184MOL0     C24197   2.202  11.005   0.788 -0.4631 -0.3285 -0.2341
  184MOL0     C24198   2.047  10.988   0.780 -0.0300  0.8549  0.4494
  184MOL0     C24199   1.981  11.102   0.705  0.3357  0.4640  0.1220
  184MOL0    Cl24200   1.810  11.070   0.690 -0.0331 -0.0270  0.1353
  184MOL0     C24201   2.939  10.475   0.831  0.1938  0.1659  0.3824
  184MOL0     C24202   3.060  10.448   0.901 -0.0453 -0.1990  0.2074
  184MOL0     O24203   3.343  10.498   0.903 -0.9758  0.3005  0.0619
  184MOL0     C24204   3.569  10.449   1.068  0.2563  0.0847 -0.3628
  184MOL0     C24205   3.688  10.434   1.148  0.4061 -0.2855 -0.0806
  184MOL0     N24206   4.183  10.249   1.810  0.7714  0.6171  0.8509
  184MOL0     N24207   4.164  10.274   1.935  0.4585  0.2636  1.1751
  184MOL0     C24208   5.305  10.542   2.176 -0.4966  0.2675 -0.0273
  184MOL0     C24209   5.406  10.634   2.180  0.5968 -0.3423  0.1549
  184MOL0     C24210   5.688  10.916   2.412 -0.2776  0.2261  0.5742
  184MOL0     C24211   5.697  11.033   2.332  0.4113 -0.1503 -0.2418
  184MOL0     C24212   5.799  11.122   2.344 -0.6027 -0.7548  0.2670
  184MOL0     C24213   5.899  11.102   2.436 -0.0948 -0.0282 -0.1128
  184MOL0     O24214   5.994  11.197   2.432 -0.1196  0.2445 -0.3142
  184MOL0     C24215   6.115  11.190   2.501 -0.0687  0.5140 -0.1408
  184MOL0     C24216   6.213  11.085   2.433 -0.5220 -0.1162  0.5946
  184MOL0     C24217   6.343  11.068   2.517  1.0601 -0.3972 -0.0164
  184MOL0     C24218   6.447  10.969   2.460 -0.7658  0.7363 -0.8560
  184MOL0     C24219   6.555  10.930   2.555 -0.2333 -0.2488 -0.4480
  184MOL0     C24220   6.645  10.902   2.633  0.4100 -0.0799 -0.3566
  184MOL0     C24221   5.890  10.995   2.534 -0.9001  1.1984 -0.0826
  184MOL0     C24222   5.788  10.903   2.512  1.0097  0.0635  0.6457
  184MOL0     H24223   5.284  10.848   2.401 -0.2404 -1.2946  1.0985
  184MOL0     H24224   5.098  10.664   2.400  2.0521  0.7653  1.7575
  184MOL0     H24225   5.169  10.294   2.161  2.5188  2.7924  1.9300
  184MOL0     H24226   5.106  10.406   2.059  0.7943 -1.2466  0.6467
  184MOL0     H24227   4.936  10.251   2.254  2.0093  1.5359  0.9135
  184MOL0     H24228   4.945  10.214   2.075  0.2082 -0.7182  0.8520
  184MOL0     H24229   4.850  10.427   2.001  0.7437  3.9357  0.2485
  184MOL0     H24230   4.840  10.473   2.176  1.1473 -0.4072  0.5420
  184MOL0     H24231   4.705  10.239   2.044  1.3287  0.5688 -1.3250
  184MOL0     H24232   4.683  10.261   2.214  0.1823 -0.1819 -1.3043
  184MOL0     H24233   4.599  10.447   1.984  0.3745  2.0988  0.6104
  184MOL0     H24234   4.620  10.513   2.143  2.3870 -0.4455 -0.2417
  184MOL0     H24235   4.450  10.343   2.228  4.1848 -2.7316  0.0022
  184MOL0     H24236   4.418  10.301   2.052  0.3653 -0.6457  1.3394
  184MOL0     H24237   4.372  10.559   2.200 -1.2079 -3.0421  3.0310
  184MOL0     H24238   4.390  10.558   2.024  1.8682 -0.1311  0.1508
  184MOL0     H24239   4.142  10.564   2.091 -0.1450  0.7233 -0.0733
  184MOL0     H24240   4.175  10.400   2.174  1.3512  0.0947  1.1543
  184MOL0     H24241   4.165  10.575   1.816 -0.3252 -0.0864 -1.3702
  184MOL0     H24242   4.231  10.304   1.560 -1.1504 -2.2513  1.0060
  184MOL0     H24243   4.216  10.486   1.569  1.5718 -0.4451  2.0050
  184MOL0     H24244   3.970  10.437   1.622 -1.7738 -1.8992 -1.2787
  184MOL0     H24245   4.007  10.278   1.562  1.5854 -0.6810  1.0283
  184MOL0     H24246   4.021  10.540   1.399  1.6650 -0.2717  2.8970
  184MOL0     H24247   4.111  10.396   1.359  1.9372  4.1781  1.1439
  184MOL0     H24248   3.876  10.281   1.381 -1.9378  0.8522  0.7829
  184MOL0     H24249   3.919  10.386   1.243  1.7544  0.7330  0.8927
  184MOL0     H24250   3.549  10.514   1.440  5.2216  1.9504 -0.9020
  184MOL0     H24251   3.336  10.520   1.303  1.2092  1.7276  2.0919
  184MOL0     H24252   3.039  10.712   1.116 -1.1643  0.1325 -0.3244
  184MOL0     H24253   2.847  10.748   1.004 -0.9231 -1.5635  2.9563
  184MOL0     H24254   2.656  10.548   0.993 -1.3378 -1.4869  0.2351
  184MOL0     H24255   2.550  10.512   0.857  2.0521 -4.1147  0.7187
  184MOL0     H24256   2.630  10.794   0.951  0.2791 -0.1642 -0.6877
  184MOL0     H24257   2.471  10.725   0.976  0.3885  0.7018  1.1995
  184MOL0     H24258   2.469  10.686   0.723 -2.4251  1.7981 -0.4789
  184MOL0     H24259   2.610  10.789   0.721  0.8071 -2.1712  0.4844
  184MOL0     H24260   2.470  10.965   0.854  0.3654  1.9039 -1.7678
  184MOL0     H24261   2.452  10.937   0.673  0.0633 -0.7090 -0.9404
  184MOL0     H24262   2.273  10.816   0.882  2.2310 -2.5755 -1.5779
  184MOL0     H24263   2.236  10.816   0.710 -2.4758  1.9725 -0.9477
  184MOL0     H24264   2.235  11.048   0.693 -0.7548 -2.2605 -1.2526
  184MOL0     H24265   2.225  11.071   0.872 -3.3010 -0.5591  0.8110
  184MOL0     H24266   2.021  10.905   0.714 -0.5736 -1.9240  3.8372
  184MOL0     H24267   2.007  10.988   0.882  0.0806  0.1028  0.4965
  184MOL0     H24268   2.029  11.110   0.607 -0.6656 -1.2034 -0.5538
  184MOL0     H24269   1.996  11.196   0.758 -1.3557  1.6343 -1.3327
  184MOL0     H24270   2.901  10.413   0.750 -4.7264  2.6833  0.4103
  184MOL0     H24271   3.123  10.369   0.863  1.5210  1.1797 -0.1846
  184MOL0     H24272   3.575  10.446   0.959 -2.7216 -0.9549 -0.5839
  184MOL0     H24273   3.782  10.428   1.093 -1.4417  0.9876 -3.6821
  184MOL0     H24274   5.333  10.458   2.112 -0.7362  0.8267 -0.8780
  184MOL0     H24275   5.491  10.618   2.113 -0.7473  0.9699 -1.9946
  184MOL0     H24276   5.631  11.056   2.249  2.7721  0.8762 -1.9257
  184MOL0     H24277   5.789  11.211   2.281  0.4269 -0.4757  0.4820
  184MOL0     H24278   6.096  11.156   2.603 -0.6135  0.8888 -0.1089
  184MOL0     H24279   6.155  11.292   2.498  2.6729 -0.4954 -2.2617
  184MOL0     H24280   6.168  10.986   2.426  1.0240 -0.7796 -0.6371
  184MOL0     H24281   6.241  11.115   2.331 -0.7631  1.7567  1.0372
  184MOL0     H24282   6.322  11.038   2.620  1.0469  0.4816  0.2469
  184MOL0     H24283   6.388  11.168   2.513  2.7663 -1.0917  0.6783
  184MOL0     H24284   6.395  10.876   2.435  0.8196 -0.8849  1.4318
  184MOL0     H24285   6.489  11.004   2.365  0.7001 -1.8535 -1.2802
  184MOL0     H24286   6.723  10.884   2.704  0.2027  0.3866 -0.0056
  184MOL0     H24287   5.961  10.981   2.615 -1.0184 -2.5583 -0.4597
  184MOL0     H24288   5.774  10.824   2.584  0.1705 -0.3924 -0.0146
  185MOL0     O24289   4.867  10.946   9.314  0.5561  1.2594  0.3450
  185MOL0     C24290   4.904  11.053   9.277 -0.3239  0.7588 -0.8606
  185MOL0     O24291   4.839  11.133   9.195 -0.3193 -0.1923  0.2638
  185MOL0     C24292   4.717  11.089   9.138  0.2130 -0.5762 -0.0641
  185MOL0     C24293   4.612  11.044   9.215 -0.2406  0.2869  0.0724
  185MOL0     C24294   4.499  10.992   9.139 -0.3029 -0.0726 -0.3528
  185MOL0     C24295   4.498  10.984   9.005 -0.2841 -0.5025 -0.0628
  185MOL0     O24296   4.386  10.932   8.946 -0.6683 -0.5864 -0.5207
  185MOL0     C24297   4.268  10.899   9.016  0.9284  0.1611 -0.1653
  185MOL0     C24298   4.167  10.840   8.918 -0.1266 -0.7684 -0.3175
  185MOL0     C24299   4.046  10.780   8.987  0.4737 -0.5523  0.9727
  185MOL0     C24300   4.080  10.639   9.058  1.3950 -0.1699  0.0796
  185MOL0     C24301   3.954  10.588   9.139 -0.2864  0.4348  0.8233
  185MOL0     C24302   3.965  10.448   9.209 -0.3416 -0.6565  0.2774
  185MOL0     C24303   4.045  10.468   9.341 -0.2291 -0.5388 -0.4510
  185MOL0     C24304   4.152  10.354   9.361 -0.2554 -0.3662 -0.3018
  185MOL0     N24305   4.274  10.363   9.288  0.5379  0.7910 -0.3787
  185MOL0     C24306   4.345  10.477   9.259  0.1320 -0.2031  0.0883
  185MOL0     C24307   4.419  10.441   9.150 -0.1166 -0.1519 -0.3071
  185MOL0     C24308   4.512  10.528   9.071 -0.7718  0.0938 -0.6187
  185MOL0     C24309   4.625  10.604   9.144  0.2441  0.2738  0.2567
  185MOL0     C24310   4.732  10.515   9.199  0.7609  0.1980  0.5086
  185MOL0     C24311   4.865  10.585   9.236 -0.2287  0.8020  0.0481
  185MOL0     O24312   4.934  10.475   9.302 -0.2130  0.0108  0.3827
  185MOL0     C24313   5.038  10.501   9.390  0.6300  0.3774  0.5247
  185MOL0     C24314   5.103  10.383   9.443 -0.3398  0.2505 -0.2487
  185MOL0     C24315   5.189  10.396   9.556 -0.7301  1.0247 -0.0209
  185MOL0     C24316   5.216  10.522   9.611 -0.5396  0.6762  0.7307
  185MOL0     C24317   5.318  10.535   9.722  0.3192 -0.0196 -0.3356
  185MOL0     O24318   5.306  10.458   9.837  0.5003 -0.4601 -0.2546
  185MOL0     C24319   5.379  10.488   9.942  0.1891 -0.5875  0.3425
  185MOL0     C24320   5.320  10.569  10.039  0.2906  0.7059 -0.4328
  185MOL0     C24321   5.384  10.610  10.153  0.2547  0.3542 -0.4459
  185MOL0     C24322   5.515  10.573  10.170 -0.2805  0.0242 -0.1022
  185MOL0     O24323   5.585  10.606  10.278 -0.3097  0.0247 -0.4971
  185MOL0     C24324   5.603  10.745  10.311 -0.7416  0.5163 -0.4131
  185MOL0     C24325   5.599  10.767  10.463  0.1847 -0.4884 -0.5211
  185MOL0     C24326   5.458  10.735  10.527  0.1208  0.9096 -0.2400
  185MOL0     C24327   5.420  10.840  10.635 -0.3234  0.5314  0.5159
  185MOL0     C24328   5.288  10.802  10.692 -0.1526  0.7507  0.5310
  185MOL0     C24329   5.294  10.690  10.794  0.1796  0.2770  0.4482
  185MOL0     C24330   5.173  10.696  10.891 -0.0258  0.4619 -0.0124
  185MOL0     C24331   5.161  10.565  10.970  0.5524  0.5460  0.1911
  185MOL0    Cl24332   5.106  10.427  10.862  0.0112 -0.3889  0.4289
  185MOL0     C24333   5.577  10.487  10.075 -0.1312  0.1750  0.2257
  185MOL0     C24334   5.507  10.449   9.962  1.1064  0.4368 -0.0230
  185MOL0     O24335   5.394  10.636   9.714 -0.4987  0.4195  0.3218
  185MOL0     C24336   5.170  10.635   9.544  0.9069 -0.1621  0.2398
  185MOL0     C24337   5.085  10.627   9.430  0.7811  0.2200  0.1935
  185MOL0     N24338   4.395  10.313   9.112  0.5798  0.2633  0.1523
  185MOL0     N24339   4.319  10.267   9.201 -0.1571 -0.9812 -0.8052
  185MOL0     C24340   4.610  11.025   8.933 -0.4101  0.0266  0.7928
  185MOL0     C24341   4.723  11.080   9.000 -0.6341  0.2197 -0.5532
  185MOL0     C24342   5.034  11.100   9.337 -0.0310  0.5809  0.1178
  185MOL0     C24343   5.106  11.023   9.428 -0.1851  0.6985  1.0851
  185MOL0     C24344   5.239  11.052   9.457 -0.3958 -0.7207 -0.7619
  185MOL0     C24345   5.295  11.180   9.418  0.2818  0.6678  0.1199
  185MOL0     O24346   5.428  11.202   9.461  0.9275  0.5250 -0.4498
  185MOL0     C24347   5.528  11.140   9.384  0.1117  0.0784  0.1073
  185MOL0     C24348   5.567  11.227   9.263 -0.0915  0.9558 -0.3602
  185MOL0     C24349   5.593  11.372   9.315  0.5871  1.0486  0.5322
  185MOL0     C24350   5.740  11.393   9.351 -0.1202 -0.4267 -0.3384
  185MOL0     C24351   5.840  11.366   9.239  1.1646 -0.7486 -0.1429
  185MOL0     C24352   5.906  11.342   9.139  0.4645  0.1739  0.6621
  185MOL0     C24353   5.212  11.262   9.344  0.1348 -0.1089 -0.3374
  185MOL0     C24354   5.087  11.223   9.298 -0.4981 -0.0308  0.4903
  185MOL0     H24355   4.617  11.031   9.323  1.7860  0.6152  0.0644
  185MOL0     H24356   4.421  10.949   9.200 -0.3776 -0.1966 -0.5342
  185MOL0     H24357   4.225  10.988   9.063  0.8538  1.0863 -1.8842
  185MOL0     H24358   4.289  10.828   9.097  0.9554 -0.7355 -0.9372
  185MOL0     H24359   4.225  10.762   8.867  0.0331 -0.7561 -0.1594
  185MOL0     H24360   4.138  10.922   8.852 -0.4697 -0.9015 -0.3346
  185MOL0     H24361   3.967  10.767   8.913  1.3150 -1.5040  0.2064
  185MOL0     H24362   4.016  10.842   9.071 -0.0154  0.4776  0.0547
  185MOL0     H24363   4.115  10.563   8.988 -0.0504 -1.5964  0.8214
  185MOL0     H24364   4.155  10.658   9.134  0.2598 -0.1350  1.2232
  185MOL0     H24365   3.872  10.581   9.067 -0.4356 -3.7167  1.2043
  185MOL0     H24366   3.921  10.658   9.216  0.1252  1.4369  0.1188
  185MOL0     H24367   4.027  10.389   9.141  0.0512  1.6781 -1.4926
  185MOL0     H24368   3.867  10.404   9.230 -0.6305  0.7905  2.1968
  185MOL0     H24369   4.097  10.563   9.359  1.7312 -1.4270 -1.1508
  185MOL0     H24370   3.973  10.461   9.423 -4.0315  0.9030 -3.3600
  185MOL0     H24371   4.103  10.258   9.340 -2.1463  0.1268  1.5680
  185MOL0     H24372   4.171  10.350   9.468  0.6644 -1.7619 -0.4953
  185MOL0     H24373   4.331  10.576   9.301  0.5738 -0.8776  1.9192
  185MOL0     H24374   4.452  10.605   9.022 -2.7872 -0.7234  0.4633
  185MOL0     H24375   4.554  10.465   8.992 -1.3606 -3.2671  1.5130
  185MOL0     H24376   4.576  10.671   9.215 -0.3968  1.0610 -0.8850
  185MOL0     H24377   4.675  10.669   9.071 -0.3432 -0.1948 -0.5894
  185MOL0     H24378   4.688  10.470   9.288 -0.9639 -0.3246 -0.5583
  185MOL0     H24379   4.748  10.436   9.124 -1.5693  1.2559 -1.2269
  185MOL0     H24380   4.844  10.670   9.303 -1.1712  1.1534 -0.6754
  185MOL0     H24381   4.918  10.616   9.146  1.4441 -0.2985  0.6159
  185MOL0     H24382   5.073  10.285   9.408  1.5582  0.3736 -2.5229
  185MOL0     H24383   5.226  10.307   9.608 -0.7497 -0.9815 -3.1792
  185MOL0     H24384   5.215  10.596  10.027  0.0139 -0.9282 -2.1321
  185MOL0     H24385   5.332  10.673  10.224 -1.9352 -1.8073 -0.0100
  185MOL0     H24386   5.526  10.804  10.261 -0.6756  1.9675  1.1299
  185MOL0     H24387   5.695  10.787  10.269 -1.5885  2.5863 -0.2649
  185MOL0     H24388   5.625  10.870  10.490  1.9844 -0.8426 -0.7239
  185MOL0     H24389   5.689  10.718  10.502  0.2047  0.3997  0.6061
  185MOL0     H24390   5.469  10.638  10.575 -3.9398  0.0085 -0.7736
  185MOL0     H24391   5.383  10.718  10.450  1.5432 -1.2453 -1.2425
  185MOL0     H24392   5.493  10.846  10.716  0.8648 -1.2789 -0.3616
  185MOL0     H24393   5.398  10.938  10.592 -0.2623  0.1281 -0.4827
  185MOL0     H24394   5.219  10.774  10.611  2.3295  0.3105 -1.5703
  185MOL0     H24395   5.252  10.892  10.742 -0.5483 -0.7110  3.0745
  185MOL0     H24396   5.384  10.705  10.855 -1.7473 -2.1422  4.2828
  185MOL0     H24397   5.289  10.599  10.733 -0.4821  0.2346  0.5620
  185MOL0     H24398   5.194  10.773  10.966  3.0956 -1.1331  0.9364
  185MOL0     H24399   5.080  10.716  10.837 -0.1044  1.3266  0.4331
  185MOL0     H24400   5.091  10.582  11.052 -0.6154 -1.1607 -0.3826
  185MOL0     H24401   5.257  10.541  11.017 -0.4780 -0.0418  2.1004
  185MOL0     H24402   5.675  10.441  10.083 -0.8070 -1.3292  0.1482
  185MOL0     H24403   5.551  10.379   9.892  0.0159 -1.0313  0.7236
  185MOL0     H24404   5.198  10.735   9.579 -0.9395  0.7236 -0.6952
  185MOL0     H24405   5.050  10.719   9.385  2.2164 -0.2429 -1.9690
  185MOL0     H24406   4.615  11.019   8.825 -1.0064  0.1666  0.7535
  185MOL0     H24407   4.810  11.126   8.956 -1.5474  1.0982 -1.5101
  185MOL0     H24408   5.062  10.940   9.483  0.2512  0.8516  1.6722
  185MOL0     H24409   5.301  10.987   9.517  1.0994 -0.6377 -2.1518
  185MOL0     H24410   5.492  11.043   9.348 -5.0095  2.0808 -1.1130
  185MOL0     H24411   5.616  11.127   9.448 -1.0621 -0.3104  1.6975
  185MOL0     H24412   5.659  11.182   9.225 -0.6070 -3.1750  2.6022
  185MOL0     H24413   5.486  11.218   9.190 -1.2740 -0.1696  1.0456
  185MOL0     H24414   5.522  11.400   9.393 -1.8525 -1.1040 -0.7260
  185MOL0     H24415   5.578  11.446   9.235  4.7583  3.9581  2.1432
  185MOL0     H24416   5.756  11.496   9.387  1.6406 -0.1215 -1.8433
  185MOL0     H24417   5.767  11.336   9.440  1.5102  2.3449  1.1036
  185MOL0     H24418   5.974  11.326   9.057  3.9726 -1.1192  3.5725
  185MOL0     H24419   5.249  11.359   9.310  2.0263 -0.3755  0.7780
  185MOL0     H24420   5.028  11.282   9.229 -2.3971 -1.3411  0.9050
  186MOL0     O24421   6.815   1.679   0.297 -0.1187  0.2935 -0.0010
  186MOL0     C24422   6.862   1.778   0.243 -1.1823  0.1717  0.1674
  186MOL0     O24423   6.794   1.877   0.205  0.0983  0.5508  0.1695
  186MOL0     C24424   6.665   1.862   0.156  0.3954  0.3823 -0.3027
  186MOL0     C24425   6.595   1.745   0.122  0.7475  0.3148  0.2648
  186MOL0     C24426   6.461   1.755   0.068 -0.1484  0.1527  0.0413
  186MOL0     C24427   6.401   1.875   0.054  0.4362 -0.0589  0.1076
  186MOL0     O24428   6.274   1.888   0.001 -0.1000 -0.0940 -0.0710
  186MOL0     C24429   6.185   1.773  -0.009  0.0666 -0.1800 -0.0663
  186MOL0     C24430   6.048   1.800  -0.084  0.0141 -0.1006 -0.4103
  186MOL0     C24431   5.945   1.859   0.008  0.1818 -0.0798  0.9301
  186MOL0     C24432   5.814   1.878  -0.068  0.3111  0.3674 -0.2437
  186MOL0     C24433   5.839   1.981  -0.173  0.2878  0.3940  1.1576
  186MOL0     C24434   5.709   2.046  -0.218 -0.4290 -1.0693  0.1027
  186MOL0     C24435   5.596   1.960  -0.290  1.1134 -0.2623  0.0773
  186MOL0     C24436   5.460   2.033  -0.285 -0.3414  0.1423 -0.6016
  186MOL0     N24437   5.375   1.971  -0.184  0.9842  1.0782  0.8677
  186MOL0     C24438   5.338   2.017  -0.056 -0.2278 -0.2989 -0.4036
  186MOL0     C24439   5.237   1.943  -0.022 -0.1584 -0.1980 -0.4070
  186MOL0     C24440   5.144   1.966   0.090 -0.5241 -0.0992  0.2842
  186MOL0     C24441   5.031   2.074   0.057 -0.0151 -0.9038 -0.3846
  186MOL0     C24442   4.924   2.023  -0.040  0.3685  0.2803  0.2033
  186MOL0     C24443   4.836   1.918   0.028  0.1155  0.0064  0.4808
  186MOL0     O24444   4.777   1.978   0.147 -0.5241  0.5902 -0.0722
  186MOL0     C24445   4.685   2.083   0.123  0.6289  0.1992 -0.2778
  186MOL0     C24446   4.662   2.180   0.211 -0.3895 -0.1176 -1.1093
  186MOL0     C24447   4.566   2.281   0.198 -0.0484  0.1313  0.0865
  186MOL0     C24448   4.483   2.289   0.083  0.0669  0.2453 -0.5575
  186MOL0     C24449   4.360   2.377   0.086 -0.0857 -0.4341  0.3092
  186MOL0     O24450   4.311   2.421   0.206 -0.9567 -0.2732 -0.7643
  186MOL0     C24451   4.195   2.494   0.217  0.0694  0.8375 -0.1137
  186MOL0     C24452   4.178   2.613   0.145 -0.4532  0.1767 -0.2115
  186MOL0     C24453   4.062   2.690   0.159 -0.1171  0.8118  0.4760
  186MOL0     C24454   3.964   2.649   0.250 -0.2730 -0.2111 -0.8464
  186MOL0     O24455   3.861   2.733   0.277 -0.0630 -0.4746 -0.1007
  186MOL0     C24456   3.812   2.818   0.169  0.0599 -0.1395  0.7007
  186MOL0     C24457   3.848   2.959   0.193 -0.0618 -0.6524  0.5506
  186MOL0     C24458   3.846   3.047   0.068 -0.1099 -0.2209 -0.6337
  186MOL0     C24459   3.825   3.202   0.095  0.3493  0.4241  0.2204
  186MOL0     C24460   3.687   3.248   0.148 -1.1455  0.1661 -0.8806
  186MOL0     C24461   3.587   3.243   0.030  0.5457 -0.1753  0.0812
  186MOL0     C24462   3.449   3.256   0.091  0.9850 -0.4942  0.0866
  186MOL0     C24463   3.405   3.122   0.161  0.2698  0.7275  0.2850
  186MOL0    Cl24464   3.433   2.973   0.066 -0.2501  0.0269  0.5203
  186MOL0     C24465   3.976   2.523   0.314  0.0735 -0.4058 -0.6592
  186MOL0     C24466   4.088   2.443   0.289 -0.5994 -0.5124 -0.0515
  186MOL0     O24467   4.314   2.406  -0.028 -0.4461 -0.2152 -0.5444
  186MOL0     C24468   4.506   2.193  -0.017  1.2552 -0.1285 -0.6103
  186MOL0     C24469   4.602   2.090   0.005 -0.8456 -0.3036 -0.1734
  186MOL0     N24470   5.214   1.839  -0.115  0.0286 -0.2507 -0.4095
  186MOL0     N24471   5.296   1.855  -0.209  0.6313 -0.6752 -0.0303
  186MOL0     C24472   6.475   1.991   0.074  0.8398  0.7029  0.5365
  186MOL0     C24473   6.605   1.979   0.119  0.1317  1.1370  0.2791
  186MOL0     C24474   7.009   1.800   0.235 -0.4872  1.0968 -0.9095
  186MOL0     C24475   7.099   1.722   0.310  0.3750 -0.2660  0.5735
  186MOL0     C24476   7.235   1.747   0.306 -0.6538  0.3079 -0.1133
  186MOL0     C24477   7.292   1.859   0.235 -0.1179  0.5456 -0.1976
  186MOL0     O24478   7.430   1.891   0.238  0.3907 -1.3647  0.6715
  186MOL0     C24479   7.517   1.808   0.318  0.0232 -1.0600 -0.3394
  186MOL0     C24480   7.656   1.873   0.308 -0.1252 -0.3376 -0.4790
  186MOL0     C24481   7.764   1.778   0.357  0.3216  0.4799 -1.2641
  186MOL0     C24482   7.902   1.857   0.374 -0.3798 -0.5094 -0.4975
  186MOL0     C24483   8.014   1.788   0.439  0.3389  0.6868  0.0684
  186MOL0     C24484   8.116   1.755   0.500  0.4886 -0.3972 -0.6901
  186MOL0     C24485   7.204   1.935   0.161  0.6075 -0.9440 -0.3340
  186MOL0     C24486   7.064   1.910   0.164 -0.6015 -0.9780  0.4512
  186MOL0     H24487   6.629   1.644   0.142  1.9514  0.8993  1.3109
  186MOL0     H24488   6.413   1.662   0.042  0.9154 -0.2327 -0.6439
  186MOL0     H24489   6.155   1.723   0.084 -1.9073 -1.3365 -1.2606
  186MOL0     H24490   6.221   1.686  -0.064  2.2442  0.3570  0.4125
  186MOL0     H24491   6.008   1.706  -0.123 -2.4639  0.9947 -0.7163
  186MOL0     H24492   6.072   1.859  -0.173 -0.0330  0.8725  0.2111
  186MOL0     H24493   5.991   1.955   0.033  3.3112 -0.7626 -1.6250
  186MOL0     H24494   5.932   1.802   0.101 -0.6670 -1.7495 -0.1639
  186MOL0     H24495   5.780   1.782  -0.108 -1.5811  0.9353 -0.0901
  186MOL0     H24496   5.738   1.913   0.002  3.2238  2.3149  2.2364
  186MOL0     H24497   5.898   1.949  -0.259  1.3476 -1.5626  2.5496
  186MOL0     H24498   5.908   2.060  -0.142 -0.7105  2.2066 -0.8959
  186MOL0     H24499   5.735   2.125  -0.289 -0.8839 -0.6171  0.4313
  186MOL0     H24500   5.669   2.096  -0.130 -2.7755 -2.1181 -0.3101
  186MOL0     H24501   5.626   1.935  -0.392 -0.1534  1.6005 -0.7957
  186MOL0     H24502   5.574   1.861  -0.247  0.1782 -0.7274 -1.4054
  186MOL0     H24503   5.415   2.017  -0.383  1.4029 -0.8289 -1.3016
  186MOL0     H24504   5.475   2.138  -0.258  1.2340 -0.7509  2.5660
  186MOL0     H24505   5.374   2.102   0.000 -0.5247 -0.0490 -0.5870
  186MOL0     H24506   5.203   1.996   0.177 -0.5716 -2.1713  1.0898
  186MOL0     H24507   5.110   1.865   0.114  1.3671 -1.0802 -0.9379
  186MOL0     H24508   5.070   2.167   0.015  0.7688 -0.3240  1.5142
  186MOL0     H24509   4.990   2.085   0.158  0.6305  0.0667 -0.2178
  186MOL0     H24510   4.867   2.108  -0.079  0.8697  0.3768 -0.3254
  186MOL0     H24511   4.968   1.965  -0.121 -1.4802  0.5354 -1.0354
  186MOL0     H24512   4.881   1.821   0.052  0.5320  0.1238  0.1812
  186MOL0     H24513   4.757   1.893  -0.044  0.7144 -0.8825  0.1221
  186MOL0     H24514   4.726   2.180   0.298 -0.8542 -2.3826 -0.6985
  186MOL0     H24515   4.555   2.362   0.270  1.0431  0.8804 -0.5465
  186MOL0     H24516   4.258   2.653   0.083  1.4011 -0.6165  1.5128
  186MOL0     H24517   4.050   2.787   0.112  1.6239  1.4966  1.3499
  186MOL0     H24518   3.703   2.808   0.162 -0.1938  2.8201 -2.0269
  186MOL0     H24519   3.843   2.771   0.075 -2.0017  0.1907 -0.1956
  186MOL0     H24520   3.954   2.965   0.223 -0.2731  2.2486  1.0921
  186MOL0     H24521   3.769   3.001   0.256 -1.2528  0.6528 -1.6696
  186MOL0     H24522   3.762   3.018   0.004  0.0378 -1.4830 -0.2851
  186MOL0     H24523   3.929   3.023   0.001  1.2202 -1.5371  1.3952
  186MOL0     H24524   3.905   3.241   0.158  4.3998 -1.1244 -3.4889
  186MOL0     H24525   3.848   3.258   0.004 -1.8166  3.5253  1.4031
  186MOL0     H24526   3.707   3.352   0.174  0.4684  0.0070 -1.3727
  186MOL0     H24527   3.646   3.209   0.241  1.0839  1.5668  0.7919
  186MOL0     H24528   3.595   3.145  -0.018 -0.0161 -0.5391  0.7222
  186MOL0     H24529   3.610   3.319  -0.045 -0.1915 -0.8713 -0.8726
  186MOL0     H24530   3.442   3.339   0.162  2.3989 -0.7729  0.5974
  186MOL0     H24531   3.379   3.271   0.008  1.9977  0.7927 -0.5700
  186MOL0     H24532   3.298   3.121   0.183  0.0015 -1.2980 -0.9123
  186MOL0     H24533   3.453   3.115   0.259 -1.5870 -0.7347  1.1489
  186MOL0     H24534   3.900   2.482   0.380  1.7835 -0.2851  1.5066
  186MOL0     H24535   4.095   2.342   0.328 -1.9189 -0.6299 -0.0985
  186MOL0     H24536   4.445   2.176  -0.105  3.2193 -1.6741 -1.7635
  186MOL0     H24537   4.612   2.032  -0.086  2.3025 -0.1179 -0.0409
  186MOL0     H24538   6.428   2.086   0.050 -0.6226 -0.7427 -3.1076
  186MOL0     H24539   6.661   2.072   0.123  1.6052  0.2416  1.4029
  186MOL0     H24540   7.053   1.636   0.358  0.1253 -2.8402 -3.7837
  186MOL0     H24541   7.305   1.684   0.361  1.0369  2.5193  0.4241
  186MOL0     H24542   7.512   1.713   0.264  0.4990 -1.2632 -0.0316
  186MOL0     H24543   7.482   1.803   0.422 -2.0821  1.4129 -0.8139
  186MOL0     H24544   7.684   1.898   0.205 -0.1368 -0.9059 -0.6219
  186MOL0     H24545   7.650   1.963   0.369 -2.4496 -1.3205  0.8753
  186MOL0     H24546   7.776   1.697   0.284  1.8910 -0.1232 -0.3701
  186MOL0     H24547   7.733   1.738   0.454  0.4635 -0.7246 -1.6972
  186MOL0     H24548   7.929   1.896   0.275 -0.6721 -3.0761 -1.6560
  186MOL0     H24549   7.897   1.949   0.434  0.1074 -0.8062  0.0023
  186MOL0     H24550   8.208   1.732   0.551  0.8815  0.7175 -0.8597
  186MOL0     H24551   7.247   2.017   0.104  0.9509  0.4761  1.8488
  186MOL0     H24552   7.005   1.974   0.099  1.7787  0.8105 -0.0829
  187MOL0     O24553   3.339   4.087   8.108 -0.2410 -0.0913  1.0033
  187MOL0     C24554   3.392   4.188   8.156  0.1995  0.0817 -0.9827
  187MOL0     O24555   3.339   4.308   8.170  0.0328 -0.3305 -0.2559
  187MOL0     C24556   3.211   4.323   8.128  0.3360 -0.7849 -0.6415
  187MOL0     C24557   3.190   4.427   8.034  0.8134 -0.4596  0.2193
  187MOL0     C24558   3.062   4.469   7.988 -0.2254  0.3503  0.1242
  187MOL0     C24559   2.956   4.394   8.028 -0.1000  0.2407 -1.0116
  187MOL0     O24560   2.823   4.420   8.015 -0.5095 -0.3339  0.0545
  187MOL0     C24561   2.794   4.560   7.991 -0.2190 -0.1851  0.8725
  187MOL0     C24562   2.646   4.591   8.020  0.5931 -0.3309 -0.4182
  187MOL0     C24563   2.561   4.548   7.896  0.4043 -0.1028 -0.5631
  187MOL0     C24564   2.575   4.633   7.771 -0.1298 -0.2162 -0.0910
  187MOL0     C24565   2.478   4.600   7.667  0.0337  0.2180 -0.1271
  187MOL0     C24566   2.505   4.681   7.542 -0.0363 -0.4637  0.3637
  187MOL0     C24567   2.454   4.617   7.415  0.6799  0.6080 -0.6177
  187MOL0     C24568   2.462   4.712   7.293 -0.4481  1.2990  0.5182
  187MOL0     N24569   2.600   4.731   7.251 -0.5328  0.8475  0.1783
  187MOL0     C24570   2.698   4.635   7.247 -0.0832  0.3302 -0.2353
  187MOL0     C24571   2.814   4.698   7.253 -0.2650 -0.2337  0.7796
  187MOL0     C24572   2.950   4.625   7.231 -0.0119  0.0376  0.2426
  187MOL0     C24573   3.071   4.700   7.286  0.5040 -0.3994 -0.2181
  187MOL0     C24574   3.077   4.680   7.442 -0.8463  0.0415  0.1110
  187MOL0     C24575   3.213   4.716   7.490  0.3484 -0.0919 -0.9442
  187MOL0     O24576   3.228   4.714   7.637  0.0352  0.0896  0.1874
  187MOL0     C24577   3.351   4.668   7.687  1.1173  0.4188 -0.6273
  187MOL0     C24578   3.406   4.725   7.801 -0.8536 -0.2208 -0.9711
  187MOL0     C24579   3.522   4.670   7.863 -0.4773 -0.1167 -0.2925
  187MOL0     C24580   3.595   4.566   7.803 -0.0250  0.2071 -0.4471
  187MOL0     C24581   3.718   4.515   7.857 -0.2668 -0.1816 -0.9597
  187MOL0     O24582   3.755   4.571   7.977  0.1706 -0.0112 -0.1278
  187MOL0     C24583   3.880   4.530   8.030  0.6743  0.4051  1.0783
  187MOL0     C24584   3.958   4.633   8.083  0.0546 -0.3042 -0.0796
  187MOL0     C24585   4.087   4.603   8.127 -0.5139 -0.1805 -0.5463
  187MOL0     C24586   4.137   4.468   8.121  0.3314 -0.5398 -0.4686
  187MOL0     O24587   4.250   4.443   8.191  0.5058  0.0233  0.4831
  187MOL0     C24588   4.327   4.335   8.145 -1.0560  0.6001 -0.3757
  187MOL0     C24589   4.466   4.347   8.221  1.1184  0.3397  0.0738
  187MOL0     C24590   4.556   4.474   8.213  0.3256  1.6821  0.0018
  187MOL0     C24591   4.651   4.471   8.092  0.2012  0.0448  0.1981
  187MOL0     C24592   4.722   4.614   8.083 -0.1057  0.7723 -0.0113
  187MOL0     C24593   4.806   4.647   8.208 -0.5235 -0.3348  0.7572
  187MOL0     C24594   4.868   4.786   8.200  0.8386  0.4860  0.3276
  187MOL0     C24595   4.979   4.830   8.310  0.2496  0.2934  0.1130
  187MOL0    Cl24596   5.133   4.728   8.289 -0.0089 -0.3443 -0.2647
  187MOL0     C24597   4.052   4.365   8.077  0.2364 -0.3405  0.3440
  187MOL0     C24598   3.929   4.394   8.031 -0.1019 -0.2795  0.2445
  187MOL0     O24599   3.788   4.439   7.789 -0.3540  1.1065  0.3392
  187MOL0     C24600   3.534   4.505   7.698  0.0233 -0.8197 -0.6628
  187MOL0     C24601   3.419   4.552   7.636 -0.5340  0.4729 -0.1684
  187MOL0     N24602   2.783   4.837   7.249  0.8930  0.7281 -0.2346
  187MOL0     N24603   2.659   4.855   7.237 -0.5229  0.1300 -0.2766
  187MOL0     C24604   2.980   4.282   8.113 -0.2252  0.4658  0.2656
  187MOL0     C24605   3.103   4.247   8.175  0.0499 -0.0408 -0.0146
  187MOL0     C24606   3.539   4.169   8.211  0.3451 -0.2250  0.3113
  187MOL0     C24607   3.616   4.288   8.240  0.4938  0.3671  0.3217
  187MOL0     C24608   3.744   4.276   8.284  0.4115 -0.3868 -0.5584
  187MOL0     C24609   3.807   4.145   8.300 -0.2030  0.2709  1.4116
  187MOL0     O24610   3.931   4.108   8.342 -0.4572  0.0510  0.1121
  187MOL0     C24611   3.990   4.198   8.439 -0.3800  0.0994 -0.0344
  187MOL0     C24612   4.135   4.164   8.469  0.0525  0.0045  0.1688
  187MOL0     C24613   4.152   4.041   8.556  0.4448  0.0859  0.4026
  187MOL0     C24614   4.273   4.036   8.647 -0.1410  0.3354  0.5570
  187MOL0     C24615   4.404   4.014   8.574  0.2190 -0.2491 -0.5498
  187MOL0     C24616   4.512   4.015   8.526  0.4114 -0.1428 -0.6612
  187MOL0     C24617   3.730   4.032   8.275  0.4642  0.8846 -0.9912
  187MOL0     C24618   3.595   4.047   8.238 -0.2800  0.1684 -0.6497
  187MOL0     H24619   3.264   4.497   7.996  0.4788 -0.9047 -1.3138
  187MOL0     H24620   3.061   4.555   7.922  3.4515 -0.2370 -0.9280
  187MOL0     H24621   2.815   4.573   7.884 -0.0087  0.6716  1.0103
  187MOL0     H24622   2.856   4.633   8.044 -0.1226 -0.6186  1.3607
  187MOL0     H24623   2.638   4.699   8.036 -1.9401 -0.5627  0.3213
  187MOL0     H24624   2.606   4.537   8.107  2.5044  2.2860  2.2868
  187MOL0     H24625   2.455   4.566   7.917 -0.4496 -1.5470 -3.0819
  187MOL0     H24626   2.587   4.445   7.869 -2.9434 -0.5767 -2.6166
  187MOL0     H24627   2.554   4.734   7.806 -1.2121 -0.4583 -0.0078
  187MOL0     H24628   2.677   4.624   7.732 -0.1576 -0.5410 -0.0933
  187MOL0     H24629   2.378   4.624   7.704 -0.0830 -0.5989  0.1041
  187MOL0     H24630   2.489   4.493   7.645  2.6126  0.1405  1.1656
  187MOL0     H24631   2.612   4.701   7.540 -0.0860 -0.2060 -1.1909
  187MOL0     H24632   2.463   4.780   7.559  1.3523 -0.2983  3.4311
  187MOL0     H24633   2.501   4.521   7.389  1.8182  0.2337  2.3667
  187MOL0     H24634   2.352   4.587   7.438  0.6559  0.2570 -1.1610
  187MOL0     H24635   2.418   4.810   7.316 -1.4473  1.7348 -2.7514
  187MOL0     H24636   2.409   4.671   7.207  1.8735  0.4738 -0.5947
  187MOL0     H24637   2.687   4.527   7.253  0.1721  0.3515  0.7479
  187MOL0     H24638   2.963   4.614   7.123 -0.9466  0.8387  0.0253
  187MOL0     H24639   2.945   4.523   7.271 -1.8209  0.1127  0.2974
  187MOL0     H24640   3.059   4.802   7.250  2.9391  0.9823  2.4491
  187MOL0     H24641   3.161   4.663   7.236  1.1591  1.0260 -0.1433
  187MOL0     H24642   3.000   4.737   7.495  1.6615  1.9314  1.9729
  187MOL0     H24643   3.060   4.573   7.455 -0.9528  0.0330 -0.1007
  187MOL0     H24644   3.231   4.819   7.458 -2.0620  1.0246  0.9540
  187MOL0     H24645   3.289   4.655   7.441 -0.7770 -0.0807 -2.8124
  187MOL0     H24646   3.350   4.807   7.847  0.7217  1.2450 -1.5604
  187MOL0     H24647   3.554   4.694   7.964  1.4125 -3.0272 -0.0825
  187MOL0     H24648   3.917   4.733   8.074  0.5692 -0.1918 -1.4272
  187MOL0     H24649   4.140   4.690   8.163  1.9584 -1.3586 -1.1234
  187MOL0     H24650   4.345   4.348   8.038  0.4056 -1.9260 -0.5184
  187MOL0     H24651   4.275   4.239   8.154 -1.9762  0.8615 -2.3984
  187MOL0     H24652   4.525   4.266   8.177 -0.1252  0.5816 -2.2065
  187MOL0     H24653   4.446   4.322   8.326  0.0558 -0.1997 -0.2480
  187MOL0     H24654   4.627   4.463   8.295 -1.9675 -0.3529  1.8356
  187MOL0     H24655   4.504   4.569   8.220  0.1088  1.5585  0.0690
  187MOL0     H24656   4.726   4.392   8.094  1.8352  1.3896 -2.4315
  187MOL0     H24657   4.591   4.466   8.000  0.2717 -0.7141  0.1860
  187MOL0     H24658   4.643   4.686   8.058 -2.2255 -1.6847 -0.8239
  187MOL0     H24659   4.793   4.623   8.000 -0.0584  0.5347  0.0048
  187MOL0     H24660   4.885   4.572   8.216 -0.5341 -0.4207  0.1062
  187MOL0     H24661   4.746   4.646   8.299 -1.5625  1.0596  0.1284
  187MOL0     H24662   4.908   4.793   8.099 -1.0006  0.1930 -0.4577
  187MOL0     H24663   4.783   4.854   8.212 -0.2248 -0.7772  0.2595
  187MOL0     H24664   4.943   4.823   8.413  2.0125  2.0925  0.9116
  187MOL0     H24665   5.004   4.932   8.281  2.5148  0.4541  2.3289
  187MOL0     H24666   4.066   4.258   8.080 -3.0371 -0.8626  2.2818
  187MOL0     H24667   3.864   4.312   8.002 -1.5030  0.6440  0.6453
  187MOL0     H24668   3.583   4.422   7.648  0.4245 -0.0752 -1.5620
  187MOL0     H24669   3.385   4.493   7.552  0.6896  0.8715 -0.9804
  187MOL0     H24670   2.894   4.223   8.142  1.4435 -2.5621 -0.4860
  187MOL0     H24671   3.125   4.160   8.235  1.6796  0.4546  0.1356
  187MOL0     H24672   3.574   4.387   8.231 -1.7491 -0.5369  0.2097
  187MOL0     H24673   3.815   4.356   8.301  0.2708  0.3713 -3.1349
  187MOL0     H24674   3.928   4.192   8.529  1.6820 -1.1146  1.4327
  187MOL0     H24675   3.997   4.298   8.395  1.3473  1.6965  3.4358
  187MOL0     H24676   4.197   4.162   8.379 -0.9798  3.0053 -0.7559
  187MOL0     H24677   4.176   4.255   8.515  1.4444 -0.2086 -0.5892
  187MOL0     H24678   4.142   3.948   8.500 -0.8024  0.7017 -0.4507
  187MOL0     H24679   4.078   4.054   8.636  1.9694  0.1260  1.8586
  187MOL0     H24680   4.283   4.134   8.696  1.7881 -0.0295  0.9773
  187MOL0     H24681   4.270   3.955   8.720 -0.7381 -1.1359 -1.0521
  187MOL0     H24682   4.611   4.017   8.484 -0.3240  1.7164 -2.4286
  187MOL0     H24683   3.761   3.930   8.296  2.5462  2.2463  4.2196
  187MOL0     H24684   3.545   3.953   8.219 -0.7828  0.3553 -0.2824
  188MOL0     O24685   2.580   2.454   2.652  0.4678  0.0899 -1.0321
  188MOL0     C24686   2.638   2.472   2.763 -0.9640  0.3845  0.4805
  188MOL0     O24687   2.746   2.552   2.783  0.1594 -0.4779  0.4064
  188MOL0     C24688   2.817   2.617   2.683  0.4247 -0.3229 -0.2419
  188MOL0     C24689   2.839   2.575   2.555 -0.5734  0.3771 -0.0094
  188MOL0     C24690   2.939   2.633   2.469  0.3122  0.8203  0.0389
  188MOL0     C24691   3.009   2.743   2.520 -0.0939 -0.3802  0.5560
  188MOL0     O24692   3.103   2.806   2.439  0.3606 -0.2395 -0.2787
  188MOL0     C24693   3.235   2.781   2.498  0.0224  0.0478  0.2808
  188MOL0     C24694   3.294   2.909   2.561  0.0332  0.4216  0.3731
  188MOL0     C24695   3.401   2.977   2.474  0.4273  0.1217  0.0521
  188MOL0     C24696   3.538   2.917   2.510 -0.5021 -0.4317 -1.1584
  188MOL0     C24697   3.650   3.002   2.444 -0.3315  0.5551 -0.3788
  188MOL0     C24698   3.782   2.975   2.513 -0.4627  1.1306 -0.0627
  188MOL0     C24699   3.888   3.075   2.463  0.0203  0.4964 -0.1698
  188MOL0     C24700   4.032   3.037   2.498 -0.2401 -0.1727 -0.4279
  188MOL0     N24701   4.060   3.041   2.642 -0.1524 -0.1827 -0.0718
  188MOL0     C24702   4.049   3.157   2.711 -0.3770 -0.8039 -0.0947
  188MOL0     C24703   4.020   3.115   2.844 -1.1948  0.3783  0.3518
  188MOL0     C24704   4.014   3.202   2.969  0.1341 -0.5850 -0.0539
  188MOL0     C24705   3.869   3.224   3.027 -1.5639  0.1052  0.4365
  188MOL0     C24706   3.793   3.333   2.951  0.5996 -0.6555 -0.2110
  188MOL0     C24707   3.646   3.353   2.995 -0.5366 -0.6055  0.3482
  188MOL0     O24708   3.562   3.254   2.935  0.4564 -0.7158  1.0136
  188MOL0     C24709   3.425   3.246   2.952 -0.0304  0.5468 -0.1132
  188MOL0     C24710   3.347   3.314   3.040 -0.0247 -0.4018  0.4301
  188MOL0     C24711   3.210   3.290   3.044  0.1075  0.2680 -0.2870
  188MOL0     C24712   3.150   3.206   2.950  0.7469  0.1035  0.0027
  188MOL0     C24713   3.008   3.178   2.956  0.0614 -0.1598  0.0986
  188MOL0     O24714   2.930   3.266   3.035 -0.5407 -0.0605 -0.3414
  188MOL0     C24715   2.800   3.232   3.045  0.4972 -0.9681 -0.0576
  188MOL0     C24716   2.760   3.146   3.142  0.4843 -0.1477  0.4496
  188MOL0     C24717   2.620   3.109   3.158 -0.0502  0.2078 -0.1633
  188MOL0     C24718   2.527   3.158   3.065  1.1525 -0.3000 -0.2951
  188MOL0     O24719   2.386   3.138   3.069  0.0508 -0.5034 -0.0485
  188MOL0     C24720   2.326   3.097   3.191 -0.4038 -0.6976  0.0519
  188MOL0     C24721   2.173   3.086   3.161 -1.2157  0.0531 -0.2112
  188MOL0     C24722   2.102   3.040   3.282  0.3728 -0.0734 -0.1094
  188MOL0     C24723   1.965   2.983   3.251 -0.3350  0.1083  0.7165
  188MOL0     C24724   1.876   2.932   3.371 -0.8190 -0.2984  0.9480
  188MOL0     C24725   1.752   2.849   3.332 -0.2254 -0.6951  0.3592
  188MOL0     C24726   1.665   2.833   3.455  0.0374  0.5431  0.2458
  188MOL0     C24727   1.555   2.731   3.430 -1.1529  0.0285  0.5435
  188MOL0    Cl24728   1.427   2.810   3.329 -0.2367  0.1047  0.3235
  188MOL0     C24729   2.570   3.249   2.966  0.3367  0.2882  0.2183
  188MOL0     C24730   2.706   3.283   2.958  0.3635  0.0483 -0.5401
  188MOL0     O24731   2.962   3.085   2.897 -0.6049  0.0519 -0.2847
  188MOL0     C24732   3.230   3.132   2.870 -0.7586 -0.3336  0.4770
  188MOL0     C24733   3.367   3.156   2.871 -0.2136 -0.2834  0.2130
  188MOL0     N24734   4.000   2.978   2.833 -0.3564 -0.4162  0.1411
  188MOL0     N24735   4.029   2.932   2.713  0.2488  0.0335 -0.6634
  188MOL0     C24736   2.976   2.801   2.642 -0.7815 -0.5669 -0.2780
  188MOL0     C24737   2.879   2.738   2.714  0.2891  0.4929 -1.2094
  188MOL0     C24738   2.602   2.387   2.878 -0.2183  0.5208  0.3897
  188MOL0     C24739   2.698   2.353   2.973  0.8032  0.3370 -0.9199
  188MOL0     C24740   2.670   2.251   3.066  0.8988 -0.1695 -0.7591
  188MOL0     C24741   2.537   2.207   3.085  0.0547 -0.6496 -0.0630
  188MOL0     O24742   2.516   2.120   3.186  0.1800  0.2762 -0.1672
  188MOL0     C24743   2.386   2.119   3.248  0.5628 -0.4099  0.8514
  188MOL0     C24744   2.387   2.043   3.383 -0.7930 -0.0799 -0.0642
  188MOL0     C24745   2.482   2.112   3.476 -0.6431  0.5042  0.3013
  188MOL0     C24746   2.496   2.041   3.610  0.2937  1.0563  0.0477
  188MOL0     C24747   2.370   2.014   3.683 -0.4677  0.6036 -0.2707
  188MOL0     C24748   2.274   2.002   3.753  0.4180  1.1311 -0.1193
  188MOL0     C24749   2.438   2.263   2.997  0.1449  0.0762  0.4508
  188MOL0     C24750   2.472   2.348   2.890 -0.0288  0.2502  0.0189
  188MOL0     H24751   2.796   2.483   2.514 -0.3013 -0.4563  1.5046
  188MOL0     H24752   2.968   2.592   2.373  0.2718  2.0101 -0.4911
  188MOL0     H24753   3.307   2.756   2.420 -0.3089  1.8745 -0.6689
  188MOL0     H24754   3.236   2.704   2.575 -0.9425 -0.5456 -0.2906
  188MOL0     H24755   3.340   2.892   2.659  0.8728 -1.1276 -0.2592
  188MOL0     H24756   3.216   2.985   2.572  0.0870  0.5026  0.1979
  188MOL0     H24757   3.400   3.085   2.491  2.3201  0.7765 -3.0808
  188MOL0     H24758   3.385   2.963   2.367  1.9807  1.6503 -0.4222
  188MOL0     H24759   3.550   2.931   2.618 -0.7991 -2.3604 -0.8475
  188MOL0     H24760   3.545   2.809   2.494  0.7978 -0.3238 -1.4430
  188MOL0     H24761   3.635   3.107   2.468 -0.7294 -0.1702  3.0585
  188MOL0     H24762   3.654   2.983   2.336  1.1205 -0.5337 -0.1795
  188MOL0     H24763   3.812   2.872   2.492 -0.2246  1.4294 -1.2404
  188MOL0     H24764   3.765   2.988   2.620  1.0377  0.4283  0.2891
  188MOL0     H24765   3.878   3.091   2.355  1.3518  0.7588 -0.2626
  188MOL0     H24766   3.857   3.173   2.498 -0.1916  1.3543 -2.5737
  188MOL0     H24767   4.104   3.103   2.449  1.2604 -0.2783  1.5154
  188MOL0     H24768   4.047   2.934   2.463 -1.3679 -0.8208  0.8691
  188MOL0     H24769   4.064   3.259   2.679  0.6776 -1.7799 -3.0562
  188MOL0     H24770   4.058   3.298   2.940 -1.5602 -0.0347 -0.8975
  188MOL0     H24771   4.078   3.148   3.039  0.2143  2.1208  2.1036
  188MOL0     H24772   3.870   3.249   3.134  0.2141 -2.4724  1.1327
  188MOL0     H24773   3.807   3.135   3.018 -1.8759  0.3779 -0.1184
  188MOL0     H24774   3.845   3.424   2.985 -0.3042 -0.8927  1.9693
  188MOL0     H24775   3.800   3.327   2.842 -0.0206 -1.6769 -0.2036
  188MOL0     H24776   3.610   3.451   2.962 -3.2507 -1.8140 -0.5357
  188MOL0     H24777   3.645   3.335   3.103  2.0769 -0.3454  0.4888
  188MOL0     H24778   3.391   3.384   3.110  1.8633  0.0100 -1.0664
  188MOL0     H24779   3.161   3.337   3.128  2.0505 -1.7186  2.1158
  188MOL0     H24780   2.835   3.106   3.210  0.6577 -2.2521 -0.8656
  188MOL0     H24781   2.601   3.042   3.242  1.3077  0.8052  0.6490
  188MOL0     H24782   2.342   3.176   3.265  0.5764  0.7628 -1.6624
  188MOL0     H24783   2.371   3.002   3.221  3.8486  0.9755 -0.4625
  188MOL0     H24784   2.140   3.014   3.086 -0.3642 -0.6878  0.1029
  188MOL0     H24785   2.143   3.189   3.140 -2.5600 -0.2519  0.0567
  188MOL0     H24786   2.094   3.120   3.356  2.3477  1.3552 -1.3415
  188MOL0     H24787   2.156   2.954   3.322  0.6942 -1.1980 -2.7632
  188MOL0     H24788   1.909   3.060   3.197  1.9013  0.2884 -1.5331
  188MOL0     H24789   1.974   2.899   3.181  1.4171  0.0339  1.0015
  188MOL0     H24790   1.839   3.021   3.423  3.5823  3.8421 -2.1493
  188MOL0     H24791   1.946   2.877   3.435  2.1863  0.5959 -1.3637
  188MOL0     H24792   1.782   2.751   3.295  0.4497 -1.8273  3.6463
  188MOL0     H24793   1.698   2.899   3.251 -4.8238 -0.4093  3.2682
  188MOL0     H24794   1.730   2.799   3.536 -0.6946 -1.3024  0.0999
  188MOL0     H24795   1.610   2.924   3.482  0.4073  1.3174 -1.4733
  188MOL0     H24796   1.506   2.697   3.522 -2.2338 -2.2577 -0.7807
  188MOL0     H24797   1.590   2.645   3.373  0.0274  1.6738 -1.3243
  188MOL0     H24798   2.493   3.293   2.903  1.0086  0.0929 -0.7691
  188MOL0     H24799   2.747   3.333   2.870 -0.2977  0.2989 -0.7185
  188MOL0     H24800   3.199   3.056   2.799 -2.0445  1.0680 -0.5376
  188MOL0     H24801   3.434   3.105   2.802  1.1980  2.0342 -0.2245
  188MOL0     H24802   3.040   2.882   2.676  0.9132 -0.3501 -3.5291
  188MOL0     H24803   2.845   2.770   2.812 -3.8442 -0.4076 -2.1605
  188MOL0     H24804   2.797   2.397   2.965  0.6647  1.1615  1.1551
  188MOL0     H24805   2.754   2.215   3.124  0.3354  2.0365  1.6109
  188MOL0     H24806   2.310   2.079   3.181  2.1978  0.5848 -1.7428
  188MOL0     H24807   2.351   2.215   3.286  0.2952 -1.0572  2.3233
  188MOL0     H24808   2.288   2.047   3.430 -0.4159 -0.4330  0.7800
  188MOL0     H24809   2.422   1.942   3.360  0.7144  0.3438  0.2789
  188MOL0     H24810   2.447   2.212   3.503 -0.5991  0.1675  1.6713
  188MOL0     H24811   2.573   2.129   3.418 -0.1303 -2.7197  0.0078
  188MOL0     H24812   2.555   1.950   3.605 -1.3192 -0.1351  1.4814
  188MOL0     H24813   2.560   2.091   3.684 -0.5002 -0.1215  1.6048
  188MOL0     H24814   2.184   1.992   3.809  0.5894  0.5250  0.0600
  188MOL0     H24815   2.340   2.221   3.014  0.2613  0.6821  3.0921
  188MOL0     H24816   2.400   2.392   2.822  1.2269  0.8741 -0.9512
  189MOL0     O24817   2.407   9.690   7.526  0.0276 -0.5098  0.3634
  189MOL0     C24818   2.477   9.671   7.620  0.5037 -0.5079  0.0846
  189MOL0     O24819   2.430   9.684   7.748 -0.4727  0.3772  0.3036
  189MOL0     C24820   2.295   9.682   7.778 -0.5297  0.7045  0.2974
  189MOL0     C24821   2.194   9.608   7.712 -0.1134 -0.0571 -0.5315
  189MOL0     C24822   2.066   9.611   7.765 -0.1155  0.6191 -0.5518
  189MOL0     C24823   2.036   9.674   7.885 -0.1335  0.6100 -0.9830
  189MOL0     O24824   1.906   9.676   7.926  0.1875 -0.5408 -0.5134
  189MOL0     C24825   1.872   9.638   8.054  0.7768 -0.3494 -0.4656
  189MOL0     C24826   1.724   9.673   8.078  0.5281  0.5171  0.4349
  189MOL0     C24827   1.618   9.572   8.029 -0.2556  0.4892 -0.2428
  189MOL0     C24828   1.473   9.618   8.007 -0.8110 -0.0485 -0.0633
  189MOL0     C24829   1.415   9.641   8.151 -0.7488 -0.6843 -0.0326
  189MOL0     C24830   1.337   9.779   8.168  0.6730 -0.2654 -0.1771
  189MOL0     C24831   1.209   9.785   8.084  0.1027  0.0577  1.0141
  189MOL0     C24832   1.084   9.742   8.165 -0.7555  0.3646  0.0775
  189MOL0     N24833   0.952   9.771   8.107  0.0385 -0.6776 -0.0051
  189MOL0     C24834   0.878   9.864   8.166 -1.0972 -0.1375 -0.4017
  189MOL0     C24835   0.780   9.878   8.077 -0.1726  0.2302  0.3535
  189MOL0     C24836   0.673   9.977   8.093 -0.2938 -0.2328 -0.1114
  189MOL0     C24837   0.560   9.914   8.167 -0.3527 -0.0613 -0.6299
  189MOL0     C24838   0.448   9.875   8.062  0.7716  0.5020 -0.8586
  189MOL0     C24839   0.304   9.864   8.115  0.3802 -0.3124 -0.0186
  189MOL0     O24840   0.233   9.839   7.993 -0.6358 -0.0295 -0.8712
  189MOL0     C24841   0.098   9.850   7.992 -0.3842  1.0588 -0.2485
  189MOL0     C24842   0.032   9.808   7.872 -0.0062 -1.2770  0.2150
  189MOL0     C24843  -0.109   9.817   7.857 -1.1389  0.3133  0.4040
  189MOL0     C24844  -0.191   9.856   7.962  0.1880 -0.5583  0.7241
  189MOL0     C24845  -0.337   9.855   7.943  0.5982 -0.6792 -0.5263
  189MOL0     O24846  -0.382   9.835   7.815  0.1952  0.5231 -0.1004
  189MOL0     C24847  -0.520   9.845   7.798 -0.6281  0.4986 -0.0316
  189MOL0     C24848  -0.577   9.946   7.727  0.7351 -0.1068  0.0041
  189MOL0     C24849  -0.714   9.952   7.701  0.2334  0.3206 -0.0821
  189MOL0     C24850  -0.794   9.859   7.759  0.0917  0.4226  0.1003
  189MOL0     O24851  -0.928   9.854   7.732 -0.1896 -0.9809 -0.2740
  189MOL0     C24852  -0.993   9.942   7.633  0.2730 -0.4001  0.8934
  189MOL0     C24853  -1.129   9.881   7.608  0.0692  0.0989  0.0197
  189MOL0     C24854  -1.225   9.955   7.520 -0.4466  0.2739 -0.1012
  189MOL0     C24855  -1.371   9.922   7.549  0.5973  1.1137 -0.0978
  189MOL0     C24856  -1.457  10.023   7.478  0.1911 -0.0189  0.7345
  189MOL0     C24857  -1.448  10.045   7.322 -0.1338  0.7707 -0.2572
  189MOL0     C24858  -1.515   9.933   7.238 -0.4870 -0.2402 -0.0962
  189MOL0     C24859  -1.659   9.909   7.286 -0.0682 -0.0739 -0.8213
  189MOL0    Cl24860  -1.749   9.846   7.149  0.5931 -0.0875  0.5273
  189MOL0     C24861  -0.741   9.752   7.832  0.0994 -0.3280 -0.1899
  189MOL0     C24862  -0.602   9.750   7.857 -0.0808 -0.1609 -0.0523
  189MOL0     O24863  -0.404   9.891   8.043 -0.8397  0.1838 -0.1471
  189MOL0     C24864  -0.123   9.883   8.084 -0.0143  0.8434 -1.0885
  189MOL0     C24865   0.016   9.876   8.102  0.6165  1.0530  0.2344
  189MOL0     N24866   0.795   9.788   7.977  0.5083 -0.3897  0.7677
  189MOL0     N24867   0.904   9.726   7.984 -0.5158 -0.0819  0.3445
  189MOL0     C24868   2.135   9.756   7.938  1.0835  1.0493  0.4014
  189MOL0     C24869   2.263   9.762   7.888  0.7188  0.2357  0.0327
  189MOL0     C24870   2.623   9.670   7.608 -0.2078  0.8086  1.4302
  189MOL0     C24871   2.702   9.677   7.720 -0.8549 -0.3875 -0.6196
  189MOL0     C24872   2.838   9.677   7.710 -1.1556 -1.0176  0.4810
  189MOL0     C24873   2.903   9.668   7.587  0.4138  0.5656 -0.1067
  189MOL0     O24874   3.037   9.669   7.588  0.3310 -0.7977 -0.1350
  189MOL0     C24875   3.104   9.682   7.461 -0.5590 -0.0502  0.5924
  189MOL0     C24876   3.246   9.736   7.457 -0.9802  0.5559 -0.3295
  189MOL0     C24877   3.358   9.642   7.511  0.5789 -0.0189  0.2977
  189MOL0     C24878   3.496   9.706   7.488 -0.4543  0.4810  0.2112
  189MOL0     C24879   3.504   9.844   7.546  0.9358 -0.6004 -0.4838
  189MOL0     C24880   3.513   9.959   7.573 -0.3040  0.0427  0.8496
  189MOL0     C24881   2.824   9.651   7.475  0.2215 -0.8802 -0.0187
  189MOL0     C24882   2.687   9.650   7.482  0.2648 -0.3602 -0.0433
  189MOL0     H24883   2.215   9.542   7.628 -0.4969 -0.3963 -0.3659
  189MOL0     H24884   1.978   9.560   7.727 -0.2717 -1.6682  2.4923
  189MOL0     H24885   1.925   9.692   8.134  0.2394  1.6802 -1.4074
  189MOL0     H24886   1.883   9.531   8.073 -1.4507 -0.5908 -0.2700
  189MOL0     H24887   1.692   9.767   8.033  0.6035 -0.5892 -2.1121
  189MOL0     H24888   1.709   9.687   8.186 -0.7185 -0.2513  0.3811
  189MOL0     H24889   1.614   9.476   8.081 -2.6829  1.1638  0.9436
  189MOL0     H24890   1.661   9.554   7.930  1.8061 -0.4067  0.7470
  189MOL0     H24891   1.480   9.712   7.951  2.0493  0.7427  1.4373
  189MOL0     H24892   1.413   9.549   7.947 -2.2508  1.5674 -0.5973
  189MOL0     H24893   1.494   9.656   8.225  0.2270  0.2151 -1.2294
  189MOL0     H24894   1.355   9.553   8.177 -2.8352  0.8825  0.6869
  189MOL0     H24895   1.410   9.852   8.133  2.2883 -0.9381  1.6016
  189MOL0     H24896   1.302   9.807   8.268  2.5604  0.9153  0.1972
  189MOL0     H24897   1.192   9.887   8.047 -2.6019 -0.2812  1.1104
  189MOL0     H24898   1.217   9.725   7.993  1.4876  1.6786 -0.0000
  189MOL0     H24899   1.091   9.787   8.264 -0.7385 -0.7361  0.6006
  189MOL0     H24900   1.086   9.634   8.184  0.4941  0.4160  0.3051
  189MOL0     H24901   0.887   9.912   8.263 -2.6589  0.1477 -0.3738
  189MOL0     H24902   0.651  10.021   7.995  0.3716  0.7519  0.1588
  189MOL0     H24903   0.715  10.056   8.157  2.0163 -0.6601 -1.0024
  189MOL0     H24904   0.515   9.988   8.234  0.0112  0.7552 -1.2662
  189MOL0     H24905   0.598   9.834   8.230  1.5087  1.8009  0.7417
  189MOL0     H24906   0.453   9.949   7.981  1.8864  0.5642 -0.7598
  189MOL0     H24907   0.479   9.772   8.037 -2.9446 -0.5361 -1.8281
  189MOL0     H24908   0.267   9.952   8.167  0.3372 -0.5640  0.3783
  189MOL0     H24909   0.288   9.776   8.177  1.3382  0.3300  1.1816
  189MOL0     H24910   0.082   9.785   7.778  1.9647  1.6236  0.4418
  189MOL0     H24911  -0.147   9.784   7.761  0.1686 -0.2504  0.0550
  189MOL0     H24912  -0.508  10.015   7.679  2.0597  0.0658  2.0348
  189MOL0     H24913  -0.752  10.035   7.643 -1.2007 -2.3133 -3.1675
  189MOL0     H24914  -0.950   9.951   7.533  0.1839 -2.9938  0.5405
  189MOL0     H24915  -1.005  10.045   7.666  0.2225  0.7052 -2.1936
  189MOL0     H24916  -1.166   9.870   7.711  0.9542 -1.0344  0.2437
  189MOL0     H24917  -1.125   9.781   7.565 -0.9220  0.8032 -1.7934
  189MOL0     H24918  -1.196   9.950   7.414  2.1351 -1.2697  0.5945
  189MOL0     H24919  -1.215  10.060   7.547  0.5844 -0.1090  1.0637
  189MOL0     H24920  -1.400   9.821   7.520  0.4886  0.1326  3.0665
  189MOL0     H24921  -1.386   9.927   7.657  1.1443  0.7244 -0.0021
  189MOL0     H24922  -1.434  10.121   7.520  0.6230  1.0004 -1.6915
  189MOL0     H24923  -1.558   9.995   7.507 -0.1173 -1.0803 -1.1867
  189MOL0     H24924  -1.344  10.055   7.288  0.6676 -0.8825  1.4824
  189MOL0     H24925  -1.512  10.133   7.314  0.1206  1.0341  0.5110
  189MOL0     H24926  -1.514   9.973   7.137  1.0477 -0.1918 -0.0876
  189MOL0     H24927  -1.454   9.843   7.242  0.1390  0.2133  1.2420
  189MOL0     H24928  -1.708  10.002   7.315  1.3363  0.5403 -0.3118
  189MOL0     H24929  -1.663   9.843   7.373  1.4785  0.2918 -0.4352
  189MOL0     H24930  -0.820   9.694   7.878 -1.6945 -0.2119 -2.8875
  189MOL0     H24931  -0.553   9.673   7.916 -2.9810 -1.2311  1.1549
  189MOL0     H24932  -0.181   9.905   8.173 -1.9766  4.2905 -2.9990
  189MOL0     H24933   0.039   9.906   8.204 -0.0886 -1.9396  1.3827
  189MOL0     H24934   2.103   9.813   8.025 -0.6028  0.7091  0.0472
  189MOL0     H24935   2.344   9.831   7.911  1.2522  0.4794 -2.3494
  189MOL0     H24936   2.666   9.692   7.821  3.8597  2.0032  1.0396
  189MOL0     H24937   2.905   9.670   7.796 -2.8943 -2.1745  1.8223
  189MOL0     H24938   3.058   9.752   7.391 -0.7806 -1.6596 -0.9309
  189MOL0     H24939   3.104   9.584   7.413 -0.2024 -1.0504  2.5100
  189MOL0     H24940   3.274   9.760   7.355  0.2709 -1.4792 -0.5204
  189MOL0     H24941   3.244   9.821   7.526  0.1203 -0.5369  1.1142
  189MOL0     H24942   3.355   9.547   7.456 -1.3921  0.7407 -1.0275
  189MOL0     H24943   3.339   9.622   7.616 -0.0415  0.2997  0.2516
  189MOL0     H24944   3.580   9.647   7.526 -1.0878  0.0310  0.9439
  189MOL0     H24945   3.505   9.703   7.379 -3.3841  0.6202 -0.1100
  189MOL0     H24946   3.513  10.062   7.602 -2.1195  0.0832  0.8334
  189MOL0     H24947   2.873   9.656   7.379 -3.0143 -0.9351 -1.7987
  189MOL0     H24948   2.634   9.640   7.388  0.8772 -0.1430 -0.4198
  190MOL0     O24949   5.996   8.621   6.803 -0.1075 -0.4456  0.1948
  190MOL0     C24950   5.969   8.617   6.923 -0.1816 -0.3684 -0.5567
  190MOL0     O24951   6.055   8.649   7.030 -0.2511 -0.2566  0.0090
  190MOL0     C24952   6.171   8.717   7.000 -0.7155  0.0139  0.1010
  190MOL0     C24953   6.280   8.650   6.946  0.6419 -0.1539  0.2928
  190MOL0     C24954   6.392   8.718   6.920  0.1981 -0.2239 -0.1757
  190MOL0     C24955   6.404   8.858   6.935 -0.1334 -0.3095  0.2288
  190MOL0     O24956   6.522   8.908   6.895 -0.0377  0.8730  0.4059
  190MOL0     C24957   6.537   9.049   6.891 -0.5395 -0.8198 -0.3516
  190MOL0     C24958   6.652   9.112   6.803  0.3649 -0.0192 -0.0526
  190MOL0     C24959   6.782   9.107   6.883  0.4315 -0.7480  0.2208
  190MOL0     C24960   6.913   9.138   6.816  0.3333  0.8519  0.2246
  190MOL0     C24961   7.042   9.074   6.888  0.3197  0.5388 -0.5913
  190MOL0     C24962   7.055   9.149   7.028 -0.1755 -0.2109  0.0570
  190MOL0     C24963   7.184   9.125   7.109 -0.2561 -0.1828 -0.3254
  190MOL0     C24964   7.212   8.978   7.140 -0.3272  0.4716  0.9732
  190MOL0     N24965   7.106   8.923   7.223  0.2859 -0.9624 -0.3480
  190MOL0     C24966   7.039   8.804   7.194  0.5207  0.5779  0.1385
  190MOL0     C24967   6.956   8.787   7.300 -0.1142 -0.7414 -0.3344
  190MOL0     C24968   6.867   8.667   7.326 -0.5019 -0.0846  0.3757
  190MOL0     C24969   6.744   8.644   7.225 -0.1441  0.7056  0.3450
  190MOL0     C24970   6.641   8.752   7.235  0.1603 -0.7439 -0.7202
  190MOL0     C24971   6.569   8.780   7.369  0.2891  0.0678 -0.7597
  190MOL0     O24972   6.485   8.657   7.397 -1.1352 -0.6094  0.9384
  190MOL0     C24973   6.363   8.706   7.439  1.0283  0.4706  0.1317
  190MOL0     C24974   6.266   8.715   7.341 -0.4610  0.0467  0.6892
  190MOL0     C24975   6.136   8.756   7.375 -0.2808 -0.1667 -0.2843
  190MOL0     C24976   6.100   8.779   7.509 -0.3989  1.4171 -0.7546
  190MOL0     C24977   5.954   8.789   7.538  0.1605 -0.9639 -0.9096
  190MOL0     O24978   5.875   8.791   7.425 -0.4276  0.3520  0.6322
  190MOL0     C24979   5.741   8.767   7.421 -0.5308  0.1797  0.4399
  190MOL0     C24980   5.686   8.658   7.487 -0.0904 -0.3507  0.1013
  190MOL0     C24981   5.554   8.624   7.473 -1.0368  0.2551  0.7552
  190MOL0     C24982   5.464   8.706   7.394 -0.1507  0.0873  0.8137
  190MOL0     O24983   5.331   8.683   7.375 -0.5648  0.5226 -0.3387
  190MOL0     C24984   5.275   8.578   7.460  0.1452  0.0013 -0.1265
  190MOL0     C24985   5.116   8.563   7.458 -0.4457  0.0846  0.2677
  190MOL0     C24986   5.062   8.570   7.323 -0.2908 -0.9842  0.0637
  190MOL0     C24987   4.921   8.546   7.310 -0.9125 -0.4071 -0.0830
  190MOL0     C24988   4.875   8.555   7.167 -1.2092  0.2212  0.0562
  190MOL0     C24989   4.725   8.536   7.173 -0.1584 -0.3624  0.6670
  190MOL0     C24990   4.668   8.538   7.029  0.2360 -0.8524 -0.4071
  190MOL0     C24991   4.685   8.411   6.943  0.9679  0.2481  0.1248
  190MOL0    Cl24992   4.608   8.276   7.023 -0.4289  0.0127 -0.7525
  190MOL0     C24993   5.523   8.812   7.324  0.2647  0.5092  0.1090
  190MOL0     C24994   5.658   8.849   7.338 -1.1398  0.0524 -0.5094
  190MOL0     O24995   5.919   8.831   7.654  0.1756 -0.1893 -0.2649
  190MOL0     C24996   6.198   8.774   7.607 -0.9138 -0.2223 -0.3685
  190MOL0     C24997   6.330   8.729   7.573 -0.1349 -0.4208 -0.1630
  190MOL0     N24998   6.967   8.898   7.389 -0.8906 -0.0069  0.0493
  190MOL0     N24999   7.067   8.977   7.341 -0.4781  0.9401 -0.0003
  190MOL0     C25000   6.288   8.921   6.991  0.3137  0.1650 -0.4200
  190MOL0     C25001   6.179   8.849   7.028  0.3374 -1.1638  0.2714
  190MOL0     C25002   5.830   8.596   6.954 -0.1457 -0.1956  0.7552
  190MOL0     C25003   5.789   8.572   7.088 -0.1458  0.7316 -0.0485
  190MOL0     C25004   5.657   8.557   7.129 -0.9342  0.2813  1.0356
  190MOL0     C25005   5.553   8.568   7.035  0.3898 -0.4329 -0.1911
  190MOL0     O25006   5.430   8.541   7.088 -0.3245  0.4509  0.2024
  190MOL0     C25007   5.311   8.594   7.033  0.6339 -0.2627  0.0743
  190MOL0     C25008   5.246   8.487   6.948 -0.1053  0.3695  0.5231
  190MOL0     C25009   5.130   8.562   6.876  0.2260  0.4529  0.9634
  190MOL0     C25010   5.086   8.473   6.757  0.4660  0.3474 -1.0565
  190MOL0     C25011   4.969   8.532   6.691  0.5784 -1.2130  0.1541
  190MOL0     C25012   4.874   8.593   6.639 -1.3577 -0.1284  0.2789
  190MOL0     C25013   5.587   8.586   6.903 -0.4488  0.4233  0.5163
  190MOL0     C25014   5.722   8.603   6.858  0.3263  0.5613 -0.7998
  190MOL0     H25015   6.277   8.542   6.948 -2.9661 -0.2137 -0.7233
  190MOL0     H25016   6.479   8.659   6.891 -0.3823 -0.2692 -1.9248
  190MOL0     H25017   6.534   9.083   6.995 -1.5999  1.5072 -1.0735
  190MOL0     H25018   6.449   9.106   6.859  1.1223  0.9563 -2.0371
  190MOL0     H25019   6.629   9.217   6.782  3.7149  0.5880 -1.2168
  190MOL0     H25020   6.664   9.062   6.706  0.2189  0.5598 -0.3757
  190MOL0     H25021   6.802   9.006   6.921  0.0631 -0.3110  1.6425
  190MOL0     H25022   6.764   9.174   6.968 -2.7373  2.1661 -2.4454
  190MOL0     H25023   6.917   9.099   6.714 -0.7330  2.5893 -0.5151
  190MOL0     H25024   6.911   9.247   6.807 -4.4440  0.9588 -0.0062
  190MOL0     H25025   7.131   9.080   6.824  0.2842  2.0855 -0.5459
  190MOL0     H25026   7.019   8.968   6.898 -0.1330  0.1551 -4.3858
  190MOL0     H25027   6.966   9.134   7.090 -0.9861  1.6464 -0.5702
  190MOL0     H25028   7.059   9.253   6.993  0.5110 -0.3101 -0.1538
  190MOL0     H25029   7.280   9.168   7.078  0.6356 -0.0162  2.4060
  190MOL0     H25030   7.178   9.182   7.203  1.7453  2.1633 -1.4870
  190MOL0     H25031   7.309   8.970   7.189  1.0200  2.0138 -1.2098
  190MOL0     H25032   7.212   8.926   7.043 -2.6983 -1.4721  1.9176
  190MOL0     H25033   7.031   8.748   7.101 -2.6957  0.4823  0.3571
  190MOL0     H25034   6.836   8.666   7.431  0.5844 -1.8834  0.7202
  190MOL0     H25035   6.938   8.584   7.321  0.6100  0.7278  1.7812
  190MOL0     H25036   6.697   8.551   7.259  0.5332 -1.2124 -3.4071
  190MOL0     H25037   6.772   8.614   7.123 -0.6029  0.8567  0.1730
  190MOL0     H25038   6.695   8.843   7.209  1.1479 -0.9552  0.4906
  190MOL0     H25039   6.563   8.748   7.158  0.8440 -1.1844 -1.3948
  190MOL0     H25040   6.509   8.869   7.346 -0.2683 -0.6719 -2.2301
  190MOL0     H25041   6.630   8.808   7.455 -0.2259  0.3285 -0.4736
  190MOL0     H25042   6.275   8.699   7.234 -1.9456 -1.0409  0.6894
  190MOL0     H25043   6.064   8.755   7.294 -0.1617  0.5222 -0.4093
  190MOL0     H25044   5.749   8.594   7.548 -4.3218 -3.9425  1.1959
  190MOL0     H25045   5.529   8.541   7.539  0.0807 -1.3242 -0.7047
  190MOL0     H25046   5.304   8.587   7.565 -1.7949  0.7974  0.3808
  190MOL0     H25047   5.311   8.478   7.434 -2.5450 -1.2425  0.5621
  190MOL0     H25048   5.063   8.636   7.519  0.4704  1.4788 -0.5536
  190MOL0     H25049   5.086   8.470   7.507 -0.0250  0.2054  0.7626
  190MOL0     H25050   5.123   8.495   7.273  1.8409  1.8085 -1.8404
  190MOL0     H25051   5.083   8.671   7.287 -0.1898  0.2896  3.3508
  190MOL0     H25052   4.915   8.440   7.335 -2.7978 -0.1548  0.6797
  190MOL0     H25053   4.858   8.607   7.375 -0.7577  1.2108 -1.3875
  190MOL0     H25054   4.930   8.478   7.111 -0.8812  0.5418 -0.0676
  190MOL0     H25055   4.900   8.653   7.126  1.2810 -0.0464  0.7664
  190MOL0     H25056   4.681   8.616   7.233  0.3726  0.7250 -0.3414
  190MOL0     H25057   4.695   8.443   7.222 -2.8838  0.5286  0.8485
  190MOL0     H25058   4.563   8.562   7.050  0.4935  1.9922 -1.9310
  190MOL0     H25059   4.708   8.627   6.981 -1.0067 -0.3881 -0.6307
  190MOL0     H25060   4.790   8.384   6.926  0.4581 -1.6320 -0.2235
  190MOL0     H25061   4.644   8.442   6.847 -2.2011  0.3754  1.4089
  190MOL0     H25062   5.457   8.867   7.258  0.2428 -0.5395 -0.7561
  190MOL0     H25063   5.690   8.935   7.281 -0.7667 -0.3605 -0.9294
  190MOL0     H25064   6.178   8.794   7.712  2.9646  2.4033  0.0872
  190MOL0     H25065   6.396   8.731   7.660 -0.0948 -0.7108 -0.1882
  190MOL0     H25066   6.298   9.025   7.021  1.0489 -0.1209  0.3885
  190MOL0     H25067   6.100   8.903   7.080  0.6829  1.3822 -1.6077
  190MOL0     H25068   5.866   8.568   7.165 -2.1789  0.0207  2.0635
  190MOL0     H25069   5.645   8.547   7.236 -0.9613 -3.6273  0.8178
  190MOL0     H25070   5.350   8.684   6.984  1.1892  0.5851  1.9610
  190MOL0     H25071   5.249   8.627   7.117 -1.8998 -2.1665 -0.9263
  190MOL0     H25072   5.314   8.436   6.879 -0.3770 -0.5500  0.9117
  190MOL0     H25073   5.196   8.406   7.002  0.4951 -0.6440 -0.3847
  190MOL0     H25074   5.162   8.662   6.846 -0.5247  0.3539 -0.2665
  190MOL0     H25075   5.043   8.566   6.942 -1.1361 -0.1179 -0.7135
  190MOL0     H25076   5.159   8.458   6.677  0.4915  0.2494 -1.0150
  190MOL0     H25077   5.050   8.379   6.801 -0.1098  0.1052 -2.0070
  190MOL0     H25078   4.793   8.635   6.583 -2.2040 -2.8006 -0.6728
  190MOL0     H25079   5.505   8.576   6.833 -0.7586  0.7769  0.8223
  190MOL0     H25080   5.744   8.628   6.755  2.6900 -0.6905 -0.6779
  191MOL0     O25081   2.185   0.877   9.322  0.0978  0.7573  0.4225
  191MOL0     C25082   2.231   0.770   9.362 -0.7716 -0.6976 -0.1808
  191MOL0     O25083   2.176   0.684   9.455 -0.3164 -0.5067  0.6008
  191MOL0     C25084   2.063   0.718   9.509 -0.3473 -0.0528 -0.0121
  191MOL0     C25085   2.054   0.820   9.606 -0.3597 -0.1819 -0.8850
  191MOL0     C25086   1.931   0.846   9.674 -0.5524 -0.6167 -0.0153
  191MOL0     C25087   1.818   0.762   9.658  0.3509 -0.3184 -1.0036
  191MOL0     O25088   1.710   0.785   9.736  0.2669 -0.1233  0.2365
  191MOL0     C25089   1.574   0.741   9.685  0.1493  0.4154  0.1869
  191MOL0     C25090   1.468   0.830   9.756  0.3863  0.4512  0.2004
  191MOL0     C25091   1.386   0.752   9.856 -0.4920  0.6254 -0.3338
  191MOL0     C25092   1.260   0.810   9.916 -0.2914 -0.5348 -0.0363
  191MOL0     C25093   1.268   0.811  10.066  0.5471  0.0433 -1.2583
  191MOL0     C25094   1.270   0.669  10.133 -0.6887 -0.4669 -0.7934
  191MOL0     C25095   1.241   0.668  10.292 -1.3835  0.1462  0.0747
  191MOL0     C25096   1.100   0.693  10.340 -0.2886  0.3288  0.0803
  191MOL0     N25097   1.019   0.580  10.308  0.1578 -0.4478 -1.2497
  191MOL0     C25098   1.001   0.479  10.396  0.2249 -0.4423  0.0039
  191MOL0     C25099   0.895   0.409  10.347  0.4087  0.1828 -0.4289
  191MOL0     C25100   0.833   0.287  10.392  0.5650 -0.7622 -0.0280
  191MOL0     C25101   0.690   0.333  10.439 -0.3129 -0.6671 -0.3740
  191MOL0     C25102   0.601   0.392  10.326 -0.0583 -0.2990 -0.1027
  191MOL0     C25103   0.458   0.362  10.353 -0.6666  0.8901  0.3375
  191MOL0     O25104   0.414   0.423  10.480  1.2482  0.1351 -0.8750
  191MOL0     C25105   0.280   0.405  10.519 -0.4324 -0.0646 -0.3303
  191MOL0     C25106   0.239   0.469  10.637 -0.3653  0.1333  0.1255
  191MOL0     C25107   0.106   0.462  10.672 -0.5151 -0.4532  0.3125
  191MOL0     C25108   0.013   0.386  10.608 -0.3795 -0.2095  0.1678
  191MOL0     C25109  -0.122   0.390  10.657  0.6072  0.0407 -0.5580
  191MOL0     O25110  -0.159   0.487  10.751 -0.4214  0.5240  0.2392
  191MOL0     C25111  -0.284   0.495  10.795  0.0076 -0.6527  0.2017
  191MOL0     C25112  -0.399   0.513  10.708  0.5415 -0.0203  0.3146
  191MOL0     C25113  -0.529   0.543  10.759  0.1269  0.1992 -0.1440
  191MOL0     C25114  -0.546   0.544  10.900 -0.4831  0.6423  0.0563
  191MOL0     O25115  -0.667   0.563  10.971 -0.2445  0.2734  1.2873
  191MOL0     C25116  -0.778   0.620  10.895 -1.2597 -0.1849  0.0135
  191MOL0     C25117  -0.904   0.612  10.981  0.2987  0.1017  0.4765
  191MOL0     C25118  -1.031   0.658  10.904 -0.2529 -0.8376  0.4447
  191MOL0     C25119  -1.159   0.662  10.987 -0.7350 -0.1566  0.6457
  191MOL0     C25120  -1.281   0.651  10.894  0.6375  0.3387 -0.1775
  191MOL0     C25121  -1.402   0.637  10.980 -0.4185 -0.0595  0.1057
  191MOL0     C25122  -1.532   0.629  10.899  0.2153  0.5001  0.2011
  191MOL0     C25123  -1.629   0.526  10.959 -0.0565  0.1887  0.6937
  191MOL0    Cl25124  -1.792   0.580  10.920  0.2741 -0.0033 -0.0548
  191MOL0     C25125  -0.436   0.528  10.976  0.5895  0.3652 -0.2915
  191MOL0     C25126  -0.307   0.502  10.933  0.5651  0.1394  0.8217
  191MOL0     O25127  -0.196   0.301  10.617  0.0583 -0.3925  0.5277
  191MOL0     C25128   0.054   0.315  10.498 -0.3844  0.0368 -0.0976
  191MOL0     C25129   0.188   0.319  10.455 -0.5690 -0.3705  0.1576
  191MOL0     N25130   0.861   0.471  10.227 -1.0041  0.2664  0.2029
  191MOL0     N25131   0.927   0.577  10.214 -0.1598  0.0185 -0.1637
  191MOL0     C25132   1.823   0.669   9.559  0.3005 -0.4553 -0.3093
  191MOL0     C25133   1.943   0.646   9.489 -0.8114 -0.2997 -0.0731
  191MOL0     C25134   2.363   0.721   9.300  0.4923 -0.8424 -0.2683
  191MOL0     C25135   2.424   0.600   9.337  0.4226 -0.7641  0.1070
  191MOL0     C25136   2.535   0.563   9.270 -0.6887 -0.4903  0.0368
  191MOL0     C25137   2.600   0.652   9.184 -0.1738  0.4958  0.0114
  191MOL0     O25138   2.723   0.614   9.144 -0.0215 -0.0940 -0.0479
  191MOL0     C25139   2.786   0.691   9.033 -0.2203 -0.1250  0.3637
  191MOL0     C25140   2.900   0.610   8.975  0.6261 -0.8509  0.1523
  191MOL0     C25141   2.975   0.680   8.863  0.0945 -0.6354  0.6401
  191MOL0     C25142   2.881   0.739   8.753 -0.6091  0.4633  0.3727
  191MOL0     C25143   2.951   0.768   8.624  0.7408 -0.6373  0.4097
  191MOL0     C25144   2.985   0.777   8.510 -1.1331 -0.0146  0.0534
  191MOL0     C25145   2.537   0.768   9.138  0.7506  0.2599 -0.5760
  191MOL0     C25146   2.415   0.801   9.202 -0.1610  0.2128  0.0809
  191MOL0     H25147   2.148   0.862   9.638  0.5590 -1.9886 -1.0623
  191MOL0     H25148   1.940   0.896   9.770 -2.3908 -1.2369  0.5225
  191MOL0     H25149   1.552   0.636   9.708 -2.5073  0.4855 -1.6514
  191MOL0     H25150   1.572   0.751   9.576 -1.6595 -1.5572 -0.0261
  191MOL0     H25151   1.401   0.871   9.680 -0.0575  0.8328  0.7861
  191MOL0     H25152   1.519   0.915   9.803  1.8372  1.3686 -2.7925
  191MOL0     H25153   1.455   0.727   9.937 -0.1647 -0.0297 -0.8130
  191MOL0     H25154   1.356   0.658   9.809  1.1094  1.2165 -2.7000
  191MOL0     H25155   1.246   0.910   9.873 -4.3103 -1.8051 -2.1770
  191MOL0     H25156   1.173   0.749   9.891  0.4806 -2.2668  1.2661
  191MOL0     H25157   1.180   0.863  10.104  0.3381 -0.3605 -1.1817
  191MOL0     H25158   1.358   0.857  10.109  1.9457 -2.2339 -1.5621
  191MOL0     H25159   1.358   0.605  10.121  0.8881  0.9169  2.1649
  191MOL0     H25160   1.190   0.625  10.073 -2.7153  2.4386 -0.4078
  191MOL0     H25161   1.279   0.574  10.332 -2.2753 -1.2812 -2.2452
  191MOL0     H25162   1.311   0.745  10.327 -0.0187 -1.5757  1.2779
  191MOL0     H25163   1.069   0.789  10.296 -0.0128  0.6655  0.6072
  191MOL0     H25164   1.104   0.716  10.447  5.2631  2.5045 -0.2953
  191MOL0     H25165   1.049   0.460  10.491  0.2969  3.2532  0.8673
  191MOL0     H25166   0.897   0.256  10.476  0.4764 -0.2943  0.2140
  191MOL0     H25167   0.823   0.219  10.307 -3.3140 -0.0525 -0.3168
  191MOL0     H25168   0.689   0.415  10.512 -0.8092  0.4015 -1.5508
  191MOL0     H25169   0.636   0.246  10.478 -0.6656 -1.3232 -2.2136
  191MOL0     H25170   0.626   0.498  10.316  1.8278 -0.2976  3.2152
  191MOL0     H25171   0.635   0.342  10.235  1.0333 -0.7632  0.5398
  191MOL0     H25172   0.443   0.254  10.362  0.6020  0.8117  2.0270
  191MOL0     H25173   0.399   0.393  10.266  0.2153 -0.3830 -0.7641
  191MOL0     H25174   0.307   0.536  10.689  2.0692 -0.1612 -2.4320
  191MOL0     H25175   0.087   0.533  10.752 -2.4433 -1.1957  0.5710
  191MOL0     H25176  -0.416   0.509  10.601 -1.6188 -5.1928  0.5466
  191MOL0     H25177  -0.615   0.560  10.695 -0.2121 -1.7721 -0.2706
  191MOL0     H25178  -0.805   0.560  10.808  0.6593 -4.4073  2.0706
  191MOL0     H25179  -0.752   0.725  10.879  2.2478 -0.9521 -0.1982
  191MOL0     H25180  -0.892   0.677  11.068  0.4730  1.9770 -0.8864
  191MOL0     H25181  -0.925   0.511  11.017 -0.8390  0.7824  1.8000
  191MOL0     H25182  -1.024   0.599  10.812  0.8007  0.5569 -0.3903
  191MOL0     H25183  -1.012   0.759  10.867  1.6256 -0.8035  1.3606
  191MOL0     H25184  -1.159   0.580  11.059  1.2988 -0.7727  0.0128
  191MOL0     H25185  -1.165   0.751  11.051  2.7612  0.6315  0.0772
  191MOL0     H25186  -1.276   0.555  10.842  3.1721 -3.4300  5.9491
  191MOL0     H25187  -1.286   0.741  10.832  1.8295 -1.4831 -3.1291
  191MOL0     H25188  -1.401   0.714  11.058 -2.3542 -1.6443  1.8221
  191MOL0     H25189  -1.387   0.548  11.043 -0.3839 -0.3278 -0.2824
  191MOL0     H25190  -1.589   0.721  10.882 -0.5600 -0.1284 -0.6368
  191MOL0     H25191  -1.509   0.598  10.797 -0.9772  3.1804 -1.0044
  191MOL0     H25192  -1.625   0.527  11.068 -0.9746 -1.4330  0.7885
  191MOL0     H25193  -1.610   0.423  10.927 -0.9887  0.3795 -0.5377
  191MOL0     H25194  -0.448   0.537  11.083 -2.1356  0.6831 -0.5520
  191MOL0     H25195  -0.223   0.498  11.002 -1.0139  1.8916  3.0134
  191MOL0     H25196  -0.023   0.267  10.437 -0.8322  3.2937 -2.3654
  191MOL0     H25197   0.219   0.267  10.365  1.4824  1.9343 -0.5746
  191MOL0     H25198   1.748   0.592   9.541  0.5377 -0.3586 -1.8188
  191MOL0     H25199   1.951   0.562   9.420 -1.8128 -1.1876  0.8441
  191MOL0     H25200   2.366   0.529   9.396  1.4490  0.5240  2.8510
  191MOL0     H25201   2.586   0.471   9.294  0.0722 -0.2537 -0.6223
  191MOL0     H25202   2.818   0.788   9.072 -1.4532  1.5484 -2.5216
  191MOL0     H25203   2.709   0.720   8.961  0.7602 -1.8406 -1.4671
  191MOL0     H25204   2.971   0.586   9.055  2.3995  2.3167 -0.2917
  191MOL0     H25205   2.868   0.514   8.932 -0.0425 -0.9623  0.8738
  191MOL0     H25206   3.036   0.605   8.813 -2.9286 -1.8827 -1.4744
  191MOL0     H25207   3.042   0.744   8.920  0.2749 -1.0224  0.8714
  191MOL0     H25208   2.802   0.665   8.744 -0.6120 -0.1188  3.8043
  191MOL0     H25209   2.834   0.828   8.795  0.5061  0.1432  2.4591
  191MOL0     H25210   3.036   0.786   8.417 -1.0277 -0.8815  0.0202
  191MOL0     H25211   2.579   0.850   9.081 -1.6775  2.8526  1.1092
  191MOL0     H25212   2.373   0.899   9.182 -2.4205 -0.5984  0.5413
  192MOL0     O25213  10.446   1.783   4.332 -0.1733 -0.3966 -0.0840
  192MOL0     C25214  10.504   1.745   4.236  0.0679 -0.5268  0.1674
  192MOL0     O25215  10.457   1.738   4.114  0.2309 -0.1278  0.5561
  192MOL0     C25216  10.325   1.746   4.084 -0.0443 -0.1379  0.7767
  192MOL0     C25217  10.289   1.663   3.974  0.2463 -0.1947 -0.4657
  192MOL0     C25218  10.152   1.655   3.948  0.6644 -0.9212 -0.3783
  192MOL0     C25219  10.051   1.731   4.011 -0.6456 -0.9587 -0.5674
  192MOL0     O25220   9.916   1.729   3.993 -0.3324 -0.3272 -0.2005
  192MOL0     C25221   9.865   1.670   3.876 -0.7387  0.0818 -0.1950
  192MOL0     C25222   9.713   1.659   3.876  1.4388 -0.6314  0.0982
  192MOL0     C25223   9.661   1.569   3.761 -0.2549 -0.0592  0.3598
  192MOL0     C25224   9.533   1.623   3.708 -0.1307 -0.3352 -0.3542
  192MOL0     C25225   9.480   1.546   3.586 -0.3268  0.8581  0.0689
  192MOL0     C25226   9.341   1.590   3.556  0.1588 -0.5725  0.1519
  192MOL0     C25227   9.351   1.734   3.485  0.2742 -0.1838 -0.7542
  192MOL0     C25228   9.225   1.801   3.478  0.2113 -0.3618 -0.7088
  192MOL0     N25229   9.255   1.937   3.417 -0.1939  0.0489 -0.3688
  192MOL0     C25230   9.171   2.039   3.423  0.7498 -0.0917 -0.5813
  192MOL0     C25231   9.202   2.135   3.336  0.9327 -0.2472  0.1337
  192MOL0     C25232   9.138   2.266   3.319 -0.3782  0.8452 -0.1749
  192MOL0     C25233   9.021   2.270   3.229  0.5995 -0.5284  0.3076
  192MOL0     C25234   8.904   2.179   3.258 -0.1294 -0.5669 -0.8237
  192MOL0     C25235   8.793   2.184   3.143  0.5674 -1.0257  0.0208
  192MOL0     O25236   8.735   2.312   3.142 -0.5432 -0.0718  0.2927
  192MOL0     C25237   8.594   2.318   3.159  0.0851  1.2198  0.3022
  192MOL0     C25238   8.520   2.295   3.042 -0.5612 -0.5963  0.5547
  192MOL0     C25239   8.385   2.282   3.040 -0.0469 -0.2434 -0.6496
  192MOL0     C25240   8.318   2.268   3.160  0.3483  0.2351 -0.0277
  192MOL0     C25241   8.171   2.256   3.166 -0.4137  0.4405 -0.2937
  192MOL0     O25242   8.099   2.269   3.054  0.2096  0.0764 -0.4050
  192MOL0     C25243   7.961   2.249   3.046  0.7205 -0.3251  0.5178
  192MOL0     C25244   7.908   2.268   2.916  0.4061 -0.1873  0.0131
  192MOL0     C25245   7.767   2.260   2.892 -0.1111  0.6147 -1.3004
  192MOL0     C25246   7.678   2.225   3.000 -0.4316  0.1710 -0.1153
  192MOL0     O25247   7.549   2.224   2.968  0.0405  0.1317  0.6974
  192MOL0     C25248   7.447   2.255   3.060 -0.7642 -0.2552  0.0315
  192MOL0     C25249   7.444   2.406   3.081  0.2179 -0.2707  0.0452
  192MOL0     C25250   7.345   2.448   3.189  0.0838  0.3758 -0.2482
  192MOL0     C25251   7.194   2.431   3.164 -0.1943 -0.1420 -0.0431
  192MOL0     C25252   7.120   2.468   3.297 -0.4367 -0.2840  0.3407
  192MOL0     C25253   6.968   2.443   3.289 -0.2105  0.5896  0.3753
  192MOL0     C25254   6.923   2.295   3.270  0.0241  0.4297  0.1948
  192MOL0     C25255   6.768   2.298   3.278 -0.9446 -0.5860 -0.2160
  192MOL0    Cl25256   6.704   2.129   3.265 -0.3834  0.1490 -0.2663
  192MOL0     C25257   7.730   2.211   3.129  0.7717  0.6488 -0.4132
  192MOL0     C25258   7.864   2.225   3.149 -0.9741 -0.2660 -0.1896
  192MOL0     O25259   8.122   2.241   3.277  0.3603  0.7116 -0.4550
  192MOL0     C25260   8.393   2.276   3.279 -0.0482  0.5862 -0.4155
  192MOL0     C25261   8.531   2.306   3.278  0.6946  0.0868 -1.0703
  192MOL0     N25262   9.312   2.097   3.277 -0.5454 -0.2713 -1.0245
  192MOL0     N25263   9.344   1.981   3.326 -0.5852 -0.7174 -0.5067
  192MOL0     C25264  10.098   1.827   4.112  0.3393  0.8072 -0.1998
  192MOL0     C25265  10.232   1.833   4.142 -0.8255 -0.3141  0.4025
  192MOL0     C25266  10.648   1.714   4.260  1.3182 -0.3761  0.1830
  192MOL0     C25267  10.713   1.624   4.167  0.1206  0.1985 -0.5237
  192MOL0     C25268  10.852   1.586   4.188 -0.0844  0.2905 -0.2617
  192MOL0     C25269  10.929   1.644   4.292 -0.5977  0.8153  0.5775
  192MOL0     O25270  11.062   1.606   4.295 -0.7436  0.7580  0.1482
  192MOL0     C25271  11.152   1.632   4.407 -0.3647  0.4222  0.4182
  192MOL0     C25272  11.257   1.523   4.432  0.4946 -0.0145  0.1775
  192MOL0     C25273  11.406   1.568   4.446  0.0676  0.1513 -0.4319
  192MOL0     C25274  11.506   1.454   4.493 -0.0111 -0.9115  0.0490
  192MOL0     C25275  11.474   1.410   4.627  0.7540 -0.8011  0.6283
  192MOL0     C25276  11.414   1.383   4.726 -0.6495  0.3868 -0.2722
  192MOL0     C25277  10.869   1.729   4.378 -0.3320  0.3446 -0.2673
  192MOL0     C25278  10.734   1.757   4.372 -0.2375 -0.3407 -0.5166
  192MOL0     H25279  10.357   1.594   3.924  0.5361  1.8718 -3.1344
  192MOL0     H25280  10.117   1.588   3.870  3.0937 -1.0793 -1.4349
  192MOL0     H25281   9.904   1.568   3.885 -0.6036  0.1028 -0.5532
  192MOL0     H25282   9.906   1.712   3.784  1.7707  1.6414  1.5279
  192MOL0     H25283   9.655   1.751   3.884  2.5435  0.0523  0.5078
  192MOL0     H25284   9.702   1.608   3.972 -1.1366 -0.7125 -0.1820
  192MOL0     H25285   9.657   1.463   3.785 -1.0719  0.4342  2.7178
  192MOL0     H25286   9.733   1.571   3.679 -1.0066  2.3977 -0.3186
  192MOL0     H25287   9.459   1.618   3.789 -0.6907  1.6954 -0.7004
  192MOL0     H25288   9.555   1.729   3.691  1.3175 -0.2496  1.6562
  192MOL0     H25289   9.473   1.439   3.603  1.8828  0.5541 -0.6557
  192MOL0     H25290   9.539   1.548   3.494 -2.8775  1.2314 -1.6783
  192MOL0     H25291   9.284   1.581   3.649 -0.2316 -0.1916 -0.0496
  192MOL0     H25292   9.295   1.520   3.485 -0.8213  0.5092 -0.3084
  192MOL0     H25293   9.416   1.803   3.539  0.2658 -0.8436  0.1121
  192MOL0     H25294   9.397   1.713   3.388  2.6320  0.7277  0.0983
  192MOL0     H25295   9.179   1.813   3.576  3.0783 -2.5860  1.0800
  192MOL0     H25296   9.143   1.758   3.420 -1.1317  2.2207 -0.8787
  192MOL0     H25297   9.084   2.045   3.488  0.2936  1.9242 -1.2899
  192MOL0     H25298   9.213   2.325   3.267  3.0042  0.1641  3.4318
  192MOL0     H25299   9.122   2.311   3.418  1.5388  0.9085  0.1410
  192MOL0     H25300   9.050   2.241   3.127 -2.3090 -2.0672 -0.2128
  192MOL0     H25301   8.986   2.373   3.221  1.7499 -0.1381  0.2104
  192MOL0     H25302   8.920   2.071   3.258 -1.4551 -0.8821  2.3750
  192MOL0     H25303   8.863   2.207   3.356  1.8119  0.9757 -0.4056
  192MOL0     H25304   8.715   2.112   3.168  1.1492 -3.0267 -3.3135
  192MOL0     H25305   8.831   2.152   3.045 -0.5078 -1.1241 -0.3771
  192MOL0     H25306   8.577   2.279   2.951 -0.3847  3.4416 -0.2707
  192MOL0     H25307   8.332   2.272   2.946 -0.6634  0.3080 -0.3731
  192MOL0     H25308   7.975   2.301   2.836  2.3362 -1.9339  0.8252
  192MOL0     H25309   7.718   2.271   2.796  1.3097 -0.1637 -2.1483
  192MOL0     H25310   7.454   2.189   3.147  0.2630 -1.1993 -0.7241
  192MOL0     H25311   7.351   2.234   3.012 -0.3732  0.6300 -1.1702
  192MOL0     H25312   7.422   2.464   2.991 -1.5365 -0.3889  0.3565
  192MOL0     H25313   7.542   2.446   3.108  0.1922 -0.9265  1.2178
  192MOL0     H25314   7.363   2.553   3.214  1.7076 -0.2974  1.7368
  192MOL0     H25315   7.361   2.392   3.282 -2.8936 -0.9744 -0.4286
  192MOL0     H25316   7.159   2.495   3.082  1.5327 -1.0235 -1.5364
  192MOL0     H25317   7.169   2.333   3.123 -2.5330  0.6203 -0.6166
  192MOL0     H25318   7.138   2.574   3.318 -0.9620 -0.1985  0.3618
  192MOL0     H25319   7.152   2.408   3.383 -0.0976  0.1272  0.5090
  192MOL0     H25320   6.949   2.489   3.191  0.6783  0.6553  0.2230
  192MOL0     H25321   6.915   2.489   3.372 -1.1041  0.3539 -0.0504
  192MOL0     H25322   6.953   2.259   3.172  0.2651  1.3532 -0.0789
  192MOL0     H25323   6.968   2.234   3.348 -0.2067 -0.1382 -0.1138
  192MOL0     H25324   6.728   2.357   3.195  1.6169 -2.3723 -2.9288
  192MOL0     H25325   6.744   2.333   3.379 -0.1495 -1.5282  0.3239
  192MOL0     H25326   7.660   2.224   3.211  2.1227  4.2689  0.3447
  192MOL0     H25327   7.905   2.209   3.249  2.4485 -0.0008 -1.4403
  192MOL0     H25328   8.341   2.275   3.374  0.2594  0.2603 -0.2492
  192MOL0     H25329   8.588   2.332   3.367  3.5917 -0.5311 -2.5945
  192MOL0     H25330  10.022   1.877   4.171 -1.9273 -2.3015 -0.2145
  192MOL0     H25331  10.261   1.908   4.216 -1.3318  1.1613 -0.8377
  192MOL0     H25332  10.667   1.581   4.079  0.7315  0.5274 -1.0147
  192MOL0     H25333  10.911   1.525   4.120  2.9732  1.1814  1.3627
  192MOL0     H25334  11.092   1.643   4.498 -0.7089 -2.3111  0.5820
  192MOL0     H25335  11.215   1.718   4.382  0.0163 -0.5863 -2.4020
  192MOL0     H25336  11.234   1.473   4.527  1.6760  2.0602  1.6568
  192MOL0     H25337  11.253   1.462   4.342  0.2118  1.4237 -0.8176
  192MOL0     H25338  11.408   1.650   4.518 -2.3889 -2.0859  2.4645
  192MOL0     H25339  11.433   1.595   4.343 -1.6829 -0.1816 -1.0244
  192MOL0     H25340  11.497   1.368   4.425 -0.9939 -1.4448  0.8296
  192MOL0     H25341  11.610   1.487   4.500 -0.9503  2.1021  1.3612
  192MOL0     H25342  11.380   1.361   4.825  3.6392 -0.0670  1.3091
  192MOL0     H25343  10.927   1.780   4.454 -1.6446  0.9507  0.3541
  192MOL0     H25344  10.690   1.829   4.440  2.9047  0.8123  0.5218
  193MOL0     O25345   2.404   3.681   7.152  0.4179  0.3506  0.4978
  193MOL0     C25346   2.400   3.659   7.029 -0.0393  0.2074  0.1215
  193MOL0     O25347   2.331   3.735   6.939  0.0680  0.4778 -0.3154
  193MOL0     C25348   2.235   3.812   6.990  1.2348  0.0361  0.4040
  193MOL0     C25349   2.229   3.944   6.946 -0.0960 -0.0712 -1.1268
  193MOL0     C25350   2.130   4.026   7.003 -0.3598  1.3027 -0.0382
  193MOL0     C25351   2.024   3.981   7.078  0.5462  0.0168  0.5062
  193MOL0     O25352   1.924   4.066   7.115  0.5865  0.1119 -0.0536
  193MOL0     C25353   1.871   4.064   7.252 -0.5428  0.3266 -0.4496
  193MOL0     C25354   1.741   4.005   7.238  0.4467  0.1306 -0.4495
  193MOL0     C25355   1.647   4.103   7.172  0.5635 -0.1954  0.0306
  193MOL0     C25356   1.503   4.054   7.200 -0.9400 -0.4056  0.2229
  193MOL0     C25357   1.406   4.144   7.111  0.5367  0.5927  0.1281
  193MOL0     C25358   1.260   4.117   7.134  0.4148 -0.0133  0.1848
  193MOL0     C25359   1.178   4.227   7.071 -0.0942  0.1645  0.2762
  193MOL0     C25360   1.197   4.363   7.137 -0.5962 -0.6132 -1.2440
  193MOL0     N25361   1.098   4.469   7.087 -0.1334  1.3509  0.0106
  193MOL0     C25362   1.022   4.443   6.971  0.3048 -0.6608 -0.7498
  193MOL0     C25363   0.913   4.522   6.983 -0.5080  0.0563  1.0270
  193MOL0     C25364   0.804   4.536   6.885 -0.2567  0.0873 -0.5850
  193MOL0     C25365   0.811   4.648   6.776 -0.1855 -0.7383  0.0454
  193MOL0     C25366   0.850   4.774   6.838 -0.1095 -0.0556  0.7654
  193MOL0     C25367   0.893   4.877   6.735  0.0083 -0.2792  0.3035
  193MOL0     O25368   0.899   5.005   6.795 -0.7232 -0.3282  0.1524
  193MOL0     C25369   0.783   5.076   6.805  0.6140  0.2385  0.0908
  193MOL0     C25370   0.722   5.097   6.923  0.9393 -1.1003 -0.6817
  193MOL0     C25371   0.598   5.160   6.936  0.7075  0.8551 -0.3919
  193MOL0     C25372   0.531   5.193   6.816  0.4212 -0.3772  0.1087
  193MOL0     C25373   0.397   5.255   6.815  0.7625 -0.9092 -0.1429
  193MOL0     O25374   0.371   5.335   6.925  0.6892  0.1908  0.0020
  193MOL0     C25375   0.248   5.393   6.930  0.1327  0.5467  0.5207
  193MOL0     C25376   0.137   5.321   6.963  0.5882  0.0145 -0.7155
  193MOL0     C25377   0.013   5.389   6.976 -0.6782 -0.9133  0.1266
  193MOL0     C25378  -0.006   5.520   6.933 -0.6724 -0.3968 -0.1500
  193MOL0     O25379  -0.122   5.582   6.971  0.2994 -0.3483 -0.0026
  193MOL0     C25380  -0.190   5.641   6.857  0.1817 -0.2018  0.5382
  193MOL0     C25381  -0.328   5.709   6.901 -1.0525  0.5043 -0.0545
  193MOL0     C25382  -0.415   5.738   6.784 -0.1899 -0.4754 -0.2692
  193MOL0     C25383  -0.529   5.836   6.826 -0.0349 -0.6755 -0.2773
  193MOL0     C25384  -0.628   5.892   6.725  0.0923  0.3803 -0.8186
  193MOL0     C25385  -0.737   5.981   6.780 -0.5448  0.4512  0.3399
  193MOL0     C25386  -0.856   5.951   6.690 -0.5428 -0.0115 -0.4800
  193MOL0     C25387  -0.977   6.034   6.723 -0.0496 -1.1283  0.1860
  193MOL0    Cl25388  -0.987   6.201   6.657  0.0279 -0.4078 -0.3098
  193MOL0     C25389   0.111   5.584   6.886  0.3551 -0.0960  0.1057
  193MOL0     C25390   0.237   5.524   6.880  0.8198  0.3677 -0.3720
  193MOL0     O25391   0.321   5.236   6.726  0.1328 -0.0295  0.3948
  193MOL0     C25392   0.585   5.166   6.691 -0.5579 -0.0125  0.2448
  193MOL0     C25393   0.715   5.108   6.688 -0.1365 -0.0759 -0.2249
  193MOL0     N25394   0.925   4.592   7.106  0.0531  0.0118  0.5848
  193MOL0     N25395   1.038   4.566   7.161 -0.5580  0.3988  0.2303
  193MOL0     C25396   2.023   3.848   7.110 -0.1267 -0.5762 -0.5023
  193MOL0     C25397   2.122   3.761   7.057 -0.8942 -0.0497  0.1704
  193MOL0     C25398   2.492   3.553   6.988  0.7108 -0.0539 -0.5901
  193MOL0     C25399   2.588   3.506   7.077 -1.1143 -0.8792  0.4285
  193MOL0     C25400   2.687   3.419   7.036  0.1570 -0.0997  0.0005
  193MOL0     C25401   2.705   3.378   6.904  0.1960  0.8859 -0.1344
  193MOL0     O25402   2.798   3.287   6.862  0.7134 -0.5465 -0.3911
  193MOL0     C25403   2.922   3.290   6.928 -0.4756 -0.1734 -0.7352
  193MOL0     C25404   2.918   3.184   7.037 -0.0573  0.2871 -0.7167
  193MOL0     C25405   3.058   3.138   7.060  0.5294 -0.2244  0.5359
  193MOL0     C25406   3.149   3.243   7.121  0.3461  0.1716  0.2612
  193MOL0     C25407   3.287   3.191   7.119 -0.5114  0.1049 -0.7407
  193MOL0     C25408   3.412   3.160   7.117 -0.0950  0.3665 -0.5238
  193MOL0     C25409   2.601   3.421   6.811 -0.0444  0.5104 -0.0493
  193MOL0     C25410   2.497   3.512   6.852  0.3451 -0.3952  0.0563
  193MOL0     H25411   2.303   3.994   6.884  1.1194 -0.4028  0.0030
  193MOL0     H25412   2.144   4.131   6.981  0.3370  0.8276 -2.0980
  193MOL0     H25413   1.873   4.167   7.289  1.0014  0.6456 -1.3120
  193MOL0     H25414   1.932   4.004   7.319 -2.3000 -2.5748 -1.2927
  193MOL0     H25415   1.701   3.984   7.338  1.5603 -0.0275 -0.0275
  193MOL0     H25416   1.750   3.910   7.185  0.5898  0.3555 -0.8280
  193MOL0     H25417   1.669   4.103   7.065  0.8173 -2.9427  0.0231
  193MOL0     H25418   1.666   4.202   7.213 -1.6100 -0.8345  2.9343
  193MOL0     H25419   1.498   3.953   7.158 -3.3941 -0.1550 -0.2399
  193MOL0     H25420   1.472   4.058   7.305  1.3017  0.1829  0.9270
  193MOL0     H25421   1.422   4.120   7.006 -0.2210  0.5648  0.0103
  193MOL0     H25422   1.434   4.249   7.123 -0.4307  1.2596 -2.7623
  193MOL0     H25423   1.245   4.104   7.241  0.2669  2.3601  0.5021
  193MOL0     H25424   1.226   4.021   7.093 -2.4444 -0.0198  2.2439
  193MOL0     H25425   1.178   4.225   6.962  1.3164 -2.4643  0.2252
  193MOL0     H25426   1.079   4.188   7.097  0.4760 -3.3258 -2.0463
  193MOL0     H25427   1.297   4.400   7.112 -0.1553 -0.3735  0.7677
  193MOL0     H25428   1.193   4.357   7.246  0.8756 -1.0757 -1.1958
  193MOL0     H25429   1.060   4.394   6.882  3.6760  1.1189 -0.4458
  193MOL0     H25430   0.722   4.573   6.947  0.9005  1.1946  0.3328
  193MOL0     H25431   0.785   4.440   6.835  2.3081 -0.4096 -0.7709
  193MOL0     H25432   0.714   4.668   6.729 -0.8360  1.9179  2.2694
  193MOL0     H25433   0.886   4.605   6.708  1.2133  3.9369 -1.7490
  193MOL0     H25434   0.762   4.808   6.893 -0.6682 -0.2574 -0.0076
  193MOL0     H25435   0.930   4.751   6.910 -2.0268 -1.6727  2.5404
  193MOL0     H25436   0.813   4.883   6.661 -0.4045  1.5111  0.8549
  193MOL0     H25437   0.980   4.856   6.671 -1.7562 -0.1670 -2.2898
  193MOL0     H25438   0.767   5.066   7.017 -1.7751  2.5283  2.1103
  193MOL0     H25439   0.544   5.171   7.030  0.6632 -0.9365 -0.1872
  193MOL0     H25440   0.150   5.217   6.993  0.2345  0.7446  2.3206
  193MOL0     H25441  -0.079   5.343   7.011 -1.1393  0.3494  0.6194
  193MOL0     H25442  -0.215   5.562   6.786 -0.6075  0.5176 -0.0061
  193MOL0     H25443  -0.124   5.708   6.801  1.6706 -3.0714 -1.4083
  193MOL0     H25444  -0.310   5.800   6.960 -2.3907  0.1277  0.9921
  193MOL0     H25445  -0.372   5.641   6.974  1.3338 -0.4307  0.5976
  193MOL0     H25446  -0.446   5.646   6.734 -0.1460 -0.4683 -0.3091
  193MOL0     H25447  -0.342   5.787   6.719 -0.7425 -1.6051 -1.7849
  193MOL0     H25448  -0.586   5.797   6.911  0.3555 -3.1121 -1.0650
  193MOL0     H25449  -0.478   5.929   6.852  1.5587 -1.4928 -0.3596
  193MOL0     H25450  -0.674   5.799   6.690 -1.7708  0.3647  1.3931
  193MOL0     H25451  -0.575   5.933   6.639 -0.4665  1.5830 -0.6264
  193MOL0     H25452  -0.696   6.082   6.780  1.3725 -0.2611 -1.7662
  193MOL0     H25453  -0.777   5.957   6.879 -1.2539 -0.2632 -0.1050
  193MOL0     H25454  -0.830   5.958   6.584  1.0999 -1.3197 -0.2149
  193MOL0     H25455  -0.884   5.847   6.712 -2.2525  0.5752  0.2732
  193MOL0     H25456  -0.985   6.048   6.831 -0.1650 -0.3601  0.0836
  193MOL0     H25457  -1.061   5.972   6.689  1.1402 -2.4264 -0.5084
  193MOL0     H25458   0.098   5.687   6.853 -1.9344  0.0325  1.1943
  193MOL0     H25459   0.326   5.577   6.847  1.9658  0.7747  2.9817
  193MOL0     H25460   0.541   5.193   6.596  0.0776  0.8586  0.1898
  193MOL0     H25461   0.746   5.075   6.590 -0.7748  3.5897 -1.8378
  193MOL0     H25462   1.944   3.787   7.153  0.6888 -1.0583  0.3260
  193MOL0     H25463   2.115   3.653   7.047 -1.5038  0.1144 -1.4288
  193MOL0     H25464   2.590   3.552   7.175  1.2133 -0.1447  0.1070
  193MOL0     H25465   2.765   3.393   7.108  1.5855 -1.4860 -1.9484
  193MOL0     H25466   2.957   3.384   6.970  2.1370 -1.9322  1.3707
  193MOL0     H25467   3.003   3.268   6.857 -1.6342  0.1115 -2.2012
  193MOL0     H25468   2.879   3.221   7.133  1.3116  0.5872 -0.2594
  193MOL0     H25469   2.846   3.105   7.012 -0.2501  0.1868  0.1206
  193MOL0     H25470   3.096   3.106   6.962 -1.9099  2.3027 -1.4104
  193MOL0     H25471   3.060   3.054   7.130 -0.2898  0.3565  1.2699
  193MOL0     H25472   3.155   3.333   7.059  3.5687  0.5937  0.9799
  193MOL0     H25473   3.124   3.272   7.223  2.7279  2.0791  0.4072
  193MOL0     H25474   3.517   3.141   7.118 -0.6109 -3.0991 -0.4458
  193MOL0     H25475   2.588   3.382   6.711  1.6719 -2.5289  0.7794
  193MOL0     H25476   2.421   3.543   6.780  0.9682  1.0442 -0.0052
  194MOL0     O25477   5.888   6.870   3.997 -0.2497  0.4602  0.2965
  194MOL0     C25478   5.971   6.911   4.085 -0.6263 -0.7016 -0.1170
  194MOL0     O25479   6.092   6.975   4.060  0.5081  0.6910 -0.2352
  194MOL0     C25480   6.122   7.017   3.933  0.5034 -0.6221 -0.0895
  194MOL0     C25481   6.130   6.925   3.826  0.6849  0.0332  0.0101
  194MOL0     C25482   6.139   6.970   3.692  0.0703  0.5352  0.2250
  194MOL0     C25483   6.154   7.110   3.669  0.6129 -0.2055 -0.2962
  194MOL0     O25484   6.178   7.174   3.552  0.1269 -0.3167 -0.2747
  194MOL0     C25485   6.191   7.099   3.430  0.4264 -0.2082 -0.9371
  194MOL0     C25486   6.254   7.181   3.314  0.4598  0.1437  0.3084
  194MOL0     C25487   6.359   7.289   3.348 -0.0858  0.2343 -0.4282
  194MOL0     C25488   6.448   7.310   3.227 -0.2378  1.0769 -0.4004
  194MOL0     C25489   6.541   7.432   3.237  0.5543  0.2329 -0.7372
  194MOL0     C25490   6.463   7.564   3.214 -1.3506 -0.7063  0.0318
  194MOL0     C25491   6.551   7.688   3.234  0.2246 -0.0248 -0.0261
  194MOL0     C25492   6.455   7.809   3.262  0.6572 -0.4510  0.1522
  194MOL0     N25493   6.365   7.818   3.145  0.0669  0.0691 -0.6318
  194MOL0     C25494   6.389   7.887   3.032  0.2685 -0.9085  0.5228
  194MOL0     C25495   6.277   7.872   2.956 -0.0543  0.6305  0.6937
  194MOL0     C25496   6.272   7.893   2.810  0.4417  0.6690  0.4908
  194MOL0     C25497   6.251   7.767   2.729  0.0687  0.3688 -0.4341
  194MOL0     C25498   6.225   7.803   2.577  0.3350  0.1464 -0.2120
  194MOL0     C25499   6.174   7.688   2.499 -0.6046 -0.6505  0.6772
  194MOL0     O25500   6.058   7.623   2.558  0.3904 -1.1191 -0.0674
  194MOL0     C25501   5.944   7.680   2.514 -0.1488 -0.6711  0.2233
  194MOL0     C25502   5.881   7.646   2.397  0.1302  0.2174  0.6598
  194MOL0     C25503   5.755   7.705   2.354  0.2396 -0.6940  0.4984
  194MOL0     C25504   5.693   7.805   2.426 -0.0077 -0.7315 -0.2543
  194MOL0     C25505   5.561   7.860   2.388  0.0836  0.0407 -0.6569
  194MOL0     O25506   5.497   7.822   2.272 -0.1334  0.0783 -0.6927
  194MOL0     C25507   5.365   7.852   2.243  0.0434 -0.1204 -0.3818
  194MOL0     C25508   5.293   7.972   2.282 -0.0571  0.3426 -0.2773
  194MOL0     C25509   5.165   7.997   2.233  0.2062  0.1256  0.0987
  194MOL0     C25510   5.092   7.894   2.170  0.6754 -0.3711 -0.3245
  194MOL0     O25511   4.958   7.927   2.160  0.4562 -0.5529 -0.1470
  194MOL0     C25512   4.866   7.834   2.098  0.0913 -0.4761  0.1388
  194MOL0     C25513   4.744   7.912   2.043 -0.4237  0.1783 -0.3781
  194MOL0     C25514   4.628   7.811   2.048  0.3254  0.3690 -0.4463
  194MOL0     C25515   4.493   7.861   1.997  0.2369 -0.2291  0.2286
  194MOL0     C25516   4.426   7.970   2.085  0.4693  0.2613 -0.2236
  194MOL0     C25517   4.279   7.999   2.041 -0.4716  0.1396 -0.3069
  194MOL0     C25518   4.265   8.100   1.930  0.2098  0.1004 -0.2729
  194MOL0     C25519   4.115   8.132   1.893 -0.1863  0.7801  0.3080
  194MOL0    Cl25520   4.052   8.206   2.043  0.3238 -0.0963 -0.0601
  194MOL0     C25521   5.152   7.774   2.139  0.1458 -0.2377 -0.5476
  194MOL0     C25522   5.290   7.760   2.163  1.0307 -0.2312 -0.5876
  194MOL0     O25523   5.512   7.932   2.480 -0.3078 -0.4792 -0.0459
  194MOL0     C25524   5.762   7.838   2.546 -0.1917  0.3705 -0.4991
  194MOL0     C25525   5.877   7.777   2.589 -0.3521  0.0408  0.0180
  194MOL0     N25526   6.178   7.809   3.038  0.2403  0.7003 -0.2688
  194MOL0     N25527   6.233   7.777   3.145 -0.4574  0.3526  0.1535
  194MOL0     C25528   6.167   7.194   3.778  0.3272  0.0694 -0.0775
  194MOL0     C25529   6.155   7.147   3.909 -0.3482 -0.6019  0.6241
  194MOL0     C25530   5.945   6.884   4.224 -0.5029 -0.5002  0.1242
  194MOL0     C25531   5.815   6.846   4.261  1.0778 -0.4325 -0.1744
  194MOL0     C25532   5.805   6.806   4.397  0.1447 -0.4618 -0.3107
  194MOL0     C25533   5.907   6.808   4.488  0.2598  0.0436  0.3235
  194MOL0     O25534   5.898   6.786   4.622 -0.2619 -0.1243 -0.0663
  194MOL0     C25535   5.789   6.716   4.681  0.5068  0.7325 -0.7069
  194MOL0     C25536   5.854   6.660   4.815 -0.7078  0.2164  0.5328
  194MOL0     C25537   5.945   6.538   4.810  0.6544 -0.2736  0.5852
  194MOL0     C25538   5.864   6.412   4.800  0.0860 -0.3844  0.4191
  194MOL0     C25539   5.959   6.306   4.778  0.2322  1.1753  0.8133
  194MOL0     C25540   6.046   6.221   4.753 -0.1633 -0.0397  0.5600
  194MOL0     C25541   6.034   6.852   4.444  0.1341  0.3222  0.3242
  194MOL0     C25542   6.055   6.892   4.310  0.0554 -0.4266 -0.2749
  194MOL0     H25543   6.106   6.821   3.848  0.7293  0.1553  0.6776
  194MOL0     H25544   6.127   6.904   3.606  1.5411  0.0958  0.3411
  194MOL0     H25545   6.093   7.062   3.397 -0.5916  1.5504 -0.0361
  194MOL0     H25546   6.256   7.016   3.455  2.4339  2.3268  3.3191
  194MOL0     H25547   6.167   7.234   3.274  0.5136 -0.7655 -1.0970
  194MOL0     H25548   6.296   7.112   3.239  2.2424 -0.4618  1.7936
  194MOL0     H25549   6.413   7.250   3.435  0.3623  1.6969 -0.0198
  194MOL0     H25550   6.313   7.382   3.383 -0.9852 -0.4737  0.3454
  194MOL0     H25551   6.503   7.218   3.204 -2.7574 -0.0870 -2.1870
  194MOL0     H25552   6.382   7.311   3.140 -0.7087 -1.1130 -0.1358
  194MOL0     H25553   6.615   7.430   3.157 -0.1747 -1.2294 -1.4088
  194MOL0     H25554   6.592   7.437   3.334 -0.0023  0.0405 -0.4279
  194MOL0     H25555   6.390   7.579   3.294  0.8008 -0.2312  2.0187
  194MOL0     H25556   6.411   7.563   3.118  0.0513 -1.6871 -0.7601
  194MOL0     H25557   6.610   7.668   3.324 -0.4614 -0.9907  0.2188
  194MOL0     H25558   6.616   7.698   3.146 -1.7792 -0.2501 -1.6018
  194MOL0     H25559   6.504   7.906   3.275  0.7437 -0.0635 -2.5392
  194MOL0     H25560   6.394   7.789   3.351 -1.9161  1.4311 -1.0637
  194MOL0     H25561   6.485   7.920   2.994  0.1534  1.0546  1.7440
  194MOL0     H25562   6.359   7.945   2.770  0.7985 -1.4996 -1.8068
  194MOL0     H25563   6.187   7.957   2.787 -0.8452 -0.5804  1.5594
  194MOL0     H25564   6.168   7.702   2.758  0.9756 -1.3759 -1.5525
  194MOL0     H25565   6.341   7.706   2.719 -1.3905 -2.0139  0.1397
  194MOL0     H25566   6.147   7.881   2.572 -0.8776 -0.5473  4.0510
  194MOL0     H25567   6.319   7.831   2.529  1.8595 -1.3429  1.7383
  194MOL0     H25568   6.247   7.606   2.503  0.5422  0.3499  0.9073
  194MOL0     H25569   6.159   7.723   2.397 -0.7194  2.7139  1.7216
  194MOL0     H25570   5.938   7.577   2.336 -0.4644 -1.1030  1.5567
  194MOL0     H25571   5.705   7.667   2.266  0.9831 -0.8281  0.1278
  194MOL0     H25572   5.349   8.052   2.329 -0.4720  1.9660 -2.4005
  194MOL0     H25573   5.122   8.096   2.248  2.3675  1.7207 -2.8811
  194MOL0     H25574   4.833   7.756   2.168 -2.5641  1.8644  1.6941
  194MOL0     H25575   4.916   7.786   2.014 -0.5554  2.8451 -2.3535
  194MOL0     H25576   4.765   7.969   1.952 -1.3359  0.0139 -0.6933
  194MOL0     H25577   4.712   7.988   2.115 -3.4409 -1.7865  0.5215
  194MOL0     H25578   4.615   7.761   2.145  3.2195  0.7823  0.2560
  194MOL0     H25579   4.651   7.729   1.980  2.1176  0.4951 -0.0503
  194MOL0     H25580   4.501   7.892   1.892 -3.0326 -0.3983 -0.1805
  194MOL0     H25581   4.424   7.777   1.987  1.3805 -0.9727 -2.6925
  194MOL0     H25582   4.478   8.066   2.077  0.4547  0.1244 -2.4939
  194MOL0     H25583   4.416   7.949   2.192 -1.7624  0.0467 -0.4218
  194MOL0     H25584   4.221   8.029   2.129 -1.5123 -0.7325 -0.6845
  194MOL0     H25585   4.235   7.906   2.003 -1.4228  0.1411  0.7560
  194MOL0     H25586   4.298   8.197   1.969 -1.9697  1.4201 -1.5280
  194MOL0     H25587   4.327   8.085   1.841 -0.1060  0.0954 -0.4920
  194MOL0     H25588   4.061   8.041   1.867 -1.1145  0.7089  2.2830
  194MOL0     H25589   4.105   8.198   1.807 -3.6960 -0.6340 -0.5327
  194MOL0     H25590   5.103   7.688   2.095  0.6918 -0.0870 -1.4662
  194MOL0     H25591   5.342   7.670   2.131  1.4032 -0.1647 -0.1599
  194MOL0     H25592   5.731   7.907   2.624  0.2402 -2.1933  2.1219
  194MOL0     H25593   5.912   7.810   2.686 -0.0429  0.4904 -0.2405
  194MOL0     H25594   6.184   7.301   3.767 -2.3600  0.3856 -2.3778
  194MOL0     H25595   6.166   7.222   3.987  1.7831 -0.8543  0.6360
  194MOL0     H25596   5.727   6.836   4.198  1.0659 -0.8982 -0.0868
  194MOL0     H25597   5.704   6.772   4.420 -0.7777  1.7254 -0.8183
  194MOL0     H25598   5.754   6.632   4.620  3.7069 -2.4669  1.3985
  194MOL0     H25599   5.705   6.780   4.709 -0.2987 -0.8498  0.7084
  194MOL0     H25600   5.919   6.736   4.861  1.9190 -2.0599  0.8652
  194MOL0     H25601   5.775   6.633   4.885 -0.7279  1.3968  0.9873
  194MOL0     H25602   6.014   6.541   4.895  0.2262 -0.2100  0.9405
  194MOL0     H25603   5.997   6.550   4.715 -0.8648 -0.0021 -0.2498
  194MOL0     H25604   5.815   6.395   4.897 -0.8023  0.1886  0.0897
  194MOL0     H25605   5.784   6.409   4.725  0.8467 -0.1122 -0.4173
  194MOL0     H25606   6.088   6.125   4.729  0.8954  0.5237  0.1003
  194MOL0     H25607   6.116   6.862   4.514  0.5093 -1.8450  0.2699
  194MOL0     H25608   6.151   6.940   4.294  1.2518 -1.5228  2.8514
  195MOL0     O25609  10.196   6.919  10.448 -0.9516 -0.4136  0.0147
  195MOL0     C25610  10.221   6.980  10.549  0.0886  0.3185  0.1941
  195MOL0     O25611  10.119   7.032  10.637 -0.3854 -0.5486 -0.1378
  195MOL0     C25612   9.993   7.075  10.593 -0.1710  0.0785 -0.4543
  195MOL0     C25613   9.891   7.094  10.689  0.2147  0.4133 -1.0779
  195MOL0     C25614   9.762   7.131  10.647 -0.3697 -0.5244 -1.2313
  195MOL0     C25615   9.731   7.163  10.511 -0.1873  0.6782  0.7592
  195MOL0     O25616   9.609   7.207  10.460  0.3891 -0.3627  0.0434
  195MOL0     C25617   9.487   7.152  10.527 -0.1657  0.6225  0.3750
  195MOL0     C25618   9.343   7.196  10.483  0.2211  0.0965  0.3791
  195MOL0     C25619   9.246   7.205  10.606 -0.4219  0.0216  1.0319
  195MOL0     C25620   9.111   7.267  10.568  0.0299 -0.1166  0.3637
  195MOL0     C25621   9.001   7.234  10.670 -0.5778 -0.2214  0.1167
  195MOL0     C25622   8.867   7.278  10.613  0.2720 -0.4671  0.2625
  195MOL0     C25623   8.762   7.253  10.723  0.1169  0.5631 -0.8256
  195MOL0     C25624   8.623   7.316  10.688 -0.0353 -0.2786 -0.2843
  195MOL0     N25625   8.535   7.322  10.808  0.3564  0.4362  0.6108
  195MOL0     C25626   8.472   7.446  10.855 -0.9482 -0.2437 -0.2916
  195MOL0     C25627   8.370   7.407  10.943 -0.2059 -0.0545  1.2120
  195MOL0     C25628   8.279   7.503  11.016 -0.1110  0.6330  1.2889
  195MOL0     C25629   8.136   7.455  11.019 -0.3969 -0.0390  0.5868
  195MOL0     C25630   8.056   7.544  11.109  0.2758 -0.9778  0.5598
  195MOL0     C25631   7.908   7.514  11.106 -0.5466  0.4922  0.2522
  195MOL0     O25632   7.838   7.628  11.159 -0.3053  0.0733  0.5984
  195MOL0     C25633   7.705   7.623  11.181  0.4311 -0.6323 -0.4803
  195MOL0     C25634   7.659   7.751  11.212 -0.0765 -0.3551  0.3205
  195MOL0     C25635   7.526   7.764  11.230  1.0284  0.0772  0.6118
  195MOL0     C25636   7.435   7.655  11.225 -0.4107 -0.0278 -0.1427
  195MOL0     C25637   7.292   7.669  11.244  0.4442 -0.2656 -0.6417
  195MOL0     O25638   7.225   7.555  11.208  0.2470  0.7881 -0.6975
  195MOL0     C25639   7.087   7.564  11.209  0.3851 -0.9181 -0.4739
  195MOL0     C25640   7.017   7.627  11.102  0.8144 -0.0500  0.1286
  195MOL0     C25641   6.878   7.653  11.100 -0.4749 -0.7059 -0.4922
  195MOL0     C25642   6.813   7.616  11.220  0.2873  0.1645  0.1148
  195MOL0     O25643   6.682   7.654  11.242 -0.0538  0.4484 -0.1249
  195MOL0     C25644   6.604   7.713  11.132  0.4619 -0.4649  0.1839
  195MOL0     C25645   6.452   7.729  11.156 -0.1601  0.1162 -1.0746
  195MOL0     C25646   6.372   7.782  11.042 -1.0078 -0.1110 -0.0224
  195MOL0     C25647   6.219   7.784  11.058 -0.3208  0.4014 -0.0079
  195MOL0     C25648   6.166   7.881  10.960 -0.1272  0.7455 -0.0502
  195MOL0     C25649   6.006   7.859  10.953 -0.0629 -0.6336 -0.1219
  195MOL0     C25650   5.941   7.965  10.853 -0.0178  0.5410  0.1158
  195MOL0     C25651   5.792   7.965  10.838 -0.4253  0.5488  0.6747
  195MOL0    Cl25652   5.725   7.994  10.995 -0.3347 -0.1984 -0.3116
  195MOL0     C25653   6.881   7.551  11.326  0.0273 -0.2147  0.3793
  195MOL0     C25654   7.015   7.519  11.322 -0.2594  0.2126  0.1105
  195MOL0     O25655   7.242   7.772  11.297 -0.3863  0.1617 -0.2183
  195MOL0     C25656   7.487   7.522  11.198 -0.4902 -0.2674  0.5416
  195MOL0     C25657   7.625   7.510  11.181  0.0594  0.3350 -0.7139
  195MOL0     N25658   8.375   7.270  10.952  0.4848 -0.2028 -0.1974
  195MOL0     N25659   8.466   7.224  10.869 -0.2457  0.3881  0.6290
  195MOL0     C25660   9.833   7.158  10.422 -0.3810  0.2172  0.1687
  195MOL0     C25661   9.960   7.116  10.463 -0.1053 -0.0131 -0.3993
  195MOL0     C25662  10.360   6.991  10.599 -0.8925  0.6351  0.3966
  195MOL0     C25663  10.469   6.946  10.518  0.5371  0.8563  0.0139
  195MOL0     C25664  10.602   6.962  10.557 -0.0281  0.3806  0.3931
  195MOL0     C25665  10.634   7.041  10.668 -0.2106 -0.1165 -0.8553
  195MOL0     O25666  10.763   7.055  10.716  0.5313 -0.8035  0.3477
  195MOL0     C25667  10.868   6.975  10.654 -0.1247 -0.1279 -0.2805
  195MOL0     C25668  11.003   6.999  10.726 -0.0093  0.2627  0.5143
  195MOL0     C25669  11.104   6.886  10.708 -0.4839  0.3166 -0.0733
  195MOL0     C25670  11.142   6.852  10.562 -0.5850  0.1850  0.3125
  195MOL0     C25671  11.226   6.966  10.507  1.4119  0.3016 -1.0362
  195MOL0     C25672  11.271   7.065  10.461  0.0213  0.3920  0.0903
  195MOL0     C25673  10.528   7.083  10.747  0.3800  0.6444 -0.0598
  195MOL0     C25674  10.395   7.073  10.713  0.7789  0.3395  0.2505
  195MOL0     H25675   9.912   7.061  10.790  1.5620  0.3459 -1.3643
  195MOL0     H25676   9.699   7.121  10.734 -0.4487  0.4692 -1.1643
  195MOL0     H25677   9.506   7.182  10.631  1.3186  1.3079 -0.0639
  195MOL0     H25678   9.496   7.043  10.515 -0.0484  0.5101  1.3586
  195MOL0     H25679   9.307   7.125  10.408  1.7506  1.4963 -1.8040
  195MOL0     H25680   9.345   7.292  10.430  0.1278 -0.9675 -1.6360
  195MOL0     H25681   9.299   7.270  10.677  1.1320 -0.8341  0.6954
  195MOL0     H25682   9.236   7.102  10.642  1.1131 -0.2436  0.7616
  195MOL0     H25683   9.127   7.375  10.561  0.9591 -0.3635 -3.6453
  195MOL0     H25684   9.081   7.238  10.467 -3.0098  0.1551  1.0902
  195MOL0     H25685   9.013   7.295  10.760  0.0071 -0.3926  0.1606
  195MOL0     H25686   8.999   7.131  10.706  0.8188  0.1571  1.3714
  195MOL0     H25687   8.845   7.214  10.527 -3.0860 -0.0522  0.6669
  195MOL0     H25688   8.864   7.385  10.591 -0.9686  0.1172  2.8266
  195MOL0     H25689   8.746   7.147  10.745 -1.9210  1.3519  2.0778
  195MOL0     H25690   8.791   7.302  10.817 -1.4962  0.3943 -0.2097
  195MOL0     H25691   8.576   7.265  10.603 -2.5649  1.3499  0.0211
  195MOL0     H25692   8.640   7.421  10.664  1.5590 -0.3120  0.6164
  195MOL0     H25693   8.509   7.545  10.833 -0.3850 -0.2226  0.6860
  195MOL0     H25694   8.289   7.596  10.958  1.2405 -0.3242 -0.0596
  195MOL0     H25695   8.329   7.524  11.111  2.2207 -2.0573  0.7706
  195MOL0     H25696   8.128   7.353  11.059 -1.1906 -1.1376 -2.1058
  195MOL0     H25697   8.100   7.446  10.916 -0.5604  3.5252  0.2254
  195MOL0     H25698   8.088   7.543  11.213  0.1564  2.6626  0.7929
  195MOL0     H25699   8.075   7.650  11.086  0.0593 -1.3387 -1.5521
  195MOL0     H25700   7.893   7.427  11.170  0.7028 -1.1348 -1.5405
  195MOL0     H25701   7.873   7.494  11.004 -3.1532  2.4798  0.6551
  195MOL0     H25702   7.715   7.844  11.216  3.5317 -2.3271 -0.4998
  195MOL0     H25703   7.481   7.862  11.244  1.9206  0.4429  0.9641
  195MOL0     H25704   7.086   7.632  11.019  1.9143 -0.7540  0.9673
  195MOL0     H25705   6.826   7.705  11.019 -0.5068 -1.0734 -0.7081
  195MOL0     H25706   6.607   7.640  11.051  0.5296 -1.1026  0.7496
  195MOL0     H25707   6.633   7.816  11.109 -0.4711 -0.1691  0.2537
  195MOL0     H25708   6.433   7.800  11.237  2.0768  1.0585 -1.2801
  195MOL0     H25709   6.410   7.632  11.185  1.3464 -0.7171 -1.5562
  195MOL0     H25710   6.397   7.717  10.958  4.9519 -0.4091  1.4931
  195MOL0     H25711   6.420   7.877  11.016 -0.4983 -0.4012 -0.1601
  195MOL0     H25712   6.183   7.681  11.048  0.6179  0.1548 -0.9189
  195MOL0     H25713   6.195   7.825  11.157 -0.9440  0.1748 -0.0577
  195MOL0     H25714   6.215   7.872  10.863  1.8635  0.6182  0.9231
  195MOL0     H25715   6.196   7.983  10.986  0.0380  0.8424 -0.6127
  195MOL0     H25716   5.974   7.881  11.055 -0.0265  1.2671 -0.4746
  195MOL0     H25717   5.990   7.758  10.915  0.9126 -1.4186  1.4028
  195MOL0     H25718   5.976   8.059  10.896 -0.2617  0.5139  0.3770
  195MOL0     H25719   5.984   7.951  10.754  0.2403 -1.0196  0.4202
  195MOL0     H25720   5.751   7.872  10.796 -1.9792  1.1148  0.8532
  195MOL0     H25721   5.764   8.038  10.762  0.0497  0.5957  0.5455
  195MOL0     H25722   6.822   7.529  11.414  3.9067 -0.5767  3.1222
  195MOL0     H25723   7.079   7.471  11.396  0.5948  0.2769 -0.5769
  195MOL0     H25724   7.417   7.441  11.186 -0.1556 -0.6255  0.9877
  195MOL0     H25725   7.674   7.417  11.157 -1.9955 -1.5575  1.8156
  195MOL0     H25726   9.812   7.185  10.319  1.4886  2.5400  0.3177
  195MOL0     H25727  10.037   7.103  10.387  0.2497 -1.2132  0.1343
  195MOL0     H25728  10.448   6.893  10.425  0.9177  0.7903 -0.0382
  195MOL0     H25729  10.680   6.908  10.504  0.6983 -0.5911  2.3508
  195MOL0     H25730  10.867   7.010  10.550  3.0528  0.8495 -0.1021
  195MOL0     H25731  10.855   6.869  10.675  1.4147 -0.1642  0.6147
  195MOL0     H25732  11.050   7.087  10.681  1.0301 -1.3787 -1.8615
  195MOL0     H25733  10.971   7.017  10.829 -1.5095  0.6535  0.0070
  195MOL0     H25734  11.067   6.796  10.757  0.1783  1.0480  1.8907
  195MOL0     H25735  11.190   6.918  10.768  1.6243 -2.5600 -1.3195
  195MOL0     H25736  11.208   6.765  10.552 -0.9542  0.1244 -2.5197
  195MOL0     H25737  11.065   6.825  10.489 -1.2236  0.2420  0.9477
  195MOL0     H25738  11.319   7.148  10.413 -0.6090  0.4862 -0.3897
  195MOL0     H25739  10.554   7.148  10.830  1.2516  0.9187 -0.5314
  195MOL0     H25740  10.315   7.114  10.773 -1.1163 -0.5875 -1.4961
  196MOL0     O25741   6.397   1.283   6.519  0.3303  0.7178 -0.0645
  196MOL0     C25742   6.391   1.398   6.525 -0.7406 -0.0497 -0.0992
  196MOL0     O25743   6.293   1.466   6.589  0.0392 -0.0146 -0.1777
  196MOL0     C25744   6.170   1.416   6.615  1.0082  0.0163  0.2220
  196MOL0     C25745   6.115   1.293   6.589 -0.4618  0.0154  0.1543
  196MOL0     C25746   5.987   1.258   6.614 -0.4539 -0.9190 -1.0211
  196MOL0     C25747   5.899   1.348   6.674 -0.7769 -0.2600 -0.1005
  196MOL0     O25748   5.774   1.312   6.722  0.7662 -0.0624 -0.4441
  196MOL0     C25749   5.741   1.175   6.751  0.3412 -0.9695  0.5569
  196MOL0     C25750   5.610   1.175   6.836 -0.7914 -0.1973  1.2292
  196MOL0     C25751   5.490   1.171   6.750 -0.1751  0.2855 -0.4304
  196MOL0     C25752   5.368   1.127   6.835 -0.0904 -0.2531  0.2884
  196MOL0     C25753   5.234   1.118   6.747 -0.1840 -0.1394 -0.0312
  196MOL0     C25754   5.113   1.072   6.833 -0.1113 -0.2180  0.2765
  196MOL0     C25755   5.105   1.144   6.970  0.2271 -0.5412  0.1691
  196MOL0     C25756   4.964   1.125   7.026 -0.5740  0.6151 -0.2651
  196MOL0     N25757   4.936   1.201   7.147  0.5671 -0.1499 -0.0114
  196MOL0     C25758   4.931   1.337   7.158  0.6207  0.2769  0.3234
  196MOL0     C25759   4.883   1.360   7.279  0.1116  0.5311  1.0013
  196MOL0     C25760   4.863   1.480   7.356  0.8132 -0.6406 -0.4436
  196MOL0     C25761   4.756   1.581   7.291 -0.1815 -0.7601 -0.4069
  196MOL0     C25762   4.611   1.541   7.253 -0.5018 -0.0832 -1.2554
  196MOL0     C25763   4.555   1.453   7.360 -0.4069  0.5554  0.4683
  196MOL0     O25764   4.428   1.394   7.325 -1.0736 -0.8825 -0.1107
  196MOL0     C25765   4.317   1.473   7.314  0.0766 -0.3668 -0.2089
  196MOL0     C25766   4.286   1.586   7.392  0.0189  0.8122 -0.3758
  196MOL0     C25767   4.155   1.634   7.393  0.6949 -0.0395  0.8191
  196MOL0     C25768   4.059   1.584   7.301  0.7265 -0.3558  0.3192
  196MOL0     C25769   3.930   1.638   7.296  0.3690  0.1149 -0.6139
  196MOL0     O25770   3.852   1.582   7.205 -0.4013 -0.2032  0.1119
  196MOL0     C25771   3.731   1.629   7.163 -0.1960 -0.4391  0.6631
  196MOL0     C25772   3.682   1.763   7.181 -0.9953 -0.0032 -0.1787
  196MOL0     C25773   3.554   1.790   7.142  0.8102  0.2922  0.2152
  196MOL0     C25774   3.468   1.702   7.074 -0.5207 -0.2620 -0.8131
  196MOL0     O25775   3.354   1.749   7.034  0.3383  0.0208 -0.0198
  196MOL0     C25776   3.255   1.648   7.013  0.7455 -0.5121  0.9872
  196MOL0     C25777   3.115   1.706   6.989 -0.0387  0.6011  0.2764
  196MOL0     C25778   3.054   1.770   7.118  0.2293 -0.3994 -0.6865
  196MOL0     C25779   2.973   1.670   7.202  0.6657 -0.1116 -0.7615
  196MOL0     C25780   2.920   1.739   7.331  0.2731  0.2313 -1.1570
  196MOL0     C25781   2.772   1.720   7.369  0.1394 -1.2475  0.3176
  196MOL0     C25782   2.733   1.570   7.396  0.2205 -0.3669  0.0055
  196MOL0     C25783   2.593   1.566   7.455  0.3034 -0.3417 -0.1333
  196MOL0    Cl25784   2.474   1.582   7.325  0.0556 -0.3537 -0.3131
  196MOL0     C25785   3.530   1.583   7.027  0.2403  0.0440  0.2901
  196MOL0     C25786   3.652   1.544   7.082  0.0084  0.0760 -0.0844
  196MOL0     O25787   3.899   1.724   7.380  0.1492  0.4515 -0.4228
  196MOL0     C25788   4.094   1.477   7.211 -0.2179 -0.1542 -0.0137
  196MOL0     C25789   4.220   1.421   7.226  0.5945 -0.1251  0.1673
  196MOL0     N25790   4.874   1.233   7.345 -0.0117 -0.0633 -0.0073
  196MOL0     N25791   4.900   1.143   7.263 -0.3392  0.3880 -0.0087
  196MOL0     C25792   5.949   1.481   6.693  0.2426 -0.0043 -0.9023
  196MOL0     C25793   6.084   1.515   6.666  0.2743 -0.0453 -0.0020
  196MOL0     C25794   6.514   1.471   6.478  0.3338 -0.4248 -0.6297
  196MOL0     C25795   6.518   1.616   6.477 -0.4573 -0.7063 -0.0032
  196MOL0     C25796   6.633   1.686   6.444 -0.7761 -0.5925 -0.2673
  196MOL0     C25797   6.756   1.624   6.417  0.3505 -0.6977 -0.1707
  196MOL0     O25798   6.870   1.696   6.402  0.0186  0.3346 -1.3472
  196MOL0     C25799   6.988   1.634   6.370 -0.3336  0.2573 -0.4487
  196MOL0     C25800   6.995   1.603   6.217  0.2323 -0.4740 -0.2777
  196MOL0     C25801   6.997   1.736   6.140  0.6115  0.1683 -0.5293
  196MOL0     C25802   7.141   1.810   6.140 -0.6174 -0.4183 -0.1034
  196MOL0     C25803   7.145   1.915   6.045 -0.0749  0.2005 -0.1599
  196MOL0     C25804   7.164   2.003   5.962  0.4901  0.4904  0.0452
  196MOL0     C25805   6.754   1.476   6.415  0.3772 -0.1840  0.2361
  196MOL0     C25806   6.633   1.410   6.435  0.1640 -0.0653 -1.0610
  196MOL0     H25807   6.179   1.217   6.546  1.6218  1.2621  0.9352
  196MOL0     H25808   5.951   1.157   6.596  0.0162 -1.8449  2.4636
  196MOL0     H25809   5.824   1.126   6.803  1.7715  0.6295 -0.1373
  196MOL0     H25810   5.713   1.126   6.657 -0.8761 -2.2659  1.5419
  196MOL0     H25811   5.615   1.262   6.901 -1.3677  0.8472 -0.0699
  196MOL0     H25812   5.609   1.083   6.894  2.9570 -2.0785 -1.2405
  196MOL0     H25813   5.495   1.098   6.669 -1.4020 -0.3426  0.0341
  196MOL0     H25814   5.476   1.272   6.711 -1.9555 -0.8534 -2.9847
  196MOL0     H25815   5.391   1.029   6.879 -0.2778 -0.1660  0.5850
  196MOL0     H25816   5.357   1.199   6.916 -1.5721 -1.9182  1.6654
  196MOL0     H25817   5.254   1.044   6.669 -0.3450 -1.9680  1.5981
  196MOL0     H25818   5.196   1.213   6.707 -1.8385 -0.6905  0.1753
  196MOL0     H25819   5.110   0.964   6.852  2.6383 -0.4082  0.0427
  196MOL0     H25820   5.019   1.093   6.781 -0.1245 -1.5914 -0.3039
  196MOL0     H25821   5.178   1.102   7.040 -0.3854  0.6194  1.5578
  196MOL0     H25822   5.115   1.251   6.951 -1.2165 -0.8727 -3.0733
  196MOL0     H25823   4.960   1.017   7.040 -0.4774  0.7272  0.7126
  196MOL0     H25824   4.893   1.157   6.949 -0.0823  2.3867 -0.0373
  196MOL0     H25825   4.963   1.409   7.084  1.6455 -0.5724 -0.0891
  196MOL0     H25826   4.962   1.525   7.345  0.5532 -0.3309 -1.7749
  196MOL0     H25827   4.838   1.453   7.459 -0.4803  1.4741 -0.1345
  196MOL0     H25828   4.797   1.635   7.205 -2.9503  0.9904 -0.7427
  196MOL0     H25829   4.753   1.662   7.365  3.0730 -1.1663  0.3518
  196MOL0     H25830   4.538   1.621   7.237 -2.0287 -1.0133  0.5503
  196MOL0     H25831   4.622   1.482   7.162  2.6062 -2.2431  0.3320
  196MOL0     H25832   4.559   1.494   7.461 -0.0363  0.6653  0.4106
  196MOL0     H25833   4.632   1.376   7.371  0.3511  1.2231 -0.0055
  196MOL0     H25834   4.355   1.629   7.464  1.0362 -2.7466  0.9825
  196MOL0     H25835   4.136   1.728   7.443  0.1260 -0.7481  1.9678
  196MOL0     H25836   3.736   1.845   7.229 -0.8351  0.5226 -1.2363
  196MOL0     H25837   3.517   1.891   7.155 -1.9721 -0.6246  0.1215
  196MOL0     H25838   3.256   1.578   7.096  1.6718 -1.1019  0.4919
  196MOL0     H25839   3.281   1.590   6.924 -0.7543  1.2004 -0.6599
  196MOL0     H25840   3.042   1.630   6.959 -0.5561  1.3858 -0.5038
  196MOL0     H25841   3.126   1.777   6.907  0.1710  1.1189  0.7435
  196MOL0     H25842   2.980   1.845   7.088 -0.9078 -2.0162 -2.1150
  196MOL0     H25843   3.126   1.822   7.182 -0.1186 -0.2488 -0.4097
  196MOL0     H25844   2.890   1.627   7.145 -0.1198  0.0616  0.2197
  196MOL0     H25845   3.033   1.580   7.223  0.2930 -0.1426  0.2261
  196MOL0     H25846   2.935   1.847   7.323  0.4032  0.5018  1.6928
  196MOL0     H25847   2.984   1.711   7.415  0.3057  0.8521 -0.9701
  196MOL0     H25848   2.724   1.759   7.278  1.2613  1.4293  0.7555
  196MOL0     H25849   2.741   1.785   7.451 -1.6368  0.3782 -1.5176
  196MOL0     H25850   2.734   1.505   7.308  1.4629 -0.9385  0.4075
  196MOL0     H25851   2.806   1.533   7.468  1.3710  1.0374 -0.3682
  196MOL0     H25852   2.590   1.639   7.537 -0.3016  0.4992 -0.8836
  196MOL0     H25853   2.568   1.470   7.499  1.1505 -1.0776 -1.2070
  196MOL0     H25854   3.479   1.521   6.952 -1.0695  0.4420  0.8156
  196MOL0     H25855   3.698   1.449   7.058 -0.4411 -0.4084  0.9322
  196MOL0     H25856   4.022   1.442   7.137  0.5072 -1.7644  0.0006
  196MOL0     H25857   4.243   1.336   7.163 -0.4982  0.1350 -0.6069
  196MOL0     H25858   5.887   1.553   6.746  1.0497 -0.6148  0.9734
  196MOL0     H25859   6.115   1.618   6.679 -1.0384  0.3424  0.2449
  196MOL0     H25860   6.428   1.669   6.507  0.6922  1.4994 -0.2614
  196MOL0     H25861   6.636   1.794   6.454  2.3414 -0.5397 -0.9144
  196MOL0     H25862   7.010   1.546   6.431  0.0232 -1.7541 -3.3019
  196MOL0     H25863   7.071   1.703   6.393 -3.8493  3.9387  2.6535
  196MOL0     H25864   7.085   1.543   6.201 -0.5942 -2.0593  0.7432
  196MOL0     H25865   6.905   1.548   6.189  0.2662  1.4004 -4.8651
  196MOL0     H25866   6.926   1.807   6.184 -1.0807 -2.1414  0.6252
  196MOL0     H25867   6.966   1.724   6.035  0.8935  2.0286 -0.8738
  196MOL0     H25868   7.170   1.848   6.239 -0.2430  0.8188 -0.6707
  196MOL0     H25869   7.222   1.742   6.114  1.1512  0.3052  2.9641
  196MOL0     H25870   7.176   2.079   5.889  2.1934 -0.7717 -1.0532
  196MOL0     H25871   6.843   1.427   6.378  0.5589  1.6096 -1.8749
  196MOL0     H25872   6.650   1.303   6.428  2.0414  0.2389 -1.7691
  197MOL0     O25873   9.736   0.869   4.589  0.1688 -0.5852  0.1017
  197MOL0     C25874   9.778   0.779   4.660 -0.2231  0.7139  0.4869
  197MOL0     O25875   9.706   0.727   4.762 -0.1106 -0.5873 -0.3076
  197MOL0     C25876   9.576   0.768   4.791 -0.6030  0.3319  0.4143
  197MOL0     C25877   9.543   0.768   4.926 -0.4062  0.1768 -0.1809
  197MOL0     C25878   9.417   0.793   4.973 -0.2342  0.3531  0.6673
  197MOL0     C25879   9.321   0.822   4.872 -0.0250  1.0099 -0.4065
  197MOL0     O25880   9.188   0.851   4.889  0.4343  0.2168 -0.2475
  197MOL0     C25881   9.140   0.825   5.024 -0.1588  0.2334  0.4075
  197MOL0     C25882   8.989   0.836   5.020 -0.1645 -0.5092  0.2513
  197MOL0     C25883   8.921   0.836   5.157 -0.5858 -0.4581  0.0846
  197MOL0     C25884   8.776   0.804   5.154 -0.6949 -0.1313  0.5819
  197MOL0     C25885   8.713   0.814   5.298 -0.8216  0.3425  0.6039
  197MOL0     C25886   8.563   0.814   5.268  0.4365  0.0185  0.2325
  197MOL0     C25887   8.472   0.825   5.393  0.4325  0.1186  0.0944
  197MOL0     C25888   8.333   0.870   5.361 -0.0849  0.3275 -0.7146
  197MOL0     N25889   8.256   0.761   5.299 -0.0747  0.1290 -0.1314
  197MOL0     C25890   8.222   0.754   5.171 -0.4813 -0.7513 -0.1463
  197MOL0     C25891   8.128   0.657   5.146 -0.0908  0.7376  0.3070
  197MOL0     C25892   8.061   0.627   5.015 -0.8506  0.0797 -0.4104
  197MOL0     C25893   7.958   0.733   4.972 -0.8784  0.4244 -0.7721
  197MOL0     C25894   7.855   0.687   4.865 -0.6258  0.0100 -1.7036
  197MOL0     C25895   7.761   0.800   4.821  0.4120 -0.1186  0.1593
  197MOL0     O25896   7.698   0.744   4.700 -0.3194  0.2048 -0.0553
  197MOL0     C25897   7.576   0.681   4.710  0.3895  0.4711  0.1095
  197MOL0     C25898   7.499   0.680   4.583  0.0160  1.1715  0.6677
  197MOL0     C25899   7.383   0.611   4.580  0.7850 -0.2890 -0.1587
  197MOL0     C25900   7.332   0.553   4.702  0.5183  0.0942 -0.3280
  197MOL0     C25901   7.211   0.469   4.691 -0.4596 -0.0273  0.0606
  197MOL0     O25902   7.196   0.371   4.781  0.5913 -0.1372  0.3939
  197MOL0     C25903   7.080   0.312   4.781 -0.0539  0.1323 -0.0388
  197MOL0     C25904   7.074   0.179   4.741 -0.7036  0.9621 -0.4503
  197MOL0     C25905   6.952   0.112   4.730 -0.0592  0.0489  0.2504
  197MOL0     C25906   6.830   0.174   4.764 -0.3126  0.0858 -0.6890
  197MOL0     O25907   6.702   0.118   4.745  0.5598 -0.1610 -0.3227
  197MOL0     C25908   6.682  -0.012   4.686  0.1514  0.4543 -1.3448
  197MOL0     C25909   6.708  -0.127   4.784  0.4453 -0.2175 -0.1745
  197MOL0     C25910   6.609  -0.135   4.899  0.0340 -0.5280 -0.3267
  197MOL0     C25911   6.653  -0.249   4.997  0.0050 -0.4772 -0.6161
  197MOL0     C25912   6.639  -0.388   4.937 -0.2508 -0.4805  0.0356
  197MOL0     C25913   6.633  -0.487   5.053  0.3441  0.7733  0.6722
  197MOL0     C25914   6.634  -0.635   5.003 -0.0417  0.2301  0.1737
  197MOL0     C25915   6.504  -0.677   4.932 -0.6772 -0.0420 -0.2763
  197MOL0    Cl25916   6.377  -0.660   5.056  0.8813 -0.2350  0.5296
  197MOL0     C25917   6.834   0.305   4.816 -0.9025 -0.7080 -0.5968
  197MOL0     C25918   6.963   0.371   4.832  0.5853 -0.0305 -1.3599
  197MOL0     O25919   7.133   0.498   4.597 -0.0087 -1.4515 -1.1368
  197MOL0     C25920   7.405   0.564   4.823  0.0494 -0.5032  0.5249
  197MOL0     C25921   7.514   0.639   4.827 -0.5832 -0.0286 -0.0947
  197MOL0     N25922   8.116   0.590   5.270 -0.1789  0.8311 -0.3767
  197MOL0     N25923   8.191   0.658   5.362 -0.3558  0.1982  0.0461
  197MOL0     C25924   9.362   0.840   4.743 -0.2383  0.1825 -0.1554
  197MOL0     C25925   9.480   0.800   4.693  0.2853  0.5618 -1.0522
  197MOL0     C25926   9.909   0.726   4.626 -0.5107  0.2277 -0.8457
  197MOL0     C25927   9.990   0.760   4.525 -0.3002 -0.8687  0.1588
  197MOL0     C25928  10.118   0.710   4.510 -0.4423 -0.4916 -0.3379
  197MOL0     C25929  10.164   0.607   4.591  0.0991  0.0158 -0.6397
  197MOL0     O25930  10.290   0.547   4.593 -0.2319  0.5831 -0.5113
  197MOL0     C25931  10.398   0.598   4.526 -0.2192  0.0284 -0.0301
  197MOL0     C25932  10.518   0.510   4.562  0.8521 -0.5388 -0.3337
  197MOL0     C25933  10.643   0.536   4.483  1.0880 -1.1705 -0.0857
  197MOL0     C25934  10.764   0.481   4.552  0.9338 -0.2813 -0.4227
  197MOL0     C25935  10.879   0.506   4.466  0.0463  0.8517 -0.7828
  197MOL0     C25936  10.986   0.507   4.403 -0.1967  0.6071  0.2797
  197MOL0     C25937  10.077   0.557   4.686 -0.6253 -0.6940 -0.1963
  197MOL0     C25938   9.954   0.620   4.715 -0.7420 -0.2258  0.3100
  197MOL0     H25939   9.611   0.736   5.005 -2.7222  0.8189  2.2206
  197MOL0     H25940   9.389   0.799   5.077 -1.2711 -1.7146  0.5616
  197MOL0     H25941   9.187   0.903   5.084  2.2419 -0.1687 -0.8136
  197MOL0     H25942   9.174   0.729   5.064 -3.2874 -0.4414  1.7653
  197MOL0     H25943   8.947   0.753   4.963  0.1431 -1.5209  1.4408
  197MOL0     H25944   8.963   0.928   4.966  2.0847 -1.6977 -3.1495
  197MOL0     H25945   8.923   0.937   5.199 -0.6496 -1.2302  2.0339
  197MOL0     H25946   8.978   0.775   5.227  0.8133 -0.0698 -0.6733
  197MOL0     H25947   8.729   0.875   5.086 -2.2414 -0.8975  0.8007
  197MOL0     H25948   8.759   0.704   5.113  0.5712 -0.2857  0.3945
  197MOL0     H25949   8.738   0.909   5.344 -2.2855  2.2470 -2.2309
  197MOL0     H25950   8.731   0.724   5.357 -0.6923 -0.5691 -0.7715
  197MOL0     H25951   8.538   0.732   5.201  0.4514  1.0141 -1.0352
  197MOL0     H25952   8.534   0.907   5.217  1.5963  0.5522  0.5066
  197MOL0     H25953   8.472   0.726   5.441 -0.2365 -0.3512 -0.8304
  197MOL0     H25954   8.520   0.886   5.470 -0.0172 -1.5901  1.8074
  197MOL0     H25955   8.321   0.950   5.287  0.0207 -1.3828 -2.6737
  197MOL0     H25956   8.284   0.909   5.451 -1.5130  3.3969 -2.6453
  197MOL0     H25957   8.257   0.829   5.101  2.9025 -0.3237  1.8175
  197MOL0     H25958   8.003   0.539   5.046 -2.9005  1.0954 -1.1503
  197MOL0     H25959   8.132   0.607   4.934 -0.2422  3.1823 -0.7439
  197MOL0     H25960   8.021   0.805   4.919  0.6283 -0.2961 -0.0494
  197MOL0     H25961   7.908   0.772   5.061 -1.2743  0.2627 -0.9221
  197MOL0     H25962   7.916   0.662   4.778  0.2064 -1.5986 -0.7328
  197MOL0     H25963   7.797   0.602   4.904  0.0374 -0.6727 -2.1873
  197MOL0     H25964   7.823   0.886   4.793  0.4789  0.0804  0.8996
  197MOL0     H25965   7.688   0.833   4.895 -0.0131  0.2789 -0.4328
  197MOL0     H25966   7.550   0.735   4.504  0.6772 -0.5349 -0.1335
  197MOL0     H25967   7.328   0.605   4.487 -0.2967  0.3787  0.4206
  197MOL0     H25968   7.156   0.113   4.713 -0.4852 -0.8520  3.7213
  197MOL0     H25969   6.939   0.019   4.677 -1.0828 -1.0309  2.2822
  197MOL0     H25970   6.728  -0.028   4.589  0.4424 -2.8312 -0.7611
  197MOL0     H25971   6.574  -0.017   4.670  0.2682  2.3643 -3.0169
  197MOL0     H25972   6.806  -0.115   4.831 -0.6335  1.5437  1.7924
  197MOL0     H25973   6.715  -0.216   4.721  0.1319 -0.0118 -0.5101
  197MOL0     H25974   6.508  -0.152   4.862  0.4148 -0.7407 -1.3098
  197MOL0     H25975   6.605  -0.034   4.940 -0.4654 -0.5985 -0.2025
  197MOL0     H25976   6.754  -0.237   5.035 -0.1793 -0.5982 -0.0799
  197MOL0     H25977   6.592  -0.235   5.087 -1.4355  2.0937 -1.8965
  197MOL0     H25978   6.718  -0.409   4.865 -1.6325  0.3630 -1.7892
  197MOL0     H25979   6.538  -0.382   4.896 -0.4494  2.3690  0.7644
  197MOL0     H25980   6.544  -0.475   5.115 -0.8891 -0.5021 -0.7463
  197MOL0     H25981   6.722  -0.470   5.115  1.4579  2.6962 -1.3138
  197MOL0     H25982   6.716  -0.649   4.932  1.5354  3.0663  1.2741
  197MOL0     H25983   6.651  -0.698   5.091 -0.6257 -1.2424 -0.7306
  197MOL0     H25984   6.506  -0.780   4.894 -2.1453 -0.6579  1.2035
  197MOL0     H25985   6.481  -0.611   4.848  0.3852  0.8951  0.1465
  197MOL0     H25986   6.740   0.353   4.843 -0.1521  0.0415  0.8200
  197MOL0     H25987   6.974   0.473   4.869 -3.0908  0.4688 -1.1864
  197MOL0     H25988   7.354   0.528   4.912 -0.7514 -1.0378 -0.1327
  197MOL0     H25989   7.560   0.671   4.920  1.3387 -1.9513 -0.3239
  197MOL0     H25990   9.289   0.886   4.677 -1.5011 -1.3077  0.1311
  197MOL0     H25991   9.510   0.802   4.588  0.8892  2.0023 -0.8609
  197MOL0     H25992   9.956   0.839   4.460  1.9362 -0.9918 -1.2747
  197MOL0     H25993  10.179   0.747   4.429 -0.4857 -0.8264 -0.5255
  197MOL0     H25994  10.410   0.700   4.560 -0.1333  0.3613 -1.0155
  197MOL0     H25995  10.388   0.596   4.417  1.4606  3.3280 -0.3383
  197MOL0     H25996  10.538   0.524   4.669  3.3995  1.9166 -1.0103
  197MOL0     H25997  10.484   0.407   4.547 -1.6474  0.3603 -1.2007
  197MOL0     H25998  10.664   0.643   4.471  1.0888 -0.7329  2.9190
  197MOL0     H25999  10.625   0.485   4.388 -1.6750  1.3818 -1.1288
  197MOL0     H26000  10.772   0.529   4.650  3.0091  0.4295 -0.8867
  197MOL0     H26001  10.746   0.375   4.571 -1.5070 -0.0502 -1.0834
  197MOL0     H26002  11.079   0.487   4.355 -0.8262 -5.4012  0.8031
  197MOL0     H26003  10.119   0.481   4.751  2.3259  1.4988  0.6881
  197MOL0     H26004   9.900   0.604   4.808 -2.4922  2.9777 -0.0184
  198MOL0     O26005   4.825   2.552   9.708  0.5451 -0.0697  0.0717
  198MOL0     C26006   4.871   2.667   9.674  0.7511 -0.6439 -1.0329
  198MOL0     O26007   4.803   2.785   9.670  0.3549  0.3618 -0.4691
  198MOL0     C26008   4.669   2.792   9.694  1.6343 -1.3229 -0.5650
  198MOL0     C26009   4.616   2.913   9.739  1.0784  0.2393 -0.0811
  198MOL0     C26010   4.476   2.936   9.752 -0.7617  0.0245 -0.0607
  198MOL0     C26011   4.381   2.832   9.719  0.5986  0.2255 -0.7096
  198MOL0     O26012   4.244   2.853   9.732  0.7113 -0.1184  0.5317
  198MOL0     C26013   4.194   2.823   9.857 -0.1767 -0.3114 -0.8629
  198MOL0     C26014   4.137   2.950   9.920 -0.1761  0.3935 -0.6261
  198MOL0     C26015   4.022   3.000   9.836 -0.1124  0.5905  0.3643
  198MOL0     C26016   3.987   3.135   9.888  0.5734 -0.1562 -0.7448
  198MOL0     C26017   3.843   3.157   9.833 -0.4515 -0.1692  0.2462
  198MOL0     C26018   3.731   3.101   9.926  0.6554 -0.0794  0.1872
  198MOL0     C26019   3.587   3.156   9.898 -0.3276 -0.4892  1.2976
  198MOL0     C26020   3.529   3.159   9.757  0.1146 -0.4089 -0.9641
  198MOL0     N26021   3.392   3.211   9.760  0.1408  0.3865  1.0128
  198MOL0     C26022   3.281   3.127   9.779 -0.4132 -0.1730  0.4166
  198MOL0     C26023   3.166   3.200   9.778 -0.6918 -0.5021 -0.3741
  198MOL0     C26024   3.025   3.140   9.785  0.3291 -0.3607 -0.5793
  198MOL0     C26025   2.939   3.177   9.665  0.7089  0.3941 -0.5892
  198MOL0     C26026   2.859   3.300   9.692 -0.2825  0.7813  0.4906
  198MOL0     C26027   2.771   3.337   9.579  0.0334  0.1739  0.2826
  198MOL0     O26028   2.687   3.444   9.625  0.2829 -0.0870  0.2604
  198MOL0     C26029   2.619   3.523   9.534  0.1030  0.6954  0.5053
  198MOL0     C26030   2.613   3.501   9.399 -0.2269 -0.1713 -0.0061
  198MOL0     C26031   2.525   3.577   9.320  0.7058  0.2349  0.4826
  198MOL0     C26032   2.446   3.676   9.375 -0.5292  0.6847 -0.3655
  198MOL0     C26033   2.361   3.759   9.293 -0.7169  0.0718 -0.2410
  198MOL0     O26034   2.345   3.723   9.159  0.0948 -0.0082 -0.5586
  198MOL0     C26035   2.263   3.797   9.077 -0.0034 -0.5450 -0.0857
  198MOL0     C26036   2.144   3.736   9.040  0.7340  1.2182 -0.4543
  198MOL0     C26037   2.054   3.802   8.953  0.6203  0.6477 -0.9876
  198MOL0     C26038   2.071   3.936   8.912  0.0070  0.8749 -1.2381
  198MOL0     O26039   1.985   4.015   8.841 -0.2437  0.5382  0.4872
  198MOL0     C26040   1.850   3.974   8.832  0.3675  0.1637 -0.1948
  198MOL0     C26041   1.775   4.075   8.750  0.0314  0.0172  0.6959
  198MOL0     C26042   1.629   4.051   8.771  0.9420  0.6451  1.0968
  198MOL0     C26043   1.538   4.120   8.676 -0.3816  0.0680 -0.5747
  198MOL0     C26044   1.387   4.075   8.683 -0.0700 -0.6307 -0.6462
  198MOL0     C26045   1.304   4.183   8.614  0.2237 -0.2851  0.7399
  198MOL0     C26046   1.159   4.140   8.601  0.3306 -0.1608  0.1226
  198MOL0     C26047   1.075   4.237   8.529  0.5741 -0.6454 -0.5256
  198MOL0    Cl26048   1.009   4.353   8.653 -0.2187  0.3688 -0.2808
  198MOL0     C26049   2.186   3.998   8.960  1.1780  0.4977  0.1143
  198MOL0     C26050   2.284   3.925   9.030 -0.0786  0.2112 -0.2421
  198MOL0     O26051   2.314   3.859   9.346  0.4330  0.0779 -0.0995
  198MOL0     C26052   2.463   3.702   9.509 -0.0667 -1.1407 -0.2071
  198MOL0     C26053   2.546   3.627   9.586  0.7611 -0.6560 -1.0793
  198MOL0     N26054   3.212   3.332   9.750 -0.2714 -0.0109 -0.0425
  198MOL0     N26055   3.341   3.339   9.749  0.2444 -0.2736  0.2105
  198MOL0     C26056   4.434   2.704   9.692  0.0172  0.2908  0.0900
  198MOL0     C26057   4.577   2.685   9.676  0.0138 -0.7884 -0.2476
  198MOL0     C26058   5.016   2.675   9.662 -0.4711  0.9317 -0.8270
  198MOL0     C26059   5.072   2.769   9.573  0.5899  0.3361 -0.2353
  198MOL0     C26060   5.212   2.770   9.559  0.1480  0.0350  0.5650
  198MOL0     C26061   5.289   2.684   9.630 -0.6225 -0.2054  0.3467
  198MOL0     O26062   5.426   2.678   9.596 -0.3399  0.9917 -0.3600
  198MOL0     C26063   5.481   2.769   9.495  0.0219  0.6174 -0.3810
  198MOL0     C26064   5.632   2.768   9.492 -0.0254 -0.0357 -0.4404
  198MOL0     C26065   5.693   2.825   9.623 -0.4636  0.5297  0.1893
  198MOL0     C26066   5.741   2.706   9.702 -0.3109 -0.6490  0.2473
  198MOL0     C26067   5.836   2.745   9.802 -0.1284  0.0565 -0.3695
  198MOL0     C26068   5.931   2.775   9.872  0.8003  0.2280  0.0713
  198MOL0     C26069   5.244   2.606   9.727 -0.3276  0.3235 -0.3689
  198MOL0     C26070   5.102   2.600   9.741 -1.2175  0.4293 -0.8808
  198MOL0     H26071   4.689   2.991   9.756  1.3206 -0.1500  0.7136
  198MOL0     H26072   4.439   3.031   9.788 -2.9818 -0.8361  0.0875
  198MOL0     H26073   4.274   2.786   9.922 -1.4468  2.6404  2.7469
  198MOL0     H26074   4.125   2.739   9.848 -0.1038 -0.3310 -1.2789
  198MOL0     H26075   4.210   3.030   9.934 -0.2014  0.0627  2.0200
  198MOL0     H26076   4.107   2.922  10.022 -0.2546  3.9556  0.4644
  198MOL0     H26077   3.935   2.937   9.856 -1.9196  2.8774  0.1069
  198MOL0     H26078   4.039   3.006   9.728 -1.6134 -2.6936 -0.1746
  198MOL0     H26079   3.984   3.149   9.996  0.4222 -0.2816 -0.7338
  198MOL0     H26080   4.061   3.212   9.861  1.5043 -0.7551  0.0336
  198MOL0     H26081   3.823   3.116   9.733 -2.6541 -0.7788  0.8930
  198MOL0     H26082   3.833   3.266   9.835  1.8962  0.0884  2.6295
  198MOL0     H26083   3.745   3.109  10.034 -2.9592  0.3276  0.7534
  198MOL0     H26084   3.723   2.993   9.908  0.9722 -0.0889  0.1026
  198MOL0     H26085   3.515   3.118   9.970  0.7321 -1.3668  1.9266
  198MOL0     H26086   3.588   3.263   9.922 -3.6668  0.2222 -0.9868
  198MOL0     H26087   3.529   3.055   9.725  0.7445 -1.2236  1.4892
  198MOL0     H26088   3.597   3.232   9.711 -1.6278  0.7587 -1.8034
  198MOL0     H26089   3.274   3.023   9.805 -0.9477  0.3722  2.6355
  198MOL0     H26090   2.971   3.184   9.870  0.3783 -1.4300  0.0219
  198MOL0     H26091   3.033   3.032   9.797  1.3157 -0.1539  0.9252
  198MOL0     H26092   2.872   3.093   9.647 -0.9624  1.2063  1.4338
  198MOL0     H26093   3.012   3.199   9.586  1.6950  2.2947  0.7680
  198MOL0     H26094   2.791   3.274   9.774  0.1312  0.4350  0.7350
  198MOL0     H26095   2.926   3.382   9.718  2.4316 -1.1186 -0.0642
  198MOL0     H26096   2.711   3.246   9.563  1.1504 -0.7263  1.0092
  198MOL0     H26097   2.830   3.363   9.491  0.8522 -4.0714 -0.6840
  198MOL0     H26098   2.680   3.428   9.355  1.5421 -0.0791  2.2950
  198MOL0     H26099   2.516   3.554   9.214  2.7908  1.3848 -0.0153
  198MOL0     H26100   2.125   3.637   9.080 -0.3190  1.7749  0.5085
  198MOL0     H26101   1.957   3.755   8.939  0.3975  0.7548  0.1445
  198MOL0     H26102   1.821   3.975   8.938  1.7320  2.2061  0.2285
  198MOL0     H26103   1.836   3.875   8.789  0.9634  1.3639 -3.3862
  198MOL0     H26104   1.799   4.077   8.644 -1.1309 -0.8733  0.4004
  198MOL0     H26105   1.795   4.172   8.798  0.3416 -0.1113  0.8293
  198MOL0     H26106   1.605   4.081   8.873  1.9552 -1.0365  1.8875
  198MOL0     H26107   1.612   3.943   8.764  0.9651  0.6979 -4.4986
  198MOL0     H26108   1.535   4.225   8.705 -2.8377 -0.0334 -0.2715
  198MOL0     H26109   1.576   4.124   8.574 -0.7869  3.5123 -0.6943
  198MOL0     H26110   1.348   4.079   8.785 -0.6578 -0.4620 -0.8734
  198MOL0     H26111   1.368   3.977   8.637 -0.6944 -0.3543 -0.9846
  198MOL0     H26112   1.345   4.200   8.513  0.2017  1.1531  0.9509
  198MOL0     H26113   1.311   4.280   8.665 -2.7886  1.1604 -1.2820
  198MOL0     H26114   1.157   4.047   8.542 -3.2940 -0.2313  0.1183
  198MOL0     H26115   1.115   4.119   8.699 -0.6696  1.7141  0.1245
  198MOL0     H26116   0.991   4.188   8.480  2.9058 -1.7681 -3.7506
  198MOL0     H26117   1.129   4.291   8.450 -1.0713 -2.4644 -3.0189
  198MOL0     H26118   2.202   4.096   8.918 -1.8284  0.7341 -0.7006
  198MOL0     H26119   2.374   3.983   9.046 -1.2815  1.9912  0.5618
  198MOL0     H26120   2.412   3.782   9.562  2.7567  0.7737 -0.1337
  198MOL0     H26121   2.541   3.656   9.690  0.9980  0.4942 -1.3736
  198MOL0     H26122   4.368   2.622   9.663 -1.0491  1.8436 -2.1561
  198MOL0     H26123   4.613   2.588   9.645  1.4630 -0.0488 -0.9486
  198MOL0     H26124   4.995   2.819   9.515 -2.0699 -1.7928  1.2339
  198MOL0     H26125   5.248   2.835   9.480  2.6540 -1.7134  0.1680
  198MOL0     H26126   5.442   2.871   9.511 -1.8073  0.8443 -4.7978
  198MOL0     H26127   5.449   2.733   9.397  0.9744 -1.6531  0.0920
  198MOL0     H26128   5.667   2.668   9.464  0.1413 -0.0448 -0.2023
  198MOL0     H26129   5.669   2.828   9.409  1.8396 -0.6481 -0.0938
  198MOL0     H26130   5.618   2.884   9.677  0.7207  1.9292  0.3636
  198MOL0     H26131   5.777   2.893   9.607 -1.3429  1.0972 -2.4207
  198MOL0     H26132   5.650   2.657   9.739 -1.5464  2.2497  1.2789
  198MOL0     H26133   5.796   2.632   9.643  1.0701  0.7369 -0.2379
  198MOL0     H26134   6.010   2.801   9.940  0.6703  2.4871 -0.5557
  198MOL0     H26135   5.309   2.544   9.788  1.8078  1.4852 -1.3502
  198MOL0     H26136   5.078   2.536   9.825  0.0883  1.1485  0.0661
  199MOL0     O26137   8.110  10.673   0.371 -0.6328 -0.5355  0.4712
  199MOL0     C26138   8.122  10.772   0.298 -0.1056 -0.2150  0.3064
  199MOL0     O26139   8.031  10.838   0.229 -0.6584 -0.5290 -0.0929
  199MOL0     C26140   7.908  10.781   0.221  0.4619  0.1912 -0.3367
  199MOL0     C26141   7.863  10.739   0.090  0.6321 -0.7237 -0.4360
  199MOL0     C26142   7.743  10.676   0.078  0.4305  1.2278  0.3574
  199MOL0     C26143   7.659  10.651   0.195 -0.4376  0.0249  0.3876
  199MOL0     O26144   7.551  10.573   0.176 -0.1545  0.4920 -0.0166
  199MOL0     C26145   7.448  10.561   0.279 -0.4843  0.6954  0.0615
  199MOL0     C26146   7.330  10.478   0.210 -0.4375 -0.4199 -0.4382
  199MOL0     C26147   7.215  10.454   0.303 -0.3395  0.3750 -0.2083
  199MOL0     C26148   7.094  10.416   0.220  0.7851 -0.3133 -0.3938
  199MOL0     C26149   6.984  10.353   0.300 -0.0174  0.6158 -0.5004
  199MOL0     C26150   6.861  10.312   0.215 -0.5537 -0.0312 -0.2296
  199MOL0     C26151   6.748  10.244   0.301  0.3904 -0.7880  0.2860
  199MOL0     C26152   6.612  10.224   0.243  0.8064  0.0529  0.2955
  199MOL0     N26153   6.528  10.347   0.236  0.1089 -0.3079 -1.0175
  199MOL0     C26154   6.475  10.413   0.350 -0.2140  0.1219 -0.4215
  199MOL0     C26155   6.436  10.536   0.315 -0.0995 -0.4956 -0.0994
  199MOL0     C26156   6.381  10.645   0.401 -0.2030 -0.0612 -0.3593
  199MOL0     C26157   6.232  10.656   0.443  0.4696  0.0548  0.5008
  199MOL0     C26158   6.198  10.548   0.546  0.3260  0.8928 -0.1878
  199MOL0     C26159   6.060  10.578   0.606 -0.2004  0.4236 -0.5634
  199MOL0     O26160   6.017  10.465   0.689 -0.2760 -0.1263 -0.1946
  199MOL0     C26161   5.880  10.448   0.708  0.0850 -0.7326  0.5420
  199MOL0     C26162   5.831  10.327   0.750  0.3418  0.0963 -0.2256
  199MOL0     C26163   5.692  10.314   0.782 -0.8195 -0.5138  0.1585
  199MOL0     C26164   5.608  10.425   0.793  0.5254 -0.4437  0.7496
  199MOL0     C26165   5.463  10.409   0.821  0.2305  0.5032 -0.9551
  199MOL0     O26166   5.422  10.288   0.882 -0.6745 -0.4025 -0.0598
  199MOL0     C26167   5.295  10.274   0.853  0.2573  0.2456 -0.5856
  199MOL0     C26168   5.251  10.213   0.736 -0.1477 -0.4027 -0.2928
  199MOL0     C26169   5.121  10.199   0.702 -0.0297 -0.9982  0.2582
  199MOL0     C26170   5.021  10.242   0.788  0.3123  0.5991  0.0800
  199MOL0     O26171   4.896  10.228   0.736 -0.3472  0.0589  0.4244
  199MOL0     C26172   4.784  10.263   0.809 -0.2354 -0.4362  0.0527
  199MOL0     C26173   4.743  10.404   0.783 -0.0850 -0.6967  0.1005
  199MOL0     C26174   4.603  10.433   0.838  0.8064 -0.7874 -0.6087
  199MOL0     C26175   4.537  10.559   0.775  0.0451  0.0020 -0.1336
  199MOL0     C26176   4.400  10.583   0.844 -0.4446 -0.3003  0.5634
  199MOL0     C26177   4.288  10.472   0.827  0.4298  0.3825  1.0498
  199MOL0     C26178   4.170  10.527   0.908 -0.7025 -0.2664  0.5500
  199MOL0     C26179   4.040  10.455   0.868  0.3236  0.2233  0.1235
  199MOL0    Cl26180   4.032  10.301   0.962  0.2626 -0.0717  0.4164
  199MOL0     C26181   5.056  10.309   0.906 -0.1991  0.2475  0.5175
  199MOL0     C26182   5.191  10.330   0.935 -0.9162  0.0231 -0.0339
  199MOL0     O26183   5.388  10.491   0.766 -0.0405  0.0247  0.2699
  199MOL0     C26184   5.657  10.548   0.740 -0.4711 -0.2413  0.4858
  199MOL0     C26185   5.796  10.559   0.704  0.0615 -0.1771 -0.3883
  199MOL0     N26186   6.458  10.544   0.177 -0.3396  1.0843  0.1153
  199MOL0     N26187   6.518  10.433   0.136 -0.6038 -0.4804  0.0092
  199MOL0     C26188   7.703  10.690   0.316  0.2835 -0.4162  0.2835
  199MOL0     C26189   7.827  10.745   0.331 -0.2699  0.0144 -0.4548
  199MOL0     C26190   8.257  10.834   0.299  0.5761  0.0442  0.5835
  199MOL0     C26191   8.289  10.949   0.227 -0.2211  0.4711 -0.3412
  199MOL0     C26192   8.430  10.995   0.220 -0.3350  0.0132 -0.6392
  199MOL0     C26193   8.529  10.941   0.302 -0.5079  0.4965 -0.5668
  199MOL0     O26194   8.658  10.971   0.284 -0.7220  0.1164 -0.7437
  199MOL0     C26195   8.703  11.044   0.172 -0.6006  0.3762 -0.4583
  199MOL0     C26196   8.856  11.061   0.175  0.1596  0.2079 -0.3703
  199MOL0     C26197   8.917  11.082   0.313 -0.8803 -0.4172 -0.3411
  199MOL0     C26198   8.875  11.198   0.409  0.9148  0.3693  0.3035
  199MOL0     C26199   8.889  11.328   0.351  0.7380  0.4012 -0.4403
  199MOL0     C26200   8.881  11.435   0.292 -0.6503  0.4605 -0.1756
  199MOL0     C26201   8.491  10.839   0.389 -0.7223 -0.8547  0.6359
  199MOL0     C26202   8.359  10.787   0.385 -0.7009 -0.0799  0.2614
  199MOL0     H26203   7.925  10.748   0.002 -0.8359  0.2212 -1.4036
  199MOL0     H26204   7.707  10.633  -0.015  0.0656  0.0527  1.0281
  199MOL0     H26205   7.420  10.658   0.322 -0.1043  0.7996  0.0798
  199MOL0     H26206   7.486  10.505   0.365 -3.4356 -0.1993  0.8816
  199MOL0     H26207   7.371  10.383   0.174 -2.2557 -1.2355 -0.4548
  199MOL0     H26208   7.286  10.545   0.135  1.0354  2.3053  0.9413
  199MOL0     H26209   7.178  10.549   0.342 -1.2568  0.2513 -0.7483
  199MOL0     H26210   7.238  10.388   0.387  2.5612  0.1769 -1.0213
  199MOL0     H26211   7.055  10.501   0.165  0.6322 -0.6895 -0.8668
  199MOL0     H26212   7.120  10.342   0.144 -1.7679 -0.5531 -1.1125
  199MOL0     H26213   6.949  10.431   0.368 -0.9231  2.7291 -3.1690
  199MOL0     H26214   7.016  10.257   0.340 -1.9018  0.4162  0.6415
  199MOL0     H26215   6.890  10.245   0.134  2.4287  2.2861 -1.2736
  199MOL0     H26216   6.829  10.405   0.167  0.9994  0.4155 -0.4579
  199MOL0     H26217   6.785  10.145   0.326 -1.7593 -1.7053  0.0769
  199MOL0     H26218   6.745  10.314   0.385 -0.5646  1.4824 -1.4999
  199MOL0     H26219   6.562  10.144   0.299  4.5191 -1.8165  1.2661
  199MOL0     H26220   6.617  10.184   0.141  0.3153 -1.3678  0.7984
  199MOL0     H26221   6.474  10.356   0.443 -1.6043 -1.1371 -1.1682
  199MOL0     H26222   6.393  10.741   0.351 -2.5128  1.7757  2.3078
  199MOL0     H26223   6.441  10.650   0.493 -1.8685  0.1640  0.7702
  199MOL0     H26224   6.172  10.661   0.352 -0.3916 -0.2459  1.0362
  199MOL0     H26225   6.217  10.748   0.501 -0.5176  1.2143 -1.5076
  199MOL0     H26226   6.210  10.450   0.500  3.0192  1.1260 -0.1494
  199MOL0     H26227   6.271  10.553   0.627  0.9615 -0.1078 -0.6843
  199MOL0     H26228   5.990  10.605   0.527  0.1917 -1.8309 -1.7899
  199MOL0     H26229   6.064  10.669   0.666  0.8916 -0.4850  0.7939
  199MOL0     H26230   5.903  10.249   0.772 -2.4925 -2.3614  1.0800
  199MOL0     H26231   5.652  10.223   0.825 -1.2642 -0.6914 -0.6085
  199MOL0     H26232   5.322  10.173   0.664 -1.8706 -2.3075 -1.0316
  199MOL0     H26233   5.106  10.152   0.606 -0.3341  0.1106 -0.2572
  199MOL0     H26234   4.813  10.243   0.913  3.3377 -1.3841 -0.9744
  199MOL0     H26235   4.707  10.192   0.779  0.1661 -0.8727  0.0459
  199MOL0     H26236   4.734  10.422   0.675  0.1222 -0.7847  0.0684
  199MOL0     H26237   4.823  10.473   0.812 -0.9247 -0.1497  1.1571
  199MOL0     H26238   4.601  10.437   0.948 -1.7761  0.3459 -0.6280
  199MOL0     H26239   4.541  10.347   0.811 -0.2273  0.0071 -0.8036
  199MOL0     H26240   4.614  10.638   0.772  0.1093 -0.0157  0.8748
  199MOL0     H26241   4.514  10.532   0.671  1.4709  0.0818 -0.4972
  199MOL0     H26242   4.368  10.678   0.800  0.3307 -0.1251  0.3645
  199MOL0     H26243   4.409  10.595   0.953  1.4281 -0.0167  0.4102
  199MOL0     H26244   4.325  10.373   0.855 -1.0924 -0.9003 -1.1695
  199MOL0     H26245   4.262  10.461   0.721 -2.4641 -1.0330  1.7893
  199MOL0     H26246   4.187  10.523   1.016  3.2113 -0.6620  0.0361
  199MOL0     H26247   4.148  10.632   0.883  0.1450 -0.3152 -0.4333
  199MOL0     H26248   4.028  10.437   0.761 -0.6039 -2.4131  0.5923
  199MOL0     H26249   3.956  10.514   0.906  1.2994  1.3084  0.6731
  199MOL0     H26250   4.978  10.339   0.974 -2.2608 -0.9716 -1.1711
  199MOL0     H26251   5.221  10.374   1.030  0.3031 -0.0868 -0.3566
  199MOL0     H26252   5.587  10.629   0.723 -0.5687 -0.8880 -2.9556
  199MOL0     H26253   5.834  10.655   0.670 -0.5025 -0.4376 -1.8522
  199MOL0     H26254   7.649  10.669   0.408  1.2348 -2.6094  0.4168
  199MOL0     H26255   7.865  10.753   0.432  1.0838 -2.3837 -0.6999
  199MOL0     H26256   8.216  10.994   0.161 -2.6917 -1.0056  1.2529
  199MOL0     H26257   8.452  11.074   0.149  0.6802 -1.8312 -2.5050
  199MOL0     H26258   8.652  11.140   0.185 -0.5350  0.0136  4.1139
  199MOL0     H26259   8.674  10.983   0.085 -0.2182 -0.3152 -0.1154
  199MOL0     H26260   8.900  10.970   0.133 -2.9016 -1.8152  0.4656
  199MOL0     H26261   8.892  11.145   0.115 -1.5319  3.0027  2.2795
  199MOL0     H26262   9.025  11.088   0.298 -0.5437 -4.1006 -0.3477
  199MOL0     H26263   8.916  10.989   0.371 -1.8979  0.8549  1.7829
  199MOL0     H26264   8.769  11.183   0.430  0.6781  0.1014 -0.9939
  199MOL0     H26265   8.935  11.186   0.500  0.5205 -1.9066  0.3156
  199MOL0     H26266   8.866  11.526   0.239 -2.3976 -0.9166 -2.2207
  199MOL0     H26267   8.569  10.793   0.449  0.4556 -1.9649 -1.6143
  199MOL0     H26268   8.342  10.701   0.449 -0.6680 -0.0644  0.2914
  200MOL0     O26269   4.626   6.728   6.529  0.1536  1.0877  0.3282
  200MOL0     C26270   4.696   6.670   6.451 -0.5454 -0.1554  0.6495
  200MOL0     O26271   4.674   6.665   6.319  0.3611 -0.1732  0.2203
  200MOL0     C26272   4.550   6.703   6.267 -0.2330 -0.1592  0.0658
  200MOL0     C26273   4.473   6.605   6.199  0.4807 -0.3835 -0.4438
  200MOL0     C26274   4.342   6.641   6.146 -0.2878  0.7155  0.2585
  200MOL0     C26275   4.289   6.775   6.151 -0.3550  0.5683 -0.3517
  200MOL0     O26276   4.163   6.803   6.101 -0.1890 -0.6963  1.0583
  200MOL0     C26277   4.080   6.891   6.175 -1.1626  1.0223  0.1200
  200MOL0     C26278   3.956   6.908   6.087 -0.2322 -0.5755 -0.6199
  200MOL0     C26279   3.861   7.016   6.146  0.2634  0.6924 -0.7389
  200MOL0     C26280   3.716   6.993   6.087  0.4675  0.8617 -0.0355
  200MOL0     C26281   3.607   7.087   6.131  0.1937 -0.1333 -0.6039
  200MOL0     C26282   3.462   7.029   6.120 -0.4331 -0.3670 -0.2209
  200MOL0     C26283   3.349   7.138   6.138 -0.0921  1.0673 -1.0477
  200MOL0     C26284   3.290   7.154   6.278 -0.1652  0.5546 -0.0963
  200MOL0     N26285   3.174   7.245   6.288  0.2500 -1.3281 -0.8660
  200MOL0     C26286   3.186   7.382   6.303  0.0167  1.1248 -0.5692
  200MOL0     C26287   3.060   7.423   6.286  0.7537 -0.2249 -0.3208
  200MOL0     C26288   3.008   7.566   6.304 -0.3610 -0.5452 -0.3085
  200MOL0     C26289   2.983   7.610   6.449  1.0326  0.3238 -0.5152
  200MOL0     C26290   2.856   7.544   6.512  0.1703 -0.4986  0.1991
  200MOL0     C26291   2.724   7.590   6.453 -0.5962 -0.2392 -0.9672
  200MOL0     O26292   2.632   7.534   6.560  0.1810 -0.2292 -0.0138
  200MOL0     C26293   2.502   7.544   6.527  0.8646  0.6028 -0.3550
  200MOL0     C26294   2.440   7.613   6.416 -0.6770 -0.3925 -0.4124
  200MOL0     C26295   2.301   7.612   6.390 -0.2719 -0.3203 -0.8240
  200MOL0     C26296   2.214   7.546   6.481 -0.3425  0.1928 -0.0552
  200MOL0     C26297   2.073   7.543   6.448  0.0292 -0.5172  0.1460
  200MOL0     O26298   2.028   7.578   6.318  0.1941 -0.2045 -0.0847
  200MOL0     C26299   1.898   7.590   6.280  0.0851  0.0660 -0.4879
  200MOL0     C26300   1.867   7.681   6.180  0.2053  0.7158  0.3150
  200MOL0     C26301   1.719   7.707   6.166 -0.3059 -0.1848 -0.6475
  200MOL0     C26302   1.614   7.637   6.227 -0.2446 -0.5626 -0.2096
  200MOL0     O26303   1.477   7.668   6.203  0.1003  0.2727 -1.1262
  200MOL0     C26304   1.375   7.595   6.261 -0.0973 -0.4597 -0.3939
  200MOL0     C26305   1.240   7.629   6.195 -0.5926 -0.5731  0.0834
  200MOL0     C26306   1.198   7.776   6.173 -0.4157 -0.7951 -0.3283
  200MOL0     C26307   1.129   7.802   6.037  0.2603  0.3594 -0.3949
  200MOL0     C26308   1.009   7.710   6.030  0.1144  0.0371  0.3113
  200MOL0     C26309   0.936   7.719   5.900 -0.1066  0.1398 -0.4627
  200MOL0     C26310   0.834   7.608   5.875 -0.1471 -0.0734 -0.4578
  200MOL0     C26311   0.722   7.605   5.977 -0.9743 -0.3254 -0.2903
  200MOL0    Cl26312   0.599   7.724   5.951 -0.1530  0.3997  0.2792
  200MOL0     C26313   1.658   7.538   6.312 -0.3709 -0.0886 -0.0532
  200MOL0     C26314   1.792   7.519   6.346 -0.6344  0.1434  0.2086
  200MOL0     O26315   2.003   7.524   6.546  0.7841 -0.5862 -0.5207
  200MOL0     C26316   2.275   7.483   6.593  0.1110 -0.4179 -0.1165
  200MOL0     C26317   2.414   7.477   6.606 -0.9374 -0.6396  0.4940
  200MOL0     N26318   2.975   7.322   6.242 -0.5747 -0.0294 -0.8776
  200MOL0     N26319   3.051   7.214   6.242 -0.0770 -0.7774 -1.2582
  200MOL0     C26320   4.369   6.865   6.213  0.4119 -0.2266 -0.8139
  200MOL0     C26321   4.500   6.833   6.258  0.2689 -0.9317 -0.0390
  200MOL0     C26322   4.821   6.621   6.489  0.5778  0.4374  0.0651
  200MOL0     C26323   4.894   6.544   6.391 -0.0064  0.1733 -0.0154
  200MOL0     C26324   5.018   6.493   6.426 -0.4011  0.1921  0.2173
  200MOL0     C26325   5.084   6.518   6.549 -0.3320  0.4153  0.4386
  200MOL0     O26326   5.207   6.473   6.564 -0.4550  0.1568  0.2920
  200MOL0     C26327   5.289   6.521   6.666  0.6898  0.0127 -0.4519
  200MOL0     C26328   5.430   6.461   6.659 -0.3743  0.5991  0.1542
  200MOL0     C26329   5.534   6.514   6.751 -0.3939 -0.0745 -0.9156
  200MOL0     C26330   5.667   6.439   6.717  0.3830  1.1513 -0.0862
  200MOL0     C26331   5.765   6.460   6.825  0.1531 -0.2423 -0.4070
  200MOL0     C26332   5.854   6.462   6.915  0.0334  1.0162 -0.0734
  200MOL0     C26333   5.001   6.579   6.642  0.2758  0.2278 -0.0068
  200MOL0     C26334   4.872   6.627   6.614 -0.1433  0.7123 -0.2298
  200MOL0     H26335   4.498   6.499   6.202 -0.7645 -0.7231 -1.2422
  200MOL0     H26336   4.284   6.560   6.103 -1.4017  2.0022 -0.7544
  200MOL0     H26337   4.131   6.987   6.183  1.8642 -0.5440  1.0374
  200MOL0     H26338   4.057   6.840   6.270 -0.5659 -0.3619 -0.4636
  200MOL0     H26339   3.900   6.814   6.085 -2.1886  0.4270  1.7497
  200MOL0     H26340   3.981   6.940   5.985  1.9834  1.3549  0.4356
  200MOL0     H26341   3.897   7.113   6.111  0.2017  0.5811 -1.1067
  200MOL0     H26342   3.864   7.002   6.255  0.8568  2.2591 -0.5336
  200MOL0     H26343   3.717   6.986   5.978 -1.8703 -0.2321 -0.0446
  200MOL0     H26344   3.683   6.894   6.121 -1.1195  1.1606 -0.6592
  200MOL0     H26345   3.618   7.173   6.065 -1.0707  0.2224 -0.3760
  200MOL0     H26346   3.626   7.122   6.233  1.4829 -1.3442 -0.3967
  200MOL0     H26347   3.450   6.946   6.190  0.5856 -0.4489 -0.1260
  200MOL0     H26348   3.450   6.988   6.020  1.3195 -2.4896  0.3680
  200MOL0     H26349   3.402   7.228   6.104  0.5409  1.4111  0.7337
  200MOL0     H26350   3.271   7.114   6.065  2.3601 -2.3199 -2.8396
  200MOL0     H26351   3.368   7.184   6.349  0.4143  0.0574 -0.5195
  200MOL0     H26352   3.256   7.059   6.320 -2.3067  1.3032  0.0039
  200MOL0     H26353   3.272   7.447   6.321  0.7677 -0.1982  0.8700
  200MOL0     H26354   2.922   7.586   6.239  0.0674  0.3631 -0.6011
  200MOL0     H26355   3.079   7.635   6.258  1.8431 -2.3204  0.2207
  200MOL0     H26356   2.973   7.718   6.457 -0.6217  0.1758 -0.0464
  200MOL0     H26357   3.069   7.585   6.513 -0.0919  0.7102  1.2271
  200MOL0     H26358   2.873   7.437   6.501 -0.9975 -0.5272 -1.8060
  200MOL0     H26359   2.868   7.565   6.619  2.0490  0.0964 -0.0962
  200MOL0     H26360   2.704   7.547   6.355  0.3751 -1.5241 -0.6400
  200MOL0     H26361   2.739   7.698   6.458  1.9625 -0.4421 -2.2862
  200MOL0     H26362   2.516   7.662   6.355  0.7577 -0.8218  0.9460
  200MOL0     H26363   2.273   7.659   6.296  0.7829  3.2170  0.4746
  200MOL0     H26364   1.950   7.733   6.133  2.0155 -0.7487  1.7193
  200MOL0     H26365   1.685   7.783   6.096 -2.5419 -0.0390  0.5185
  200MOL0     H26366   1.375   7.624   6.367  0.5413  0.4237 -0.6191
  200MOL0     H26367   1.390   7.487   6.272 -1.5595 -0.4656  2.9417
  200MOL0     H26368   1.170   7.571   6.255  0.0077  0.3466  1.7266
  200MOL0     H26369   1.237   7.588   6.093 -0.3876  3.1284 -1.5887
  200MOL0     H26370   1.292   7.832   6.175 -0.6923 -0.3416  0.4006
  200MOL0     H26371   1.132   7.808   6.254  0.5324  1.2684 -0.3107
  200MOL0     H26372   1.097   7.906   6.026  0.9967  0.4357 -2.0558
  200MOL0     H26373   1.206   7.783   5.961  3.4774  1.1760  2.3908
  200MOL0     H26374   0.943   7.738   6.114 -0.5591 -0.2196 -0.1204
  200MOL0     H26375   1.035   7.605   6.045 -1.1267 -0.2252  0.8224
  200MOL0     H26376   1.005   7.716   5.815  1.3407 -0.6174  0.6808
  200MOL0     H26377   0.883   7.815   5.906 -2.5600 -1.1403 -0.6651
  200MOL0     H26378   0.784   7.622   5.779 -1.8452 -3.2279 -0.1624
  200MOL0     H26379   0.891   7.515   5.868  1.0183  0.7461 -2.4280
  200MOL0     H26380   0.766   7.625   6.075  0.8404  0.8575 -1.2812
  200MOL0     H26381   0.663   7.513   5.972  0.3516 -1.3517  1.4679
  200MOL0     H26382   1.595   7.478   6.376 -0.2807  0.1871  0.2921
  200MOL0     H26383   1.818   7.452   6.428  2.5833  1.8929  0.7635
  200MOL0     H26384   2.216   7.417   6.656  0.6945 -1.2487 -0.4146
  200MOL0     H26385   2.449   7.421   6.692 -0.5081  0.5473  1.1290
  200MOL0     H26386   4.333   6.967   6.224 -3.0124 -1.5287  1.7993
  200MOL0     H26387   4.565   6.911   6.296  1.9774 -1.3243 -1.9541
  200MOL0     H26388   4.853   6.508   6.297 -0.5264 -0.2002  0.3483
  200MOL0     H26389   5.068   6.428   6.354 -1.0092  0.8832 -0.8653
  200MOL0     H26390   5.253   6.490   6.765 -1.0739 -0.2242 -1.1233
  200MOL0     H26391   5.291   6.631   6.668  0.1206  0.0185  0.2604
  200MOL0     H26392   5.404   6.357   6.682  1.2538  0.2573  0.5146
  200MOL0     H26393   5.464   6.456   6.555  0.8789 -1.9618  0.5952
  200MOL0     H26394   5.496   6.496   6.852 -0.3204  2.0823 -0.4515
  200MOL0     H26395   5.545   6.622   6.736 -2.3470  0.3771  0.4881
  200MOL0     H26396   5.650   6.331   6.712 -0.0118  1.1139  1.6266
  200MOL0     H26397   5.700   6.478   6.620  0.2966 -3.3415 -2.1366
  200MOL0     H26398   5.930   6.440   6.987  0.8173 -1.6970 -1.5852
  200MOL0     H26399   5.039   6.600   6.742  1.1527  0.4643 -0.3821
  200MOL0     H26400   4.817   6.677   6.693 -3.2082  1.9015 -2.8883
  201MOL0     O26401  10.530   9.142   5.100 -0.6439 -0.7797 -0.0986
  201MOL0     C26402  10.484   9.031   5.126 -0.3043  0.4996 -0.1343
  201MOL0     O26403  10.552   8.920   5.177  0.9407  1.2206  0.3583
  201MOL0     C26404  10.682   8.909   5.143 -0.3174 -0.5779  0.2890
  201MOL0     C26405  10.784   8.976   5.204  0.3024  0.6991  0.1990
  201MOL0     C26406  10.921   8.948   5.187  0.7438 -0.4375  0.4850
  201MOL0     C26407  10.955   8.845   5.092  0.0224 -0.7598  0.3662
  201MOL0     O26408  11.086   8.810   5.089 -0.0142 -0.0288 -0.3929
  201MOL0     C26409  11.130   8.729   4.978  0.2749  0.2002 -0.2765
  201MOL0     C26410  11.285   8.712   4.974  0.1957  0.0147  0.4363
  201MOL0     C26411  11.325   8.640   4.847  0.7484 -0.1000 -0.0456
  201MOL0     C26412  11.289   8.494   4.845 -0.0363 -0.0050  0.4354
  201MOL0     C26413  11.352   8.438   4.719 -0.5164 -0.3726  0.2160
  201MOL0     C26414  11.348   8.285   4.723  0.7938  0.5925 -0.1188
  201MOL0     C26415  11.461   8.233   4.644 -0.0185  0.8818 -0.5292
  201MOL0     C26416  11.449   8.080   4.609 -0.4529  0.2877 -0.1224
  201MOL0     N26417  11.384   8.065   4.474 -0.2685 -0.3265 -0.4551
  201MOL0     C26418  11.246   8.049   4.452 -0.2075  0.5008  0.4521
  201MOL0     C26419  11.231   8.057   4.315 -0.7061 -0.6774 -0.0866
  201MOL0     C26420  11.111   8.045   4.225 -0.1095 -0.0103 -0.5946
  201MOL0     C26421  10.984   7.993   4.294  0.4556 -0.1377 -0.5163
  201MOL0     C26422  10.864   7.968   4.208  0.1390 -0.3649 -0.3738
  201MOL0     C26423  10.741   7.957   4.293  0.7765 -0.3259 -0.0301
  201MOL0     O26424  10.629   7.966   4.204  0.9075  0.6528 -0.4438
  201MOL0     C26425  10.505   7.917   4.242  0.5010 -0.4276 -0.7451
  201MOL0     C26426  10.469   7.881   4.368  0.3635  0.7142  0.4031
  201MOL0     C26427  10.344   7.829   4.389 -0.2270 -0.4140 -0.0058
  201MOL0     C26428  10.249   7.815   4.286 -0.1802  0.2373  0.4521
  201MOL0     C26429  10.113   7.759   4.321 -0.2699 -0.3888  0.3267
  201MOL0     O26430  10.021   7.796   4.240  0.0600 -0.8596 -0.2343
  201MOL0     C26431   9.898   7.741   4.262  0.4945 -0.8444  0.1806
  201MOL0     C26432   9.783   7.821   4.251 -1.1320 -0.2018 -0.3283
  201MOL0     C26433   9.655   7.772   4.253 -0.1477 -0.1695  0.1065
  201MOL0     C26434   9.624   7.635   4.267 -0.6286 -0.3647 -0.1603
  201MOL0     O26435   9.505   7.572   4.264  0.0227 -0.1945 -0.0975
  201MOL0     C26436   9.389   7.650   4.240  0.0780 -0.6633  0.9509
  201MOL0     C26437   9.358   7.659   4.087  0.0833 -0.1601  0.2746
  201MOL0     C26438   9.240   7.764   4.071  0.6268 -0.0708  0.0183
  201MOL0     C26439   9.200   7.770   3.926 -0.0127  0.1479  0.4950
  201MOL0     C26440   9.064   7.825   3.896 -0.5477  0.2210 -0.3358
  201MOL0     C26441   9.051   7.959   3.956  0.2283 -0.5878 -0.3958
  201MOL0     C26442   8.926   8.035   3.911  0.4041  0.5429 -0.0708
  201MOL0     C26443   8.919   8.177   3.965 -1.2583  1.4694 -0.1867
  201MOL0    Cl26444   8.996   8.274   3.823  0.0348  0.3751 -0.8625
  201MOL0     C26445   9.736   7.552   4.284 -0.0344  0.6359  0.4856
  201MOL0     C26446   9.871   7.601   4.285 -0.2946 -0.4960 -0.0362
  201MOL0     O26447  10.098   7.697   4.424 -0.0239 -0.4141 -0.4241
  201MOL0     C26448  10.287   7.852   4.152 -0.5544  0.1895  0.4787
  201MOL0     C26449  10.416   7.913   4.140  0.0251 -0.2474  1.0271
  201MOL0     N26450  11.359   8.064   4.261  0.4654  0.0446  0.5606
  201MOL0     N26451  11.441   8.083   4.357 -0.6168  0.1018 -0.8583
  201MOL0     C26452  10.849   8.777   5.032  0.0856 -0.4351 -0.0774
  201MOL0     C26453  10.719   8.814   5.058 -0.1103 -0.3202 -0.7434
  201MOL0     C26454  10.335   9.015   5.096 -0.2359 -0.4207 -0.3020
  201MOL0     C26455  10.263   9.123   5.047  1.0857 -0.1220 -0.2466
  201MOL0     C26456  10.129   9.106   5.022 -0.8083 -0.7317  0.2774
  201MOL0     C26457  10.065   8.984   5.036 -0.2165  0.1935 -0.3551
  201MOL0     O26458   9.930   8.971   5.008  0.1781  0.7112 -0.1619
  201MOL0     C26459   9.852   9.049   5.097  0.3197 -0.2307 -0.7018
  201MOL0     C26460   9.704   9.045   5.062 -0.2371 -0.0493  0.1095
  201MOL0     C26461   9.676   9.089   4.916  0.1893 -0.4481  0.1750
  201MOL0     C26462   9.532   9.066   4.874  0.2617 -0.1683 -0.4267
  201MOL0     C26463   9.497   9.111   4.735 -0.6349  1.0138  0.5246
  201MOL0     C26464   9.470   9.132   4.618  0.8861  0.0384  0.5096
  201MOL0     C26465  10.143   8.880   5.080  0.4521  0.1963  0.4767
  201MOL0     C26466  10.274   8.896   5.104 -0.1679  0.0033 -0.3434
  201MOL0     H26467  10.749   9.046   5.279  1.0330  0.0401  1.1771
  201MOL0     H26468  10.998   8.987   5.253 -1.9448 -0.0856  3.6618
  201MOL0     H26469  11.101   8.777   4.884 -1.5158 -0.4430 -0.0717
  201MOL0     H26470  11.085   8.632   4.999 -0.1707  0.6724  1.0053
  201MOL0     H26471  11.315   8.641   5.052  1.8145  0.1069 -0.0569
  201MOL0     H26472  11.342   8.801   5.004  1.3592 -0.4687 -0.2600
  201MOL0     H26473  11.434   8.644   4.843  1.0122  0.2265  3.6517
  201MOL0     H26474  11.276   8.692   4.764 -2.3515 -1.2474  0.9019
  201MOL0     H26475  11.330   8.445   4.934  2.5677  0.5878 -0.3421
  201MOL0     H26476  11.185   8.463   4.832  0.0492 -0.4861  0.8591
  201MOL0     H26477  11.458   8.465   4.720 -0.4413 -0.6415  1.5246
  201MOL0     H26478  11.305   8.475   4.628 -0.3308  0.1125  0.3140
  201MOL0     H26479  11.258   8.247   4.674  0.1078  1.5492  0.3547
  201MOL0     H26480  11.354   8.250   4.827  2.6886  2.3875  0.4446
  201MOL0     H26481  11.471   8.295   4.555  0.1040  2.4245  0.5129
  201MOL0     H26482  11.552   8.252   4.701 -0.3906  1.2244 -0.0430
  201MOL0     H26483  11.389   8.031   4.686 -1.2035 -0.2063 -0.9940
  201MOL0     H26484  11.548   8.034   4.607 -0.4626  0.2753 -0.7908
  201MOL0     H26485  11.158   8.045   4.515 -1.4758  1.7619 -1.1316
  201MOL0     H26486  11.144   7.983   4.141  1.4163  0.9434 -0.7438
  201MOL0     H26487  11.081   8.146   4.198  0.8664  0.0966 -1.3193
  201MOL0     H26488  10.957   8.068   4.369  1.1647 -0.6007  0.2316
  201MOL0     H26489  11.011   7.900   4.345 -0.2128 -1.0756 -1.8206
  201MOL0     H26490  10.846   8.057   4.147  1.2668 -0.4148 -0.8070
  201MOL0     H26491  10.896   7.885   4.144  1.9796  2.0283 -2.7377
  201MOL0     H26492  10.730   8.049   4.351 -1.5342  1.1185 -2.5168
  201MOL0     H26493  10.743   7.866   4.354  2.1162 -0.8570 -0.8129
  201MOL0     H26494  10.542   7.896   4.447  2.6563 -1.0003 -1.2476
  201MOL0     H26495  10.315   7.818   4.493  2.0990 -1.7021  0.5824
  201MOL0     H26496   9.801   7.927   4.237 -0.7001 -0.1752  0.3984
  201MOL0     H26497   9.579   7.843   4.222 -0.2866 -0.2822  0.1851
  201MOL0     H26498   9.393   7.748   4.289 -1.6674 -0.0509 -0.0241
  201MOL0     H26499   9.308   7.595   4.289  1.1117 -1.5788  1.6714
  201MOL0     H26500   9.339   7.555   4.055  1.7972 -0.7977  1.1979
  201MOL0     H26501   9.450   7.704   4.048 -1.2389  0.9368 -1.7470
  201MOL0     H26502   9.274   7.861   4.105 -0.6507  0.7829 -1.0228
  201MOL0     H26503   9.147   7.748   4.127  0.2437 -0.9769 -0.8315
  201MOL0     H26504   9.274   7.835   3.877 -1.3842  2.4236  1.2718
  201MOL0     H26505   9.202   7.666   3.895 -3.0439 -0.9913  3.4972
  201MOL0     H26506   8.992   7.754   3.939 -1.1896  0.5269 -0.8965
  201MOL0     H26507   9.044   7.840   3.790 -3.8158  0.5825  0.2409
  201MOL0     H26508   9.134   8.022   3.923 -2.5516  2.4095 -2.4525
  201MOL0     H26509   9.053   7.945   4.064  0.1153 -1.4926 -0.5082
  201MOL0     H26510   8.912   8.033   3.802  0.7208 -1.3015 -0.0994
  201MOL0     H26511   8.842   7.974   3.945  1.1950 -1.8643 -2.1438
  201MOL0     H26512   8.973   8.192   4.058 -0.5886 -2.1085  0.1556
  201MOL0     H26513   8.813   8.199   3.983 -2.8032 -3.4654 -1.6051
  201MOL0     H26514   9.727   7.446   4.305 -0.7162  0.1696 -1.8149
  201MOL0     H26515   9.953   7.530   4.293 -1.0396 -1.7864 -2.7005
  201MOL0     H26516  10.220   7.853   4.067 -0.6100  0.1142  0.5214
  201MOL0     H26517  10.454   7.940   4.042  1.3450 -3.1027  0.6398
  201MOL0     H26518  10.876   8.703   4.958  2.2078  0.2329 -0.0368
  201MOL0     H26519  10.631   8.767   5.015 -2.0855 -0.1036  2.6830
  201MOL0     H26520  10.299   9.218   5.007 -0.6794  1.0097  0.7129
  201MOL0     H26521  10.080   9.195   4.985 -1.7860 -2.1799 -2.1530
  201MOL0     H26522   9.881   9.154   5.103 -1.0805  0.2180 -1.4975
  201MOL0     H26523   9.854   9.006   5.198 -1.3687  0.5193 -0.3230
  201MOL0     H26524   9.657   8.952   5.095  0.1074 -0.4226 -0.4308
  201MOL0     H26525   9.656   9.116   5.130 -0.3848 -1.7190  1.8320
  201MOL0     H26526   9.740   9.040   4.842 -0.3627  1.0885 -1.3670
  201MOL0     H26527   9.695   9.196   4.910 -1.2385 -0.2424 -1.3456
  201MOL0     H26528   9.513   8.959   4.884 -1.8835  0.3810  2.5016
  201MOL0     H26529   9.473   9.123   4.946 -1.4729 -2.3668 -0.0258
  201MOL0     H26530   9.443   9.145   4.515  0.8091 -0.6274  0.4374
  201MOL0     H26531  10.106   8.778   5.082 -0.2424  0.4455  0.5871
  201MOL0     H26532  10.344   8.820   5.138 -0.0693  0.4867  0.5564
  202MOL0     O26533   8.637   8.670   4.018 -0.1452  0.6816  0.9851
  202MOL0     C26534   8.663   8.561   3.970  0.7753  0.5455 -0.2722
  202MOL0     O26535   8.725   8.457   4.039  0.0459 -0.1979  0.3517
  202MOL0     C26536   8.778   8.487   4.159 -0.2792 -0.8288  0.7449
  202MOL0     C26537   8.732   8.432   4.275 -0.9753  0.2758  0.4447
  202MOL0     C26538   8.781   8.467   4.397 -0.2134  0.2557 -1.0785
  202MOL0     C26539   8.889   8.554   4.408 -0.0276 -0.5172 -0.0091
  202MOL0     O26540   8.946   8.587   4.533  0.5463  0.1780  0.7452
  202MOL0     C26541   8.922   8.724   4.577  0.2384  1.0117  0.2654
  202MOL0     C26542   8.987   8.736   4.716 -0.7881 -0.2697 -0.1368
  202MOL0     C26543   8.986   8.881   4.782 -0.3235 -0.3293 -0.8180
  202MOL0     C26544   9.119   8.954   4.739 -0.1734  0.0391  0.7017
  202MOL0     C26545   9.109   9.102   4.773  0.0244 -0.5766 -0.0197
  202MOL0     C26546   9.054   9.196   4.659  0.0507 -0.1360 -0.3872
  202MOL0     C26547   8.901   9.223   4.666 -0.3906 -0.6059  0.6748
  202MOL0     C26548   8.878   9.328   4.776  0.3132  0.5747 -0.1119
  202MOL0     N26549   8.729   9.322   4.832 -0.0730 -0.0457  0.1203
  202MOL0     C26550   8.620   9.287   4.753 -0.1712  0.0490 -0.0182
  202MOL0     C26551   8.507   9.308   4.827 -0.0624 -0.5616  0.0293
  202MOL0     C26552   8.371   9.280   4.776 -0.6762 -0.1349 -0.2045
  202MOL0     C26553   8.312   9.180   4.876 -0.2150 -0.2731 -0.1752
  202MOL0     C26554   8.261   9.248   5.006  0.6243  0.5874 -0.7484
  202MOL0     C26555   8.109   9.294   4.981  0.7405 -0.1170 -1.0477
  202MOL0     O26556   8.084   9.356   4.857  0.5539 -0.0246 -0.5956
  202MOL0     C26557   7.952   9.375   4.819  0.8171 -0.5439  0.2590
  202MOL0     C26558   7.827   9.351   4.887 -0.2750  0.8060 -0.1806
  202MOL0     C26559   7.708   9.377   4.830 -0.5519  0.5566  0.7519
  202MOL0     C26560   7.703   9.445   4.705 -0.0494 -0.1238  0.4194
  202MOL0     C26561   7.573   9.482   4.642  0.4764  0.7629 -0.1132
  202MOL0     O26562   7.455   9.430   4.699  0.1420  0.2883  0.1112
  202MOL0     C26563   7.334   9.467   4.644 -0.4597 -0.3105 -0.5405
  202MOL0     C26564   7.291   9.597   4.654  0.6197 -1.0816 -0.2093
  202MOL0     C26565   7.157   9.620   4.607 -0.9761  0.2360  0.1992
  202MOL0     C26566   7.073   9.521   4.547 -0.3882 -0.0962 -0.0853
  202MOL0     O26567   6.953   9.559   4.506  0.6467 -1.0163 -0.1431
  202MOL0     C26568   6.852   9.466   4.474  0.0384 -0.4307  0.4584
  202MOL0     C26569   6.739   9.532   4.394  0.4590 -0.9551 -0.4823
  202MOL0     C26570   6.643   9.421   4.349 -0.3158 -0.4976  0.4526
  202MOL0     C26571   6.526   9.485   4.280  1.1093  0.1123 -0.0399
  202MOL0     C26572   6.440   9.380   4.199 -0.7435 -0.6552  0.8279
  202MOL0     C26573   6.297   9.430   4.158  0.2228 -0.2774 -1.0773
  202MOL0     C26574   6.243   9.317   4.078  0.3552  0.8518  0.9489
  202MOL0     C26575   6.101   9.337   4.026  0.3036 -0.3921  0.8095
  202MOL0    Cl26576   6.098   9.485   3.933  0.4547  0.4763 -0.2628
  202MOL0     C26577   7.125   9.391   4.541  0.0356 -0.3126  0.3740
  202MOL0     C26578   7.256   9.365   4.587  0.0992  0.4839 -0.2420
  202MOL0     O26579   7.572   9.550   4.536 -0.8591  0.1470  0.0204
  202MOL0     C26580   7.826   9.483   4.639  0.2071  0.3174  0.8942
  202MOL0     C26581   7.945   9.443   4.693 -0.1723  0.1717 -0.6163
  202MOL0     N26582   8.554   9.367   4.943 -0.3472  0.1154  0.7120
  202MOL0     N26583   8.682   9.367   4.952  0.6428 -0.5511 -0.1880
  202MOL0     C26584   8.942   8.604   4.293 -0.1683  0.4840 -0.5274
  202MOL0     C26585   8.886   8.570   4.167  0.0570  0.0404  0.0304
  202MOL0     C26586   8.602   8.535   3.837 -0.4322  0.4079 -0.3582
  202MOL0     C26587   8.643   8.425   3.762  0.6186 -0.7023 -0.5371
  202MOL0     C26588   8.597   8.402   3.635 -1.0053 -0.2710 -0.0349
  202MOL0     C26589   8.508   8.495   3.579  0.8179 -0.4074  1.0082
  202MOL0     O26590   8.464   8.448   3.457  0.2738  0.5097 -0.3385
  202MOL0     C26591   8.363   8.522   3.388  0.6229  0.1158 -0.1001
  202MOL0     C26592   8.351   8.453   3.254 -0.3657  0.0274  0.0691
  202MOL0     C26593   8.267   8.535   3.152  0.3424 -0.3374 -0.7382
  202MOL0     C26594   8.296   8.497   3.005  0.7626 -0.1465 -0.5465
  202MOL0     C26595   8.199   8.572   2.916  0.2878 -0.2942 -0.4093
  202MOL0     C26596   8.132   8.630   2.832  0.3384 -0.6758 -0.8994
  202MOL0     C26597   8.453   8.600   3.653 -1.0851 -0.9976  0.1661
  202MOL0     C26598   8.502   8.622   3.780 -0.7542 -0.1198  0.8407
  202MOL0     H26599   8.662   8.350   4.278 -4.0471  2.7263  1.2832
  202MOL0     H26600   8.740   8.422   4.487  0.2037 -3.1345 -2.4550
  202MOL0     H26601   8.816   8.749   4.581 -0.2299 -0.4749 -1.7030
  202MOL0     H26602   8.977   8.793   4.513  0.0449 -0.5198 -1.6308
  202MOL0     H26603   9.089   8.700   4.727 -0.5095  0.9585  1.8663
  202MOL0     H26604   8.923   8.688   4.792 -1.6804  1.0095 -0.0470
  202MOL0     H26605   8.988   8.878   4.891 -0.1449 -0.2347 -0.8184
  202MOL0     H26606   8.894   8.930   4.749 -1.0814 -0.5356  0.8710
  202MOL0     H26607   9.206   8.906   4.785 -0.3677 -0.2769  0.7391
  202MOL0     H26608   9.138   8.941   4.632 -3.8899 -0.3371 -0.0444
  202MOL0     H26609   9.210   9.135   4.798  1.6916 -2.4389 -3.5685
  202MOL0     H26610   9.041   9.114   4.858 -0.8785  0.0107 -0.8083
  202MOL0     H26611   9.081   9.148   4.565  1.0495 -0.4660  0.0546
  202MOL0     H26612   9.105   9.293   4.650 -0.6398  0.1739 -0.9837
  202MOL0     H26613   8.869   9.261   4.569  3.4135 -0.5051 -0.7363
  202MOL0     H26614   8.848   9.131   4.691 -0.0774 -0.5737  1.5051
  202MOL0     H26615   8.896   9.429   4.740  1.5949  0.8110  1.1088
  202MOL0     H26616   8.943   9.316   4.863  0.4841  0.8781 -0.1994
  202MOL0     H26617   8.623   9.246   4.652  2.6945 -4.9383  1.7435
  202MOL0     H26618   8.373   9.238   4.676 -1.2107 -0.2170 -0.1828
  202MOL0     H26619   8.307   9.367   4.762 -2.3545 -1.3765 -0.4686
  202MOL0     H26620   8.382   9.101   4.903 -1.3969 -0.3724  2.9527
  202MOL0     H26621   8.237   9.118   4.825 -1.9246 -1.1623  3.1303
  202MOL0     H26622   8.270   9.174   5.086  2.9308  1.0257 -0.5485
  202MOL0     H26623   8.323   9.336   5.023  2.1610 -0.5953 -0.0690
  202MOL0     H26624   8.092   9.365   5.063  3.4472  0.6590 -1.0618
  202MOL0     H26625   8.044   9.207   4.996 -1.0890  1.3943  0.2916
  202MOL0     H26626   7.834   9.309   4.987  2.8065 -1.5883 -1.2454
  202MOL0     H26627   7.613   9.367   4.881  0.1985 -0.2049  2.0178
  202MOL0     H26628   7.348   9.671   4.709 -2.9595  0.3621  1.9097
  202MOL0     H26629   7.108   9.716   4.615 -0.9914  0.1639  1.0059
  202MOL0     H26630   6.821   9.424   4.571  0.7042  0.2577  0.9837
  202MOL0     H26631   6.892   9.391   4.404 -0.0586  0.3218 -0.4160
  202MOL0     H26632   6.792   9.578   4.310  2.7274  0.8218  1.7511
  202MOL0     H26633   6.686   9.609   4.452  1.5752  0.5324 -1.3596
  202MOL0     H26634   6.611   9.347   4.423 -2.0528  0.6046  0.8792
  202MOL0     H26635   6.692   9.365   4.268  0.0017  1.2284 -0.6009
  202MOL0     H26636   6.466   9.532   4.359 -0.1135  1.0665 -1.4661
  202MOL0     H26637   6.548   9.570   4.214  0.9983  0.7710  0.7527
  202MOL0     H26638   6.434   9.289   4.259 -1.1682 -0.6731  0.7632
  202MOL0     H26639   6.511   9.360   4.118 -1.8042  0.0865 -0.3274
  202MOL0     H26640   6.305   9.522   4.099 -0.8395  0.3092 -0.3403
  202MOL0     H26641   6.233   9.451   4.244  0.0242 -2.3231 -0.6661
  202MOL0     H26642   6.302   9.292   3.989 -0.1885  0.9033  0.5679
  202MOL0     H26643   6.245   9.230   4.144  1.1363  0.8765  0.9644
  202MOL0     H26644   6.036   9.357   4.112 -0.2408  2.4356 -0.1398
  202MOL0     H26645   6.065   9.249   3.974  1.4482 -0.9773  0.9849
  202MOL0     H26646   7.068   9.304   4.509  0.9564 -0.9343  0.3919
  202MOL0     H26647   7.288   9.261   4.587 -1.9918 -0.2569  2.0924
  202MOL0     H26648   7.825   9.539   4.546 -2.3587 -1.3300 -0.1787
  202MOL0     H26649   8.032   9.450   4.629  0.9038 -3.2317  0.2245
  202MOL0     H26650   9.024   8.673   4.311 -0.5519  0.1525  3.0984
  202MOL0     H26651   8.932   8.608   4.076 -1.7562 -1.0635 -1.4116
  202MOL0     H26652   8.721   8.357   3.797  1.3684  0.6322  0.4858
  202MOL0     H26653   8.626   8.321   3.569 -1.5767 -1.4127  1.0728
  202MOL0     H26654   8.407   8.621   3.371  2.2783 -0.1962  1.9139
  202MOL0     H26655   8.261   8.520   3.428  0.0729  1.0383 -1.3891
  202MOL0     H26656   8.453   8.452   3.213 -0.5877 -2.4801 -0.5940
  202MOL0     H26657   8.305   8.354   3.262 -0.7128  0.2803  1.4391
  202MOL0     H26658   8.294   8.638   3.180  2.3775 -1.4174  1.6607
  202MOL0     H26659   8.160   8.518   3.171  0.0861 -1.4708 -2.9515
  202MOL0     H26660   8.397   8.533   2.988  1.2436 -0.6127  1.1264
  202MOL0     H26661   8.293   8.390   2.981  0.1147  0.5112 -3.8088
  202MOL0     H26662   8.081   8.702   2.771 -0.5293  1.2666  1.9144
  202MOL0     H26663   8.361   8.649   3.623 -1.6313 -2.0364  0.1255
  202MOL0     H26664   8.457   8.705   3.833 -0.2633  0.8987 -0.2960
  203MOL0     O26665   5.839   9.157   3.427  0.4270 -0.3977  0.1324
  203MOL0     C26666   5.776   9.090   3.504  0.6724 -0.3478 -0.3591
  203MOL0     O26667   5.817   9.031   3.617 -0.3789 -0.0090 -0.0188
  203MOL0     C26668   5.951   9.056   3.658  0.3381  0.6763 -0.8656
  203MOL0     C26669   6.031   8.944   3.683 -0.1202 -0.0660  0.2086
  203MOL0     C26670   6.170   8.956   3.710  0.7665 -0.0850 -0.2337
  203MOL0     C26671   6.225   9.089   3.728 -0.2633  0.2909 -0.6376
  203MOL0     O26672   6.361   9.115   3.745  0.0867 -0.0889  0.4165
  203MOL0     C26673   6.442   9.005   3.785 -0.2782  0.3566 -0.3234
  203MOL0     C26674   6.576   9.058   3.829  0.2715  0.0413 -0.0649
  203MOL0     C26675   6.664   8.952   3.886  0.4324  0.2819  0.4149
  203MOL0     C26676   6.800   9.015   3.925  0.2643  0.5068 -0.5587
  203MOL0     C26677   6.902   8.903   3.937  0.4514  0.2351 -0.8170
  203MOL0     C26678   6.868   8.805   4.053 -0.9370 -0.5091 -0.5468
  203MOL0     C26679   6.995   8.725   4.099 -0.6615 -0.0247 -0.7922
  203MOL0     C26680   7.034   8.608   4.009 -0.5238 -0.8469 -0.4656
  203MOL0     N26681   7.167   8.550   4.012  0.4022 -0.4885 -0.0732
  203MOL0     C26682   7.254   8.547   4.115  0.2036 -0.1706 -0.4806
  203MOL0     C26683   7.350   8.460   4.086  0.1566  0.2503  0.7087
  203MOL0     C26684   7.461   8.433   4.180 -0.3581  0.4967  0.1015
  203MOL0     C26685   7.455   8.280   4.218  0.5980  0.5247  0.1682
  203MOL0     C26686   7.371   8.271   4.349  0.5369 -0.2668  1.5498
  203MOL0     C26687   7.216   8.254   4.323  0.5297 -0.5185  0.1085
  203MOL0     O26688   7.155   8.385   4.342 -1.1038  0.7425  0.4502
  203MOL0     C26689   7.016   8.380   4.346  0.2207 -0.4621  0.8996
  203MOL0     C26690   6.948   8.492   4.407 -0.4103 -0.3682 -0.2473
  203MOL0     C26691   6.809   8.489   4.406 -0.5532  0.0487  0.0125
  203MOL0     C26692   6.723   8.397   4.335 -0.3057 -0.8436 -0.4105
  203MOL0     C26693   6.580   8.407   4.318 -0.8742 -0.0199  0.5022
  203MOL0     O26694   6.527   8.328   4.228  0.3762 -0.1772 -0.0642
  203MOL0     C26695   6.388   8.330   4.224 -0.3769  1.1189  0.1344
  203MOL0     C26696   6.327   8.352   4.101  0.5713 -0.4191  0.9563
  203MOL0     C26697   6.196   8.357   4.078 -0.4864  0.8591 -0.3613
  203MOL0     C26698   6.110   8.352   4.183  0.0506  0.2090  0.5198
  203MOL0     O26699   5.983   8.385   4.162 -0.0429  0.1524  0.9873
  203MOL0     C26700   5.889   8.396   4.265  0.5051  0.3400  0.3814
  203MOL0     C26701   5.747   8.406   4.221  0.5792 -0.7252  0.0391
  203MOL0     C26702   5.723   8.529   4.129 -0.4012 -0.0711 -0.3900
  203MOL0     C26703   5.595   8.525   4.050  0.2261 -0.1246  0.2210
  203MOL0     C26704   5.563   8.660   3.995  0.6035  0.7226  1.0632
  203MOL0     C26705   5.439   8.655   3.898  1.0863  0.0648  0.7094
  203MOL0     C26706   5.310   8.653   3.973  0.5917  1.1102 -0.0619
  203MOL0     C26707   5.195   8.726   3.910  0.9379 -0.6403 -0.1579
  203MOL0    Cl26708   5.197   8.734   3.737  0.1849 -0.3244  0.1887
  203MOL0     C26709   6.164   8.323   4.311 -1.3449 -1.0351  0.3614
  203MOL0     C26710   6.304   8.309   4.336 -0.4717 -0.0950  0.2359
  203MOL0     O26711   6.519   8.488   4.391  0.8742  0.0608 -0.2194
  203MOL0     C26712   6.796   8.298   4.270 -0.2252 -0.4804  0.9221
  203MOL0     C26713   6.939   8.289   4.280  0.4648 -0.0033 -0.2032
  203MOL0     N26714   7.314   8.404   3.963 -0.7408 -0.6808  0.4832
  203MOL0     N26715   7.203   8.457   3.925  0.1400 -1.0286  0.5607
  203MOL0     C26716   6.137   9.200   3.699  0.0663 -0.4261 -0.6031
  203MOL0     C26717   6.004   9.181   3.668 -1.5822 -0.0717  0.2677
  203MOL0     C26718   5.633   9.056   3.480  1.1142  0.5890 -0.6034
  203MOL0     C26719   5.570   9.101   3.360  0.5661 -0.0871  0.1436
  203MOL0     C26720   5.432   9.077   3.340  0.1695  0.7087 -0.2071
  203MOL0     C26721   5.348   9.018   3.437  0.2471  0.5117  0.5249
  203MOL0     O26722   5.212   8.986   3.415  0.1325 -0.3265 -0.2232
  203MOL0     C26723   5.144   9.084   3.327  0.3167 -0.2429  0.3201
  203MOL0     C26724   5.000   9.080   3.357 -0.4790  0.4708  0.9547
  203MOL0     C26725   4.951   9.130   3.489 -0.9021  0.0764 -0.3240
  203MOL0     C26726   4.798   9.121   3.492  0.0414  1.0547 -0.3162
  203MOL0     C26727   4.738   9.238   3.434  1.2982  0.6081 -0.2232
  203MOL0     C26728   4.682   9.328   3.372  0.4465  0.1162  0.0335
  203MOL0     C26729   5.418   8.975   3.549  0.3100 -0.9129  0.7045
  203MOL0     C26730   5.553   8.991   3.570  0.6762  0.9258  0.3226
  203MOL0     H26731   5.987   8.845   3.674  1.0503 -0.4871 -1.4353
  203MOL0     H26732   6.222   8.864   3.732  0.3921 -0.0441  0.8925
  203MOL0     H26733   6.450   8.927   3.708 -1.8882 -1.6482  1.4389
  203MOL0     H26734   6.394   8.948   3.864 -1.1680  0.9258 -0.4392
  203MOL0     H26735   6.560   9.136   3.905  2.2245  0.1570  0.2701
  203MOL0     H26736   6.621   9.112   3.745  1.1788  0.3414  0.5989
  203MOL0     H26737   6.668   8.877   3.806 -0.6503  1.9845 -1.3008
  203MOL0     H26738   6.630   8.901   3.977  0.0482 -1.9815 -0.9100
  203MOL0     H26739   6.832   9.095   3.858  4.0433 -0.8284 -0.6168
  203MOL0     H26740   6.792   9.062   4.024 -1.3841 -0.5987 -0.1320
  203MOL0     H26741   6.991   8.960   3.963 -1.6310  2.5493  1.9455
  203MOL0     H26742   6.906   8.839   3.849 -0.6265 -1.0592  0.0394
  203MOL0     H26743   6.783   8.738   4.033 -0.1874 -1.1846 -1.5769
  203MOL0     H26744   6.844   8.865   4.142 -0.3512 -2.1128  0.7522
  203MOL0     H26745   7.084   8.787   4.111  2.2999 -4.0924  0.6473
  203MOL0     H26746   6.975   8.677   4.195  1.4870 -0.0854 -0.3261
  203MOL0     H26747   7.011   8.634   3.906  1.1252  1.9139 -0.2307
  203MOL0     H26748   6.960   8.533   4.039 -2.9388 -0.1245 -4.0565
  203MOL0     H26749   7.251   8.608   4.205  0.8558  1.5251 -1.5491
  203MOL0     H26750   7.465   8.494   4.271  0.4874 -1.2696  1.3301
  203MOL0     H26751   7.561   8.448   4.138 -0.3702 -3.2952 -1.7134
  203MOL0     H26752   7.559   8.257   4.242  0.1838  0.5904  2.2334
  203MOL0     H26753   7.429   8.216   4.133  1.3602 -1.1528  1.1574
  203MOL0     H26754   7.410   8.177   4.391  2.1988  0.5146  1.8441
  203MOL0     H26755   7.395   8.351   4.420 -1.1247 -0.0322  1.8821
  203MOL0     H26756   7.188   8.188   4.406 -0.7097  2.3412  2.1070
  203MOL0     H26757   7.187   8.221   4.222  2.1028  4.1632 -2.1802
  203MOL0     H26758   7.007   8.577   4.440  1.2762 -1.7288  0.3774
  203MOL0     H26759   6.760   8.574   4.452 -2.1867 -1.3088  0.8734
  203MOL0     H26760   6.401   8.357   4.021 -0.7782  0.2869 -0.2801
  203MOL0     H26761   6.160   8.378   3.978 -0.5595 -1.4991 -0.9015
  203MOL0     H26762   5.913   8.481   4.330 -0.6130  1.2675 -0.3768
  203MOL0     H26763   5.902   8.309   4.330  0.9478  0.1151 -0.0024
  203MOL0     H26764   5.680   8.417   4.307  2.0613 -1.3621  1.3275
  203MOL0     H26765   5.716   8.316   4.167  1.9590 -2.1235  1.4618
  203MOL0     H26766   5.804   8.546   4.058 -0.4030  3.8363  0.2931
  203MOL0     H26767   5.723   8.617   4.194  0.1049 -0.1685 -0.2584
  203MOL0     H26768   5.597   8.456   3.966  0.8505 -1.6435  1.4331
  203MOL0     H26769   5.517   8.489   4.119  1.3885 -1.8974  0.6639
  203MOL0     H26770   5.643   8.698   3.930  0.6602 -1.3608 -0.1668
  203MOL0     H26771   5.547   8.729   4.079  2.3499 -0.8632  2.7811
  203MOL0     H26772   5.441   8.567   3.834  0.3211  0.3741  0.2510
  203MOL0     H26773   5.441   8.742   3.832 -2.5359 -0.1870  0.0854
  203MOL0     H26774   5.278   8.549   3.984 -2.2745  1.9754  0.6332
  203MOL0     H26775   5.321   8.702   4.070  0.0985  1.3467 -0.1174
  203MOL0     H26776   5.204   8.829   3.946 -0.5189  0.0222 -1.6052
  203MOL0     H26777   5.102   8.676   3.940 -0.6353  0.0936 -3.3772
  203MOL0     H26778   6.103   8.292   4.395 -0.9956 -1.5789  0.4171
  203MOL0     H26779   6.329   8.277   4.437 -3.3637 -2.5974  0.3042
  203MOL0     H26780   6.733   8.230   4.214 -0.9492 -0.4672  1.6891
  203MOL0     H26781   6.983   8.201   4.234 -0.4852 -1.2538  1.1901
  203MOL0     H26782   6.171   9.302   3.711 -0.4638 -0.1392 -1.4643
  203MOL0     H26783   5.946   9.271   3.649  0.1494  0.8610 -0.8664
  203MOL0     H26784   5.624   9.168   3.293  0.2388 -0.9945 -1.0510
  203MOL0     H26785   5.381   9.106   3.249 -1.9532  1.6581  1.2001
  203MOL0     H26786   5.152   9.055   3.222  3.3399  0.2556  0.3206
  203MOL0     H26787   5.184   9.186   3.333 -1.9404  0.7969 -1.0945
  203MOL0     H26788   4.950   9.150   3.289 -2.4717 -2.0793 -0.4026
  203MOL0     H26789   4.961   8.980   3.335 -3.1242  2.0912 -3.0598
  203MOL0     H26790   4.992   9.231   3.491 -2.2735  0.8548 -3.7600
  203MOL0     H26791   4.993   9.066   3.566  1.8432  1.5289 -0.4951
  203MOL0     H26792   4.773   9.027   3.443  0.0434  1.6178 -1.4304
  203MOL0     H26793   4.757   9.115   3.593 -0.7099 -0.8830 -0.7006
  203MOL0     H26794   4.614   9.407   3.348 -1.8609 -1.6443  0.3627
  203MOL0     H26795   5.355   8.946   3.633 -0.1082  0.9450  1.0919
  203MOL0     H26796   5.589   8.959   3.667  0.9152  1.4257  0.4033
  204MOL0     O26797   2.296   1.638   5.816 -0.0454  0.7052 -0.9434
  204MOL0     C26798   2.296   1.654   5.699 -0.8391 -0.8066  1.4285
  204MOL0     O26799   2.190   1.691   5.622 -0.5014  0.1513  0.4618
  204MOL0     C26800   2.057   1.711   5.659 -0.8357 -0.1886 -0.0367
  204MOL0     C26801   2.005   1.661   5.785 -0.0712  0.3601  0.1595
  204MOL0     C26802   1.877   1.691   5.810 -0.2029  0.0104  0.3456
  204MOL0     C26803   1.793   1.767   5.720 -0.5324  0.8151 -0.0647
  204MOL0     O26804   1.659   1.778   5.728  0.2276 -0.1058 -0.4933
  204MOL0     C26805   1.589   1.661   5.769 -0.1943 -0.2238  0.5289
  204MOL0     C26806   1.448   1.674   5.719 -0.1843  0.1900  0.2432
  204MOL0     C26807   1.448   1.682   5.566 -0.1582  0.6234 -0.6515
  204MOL0     C26808   1.310   1.678   5.498 -0.3149  0.1705  0.3822
  204MOL0     C26809   1.319   1.702   5.342 -0.0737  0.7339  0.0859
  204MOL0     C26810   1.332   1.854   5.310  0.1171  0.5106  0.5521
  204MOL0     C26811   1.197   1.933   5.310  0.5081 -0.3930 -0.0187
  204MOL0     C26812   1.098   1.866   5.214 -0.5688  0.1648 -0.3268
  204MOL0     N26813   0.985   1.951   5.191  0.7671 -0.4321  0.3142
  204MOL0     C26814   0.987   2.046   5.094 -0.8547 -0.2434  0.4620
  204MOL0     C26815   0.866   2.109   5.101 -0.5879  0.5512  0.0421
  204MOL0     C26816   0.835   2.215   5.007  0.0650  0.4164  0.1984
  204MOL0     C26817   0.808   2.167   4.863  0.0644  0.2978  0.2415
  204MOL0     C26818   0.772   2.274   4.760 -0.0151  0.4509 -0.0951
  204MOL0     C26819   0.712   2.220   4.636 -0.0685  0.6404 -0.3444
  204MOL0     O26820   0.573   2.180   4.648  0.1580  0.2949  0.0674
  204MOL0     C26821   0.476   2.282   4.642 -0.3473 -1.0172  0.1791
  204MOL0     C26822   0.500   2.426   4.634  0.1401  0.1145 -0.7366
  204MOL0     C26823   0.391   2.513   4.624 -0.4203  0.3435  0.1311
  204MOL0     C26824   0.260   2.469   4.622 -0.6811  0.6105 -0.1800
  204MOL0     C26825   0.154   2.561   4.607  0.2119  0.1070 -0.6157
  204MOL0     O26826   0.044   2.497   4.545  0.4246 -0.5596  0.0125
  204MOL0     C26827  -0.056   2.588   4.515 -0.0878  1.1533 -0.5120
  204MOL0     C26828  -0.051   2.677   4.408  0.6997 -0.1413  0.3405
  204MOL0     C26829  -0.156   2.776   4.397 -1.0473  0.1930 -0.4180
  204MOL0     C26830  -0.251   2.784   4.497  0.2350  0.2814 -0.5267
  204MOL0     O26831  -0.358   2.874   4.503  0.5180  0.1945  0.7875
  204MOL0     C26832  -0.389   2.936   4.379 -0.5006 -0.6778 -0.2630
  204MOL0     C26833  -0.516   3.019   4.413 -0.7482  0.9566 -0.2459
  204MOL0     C26834  -0.641   2.933   4.430 -0.0088  0.8969 -0.4218
  204MOL0     C26835  -0.752   2.988   4.514  0.6927  0.4030 -0.9975
  204MOL0     C26836  -0.888   2.912   4.515  0.0295  0.5170 -0.1791
  204MOL0     C26837  -0.880   2.770   4.572  0.1218 -0.5742 -0.7474
  204MOL0     C26838  -1.010   2.689   4.542 -0.2286 -0.3289  0.3509
  204MOL0     C26839  -1.120   2.713   4.644 -0.5876  1.1625 -0.3805
  204MOL0    Cl26840  -1.238   2.593   4.600  0.0223 -0.1245  0.0712
  204MOL0     C26841  -0.255   2.695   4.601 -0.8581  0.3407 -0.7641
  204MOL0     C26842  -0.149   2.604   4.613  0.2556 -0.0886 -0.2005
  204MOL0     O26843   0.171   2.683   4.617 -0.1947  0.5582 -1.0536
  204MOL0     C26844   0.244   2.329   4.617 -0.3447  0.3249  0.1307
  204MOL0     C26845   0.344   2.237   4.634 -0.0807 -0.1851 -0.4051
  204MOL0     N26846   0.796   2.041   5.199  0.7912  0.0973  0.3754
  204MOL0     N26847   0.862   1.947   5.252  0.0854  0.1002 -0.4095
  204MOL0     C26848   1.842   1.810   5.603  0.7047 -0.2967  0.2722
  204MOL0     C26849   1.975   1.784   5.574 -0.9072  0.1311  0.5013
  204MOL0     C26850   2.421   1.644   5.625 -1.0650  0.1868 -0.3089
  204MOL0     C26851   2.537   1.602   5.703  0.4568  0.5171  1.0014
  204MOL0     C26852   2.664   1.603   5.650 -0.6257 -0.2535  0.4253
  204MOL0     C26853   2.687   1.616   5.511 -0.0206 -0.3491 -0.8602
  204MOL0     O26854   2.814   1.605   5.465 -0.2034  0.1103  0.4190
  204MOL0     C26855   2.884   1.735   5.458 -0.1608 -0.3234 -0.6039
  204MOL0     C26856   3.000   1.724   5.358 -0.2117 -0.4860 -0.3676
  204MOL0     C26857   3.059   1.863   5.334 -0.1956 -0.0861  0.2903
  204MOL0     C26858   3.175   1.855   5.250  0.0463  0.3721 -0.3230
  204MOL0     C26859   3.219   1.994   5.226  0.4558 -0.0526 -0.9153
  204MOL0     C26860   3.257   2.111   5.214 -0.2977 -0.5214  0.1075
  204MOL0     C26861   2.569   1.648   5.429 -0.0142 -0.5381  0.8229
  204MOL0     C26862   2.443   1.663   5.484 -0.5915  0.0939 -0.9246
  204MOL0     H26863   2.070   1.608   5.854 -0.1523  1.3518  1.0221
  204MOL0     H26864   1.826   1.669   5.903  0.0104  0.1332  0.4904
  204MOL0     H26865   1.594   1.649   5.878 -0.1789 -0.3702  0.5133
  204MOL0     H26866   1.628   1.569   5.725 -0.6451  0.0548 -0.4847
  204MOL0     H26867   1.405   1.768   5.754  0.9911 -0.1621  2.8995
  204MOL0     H26868   1.387   1.594   5.760 -1.8304  1.2623 -0.0304
  204MOL0     H26869   1.509   1.602   5.523 -2.0642 -0.5581 -1.2791
  204MOL0     H26870   1.490   1.780   5.540 -1.6254  1.3196 -0.4904
  204MOL0     H26871   1.269   1.580   5.526  0.1021  0.0588  0.6199
  204MOL0     H26872   1.243   1.756   5.537  0.2134  1.5010 -1.2742
  204MOL0     H26873   1.235   1.656   5.289  0.2672 -1.3334  1.1833
  204MOL0     H26874   1.411   1.653   5.309  0.6614  1.1089  1.4921
  204MOL0     H26875   1.391   1.869   5.219  0.3612  2.0201  0.9331
  204MOL0     H26876   1.393   1.906   5.384  0.9302  0.1057  0.1791
  204MOL0     H26877   1.162   1.935   5.414  0.3123 -0.5143 -0.0817
  204MOL0     H26878   1.206   2.039   5.283  3.6476 -0.5192  0.1651
  204MOL0     H26879   1.066   1.777   5.270 -0.4802  1.0110  1.1361
  204MOL0     H26880   1.138   1.843   5.115  1.6671  0.5038  0.4530
  204MOL0     H26881   1.069   2.055   5.023 -0.3386 -0.4209  1.0274
  204MOL0     H26882   0.914   2.291   5.006  1.5173 -1.0145  1.3370
  204MOL0     H26883   0.747   2.265   5.050 -0.8369 -0.4476 -0.6026
  204MOL0     H26884   0.725   2.096   4.875  0.2744  0.1547  0.8929
  204MOL0     H26885   0.894   2.110   4.825 -0.3348 -0.2738  0.1807
  204MOL0     H26886   0.707   2.350   4.805 -0.0083  0.5698 -0.2887
  204MOL0     H26887   0.858   2.339   4.741  0.2883 -0.8304 -3.9108
  204MOL0     H26888   0.764   2.130   4.602 -2.7211 -0.2176 -2.5046
  204MOL0     H26889   0.722   2.283   4.547 -1.5761  0.5632 -0.6012
  204MOL0     H26890   0.605   2.454   4.631  0.6040 -1.4942 -0.6458
  204MOL0     H26891   0.411   2.620   4.626 -0.9023  0.5502 -2.4636
  204MOL0     H26892   0.021   2.660   4.329  2.7622  2.3805  1.5108
  204MOL0     H26893  -0.164   2.837   4.308 -0.3393 -0.8819 -1.2472
  204MOL0     H26894  -0.412   2.864   4.300  2.7490 -0.3856 -1.6202
  204MOL0     H26895  -0.315   3.007   4.341 -1.0709 -0.1516 -0.4005
  204MOL0     H26896  -0.537   3.095   4.336 -1.9610 -0.0129 -0.9125
  204MOL0     H26897  -0.502   3.065   4.511  1.6031 -2.0103  0.9757
  204MOL0     H26898  -0.599   2.853   4.492  2.4157  1.8425 -0.7258
  204MOL0     H26899  -0.683   2.889   4.339  0.4991 -1.5863  0.4578
  204MOL0     H26900  -0.715   3.007   4.615  0.5307  0.9160 -1.0298
  204MOL0     H26901  -0.771   3.091   4.482 -0.4149  1.3601  2.3256
  204MOL0     H26902  -0.915   2.908   4.409  2.5776 -1.0781 -0.8499
  204MOL0     H26903  -0.964   2.969   4.570  1.0625  1.4156  0.3310
  204MOL0     H26904  -0.853   2.772   4.678  1.3177 -2.0212 -0.9900
  204MOL0     H26905  -0.797   2.713   4.528  1.3508 -2.9158  3.9715
  204MOL0     H26906  -1.047   2.695   4.439  0.8381 -0.6979 -0.0798
  204MOL0     H26907  -0.969   2.588   4.553  1.4831 -0.0096 -2.1418
  204MOL0     H26908  -1.173   2.809   4.639 -0.3194  1.3224 -0.1713
  204MOL0     H26909  -1.076   2.698   4.743 -0.1924 -0.2235 -0.7444
  204MOL0     H26910  -0.323   2.706   4.685 -0.0185  1.5293 -0.2200
  204MOL0     H26911  -0.134   2.537   4.698  2.5517 -1.0566 -1.2855
  204MOL0     H26912   0.145   2.286   4.612 -0.3251  0.1765  0.8889
  204MOL0     H26913   0.327   2.131   4.621  2.5198 -0.6984 -0.0458
  204MOL0     H26914   1.777   1.867   5.538  0.3296 -0.6499  0.3347
  204MOL0     H26915   2.013   1.830   5.484 -3.6545  0.5953 -0.5035
  204MOL0     H26916   2.539   1.591   5.811 -0.9305 -0.1017  0.9872
  204MOL0     H26917   2.755   1.579   5.706  1.6626  1.2160 -2.4116
  204MOL0     H26918   2.930   1.762   5.554 -0.2540  3.5240 -1.4896
  204MOL0     H26919   2.811   1.810   5.428  0.0239 -0.4336 -1.3586
  204MOL0     H26920   3.081   1.659   5.392  2.3252  2.3987 -0.4601
  204MOL0     H26921   2.959   1.688   5.264 -0.2425 -1.1642 -0.0987
  204MOL0     H26922   3.085   1.911   5.430 -2.9649 -0.2262  1.1798
  204MOL0     H26923   2.991   1.928   5.279  0.3357  0.0203 -0.2522
  204MOL0     H26924   3.255   1.810   5.309  0.8537 -0.2326 -1.8264
  204MOL0     H26925   3.161   1.791   5.163 -0.1037 -0.3760  0.2462
  204MOL0     H26926   3.299   2.208   5.196 -2.5909  0.5134  0.0470
  204MOL0     H26927   2.587   1.653   5.322  0.8601 -0.5485  0.9581
  204MOL0     H26928   2.369   1.693   5.410  0.9250 -0.7764 -2.8777
  205MOL0     O26929  10.231   3.141   7.043  0.8955 -0.1950  0.5277
  205MOL0     C26930  10.313   3.122   6.951  0.1122 -0.2414 -0.1550
  205MOL0     O26931  10.370   3.002   6.925  0.5767 -0.4863 -0.6071
  205MOL0     C26932  10.320   2.883   6.970 -0.2446 -0.1903 -0.6650
  205MOL0     C26933  10.417   2.804   7.017 -0.1434  0.4190  0.1347
  205MOL0     C26934  10.399   2.676   7.066  0.7050  0.7254  0.0703
  205MOL0     C26935  10.270   2.620   7.046 -0.1245  0.8608 -0.0320
  205MOL0     O26936  10.235   2.502   7.093  0.1356 -0.2933 -0.2700
  205MOL0     C26937  10.328   2.410   7.166  0.3378  0.1665 -0.3561
  205MOL0     C26938  10.266   2.274   7.177 -0.7893  0.0781  1.3601
  205MOL0     C26939  10.137   2.272   7.266 -0.6367  0.1057 -0.3089
  205MOL0     C26940  10.165   2.283   7.419 -0.2021  0.2663  1.2423
  205MOL0     C26941  10.062   2.222   7.511  0.6949  0.1342  0.7132
  205MOL0     C26942   9.922   2.273   7.506  0.2366 -0.7016  0.0333
  205MOL0     C26943   9.898   2.419   7.519  0.3899 -0.0460  0.5468
  205MOL0     C26944   9.953   2.483   7.652  0.2743 -0.1205 -0.2136
  205MOL0     N26945   9.874   2.460   7.771  0.1682  0.1524 -0.2110
  205MOL0     C26946   9.888   2.343   7.849 -0.5453 -0.0497  0.6760
  205MOL0     C26947   9.781   2.346   7.930 -0.0850  0.3467 -0.1646
  205MOL0     C26948   9.758   2.239   8.046 -0.4437 -0.2239 -0.3121
  205MOL0     C26949   9.607   2.223   8.069  0.0788  0.7695  1.2217
  205MOL0     C26950   9.542   2.154   7.952 -0.0189 -0.0282  0.8106
  205MOL0     C26951   9.389   2.107   7.982  0.8232 -0.0686  0.1711
  205MOL0     O26952   9.291   2.216   7.979 -0.2309  0.0674 -0.3723
  205MOL0     C26953   9.166   2.168   8.011 -0.1942 -0.5189  0.5243
  205MOL0     C26954   9.121   2.036   8.039 -0.3061  0.1546  0.0544
  205MOL0     C26955   8.981   2.010   8.047 -1.1590  0.6082 -0.3940
  205MOL0     C26956   8.889   2.121   8.038 -0.4151 -0.7348 -0.8156
  205MOL0     C26957   8.746   2.108   8.031  0.0627  0.5354 -0.2965
  205MOL0     O26958   8.664   2.220   8.002  0.0951 -0.3056 -0.9174
  205MOL0     C26959   8.527   2.195   8.020  0.2755  0.3013  0.2623
  205MOL0     C26960   8.450   2.097   7.960 -0.0148 -0.0959 -0.5903
  205MOL0     C26961   8.316   2.081   7.999  1.0298  0.1417 -0.0666
  205MOL0     C26962   8.254   2.163   8.099 -1.2347 -0.4405 -0.3134
  205MOL0     O26963   8.130   2.129   8.144 -0.3033  0.6629  0.2199
  205MOL0     C26964   8.070   2.216   8.250 -0.2828  0.0394  0.8613
  205MOL0     C26965   7.922   2.199   8.234  0.3801 -0.3997 -0.5235
  205MOL0     C26966   7.862   2.255   8.107 -0.3262  0.1396 -0.1444
  205MOL0     C26967   7.711   2.251   8.106 -0.6505  0.1592  0.2267
  205MOL0     C26968   7.642   2.107   8.099  0.4447  0.2282 -0.5112
  205MOL0     C26969   7.489   2.112   8.079 -0.4831  0.2120 -0.2383
  205MOL0     C26970   7.424   1.967   8.069  0.1274 -0.2837 -0.1936
  205MOL0     C26971   7.268   1.972   8.072 -1.1497  0.4612 -0.0939
  205MOL0    Cl26972   7.214   2.052   7.928  0.3210  0.5156 -0.2243
  205MOL0     C26973   8.335   2.264   8.155 -0.3675  0.1316  0.1359
  205MOL0     C26974   8.470   2.282   8.118  0.3540 -1.1166  0.7266
  205MOL0     O26975   8.712   1.995   8.071 -0.3674  0.4854 -0.7259
  205MOL0     C26976   8.943   2.252   8.019  0.0706 -0.2085 -0.2550
  205MOL0     C26977   9.074   2.270   7.997 -1.2066  0.0873  0.4418
  205MOL0     N26978   9.695   2.449   7.906 -0.7572 -0.2496  0.3554
  205MOL0     N26979   9.750   2.509   7.803  0.7413  0.2367 -0.5652
  205MOL0     C26980  10.167   2.701   6.992  0.5875 -0.6554 -0.7653
  205MOL0     C26981  10.185   2.838   6.951  0.1898  0.3055 -0.4927
  205MOL0     C26982  10.349   3.235   6.863  0.1004 -0.8864  0.1124
  205MOL0     C26983  10.474   3.251   6.789  0.7457  0.2372  0.6344
  205MOL0     C26984  10.487   3.362   6.711  0.0440  1.0297  0.2027
  205MOL0     C26985  10.389   3.473   6.701 -0.3419  0.3201 -0.0597
  205MOL0     O26986  10.411   3.603   6.646  0.5040 -0.0315 -0.1283
  205MOL0     C26987  10.544   3.631   6.613  0.2004 -0.3404 -0.0960
  205MOL0     C26988  10.572   3.604   6.470 -0.4347  0.3602  0.4262
  205MOL0     C26989  10.723   3.558   6.450 -0.3973 -0.0165  0.0548
  205MOL0     C26990  10.746   3.535   6.306  0.1014  0.7539  0.2650
  205MOL0     C26991  10.889   3.508   6.263  0.4518  0.3313 -0.0170
  205MOL0     C26992  10.996   3.470   6.226  0.2221 -0.4248 -0.0951
  205MOL0     C26993  10.263   3.453   6.765 -0.2170 -1.3366 -0.2369
  205MOL0     C26994  10.240   3.334   6.837  0.6853 -0.5334 -0.3927
  205MOL0     H26995  10.517   2.839   7.038 -0.0890  0.0035  0.5695
  205MOL0     H26996  10.484   2.626   7.113 -1.1031 -2.0301  0.6359
  205MOL0     H26997  10.360   2.430   7.269 -0.5738  1.8444 -0.3697
  205MOL0     H26998  10.414   2.400   7.100 -0.6641  2.9328 -2.2723
  205MOL0     H26999  10.342   2.206   7.216  1.3612  1.0614 -0.9021
  205MOL0     H27000  10.243   2.230   7.079  2.6791  1.6958 -0.3432
  205MOL0     H27001  10.094   2.173   7.247  3.0011 -1.3513 -1.7017
  205MOL0     H27002  10.062   2.344   7.230 -2.2637 -1.7020 -0.7488
  205MOL0     H27003  10.255   2.224   7.438  1.2711  2.1233  0.4631
  205MOL0     H27004  10.185   2.389   7.442  0.5208  0.6489 -0.9561
  205MOL0     H27005  10.096   2.226   7.615 -1.5045 -0.6270  1.5064
  205MOL0     H27006  10.066   2.114   7.495 -0.6667  0.0386  0.9402
  205MOL0     H27007   9.872   2.227   7.592 -0.8182 -1.1529 -0.7950
  205MOL0     H27008   9.876   2.240   7.412  1.7264 -1.2093 -0.5417
  205MOL0     H27009   9.947   2.474   7.438 -2.4585  1.4495 -0.2804
  205MOL0     H27010   9.791   2.439   7.511  0.1949 -1.0302  0.4514
  205MOL0     H27011   9.955   2.590   7.629  0.7962  0.3604  1.8468
  205MOL0     H27012  10.058   2.459   7.674 -0.3447 -0.2061  3.0735
  205MOL0     H27013   9.965   2.267   7.842 -1.2623 -0.7557 -5.2704
  205MOL0     H27014   9.787   2.289   8.139  0.5791 -2.7486  0.7958
  205MOL0     H27015   9.808   2.144   8.026  0.5892  0.4662 -1.0998
  205MOL0     H27016   9.562   2.321   8.085 -3.6744 -0.8198  1.5021
  205MOL0     H27017   9.594   2.156   8.155 -0.0172 -0.6437  0.1543
  205MOL0     H27018   9.524   2.226   7.871 -0.8995 -2.3763 -1.1947
  205MOL0     H27019   9.609   2.071   7.930  1.3903  1.4981 -1.1168
  205MOL0     H27020   9.386   2.060   8.081 -0.5317  1.4328  0.9077
  205MOL0     H27021   9.367   2.030   7.909  0.6324  0.3306 -0.1963
  205MOL0     H27022   9.193   1.961   8.068  0.5826  1.3262  0.9485
  205MOL0     H27023   8.939   1.910   8.058  0.4821 -0.0353  0.3772
  205MOL0     H27024   8.477   2.031   7.878 -3.1797 -1.2016 -0.8945
  205MOL0     H27025   8.257   2.001   7.956 -0.7606  1.0936  0.4765
  205MOL0     H27026   8.091   2.321   8.230 -0.3582  0.7300  3.9845
  205MOL0     H27027   8.100   2.185   8.350 -0.9029 -2.8180  0.2482
  205MOL0     H27028   7.877   2.274   8.300 -1.8710  0.2959 -2.7109
  205MOL0     H27029   7.887   2.098   8.255 -3.8733  1.1580  0.9230
  205MOL0     H27030   7.891   2.186   8.027 -0.5420 -0.8666  0.6290
  205MOL0     H27031   7.903   2.355   8.087  1.1140 -0.3763  0.1264
  205MOL0     H27032   7.677   2.307   8.194  0.5513  1.4582 -0.0988
  205MOL0     H27033   7.671   2.297   8.015 -1.9305  2.4781  1.8511
  205MOL0     H27034   7.680   2.044   8.180 -1.8445 -1.5900 -0.7325
  205MOL0     H27035   7.676   2.049   8.013  3.2051 -0.2136  0.7809
  205MOL0     H27036   7.457   2.177   7.997  0.4305 -1.2576 -1.8306
  205MOL0     H27037   7.442   2.150   8.171 -0.1195  0.6893 -0.2491
  205MOL0     H27038   7.455   1.915   7.978  1.2147 -1.3315  0.7474
  205MOL0     H27039   7.461   1.909   8.154 -2.4491 -1.0643  0.4885
  205MOL0     H27040   7.244   2.029   8.162  0.8861  1.0106  0.1415
  205MOL0     H27041   7.226   1.872   8.089  1.1914 -0.1674  2.6531
  205MOL0     H27042   8.306   2.322   8.242  1.2363 -1.5962  1.9129
  205MOL0     H27043   8.528   2.347   8.182 -1.7231 -0.0970  1.6294
  205MOL0     H27044   8.883   2.342   8.014  0.1858 -0.1790 -1.3298
  205MOL0     H27045   9.109   2.373   7.988  0.6598 -0.5226  0.2654
  205MOL0     H27046  10.068   2.656   6.983 -0.6538  1.8990 -0.8585
  205MOL0     H27047  10.112   2.909   6.914  1.3767  1.7498 -0.1941
  205MOL0     H27048  10.560   3.186   6.789 -0.6116 -1.7553 -1.7410
  205MOL0     H27049  10.579   3.357   6.654 -0.6033 -3.7960 -0.8440
  205MOL0     H27050  10.609   3.585   6.688  1.3724  0.1465 -0.7848
  205MOL0     H27051  10.563   3.738   6.630  2.2513 -1.2672  5.5668
  205MOL0     H27052  10.501   3.537   6.422 -1.8683  1.6567  0.6478
  205MOL0     H27053  10.553   3.691   6.407  0.5042 -1.0278 -1.9065
  205MOL0     H27054  10.755   3.468   6.504  1.9625  0.4427 -0.4732
  205MOL0     H27055  10.781   3.644   6.487 -1.6439  0.6289  0.5732
  205MOL0     H27056  10.699   3.440   6.278 -0.5221  1.3888 -0.8973
  205MOL0     H27057  10.701   3.623   6.259 -2.9106 -1.1398 -0.7324
  205MOL0     H27058  11.092   3.434   6.195  0.8993  0.0542  1.3979
  205MOL0     H27059  10.185   3.527   6.751 -0.9293 -2.1017 -0.4235
  205MOL0     H27060  10.142   3.325   6.883  0.0678  3.8279 -0.4126
  206MOL0     O27061   4.812  11.143   2.480  0.2207 -0.0408  0.0619
  206MOL0     C27062   4.839  11.258   2.460  0.3606 -0.0599  1.1046
  206MOL0     O27063   4.760  11.330   2.379 -0.3481 -0.5056  0.8314
  206MOL0     C27064   4.654  11.280   2.303  0.6544 -0.5180 -0.8696
  206MOL0     C27065   4.524  11.317   2.338 -0.5821 -0.3129 -0.3505
  206MOL0     C27066   4.411  11.286   2.250  0.3365 -0.4957  0.5696
  206MOL0     C27067   4.431  11.195   2.142  0.5320  0.5412 -0.7336
  206MOL0     O27068   4.338  11.146   2.053 -0.0666 -0.8783 -0.5184
  206MOL0     C27069   4.210  11.207   2.065 -0.5282 -0.1931 -0.3370
  206MOL0     C27070   4.109  11.139   1.971 -0.2016 -0.4468 -0.1482
  206MOL0     C27071   3.965  11.186   1.982  0.7433 -0.7918 -0.4750
  206MOL0     C27072   3.865  11.136   1.879 -0.2000 -0.1060 -0.3305
  206MOL0     C27073   3.719  11.143   1.914 -0.6395  0.4906 -0.1433
  206MOL0     C27074   3.641  11.073   1.806 -0.1321 -0.2042 -0.1659
  206MOL0     C27075   3.496  11.104   1.820  0.0886  0.4701 -0.7054
  206MOL0     C27076   3.456  11.240   1.774  0.3851  0.3133  0.2948
  206MOL0     N27077   3.314  11.246   1.763  0.4033  0.5216 -0.2760
  206MOL0     C27078   3.234  11.166   1.685  0.5422 -0.3544  0.2827
  206MOL0     C27079   3.108  11.218   1.701  0.1472 -0.8782 -0.1184
  206MOL0     C27080   2.985  11.166   1.624  0.4559  0.4838 -0.2824
  206MOL0     C27081   2.895  11.280   1.574  0.2119 -0.4483 -0.4828
  206MOL0     C27082   2.765  11.234   1.501  0.5334 -0.2670  0.4742
  206MOL0     C27083   2.664  11.353   1.476 -1.3967 -0.1536  0.5174
  206MOL0     O27084   2.558  11.321   1.389  0.9183 -0.0723 -0.8749
  206MOL0     C27085   2.439  11.290   1.452 -0.4480  0.0625 -0.4364
  206MOL0     C27086   2.348  11.388   1.473 -0.1194  0.2311 -0.4511
  206MOL0     C27087   2.230  11.366   1.537 -0.8643  0.2320 -0.0892
  206MOL0     C27088   2.190  11.238   1.578 -0.1021 -0.6224 -0.5515
  206MOL0     C27089   2.052  11.223   1.634  0.0987  0.4248 -0.7839
  206MOL0     O27090   1.961  11.322   1.594  0.3852  0.1112  0.6447
  206MOL0     C27091   1.833  11.324   1.632  0.2889  0.7220 -0.1770
  206MOL0     C27092   1.766  11.436   1.592 -1.3016  0.6462  1.0203
  206MOL0     C27093   1.634  11.467   1.625 -0.1791  1.5589  0.8149
  206MOL0     C27094   1.563  11.381   1.707  0.4826 -0.3974  0.7935
  206MOL0     O27095   1.425  11.399   1.736 -0.1978 -0.4048 -0.3252
  206MOL0     C27096   1.357  11.523   1.710 -0.5858  0.1384 -0.4854
  206MOL0     C27097   1.205  11.490   1.741 -0.3546  0.0325  0.4124
  206MOL0     C27098   1.119  11.614   1.715  0.5623  0.6505  0.3846
  206MOL0     C27099   0.977  11.583   1.751  0.4135  0.3676  0.1595
  206MOL0     C27100   0.883  11.686   1.678 -0.0138 -0.5413 -0.1276
  206MOL0     C27101   0.728  11.663   1.686 -0.0979  0.1930 -0.3166
  206MOL0     C27102   0.626  11.756   1.631  0.4098  0.0885  0.3584
  206MOL0     C27103   0.628  11.775   1.476 -0.6440  0.2088  0.0975
  206MOL0    Cl27104   0.498  11.885   1.412 -0.1776  0.4601  0.2573
  206MOL0     C27105   1.632  11.268   1.759 -0.0375 -0.0312  0.5762
  206MOL0     C27106   1.767  11.239   1.721 -0.6071  0.2994  0.1004
  206MOL0     O27107   2.021  11.117   1.694  0.9800 -0.0211 -0.3065
  206MOL0     C27108   2.288  11.145   1.576 -0.1292 -0.1360  0.2154
  206MOL0     C27109   2.411  11.165   1.501 -0.3663  0.8783 -0.3840
  206MOL0     N27110   3.117  11.322   1.794 -0.5628 -0.6592 -0.0951
  206MOL0     N27111   3.238  11.337   1.830 -0.1720 -0.0619 -1.6456
  206MOL0     C27112   4.555  11.151   2.111 -0.5365 -0.3985 -0.1253
  206MOL0     C27113   4.668  11.205   2.185 -0.2227  0.1695 -0.0969
  206MOL0     C27114   4.962  11.309   2.528 -0.1442 -0.8487  0.4927
  206MOL0     C27115   5.036  11.237   2.617 -0.3645  0.4531 -0.5422
  206MOL0     C27116   5.145  11.302   2.683 -0.5298  0.2189 -0.7119
  206MOL0     C27117   5.177  11.434   2.662  0.5498  0.6822  0.4832
  206MOL0     O27118   5.269  11.491   2.748  0.1343  0.2943 -0.2223
  206MOL0     C27119   5.210  11.571   2.851 -0.3371 -0.9393 -0.0619
  206MOL0     C27120   5.321  11.640   2.937  0.1516 -0.3799 -0.1549
  206MOL0     C27121   5.388  11.742   2.846  0.1501  0.0934  0.0016
  206MOL0     C27122   5.479  11.833   2.936 -0.6739  0.4803  0.5298
  206MOL0     C27123   5.552  11.926   2.860 -0.1379 -0.0295  0.0407
  206MOL0     C27124   5.626  12.012   2.813  0.0388 -0.4374  0.6387
  206MOL0     C27125   5.108  11.506   2.569  0.3394 -0.2040 -0.5908
  206MOL0     C27126   5.000  11.445   2.497  0.2633 -0.1815 -0.4336
  206MOL0     H27127   4.514  11.384   2.423  0.6318  1.7432 -1.7417
  206MOL0     H27128   4.310  11.319   2.272  0.1114 -1.0459  0.3936
  206MOL0     H27129   4.220  11.314   2.048  0.3923 -0.1478  0.4179
  206MOL0     H27130   4.166  11.184   2.162  0.4675  1.2607  0.4897
  206MOL0     H27131   4.108  11.031   1.989 -1.0913 -0.1730  1.7045
  206MOL0     H27132   4.145  11.163   1.871 -2.0147 -1.7141 -1.1759
  206MOL0     H27133   3.956  11.295   1.978 -1.0097 -0.6174  3.2583
  206MOL0     H27134   3.934  11.149   2.081 -2.2867 -1.2275 -1.4899
  206MOL0     H27135   3.878  11.191   1.785 -3.1172 -1.9260 -1.9676
  206MOL0     H27136   3.873  11.028   1.860 -0.5757 -0.9973  3.6494
  206MOL0     H27137   3.683  11.247   1.918 -0.1716  0.6780 -0.5861
  206MOL0     H27138   3.698  11.102   2.013 -1.3295  1.6107  0.1971
  206MOL0     H27139   3.653  10.967   1.832  1.4401  0.5495  2.6831
  206MOL0     H27140   3.690  11.091   1.710  2.2510  1.8103  1.3233
  206MOL0     H27141   3.451  11.028   1.755  0.7642  1.2866 -2.1439
  206MOL0     H27142   3.462  11.084   1.922  1.0092 -0.3423 -0.5376
  206MOL0     H27143   3.498  11.269   1.678  2.8048  1.5153  1.6170
  206MOL0     H27144   3.496  11.310   1.849 -1.9076  0.3456  1.5731
  206MOL0     H27145   3.264  11.087   1.617  1.3893 -0.3674  0.6697
  206MOL0     H27146   2.926  11.120   1.704  3.7427 -0.5401  1.7571
  206MOL0     H27147   3.003  11.090   1.547 -0.4352  0.7247 -0.7468
  206MOL0     H27148   2.948  11.349   1.507 -1.4241  1.1742 -0.1873
  206MOL0     H27149   2.867  11.338   1.662  1.4354  1.8405 -1.4977
  206MOL0     H27150   2.807  11.202   1.406 -2.3277  0.6260 -1.2049
  206MOL0     H27151   2.719  11.155   1.562 -0.1203 -0.5633 -0.3898
  206MOL0     H27152   2.712  11.438   1.427 -3.7818  1.5114  0.9059
  206MOL0     H27153   2.624  11.387   1.572 -2.0413 -0.4266  0.3470
  206MOL0     H27154   2.376  11.482   1.426  1.1089  1.6070  2.7195
  206MOL0     H27155   2.145  11.433   1.541 -2.6169 -1.9174  2.7315
  206MOL0     H27156   1.813  11.510   1.528  0.7918 -1.4119  0.0392
  206MOL0     H27157   1.594  11.559   1.583 -2.5267  0.6968  0.9719
  206MOL0     H27158   1.370  11.545   1.604 -0.6754 -0.5904 -0.6560
  206MOL0     H27159   1.397  11.608   1.766 -0.1711  0.1468 -0.7863
  206MOL0     H27160   1.198  11.461   1.846 -0.0441  1.9760  0.9955
  206MOL0     H27161   1.180  11.403   1.679  3.9082  0.6009 -2.5461
  206MOL0     H27162   1.124  11.620   1.606 -0.2205 -2.1107  0.1262
  206MOL0     H27163   1.156  11.696   1.777  1.1258  0.1961  0.6559
  206MOL0     H27164   0.960  11.483   1.710 -1.5087  0.9275 -0.5057
  206MOL0     H27165   0.969  11.586   1.860  1.5921 -1.7645  0.3653
  206MOL0     H27166   0.899  11.676   1.570  0.1208 -3.2341  0.0733
  206MOL0     H27167   0.910  11.788   1.707 -0.3957 -0.5679  0.3357
  206MOL0     H27168   0.702  11.649   1.791  3.1206 -0.1508  0.5575
  206MOL0     H27169   0.700  11.565   1.648 -0.3096  0.1720 -0.1017
  206MOL0     H27170   0.528  11.723   1.667 -0.3105  2.5485  0.8360
  206MOL0     H27171   0.650  11.850   1.683  2.5589 -0.0892 -0.1953
  206MOL0     H27172   0.610  11.676   1.435 -2.9743 -0.4211  2.3936
  206MOL0     H27173   0.728  11.807   1.443 -0.1252 -0.9613  0.4911
  206MOL0     H27174   1.570  11.201   1.817 -0.1702 -0.2915  0.1382
  206MOL0     H27175   1.796  11.139   1.749 -1.2914 -0.0554 -0.4252
  206MOL0     H27176   2.263  11.051   1.625  0.8762 -1.1854 -1.2117
  206MOL0     H27177   2.486  11.086   1.502  0.0888  1.2862  1.4484
  206MOL0     H27178   4.555  11.086   2.024 -0.5167  0.6938 -0.9643
  206MOL0     H27179   4.769  11.179   2.155 -1.1513 -2.5971 -1.0998
  206MOL0     H27180   5.006  11.134   2.634  1.8364 -0.0242  0.7319
  206MOL0     H27181   5.213  11.247   2.748  2.0597  2.1350 -1.5907
  206MOL0     H27182   5.148  11.511   2.919  1.4182 -0.6245  1.9379
  206MOL0     H27183   5.159  11.648   2.792  0.0100 -0.0722  0.7458
  206MOL0     H27184   5.282  11.686   3.028 -1.2805 -1.0117 -0.4146
  206MOL0     H27185   5.395  11.566   2.970  0.5333 -0.6503 -1.5413
  206MOL0     H27186   5.314  11.804   2.795  1.6321 -0.9884 -3.7392
  206MOL0     H27187   5.436  11.685   2.767 -1.2105 -1.8411  0.4851
  206MOL0     H27188   5.422  11.869   3.022 -1.3387 -0.4623  0.4931
  206MOL0     H27189   5.560  11.767   2.970  0.1348  1.1727 -0.0068
  206MOL0     H27190   5.689  12.089   2.774  1.1588 -0.9404  1.3863
  206MOL0     H27191   5.132  11.608   2.542 -1.0500  0.3288  0.0893
  206MOL0     H27192   4.942  11.511   2.434  0.9942  2.1544  1.2009
  207MOL0     O27193   0.380   9.712   1.721  0.2385 -0.5053 -0.0654
  207MOL0     C27194   0.428   9.757   1.828 -0.4217  0.1145  0.8406
  207MOL0     O27195   0.358   9.788   1.939  0.3703  0.1881  0.0341
  207MOL0     C27196   0.224   9.765   1.952  0.6160  0.8131 -0.3875
  207MOL0     C27197   0.149   9.660   1.904 -1.6244 -1.6420  1.3614
  207MOL0     C27198   0.012   9.653   1.912  0.1165 -0.8809 -0.4902
  207MOL0     C27199  -0.061   9.752   1.981 -0.0638  0.6122  0.5165
  207MOL0     O27200  -0.193   9.748   2.007 -0.1596  0.1256 -0.1535
  207MOL0     C27201  -0.279   9.718   1.898  0.0688  0.0028 -0.6593
  207MOL0     C27202  -0.422   9.756   1.937  0.3318 -0.4768 -0.3881
  207MOL0     C27203  -0.456   9.696   2.072  0.5642 -0.1166 -0.2572
  207MOL0     C27204  -0.589   9.765   2.119  0.4661  0.8316 -0.4817
  207MOL0     C27205  -0.620   9.718   2.256  0.3829 -0.0171 -0.2391
  207MOL0     C27206  -0.755   9.760   2.314 -0.2796  0.0559 -0.3130
  207MOL0     C27207  -0.871   9.667   2.277 -0.4210  0.0375 -0.1710
  207MOL0     C27208  -0.997   9.699   2.351  1.1924 -0.6244 -1.2179
  207MOL0     N27209  -1.029   9.606   2.455 -0.7108 -0.0415 -0.8236
  207MOL0     C27210  -1.089   9.485   2.429 -0.4078  0.2372 -0.1591
  207MOL0     C27211  -1.101   9.434   2.551 -0.2820 -0.2446 -0.2696
  207MOL0     C27212  -1.182   9.315   2.597 -0.1258 -0.3677 -0.3491
  207MOL0     C27213  -1.107   9.189   2.576 -0.0618  0.5327 -0.8415
  207MOL0     C27214  -1.188   9.073   2.630  0.6241  0.9567  0.0658
  207MOL0     C27215  -1.130   8.933   2.600  1.0628  0.3274 -0.0303
  207MOL0     O27216  -1.230   8.835   2.608 -0.4352  0.8498 -0.2045
  207MOL0     C27217  -1.296   8.806   2.718  0.5196 -0.0711  0.0417
  207MOL0     C27218  -1.259   8.840   2.852  0.6416 -0.3810 -0.0975
  207MOL0     C27219  -1.329   8.793   2.962 -0.2731 -0.2304 -0.0909
  207MOL0     C27220  -1.435   8.707   2.939 -0.6502 -0.1527 -0.2331
  207MOL0     C27221  -1.505   8.646   3.048  0.3168  0.1525  0.5656
  207MOL0     O27222  -1.636   8.588   3.024  0.4170 -0.4936  0.0970
  207MOL0     C27223  -1.722   8.557   3.127 -0.7874 -0.1049 -0.6789
  207MOL0     C27224  -1.849   8.622   3.133 -0.4456  0.6400  0.4917
  207MOL0     C27225  -1.943   8.584   3.237 -0.1059 -0.0165  0.0590
  207MOL0     C27226  -1.902   8.487   3.328 -0.2223 -0.1119  0.2315
  207MOL0     O27227  -1.990   8.449   3.426  0.5067  0.3864 -0.1849
  207MOL0     C27228  -2.032   8.546   3.522  0.2773 -0.3684 -0.6687
  207MOL0     C27229  -2.175   8.551   3.549  0.1343  0.7120 -0.3960
  207MOL0     C27230  -2.246   8.580   3.415  0.0744 -0.2274 -0.1468
  207MOL0     C27231  -2.395   8.591   3.441 -0.1125  0.8800  0.0240
  207MOL0     C27232  -2.494   8.629   3.322 -0.3618 -0.5339  0.5986
  207MOL0     C27233  -2.425   8.732   3.232  0.2049  0.3171  0.4152
  207MOL0     C27234  -2.521   8.782   3.122 -0.4009 -0.0181  0.2729
  207MOL0     C27235  -2.547   8.665   3.025 -1.1281  0.4344 -0.5864
  207MOL0    Cl27236  -2.661   8.707   2.898  0.4069  0.2104 -0.2347
  207MOL0     C27237  -1.771   8.427   3.324  0.2667 -0.2561 -0.9082
  207MOL0     C27238  -1.690   8.458   3.221 -0.1230 -0.5980 -0.3572
  207MOL0     O27239  -1.444   8.629   3.152  0.3481  0.3823 -0.7201
  207MOL0     C27240  -1.479   8.678   2.808 -0.0665  0.4187  0.0961
  207MOL0     C27241  -1.401   8.720   2.701  0.3847 -0.0614  0.4498
  207MOL0     N27242  -1.039   9.523   2.642 -0.0176  0.8448 -0.1132
  207MOL0     N27243  -0.988   9.622   2.587  0.5257  0.3564 -0.1770
  207MOL0     C27244   0.012   9.856   2.039 -0.9616 -0.3596  0.3705
  207MOL0     C27245   0.155   9.857   2.032  0.0940 -0.4739  0.8776
  207MOL0     C27246   0.569   9.797   1.824  0.6662 -0.4922 -0.1527
  207MOL0     C27247   0.617   9.895   1.914  0.3737  0.7179  0.1276
  207MOL0     C27248   0.757   9.929   1.915 -0.1673  1.4377 -0.3719
  207MOL0     C27249   0.846   9.864   1.823 -0.3520  0.8875 -0.2585
  207MOL0     O27250   0.979   9.881   1.827 -0.7226 -0.0099 -0.1722
  207MOL0     C27251   1.054   9.952   1.925  1.2551 -1.1490  0.0575
  207MOL0     C27252   1.035  10.109   1.925  0.5626  0.7931 -0.6236
  207MOL0     C27253   1.028  10.151   1.784 -0.1563  0.5748 -0.0120
  207MOL0     C27254   1.159  10.139   1.703 -0.1252 -0.0937 -0.2207
  207MOL0     C27255   1.157  10.186   1.571  0.1182  0.0329  0.4187
  207MOL0     C27256   1.156  10.234   1.461 -0.0072  1.6617  0.0337
  207MOL0     C27257   0.795   9.776   1.728  0.6908 -0.4537  0.0554
  207MOL0     C27258   0.657   9.734   1.737  0.2176 -0.2037 -0.3721
  207MOL0     H27259   0.208   9.587   1.850  0.5867 -0.3046  1.8502
  207MOL0     H27260  -0.047   9.568   1.879 -0.1018 -0.7114 -0.5339
  207MOL0     H27261  -0.264   9.611   1.875  1.2713  0.2605 -1.1982
  207MOL0     H27262  -0.241   9.766   1.808  1.4353 -3.0483 -1.8750
  207MOL0     H27263  -0.494   9.724   1.860  1.7578 -1.1382 -1.5028
  207MOL0     H27264  -0.410   9.865   1.943  0.8660 -0.6184  1.5128
  207MOL0     H27265  -0.375   9.714   2.144  1.4435 -0.9804 -0.9929
  207MOL0     H27266  -0.463   9.587   2.064 -0.1527  0.0349 -2.2754
  207MOL0     H27267  -0.572   9.873   2.118 -3.3180  1.5673  0.2640
  207MOL0     H27268  -0.669   9.736   2.051 -0.0563 -2.6010  1.3410
  207MOL0     H27269  -0.544   9.758   2.324 -0.5637 -1.2113  1.6132
  207MOL0     H27270  -0.605   9.610   2.266 -0.9086 -0.2571 -0.7251
  207MOL0     H27271  -0.771   9.866   2.293  0.8085  0.6797  1.6789
  207MOL0     H27272  -0.748   9.762   2.423  0.1916 -0.0274 -0.3377
  207MOL0     H27273  -0.877   9.682   2.169  3.1463 -0.1803 -0.5436
  207MOL0     H27274  -0.837   9.563   2.283 -1.2155 -0.1735  0.9350
  207MOL0     H27275  -1.076   9.700   2.275  1.9534 -2.2385 -2.0672
  207MOL0     H27276  -0.996   9.800   2.394 -0.7404 -0.4867 -1.3918
  207MOL0     H27277  -1.125   9.445   2.335  2.0818  1.3093 -1.6860
  207MOL0     H27278  -1.270   9.301   2.533 -0.3117  1.5617 -0.5544
  207MOL0     H27279  -1.209   9.312   2.703  2.9932 -4.4330  0.5737
  207MOL0     H27280  -1.010   9.187   2.625 -0.2855 -0.6505 -0.4146
  207MOL0     H27281  -1.091   9.181   2.468  5.6800 -0.0012 -0.2710
  207MOL0     H27282  -1.195   9.083   2.739  1.6344 -0.0795  0.2477
  207MOL0     H27283  -1.279   9.069   2.569  2.2492 -2.2679 -2.4868
  207MOL0     H27284  -1.053   8.908   2.674  0.0265  1.5526  1.5383
  207MOL0     H27285  -1.082   8.936   2.502 -0.6074  1.0926 -0.8570
  207MOL0     H27286  -1.165   8.889   2.872  0.5351  0.4155 -1.4190
  207MOL0     H27287  -1.296   8.810   3.064 -2.1019 -0.5881  0.5864
  207MOL0     H27288  -1.867   8.685   3.047  1.6650 -1.5168 -1.6591
  207MOL0     H27289  -2.041   8.629   3.247 -0.8423 -1.3682 -0.7905
  207MOL0     H27290  -2.005   8.648   3.492  0.9965 -0.2813  0.2341
  207MOL0     H27291  -1.989   8.529   3.621 -0.6909 -0.8951 -0.3202
  207MOL0     H27292  -2.203   8.619   3.630  1.7093 -0.8758  1.6151
  207MOL0     H27293  -2.201   8.448   3.578  1.6887  0.1403 -0.9126
  207MOL0     H27294  -2.224   8.496   3.348  2.4569 -0.5447  0.9348
  207MOL0     H27295  -2.203   8.673   3.376  3.3146 -0.2258  2.8679
  207MOL0     H27296  -2.419   8.494   3.486 -1.3106  1.2245  0.1575
  207MOL0     H27297  -2.408   8.673   3.511  3.3044  2.2818 -0.7909
  207MOL0     H27298  -2.584   8.670   3.369 -0.9437  0.3099 -1.1825
  207MOL0     H27299  -2.530   8.545   3.262 -0.7326 -0.3514  0.5614
  207MOL0     H27300  -2.335   8.687   3.190  0.5818  2.1929 -0.9147
  207MOL0     H27301  -2.387   8.817   3.290  0.3335  0.4609  0.1259
  207MOL0     H27302  -2.617   8.801   3.171 -0.7759  0.0150 -0.4488
  207MOL0     H27303  -2.478   8.862   3.062  1.7901 -1.6352 -0.4449
  207MOL0     H27304  -2.591   8.583   3.082 -0.5117  1.2799  1.1851
  207MOL0     H27305  -2.459   8.619   2.979 -1.8835  0.4169 -2.0843
  207MOL0     H27306  -1.757   8.351   3.401 -0.2055 -0.8276 -1.3710
  207MOL0     H27307  -1.592   8.409   3.226  0.1403 -0.5170 -3.2880
  207MOL0     H27308  -1.563   8.611   2.791  1.8452 -1.9884 -0.4796
  207MOL0     H27309  -1.416   8.683   2.600  0.7018 -0.0079  0.3836
  207MOL0     H27310  -0.038   9.931   2.098 -1.6626 -0.1148 -0.5028
  207MOL0     H27311   0.206   9.940   2.080  0.2973  1.2113 -2.0297
  207MOL0     H27312   0.552   9.953   1.979 -0.7241  1.4482 -1.5451
  207MOL0     H27313   0.783  10.007   1.986 -0.2801  1.3640 -0.2496
  207MOL0     H27314   1.157   9.922   1.901  0.7541 -1.2527 -2.1393
  207MOL0     H27315   1.029   9.912   2.023 -0.9050 -1.3470 -0.5264
  207MOL0     H27316   0.945  10.140   1.978  0.9546 -0.0864  0.6017
  207MOL0     H27317   1.113  10.157   1.984  0.4784 -0.3943  0.5058
  207MOL0     H27318   0.997  10.256   1.780  0.5079  0.7323 -1.4624
  207MOL0     H27319   0.951  10.089   1.737 -0.9008 -0.0885  1.9521
  207MOL0     H27320   1.235  10.187   1.764  2.1563 -3.6852  0.0650
  207MOL0     H27321   1.192  10.035   1.691 -0.4389 -0.1310 -0.8195
  207MOL0     H27322   1.158  10.282   1.365 -0.0313  1.6230  0.0138
  207MOL0     H27323   0.861   9.728   1.657 -1.9730 -3.6894 -0.4885
  207MOL0     H27324   0.611   9.656   1.677  0.8965 -0.3055 -0.7715
  208MOL0     O27325   0.977   5.860   2.832 -0.6757  0.3509  0.6463
  208MOL0     C27326   0.899   5.885   2.737 -0.0703 -0.6571  0.1430
  208MOL0     O27327   0.936   5.894   2.604 -0.1836 -0.0303 -1.2534
  208MOL0     C27328   1.067   5.873   2.570  0.1845 -0.6303  0.0712
  208MOL0     C27329   1.141   5.985   2.538 -0.1169 -0.1709 -0.9481
  208MOL0     C27330   1.277   5.975   2.508 -0.7632 -0.0394 -0.7501
  208MOL0     C27331   1.343   5.848   2.511  0.9176 -0.2537  0.4521
  208MOL0     O27332   1.475   5.835   2.466 -0.3607  0.0823  0.0345
  208MOL0     C27333   1.561   5.950   2.461  0.1566  0.4638  0.0511
  208MOL0     C27334   1.703   5.897   2.490  0.2675  0.2746  0.8236
  208MOL0     C27335   1.803   6.014   2.529 -0.7026  0.7225  0.0830
  208MOL0     C27336   1.952   5.969   2.538 -0.5020  0.6395  0.3932
  208MOL0     C27337   2.066   6.075   2.533 -0.8518 -0.2463  0.0710
  208MOL0     C27338   2.072   6.170   2.653  0.5302  0.8081 -0.2338
  208MOL0     C27339   2.168   6.288   2.636 -0.1839 -0.0337  0.1030
  208MOL0     C27340   2.149   6.366   2.508 -0.0086 -0.7096  1.0390
  208MOL0     N27341   2.011   6.410   2.496  0.3076  0.3307  1.3335
  208MOL0     C27342   1.931   6.462   2.594  0.4005  0.0086 -0.5819
  208MOL0     C27343   1.804   6.468   2.545 -0.0274 -0.1565 -0.2023
  208MOL0     C27344   1.677   6.522   2.616 -0.0358 -0.0184  0.6097
  208MOL0     C27345   1.566   6.411   2.611 -0.0551 -0.5290  0.3358
  208MOL0     C27346   1.448   6.436   2.702 -0.4989  1.2445  0.5011
  208MOL0     C27347   1.381   6.570   2.661  0.0537 -0.4296  0.8538
  208MOL0     O27348   1.274   6.599   2.748 -0.1732  0.4180 -0.9311
  208MOL0     C27349   1.149   6.620   2.698  0.5780 -0.1672  0.2622
  208MOL0     C27350   1.104   6.641   2.567 -0.3574 -0.7086 -0.0288
  208MOL0     C27351   0.974   6.664   2.537  0.2921  0.5597 -0.2452
  208MOL0     C27352   0.872   6.646   2.634  0.3105 -0.0861  0.6159
  208MOL0     C27353   0.725   6.656   2.595 -0.1509 -0.4679 -0.2003
  208MOL0     O27354   0.693   6.726   2.479  0.2678  0.1303  0.3362
  208MOL0     C27355   0.562   6.743   2.437 -0.0945 -0.6479  0.0374
  208MOL0     C27356   0.510   6.869   2.424 -0.8466  0.8368 -0.2240
  208MOL0     C27357   0.372   6.888   2.402  0.7721  0.5934  0.8670
  208MOL0     C27358   0.288   6.774   2.374 -0.5083  0.8399 -1.0585
  208MOL0     O27359   0.154   6.775   2.354  0.3970 -0.0835  0.2481
  208MOL0     C27360   0.097   6.905   2.342 -1.1892 -0.2576 -0.0245
  208MOL0     C27361  -0.047   6.911   2.286  0.2379 -0.3592 -0.1933
  208MOL0     C27362  -0.150   6.850   2.383  0.1289 -0.5107 -0.7383
  208MOL0     C27363  -0.162   6.925   2.515  0.1457 -0.2962 -0.2750
  208MOL0     C27364  -0.281   6.873   2.598 -0.0526  0.2685  0.2265
  208MOL0     C27365  -0.296   6.967   2.710  1.0229 -0.0691 -0.4931
  208MOL0     C27366  -0.417   6.928   2.794  0.6406  0.0386 -0.3950
  208MOL0     C27367  -0.457   7.054   2.874 -0.1674 -1.0530 -0.1258
  208MOL0    Cl27368  -0.536   7.000   3.022 -0.1952  0.0797 -0.3962
  208MOL0     C27369   0.334   6.648   2.391  0.4836 -0.4892  0.7505
  208MOL0     C27370   0.472   6.639   2.430 -0.5264  0.0281 -0.5281
  208MOL0     O27371   0.658   6.577   2.652  0.1424  0.7261 -0.3386
  208MOL0     C27372   0.920   6.638   2.768  0.2569  0.9225 -0.1823
  208MOL0     C27373   1.058   6.622   2.799  1.2213 -0.1856 -0.2501
  208MOL0     N27374   1.817   6.423   2.411  0.5848  0.3085  0.3486
  208MOL0     N27375   1.939   6.393   2.378 -0.1963  0.3024  0.5081
  208MOL0     C27376   1.265   5.730   2.557  0.4663  0.3051 -0.3938
  208MOL0     C27377   1.130   5.753   2.575 -0.0749  0.0521 -0.4702
  208MOL0     C27378   0.757   5.878   2.765  0.2605 -0.8309  0.0729
  208MOL0     C27379   0.715   5.907   2.896  0.7220 -0.0477  0.4334
  208MOL0     C27380   0.579   5.903   2.928  0.0314 -0.4727  0.5636
  208MOL0     C27381   0.481   5.869   2.833  0.0939  0.0260  0.7545
  208MOL0     O27382   0.349   5.866   2.875 -0.7083 -0.1279 -0.4003
  208MOL0     C27383   0.255   5.918   2.781  0.2470 -0.2001 -0.2104
  208MOL0     C27384   0.115   5.902   2.857 -0.8091  0.6917 -0.5386
  208MOL0     C27385   0.008   5.988   2.794 -0.8723 -0.1354 -0.2980
  208MOL0     C27386  -0.107   5.989   2.887  0.1901  0.7037  0.7996
  208MOL0     C27387  -0.225   6.036   2.822  0.9656 -0.6206  0.4209
  208MOL0     C27388  -0.329   6.074   2.778 -0.5703 -0.5785 -0.1032
  208MOL0     C27389   0.529   5.842   2.705  0.2025  0.1374  0.4516
  208MOL0     C27390   0.664   5.855   2.665 -0.0582 -0.0160 -0.3080
  208MOL0     H27391   1.081   6.075   2.533 -0.1592 -0.0316  1.0060
  208MOL0     H27392   1.327   6.068   2.484 -0.6603  0.2631  0.5588
  208MOL0     H27393   1.535   6.004   2.553  0.3240 -2.1465  1.7306
  208MOL0     H27394   1.552   6.009   2.370  1.1853  0.8910  0.2107
  208MOL0     H27395   1.744   5.844   2.403  0.3968  0.8642  0.5241
  208MOL0     H27396   1.697   5.809   2.556 -0.4553 -2.4452 -2.5782
  208MOL0     H27397   1.757   6.066   2.614 -0.3524  2.7729 -0.9245
  208MOL0     H27398   1.802   6.087   2.447  3.4080 -0.8592 -1.6337
  208MOL0     H27399   1.972   5.921   2.634  0.1846 -1.6814 -0.8548
  208MOL0     H27400   1.968   5.890   2.464 -0.5209 -0.9319  2.0032
  208MOL0     H27401   2.060   6.136   2.443  3.9033 -0.2375 -0.4708
  208MOL0     H27402   2.158   6.018   2.524 -0.9551 -0.8332  2.2170
  208MOL0     H27403   2.093   6.109   2.742  1.4052  1.3836 -0.0374
  208MOL0     H27404   1.969   6.204   2.665 -0.3526 -2.0784  1.3896
  208MOL0     H27405   2.152   6.352   2.723 -1.1175 -1.8613  1.3558
  208MOL0     H27406   2.274   6.260   2.639  0.8628  2.8387 -3.6364
  208MOL0     H27407   2.183   6.301   2.427 -2.1790 -0.2944 -0.3098
  208MOL0     H27408   2.212   6.455   2.503 -0.2713 -0.5695 -1.1661
  208MOL0     H27409   1.947   6.496   2.696 -2.5314 -0.4352  0.1321
  208MOL0     H27410   1.652   6.618   2.569  3.0970 -0.0182 -1.3620
  208MOL0     H27411   1.690   6.541   2.723  0.1760 -1.4546  0.8581
  208MOL0     H27412   1.615   6.313   2.609 -0.9505 -0.9898 -1.6547
  208MOL0     H27413   1.528   6.421   2.509 -0.3381  0.2215  0.5073
  208MOL0     H27414   1.371   6.360   2.683  0.4531 -0.4356  2.8672
  208MOL0     H27415   1.474   6.445   2.808  2.1879  2.7019 -0.1944
  208MOL0     H27416   1.362   6.565   2.553 -3.9792 -1.2428  1.4505
  208MOL0     H27417   1.439   6.659   2.687 -3.2158  1.6282  1.5193
  208MOL0     H27418   1.166   6.659   2.480 -0.9344 -0.3330 -0.3687
  208MOL0     H27419   0.945   6.685   2.434 -1.1512  0.8955  0.2040
  208MOL0     H27420   0.579   6.951   2.443 -0.2798  0.2522  0.2885
  208MOL0     H27421   0.329   6.988   2.399  0.7785  0.5814 -0.0142
  208MOL0     H27422   0.156   6.960   2.269  1.0044 -1.2010  0.9428
  208MOL0     H27423   0.101   6.960   2.437  0.2233  0.2689 -0.3714
  208MOL0     H27424  -0.045   6.854   2.193  2.4748 -1.5831  0.5273
  208MOL0     H27425  -0.079   7.015   2.279 -1.2265 -0.7065  0.9186
  208MOL0     H27426  -0.119   6.747   2.402 -1.9653 -1.4256 -1.9539
  208MOL0     H27427  -0.248   6.842   2.336 -1.2914 -0.6109  2.0720
  208MOL0     H27428  -0.076   6.908   2.580  1.1978  1.1536 -1.2373
  208MOL0     H27429  -0.168   7.031   2.489 -2.1341 -0.3139 -0.0385
  208MOL0     H27430  -0.270   6.770   2.631 -0.2488 -0.2825 -1.3225
  208MOL0     H27431  -0.374   6.867   2.540 -0.0058 -1.2246  0.2828
  208MOL0     H27432  -0.320   7.068   2.676 -3.6985 -0.5793  0.6620
  208MOL0     H27433  -0.205   6.973   2.770  1.4666  1.8668 -1.2836
  208MOL0     H27434  -0.491   6.901   2.719  2.6811  0.7608 -2.8248
  208MOL0     H27435  -0.400   6.842   2.859  0.7738 -0.2859 -0.8562
  208MOL0     H27436  -0.525   7.113   2.812 -1.5639 -1.4800  0.9729
  208MOL0     H27437  -0.370   7.114   2.902 -0.2740 -1.9882  2.5443
  208MOL0     H27438   0.268   6.563   2.378 -1.0425  0.6983  0.4324
  208MOL0     H27439   0.518   6.543   2.452  0.9185  1.0601  1.2421
  208MOL0     H27440   0.844   6.640   2.846  0.1767 -1.2431 -0.1465
  208MOL0     H27441   1.086   6.594   2.900  0.8860  0.6382  0.0791
  208MOL0     H27442   1.313   5.633   2.561  2.4563  1.2492  0.3067
  208MOL0     H27443   1.071   5.665   2.599 -1.2898  1.4921  2.2503
  208MOL0     H27444   0.789   5.935   2.970 -0.6122  1.2792  1.3085
  208MOL0     H27445   0.551   5.925   3.031  1.0289  0.2001  0.7064
  208MOL0     H27446   0.258   5.856   2.691 -0.2452  0.7699 -0.9055
  208MOL0     H27447   0.273   6.023   2.759 -0.2625  0.1423  0.9406
  208MOL0     H27448   0.095   5.795   2.867 -0.2432  0.6927  0.7499
  208MOL0     H27449   0.140   5.924   2.961  0.1287 -4.6457  0.6619
  208MOL0     H27450  -0.024   5.955   2.695  1.1468  1.3168 -1.5094
  208MOL0     H27451   0.041   6.091   2.786 -0.4883 -0.3859 -2.5864
  208MOL0     H27452  -0.122   5.889   2.929  0.6188 -0.1203 -0.8939
  208MOL0     H27453  -0.083   6.052   2.973  0.3797 -0.5838  1.7092
  208MOL0     H27454  -0.423   6.105   2.738  0.2004  1.9617 -0.1011
  208MOL0     H27455   0.469   5.795   2.628 -0.5841  0.7981  0.6547
  208MOL0     H27456   0.690   5.842   2.561  1.3966 -3.4387  0.3386
  209MOL0     O27457   6.820   2.368   3.642  0.1317  0.6038  0.9013
  209MOL0     C27458   6.862   2.482   3.654  0.4670 -0.1291  0.0768
  209MOL0     O27459   6.778   2.591   3.635 -0.3642 -0.6030  0.1306
  209MOL0     C27460   6.646   2.555   3.610  0.1786 -0.6714  1.0959
  209MOL0     C27461   6.604   2.574   3.478  0.1559 -0.0581 -0.0408
  209MOL0     C27462   6.482   2.535   3.435 -0.2421 -0.0842  0.6395
  209MOL0     C27463   6.385   2.489   3.524  0.2439 -1.3342 -0.4747
  209MOL0     O27464   6.252   2.459   3.497 -0.4280 -0.3467  0.1167
  209MOL0     C27465   6.178   2.548   3.419 -0.1201  0.7202  1.0169
  209MOL0     C27466   6.033   2.496   3.421  0.4124 -1.4748  0.5688
  209MOL0     C27467   5.985   2.472   3.568  0.4170 -1.2565  0.7157
  209MOL0     C27468   5.833   2.442   3.568 -0.6416  0.4447 -0.1973
  209MOL0     C27469   5.804   2.369   3.708 -1.2612 -0.1710  0.0316
  209MOL0     C27470   5.655   2.373   3.742  0.0154  0.6426 -0.6205
  209MOL0     C27471   5.575   2.275   3.651  0.2392 -0.5612  0.2051
  209MOL0     C27472   5.507   2.344   3.528 -0.6914  0.5809  0.0638
  209MOL0     N27473   5.382   2.407   3.573  0.6390  0.0844  0.5219
  209MOL0     C27474   5.351   2.544   3.546  0.1736  0.4453  0.0678
  209MOL0     C27475   5.225   2.555   3.595  0.2730 -0.7941 -0.6929
  209MOL0     C27476   5.158   2.687   3.607  0.3486  0.6213 -0.2513
  209MOL0     C27477   5.008   2.677   3.559 -0.5482  0.3473  0.0502
  209MOL0     C27478   4.892   2.615   3.641  0.2155 -0.2258 -0.6801
  209MOL0     C27479   4.851   2.701   3.767  0.1256  0.4306 -0.7737
  209MOL0     O27480   4.826   2.834   3.735 -0.1324 -1.0369 -0.5444
  209MOL0     C27481   4.866   2.919   3.834 -0.2519  0.0209 -0.2065
  209MOL0     C27482   4.779   2.980   3.929 -0.0433  0.0088  0.5443
  209MOL0     C27483   4.820   3.067   4.030  0.4015 -0.3935 -0.0210
  209MOL0     C27484   4.955   3.095   4.043 -0.1248  0.2949 -0.1646
  209MOL0     C27485   5.007   3.183   4.150 -0.3520 -0.6382 -0.4707
  209MOL0     O27486   5.137   3.158   4.190 -0.2169 -0.5408  0.1583
  209MOL0     C27487   5.190   3.257   4.271 -0.6528  0.3266 -0.8036
  209MOL0     C27488   5.281   3.350   4.202  0.0287  0.7617 -0.7171
  209MOL0     C27489   5.353   3.435   4.284  0.3203  0.1070 -0.2592
  209MOL0     C27490   5.331   3.444   4.417  0.0134  0.0220 -0.7704
  209MOL0     O27491   5.399   3.528   4.503  0.4741  0.0885  0.0111
  209MOL0     C27492   5.543   3.505   4.487  0.5095 -0.4079  0.3098
  209MOL0     C27493   5.616   3.583   4.600 -0.0916 -0.1201 -0.1918
  209MOL0     C27494   5.772   3.571   4.605 -0.7035 -0.0047 -0.9288
  209MOL0     C27495   5.833   3.635   4.737  0.7593  0.4601  0.6937
  209MOL0     C27496   5.979   3.663   4.717 -0.3486 -0.4702  0.1591
  209MOL0     C27497   6.035   3.757   4.833 -0.1201  0.3108 -0.1630
  209MOL0     C27498   6.184   3.759   4.798 -0.2135 -1.2251  0.2002
  209MOL0     C27499   6.261   3.869   4.858 -0.0926 -0.5438  0.0416
  209MOL0    Cl27500   6.276   3.842   5.034 -0.5520  0.2033  0.2440
  209MOL0     C27501   5.227   3.371   4.482 -0.4499 -0.2637 -0.9087
  209MOL0     C27502   5.162   3.273   4.404 -0.4695 -0.5126 -0.1476
  209MOL0     O27503   4.938   3.283   4.189  0.5351 -0.1425  0.0065
  209MOL0     C27504   5.046   3.030   3.964 -0.0813 -0.1062 -0.0192
  209MOL0     C27505   5.002   2.952   3.852 -0.9028  0.6320  0.0510
  209MOL0     N27506   5.179   2.429   3.637  0.3947 -0.3797 -0.0890
  209MOL0     N27507   5.270   2.344   3.625  0.1174 -0.3269  0.6695
  209MOL0     C27508   6.435   2.464   3.659  0.5731  0.0819 -0.1057
  209MOL0     C27509   6.561   2.491   3.700 -0.2582  0.4862 -0.1213
  209MOL0     C27510   7.011   2.519   3.667  0.5695  0.2183  0.6807
  209MOL0     C27511   7.105   2.413   3.668 -0.0958  0.9237  0.5021
  209MOL0     C27512   7.243   2.443   3.682 -0.6237 -0.5137  0.6684
  209MOL0     C27513   7.294   2.575   3.658 -0.0848  0.3264 -0.6287
  209MOL0     O27514   7.427   2.588   3.631 -0.0739  0.1646 -0.4979
  209MOL0     C27515   7.477   2.721   3.615  0.2052  0.3015  0.4274
  209MOL0     C27516   7.625   2.736   3.640  0.1845  0.6340  0.0465
  209MOL0     C27517   7.674   2.718   3.785  0.2924 -0.1586  0.0287
  209MOL0     C27518   7.823   2.734   3.804 -0.7373  0.3185  1.0579
  209MOL0     C27519   7.848   2.725   3.949  0.2158 -0.0904  0.3308
  209MOL0     C27520   7.892   2.728   4.062 -0.2502  1.1384 -0.0841
  209MOL0     C27521   7.198   2.673   3.649  1.0659  0.3203 -0.0499
  209MOL0     C27522   7.060   2.652   3.663  0.5795  0.1913 -0.1076
  209MOL0     H27523   6.675   2.609   3.404 -0.6734 -1.7059 -1.6777
  209MOL0     H27524   6.450   2.553   3.332 -1.2847  1.4028  1.1922
  209MOL0     H27525   6.218   2.554   3.317 -0.3025  0.9093  0.9564
  209MOL0     H27526   6.185   2.648   3.461  0.7595  0.5032  1.4212
  209MOL0     H27527   6.021   2.400   3.368  0.3153  0.3821 -3.1343
  209MOL0     H27528   5.961   2.560   3.369  0.9557 -0.0334  1.5317
  209MOL0     H27529   6.009   2.562   3.626  1.5335 -1.9913  1.4099
  209MOL0     H27530   6.047   2.398   3.619 -0.5282 -1.0773  2.1819
  209MOL0     H27531   5.767   2.529   3.559 -0.3065  0.5585 -2.0511
  209MOL0     H27532   5.811   2.370   3.488  1.8190 -2.7227  1.7230
  209MOL0     H27533   5.870   2.412   3.784 -0.7534  0.2474 -0.6320
  209MOL0     H27534   5.827   2.263   3.698 -2.3928 -0.3766 -0.4797
  209MOL0     H27535   5.612   2.473   3.733  0.0882  0.7438  0.1129
  209MOL0     H27536   5.650   2.340   3.846  1.5492 -0.5219 -0.8795
  209MOL0     H27537   5.635   2.200   3.599 -1.6718 -0.7909 -1.8024
  209MOL0     H27538   5.500   2.216   3.705 -0.3981 -0.2700 -0.3513
  209MOL0     H27539   5.489   2.274   3.446  0.1372  2.0509 -1.4429
  209MOL0     H27540   5.576   2.415   3.481  1.6189 -1.7064 -0.2696
  209MOL0     H27541   5.422   2.614   3.502  1.3699 -1.8380 -1.8686
  209MOL0     H27542   5.204   2.771   3.554  3.0155  0.8441  2.1565
  209MOL0     H27543   5.162   2.718   3.712 -1.6758 -0.1225  0.0832
  209MOL0     H27544   5.017   2.617   3.468  3.1419  0.0547  0.4797
  209MOL0     H27545   4.991   2.781   3.529  4.6947  0.9451 -1.8955
  209MOL0     H27546   4.805   2.627   3.576  0.9170 -2.6218 -2.2108
  209MOL0     H27547   4.898   2.513   3.679  0.0949  0.2225  0.5645
  209MOL0     H27548   4.930   2.690   3.842  0.3941 -0.1459 -1.1362
  209MOL0     H27549   4.765   2.656   3.816 -0.0307  1.5335 -0.0026
  209MOL0     H27550   4.675   2.953   3.914  0.2420 -0.2653 -1.1416
  209MOL0     H27551   4.748   3.125   4.086  0.6480  1.1799 -1.2589
  209MOL0     H27552   5.313   3.346   4.098  3.1383  1.5643  0.0959
  209MOL0     H27553   5.429   3.502   4.244  2.9720 -1.1229  2.3383
  209MOL0     H27554   5.576   3.531   4.386  1.5667 -2.4275  0.0827
  209MOL0     H27555   5.559   3.399   4.509 -0.2042 -0.1326  2.3117
  209MOL0     H27556   5.570   3.541   4.690 -0.2143  3.2429  1.4786
  209MOL0     H27557   5.583   3.688   4.602 -3.4413 -1.0566  1.5094
  209MOL0     H27558   5.828   3.612   4.519 -1.3512 -2.7694 -2.7991
  209MOL0     H27559   5.794   3.465   4.621  1.7780  0.6778  0.8483
  209MOL0     H27560   5.772   3.721   4.767  0.3891 -0.2195  2.0004
  209MOL0     H27561   5.817   3.558   4.814  1.6306 -2.2999 -1.7368
  209MOL0     H27562   6.014   3.704   4.622 -1.2962 -1.2907 -0.5587
  209MOL0     H27563   6.032   3.567   4.712  0.3552 -0.0477 -0.8074
  209MOL0     H27564   6.023   3.702   4.927  1.6994 -0.0782 -0.1231
  209MOL0     H27565   5.982   3.852   4.844 -4.9530 -2.1922  1.0731
  209MOL0     H27566   6.234   3.666   4.826  0.1573 -1.7585 -2.0366
  209MOL0     H27567   6.198   3.769   4.690  1.8771 -0.7875  0.4696
  209MOL0     H27568   6.217   3.968   4.844  0.3917 -0.0980  1.4865
  209MOL0     H27569   6.364   3.871   4.820  0.7083 -3.1100  1.7698
  209MOL0     H27570   5.220   3.401   4.586  2.9252  4.2145 -1.6675
  209MOL0     H27571   5.104   3.199   4.460 -0.6364  0.8399  1.5397
  209MOL0     H27572   5.153   3.042   3.978 -0.0059  3.1559 -2.3058
  209MOL0     H27573   5.072   2.922   3.775 -0.2178  2.0136  0.1104
  209MOL0     H27574   6.362   2.421   3.726 -1.3498  0.1503 -2.0320
  209MOL0     H27575   6.593   2.473   3.802  0.2714 -3.1325 -0.8129
  209MOL0     H27576   7.075   2.309   3.684  2.1093  0.6821  4.3364
  209MOL0     H27577   7.320   2.367   3.695 -0.0124 -0.3782 -1.7713
  209MOL0     H27578   7.435   2.789   3.689 -0.8669 -0.8182  0.8810
  209MOL0     H27579   7.455   2.763   3.517  0.5919  0.6547  0.4856
  209MOL0     H27580   7.663   2.650   3.583 -0.5811  1.1280 -1.2361
  209MOL0     H27581   7.660   2.833   3.604  1.6110 -0.0553 -0.5292
  209MOL0     H27582   7.636   2.619   3.815 -1.0577 -0.1408 -1.4636
  209MOL0     H27583   7.624   2.797   3.842 -0.7204  0.6881 -1.9273
  209MOL0     H27584   7.873   2.650   3.756 -2.3507 -0.2084  0.2242
  209MOL0     H27585   7.870   2.823   3.760 -0.4841  0.7944  2.2357
  209MOL0     H27586   7.934   2.720   4.160  1.8221 -0.4998 -1.0112
  209MOL0     H27587   7.227   2.775   3.626 -1.2774  0.5613 -2.5064
  209MOL0     H27588   6.989   2.734   3.655 -1.7967 -1.6393  0.9595
  210MOL0     O27589   8.423  10.894   4.931 -0.2970  0.1921 -0.2900
  210MOL0     C27590   8.431  10.996   4.992 -0.7707 -0.3024  0.3721
  210MOL0     O27591   8.340  11.095   4.987 -0.8957  0.4920 -0.0014
  210MOL0     C27592   8.230  11.076   4.908 -0.2121 -0.3076 -0.9378
  210MOL0     C27593   8.229  11.114   4.782 -0.6411  0.1019  0.2247
  210MOL0     C27594   8.112  11.110   4.705 -1.2587  0.1840 -0.0981
  210MOL0     C27595   7.993  11.054   4.761 -0.3137 -0.2140  0.8204
  210MOL0     O27596   7.876  11.051   4.682 -0.5397  0.1536 -0.2567
  210MOL0     C27597   7.884  10.947   4.576  0.7665  0.3695 -0.6677
  210MOL0     C27598   7.750  10.889   4.527  0.0929 -1.2389  0.4749
  210MOL0     C27599   7.746  10.741   4.496 -1.0932 -0.0455 -0.1555
  210MOL0     C27600   7.867  10.690   4.417 -0.2488  0.5139  0.4482
  210MOL0     C27601   7.825  10.561   4.356  0.3805  0.6885  0.9345
  210MOL0     C27602   7.729  10.589   4.241 -0.5706 -0.0052 -0.3049
  210MOL0     C27603   7.705  10.460   4.154  0.1997 -0.7745 -0.5389
  210MOL0     C27604   7.818  10.445   4.053 -0.1628  0.1530 -0.3890
  210MOL0     N27605   7.846  10.566   3.963 -0.8769 -0.3400 -0.3019
  210MOL0     C27606   7.761  10.621   3.875  0.0242  0.0061 -0.3070
  210MOL0     C27607   7.822  10.738   3.837  0.0443  0.2385 -0.1048
  210MOL0     C27608   7.781  10.846   3.741  0.8840  0.3321 -1.3696
  210MOL0     C27609   7.778  10.797   3.595 -0.0813 -0.4716 -0.1922
  210MOL0     C27610   7.878  10.684   3.555  0.6833  1.3028 -0.8810
  210MOL0     C27611   7.895  10.665   3.403  0.1149 -0.2017 -0.4683
  210MOL0     O27612   7.782  10.599   3.344  0.2221 -0.3252 -0.0478
  210MOL0     C27613   7.753  10.633   3.215  0.4754 -0.3356  1.2532
  210MOL0     C27614   7.641  10.712   3.191 -0.2930 -0.1366 -0.7687
  210MOL0     C27615   7.616  10.757   3.065 -0.0830  0.1097 -0.2369
  210MOL0     C27616   7.701  10.728   2.961  0.2071  0.0476  1.2000
  210MOL0     C27617   7.688  10.796   2.829  0.3374 -0.6583 -0.1287
  210MOL0     O27618   7.570  10.868   2.826  0.3548  0.7092 -0.3143
  210MOL0     C27619   7.523  10.924   2.716 -0.4816 -1.0957 -0.3099
  210MOL0     C27620   7.565  11.050   2.675 -1.0810  0.4056 -0.5564
  210MOL0     C27621   7.498  11.113   2.565  0.3796  0.5698  0.7750
  210MOL0     C27622   7.401  11.044   2.491 -0.2112 -0.0882 -0.1892
  210MOL0     O27623   7.330  11.087   2.385 -0.2165 -0.6116 -0.0439
  210MOL0     C27624   7.257  11.211   2.408 -0.1365 -0.1751  0.1871
  210MOL0     C27625   7.158  11.205   2.513  0.1937 -0.3236  0.6393
  210MOL0     C27626   7.050  11.106   2.473  0.3061 -0.7688  0.4830
  210MOL0     C27627   6.958  11.149   2.355  0.3250 -0.7577 -0.1169
  210MOL0     C27628   6.855  11.046   2.326  0.1472  0.4087 -0.4593
  210MOL0     C27629   6.811  11.052   2.182 -0.7215 -0.1464  0.9782
  210MOL0     C27630   6.718  10.934   2.144 -0.0070 -0.1708 -0.0022
  210MOL0     C27631   6.633  10.980   2.030  0.2273 -0.3873  0.5321
  210MOL0    Cl27632   6.593  10.848   1.930 -0.0836  0.0490  0.0669
  210MOL0     C27633   7.371  10.912   2.535  0.6241 -0.7761  0.1175
  210MOL0     C27634   7.425  10.855   2.645 -0.0673 -0.6678  1.1089
  210MOL0     O27635   7.761  10.770   2.734  0.4089  0.1598 -0.1826
  210MOL0     C27636   7.805  10.638   2.980  0.7632 -0.7401 -0.1848
  210MOL0     C27637   7.820  10.578   3.106  0.0301  0.4093 -0.3243
  210MOL0     N27638   7.936  10.755   3.910 -0.3142 -0.2480 -0.6236
  210MOL0     N27639   7.955  10.643   3.975 -0.0861 -0.7401 -0.3921
  210MOL0     C27640   7.991  11.018   4.889  0.2784  0.8876 -0.5896
  210MOL0     C27641   8.106  11.036   4.965  0.6707  1.3076 -0.4518
  210MOL0     C27642   8.559  11.014   5.062 -0.2462  0.0479  0.7424
  210MOL0     C27643   8.664  10.920   5.048  0.6994  0.1428  0.1535
  210MOL0     C27644   8.784  10.940   5.105 -0.3937 -0.4514  0.4214
  210MOL0     C27645   8.797  11.035   5.202 -0.3579  0.0210 -0.6252
  210MOL0     O27646   8.919  11.067   5.272 -0.2249  0.4909  0.1456
  210MOL0     C27647   9.038  10.987   5.235 -0.3590  0.2573 -0.6073
  210MOL0     C27648   9.161  11.034   5.310 -0.1687 -0.6553  0.3444
  210MOL0     C27649   9.273  10.935   5.303 -0.4990 -0.3603  0.6787
  210MOL0     C27650   9.407  10.984   5.363  0.7758 -0.5363  0.1777
  210MOL0     C27651   9.514  10.890   5.340  0.9223 -0.2305 -0.0957
  210MOL0     C27652   9.596  10.807   5.320  0.1833 -0.0148  0.0268
  210MOL0     C27653   8.694  11.131   5.227 -0.7950  1.0825 -1.1236
  210MOL0     C27654   8.580  11.128   5.145 -0.0710 -0.9914  0.0786
  210MOL0     H27655   8.324  11.144   4.737 -0.2694 -0.1199  0.8408
  210MOL0     H27656   8.111  11.138   4.600  1.1586  0.0453 -0.2246
  210MOL0     H27657   7.940  10.858   4.605 -1.4075 -1.8090 -2.6540
  210MOL0     H27658   7.948  10.989   4.498  1.1767 -0.2439 -0.6666
  210MOL0     H27659   7.743  10.934   4.427  0.3195 -2.4285 -0.0966
  210MOL0     H27660   7.672  10.908   4.601  0.3813  0.1466  0.4540
  210MOL0     H27661   7.648  10.720   4.453  0.6045 -5.1038 -2.2304
  210MOL0     H27662   7.742  10.680   4.587 -1.9246 -1.4836 -1.1300
  210MOL0     H27663   7.889  10.760   4.336  2.3617 -2.3540 -1.5577
  210MOL0     H27664   7.963  10.677   4.467  0.8236  0.2890 -1.6076
  210MOL0     H27665   7.788  10.485   4.426 -0.1503  0.0695 -0.0002
  210MOL0     H27666   7.916  10.521   4.310  0.4690 -1.5885  2.8782
  210MOL0     H27667   7.760  10.679   4.187 -0.9346  1.0930  1.2513
  210MOL0     H27668   7.631  10.624   4.274 -0.1600  2.4991 -1.4780
  210MOL0     H27669   7.693  10.372   4.218 -2.3989  0.9355  1.5396
  210MOL0     H27670   7.612  10.463   4.097  1.4032 -3.0785 -2.8768
  210MOL0     H27671   7.797  10.364   3.982  2.6394 -3.6393  2.6048
  210MOL0     H27672   7.910  10.423   4.109  0.3413  1.7128 -0.5654
  210MOL0     H27673   7.660  10.585   3.859  0.2226  0.2614 -2.4170
  210MOL0     H27674   7.846  10.934   3.738 -0.2404  1.1957 -1.5859
  210MOL0     H27675   7.678  10.879   3.762  0.1183 -1.0299 -2.8108
  210MOL0     H27676   7.800  10.883   3.531  3.4567 -2.2167 -1.6304
  210MOL0     H27677   7.678  10.764   3.565  0.4172 -1.9752 -0.3145
  210MOL0     H27678   7.977  10.706   3.597  0.9644  0.1145 -0.8904
  210MOL0     H27679   7.839  10.591   3.598  1.5002  2.2750  2.2026
  210MOL0     H27680   7.985  10.605   3.390  0.8107  0.4309  1.1673
  210MOL0     H27681   7.912  10.767   3.367  0.9302  0.1137  0.7552
  210MOL0     H27682   7.576  10.754   3.268  0.2987 -2.5072  1.1378
  210MOL0     H27683   7.530  10.822   3.062  0.7916  1.5768  2.6736
  210MOL0     H27684   7.640  11.101   2.735  0.0763  1.8837 -3.0788
  210MOL0     H27685   7.533  11.209   2.526  2.3184 -0.6695 -0.7355
  210MOL0     H27686   7.218  11.248   2.313 -0.1100  0.3738  0.3902
  210MOL0     H27687   7.327  11.288   2.440 -1.5861  0.9803  0.6933
  210MOL0     H27688   7.117  11.303   2.537  2.5235  0.6712  0.8508
  210MOL0     H27689   7.196  11.173   2.611 -4.6980 -1.7169  2.3694
  210MOL0     H27690   6.988  11.088   2.562  0.0186 -1.9328  0.0548
  210MOL0     H27691   7.093  11.014   2.434 -0.6642 -0.6422 -0.9364
  210MOL0     H27692   6.906  11.241   2.383  0.6922 -0.8055  0.7299
  210MOL0     H27693   7.018  11.174   2.267  2.2366  0.1134  1.3664
  210MOL0     H27694   6.781  11.059   2.404  0.0989  1.4636 -0.6692
  210MOL0     H27695   6.908  10.951   2.333  3.0146  1.9756  0.9417
  210MOL0     H27696   6.902  11.036   2.123 -1.5937 -0.0080 -0.4480
  210MOL0     H27697   6.766  11.148   2.158  2.6691  1.0439 -1.3935
  210MOL0     H27698   6.768  10.842   2.109 -2.1085 -0.2266 -3.3001
  210MOL0     H27699   6.665  10.907   2.236 -2.4112  0.8659 -1.0010
  210MOL0     H27700   6.703  11.039   1.970  0.8263 -3.1464 -1.7345
  210MOL0     H27701   6.543  11.033   2.059 -1.6173 -2.3345 -1.1996
  210MOL0     H27702   7.283  10.858   2.500 -0.5735 -0.9008  3.0461
  210MOL0     H27703   7.391  10.755   2.669  0.3628 -0.7108  1.5399
  210MOL0     H27704   7.868  10.598   2.902 -1.6794 -4.4555 -0.5025
  210MOL0     H27705   7.908  10.515   3.120 -0.6973 -0.9378 -1.5516
  210MOL0     H27706   7.900  10.987   4.941  0.4666  3.2160  1.2830
  210MOL0     H27707   8.114  11.018   5.071 -2.2178  0.2507 -0.3430
  210MOL0     H27708   8.659  10.832   4.984  0.8911 -2.2912  3.2065
  210MOL0     H27709   8.862  10.866   5.087  0.0939  0.4177 -1.3160
  210MOL0     H27710   9.050  11.000   5.128 -3.1428  0.2273 -0.9995
  210MOL0     H27711   9.027  10.883   5.269 -1.2059  0.7825  0.8525
  210MOL0     H27712   9.194  11.123   5.256 -3.3246  0.9158  0.8171
  210MOL0     H27713   9.148  11.070   5.413 -0.3579 -1.5975  0.6562
  210MOL0     H27714   9.298  10.917   5.198  1.3214  0.7311  0.8970
  210MOL0     H27715   9.248  10.849   5.366 -0.9777  1.5492  3.2365
  210MOL0     H27716   9.421  11.084   5.323 -3.2004  0.0210 -0.2196
  210MOL0     H27717   9.406  10.998   5.472  2.5975 -0.8179  0.2566
  210MOL0     H27718   9.675  10.737   5.302  1.8452  1.0586  2.5790
  210MOL0     H27719   8.718  11.211   5.296  2.3324 -1.7276  1.3878
  210MOL0     H27720   8.499  11.198   5.160 -0.7754 -1.7779 -0.0140
  211MOL0     O27721  10.677   0.935   7.597 -0.8229  0.1090 -0.1158
  211MOL0     C27722  10.640   0.855   7.690 -0.3869 -0.2489 -0.3972
  211MOL0     O27723  10.718   0.831   7.804  0.0653  0.6872 -0.2470
  211MOL0     C27724  10.847   0.878   7.798 -0.3940 -0.4525 -0.3131
  211MOL0     C27725  10.869   1.005   7.866 -0.4389  0.6156  1.2742
  211MOL0     C27726  11.000   1.063   7.865  0.2478  1.1210 -0.7001
  211MOL0     C27727  11.110   1.002   7.811  0.1578 -0.5554 -0.4698
  211MOL0     O27728  11.228   1.073   7.818 -0.9742  0.1579  0.3904
  211MOL0     C27729  11.326   1.017   7.723 -0.0595 -0.4094 -0.2089
  211MOL0     C27730  11.418   0.919   7.795  0.4438 -0.4092  0.5528
  211MOL0     C27731  11.555   0.906   7.725  0.2351 -0.1179  0.2778
  211MOL0     C27732  11.643   0.801   7.793  0.1118 -0.9460  0.3918
  211MOL0     C27733  11.769   0.751   7.725  0.4864  0.3650 -0.5270
  211MOL0     C27734  11.741   0.688   7.589  0.5885 -0.3963 -0.5908
  211MOL0     C27735  11.647   0.564   7.598  0.3659 -0.1836  0.2028
  211MOL0     C27736  11.667   0.488   7.467 -0.0640 -0.2985  0.6403
  211MOL0     N27737  11.583   0.371   7.469 -0.2916  0.0034 -0.5864
  211MOL0     C27738  11.444   0.361   7.452 -0.0863 -0.5213  0.0911
  211MOL0     C27739  11.416   0.233   7.454 -0.7897 -0.0470 -0.8056
  211MOL0     C27740  11.281   0.180   7.448 -0.1738  0.2305 -0.2042
  211MOL0     C27741  11.272   0.032   7.418  0.0827  0.5670  0.2847
  211MOL0     C27742  11.129  -0.017   7.397 -0.9706  0.2640  0.0938
  211MOL0     C27743  11.103  -0.146   7.317 -0.8525 -0.0065 -0.5011
  211MOL0     O27744  10.981  -0.187   7.368 -0.1368 -0.3572  0.3004
  211MOL0     C27745  10.866  -0.164   7.296 -0.5055  0.1467 -0.1462
  211MOL0     C27746  10.835  -0.046   7.225 -0.9859  0.5474 -0.2163
  211MOL0     C27747  10.719  -0.037   7.147 -0.2580 -0.2145  0.2344
  211MOL0     C27748  10.620  -0.130   7.145  0.2741  0.4619 -0.0007
  211MOL0     C27749  10.502  -0.120   7.064  0.0599  0.1881 -0.1637
  211MOL0     O27750  10.420  -0.227   7.052 -0.8534  0.1288 -0.7178
  211MOL0     C27751  10.294  -0.213   6.995  0.1032  0.5991 -0.4049
  211MOL0     C27752  10.269  -0.181   6.860  0.5359  1.0940 -1.1336
  211MOL0     C27753  10.139  -0.158   6.818 -0.0837 -0.0203 -0.0351
  211MOL0     C27754  10.029  -0.179   6.894 -0.3578  0.0395  0.5202
  211MOL0     O27755   9.900  -0.170   6.846 -0.5434 -0.0098 -0.1498
  211MOL0     C27756   9.826  -0.046   6.883 -0.2639  0.2052  0.9781
  211MOL0     C27757   9.699  -0.026   6.803 -0.8009  0.0751 -0.4346
  211MOL0     C27758   9.720  -0.008   6.655 -0.2655 -0.4257 -0.5179
  211MOL0     C27759   9.603   0.071   6.600 -0.2548 -0.8207 -0.7496
  211MOL0     C27760   9.461   0.038   6.652  0.0700  0.0716 -0.2716
  211MOL0     C27761   9.415  -0.113   6.630  1.1847 -0.2091  0.4663
  211MOL0     C27762   9.407  -0.154   6.485  0.5804 -0.4773  0.0709
  211MOL0     C27763   9.298  -0.268   6.469  0.3722  0.6922 -0.0259
  211MOL0    Cl27764   9.375  -0.417   6.533  0.1076 -0.0489  0.4372
  211MOL0     C27765  10.051  -0.220   7.019 -0.0867 -0.2109  0.5474
  211MOL0     C27766  10.182  -0.239   7.080  0.2845 -0.4401  0.5794
  211MOL0     O27767  10.478  -0.010   7.012 -0.5120  0.1579  0.1125
  211MOL0     C27768  10.649  -0.247   7.212 -0.4902  0.3532 -0.4466
  211MOL0     C27769  10.763  -0.264   7.292 -0.5058 -0.0631 -0.3445
  211MOL0     N27770  11.532   0.161   7.473  0.8541  0.2601  0.2325
  211MOL0     N27771  11.632   0.239   7.481 -0.2686 -0.7974 -0.2982
  211MOL0     C27772  11.088   0.874   7.752  0.1770 -0.1555 -0.2288
  211MOL0     C27773  10.960   0.820   7.744  0.3915  0.5448 -0.3968
  211MOL0     C27774  10.504   0.802   7.676 -0.8423 -1.2353  0.3334
  211MOL0     C27775  10.435   0.740   7.788 -0.8567 -0.4423  0.3294
  211MOL0     C27776  10.310   0.679   7.771 -0.2655  0.3224  0.7433
  211MOL0     C27777  10.244   0.678   7.647 -0.2658  0.3485  0.3950
  211MOL0     O27778  10.109   0.638   7.643 -0.4183  0.2218  0.4058
  211MOL0     C27779  10.017   0.657   7.535  0.0370  0.0803 -0.2287
  211MOL0     C27780  10.035   0.560   7.422 -0.7134 -0.6471  0.2096
  211MOL0     C27781   9.927   0.569   7.317  0.5816  0.4718 -0.1719
  211MOL0     C27782   9.811   0.466   7.355 -0.0550 -0.7991 -0.1471
  211MOL0     C27783   9.685   0.503   7.297 -0.2864  0.3093 -0.6103
  211MOL0     C27784   9.572   0.497   7.263  0.8602 -0.0240  0.9413
  211MOL0     C27785  10.313   0.731   7.532  0.4583  0.2525  0.0910
  211MOL0     C27786  10.447   0.782   7.545  0.2276 -0.5133 -0.5132
  211MOL0     H27787  10.781   1.048   7.914 -1.9795 -2.1850  1.1470
  211MOL0     H27788  11.009   1.157   7.917  0.5960  1.1038 -0.7331
  211MOL0     H27789  11.399   1.092   7.694 -0.3654  0.3898  1.0146
  211MOL0     H27790  11.287   0.982   7.626 -0.1931  1.4117 -0.8436
  211MOL0     H27791  11.374   0.819   7.806 -2.3631  0.4873 -1.6303
  211MOL0     H27792  11.429   0.958   7.897  0.4074  2.9341 -0.6142
  211MOL0     H27793  11.604   1.003   7.730 -1.5725  0.7926  2.6104
  211MOL0     H27794  11.533   0.869   7.625  0.9307 -1.3692  0.5621
  211MOL0     H27795  11.672   0.850   7.886 -0.4394 -0.0214  0.0931
  211MOL0     H27796  11.577   0.720   7.824 -4.0016  2.3448  1.1359
  211MOL0     H27797  11.818   0.675   7.786 -2.9827 -0.9954  0.8205
  211MOL0     H27798  11.834   0.837   7.707 -0.1711  1.4711  1.9718
  211MOL0     H27799  11.838   0.669   7.542  0.0474 -0.3767 -1.7541
  211MOL0     H27800  11.703   0.772   7.530  3.4957  1.0967 -0.5078
  211MOL0     H27801  11.668   0.502   7.685 -2.3711 -1.1038  0.3120
  211MOL0     H27802  11.543   0.597   7.597 -0.0311 -1.3783 -0.9314
  211MOL0     H27803  11.771   0.453   7.461 -0.0568 -0.0287 -1.5347
  211MOL0     H27804  11.650   0.555   7.383  2.2386 -1.9265 -1.2913
  211MOL0     H27805  11.369   0.439   7.440  0.7426 -0.0195 -2.2891
  211MOL0     H27806  11.228   0.225   7.364  0.2163  0.7907 -0.1548
  211MOL0     H27807  11.229   0.198   7.543 -0.4436 -1.3654 -0.0137
  211MOL0     H27808  11.318  -0.014   7.507  1.4747  2.5596  0.6549
  211MOL0     H27809  11.332   0.015   7.329 -0.6549  1.2195 -0.3507
  211MOL0     H27810  11.087  -0.026   7.497 -2.4673 -0.4710 -0.5811
  211MOL0     H27811  11.067   0.056   7.344 -0.4322 -0.4558 -1.5950
  211MOL0     H27812  11.178  -0.223   7.338  0.1252  1.3746  1.4771
  211MOL0     H27813  11.102  -0.124   7.210  2.6134  2.0787 -0.2729
  211MOL0     H27814  10.905   0.037   7.231 -1.4523  0.8459  3.6198
  211MOL0     H27815  10.710   0.056   7.092  0.5129 -0.7092 -0.7390
  211MOL0     H27816  10.347  -0.152   6.790 -0.8703  3.5533 -1.7825
  211MOL0     H27817  10.130  -0.134   6.712  0.7266  1.0188  0.1053
  211MOL0     H27818   9.895   0.038   6.873  2.4772 -2.1126 -1.7233
  211MOL0     H27819   9.807  -0.060   6.990  1.7066  1.2730  1.5132
  211MOL0     H27820   9.646   0.054   6.856 -0.8347 -1.1596  1.5107
  211MOL0     H27821   9.640  -0.118   6.816 -1.7791  0.5583 -1.2910
  211MOL0     H27822   9.735  -0.107   6.611 -0.4907 -0.2502 -1.0005
  211MOL0     H27823   9.815   0.046   6.641  0.0098 -0.5842  0.6476
  211MOL0     H27824   9.620   0.176   6.626  1.4692 -0.5154 -2.7737
  211MOL0     H27825   9.612   0.067   6.491 -2.2773  0.6230 -1.0125
  211MOL0     H27826   9.387   0.104   6.605  1.4621  1.8672 -0.0247
  211MOL0     H27827   9.457   0.051   6.760 -0.8768 -5.0319  0.5393
  211MOL0     H27828   9.322  -0.129   6.686  1.8049 -2.2008  1.0156
  211MOL0     H27829   9.487  -0.185   6.670  2.4040  0.1175 -1.0606
  211MOL0     H27830   9.387  -0.066   6.423  0.6009 -1.0557 -0.7735
  211MOL0     H27831   9.502  -0.195   6.450  0.0314  0.5022 -2.7543
  211MOL0     H27832   9.269  -0.296   6.367 -1.8307 -3.0559  1.4219
  211MOL0     H27833   9.214  -0.256   6.538  0.3179 -1.9699  0.4597
  211MOL0     H27834   9.961  -0.247   7.073  1.9741 -4.0345  2.4047
  211MOL0     H27835  10.203  -0.241   7.187  0.4537  0.9561  0.5930
  211MOL0     H27836  10.572  -0.323   7.220 -0.9206  0.7540 -0.7061
  211MOL0     H27837  10.781  -0.367   7.320 -0.2235  0.5711  1.9257
  211MOL0     H27838  11.168   0.812   7.713 -0.5645 -0.1031 -1.9310
  211MOL0     H27839  10.952   0.726   7.691 -2.2474  0.5906 -0.2356
  211MOL0     H27840  10.477   0.741   7.888 -2.1240 -0.5942  0.8834
  211MOL0     H27841  10.257   0.627   7.851 -0.7418 -1.6913 -0.7928
  211MOL0     H27842  10.032   0.759   7.499 -0.4739 -0.0116 -0.7197
  211MOL0     H27843   9.918   0.649   7.580  1.1502  1.2886  2.6202
  211MOL0     H27844  10.128   0.586   7.371 -1.3400  2.8045  0.5915
  211MOL0     H27845  10.039   0.460   7.466 -0.9837  0.0107  1.7714
  211MOL0     H27846   9.964   0.538   7.219 -0.8282  0.6034 -0.7835
  211MOL0     H27847   9.877   0.666   7.306 -0.8567 -0.1314  0.6392
  211MOL0     H27848   9.842   0.369   7.316  1.6679  0.2597 -1.5229
  211MOL0     H27849   9.813   0.461   7.464  0.5343 -0.2013 -0.1272
  211MOL0     H27850   9.472   0.477   7.229 -0.1880  0.7806  3.3292
  211MOL0     H27851  10.273   0.747   7.432  1.6380 -3.0928 -1.0488
  211MOL0     H27852  10.488   0.817   7.452  1.3329 -1.6669 -0.4815
  212MOL0     O27853   6.693   6.813   3.021  0.4471 -0.5013 -0.3053
  212MOL0     C27854   6.697   6.929   3.063 -0.1429 -0.2270  0.0411
  212MOL0     O27855   6.638   6.977   3.172  0.3610  0.1603 -0.6572
  212MOL0     C27856   6.528   6.899   3.220 -0.3026 -0.2049 -0.2099
  212MOL0     C27857   6.519   6.899   3.363  0.6568 -0.3910  0.4522
  212MOL0     C27858   6.419   6.823   3.425  0.1171 -0.5872  0.7667
  212MOL0     C27859   6.337   6.743   3.346  0.3130 -0.2174 -0.4841
  212MOL0     O27860   6.245   6.647   3.392  1.1670 -0.6855  0.1420
  212MOL0     C27861   6.253   6.616   3.530  0.2423  0.2733 -0.5318
  212MOL0     C27862   6.147   6.513   3.577  0.4325 -1.0250 -0.7440
  212MOL0     C27863   6.012   6.550   3.512  0.3202 -0.7483  0.4083
  212MOL0     C27864   5.910   6.434   3.546 -0.2900  0.1078 -0.4359
  212MOL0     C27865   5.791   6.436   3.453 -0.0545  0.4601 -0.3448
  212MOL0     C27866   5.705   6.560   3.448  0.4645 -0.2794 -0.5866
  212MOL0     C27867   5.656   6.609   3.586 -0.1115 -0.4780  0.9428
  212MOL0     C27868   5.581   6.497   3.659  0.6166 -0.5829  0.4218
  212MOL0     N27869   5.473   6.438   3.579  0.1241 -0.5315 -0.5463
  212MOL0     C27870   5.373   6.517   3.533  0.1381 -0.9519 -0.7288
  212MOL0     C27871   5.270   6.430   3.503 -0.4118  0.1811  0.3961
  212MOL0     C27872   5.133   6.465   3.464 -0.3006 -0.0100 -0.7759
  212MOL0     C27873   5.065   6.510   3.602  0.1658  0.2629  0.9313
  212MOL0     C27874   4.914   6.539   3.561 -1.2791  0.8658 -0.5453
  212MOL0     C27875   4.851   6.614   3.674  0.0317 -0.5302  0.0825
  212MOL0     O27876   4.704   6.615   3.663 -0.8503 -0.4093 -0.8400
  212MOL0     C27877   4.658   6.705   3.575  0.9593  0.1167 -0.7723
  212MOL0     C27878   4.722   6.786   3.473  0.0857 -0.1169  0.2719
  212MOL0     C27879   4.652   6.874   3.383  0.3563  1.0345  0.1857
  212MOL0     C27880   4.512   6.877   3.388 -0.8518  0.0367  0.3316
  212MOL0     C27881   4.433   6.954   3.290 -0.0019 -0.0782 -0.0108
  212MOL0     O27882   4.297   6.928   3.278 -0.2214  0.2444  0.2122
  212MOL0     C27883   4.208   6.991   3.194  0.0849 -1.0754  0.5717
  212MOL0     C27884   4.203   7.127   3.163 -0.1491 -1.0182 -0.8928
  212MOL0     C27885   4.112   7.187   3.073 -0.1759  0.9593 -0.0826
  212MOL0     C27886   4.016   7.099   3.008 -0.8498  0.1325 -0.7083
  212MOL0     O27887   3.940   7.163   2.909  0.8572 -0.1211 -0.0092
  212MOL0     C27888   3.806   7.108   2.881  0.1388  0.1235  0.3936
  212MOL0     C27889   3.738   7.190   2.773  0.2317 -0.2151 -0.2369
  212MOL0     C27890   3.581   7.170   2.779  0.3553 -0.8142  0.4692
  212MOL0     C27891   3.516   7.237   2.652  0.1985 -0.2813 -0.9763
  212MOL0     C27892   3.363   7.256   2.678  0.2394 -0.0927  0.6050
  212MOL0     C27893   3.276   7.301   2.557 -0.4866  0.2081 -0.9700
  212MOL0     C27894   3.272   7.222   2.426  0.4391  0.2083  0.9357
  212MOL0     C27895   3.266   7.076   2.442  0.1235  0.5556  0.4675
  212MOL0    Cl27896   3.128   7.023   2.533 -0.2194  0.1720  0.4320
  212MOL0     C27897   4.025   6.965   3.041 -0.1346  0.9484  0.1175
  212MOL0     C27898   4.110   6.902   3.129  0.1079 -0.1864 -0.0383
  212MOL0     O27899   4.497   7.037   3.224  0.2258  0.1503 -0.1851
  212MOL0     C27900   4.447   6.792   3.482  0.0650  1.2280  0.0370
  212MOL0     C27901   4.517   6.714   3.576 -0.1937  0.0390 -0.7896
  212MOL0     N27902   5.322   6.304   3.520 -0.2826  0.4536  0.1105
  212MOL0     N27903   5.440   6.311   3.566  0.2357  0.0990  0.0161
  212MOL0     C27904   6.349   6.744   3.205 -0.0887  0.2309 -0.5578
  212MOL0     C27905   6.440   6.824   3.148 -0.0502 -0.1366  0.5477
  212MOL0     C27906   6.776   7.023   2.979  0.4570 -0.6929 -0.0004
  212MOL0     C27907   6.769   7.162   2.990  0.0649  0.9757  0.3685
  212MOL0     C27908   6.838   7.247   2.899 -0.2057 -0.2432 -0.0297
  212MOL0     C27909   6.923   7.195   2.803  0.0878 -0.5383 -0.1828
  212MOL0     O27910   6.992   7.290   2.731  0.2575  0.5155 -0.2430
  212MOL0     C27911   7.125   7.251   2.686  0.7094 -0.1844 -0.0458
  212MOL0     C27912   7.206   7.380   2.652 -0.2060 -0.6260  0.2578
  212MOL0     C27913   7.341   7.328   2.594 -0.2535 -1.2431 -0.0379
  212MOL0     C27914   7.341   7.307   2.440 -0.5813  0.6503 -0.1365
  212MOL0     C27915   7.273   7.185   2.386  0.3607 -0.0818  0.0519
  212MOL0     C27916   7.229   7.080   2.348 -0.3000 -1.0600  0.1023
  212MOL0     C27917   6.922   7.059   2.787  0.2644 -0.6295  1.0452
  212MOL0     C27918   6.852   6.978   2.872  0.2140  0.0923 -0.2362
  212MOL0     H27919   6.590   6.952   3.426  0.7798  1.9281 -1.4779
  212MOL0     H27920   6.431   6.830   3.533  2.5635  3.0654  0.4174
  212MOL0     H27921   6.240   6.700   3.598  1.7633 -1.1544  1.6780
  212MOL0     H27922   6.353   6.581   3.558  0.3284  0.4699 -0.5901
  212MOL0     H27923   6.141   6.504   3.686  2.5819 -1.7859 -0.6605
  212MOL0     H27924   6.182   6.416   3.543  2.5257 -0.1014 -1.4117
  212MOL0     H27925   6.021   6.546   3.403 -0.3770 -0.0664  0.3166
  212MOL0     H27926   5.977   6.649   3.542 -0.1505 -0.4171 -1.1729
  212MOL0     H27927   5.970   6.344   3.532  1.1106  0.5768  1.9645
  212MOL0     H27928   5.879   6.440   3.651 -1.9662  2.9024 -0.9681
  212MOL0     H27929   5.724   6.353   3.478 -0.1531  0.6948  0.1646
  212MOL0     H27930   5.826   6.420   3.351  0.3788  0.1805 -0.1564
  212MOL0     H27931   5.620   6.516   3.395  2.3659 -0.9961 -3.2451
  212MOL0     H27932   5.755   6.645   3.401  1.4055 -0.5005 -0.0081
  212MOL0     H27933   5.746   6.635   3.643  1.3729 -1.5405 -0.7657
  212MOL0     H27934   5.594   6.699   3.578  0.0487 -0.5185 -2.2303
  212MOL0     H27935   5.550   6.548   3.750  1.0468  3.4713 -1.4503
  212MOL0     H27936   5.652   6.417   3.683  0.0778 -1.0732  0.3858
  212MOL0     H27937   5.371   6.625   3.530  0.4610 -0.9546 -1.2999
  212MOL0     H27938   5.066   6.385   3.433 -3.2685  0.3171  3.7491
  212MOL0     H27939   5.130   6.551   3.397 -3.3625  0.9677  0.4101
  212MOL0     H27940   5.100   6.601   3.651 -0.5992  1.1143 -0.0499
  212MOL0     H27941   5.072   6.428   3.674 -0.3919 -0.2407  0.4179
  212MOL0     H27942   4.900   6.595   3.468 -0.9052  0.5891 -0.7714
  212MOL0     H27943   4.866   6.442   3.543  1.3697 -0.5902 -0.3064
  212MOL0     H27944   4.887   6.717   3.678  0.1133 -0.4544 -1.7297
  212MOL0     H27945   4.875   6.566   3.770  0.7298 -0.8898 -0.2580
  212MOL0     H27946   4.827   6.791   3.447  0.5431 -1.8903  1.5335
  212MOL0     H27947   4.697   6.933   3.304 -1.6395 -0.5364 -2.2758
  212MOL0     H27948   4.276   7.190   3.211  0.0226 -2.3731  0.7358
  212MOL0     H27949   4.113   7.291   3.041 -1.7795  1.4050  1.1767
  212MOL0     H27950   3.748   7.095   2.973 -1.0666 -4.3941 -0.7749
  212MOL0     H27951   3.818   7.006   2.843  1.4031  0.6055 -0.5785
  212MOL0     H27952   3.781   7.162   2.676  3.0288  2.2362  0.1714
  212MOL0     H27953   3.766   7.296   2.775 -1.3316  0.2271 -0.4027
  212MOL0     H27954   3.545   7.222   2.869 -0.0444  1.8153 -1.0957
  212MOL0     H27955   3.555   7.065   2.796  2.6605 -1.3889  0.7271
  212MOL0     H27956   3.560   7.333   2.623  0.6513  0.3485  1.5673
  212MOL0     H27957   3.515   7.164   2.571  0.8509 -0.3304 -0.9415
  212MOL0     H27958   3.365   7.329   2.760  0.7838 -1.7480  2.1323
  212MOL0     H27959   3.314   7.167   2.717  0.6018 -0.1905  0.8393
  212MOL0     H27960   3.312   7.399   2.523 -1.1012  1.1742  0.9857
  212MOL0     H27961   3.179   7.316   2.606 -0.6938 -3.3892 -0.0081
  212MOL0     H27962   3.196   7.254   2.354  0.9336  1.6408  1.0118
  212MOL0     H27963   3.360   7.252   2.368 -1.3018  2.1348 -0.8820
  212MOL0     H27964   3.362   7.044   2.482  1.3084  1.2942 -1.6249
  212MOL0     H27965   3.261   7.026   2.344  2.8950  0.5775  0.2372
  212MOL0     H27966   3.942   6.909   2.998  0.1540  0.1726  0.5434
  212MOL0     H27967   4.096   6.805   3.175 -0.2544  0.6014  1.6207
  212MOL0     H27968   4.339   6.779   3.486  0.3832 -3.6251 -1.0220
  212MOL0     H27969   4.464   6.655   3.650  2.2731 -0.0908  0.9809
  212MOL0     H27970   6.272   6.687   3.155 -1.5644  2.2964 -0.7508
  212MOL0     H27971   6.442   6.817   3.039  1.1739 -1.0518  0.6174
  212MOL0     H27972   6.701   7.196   3.068 -0.3296 -1.9685  1.4128
  212MOL0     H27973   6.831   7.354   2.915  0.1213 -0.3964  1.2089
  212MOL0     H27974   7.117   7.200   2.589 -3.9150  0.6615 -0.3500
  212MOL0     H27975   7.178   7.194   2.762  0.4958  0.2089  0.4024
  212MOL0     H27976   7.152   7.446   2.583  0.0327 -0.9538 -0.2520
  212MOL0     H27977   7.234   7.444   2.736 -1.2229  0.8827 -0.5198
  212MOL0     H27978   7.369   7.239   2.650 -2.9173 -2.7660 -0.9553
  212MOL0     H27979   7.417   7.402   2.619 -0.1780 -1.7080  1.1757
  212MOL0     H27980   7.309   7.399   2.390  2.8164  0.7102 -2.5604
  212MOL0     H27981   7.448   7.291   2.423 -0.6510  1.0391 -1.0191
  212MOL0     H27982   7.197   6.978   2.339  1.9322 -1.9404  1.1938
  212MOL0     H27983   6.979   7.017   2.705 -3.3678 -3.5518 -0.2456
  212MOL0     H27984   6.853   6.870   2.857 -0.7663 -0.3362  2.3180
  213MOL0     O27985   7.068   8.318   7.814 -0.3631 -0.0682  0.0982
  213MOL0     C27986   7.111   8.330   7.929 -0.1459 -0.5008  0.8306
  213MOL0     O27987   7.035   8.357   8.040  0.3859 -0.2323 -0.2903
  213MOL0     C27988   6.888   8.350   8.039  0.1213  0.2631 -0.5738
  213MOL0     C27989   6.818   8.433   8.131 -0.2775 -0.0164 -0.7244
  213MOL0     C27990   6.680   8.441   8.133 -0.0544  0.6715 -0.8591
  213MOL0     C27991   6.602   8.361   8.045  0.7925 -0.5045  0.0921
  213MOL0     O27992   6.465   8.380   8.056  0.2522  0.1524 -1.5450
  213MOL0     C27993   6.385   8.365   7.930  0.3692  0.6045 -0.5120
  213MOL0     C27994   6.261   8.454   7.942 -0.1750  0.8228 -0.7749
  213MOL0     C27995   6.154   8.432   7.840 -0.2140  0.3227 -0.3102
  213MOL0     C27996   6.011   8.460   7.899 -0.2428  0.5337  0.7514
  213MOL0     C27997   5.893   8.416   7.817 -0.2301 -0.3466 -0.7831
  213MOL0     C27998   5.760   8.458   7.857  0.3556  0.6282  0.5209
  213MOL0     C27999   5.650   8.374   7.792 -0.8522 -0.2552  0.5942
  213MOL0     C28000   5.513   8.441   7.816 -0.2266  0.0317 -0.6870
  213MOL0     N28001   5.406   8.354   7.762 -0.0989  0.0446  0.2601
  213MOL0     C28002   5.310   8.295   7.840  0.0014 -0.5596 -0.7168
  213MOL0     C28003   5.234   8.233   7.748  0.1236 -0.1100  0.1657
  213MOL0     C28004   5.111   8.150   7.787  0.0988 -0.3672  1.2009
  213MOL0     C28005   5.001   8.212   7.689  0.7639 -0.3955 -0.1087
  213MOL0     C28006   4.859   8.173   7.713 -0.2730  0.4566  0.8104
  213MOL0     C28007   4.770   8.222   7.601  0.2612 -0.1605 -0.1238
  213MOL0     O28008   4.639   8.159   7.607 -0.2822 -0.3840 -0.3756
  213MOL0     C28009   4.536   8.243   7.560 -1.4385 -0.0326  0.5602
  213MOL0     C28010   4.411   8.249   7.628 -0.6365 -0.6089  0.6793
  213MOL0     C28011   4.307   8.324   7.568 -0.1491 -0.7342  0.2516
  213MOL0     C28012   4.336   8.419   7.464 -0.9129  0.4024 -0.2915
  213MOL0     C28013   4.242   8.522   7.427 -0.5073  0.5355  0.3078
  213MOL0     O28014   4.127   8.536   7.499  0.2354  0.3733  0.4738
  213MOL0     C28015   4.021   8.620   7.473  0.4157 -0.9386 -0.7518
  213MOL0     C28016   3.982   8.675   7.348  0.4645  0.1839 -1.2605
  213MOL0     C28017   3.857   8.740   7.332 -0.7718 -0.3758 -0.3770
  213MOL0     C28018   3.762   8.750   7.437  0.7493 -0.2153 -0.2651
  213MOL0     O28019   3.633   8.794   7.415 -0.5237 -0.0362  0.2577
  213MOL0     C28020   3.558   8.719   7.317 -0.3297 -0.2199 -0.5615
  213MOL0     C28021   3.408   8.742   7.339 -0.8920 -0.3046 -0.1386
  213MOL0     C28022   3.367   8.683   7.480 -0.3433 -0.1978 -0.1792
  213MOL0     C28023   3.216   8.705   7.497  0.4736  0.3697 -0.0145
  213MOL0     C28024   3.164   8.630   7.622  0.0201  0.6297 -0.1432
  213MOL0     C28025   3.023   8.673   7.654 -0.8199  0.0443 -0.4283
  213MOL0     C28026   2.986   8.819   7.660 -0.4479 -0.3237 -0.4603
  213MOL0     C28027   2.841   8.838   7.721 -0.0353  0.0388  0.4993
  213MOL0    Cl28028   2.719   8.745   7.619 -0.6538  0.0517 -0.0821
  213MOL0     C28029   3.796   8.704   7.562 -0.2985  0.2329 -0.2585
  213MOL0     C28030   3.922   8.632   7.578 -0.1125  0.5531  0.1398
  213MOL0     O28031   4.273   8.593   7.335 -0.0601 -0.0033  0.1294
  213MOL0     C28032   4.460   8.405   7.397 -0.0850 -0.2953  0.9630
  213MOL0     C28033   4.554   8.316   7.447 -0.5696 -0.9062  0.0268
  213MOL0     N28034   5.285   8.261   7.622 -1.0474  0.2332  0.5246
  213MOL0     N28035   5.396   8.323   7.634  0.4682 -0.0137 -0.0111
  213MOL0     C28036   6.670   8.285   7.945 -0.0820 -0.8874  0.4733
  213MOL0     C28037   6.811   8.277   7.949  0.3482  0.2199  0.1143
  213MOL0     C28038   7.263   8.327   7.946  0.2944 -1.0128 -0.2654
  213MOL0     C28039   7.320   8.323   8.079  0.5300  0.4317  0.7035
  213MOL0     C28040   7.454   8.333   8.094  0.4809 -0.5570  0.1456
  213MOL0     C28041   7.540   8.334   7.984  0.4088  0.0941  0.0422
  213MOL0     O28042   7.680   8.324   7.995  0.1891 -0.5006  0.0611
  213MOL0     C28043   7.735   8.275   8.116 -0.4786 -0.8122  0.5091
  213MOL0     C28044   7.888   8.285   8.101  0.3312 -0.5275 -0.0838
  213MOL0     C28045   7.961   8.214   8.213  0.7960 -0.1887 -0.6452
  213MOL0     C28046   8.108   8.255   8.216  0.3660 -0.3122  0.1205
  213MOL0     C28047   8.178   8.199   8.332 -0.4222  0.6253 -0.7334
  213MOL0     C28048   8.227   8.145   8.425 -0.0362  0.0945  0.0785
  213MOL0     C28049   7.490   8.324   7.850  0.4453  0.0726 -0.7525
  213MOL0     C28050   7.348   8.317   7.835 -0.3693  0.7159 -0.2602
  213MOL0     H28051   6.884   8.491   8.195 -1.1071  0.5019 -0.3232
  213MOL0     H28052   6.630   8.505   8.206 -1.2467 -1.3394  0.1742
  213MOL0     H28053   6.366   8.258   7.916 -0.0824  0.3265  1.7283
  213MOL0     H28054   6.447   8.402   7.848 -1.0387  1.8620 -1.0673
  213MOL0     H28055   6.301   8.556   7.945  0.9988  0.3616  0.3445
  213MOL0     H28056   6.218   8.431   8.040  0.2924  0.5076 -0.6417
  213MOL0     H28057   6.170   8.329   7.806 -0.2738  0.6140 -1.2485
  213MOL0     H28058   6.163   8.503   7.758 -1.5496  0.1425 -0.6349
  213MOL0     H28059   6.007   8.413   7.998  1.0116 -0.4435  0.3528
  213MOL0     H28060   6.000   8.567   7.919 -0.8839  0.5091  0.5410
  213MOL0     H28061   5.893   8.307   7.816  0.3005 -0.3545 -2.1533
  213MOL0     H28062   5.917   8.437   7.712 -0.7934 -1.0719 -1.0585
  213MOL0     H28063   5.758   8.565   7.834  3.6940  0.4040 -1.4408
  213MOL0     H28064   5.757   8.440   7.965  2.2504 -0.5058  0.4255
  213MOL0     H28065   5.669   8.364   7.685  1.7373 -1.4049  1.0856
  213MOL0     H28066   5.646   8.271   7.830  0.5692 -1.4523 -2.2159
  213MOL0     H28067   5.510   8.537   7.764 -2.3209  1.1234  1.2618
  213MOL0     H28068   5.506   8.475   7.920  4.8072  0.1444 -0.1377
  213MOL0     H28069   5.302   8.292   7.948 -1.3975  0.5634 -0.7636
  213MOL0     H28070   5.064   8.166   7.884 -1.5411  2.4733  0.0753
  213MOL0     H28071   5.136   8.045   7.773  3.8845  0.5038 -0.0892
  213MOL0     H28072   5.022   8.183   7.586  0.1678  1.0023 -0.6354
  213MOL0     H28073   5.019   8.319   7.695  2.3184 -0.4376 -2.6555
  213MOL0     H28074   4.856   8.064   7.713  0.1224  0.3408 -2.4770
  213MOL0     H28075   4.832   8.216   7.810 -1.2689 -0.2525  0.8609
  213MOL0     H28076   4.805   8.198   7.499  1.0544  0.8282 -0.0960
  213MOL0     H28077   4.754   8.330   7.606  0.7159  0.0511 -2.1134
  213MOL0     H28078   4.402   8.190   7.718  2.3647  0.2304  1.6593
  213MOL0     H28079   4.214   8.338   7.623 -1.0477 -0.6856 -1.2229
  213MOL0     H28080   4.047   8.669   7.262  1.2164 -0.4349 -0.6636
  213MOL0     H28081   3.833   8.792   7.240 -0.5261  1.6789  0.6642
  213MOL0     H28082   3.580   8.612   7.319 -2.0257 -0.6030  1.3307
  213MOL0     H28083   3.590   8.759   7.221 -0.3356 -0.4942 -0.6806
  213MOL0     H28084   3.362   8.688   7.255  1.0982 -2.1344 -0.1488
  213MOL0     H28085   3.393   8.849   7.325  2.7285  0.1453 -1.3946
  213MOL0     H28086   3.430   8.731   7.556  2.1314 -3.2697 -0.1118
  213MOL0     H28087   3.404   8.582   7.498  0.9670  0.3143  0.1415
  213MOL0     H28088   3.201   8.813   7.507 -0.5762  0.0313  3.2369
  213MOL0     H28089   3.164   8.663   7.411  3.0162 -2.2467 -0.4188
  213MOL0     H28090   3.220   8.662   7.710  0.8415 -1.1752  0.0287
  213MOL0     H28091   3.177   8.522   7.622 -0.7521  0.5190  0.6795
  213MOL0     H28092   3.005   8.636   7.755 -1.4933  1.4402 -0.0161
  213MOL0     H28093   2.959   8.616   7.585  0.9613 -2.7693  0.0436
  213MOL0     H28094   3.053   8.870   7.729 -0.0794 -1.9318  0.4085
  213MOL0     H28095   2.984   8.873   7.565  0.5650  0.2155 -0.1805
  213MOL0     H28096   2.823   8.945   7.725 -0.7485 -0.1065  1.9639
  213MOL0     H28097   2.848   8.798   7.822 -2.2510 -0.7859  0.3864
  213MOL0     H28098   3.740   8.720   7.654 -0.8304 -0.5766 -0.4358
  213MOL0     H28099   3.962   8.595   7.672  1.4495  0.0379 -0.6764
  213MOL0     H28100   4.470   8.451   7.299 -1.5768 -3.1930 -0.6667
  213MOL0     H28101   4.640   8.306   7.381  0.3854  0.4851  0.9786
  213MOL0     H28102   6.613   8.223   7.877 -2.9298  2.3989 -0.3960
  213MOL0     H28103   6.857   8.199   7.889 -1.7342 -2.3739  1.6848
  213MOL0     H28104   7.255   8.320   8.166 -0.0048  3.1938  0.4826
  213MOL0     H28105   7.508   8.324   8.188  1.0079 -0.2805 -0.1241
  213MOL0     H28106   7.716   8.170   8.140  2.7200 -1.8091 -0.8464
  213MOL0     H28107   7.721   8.335   8.206  0.3691 -4.2721  3.1821
  213MOL0     H28108   7.913   8.253   8.000  2.0252  0.9825 -0.2087
  213MOL0     H28109   7.927   8.388   8.105 -0.1695 -0.3560  0.5842
  213MOL0     H28110   7.953   8.105   8.209 -0.8319 -0.3233  2.8069
  213MOL0     H28111   7.917   8.251   8.306  0.5309 -0.7501 -0.5435
  213MOL0     H28112   8.166   8.217   8.131  2.0043  0.0489  1.0342
  213MOL0     H28113   8.113   8.365   8.222 -1.8375 -0.2081  0.8621
  213MOL0     H28114   8.279   8.105   8.509  0.0966 -0.4660 -0.2646
  213MOL0     H28115   7.560   8.330   7.767  1.0385 -0.2026 -0.2824
  213MOL0     H28116   7.300   8.308   7.738 -3.9600  4.1522  0.9525
  214MOL0     O28117   1.678   2.546   3.629 -0.1954  0.0657 -0.5186
  214MOL0     C28118   1.653   2.448   3.704 -0.3016  0.7761 -0.8389
  214MOL0     O28119   1.553   2.350   3.678 -0.1642 -0.0933 -0.8550
  214MOL0     C28120   1.508   2.353   3.549 -0.5766 -0.7104  0.0569
  214MOL0     C28121   1.561   2.267   3.451 -0.5963 -0.2222 -0.4508
  214MOL0     C28122   1.515   2.268   3.320  0.1399  0.1476 -0.4219
  214MOL0     C28123   1.417   2.361   3.284 -0.1116  1.0659 -0.2787
  214MOL0     O28124   1.374   2.350   3.156  0.2315  0.3738 -0.2636
  214MOL0     C28125   1.253   2.417   3.104  1.0985  0.0969  0.5572
  214MOL0     C28126   1.262   2.566   3.083 -0.0218  0.1430  0.7198
  214MOL0     C28127   1.129   2.628   3.107  0.4932  0.1644  0.0521
  214MOL0     C28128   1.129   2.780   3.069 -0.0306 -0.4812  0.8304
  214MOL0     C28129   0.992   2.836   3.033 -0.0279 -0.6638  0.1878
  214MOL0     C28130   0.892   2.809   3.155 -0.3730 -0.3185 -0.1981
  214MOL0     C28131   0.756   2.865   3.118 -0.3900  0.0869 -0.1866
  214MOL0     C28132   0.658   2.841   3.227  1.7263  0.4329  0.3727
  214MOL0     N28133   0.521   2.890   3.207 -0.1577  0.0045 -0.8697
  214MOL0     C28134   0.431   2.840   3.111  0.4686  0.2427 -0.6078
  214MOL0     C28135   0.323   2.927   3.109  0.1742 -0.1700 -0.1605
  214MOL0     C28136   0.189   2.907   3.033  0.3233  0.7090  0.2355
  214MOL0     C28137   0.072   2.953   3.124  0.6294 -0.0059  0.5300
  214MOL0     C28138  -0.060   2.958   3.052 -0.0892 -0.2313  0.3404
  214MOL0     C28139  -0.171   3.000   3.147  0.6704  0.0143 -0.5893
  214MOL0     O28140  -0.203   2.887   3.229 -0.2292  0.7051 -0.4281
  214MOL0     C28141  -0.320   2.900   3.305 -0.0359 -0.0475 -0.7654
  214MOL0     C28142  -0.371   3.028   3.353  0.7666 -0.0101  0.0524
  214MOL0     C28143  -0.484   3.050   3.427 -0.3583 -0.6589 -0.5590
  214MOL0     C28144  -0.545   2.940   3.468 -0.3050  0.0432  0.2402
  214MOL0     C28145  -0.670   2.939   3.552 -0.3618 -0.6041 -0.5183
  214MOL0     O28146  -0.752   3.048   3.519 -0.3145 -0.5135  0.3384
  214MOL0     C28147  -0.873   3.067   3.591 -0.1319  0.8640 -0.1536
  214MOL0     C28148  -0.948   2.956   3.632  0.9215 -0.4824  0.1197
  214MOL0     C28149  -1.074   2.985   3.686  0.5154  0.6300 -0.6491
  214MOL0     C28150  -1.134   3.109   3.706 -0.7772 -0.0898 -0.5248
  214MOL0     O28151  -1.253   3.115   3.762 -0.0423  0.0482  0.6799
  214MOL0     C28152  -1.309   3.240   3.792  0.4952  0.3311 -0.2491
  214MOL0     C28153  -1.423   3.189   3.880 -0.0153 -0.4520  0.4345
  214MOL0     C28154  -1.532   3.107   3.807  0.5562  0.7179  1.0910
  214MOL0     C28155  -1.628   3.037   3.915  0.3495 -0.5553 -0.2967
  214MOL0     C28156  -1.719   3.146   3.976  0.3697 -0.1607  0.3307
  214MOL0     C28157  -1.776   3.096   4.111 -0.8266  0.2549  0.8126
  214MOL0     C28158  -1.857   3.208   4.185  0.4128 -0.3992 -0.4025
  214MOL0     C28159  -1.943   3.156   4.310  0.2017 -0.1438  0.8824
  214MOL0    Cl28160  -2.082   3.053   4.251  0.0768  0.2467 -0.1906
  214MOL0     C28161  -1.056   3.219   3.664 -0.3596  0.0463  0.2775
  214MOL0     C28162  -0.927   3.198   3.606  0.3758  0.2086  0.5430
  214MOL0     O28163  -0.683   2.869   3.648 -0.5813 -0.5930 -1.2002
  214MOL0     C28164  -0.496   2.810   3.435 -0.6696  0.0833 -0.4329
  214MOL0     C28165  -0.386   2.790   3.353  0.6589 -0.5367  0.0077
  214MOL0     N28166   0.358   3.030   3.208 -0.0890  0.4560 -0.5737
  214MOL0     N28167   0.471   3.006   3.250 -0.0434 -0.5835  0.1427
  214MOL0     C28168   1.366   2.452   3.378  0.5905  0.0597 -0.5815
  214MOL0     C28169   1.415   2.451   3.512  0.0043  0.0989  0.3144
  214MOL0     C28170   1.703   2.438   3.841  0.3004  0.4907 -0.5872
  214MOL0     C28171   1.708   2.309   3.902 -0.2331  0.0659 -0.6917
  214MOL0     C28172   1.739   2.306   4.038  0.1862 -0.3248 -0.3518
  214MOL0     C28173   1.775   2.424   4.114  0.0654  0.1841  0.2077
  214MOL0     O28174   1.813   2.428   4.249 -0.0128  0.4232 -0.7370
  214MOL0     C28175   1.902   2.319   4.286  0.4081 -0.7405 -0.3778
  214MOL0     C28176   1.880   2.296   4.440 -0.6551  0.7081  0.2688
  214MOL0     C28177   1.734   2.263   4.467  0.1322 -0.3032  0.1888
  214MOL0     C28178   1.695   2.271   4.613  0.4370 -0.3597  0.7303
  214MOL0     C28179   1.719   2.139   4.680 -0.1673 -0.4641  0.3109
  214MOL0     C28180   1.752   2.037   4.740  0.3637 -0.1170 -0.0969
  214MOL0     C28181   1.783   2.547   4.044 -0.3091 -0.0530 -0.5370
  214MOL0     C28182   1.750   2.552   3.905 -0.3999  0.4073 -0.1056
  214MOL0     H28183   1.640   2.199   3.481  0.1792  0.4044 -1.0312
  214MOL0     H28184   1.560   2.188   3.262  1.2757  1.0353 -0.8093
  214MOL0     H28185   1.170   2.392   3.171  0.2461 -1.6284 -1.0461
  214MOL0     H28186   1.236   2.376   3.004  1.0677 -0.9843  0.9833
  214MOL0     H28187   1.310   2.589   2.988 -2.4086  1.0663 -0.3316
  214MOL0     H28188   1.319   2.610   3.165 -1.6226  1.7263  1.0601
  214MOL0     H28189   1.096   2.624   3.211 -1.7674 -2.3047 -0.6462
  214MOL0     H28190   1.047   2.589   3.045  0.0090  2.2561 -0.7232
  214MOL0     H28191   1.184   2.834   3.147  2.6447 -1.1684 -0.4638
  214MOL0     H28192   1.190   2.793   2.979 -1.9208  0.0229 -0.4193
  214MOL0     H28193   0.955   2.794   2.939  2.8761  0.2976 -1.5016
  214MOL0     H28194   1.001   2.943   3.014 -0.1442 -0.2402  2.3029
  214MOL0     H28195   0.933   2.857   3.244  0.3126 -0.9585 -0.1617
  214MOL0     H28196   0.874   2.703   3.177 -0.1943  0.0385  1.8862
  214MOL0     H28197   0.765   2.970   3.090 -0.2895 -0.1271 -0.9651
  214MOL0     H28198   0.711   2.813   3.033  0.3995 -0.6679 -0.1622
  214MOL0     H28199   0.690   2.890   3.320  2.3116 -0.5022  0.6852
  214MOL0     H28200   0.637   2.735   3.244  4.1890 -0.1986 -0.1637
  214MOL0     H28201   0.442   2.744   3.060 -0.6218 -0.5684  0.6036
  214MOL0     H28202   0.169   2.806   2.996 -3.0155  2.1349 -2.3093
  214MOL0     H28203   0.191   2.978   2.951  2.2830 -0.3618 -0.7176
  214MOL0     H28204   0.092   3.053   3.163 -6.4638  3.5467 -2.9668
  214MOL0     H28205   0.060   2.877   3.202  1.5195 -1.3263 -0.5734
  214MOL0     H28206  -0.048   3.026   2.967  2.2296 -1.1297 -0.1246
  214MOL0     H28207  -0.079   2.860   3.009  2.6610 -0.9223  0.5499
  214MOL0     H28208  -0.260   3.033   3.094 -0.7189 -0.8474  1.1219
  214MOL0     H28209  -0.136   3.074   3.220 -1.7251 -0.8312  1.5753
  214MOL0     H28210  -0.305   3.113   3.337  2.8107 -1.2852  1.3217
  214MOL0     H28211  -0.510   3.150   3.459  1.0898 -0.8010  1.2626
  214MOL0     H28212  -0.923   2.851   3.626 -1.6350 -1.0497 -2.8923
  214MOL0     H28213  -1.125   2.899   3.728 -3.5586  2.9918 -0.2320
  214MOL0     H28214  -1.349   3.289   3.702  0.4062 -0.9157 -0.9170
  214MOL0     H28215  -1.248   3.305   3.856  0.8996 -0.6546  0.3921
  214MOL0     H28216  -1.468   3.281   3.917 -0.8401 -0.4626 -0.5086
  214MOL0     H28217  -1.384   3.131   3.965  0.0106 -1.4046 -0.2160
  214MOL0     H28218  -1.492   3.029   3.742 -2.1139  0.7850 -0.8312
  214MOL0     H28219  -1.596   3.179   3.756  0.3241  0.9809  1.7399
  214MOL0     H28220  -1.682   2.959   3.861 -0.1410 -0.8566  0.6112
  214MOL0     H28221  -1.573   2.987   3.996  1.4340  2.1039  0.7192
  214MOL0     H28222  -1.794   3.181   3.905  1.6685  1.4995 -0.3107
  214MOL0     H28223  -1.658   3.236   3.990  0.7476  0.0187 -1.9399
  214MOL0     H28224  -1.703   3.041   4.172 -0.4930 -1.9161 -1.3826
  214MOL0     H28225  -1.852   3.022   4.085 -0.6998 -0.3524  2.0910
  214MOL0     H28226  -1.789   3.279   4.233  0.4412  0.2115 -1.3210
  214MOL0     H28227  -1.920   3.253   4.108  0.0527 -0.5728 -0.2135
  214MOL0     H28228  -1.985   3.238   4.368  0.5127  1.5695 -1.1598
  214MOL0     H28229  -1.875   3.098   4.373  1.1848  0.3877  0.3471
  214MOL0     H28230  -1.102   3.317   3.671 -2.0122 -0.6696 -0.1260
  214MOL0     H28231  -0.874   3.292   3.592 -0.6963  1.0419  1.7642
  214MOL0     H28232  -0.551   2.719   3.455 -1.9519  0.2666 -2.7294
  214MOL0     H28233  -0.358   2.690   3.319 -0.8930 -0.9466 -0.1261
  214MOL0     H28234   1.290   2.525   3.354 -1.4493 -1.7746 -0.0725
  214MOL0     H28235   1.367   2.516   3.585 -2.1147 -0.3932 -0.5549
  214MOL0     H28236   1.670   2.231   3.837 -1.4001  0.4888 -0.5492
  214MOL0     H28237   1.716   2.214   4.092 -0.9243  0.8065  1.1946
  214MOL0     H28238   2.004   2.354   4.271  0.1551  0.6321  0.9010
  214MOL0     H28239   1.902   2.223   4.233  0.8339 -0.6001 -0.6313
  214MOL0     H28240   1.951   2.222   4.478  0.8537  2.8752  1.8737
  214MOL0     H28241   1.905   2.390   4.491  0.4960  1.1191 -0.9785
  214MOL0     H28242   1.706   2.164   4.431 -3.5360  0.6920 -0.1326
  214MOL0     H28243   1.670   2.340   4.424 -2.1972 -2.3206 -0.1335
  214MOL0     H28244   1.741   2.356   4.663  1.2979 -0.1246 -0.4119
  214MOL0     H28245   1.586   2.283   4.611  0.3872 -0.5578 -2.2261
  214MOL0     H28246   1.770   1.950   4.801 -3.4028 -0.4383  0.7689
  214MOL0     H28247   1.806   2.633   4.105 -2.3828 -0.3404  0.7566
  214MOL0     H28248   1.751   2.645   3.849 -1.0168  1.1270  1.0292
  215MOL0     O28249   2.860   3.609   5.012  0.5702 -0.9381  0.0733
  215MOL0     C28250   2.920   3.519   5.073 -0.3752  0.5937 -0.2496
  215MOL0     O28251   2.866   3.405   5.130  0.2979  0.4395 -0.0403
  215MOL0     C28252   2.738   3.378   5.106  0.0013 -0.3111 -0.5193
  215MOL0     C28253   2.663   3.334   5.214  0.0639  0.9507 -0.8139
  215MOL0     C28254   2.529   3.296   5.197  0.3226 -0.4775 -0.6001
  215MOL0     C28255   2.467   3.296   5.067 -0.7999 -0.6384  0.9544
  215MOL0     O28256   2.341   3.249   5.052  0.0535 -0.6231  1.1312
  215MOL0     C28257   2.244   3.254   5.164 -0.3927  0.3514  0.2142
  215MOL0     C28258   2.101   3.225   5.122 -0.3653 -0.7557 -0.0763
  215MOL0     C28259   2.011   3.253   5.246 -0.1242 -0.2679  0.3062
  215MOL0     C28260   1.855   3.231   5.213 -0.7995  0.1295  0.1868
  215MOL0     C28261   1.763   3.214   5.337  0.0191 -0.0936  0.4325
  215MOL0     C28262   1.748   3.350   5.416 -0.2845  0.9185  0.1691
  215MOL0     C28263   1.693   3.312   5.553 -0.3621  0.8538  0.3243
  215MOL0     C28264   1.557   3.244   5.542 -0.2806 -0.4322 -0.0635
  215MOL0     N28265   1.457   3.334   5.476  0.0021  0.0144  0.4663
  215MOL0     C28266   1.370   3.416   5.544 -0.1148 -0.1044 -0.0030
  215MOL0     C28267   1.273   3.454   5.463  0.3082  0.3473  0.7055
  215MOL0     C28268   1.165   3.554   5.481  0.2380  0.8263  0.1604
  215MOL0     C28269   1.048   3.469   5.534 -0.5206  0.2716 -0.8748
  215MOL0     C28270   0.997   3.368   5.428 -0.2800  0.5477  0.3905
  215MOL0     C28271   0.877   3.279   5.470 -0.7694 -0.5628  0.2102
  215MOL0     O28272   0.767   3.372   5.493 -0.5838 -0.0067  0.4737
  215MOL0     C28273   0.652   3.323   5.549 -0.6128  0.2570 -0.2660
  215MOL0     C28274   0.637   3.194   5.610 -0.0873  0.5143  0.4249
  215MOL0     C28275   0.530   3.179   5.695  0.1388  0.6553  0.2075
  215MOL0     C28276   0.430   3.269   5.721  0.0907 -0.1650 -0.2540
  215MOL0     C28277   0.323   3.243   5.824  0.0822 -0.0276 -0.7701
  215MOL0     O28278   0.307   3.108   5.870 -0.4673 -0.1116  0.1673
  215MOL0     C28279   0.209   3.081   5.958 -0.0941  0.1907  0.5228
  215MOL0     C28280   0.185   3.149   6.074 -0.2409 -1.3213 -1.5360
  215MOL0     C28281   0.071   3.119   6.156  0.3659  0.2555  0.4794
  215MOL0     C28282  -0.007   3.010   6.118 -0.0019  0.1423 -0.0429
  215MOL0     O28283  -0.101   2.971   6.208 -1.1790 -0.7122 -0.1030
  215MOL0     C28284  -0.219   3.044   6.204 -0.6603 -0.3771 -0.2514
  215MOL0     C28285  -0.316   3.019   6.325 -0.5438 -0.0608  0.3267
  215MOL0     C28286  -0.449   3.098   6.315 -0.5832  1.0165 -0.1719
  215MOL0     C28287  -0.545   3.059   6.435  0.8056  0.1369  0.2741
  215MOL0     C28288  -0.685   3.093   6.389  0.3058 -1.1137 -0.4941
  215MOL0     C28289  -0.805   3.020   6.459 -0.0915  0.2572  0.8877
  215MOL0     C28290  -0.947   3.080   6.430 -0.3146  0.2894  0.1544
  215MOL0     C28291  -1.060   2.997   6.489  0.1014 -0.7774 -0.4941
  215MOL0    Cl28292  -1.211   3.083   6.442  0.5291 -0.4642 -0.1592
  215MOL0     C28293   0.033   2.934   6.009  0.4469 -0.3701 -1.0475
  215MOL0     C28294   0.134   2.978   5.927 -0.8241  0.9411  0.2872
  215MOL0     O28295   0.255   3.338   5.854 -0.1179  0.2098  0.1463
  215MOL0     C28296   0.441   3.395   5.652 -0.2642 -0.4146 -0.4325
  215MOL0     C28297   0.555   3.417   5.575 -0.3372 -0.2111  0.3062
  215MOL0     N28298   1.315   3.406   5.337  0.2557 -0.2116  0.5458
  215MOL0     N28299   1.426   3.334   5.345  0.6656  0.1283  0.7132
  215MOL0     C28300   2.547   3.343   4.959 -0.4027 -0.1325 -0.3555
  215MOL0     C28301   2.683   3.384   4.978  0.6871 -0.4033  0.3759
  215MOL0     C28302   3.057   3.543   5.116 -0.4902 -0.8444  0.1388
  215MOL0     C28303   3.125   3.666   5.084 -0.4256 -0.5023 -0.0199
  215MOL0     C28304   3.263   3.685   5.109  0.2078 -0.6756  0.3541
  215MOL0     C28305   3.329   3.584   5.173  0.2232  0.3113 -0.5917
  215MOL0     O28306   3.465   3.583   5.187 -0.2903  0.0883  0.7942
  215MOL0     C28307   3.546   3.681   5.112 -0.5052 -0.1824 -0.1063
  215MOL0     C28308   3.695   3.640   5.124 -0.6901 -0.5884  0.0263
  215MOL0     C28309   3.809   3.734   5.057 -0.6140  0.7142  0.3265
  215MOL0     C28310   3.951   3.657   5.054  1.5869  0.4319 -0.4316
  215MOL0     C28311   3.998   3.657   5.194  0.5402 -0.0374 -0.1362
  215MOL0     C28312   4.010   3.661   5.313  0.0921  0.1034 -0.4234
  215MOL0     C28313   3.258   3.473   5.227 -1.1787  0.6440  1.0172
  215MOL0     C28314   3.128   3.448   5.198 -0.8769  0.0466 -1.0525
  215MOL0     H28315   2.703   3.307   5.311  1.3626  0.7529 -1.3913
  215MOL0     H28316   2.473   3.263   5.284  2.7148 -1.2963  0.7128
  215MOL0     H28317   2.247   3.341   5.230 -0.6248 -1.5455  2.8819
  215MOL0     H28318   2.271   3.176   5.235 -0.0072 -0.1647 -0.4859
  215MOL0     H28319   2.087   3.121   5.092 -0.7984 -0.9923  0.9283
  215MOL0     H28320   2.073   3.296   5.043  1.2260  0.1116  0.0958
  215MOL0     H28321   2.033   3.353   5.285 -1.4686 -0.3862  1.4480
  215MOL0     H28322   2.039   3.187   5.329 -0.8846  1.0153  1.6198
  215MOL0     H28323   1.812   3.321   5.168 -1.1250  1.2686  2.6298
  215MOL0     H28324   1.839   3.145   5.147  1.0025  0.5566 -0.8959
  215MOL0     H28325   1.810   3.141   5.404 -2.1792 -2.4149 -0.4244
  215MOL0     H28326   1.669   3.169   5.304  0.8611 -1.2285 -0.5090
  215MOL0     H28327   1.691   3.424   5.359 -0.6349  0.6141  0.1199
  215MOL0     H28328   1.846   3.392   5.441 -0.9787  4.7552 -2.6273
  215MOL0     H28329   1.751   3.242   5.614  1.2399  1.3164 -0.5990
  215MOL0     H28330   1.690   3.404   5.611 -1.5361  1.4699 -0.6729
  215MOL0     H28331   1.516   3.224   5.641  0.3569 -1.7540 -0.0372
  215MOL0     H28332   1.554   3.151   5.485 -1.0287 -0.0532 -0.6480
  215MOL0     H28333   1.376   3.455   5.645 -0.6320  0.0904 -0.0465
  215MOL0     H28334   1.141   3.603   5.386  1.0634 -1.1014 -1.1156
  215MOL0     H28335   1.199   3.629   5.552  0.7057  1.4527 -0.7071
  215MOL0     H28336   0.976   3.542   5.573 -1.7353 -0.5205 -1.5742
  215MOL0     H28337   1.092   3.411   5.615 -0.0020  0.6519 -0.8847
  215MOL0     H28338   0.968   3.425   5.339 -3.3367  0.8243  1.4548
  215MOL0     H28339   1.082   3.306   5.399 -0.7935  0.1826 -0.3474
  215MOL0     H28340   0.900   3.216   5.556  0.0276 -0.9393 -0.2708
  215MOL0     H28341   0.853   3.213   5.386  2.8376 -1.6360 -0.1298
  215MOL0     H28342   0.719   3.126   5.593  0.3952  0.8870  1.2255
  215MOL0     H28343   0.528   3.082   5.744  2.9822  0.2175 -0.3766
  215MOL0     H28344   0.242   3.234   6.110 -1.6648 -0.7681 -0.4494
  215MOL0     H28345   0.048   3.168   6.250 -1.0337 -0.4399  0.5371
  215MOL0     H28346  -0.275   3.007   6.117 -3.1264  3.0894 -0.3652
  215MOL0     H28347  -0.194   3.151   6.207  1.4264 -0.7137 -2.7108
  215MOL0     H28348  -0.263   3.056   6.413  3.6535 -0.4200 -1.7824
  215MOL0     H28349  -0.333   2.911   6.324  0.3880 -0.3501 -3.6686
  215MOL0     H28350  -0.492   3.061   6.221  0.2364 -1.0236  0.2078
  215MOL0     H28351  -0.435   3.207   6.310 -2.3430  1.2627 -0.1983
  215MOL0     H28352  -0.545   2.952   6.458 -0.7114 -0.2319 -1.2388
  215MOL0     H28353  -0.511   3.105   6.528 -1.6480 -0.5433  1.5919
  215MOL0     H28354  -0.688   3.081   6.280  0.0646  1.6332 -0.8658
  215MOL0     H28355  -0.686   3.201   6.405 -2.1854 -1.0102 -0.9361
  215MOL0     H28356  -0.797   3.028   6.568  0.6368 -0.1453  0.8637
  215MOL0     H28357  -0.792   2.913   6.442  0.8608  0.3434  1.0523
  215MOL0     H28358  -0.960   3.175   6.481 -2.2570  0.1131  0.0832
  215MOL0     H28359  -0.971   3.109   6.327 -1.7448 -0.8874  0.1165
  215MOL0     H28360  -1.060   2.997   6.598  0.0454 -0.9078 -0.4945
  215MOL0     H28361  -1.038   2.894   6.459  3.6999 -0.9297  2.0217
  215MOL0     H28362  -0.032   2.849   5.990 -1.6098  1.1563 -1.1056
  215MOL0     H28363   0.156   2.929   5.833  0.2979 -0.0567  1.0376
  215MOL0     H28364   0.372   3.475   5.673 -1.7696 -1.9669  0.7773
  215MOL0     H28365   0.576   3.519   5.544  0.6133 -0.7893 -1.0442
  215MOL0     H28366   2.505   3.340   4.859 -0.3209 -1.9456 -0.3665
  215MOL0     H28367   2.736   3.399   4.885 -3.1283 -0.3309 -1.9773
  215MOL0     H28368   3.071   3.728   5.013 -1.6999 -0.9577  0.5166
  215MOL0     H28369   3.316   3.769   5.066 -0.0245 -1.0871 -0.7657
  215MOL0     H28370   3.525   3.780   5.154 -1.7622  0.2665 -1.7233
  215MOL0     H28371   3.533   3.682   5.004  0.2350 -0.1762 -0.2002
  215MOL0     H28372   3.718   3.643   5.231 -0.8159  2.9734  0.0558
  215MOL0     H28373   3.702   3.537   5.086 -1.7704 -0.3163 -0.9690
  215MOL0     H28374   3.821   3.818   5.126  1.1925  0.0002  0.9394
  215MOL0     H28375   3.783   3.761   4.954  0.3984 -0.8000 -0.3744
  215MOL0     H28376   3.946   3.556   5.011  1.5103  1.4632 -2.9795
  215MOL0     H28377   4.019   3.709   4.987  2.2265 -1.8186 -1.6536
  215MOL0     H28378   4.017   3.672   5.419 -1.1978  1.6469 -0.4545
  215MOL0     H28379   3.330   3.406   5.273  0.1271 -1.7482 -3.7623
  215MOL0     H28380   3.094   3.350   5.231  0.7350 -0.6110 -1.2298
  216MOL0     O28381   1.563  11.060   3.538  0.1625  0.7881  0.0686
  216MOL0     C28382   1.631  11.148   3.591 -0.2393  0.0759  0.0958
  216MOL0     O28383   1.585  11.245   3.666 -0.0249  0.2825  0.2973
  216MOL0     C28384   1.447  11.269   3.671 -0.7006 -0.2503 -0.1497
  216MOL0     C28385   1.363  11.278   3.553 -0.5911  0.7651  0.0072
  216MOL0     C28386   1.227  11.309   3.562 -0.1961 -0.0488 -0.1006
  216MOL0     C28387   1.179  11.342   3.690 -1.0558  0.2358 -0.0996
  216MOL0     O28388   1.046  11.352   3.715  0.4000 -0.4177  0.7721
  216MOL0     C28389   1.007  11.467   3.786  0.3630  0.3736  0.7082
  216MOL0     C28390   0.852  11.481   3.773  0.0460  0.0594 -0.4058
  216MOL0     C28391   0.790  11.574   3.865  0.3277  0.2952 -0.5424
  216MOL0     C28392   0.645  11.560   3.845  0.5917 -0.5361 -0.1978
  216MOL0     C28393   0.561  11.679   3.872 -0.1985 -0.4481  0.0484
  216MOL0     C28394   0.414  11.664   3.828 -0.7196 -0.3038 -1.4274
  216MOL0     C28395   0.323  11.766   3.907 -0.1125 -0.2986  0.2557
  216MOL0     C28396   0.178  11.719   3.919  0.1604 -0.2976  0.4288
  216MOL0     N28397   0.169  11.628   4.028 -0.0751 -0.9242 -0.1627
  216MOL0     C28398   0.144  11.494   4.027  0.0658 -1.0581  0.7008
  216MOL0     C28399   0.136  11.447   4.151 -0.2686 -0.3333 -0.5761
  216MOL0     C28400   0.090  11.309   4.190  0.8656  0.0288 -0.1248
  216MOL0     C28401  -0.060  11.324   4.186  0.5318 -0.0714  0.7333
  216MOL0     C28402  -0.120  11.416   4.300 -0.2407  0.6004 -0.5144
  216MOL0     C28403  -0.271  11.384   4.321  1.5569 -0.2488 -0.8641
  216MOL0     O28404  -0.354  11.399   4.200 -0.3242  0.3853 -0.6608
  216MOL0     C28405  -0.496  11.385   4.218 -0.8230 -0.9547 -0.0690
  216MOL0     C28406  -0.557  11.352   4.339 -0.1901  0.6782  0.1537
  216MOL0     C28407  -0.695  11.340   4.353  0.2310 -0.5447  0.2126
  216MOL0     C28408  -0.772  11.350   4.238  1.2596 -0.0109 -0.3073
  216MOL0     C28409  -0.916  11.341   4.250  0.0275  0.8731  0.2354
  216MOL0     O28410  -0.964  11.331   4.376 -0.4096 -0.4952 -0.3194
  216MOL0     C28411  -1.095  11.312   4.398 -0.2629 -0.3576  0.5340
  216MOL0     C28412  -1.152  11.197   4.357 -0.0743 -0.7848 -0.2997
  216MOL0     C28413  -1.294  11.180   4.375 -0.5600 -1.2674 -0.1699
  216MOL0     C28414  -1.369  11.283   4.431  0.2339 -0.4655 -0.1201
  216MOL0     O28415  -1.497  11.261   4.447  0.7006  0.3859 -0.2597
  216MOL0     C28416  -1.573  11.263   4.320 -0.8716  0.3524  0.0916
  216MOL0     C28417  -1.719  11.272   4.357 -0.0811  0.2228  0.3115
  216MOL0     C28418  -1.775  11.132   4.392  0.1152  0.6487  0.0127
  216MOL0     C28419  -1.926  11.121   4.410  0.8390 -0.5530 -0.1254
  216MOL0     C28420  -1.979  10.977   4.445 -0.1521 -0.8955  0.3396
  216MOL0     C28421  -2.120  10.973   4.504  0.4850 -0.6620 -0.0175
  216MOL0     C28422  -2.227  11.006   4.393  0.0768 -0.2036 -1.5000
  216MOL0     C28423  -2.375  11.042   4.440  0.0629  0.4054 -0.8457
  216MOL0    Cl28424  -2.460  11.119   4.305  0.4254  0.4477  0.2876
  216MOL0     C28425  -1.312  11.409   4.477 -0.2989  0.5328  0.7109
  216MOL0     C28426  -1.174  11.411   4.458  0.0525 -0.6985  0.0616
  216MOL0     O28427  -0.986  11.356   4.146 -0.0106 -0.2572 -0.7904
  216MOL0     C28428  -0.705  11.369   4.115  0.3566  0.6677  0.9024
  216MOL0     C28429  -0.573  11.377   4.104 -0.3953  0.2499  0.6321
  216MOL0     N28430   0.164  11.556   4.229 -0.0883  0.8626  0.3723
  216MOL0     N28431   0.178  11.662   4.160  0.4475 -0.1001  0.0259
  216MOL0     C28432   1.268  11.327   3.804  0.6191 -0.1264 -0.4432
  216MOL0     C28433   1.399  11.299   3.794 -0.3937 -0.2230  0.4541
  216MOL0     C28434   1.777  11.143   3.554  0.0890  0.3888  0.7653
  216MOL0     C28435   1.819  11.061   3.451 -0.2990 -0.5319 -0.4075
  216MOL0     C28436   1.955  11.030   3.437  0.5697 -0.1180  0.3049
  216MOL0     C28437   2.046  11.086   3.525 -0.1339  0.2577 -0.5931
  216MOL0     O28438   2.175  11.046   3.496 -0.2776  0.2551  0.3651
  216MOL0     C28439   2.269  11.153   3.485  0.6685 -0.9683  0.4003
  216MOL0     C28440   2.395  11.096   3.438 -0.2938 -0.3569  0.1480
  216MOL0     C28441   2.504  11.203   3.409 -0.4582  0.2993  0.8735
  216MOL0     C28442   2.621  11.118   3.346  0.0563 -0.1236 -0.1106
  216MOL0     C28443   2.736  11.198   3.314 -0.3318 -1.2617  0.7724
  216MOL0     C28444   2.836  11.254   3.289 -0.5359 -0.4225  0.4402
  216MOL0     C28445   2.017  11.164   3.627  0.2696  0.3187 -0.7383
  216MOL0     C28446   1.880  11.187   3.644  0.1281 -0.3411 -0.5396
  216MOL0     H28447   1.404  11.247   3.458 -2.5010 -1.4910 -0.1613
  216MOL0     H28448   1.161  11.318   3.476  0.6971 -2.0974 -1.0934
  216MOL0     H28449   1.065  11.553   3.752  4.1574 -0.9691  3.1228
  216MOL0     H28450   1.026  11.444   3.891  0.8471  1.0510  0.7690
  216MOL0     H28451   0.812  11.380   3.790  2.5466 -0.8907  0.2398
  216MOL0     H28452   0.834  11.511   3.669 -0.4430 -2.0318 -0.9703
  216MOL0     H28453   0.825  11.675   3.844 -1.9753  1.7135  1.8690
  216MOL0     H28454   0.811  11.555   3.971  0.7649 -1.5283 -0.9261
  216MOL0     H28455   0.634  11.540   3.738  0.0065  0.6177 -0.3678
  216MOL0     H28456   0.598  11.479   3.903  0.9136  0.0441  0.9136
  216MOL0     H28457   0.585  11.757   3.799 -3.2642 -0.9187 -1.6564
  216MOL0     H28458   0.558  11.702   3.978 -0.1554 -1.2626  0.2326
  216MOL0     H28459   0.375  11.565   3.853 -2.1439  0.0041 -2.3243
  216MOL0     H28460   0.416  11.677   3.720  1.2924  0.3519 -1.3592
  216MOL0     H28461   0.349  11.785   4.011  0.2725  0.6539 -0.0029
  216MOL0     H28462   0.326  11.863   3.855 -0.5719  0.7678  2.1040
  216MOL0     H28463   0.139  11.670   3.830  0.9106 -0.8754  0.4024
  216MOL0     H28464   0.111  11.798   3.954 -1.4801 -2.8534  3.5395
  216MOL0     H28465   0.139  11.436   3.935 -2.7536 -0.7877  0.5900
  216MOL0     H28466   0.127  11.286   4.291  0.5591 -0.3586 -0.0988
  216MOL0     H28467   0.125  11.225   4.130 -1.5313 -1.6805  0.6789
  216MOL0     H28468  -0.103  11.224   4.187  1.0954 -0.3271  0.2396
  216MOL0     H28469  -0.081  11.378   4.093 -0.1629  0.9286  1.4423
  216MOL0     H28470  -0.065  11.402   4.393  0.8122  0.0620 -1.2062
  216MOL0     H28471  -0.107  11.520   4.268  1.9067  1.3089  2.2263
  216MOL0     H28472  -0.318  11.453   4.392  1.0982 -0.0437 -1.3585
  216MOL0     H28473  -0.279  11.283   4.362  0.6303  0.2570  0.2583
  216MOL0     H28474  -0.501  11.337   4.431 -0.6406 -2.4303  0.0242
  216MOL0     H28475  -0.736  11.315   4.450  1.5485  0.5220  1.1021
  216MOL0     H28476  -1.090  11.122   4.308  1.7814  0.1451  0.5009
  216MOL0     H28477  -1.340  11.096   4.326  0.6254 -0.2977 -3.1667
  216MOL0     H28478  -1.546  11.180   4.255 -1.2487  1.4749 -1.5715
  216MOL0     H28479  -1.561  11.358   4.266  1.0994 -0.3563 -0.7917
  216MOL0     H28480  -1.769  11.307   4.266  0.1824  0.2295  0.1673
  216MOL0     H28481  -1.725  11.340   4.443  1.6432 -1.1048  1.5401
  216MOL0     H28482  -1.727  11.094   4.483 -0.6580  0.5687  0.4049
  216MOL0     H28483  -1.747  11.062   4.313 -3.3938 -0.2432 -0.6232
  216MOL0     H28484  -1.959  11.187   4.491  1.4914 -0.3685 -0.0052
  216MOL0     H28485  -1.979  11.146   4.318 -2.6307 -0.1588  1.7760
  216MOL0     H28486  -1.921  10.943   4.532 -0.3241  1.0656  1.2772
  216MOL0     H28487  -1.963  10.911   4.360  0.6934  0.7736 -0.8625
  216MOL0     H28488  -2.123  11.042   4.589  0.8762 -3.1357  2.1483
  216MOL0     H28489  -2.135  10.876   4.554  1.4772 -2.2380 -2.5846
  216MOL0     H28490  -2.186  11.098   4.351  1.9655  0.2408  1.0982
  216MOL0     H28491  -2.234  10.919   4.326 -0.5228 -0.2197 -1.4201
  216MOL0     H28492  -2.362  11.116   4.519 -1.6565  1.8539 -1.8452
  216MOL0     H28493  -2.424  10.954   4.483 -1.7233  1.7708  0.0684
  216MOL0     H28494  -1.380  11.487   4.510 -1.4832  1.6104 -3.6001
  216MOL0     H28495  -1.124  11.503   4.486  1.5180 -1.2956 -0.4694
  216MOL0     H28496  -0.758  11.383   4.021  2.4328  0.9240 -0.2930
  216MOL0     H28497  -0.524  11.401   4.011 -0.5825 -0.6630  0.2813
  216MOL0     H28498   1.228  11.331   3.904 -0.3860  0.9746 -0.8619
  216MOL0     H28499   1.460  11.300   3.884  1.8047 -1.4886 -0.9310
  216MOL0     H28500   1.748  11.030   3.374  0.6389  2.1837 -2.5576
  216MOL0     H28501   1.981  10.971   3.351 -0.6193 -0.0086 -0.1565
  216MOL0     H28502   2.273  11.197   3.585  0.2414  0.5588 -0.2247
  216MOL0     H28503   2.237  11.233   3.418  0.2581 -0.9070  0.6666
  216MOL0     H28504   2.430  11.032   3.520  2.2996  3.0084  1.9175
  216MOL0     H28505   2.369  11.027   3.357  2.4635  1.0311 -2.0633
  216MOL0     H28506   2.535  11.248   3.504 -2.5938  0.1011  1.7145
  216MOL0     H28507   2.467  11.286   3.349 -1.8353 -0.9159 -0.0236
  216MOL0     H28508   2.647  11.031   3.406  0.5831 -0.6213 -1.0332
  216MOL0     H28509   2.581  11.077   3.252 -2.8399  1.5422  0.2617
  216MOL0     H28510   2.930  11.306   3.284  0.1570 -1.3143  2.7141
  216MOL0     H28511   2.085  11.192   3.707 -0.6117  1.0318 -0.2260
  216MOL0     H28512   1.871  11.238   3.740  0.2704 -2.0871  0.4310
  217MOL0     O28513   4.883   0.828   3.374  0.5014  0.5217  0.1884
  217MOL0     C28514   4.906   0.848   3.253  0.6938  0.9977 -0.3564
  217MOL0     O28515   4.812   0.853   3.148  0.0556  0.5021  0.7263
  217MOL0     C28516   4.678   0.843   3.172  0.6993 -0.5645  0.2310
  217MOL0     C28517   4.592   0.781   3.082  0.7383  0.0516  0.1250
  217MOL0     C28518   4.450   0.784   3.098  0.5902  0.4712 -0.5370
  217MOL0     C28519   4.394   0.850   3.210 -0.0080 -0.2438  0.0304
  217MOL0     O28520   4.259   0.829   3.235  0.3695 -0.4734  0.5897
  217MOL0     C28521   4.191   0.941   3.294 -0.4657 -0.2129  0.2425
  217MOL0     C28522   4.056   0.950   3.220 -1.1974 -0.8743 -0.5502
  217MOL0     C28523   3.954   0.857   3.282 -0.0206 -0.5061  0.0067
  217MOL0     C28524   3.829   0.838   3.193 -0.9081  0.2559 -0.1907
  217MOL0     C28525   3.729   0.753   3.273 -0.4528  0.3831  0.0088
  217MOL0     C28526   3.594   0.729   3.202  0.0065 -0.1208 -0.0225
  217MOL0     C28527   3.621   0.702   3.046  0.5838 -0.6886 -0.1992
  217MOL0     C28528   3.482   0.651   2.998  0.0380  0.3448 -1.0240
  217MOL0     N28529   3.383   0.757   2.993  0.6855 -0.2350  0.5194
  217MOL0     C28530   3.368   0.841   2.885 -0.5051 -0.7271  0.6464
  217MOL0     C28531   3.274   0.935   2.922 -0.0436  0.4866  0.6783
  217MOL0     C28532   3.226   1.056   2.857 -0.9059 -0.7134 -0.0372
  217MOL0     C28533   3.316   1.083   2.736 -1.0291  0.0078 -0.3794
  217MOL0     C28534   3.451   1.151   2.785  0.1636 -0.8522  0.1271
  217MOL0     C28535   3.537   1.220   2.677  0.2934  0.1328  0.0557
  217MOL0     O28536   3.579   1.117   2.585  0.9038  0.3052 -0.2007
  217MOL0     C28537   3.700   1.130   2.523 -0.4259 -0.7420  0.5108
  217MOL0     C28538   3.763   1.257   2.500  0.0434  1.3433 -0.2867
  217MOL0     C28539   3.895   1.261   2.445  0.8771 -0.0541 -0.4603
  217MOL0     C28540   3.959   1.142   2.405 -0.3317 -0.3295 -0.2281
  217MOL0     C28541   4.096   1.135   2.343  0.0341  0.2367 -0.7638
  217MOL0     O28542   4.149   1.010   2.319  0.0553 -0.3486  1.8430
  217MOL0     C28543   4.278   0.984   2.271 -0.5369 -0.7579  0.4593
  217MOL0     C28544   4.342   1.076   2.185 -0.0287 -0.3202  0.2627
  217MOL0     C28545   4.466   1.041   2.125  0.4971 -1.1764  0.0553
  217MOL0     C28546   4.523   0.913   2.155 -0.9721  0.0849 -0.6789
  217MOL0     O28547   4.636   0.872   2.093  0.1716  0.8605  0.8385
  217MOL0     C28548   4.728   0.966   2.029  0.2208 -0.7114 -0.1424
  217MOL0     C28549   4.861   0.894   2.024 -0.4583 -0.6294  0.3652
  217MOL0     C28550   4.967   0.982   1.947 -0.0782  0.1702  0.5015
  217MOL0     C28551   5.105   0.918   1.949  0.3660 -0.4519 -0.5294
  217MOL0     C28552   5.191   1.020   1.871 -0.7408  0.7444  0.1721
  217MOL0     C28553   5.346   1.012   1.876  0.5416 -0.0918  0.4673
  217MOL0     C28554   5.404   0.898   1.791 -0.2527 -0.4466 -0.3772
  217MOL0     C28555   5.554   0.906   1.791  0.1208 -0.1748 -0.0336
  217MOL0    Cl28556   5.618   1.061   1.708  0.1914  0.2771  0.5227
  217MOL0     C28557   4.465   0.832   2.246 -0.1044 -0.3694  0.5888
  217MOL0     C28558   4.338   0.865   2.287  0.4131 -0.2597 -0.1628
  217MOL0     O28559   4.151   1.241   2.329  0.3545  0.3562 -0.3375
  217MOL0     C28560   3.892   1.023   2.431  0.7611 -0.0144  0.1617
  217MOL0     C28561   3.763   1.017   2.489  0.7368 -0.1560 -0.4175
  217MOL0     N28562   3.237   0.898   3.051 -0.4612 -1.6423  0.0485
  217MOL0     N28563   3.297   0.796   3.089  0.8507 -0.3304  0.5453
  217MOL0     C28564   4.480   0.915   3.304  0.6569  0.4291 -0.2423
  217MOL0     C28565   4.616   0.905   3.278 -0.4398  0.3097 -0.1312
  217MOL0     C28566   5.053   0.840   3.229  0.1442 -1.2835  0.3321
  217MOL0     C28567   5.131   0.841   3.344 -0.4623 -0.0533  0.4878
  217MOL0     C28568   5.271   0.841   3.321 -0.7989 -0.7876  0.3513
  217MOL0     C28569   5.337   0.850   3.194  0.1146  0.2882 -0.1188
  217MOL0     O28570   5.471   0.844   3.166  0.5703  1.0240  0.2582
  217MOL0     C28571   5.555   0.832   3.279  0.6026 -0.3996 -0.3346
  217MOL0     C28572   5.705   0.834   3.241 -0.6962 -0.0259  0.6933
  217MOL0     C28573   5.742   0.947   3.144 -0.2252 -0.0404  0.3649
  217MOL0     C28574   5.888   0.963   3.101  0.0052 -0.7801 -0.0443
  217MOL0     C28575   5.931   0.869   2.993 -0.1482  0.5816 -0.5591
  217MOL0     C28576   5.966   0.783   2.913  0.6814 -0.4975  0.8309
  217MOL0     C28577   5.247   0.862   3.084 -0.5343  0.0063 -0.7971
  217MOL0     C28578   5.110   0.850   3.105  0.1979 -1.4516  0.0856
  217MOL0     H28579   4.635   0.722   3.001 -0.2368 -0.3069 -0.1442
  217MOL0     H28580   4.391   0.721   3.033  0.5624 -1.5396  1.3110
  217MOL0     H28581   4.251   1.032   3.283 -0.4914  0.0250  1.7608
  217MOL0     H28582   4.182   0.914   3.400  3.3516  0.3939  0.8626
  217MOL0     H28583   4.062   0.926   3.114 -0.1494  1.3658 -1.0642
  217MOL0     H28584   4.025   1.055   3.225  0.6160 -0.3340  3.6222
  217MOL0     H28585   3.925   0.896   3.380 -2.1703  0.3707 -0.9177
  217MOL0     H28586   4.002   0.760   3.299  2.9787  1.0234  1.1431
  217MOL0     H28587   3.781   0.934   3.171  0.6002  0.7064 -1.7019
  217MOL0     H28588   3.859   0.787   3.101 -1.0114  1.6937 -1.0628
  217MOL0     H28589   3.698   0.809   3.362 -0.3514  0.3646  0.0559
  217MOL0     H28590   3.777   0.657   3.292  1.3458  1.0695 -0.7883
  217MOL0     H28591   3.526   0.813   3.219  0.1428 -0.4038  2.2433
  217MOL0     H28592   3.552   0.642   3.253  1.6218 -0.8867  0.0678
  217MOL0     H28593   3.653   0.795   2.999  0.0750 -2.0603 -3.5373
  217MOL0     H28594   3.694   0.621   3.041 -1.3128 -2.4054 -1.6297
  217MOL0     H28595   3.443   0.566   3.055  1.2432  0.6611  0.3315
  217MOL0     H28596   3.489   0.613   2.896  1.0214 -2.5650  0.0467
  217MOL0     H28597   3.439   0.840   2.804 -1.5075  0.8783 -0.3023
  217MOL0     H28598   3.236   1.140   2.926  2.5155 -2.4669  1.8247
  217MOL0     H28599   3.121   1.051   2.828 -0.6579  2.9291 -2.2694
  217MOL0     H28600   3.275   1.149   2.660  0.1453 -0.6367 -1.6279
  217MOL0     H28601   3.338   0.995   2.675 -0.6975  0.1740 -0.5005
  217MOL0     H28602   3.434   1.228   2.861  0.8455 -1.4813  0.9425
  217MOL0     H28603   3.505   1.076   2.844 -3.3565 -2.3764  1.7106
  217MOL0     H28604   3.626   1.266   2.721 -0.0525 -0.1496  1.0625
  217MOL0     H28605   3.477   1.303   2.638  1.4970  1.3766  0.7610
  217MOL0     H28606   3.707   1.350   2.511  0.6977  2.2050 -3.3367
  217MOL0     H28607   3.938   1.359   2.424  0.9656 -0.4123 -2.0788
  217MOL0     H28608   4.288   1.162   2.149 -1.4632 -2.1249 -2.1958
  217MOL0     H28609   4.510   1.103   2.048 -1.0821 -1.5965 -1.2667
  217MOL0     H28610   4.730   1.056   2.091 -0.6504 -1.4589  1.0258
  217MOL0     H28611   4.688   0.985   1.929 -0.6212 -1.2833  0.0650
  217MOL0     H28612   4.860   0.797   1.973 -5.1205  1.0136 -3.4563
  217MOL0     H28613   4.903   0.897   2.125 -3.5702  1.7312  1.7617
  217MOL0     H28614   4.962   1.084   1.986 -0.5915  0.1764  0.4235
  217MOL0     H28615   4.928   0.988   1.845 -0.8027  1.1140  0.8200
  217MOL0     H28616   5.147   0.919   2.051 -0.2397 -0.9381 -0.2759
  217MOL0     H28617   5.113   0.823   1.897 -2.1894 -0.8220 -0.3336
  217MOL0     H28618   5.177   1.126   1.894  1.5605  0.6121  2.6861
  217MOL0     H28619   5.168   1.011   1.765  3.4137  0.5961 -0.8940
  217MOL0     H28620   5.367   1.006   1.984  1.1727 -0.8303  0.3151
  217MOL0     H28621   5.384   1.107   1.836  1.0075 -0.2124  0.6129
  217MOL0     H28622   5.376   0.799   1.828 -2.7413 -0.5308 -2.2127
  217MOL0     H28623   5.377   0.912   1.686  1.6995  2.4379 -0.6098
  217MOL0     H28624   5.587   0.821   1.730  0.1590 -0.0953 -0.1231
  217MOL0     H28625   5.598   0.890   1.890  2.3570 -0.3163 -0.9874
  217MOL0     H28626   4.518   0.737   2.242 -0.6076 -0.5940 -1.9156
  217MOL0     H28627   4.274   0.797   2.343 -1.8637  1.6118 -0.3638
  217MOL0     H28628   3.936   0.927   2.404 -0.8302 -0.7132 -0.0719
  217MOL0     H28629   3.727   0.918   2.514  1.5891 -0.3231  0.1616
  217MOL0     H28630   4.445   0.970   3.391 -1.7155  0.6476 -1.2766
  217MOL0     H28631   4.680   0.964   3.344 -3.0087  2.6911  0.4218
  217MOL0     H28632   5.106   0.849   3.450 -0.1082 -1.4692  0.6925
  217MOL0     H28633   5.327   0.852   3.413  2.0207  1.1722 -1.4446
  217MOL0     H28634   5.546   0.751   3.352  2.2526  2.3709  3.2318
  217MOL0     H28635   5.535   0.923   3.337 -0.4394  0.9870 -2.6926
  217MOL0     H28636   5.769   0.846   3.329  1.3306  1.7796 -0.9157
  217MOL0     H28637   5.730   0.738   3.195 -2.0389  0.6559 -1.6440
  217MOL0     H28638   5.706   1.040   3.189  0.1353 -0.7411  2.1943
  217MOL0     H28639   5.676   0.929   3.059 -2.1767 -0.1248  1.8229
  217MOL0     H28640   5.912   1.060   3.057  0.3742 -1.2851 -0.9845
  217MOL0     H28641   5.950   0.952   3.191  1.1522 -1.7544 -0.9155
  217MOL0     H28642   5.976   0.704   2.841  0.7248 -0.8704  1.2360
  217MOL0     H28643   5.298   0.866   2.989  1.4005  0.8738  0.2132
  217MOL0     H28644   5.049   0.855   3.015  0.3281  2.9269  0.0329
  218MOL0     O28645   2.159   4.106   0.528  0.1565  0.4018  0.6262
  218MOL0     C28646   2.215   4.204   0.574 -0.7296 -0.2886 -0.3636
  218MOL0     O28647   2.148   4.324   0.609  0.3615  0.6760 -0.0021
  218MOL0     C28648   2.013   4.345   0.579 -1.0137  0.4043  0.1891
  218MOL0     C28649   1.955   4.302   0.458 -0.2320  0.0080 -0.0044
  218MOL0     C28650   1.816   4.296   0.431  0.0790  0.1424  0.2043
  218MOL0     C28651   1.728   4.337   0.535 -0.1124 -0.1751 -0.2904
  218MOL0     O28652   1.594   4.330   0.518 -0.3319  0.0466  0.6094
  218MOL0     C28653   1.547   4.383   0.396  0.1727 -0.2593 -0.8080
  218MOL0     C28654   1.528   4.544   0.387 -0.6077  0.7638 -0.6054
  218MOL0     C28655   1.492   4.617   0.256 -0.1480 -0.3119 -0.6031
  218MOL0     C28656   1.371   4.578   0.178 -0.1983  0.1134  0.2910
  218MOL0     C28657   1.339   4.700   0.085  0.1446  0.3094 -0.0764
  218MOL0     C28658   1.213   4.676   0.003  0.3029 -0.0061  0.5632
  218MOL0     C28659   1.196   4.756  -0.132 -0.0480 -0.5925  0.0798
  218MOL0     C28660   1.211   4.909  -0.096  0.1116 -0.0429  0.5565
  218MOL0     N28661   1.084   4.964  -0.060 -0.6685 -0.5252  0.2386
  218MOL0     C28662   1.062   5.018   0.065  0.3148 -0.3453 -0.1037
  218MOL0     C28663   0.946   5.088   0.044 -0.4132 -0.4372 -0.4086
  218MOL0     C28664   0.880   5.170   0.150  0.0307  0.3250 -0.3734
  218MOL0     C28665   0.732   5.131   0.163  0.6108 -0.6279  0.5318
  218MOL0     C28666   0.630   5.238   0.104 -0.5078  0.6776  0.1929
  218MOL0     C28667   0.500   5.158   0.100  0.4361 -0.2400 -0.2626
  218MOL0     O28668   0.389   5.237   0.051  0.8391 -0.5990 -0.1731
  218MOL0     C28669   0.259   5.189   0.076  0.1340  0.2287  0.4755
  218MOL0     C28670   0.229   5.057   0.117  0.2011  0.4364  0.1829
  218MOL0     C28671   0.091   5.020   0.145 -0.1333  0.5137  0.0190
  218MOL0     C28672  -0.012   5.105   0.107  0.0059  0.1688  0.4298
  218MOL0     C28673  -0.157   5.067   0.090  0.6254 -0.0634 -0.6998
  218MOL0     O28674  -0.245   5.147   0.013  0.8240 -0.6242 -0.9388
  218MOL0     C28675  -0.382   5.128   0.021  0.8214  0.6843  0.8184
  218MOL0     C28676  -0.457   5.114   0.139  0.1756 -0.3864  0.0032
  218MOL0     C28677  -0.590   5.095   0.133 -0.1843  0.5847 -0.3280
  218MOL0     C28678  -0.659   5.109   0.015 -0.0966 -0.5574 -0.8228
  218MOL0     O28679  -0.794   5.102  -0.003 -0.8966 -0.3714  0.2085
  218MOL0     C28680  -0.870   5.044   0.096  0.9894  0.3438 -0.4930
  218MOL0     C28681  -1.019   5.070   0.056 -0.2233  0.2125  0.2547
  218MOL0     C28682  -1.114   5.020   0.157  0.2083 -0.1880  0.8518
  218MOL0     C28683  -1.261   5.043   0.108  0.2363  0.0048  0.1342
  218MOL0     C28684  -1.348   4.963   0.210 -0.2448  0.6176  0.2421
  218MOL0     C28685  -1.495   4.994   0.198  0.0033 -0.6583  0.1196
  218MOL0     C28686  -1.574   4.888   0.282  0.8339  0.3037  0.2594
  218MOL0     C28687  -1.723   4.922   0.296  0.3020  0.7160 -0.5325
  218MOL0    Cl28688  -1.793   4.965   0.139  0.1740 -0.1484 -0.4988
  218MOL0     C28689  -0.590   5.121  -0.107 -0.7651  0.2095 -0.0307
  218MOL0     C28690  -0.452   5.128  -0.104  0.2077 -0.8657  0.3967
  218MOL0     O28691  -0.183   4.955   0.148 -0.4380 -0.1843 -0.1077
  218MOL0     C28692   0.024   5.238   0.075 -0.0414 -0.2149 -0.1995
  218MOL0     C28693   0.156   5.281   0.062  0.1743  1.0396 -0.0082
  218MOL0     N28694   0.900   5.067  -0.087  0.8809  0.2995 -0.7046
  218MOL0     N28695   0.989   4.996  -0.152  0.3000  0.2275  0.2845
  218MOL0     C28696   1.781   4.382   0.658  0.3931  0.8012  0.5441
  218MOL0     C28697   1.916   4.384   0.680 -0.7279 -0.4849  0.1385
  218MOL0     C28698   2.364   4.188   0.600  0.6757 -0.6161  0.2156
  218MOL0     C28699   2.422   4.265   0.705  0.1824 -0.6462 -0.8262
  218MOL0     C28700   2.550   4.243   0.738 -0.2359  0.7434 -1.3714
  218MOL0     C28701   2.630   4.150   0.674  0.0832  0.1897 -0.1202
  218MOL0     O28702   2.762   4.152   0.704  0.0027 -0.2869 -0.4284
  218MOL0     C28703   2.840   4.030   0.670  0.2911 -0.3593 -0.8020
  218MOL0     C28704   2.960   4.049   0.757  0.5116  0.5187 -0.4247
  218MOL0     C28705   3.042   3.930   0.804  0.3336 -0.2860  0.3975
  218MOL0     C28706   3.160   3.965   0.889  0.0253 -0.3713  0.4423
  218MOL0     C28707   3.265   3.862   0.876  0.0194 -0.4085 -0.5853
  218MOL0     C28708   3.346   3.776   0.876 -0.3609 -0.6489  0.2107
  218MOL0     C28709   2.573   4.072   0.573  0.2262  0.1430 -0.7346
  218MOL0     C28710   2.439   4.081   0.544 -0.9131  0.4951  0.5300
  218MOL0     H28711   2.014   4.264   0.375 -2.5533  0.2388 -1.8635
  218MOL0     H28712   1.785   4.275   0.329  2.2090 -0.6617 -0.3386
  218MOL0     H28713   1.444   4.344   0.397 -0.1319  0.5152 -1.2011
  218MOL0     H28714   1.594   4.347   0.304  2.0394 -1.0246  0.3837
  218MOL0     H28715   1.614   4.601   0.423  1.0004 -1.1905 -1.1461
  218MOL0     H28716   1.441   4.552   0.454 -0.0449 -0.2667  0.2910
  218MOL0     H28717   1.585   4.619   0.198 -0.4283  4.9481 -1.3802
  218MOL0     H28718   1.487   4.724   0.276  6.9137  1.2852 -4.0034
  218MOL0     H28719   1.395   4.485   0.125  0.9183  0.4674  0.1552
  218MOL0     H28720   1.286   4.568   0.247 -1.0389  0.1922 -0.7120
  218MOL0     H28721   1.420   4.720   0.014  0.9733  1.8026  1.2494
  218MOL0     H28722   1.315   4.786   0.148 -2.8757 -0.0741 -0.5443
  218MOL0     H28723   1.121   4.696   0.059 -0.8708  1.6375 -1.7738
  218MOL0     H28724   1.202   4.570  -0.021 -0.7981  0.4386 -1.1126
  218MOL0     H28725   1.278   4.731  -0.200  1.4065  1.7924  0.8048
  218MOL0     H28726   1.103   4.734  -0.184  0.1580  0.8406 -0.9481
  218MOL0     H28727   1.249   4.954  -0.188  0.9818  1.9818  1.8282
  218MOL0     H28728   1.285   4.924  -0.017 -0.2126 -1.3936  1.1382
  218MOL0     H28729   1.113   4.995   0.157 -1.0648  2.3840  1.4567
  218MOL0     H28730   0.894   5.277   0.130 -0.4925  0.3120 -0.8254
  218MOL0     H28731   0.925   5.142   0.245  3.6742 -2.2867 -2.6410
  218MOL0     H28732   0.702   5.113   0.266  2.4845 -1.7674  0.9358
  218MOL0     H28733   0.714   5.034   0.116 -0.7459 -0.5644  0.8893
  218MOL0     H28734   0.623   5.330   0.162 -1.8150 -0.0686  1.2727
  218MOL0     H28735   0.665   5.267   0.004  2.8637  4.8442  2.2838
  218MOL0     H28736   0.472   5.125   0.200 -0.1978 -1.6484 -0.8816
  218MOL0     H28737   0.507   5.070   0.035 -1.9056 -0.3751 -0.4447
  218MOL0     H28738   0.303   4.986   0.153 -2.7459 -1.3207  3.3689
  218MOL0     H28739   0.070   4.915   0.165 -0.4116  0.6750  0.6071
  218MOL0     H28740  -0.398   5.096   0.229 -1.5901 -1.2450  1.0328
  218MOL0     H28741  -0.634   5.068   0.228  2.9983 -1.5550  0.6994
  218MOL0     H28742  -0.851   5.101   0.188  0.5705  0.6067 -0.5665
  218MOL0     H28743  -0.848   4.938   0.108 -0.1816  0.2172  0.7975
  218MOL0     H28744  -1.049   5.030  -0.042 -0.6879  1.8827 -0.3329
  218MOL0     H28745  -1.017   5.179   0.042  1.0458  0.4629  2.0369
  218MOL0     H28746  -1.114   5.062   0.258  0.5996 -1.2524  1.3138
  218MOL0     H28747  -1.097   4.912   0.172  0.7899 -0.5067 -1.6770
  218MOL0     H28748  -1.286   5.149   0.104  1.5784  0.4637  2.0382
  218MOL0     H28749  -1.272   5.009   0.005  1.5533 -0.1295  0.0166
  218MOL0     H28750  -1.315   5.003   0.306  2.4115  3.1598 -1.5557
  218MOL0     H28751  -1.328   4.855   0.208 -0.4303  0.5704 -1.8323
  218MOL0     H28752  -1.523   4.991   0.093  0.8076 -0.2462 -0.1161
  218MOL0     H28753  -1.515   5.095   0.236 -1.1135 -1.7123  2.5495
  218MOL0     H28754  -1.566   4.790   0.234  0.5633  0.8750 -0.9985
  218MOL0     H28755  -1.523   4.876   0.378 -0.3905 -3.3068  0.6287
  218MOL0     H28756  -1.732   5.013   0.357 -1.1288  1.1479 -1.3475
  218MOL0     H28757  -1.778   4.842   0.344  0.0020  1.0740 -0.2731
  218MOL0     H28758  -0.636   5.140  -0.203 -1.7764 -1.4596  0.0865
  218MOL0     H28759  -0.393   5.129  -0.195 -0.2668  2.3311 -0.0197
  218MOL0     H28760  -0.044   5.318   0.048  1.7624  1.6356  0.4791
  218MOL0     H28761   0.198   5.377   0.033  0.4790  0.7937 -0.3859
  218MOL0     H28762   1.707   4.409   0.732  0.2640  1.2819  0.2437
  218MOL0     H28763   1.954   4.416   0.776 -0.9963  4.4962 -1.1227
  218MOL0     H28764   2.369   4.344   0.757  0.9579 -0.1183 -0.8185
  218MOL0     H28765   2.582   4.307   0.820 -3.5336 -0.3459  0.9827
  218MOL0     H28766   2.850   4.025   0.561  1.4427 -1.1737 -0.6820
  218MOL0     H28767   2.785   3.941   0.702 -0.3891  0.4604  0.3902
  218MOL0     H28768   3.041   4.096   0.700  3.6930 -1.8834  1.7563
  218MOL0     H28769   2.936   4.114   0.842  2.0220  3.2568 -1.9486
  218MOL0     H28770   3.072   3.880   0.711  0.1789 -1.9583  1.2050
  218MOL0     H28771   2.989   3.846   0.850 -1.5786 -0.2024 -1.5084
  218MOL0     H28772   3.198   4.061   0.853 -0.0176 -0.1267  1.0352
  218MOL0     H28773   3.125   3.981   0.992 -1.1926  1.6781 -0.2090
  218MOL0     H28774   3.407   3.688   0.888  0.9724  0.5669  3.2346
  218MOL0     H28775   2.638   4.005   0.518  1.7926  0.6469  0.4327
  218MOL0     H28776   2.399   4.022   0.462 -1.3292  1.7650 -0.1996
  219MOL0     O28777   5.960   8.384   7.375  0.6212 -0.4045  0.3887
  219MOL0     C28778   6.002   8.274   7.408  0.0770 -0.6803 -0.2845
  219MOL0     O28779   5.941   8.153   7.397  0.3240 -0.3054  0.9654
  219MOL0     C28780   5.803   8.151   7.353  0.4869 -0.1683  0.1119
  219MOL0     C28781   5.772   8.036   7.285  0.0706 -0.8197 -0.2787
  219MOL0     C28782   5.642   8.028   7.237  0.7274 -0.0468  0.2838
  219MOL0     C28783   5.540   8.122   7.265  0.2626 -0.0434  0.2996
  219MOL0     O28784   5.409   8.108   7.221 -0.4497  0.4456  1.1584
  219MOL0     C28785   5.300   8.113   7.311 -0.3897 -0.5701 -0.3021
  219MOL0     C28786   5.177   8.081   7.236  0.1859  1.0095  0.3069
  219MOL0     C28787   5.049   8.066   7.311  0.5841  0.3470 -0.0956
  219MOL0     C28788   4.941   8.004   7.229  0.1605  0.0251 -0.8981
  219MOL0     C28789   4.805   8.004   7.304 -0.3204 -0.5522  0.1939
  219MOL0     C28790   4.712   7.921   7.218 -0.3455  0.6467 -0.2372
  219MOL0     C28791   4.601   7.865   7.306  0.2290 -0.3379 -0.6425
  219MOL0     C28792   4.643   7.746   7.399 -0.6731 -0.0092  0.0143
  219MOL0     N28793   4.636   7.620   7.321  0.1165  0.8577 -0.5831
  219MOL0     C28794   4.737   7.563   7.246 -0.2120  0.4123 -0.2955
  219MOL0     C28795   4.694   7.436   7.238 -0.2317  0.8116  0.4123
  219MOL0     C28796   4.762   7.321   7.163  0.4053 -1.1499  0.4732
  219MOL0     C28797   4.869   7.266   7.263 -1.2705 -0.7622  0.6519
  219MOL0     C28798   4.929   7.141   7.203  0.3469  0.7657 -0.5111
  219MOL0     C28799   5.043   7.093   7.284  0.6241  0.1735  0.2266
  219MOL0     O28800   5.159   7.170   7.244  0.3704 -0.5699 -0.7457
  219MOL0     C28801   5.258   7.178   7.337  0.0727 -0.0658 -0.4917
  219MOL0     C28802   5.291   7.077   7.422  0.3755 -0.0312  0.4122
  219MOL0     C28803   5.415   7.088   7.492  0.3106 -0.4578 -0.2512
  219MOL0     C28804   5.491   7.205   7.487  0.3045  0.0488  1.1178
  219MOL0     C28805   5.619   7.225   7.563  0.2951  0.8108  1.1100
  219MOL0     O28806   5.643   7.353   7.598  0.1243 -0.1733 -0.2213
  219MOL0     C28807   5.762   7.366   7.668 -0.6239 -0.1247  0.2104
  219MOL0     C28808   5.767   7.360   7.807  0.0865  0.2083  0.6548
  219MOL0     C28809   5.887   7.357   7.870  0.3006 -0.3027  0.7046
  219MOL0     C28810   6.006   7.373   7.795 -0.4080  0.7794 -0.2843
  219MOL0     O28811   6.135   7.361   7.849 -0.5181  0.5525  0.3290
  219MOL0     C28812   6.159   7.274   7.969  0.7008 -0.2678  0.8651
  219MOL0     C28813   6.308   7.278   7.991  0.1091 -0.3957  0.0442
  219MOL0     C28814   6.346   7.403   8.086  0.4037  0.7363  0.0183
  219MOL0     C28815   6.497   7.393   8.126 -0.5854 -0.2643 -0.3426
  219MOL0     C28816   6.521   7.283   8.233  0.8009 -0.6657  0.9819
  219MOL0     C28817   6.644   7.305   8.318  0.9436  0.1958 -0.2018
  219MOL0     C28818   6.664   7.185   8.415 -0.1638 -0.0691  0.5854
  219MOL0     C28819   6.697   7.043   8.353  0.0221  0.2243 -0.3795
  219MOL0    Cl28820   6.849   7.057   8.269 -0.4422 -0.3674 -0.1075
  219MOL0     C28821   6.008   7.399   7.662 -0.3080  0.1483 -0.3984
  219MOL0     C28822   5.884   7.394   7.594  0.3054 -0.4057  0.3447
  219MOL0     O28823   5.673   7.126   7.609  0.8729  0.3864 -0.4702
  219MOL0     C28824   5.452   7.312   7.404 -0.7686  0.2813  1.1142
  219MOL0     C28825   5.333   7.298   7.331 -1.0028 -0.8788 -0.1338
  219MOL0     N28826   4.574   7.425   7.291  0.4567  0.7925 -0.9008
  219MOL0     N28827   4.538   7.535   7.342 -1.0133  0.7986 -0.3109
  219MOL0     C28828   5.574   8.231   7.341 -0.2319  0.0959  0.2451
  219MOL0     C28829   5.705   8.248   7.381 -0.3737 -0.0055 -0.6570
  219MOL0     C28830   6.134   8.264   7.470 -0.1075 -0.3280 -0.1710
  219MOL0     C28831   6.222   8.371   7.467  1.4083 -0.2521 -0.3189
  219MOL0     C28832   6.347   8.363   7.535  0.8781 -1.2239  0.1113
  219MOL0     C28833   6.396   8.250   7.585  0.7515  0.4198 -0.8788
  219MOL0     O28834   6.525   8.224   7.639  0.0366 -0.1647 -0.0925
  219MOL0     C28835   6.623   8.320   7.602 -0.1487  0.1889  0.0319
  219MOL0     C28836   6.750   8.240   7.564 -0.1928  0.1108 -0.7495
  219MOL0     C28837   6.858   8.330   7.503  0.1385  0.1451 -0.3127
  219MOL0     C28838   6.969   8.244   7.459 -0.2416  0.7110 -0.5633
  219MOL0     C28839   7.086   8.322   7.425  0.3485  0.4166 -0.0894
  219MOL0     C28840   7.189   8.388   7.410  0.0051  0.2134 -0.5150
  219MOL0     C28841   6.319   8.138   7.578  0.0351 -1.1142 -0.8613
  219MOL0     C28842   6.180   8.142   7.531  0.4408 -0.4162 -0.3152
  219MOL0     H28843   5.843   7.961   7.252  0.2077 -0.3912 -0.9703
  219MOL0     H28844   5.602   7.949   7.174 -1.4437 -0.0711  1.5974
  219MOL0     H28845   5.288   8.214   7.352 -1.2990 -0.3590 -1.0411
  219MOL0     H28846   5.320   8.040   7.389  0.9294 -1.6107 -1.5651
  219MOL0     H28847   5.204   7.984   7.194 -0.1126  0.0295  2.2656
  219MOL0     H28848   5.164   8.155   7.156  2.7587  0.0571 -1.1098
  219MOL0     H28849   5.008   8.163   7.340 -0.7126  0.2703 -1.5191
  219MOL0     H28850   5.075   8.017   7.404 -0.7761 -2.0034 -0.8731
  219MOL0     H28851   4.923   8.054   7.133  0.8410 -1.8990 -2.0758
  219MOL0     H28852   4.977   7.904   7.205  1.4393  0.0812  0.6837
  219MOL0     H28853   4.770   8.107   7.320 -1.9822 -1.0587 -0.0720
  219MOL0     H28854   4.825   7.966   7.405  1.2817 -3.6951 -1.1668
  219MOL0     H28855   4.761   7.845   7.158 -1.6822 -0.0840 -0.4387
  219MOL0     H28856   4.674   7.996   7.148 -2.3821  0.1392  0.2483
  219MOL0     H28857   4.556   7.941   7.370 -1.4018 -1.9135  0.1778
  219MOL0     H28858   4.515   7.845   7.242 -0.0258  1.3288 -0.8721
  219MOL0     H28859   4.577   7.746   7.486 -3.8151  3.5326 -2.0789
  219MOL0     H28860   4.738   7.774   7.446 -2.0785  1.9739  1.8524
  219MOL0     H28861   4.828   7.609   7.210 -1.2370  0.9086 -2.3834
  219MOL0     H28862   4.824   7.361   7.082  1.2923 -0.0641  1.6515
  219MOL0     H28863   4.697   7.241   7.128 -0.7206 -1.5400  3.2116
  219MOL0     H28864   4.817   7.244   7.357  0.6116  1.6214  2.3632
  219MOL0     H28865   4.944   7.342   7.285 -1.7808  0.0093 -0.1727
  219MOL0     H28866   4.858   7.059   7.190  0.6633  0.2033  1.0332
  219MOL0     H28867   4.966   7.153   7.101 -0.2402 -0.1129 -0.8408
  219MOL0     H28868   5.049   6.985   7.264 -2.1695  0.1367 -0.8087
  219MOL0     H28869   5.018   7.104   7.390  1.0566 -1.9153  0.6029
  219MOL0     H28870   5.235   6.984   7.424  0.7740 -0.2860  2.8991
  219MOL0     H28871   5.442   7.011   7.564  1.9938  0.8672  0.5933
  219MOL0     H28872   5.674   7.347   7.861 -1.3383 -4.7789 -2.3845
  219MOL0     H28873   5.890   7.344   7.977 -2.9378 -0.3677  0.8967
  219MOL0     H28874   6.129   7.170   7.950 -0.2956  0.2146 -0.2755
  219MOL0     H28875   6.106   7.331   8.046  1.1351  2.3624 -0.6839
  219MOL0     H28876   6.359   7.283   7.895  1.4840 -0.6003  0.7402
  219MOL0     H28877   6.345   7.190   8.044  3.4585  1.8722  1.8458
  219MOL0     H28878   6.283   7.410   8.175 -2.3350 -1.0657 -1.5943
  219MOL0     H28879   6.324   7.488   8.022 -0.8604 -1.2493 -2.3745
  219MOL0     H28880   6.558   7.377   8.036 -2.1540 -0.0195 -1.4887
  219MOL0     H28881   6.524   7.490   8.170 -1.6300 -1.1646  2.5036
  219MOL0     H28882   6.516   7.189   8.177 -2.4818  0.2563 -0.5252
  219MOL0     H28883   6.433   7.279   8.297 -0.0798 -0.2097 -0.1457
  219MOL0     H28884   6.631   7.396   8.377  1.7267 -1.4008  2.5751
  219MOL0     H28885   6.740   7.312   8.265  2.0025  1.5027  1.7558
  219MOL0     H28886   6.753   7.212   8.472  0.9703 -3.0770  0.4278
  219MOL0     H28887   6.575   7.178   8.478  0.3640  0.3717  1.3865
  219MOL0     H28888   6.630   7.011   8.272 -0.9688 -0.0806  0.5409
  219MOL0     H28889   6.698   6.963   8.427  1.0326 -0.8572 -1.5213
  219MOL0     H28890   6.096   7.438   7.611 -1.3027  0.8785 -1.6181
  219MOL0     H28891   5.891   7.434   7.494  1.0863  3.3914  1.7755
  219MOL0     H28892   5.510   7.403   7.397 -2.5124  1.3823  0.1669
  219MOL0     H28893   5.304   7.371   7.256  0.3512 -0.3579 -0.1801
  219MOL0     H28894   5.505   8.311   7.365 -0.4390 -0.2524  0.8392
  219MOL0     H28895   5.742   8.332   7.438  2.4602 -0.1700 -2.1046
  219MOL0     H28896   6.192   8.465   7.420 -1.5825 -0.7051  0.4786
  219MOL0     H28897   6.398   8.458   7.544  0.1974 -0.6495 -1.7164
  219MOL0     H28898   6.652   8.392   7.679  0.6706  1.2340 -1.2045
  219MOL0     H28899   6.599   8.371   7.508  1.9000 -1.3310 -1.3896
  219MOL0     H28900   6.778   8.182   7.652  2.6070  0.5537 -1.2682
  219MOL0     H28901   6.719   8.166   7.489  0.2163 -1.7919  0.8948
  219MOL0     H28902   6.890   8.402   7.580 -3.0078 -1.0346  2.3563
  219MOL0     H28903   6.810   8.387   7.423  2.3131  1.7688 -0.5591
  219MOL0     H28904   7.006   8.173   7.534 -1.4903  0.1721 -0.4350
  219MOL0     H28905   6.942   8.188   7.369  1.1786  2.6139 -2.2633
  219MOL0     H28906   7.284   8.430   7.386  0.5076 -0.2281  0.6241
  219MOL0     H28907   6.356   8.040   7.608  0.6547 -0.9645 -1.1270
  219MOL0     H28908   6.116   8.056   7.544  1.2063 -0.5040  5.5318
  220MOL0     O28909   9.620   9.432   4.971 -0.1195 -0.6038  0.7113
  220MOL0     C28910   9.586   9.517   4.892  0.8883  0.3429 -0.1573
  220MOL0     O28911   9.659   9.575   4.802 -0.4233 -0.3369  0.2138
  220MOL0     C28912   9.791   9.539   4.802 -0.1866  0.3549  0.2367
  220MOL0     C28913   9.899   9.628   4.803 -0.4575 -0.0665  0.2215
  220MOL0     C28914  10.031   9.587   4.769  0.7936 -0.5429  0.8712
  220MOL0     C28915  10.058   9.451   4.753  0.4955  1.3095  0.5718
  220MOL0     O28916  10.184   9.409   4.719 -1.0455 -0.4100 -0.0526
  220MOL0     C28917  10.217   9.270   4.696 -0.2840  0.3717  0.2900
  220MOL0     C28918  10.355   9.266   4.636  0.4252  0.6343 -0.1625
  220MOL0     C28919  10.466   9.292   4.737  0.7455 -0.3821 -0.9877
  220MOL0     C28920  10.600   9.260   4.675  0.2490 -0.5870  0.8438
  220MOL0     C28921  10.714   9.243   4.771  0.1180  0.1269  0.4086
  220MOL0     C28922  10.846   9.191   4.718 -0.1895 -0.6192  0.7719
  220MOL0     C28923  10.965   9.222   4.811 -0.1781  0.4689 -0.3471
  220MOL0     C28924  11.094   9.167   4.749  0.3584  0.5910  0.5409
  220MOL0     N28925  11.215   9.167   4.825 -0.3285  0.4889  0.3663
  220MOL0     C28926  11.218   9.123   4.953 -0.1317 -0.8163 -0.3291
  220MOL0     C28927  11.358   9.128   4.976  1.1206  0.7382  0.6142
  220MOL0     C28928  11.421   9.110   5.105 -0.3744  0.6180  0.2556
  220MOL0     C28929  11.379   9.228   5.201  0.1172  0.4473  1.1911
  220MOL0     C28930  11.414   9.370   5.155 -0.8328 -0.6593 -1.0757
  220MOL0     C28931  11.305   9.426   5.055  0.0006 -0.0059  0.0619
  220MOL0     O28932  11.178   9.382   5.103 -0.1306  0.0800  0.0393
  220MOL0     C28933  11.066   9.458   5.093 -0.7653  0.6868 -0.2319
  220MOL0     C28934  11.069   9.597   5.076  0.5211  0.4004 -0.1212
  220MOL0     C28935  10.946   9.664   5.080  0.2839  0.3203 -0.3987
  220MOL0     C28936  10.829   9.598   5.088  0.0045  0.2150  0.1457
  220MOL0     C28937  10.703   9.673   5.080 -0.0699  0.3839  0.1779
  220MOL0     O28938  10.594   9.602   5.121 -0.8236 -0.2294 -0.2426
  220MOL0     C28939  10.467   9.647   5.110  0.1586 -0.3536 -0.5158
  220MOL0     C28940  10.416   9.779   5.136 -0.0947 -1.0411 -0.1340
  220MOL0     C28941  10.274   9.808   5.112 -0.7638  0.4702  0.3427
  220MOL0     C28942  10.187   9.705   5.076 -0.7621 -0.2869 -0.3478
  220MOL0     O28943  10.055   9.721   5.044 -0.7359  0.1850 -0.6518
  220MOL0     C28944   9.952   9.680   5.132  0.4585  1.3823 -0.8577
  220MOL0     C28945   9.948   9.778   5.256  1.0428  0.3857 -0.0256
  220MOL0     C28946   9.827   9.766   5.349 -0.3679 -0.2241  0.1598
  220MOL0     C28947   9.691   9.755   5.277 -1.0086  0.1497  0.0618
  220MOL0     C28948   9.586   9.752   5.384 -0.3194 -0.2426 -0.0422
  220MOL0     C28949   9.444   9.719   5.337 -0.4080 -0.2399  0.6445
  220MOL0     C28950   9.387   9.824   5.242  0.6928  0.0458  0.1316
  220MOL0     C28951   9.244   9.779   5.210  0.3383 -0.8617 -0.5164
  220MOL0    Cl28952   9.141   9.766   5.356 -0.0256  0.5356  0.1266
  220MOL0     C28953  10.247   9.576   5.064 -0.2327 -0.0943  0.1623
  220MOL0     C28954  10.383   9.547   5.071  0.4500 -0.6786 -0.0581
  220MOL0     O28955  10.702   9.793   5.042 -0.2320 -0.8524  0.2029
  220MOL0     C28956  10.827   9.464   5.093 -0.2004  0.4864  0.4565
  220MOL0     C28957  10.945   9.388   5.113  0.0636 -0.3785 -1.0887
  220MOL0     N28958  11.423   9.175   4.867 -0.2590 -0.3534 -0.4458
  220MOL0     N28959  11.340   9.191   4.777  0.9003 -0.4116  0.4134
  220MOL0     C28960   9.954   9.356   4.763  0.5416 -0.7420  0.1155
  220MOL0     C28961   9.821   9.406   4.775 -0.0989  0.3541 -0.3864
  220MOL0     C28962   9.441   9.554   4.902  0.2571 -0.6361 -0.1418
  220MOL0     C28963   9.345   9.463   4.945  0.0469 -0.2231 -0.5263
  220MOL0     C28964   9.213   9.488   4.954 -0.2597 -0.6876 -1.1552
  220MOL0     C28965   9.161   9.616   4.922 -0.2093  0.0124 -0.9007
  220MOL0     O28966   9.031   9.658   4.932 -0.5520  0.3877  0.5405
  220MOL0     C28967   8.923   9.598   4.998 -0.7105  0.6044 -0.9188
  220MOL0     C28968   8.894   9.681   5.120 -0.2375  0.0227  0.6622
  220MOL0     C28969   8.770   9.622   5.192  0.4393  0.6343 -0.9522
  220MOL0     C28970   8.764   9.688   5.332 -0.8613 -0.2978 -0.5303
  220MOL0     C28971   8.660   9.657   5.415  0.2673  0.1474 -0.1252
  220MOL0     C28972   8.569   9.608   5.477  0.3072  0.6954 -0.0954
  220MOL0     C28973   9.253   9.714   4.897 -0.5879  0.4802  1.1439
  220MOL0     C28974   9.394   9.683   4.885 -0.0001 -0.3644 -0.2301
  220MOL0     H28975   9.893   9.736   4.801  1.1593  0.0333 -1.2231
  220MOL0     H28976  10.116   9.655   4.762 -0.7926  1.8258  3.0189
  220MOL0     H28977  10.146   9.225   4.626 -0.0435  0.8135 -0.2443
  220MOL0     H28978  10.212   9.213   4.789 -1.2044 -3.7621 -2.0500
  220MOL0     H28979  10.371   9.335   4.553 -1.6404  2.2539  0.7085
  220MOL0     H28980  10.360   9.164   4.596  0.0913  0.2043  0.8591
  220MOL0     H28981  10.453   9.224   4.822 -0.0388 -0.4688 -1.1696
  220MOL0     H28982  10.465   9.396   4.772  1.8999 -0.1928 -1.4703
  220MOL0     H28983  10.600   9.174   4.608 -0.2665  0.7230 -0.9277
  220MOL0     H28984  10.630   9.333   4.599  0.5750 -3.2463 -1.7533
  220MOL0     H28985  10.684   9.168   4.845 -2.5853  1.0526  0.3634
  220MOL0     H28986  10.728   9.343   4.812 -2.2354 -0.3581  2.6688
  220MOL0     H28987  10.869   9.250   4.629 -0.8751 -1.4558  0.0252
  220MOL0     H28988  10.836   9.084   4.695  0.1730 -0.8666  1.7183
  220MOL0     H28989  10.977   9.329   4.831 -0.9348  0.3828  0.6929
  220MOL0     H28990  10.944   9.170   4.906  1.1030  0.1168 -0.2421
  220MOL0     H28991  11.104   9.228   4.658  1.4031 -2.1530 -1.3344
  220MOL0     H28992  11.075   9.063   4.720  2.9047  0.5934 -1.5300
  220MOL0     H28993  11.143   9.106   5.029  0.1141 -0.7848 -0.0765
  220MOL0     H28994  11.529   9.096   5.093 -0.8240 -1.2720 -2.6707
  220MOL0     H28995  11.381   9.015   5.144  1.0829 -1.4114 -2.7952
  220MOL0     H28996  11.426   9.211   5.298  0.6527  1.2071  1.0782
  220MOL0     H28997  11.272   9.219   5.220 -0.3869 -0.9990 -1.7466
  220MOL0     H28998  11.413   9.444   5.236  0.7407  0.2091 -1.7962
  220MOL0     H28999  11.513   9.372   5.110 -0.3829 -0.0849 -0.0989
  220MOL0     H29000  11.330   9.373   4.962 -1.2557 -4.3072  1.9033
  220MOL0     H29001  11.330   9.532   5.044  0.9843 -0.0389  1.7176
  220MOL0     H29002  11.162   9.653   5.067  0.1107  1.0593 -0.2465
  220MOL0     H29003  10.946   9.772   5.076 -2.6840  0.3828 -2.6032
  220MOL0     H29004  10.480   9.863   5.161 -2.3967  0.4228  1.2448
  220MOL0     H29005  10.239   9.910   5.114 -1.3504  0.3292 -1.4515
  220MOL0     H29006   9.970   9.585   5.182  2.0366  1.2770 -1.5528
  220MOL0     H29007   9.854   9.677   5.084 -1.0955 -2.1958  2.0155
  220MOL0     H29008   9.933   9.876   5.210 -0.5774  0.7660  1.2095
  220MOL0     H29009  10.046   9.775   5.305  1.2231  2.2396 -0.1713
  220MOL0     H29010   9.826   9.849   5.420  0.7663  0.8859 -1.0741
  220MOL0     H29011   9.842   9.674   5.407  2.0120  0.7519  1.2201
  220MOL0     H29012   9.672   9.836   5.206 -2.9025  0.0506  0.4127
  220MOL0     H29013   9.681   9.662   5.219 -0.2811  0.8912 -1.3279
  220MOL0     H29014   9.590   9.856   5.419  1.2831  0.4582 -2.0814
  220MOL0     H29015   9.610   9.703   5.479  2.8632  0.6996 -0.2646
  220MOL0     H29016   9.385   9.705   5.427 -0.8469  1.2646  0.6298
  220MOL0     H29017   9.439   9.628   5.277 -0.1844  0.8997 -1.2119
  220MOL0     H29018   9.376   9.925   5.284 -0.9969  0.4170 -1.1467
  220MOL0     H29019   9.442   9.831   5.147  2.2678  3.5880  1.1106
  220MOL0     H29020   9.256   9.680   5.164 -0.2827 -0.9841 -0.4158
  220MOL0     H29021   9.196   9.852   5.145 -1.9399 -1.3907  0.4692
  220MOL0     H29022  10.185   9.488   5.049 -0.2339 -0.2995  1.3174
  220MOL0     H29023  10.421   9.445   5.064  2.3665 -0.0579  0.8642
  220MOL0     H29024  10.735   9.409   5.113 -0.0396  0.8987  2.5922
  220MOL0     H29025  10.932   9.281   5.125  2.9624 -0.8671 -1.5225
  220MOL0     H29026   9.976   9.250   4.759  0.8839 -0.6533 -0.3694
  220MOL0     H29027   9.735   9.340   4.766  0.5497 -0.2765 -2.3912
  220MOL0     H29028   9.367   9.358   4.966  0.5026 -0.3870 -1.7305
  220MOL0     H29029   9.135   9.421   4.987 -1.3502  1.0750  0.0309
  220MOL0     H29030   8.925   9.492   5.027 -0.7034  0.9121  0.2799
  220MOL0     H29031   8.842   9.611   4.926  0.7515  0.3988 -2.6620
  220MOL0     H29032   8.977   9.662   5.189  0.5368 -2.4180 -0.8295
  220MOL0     H29033   8.883   9.789   5.105 -0.0642 -0.0771 -0.2005
  220MOL0     H29034   8.789   9.514   5.202 -1.8682  0.0578 -2.1532
  220MOL0     H29035   8.678   9.637   5.135 -0.5627 -2.3182 -0.2761
  220MOL0     H29036   8.851   9.652   5.388  0.5437  0.7557 -1.9203
  220MOL0     H29037   8.767   9.797   5.330 -3.4051 -0.1096  1.5027
  220MOL0     H29038   8.499   9.547   5.531 -1.6216  1.2845 -1.7836
  220MOL0     H29039   9.212   9.814   4.891  0.0139  0.6450 -1.0739
  220MOL0     H29040   9.475   9.751   4.861  0.2409 -2.3939 -7.3794
  221MOL0     O29041   4.714   8.949   5.449  0.2029 -0.2141  0.4862
  221MOL0     C29042   4.714   8.903   5.338  0.8160  0.5135  0.1802
  221MOL0     O29043   4.602   8.886   5.260  0.3550  0.4780 -0.8187
  221MOL0     C29044   4.480   8.938   5.301 -0.2383 -0.3742 -0.7510
  221MOL0     C29045   4.471   9.057   5.378  0.7159  0.9703 -0.5094
  221MOL0     C29046   4.347   9.093   5.416  0.6711 -0.6048 -0.0303
  221MOL0     C29047   4.227   9.024   5.396 -0.1510  0.2763  0.4313
  221MOL0     O29048   4.111   9.071   5.451 -0.4202  0.5385  0.4253
  221MOL0     C29049   3.994   8.993   5.443  0.3583 -0.5219  0.0334
  221MOL0     C29050   3.913   9.034   5.314 -0.0218  0.2858  0.3222
  221MOL0     C29051   3.771   8.972   5.311 -0.0414  0.7968 -0.2695
  221MOL0     C29052   3.720   8.980   5.169 -0.1296 -0.2827  0.8186
  221MOL0     C29053   3.573   8.929   5.163 -0.4235 -0.8930  0.3324
  221MOL0     C29054   3.504   8.931   5.025 -0.1470 -0.1661  0.7668
  221MOL0     C29055   3.357   8.941   5.019 -0.1800  0.2529 -0.2950
  221MOL0     C29056   3.277   8.813   5.046  0.1467 -0.8298  0.1245
  221MOL0     N29057   3.142   8.854   5.083  0.1391 -0.4828 -0.0032
  221MOL0     C29058   3.082   8.837   5.210 -0.7545 -0.5289  0.1729
  221MOL0     C29059   2.953   8.884   5.190 -0.2463  0.4276 -0.1347
  221MOL0     C29060   2.856   8.900   5.306  0.4567  0.3151  0.0344
  221MOL0     C29061   2.832   8.767   5.378 -0.3140  0.0974  0.0548
  221MOL0     C29062   2.753   8.786   5.510  0.0679 -0.4102  0.1927
  221MOL0     C29063   2.826   8.841   5.633  0.2845 -0.2914  0.1609
  221MOL0     O29064   2.741   8.819   5.744 -0.2978  0.6517 -0.0108
  221MOL0     C29065   2.634   8.905   5.758  0.6575  0.4218 -0.2343
  221MOL0     C29066   2.604   9.022   5.684  0.9736 -0.6403  0.0449
  221MOL0     C29067   2.483   9.082   5.705  0.6978 -0.9351 -0.4825
  221MOL0     C29068   2.383   9.023   5.791  0.9027 -0.2173 -0.4767
  221MOL0     C29069   2.248   9.087   5.790 -0.8047 -0.3429  0.2932
  221MOL0     O29070   2.141   9.004   5.801  0.4135 -0.5565 -0.1423
  221MOL0     C29071   2.029   9.061   5.840 -0.1345  0.0269 -0.2276
  221MOL0     C29072   1.982   9.099   5.972 -0.7524 -0.4865 -0.6714
  221MOL0     C29073   1.861   9.153   5.992  0.6424 -0.4358 -0.2447
  221MOL0     C29074   1.775   9.182   5.885  0.1884  0.1509 -0.3853
  221MOL0     O29075   1.652   9.241   5.908 -0.8268 -0.1305  0.2321
  221MOL0     C29076   1.616   9.257   6.043  0.2134  0.4959 -0.3194
  221MOL0     C29077   1.474   9.305   6.048 -0.4478  0.2327 -0.2044
  221MOL0     C29078   1.409   9.267   6.177  0.0803 -0.4545 -0.4190
  221MOL0     C29079   1.325   9.140   6.175  0.0969  0.2907 -0.1257
  221MOL0     C29080   1.292   9.092   6.320  0.4164 -0.5349 -1.0915
  221MOL0     C29081   1.209   9.182   6.416  0.2970 -0.1511  0.6430
  221MOL0     C29082   1.064   9.211   6.366 -0.0810  0.1369 -0.4295
  221MOL0     C29083   0.979   9.076   6.359  0.6298 -0.4511 -0.2120
  221MOL0    Cl29084   0.968   8.983   6.504 -0.2811 -0.5572  0.1001
  221MOL0     C29085   1.812   9.140   5.757 -0.8322 -0.6402 -0.1801
  221MOL0     C29086   1.934   9.073   5.733 -0.2102  0.0011  1.2347
  221MOL0     O29087   2.244   9.210   5.784  0.5594  0.4268 -0.5455
  221MOL0     C29088   2.420   8.911   5.870 -0.1122  1.2292  0.2047
  221MOL0     C29089   2.545   8.862   5.850  0.6818  0.6632  1.1597
  221MOL0     N29090   2.946   8.936   5.066 -0.1139 -0.3885  0.1066
  221MOL0     N29091   3.054   8.915   4.998 -0.8544  0.5944  0.3939
  221MOL0     C29092   4.240   8.917   5.312 -0.6246  0.0852 -0.1345
  221MOL0     C29093   4.365   8.871   5.267 -0.5978 -0.2536  0.0615
  221MOL0     C29094   4.850   8.872   5.298  0.3518  0.0608  0.1507
  221MOL0     C29095   4.879   8.821   5.174 -0.3555  0.4046  0.2259
  221MOL0     C29096   4.997   8.776   5.129  1.2998  0.6375  0.0778
  221MOL0     C29097   5.109   8.791   5.213 -0.3032  0.3718 -0.0585
  221MOL0     O29098   5.231   8.739   5.194 -0.4862 -0.2111 -0.1849
  221MOL0     C29099   5.259   8.701   5.055 -0.4807 -0.2147 -0.0916
  221MOL0     C29100   5.400   8.672   5.045  0.1976 -0.0230 -0.2469
  221MOL0     C29101   5.459   8.725   4.916  0.4796 -0.6629  0.6502
  221MOL0     C29102   5.615   8.742   4.912 -0.2477 -0.9315  0.8102
  221MOL0     C29103   5.678   8.614   4.914  0.6542  0.2293  1.0473
  221MOL0     C29104   5.733   8.508   4.927  0.9820  0.5223 -0.0495
  221MOL0     C29105   5.092   8.848   5.341 -0.6718 -1.1933  1.4275
  221MOL0     C29106   4.969   8.893   5.380  0.5063 -0.6355 -0.8595
  221MOL0     H29107   4.557   9.115   5.410 -0.3175  3.0187 -1.2165
  221MOL0     H29108   4.350   9.179   5.482 -1.0737  0.7895 -1.6620
  221MOL0     H29109   3.924   9.009   5.525  0.8736 -0.6561  0.5039
  221MOL0     H29110   4.019   8.887   5.455  1.3814 -0.0704  2.4022
  221MOL0     H29111   3.969   9.006   5.225 -2.0114  1.9788 -1.5754
  221MOL0     H29112   3.910   9.143   5.303 -1.5912  0.2000 -0.3602
  221MOL0     H29113   3.705   9.025   5.381 -0.2184 -1.3804  1.3252
  221MOL0     H29114   3.784   8.867   5.336 -1.7416  0.7375  0.5441
  221MOL0     H29115   3.730   9.083   5.134  0.6891  0.5201  3.2699
  221MOL0     H29116   3.788   8.910   5.120  0.6824 -0.7883  2.5881
  221MOL0     H29117   3.516   8.995   5.229 -2.1379 -2.4974  0.5448
  221MOL0     H29118   3.563   8.830   5.209 -1.3694 -0.1271  1.8583
  221MOL0     H29119   3.538   8.845   4.967 -1.6100  0.6774 -1.4687
  221MOL0     H29120   3.543   9.014   4.966 -0.9145  0.4032  1.0422
  221MOL0     H29121   3.323   9.014   5.093 -0.2500  1.0772 -1.1243
  221MOL0     H29122   3.327   8.985   4.923 -0.4073 -2.1627 -1.4197
  221MOL0     H29123   3.325   8.755   5.126  3.8854 -1.8259 -2.5428
  221MOL0     H29124   3.280   8.745   4.961  0.5364  2.3110 -2.5391
  221MOL0     H29125   3.121   8.795   5.302 -0.7736 -3.7451 -1.1376
  221MOL0     H29126   2.768   8.948   5.260 -1.1601 -2.0061  0.5389
  221MOL0     H29127   2.909   8.969   5.371 -0.5504  0.6489  0.5241
  221MOL0     H29128   2.917   8.704   5.408 -0.5058 -0.6228 -0.8512
  221MOL0     H29129   2.774   8.708   5.307 -2.7841  1.4571  0.7998
  221MOL0     H29130   2.679   8.860   5.478  0.8123 -0.2943 -1.3741
  221MOL0     H29131   2.707   8.691   5.536  0.0515 -1.0343 -1.9153
  221MOL0     H29132   2.844   8.949   5.633 -2.0875  0.1868  1.8660
  221MOL0     H29133   2.920   8.786   5.638 -0.0987 -0.8385  2.0499
  221MOL0     H29134   2.674   9.071   5.618 -1.3453  0.3456 -1.8286
  221MOL0     H29135   2.456   9.171   5.649 -1.8304 -0.1657  1.7665
  221MOL0     H29136   2.046   9.067   6.054  4.3805  1.8827 -3.2679
  221MOL0     H29137   1.830   9.171   6.094 -2.7937  3.4822 -1.6655
  221MOL0     H29138   1.661   9.342   6.096 -0.4150 -0.3822  1.7482
  221MOL0     H29139   1.626   9.161   6.094  3.2420  1.1978  0.6198
  221MOL0     H29140   1.417   9.248   5.974  0.5133  0.2424 -0.9792
  221MOL0     H29141   1.474   9.412   6.024 -0.5267 -0.3797 -3.3707
  221MOL0     H29142   1.345   9.344   6.223  0.6987 -0.7843  1.0558
  221MOL0     H29143   1.494   9.257   6.246  1.0411  0.2064 -1.4780
  221MOL0     H29144   1.234   9.160   6.119 -0.3485 -0.8557  0.1690
  221MOL0     H29145   1.386   9.059   6.134 -0.6583 -0.9287  1.0618
  221MOL0     H29146   1.391   9.073   6.361  0.0332  0.6154  0.4700
  221MOL0     H29147   1.242   8.995   6.306  0.3038 -0.5694 -0.4890
  221MOL0     H29148   1.255   9.281   6.417 -0.2362  0.1204 -0.1006
  221MOL0     H29149   1.209   9.148   6.519  0.2676 -3.4033 -0.3239
  221MOL0     H29150   1.021   9.285   6.434 -0.1371 -0.0726 -0.2366
  221MOL0     H29151   1.056   9.254   6.265 -0.2528  2.0894  0.3789
  221MOL0     H29152   1.005   9.004   6.282  0.3890 -0.9038  0.1292
  221MOL0     H29153   0.876   9.108   6.341 -0.4797 -3.4442  0.3188
  221MOL0     H29154   1.736   9.147   5.680  1.2333  1.1474 -2.1682
  221MOL0     H29155   1.949   9.022   5.639 -2.5080  3.1401 -1.0813
  221MOL0     H29156   2.352   8.858   5.936  0.8471 -0.9050 -0.4324
  221MOL0     H29157   2.581   8.776   5.906 -0.6181 -1.1838 -0.6548
  221MOL0     H29158   4.152   8.861   5.283  0.0527  0.2128 -2.6282
  221MOL0     H29159   4.366   8.786   5.199 -0.5985 -0.5187  0.3871
  221MOL0     H29160   4.797   8.803   5.105  0.5455  0.8410 -0.9999
  221MOL0     H29161   4.984   8.728   5.033  0.4618  0.3624  0.3136
  221MOL0     H29162   5.231   8.789   4.995 -0.9298  1.4562  2.4291
  221MOL0     H29163   5.201   8.615   5.020 -2.7413  0.2202  2.3281
  221MOL0     H29164   5.451   8.722   5.127  0.1425  1.9340 -1.3455
  221MOL0     H29165   5.420   8.564   5.045 -0.8091 -0.2574 -2.1712
  221MOL0     H29166   5.425   8.828   4.903  0.7002 -0.4368  1.7352
  221MOL0     H29167   5.412   8.672   4.833 -1.1833  0.9370  0.5107
  221MOL0     H29168   5.654   8.801   4.829  1.8396  0.9518  2.9779
  221MOL0     H29169   5.646   8.807   4.995 -0.1520 -0.8401  0.7020
  221MOL0     H29170   5.795   8.423   4.946  0.1668 -0.2124 -0.5500
  221MOL0     H29171   5.169   8.877   5.412  0.6171  2.8463 -1.3108
  221MOL0     H29172   4.956   8.954   5.469 -1.1676  0.0233 -1.4963
  222MOL0     O29173   7.116   5.375   5.426  0.3287 -0.1352 -0.0181
  222MOL0     C29174   7.155   5.444   5.333 -0.2774  0.2329 -0.7382
  222MOL0     O29175   7.078   5.509   5.242  0.6809  0.3021  0.5004
  222MOL0     C29176   6.936   5.518   5.273 -1.5692 -0.4294 -0.3546
  222MOL0     C29177   6.842   5.421   5.248 -0.8402  0.2920  0.0526
  222MOL0     C29178   6.712   5.442   5.287 -0.6139 -0.3352  0.8894
  222MOL0     C29179   6.674   5.564   5.336  0.4552  0.7328 -0.3698
  222MOL0     O29180   6.548   5.588   5.388  0.5909 -0.2652  0.3034
  222MOL0     C29181   6.484   5.487   5.472  0.1461 -0.4321 -0.6772
  222MOL0     C29182   6.377   5.550   5.562  0.5441  0.2579  0.3622
  222MOL0     C29183   6.250   5.575   5.477  0.1558 -0.2559  0.7325
  222MOL0     C29184   6.157   5.675   5.559 -0.1594 -0.1358  0.5699
  222MOL0     C29185   6.026   5.700   5.481 -0.3238 -0.3482 -0.0193
  222MOL0     C29186   6.049   5.786   5.352  0.6738 -0.7038  0.9558
  222MOL0     C29187   5.915   5.822   5.285 -0.6032 -0.4346  0.6484
  222MOL0     C29188   5.931   5.923   5.163 -0.7057 -0.0515  0.2715
  222MOL0     N29189   5.807   5.974   5.109  0.2459 -0.4652 -0.3529
  222MOL0     C29190   5.792   6.066   5.011  0.0138 -0.5371  0.1416
  222MOL0     C29191   5.662   6.074   4.982 -0.7466 -0.5907  0.6563
  222MOL0     C29192   5.600   6.170   4.889 -0.4323 -0.5932  0.3233
  222MOL0     C29193   5.483   6.111   4.830  0.4542  0.1924  0.2344
  222MOL0     C29194   5.442   6.189   4.715 -0.3276 -0.1152 -0.0400
  222MOL0     C29195   5.318   6.149   4.642 -0.4402 -0.2975 -0.5561
  222MOL0     O29196   5.273   6.262   4.568 -0.1823  0.0790  0.1897
  222MOL0     C29197   5.136   6.262   4.534  0.1560 -0.2035 -0.1229
  222MOL0     C29198   5.039   6.174   4.576 -0.1558 -0.0221  0.1672
  222MOL0     C29199   4.904   6.188   4.528 -0.3018  0.9454 -0.3997
  222MOL0     C29200   4.868   6.276   4.428  0.1647  0.0355 -0.6974
  222MOL0     C29201   4.726   6.281   4.369 -1.0771  0.6893 -0.0693
  222MOL0     O29202   4.690   6.388   4.299 -0.1550  0.0493  0.5537
  222MOL0     C29203   4.552   6.412   4.276  0.1916  0.1443 -0.1207
  222MOL0     C29204   4.465   6.493   4.350  0.3020  0.3903  0.1695
  222MOL0     C29205   4.336   6.519   4.300 -0.1686  0.1200  0.7300
  222MOL0     C29206   4.290   6.456   4.180  0.5123  0.8616 -0.0942
  222MOL0     O29207   4.164   6.473   4.129  0.2347 -0.3815  0.4842
  222MOL0     C29208   4.087   6.575   4.193  0.3071 -0.2485  0.2759
  222MOL0     C29209   3.946   6.585   4.132 -0.1566  0.5106  0.7405
  222MOL0     C29210   3.961   6.623   3.991  0.7390  1.2176  0.3587
  222MOL0     C29211   3.827   6.642   3.926 -0.5305 -0.9439 -0.1891
  222MOL0     C29212   3.769   6.777   3.952 -0.6984 -0.3541 -0.6492
  222MOL0     C29213   3.637   6.806   3.886 -0.6621 -0.0037 -0.7164
  222MOL0     C29214   3.584   6.946   3.932  0.4136 -0.0132  0.3744
  222MOL0     C29215   3.480   6.991   3.824 -0.1408 -0.3607 -0.2269
  222MOL0    Cl29216   3.379   7.133   3.863 -0.0989 -0.0563  0.1965
  222MOL0     C29217   4.380   6.385   4.104 -0.7270  0.5185 -0.3959
  222MOL0     C29218   4.511   6.368   4.150 -0.6285 -0.1510  0.1606
  222MOL0     O29219   4.656   6.185   4.398  0.4869 -0.5166  0.3431
  222MOL0     C29220   4.968   6.368   4.385  1.5434 -0.0117  0.0925
  222MOL0     C29221   5.095   6.366   4.439  0.2857 -0.0946 -0.4800
  222MOL0     N29222   5.602   5.998   5.084  0.6387  0.2264  0.0068
  222MOL0     N29223   5.689   5.924   5.145  0.4052 -1.3064  0.6930
  222MOL0     C29224   6.760   5.663   5.352  0.2516 -0.2305 -0.1373
  222MOL0     C29225   6.893   5.651   5.314  0.0639  0.0966  0.4299
  222MOL0     C29226   7.299   5.439   5.289  0.9390  0.3633 -1.0589
  222MOL0     C29227   7.391   5.389   5.386 -0.9153  0.3352 -0.2105
  222MOL0     C29228   7.530   5.380   5.354 -0.0033 -0.0596  0.6189
  222MOL0     C29229   7.574   5.426   5.228  0.0716 -0.1081 -0.7362
  222MOL0     O29230   7.712   5.440   5.194 -0.4264  0.2904 -1.1235
  222MOL0     C29231   7.813   5.380   5.284 -0.0580  0.0459 -0.0225
  222MOL0     C29232   7.960   5.391   5.241  0.2443  0.1551 -0.1484
  222MOL0     C29233   8.047   5.261   5.274  0.7254 -0.9664  0.1234
  222MOL0     C29234   8.197   5.281   5.295 -0.0366 -0.4493 -0.6729
  222MOL0     C29235   8.268   5.353   5.175  0.6038  0.2827 -0.0403
  222MOL0     C29236   8.332   5.405   5.087  0.5903  0.5278  0.0690
  222MOL0     C29237   7.479   5.472   5.131 -0.1793  0.8416  0.1189
  222MOL0     C29238   7.340   5.474   5.161  0.5976  0.6570  0.1050
  222MOL0     H29239   6.868   5.328   5.199  0.0507  1.1512 -1.1882
  222MOL0     H29240   6.643   5.359   5.276  1.5967 -2.1292 -0.4385
  222MOL0     H29241   6.569   5.454   5.533  0.7254  1.4614 -0.4112
  222MOL0     H29242   6.441   5.410   5.407  1.8393 -0.7310 -1.4889
  222MOL0     H29243   6.407   5.639   5.617 -1.4705  0.3384  1.4289
  222MOL0     H29244   6.350   5.474   5.637 -0.3670  0.7016  0.4952
  222MOL0     H29245   6.196   5.486   5.445  3.4707 -1.6636 -1.4787
  222MOL0     H29246   6.289   5.630   5.391 -1.6026 -1.0023 -0.5920
  222MOL0     H29247   6.136   5.622   5.653  0.8483 -1.0732  0.2867
  222MOL0     H29248   6.216   5.768   5.562 -2.9931  2.0664 -3.3319
  222MOL0     H29249   5.962   5.759   5.547  0.7955  2.4363 -1.2695
  222MOL0     H29250   5.971   5.606   5.472 -0.8077  0.0061 -0.8923
  222MOL0     H29251   6.100   5.725   5.277 -1.8978 -2.9433  0.8814
  222MOL0     H29252   6.113   5.871   5.377 -0.8398  0.5203  0.7989
  222MOL0     H29253   5.864   5.734   5.244  1.9690 -0.5077 -2.8893
  222MOL0     H29254   5.849   5.867   5.359  1.6458  4.6094 -0.0278
  222MOL0     H29255   5.969   5.855   5.086 -1.2095  0.8110 -0.7631
  222MOL0     H29256   6.007   5.998   5.185 -2.5793  1.7249  1.0164
  222MOL0     H29257   5.867   6.131   4.967 -1.2387 -0.7652 -2.4692
  222MOL0     H29258   5.673   6.192   4.810 -0.0727 -1.8778  0.2745
  222MOL0     H29259   5.574   6.259   4.946 -1.6571 -2.0713  2.1875
  222MOL0     H29260   5.403   6.103   4.904 -1.7713  1.2814 -1.8715
  222MOL0     H29261   5.490   6.009   4.790  2.8149  0.2929  0.2562
  222MOL0     H29262   5.430   6.290   4.755  0.0407  0.5744 -1.6101
  222MOL0     H29263   5.512   6.196   4.631 -0.2736 -1.5506 -0.1430
  222MOL0     H29264   5.253   6.126   4.727  1.0630  0.6949  0.9447
  222MOL0     H29265   5.342   6.069   4.572  2.3684  0.7902 -0.9518
  222MOL0     H29266   5.061   6.096   4.648 -1.1931 -1.1324 -0.6649
  222MOL0     H29267   4.834   6.115   4.567  3.0320 -1.6410  1.2893
  222MOL0     H29268   4.480   6.524   4.453 -1.1644 -0.8366  0.8041
  222MOL0     H29269   4.279   6.593   4.355  2.3099  2.2250  0.6870
  222MOL0     H29270   4.134   6.673   4.179 -0.8486  0.6253  2.1031
  222MOL0     H29271   4.080   6.542   4.297  0.8536 -2.8727 -0.4546
  222MOL0     H29272   3.895   6.657   4.197  1.0636  1.6585  0.4792
  222MOL0     H29273   3.895   6.489   4.129  3.7218 -1.8366  2.3107
  222MOL0     H29274   3.999   6.532   3.943  2.3032  0.4010  2.9697
  222MOL0     H29275   4.031   6.707   3.981 -1.1824  3.4549  3.8790
  222MOL0     H29276   3.843   6.630   3.819  1.8382  1.6679 -0.2479
  222MOL0     H29277   3.760   6.563   3.962  0.5762 -1.3632  1.0431
  222MOL0     H29278   3.842   6.853   3.924  0.5404 -0.8091  1.1915
  222MOL0     H29279   3.766   6.785   4.061  1.4629 -0.3700 -0.5458
  222MOL0     H29280   3.562   6.730   3.913  0.4155 -0.8464  0.0136
  222MOL0     H29281   3.651   6.809   3.778 -1.4282 -0.9217 -0.8576
  222MOL0     H29282   3.529   6.923   4.023 -0.2315 -1.2656 -0.3019
  222MOL0     H29283   3.661   7.022   3.946  0.0101  0.3669  0.5727
  222MOL0     H29284   3.414   6.906   3.805 -0.7816  0.2296 -0.7077
  222MOL0     H29285   3.531   7.008   3.730  1.1501 -1.4498  0.2512
  222MOL0     H29286   4.343   6.346   4.010  0.9933  0.9307 -1.2934
  222MOL0     H29287   4.585   6.319   4.088 -0.4333 -1.1961  1.1934
  222MOL0     H29288   4.935   6.433   4.305  0.8858 -3.0971 -2.3447
  222MOL0     H29289   5.166   6.447   4.420 -0.1251  0.5626  0.7069
  222MOL0     H29290   6.733   5.763   5.387 -1.3000 -0.5179 -0.4532
  222MOL0     H29291   6.960   5.734   5.336 -0.7722  0.2570  2.6956
  222MOL0     H29292   7.364   5.371   5.489  0.3698  1.7291  0.4241
  222MOL0     H29293   7.595   5.350   5.436 -2.4641  0.9824  3.0892
  222MOL0     H29294   7.784   5.275   5.280 -0.0128 -0.0578  1.6767
  222MOL0     H29295   7.790   5.416   5.385 -2.7925  0.3262 -0.6620
  222MOL0     H29296   7.950   5.401   5.133 -0.4539  1.1974 -0.0047
  222MOL0     H29297   8.008   5.485   5.270  0.9674 -0.2758  0.0741
  222MOL0     H29298   8.042   5.183   5.198  2.7053 -1.0327  0.0096
  222MOL0     H29299   8.005   5.222   5.367  0.0333 -0.5755 -0.0215
  222MOL0     H29300   8.207   5.340   5.386  2.1923 -3.0086  0.8767
  222MOL0     H29301   8.257   5.191   5.312  1.5626  0.5706 -0.6895
  222MOL0     H29302   8.383   5.434   4.997  0.9627  1.2171  0.4892
  222MOL0     H29303   7.516   5.502   5.034 -0.7029  0.6185 -0.1573
  222MOL0     H29304   7.280   5.511   5.078  3.6098  2.2769 -1.5074
  223MOL0     O29305   6.890   6.201   9.304 -0.2121  0.0050 -0.2192
  223MOL0     C29306   6.953   6.277   9.375 -0.0704 -0.3136 -0.1439
  223MOL0     O29307   6.915   6.305   9.501 -0.1529  0.5933 -0.4834
  223MOL0     C29308   6.785   6.280   9.544  1.0280  0.3744  0.0082
  223MOL0     C29309   6.756   6.158   9.597 -0.0850  0.0865  0.2966
  223MOL0     C29310   6.621   6.119   9.644  0.6908  0.5036 -0.8430
  223MOL0     C29311   6.517   6.211   9.629  0.1194 -0.5643  0.5161
  223MOL0     O29312   6.387   6.178   9.656  0.8887  0.3472 -0.0168
  223MOL0     C29313   6.375   6.145   9.795  0.0385 -0.7312  0.6196
  223MOL0     C29314   6.224   6.129   9.817  0.5343  0.2048 -0.1273
  223MOL0     C29315   6.165   5.986   9.795 -0.2241  0.1228  0.1312
  223MOL0     C29316   6.200   5.879   9.898  0.3452  0.5300  0.0574
  223MOL0     C29317   6.095   5.771   9.902 -0.7345 -0.9619 -0.6083
  223MOL0     C29318   6.058   5.710   9.765  1.9301 -0.4391 -0.0624
  223MOL0     C29319   5.989   5.575   9.788  0.9961 -0.4595  0.7084
  223MOL0     C29320   5.849   5.594   9.848  0.6180  0.7321 -0.4908
  223MOL0     N29321   5.775   5.711   9.808  0.5741 -0.1391 -0.1203
  223MOL0     C29322   5.697   5.723   9.692  0.5816 -0.2693 -0.7161
  223MOL0     C29323   5.626   5.836   9.711 -0.0176 -0.0675 -0.0133
  223MOL0     C29324   5.543   5.909   9.609 -0.1253 -0.4511  0.3902
  223MOL0     C29325   5.402   5.858   9.615  0.2605  0.1317  0.0992
  223MOL0     C29326   5.343   5.869   9.748 -0.1794 -0.0460  0.1389
  223MOL0     C29327   5.194   5.819   9.759 -0.5315  1.5079 -0.3816
  223MOL0     O29328   5.107   5.871   9.656  0.8858 -0.1953 -0.7985
  223MOL0     C29329   4.974   5.851   9.672 -0.2676 -0.1061 -1.4606
  223MOL0     C29330   4.906   5.889   9.565  0.4131  0.0353 -0.5260
  223MOL0     C29331   4.766   5.866   9.555 -0.4778 -1.1254  0.1360
  223MOL0     C29332   4.703   5.798   9.662  0.7256 -0.1527  0.8263
  223MOL0     C29333   4.560   5.765   9.639  0.3874 -0.0670  0.5914
  223MOL0     O29334   4.494   5.814   9.521 -0.5516 -0.2165 -0.3201
  223MOL0     C29335   4.371   5.769   9.494  0.2517  0.6465  0.4308
  223MOL0     C29336   4.349   5.703   9.375  0.1177  0.7699  0.2058
  223MOL0     C29337   4.217   5.664   9.333 -0.6679 -0.6406  0.5708
  223MOL0     C29338   4.104   5.696   9.409 -1.0803 -0.6617 -0.1396
  223MOL0     O29339   3.973   5.659   9.363 -0.1783 -0.2214  0.6071
  223MOL0     C29340   3.896   5.617   9.473 -0.3128  0.0706  0.1341
  223MOL0     C29341   3.756   5.663   9.477 -0.1881 -0.2393  0.3568
  223MOL0     C29342   3.667   5.576   9.568  0.2040 -0.1185  0.0489
  223MOL0     C29343   3.523   5.642   9.562 -0.3119  0.1235  0.1984
  223MOL0     C29344   3.520   5.759   9.666  0.1327  0.8886  0.2055
  223MOL0     C29345   3.381   5.832   9.682  0.3449 -0.0494  0.2922
  223MOL0     C29346   3.261   5.727   9.703 -0.0291 -0.4071 -0.3266
  223MOL0     C29347   3.169   5.779   9.819  0.6015 -0.8344  0.1148
  223MOL0    Cl29348   3.114   5.939   9.760 -0.0929 -0.0781  0.0790
  223MOL0     C29349   4.131   5.776   9.526  0.9915  0.4573 -0.1714
  223MOL0     C29350   4.258   5.805   9.567  0.2382  0.9235 -0.3309
  223MOL0     O29351   4.501   5.696   9.720 -0.5052  0.2611 -0.1079
  223MOL0     C29352   4.776   5.746   9.765  0.0828  0.2589 -0.0262
  223MOL0     C29353   4.911   5.778   9.766  0.1237 -0.0083 -0.3130
  223MOL0     N29354   5.664   5.898   9.835  0.1347 -0.1150  0.5272
  223MOL0     N29355   5.741   5.821   9.884  0.6940  0.3787 -0.9217
  223MOL0     C29356   6.543   6.330   9.571 -0.1376 -0.2424  1.3013
  223MOL0     C29357   6.668   6.366   9.529  0.2513 -0.7693  0.5294
  223MOL0     C29358   7.087   6.316   9.339  0.0390 -0.6937 -1.0842
  223MOL0     C29359   7.172   6.387   9.427 -0.5517  0.0718 -0.5772
  223MOL0     C29360   7.307   6.419   9.391  0.1784 -0.1174 -0.2664
  223MOL0     C29361   7.358   6.394   9.259  0.4408  0.0315 -0.4270
  223MOL0     O29362   7.491   6.409   9.218  0.2685 -0.1690 -0.2331
  223MOL0     C29363   7.581   6.480   9.300 -1.3865  0.4827 -0.1801
  223MOL0     C29364   7.725   6.489   9.245  1.1837  0.6318 -0.4494
  223MOL0     C29365   7.803   6.363   9.205  0.1845 -0.0092 -0.1294
  223MOL0     C29366   7.926   6.390   9.125  1.1832  1.7309 -0.9038
  223MOL0     C29367   7.907   6.447   8.996 -0.2322  0.1581  0.5597
  223MOL0     C29368   7.891   6.498   8.886  0.2002 -0.0829  0.4241
  223MOL0     C29369   7.265   6.331   9.169 -1.1091  0.4680  0.3539
  223MOL0     C29370   7.137   6.296   9.210 -0.5901  0.3460 -0.2395
  223MOL0     H29371   6.837   6.088   9.612  3.0664  3.9673  3.9910
  223MOL0     H29372   6.608   6.019   9.683  0.8210  0.0640 -1.8717
  223MOL0     H29373   6.414   6.223   9.860  1.8959 -1.8753  0.9724
  223MOL0     H29374   6.423   6.049   9.817 -2.2359 -1.8594  0.9216
  223MOL0     H29375   6.160   6.193   9.755 -0.4732 -1.3989 -0.8321
  223MOL0     H29376   6.209   6.152   9.923  1.6190 -1.4560  0.4211
  223MOL0     H29377   6.180   5.957   9.691 -1.4514  1.9645 -0.6083
  223MOL0     H29378   6.056   5.998   9.790 -0.4828 -1.0238  1.9120
  223MOL0     H29379   6.300   5.848   9.869  1.8317  3.2894  1.7488
  223MOL0     H29380   6.211   5.927   9.996  0.4622 -0.1535  0.3853
  223MOL0     H29381   6.004   5.808   9.951  0.1671  1.4356 -0.6085
  223MOL0     H29382   6.148   5.703   9.970 -0.9260 -0.2057  0.3322
  223MOL0     H29383   6.146   5.690   9.704  2.6449 -2.3645  1.4951
  223MOL0     H29384   5.992   5.775   9.706  0.9815 -2.2099 -1.0605
  223MOL0     H29385   5.979   5.539   9.685 -0.0060 -1.0562  0.9979
  223MOL0     H29386   6.050   5.505   9.845  0.4303 -1.9207 -0.4295
  223MOL0     H29387   5.870   5.611   9.954 -0.0835  0.9057 -0.3756
  223MOL0     H29388   5.789   5.503   9.846  1.1890  0.1991  2.1859
  223MOL0     H29389   5.691   5.664   9.601 -0.9094 -1.5949  0.1908
  223MOL0     H29390   5.600   5.889   9.518 -0.4317 -0.6108  0.2312
  223MOL0     H29391   5.540   6.017   9.620 -1.8220 -0.5240  0.9051
  223MOL0     H29392   5.392   5.758   9.571 -1.9101  0.8022 -1.0855
  223MOL0     H29393   5.338   5.919   9.550  0.1715  0.1961  0.2480
  223MOL0     H29394   5.407   5.817   9.821  0.4591  0.4992 -0.0214
  223MOL0     H29395   5.349   5.976   9.771 -1.2946  0.1309 -0.3364
  223MOL0     H29396   5.156   5.851   9.857 -2.7818  0.6309 -0.9247
  223MOL0     H29397   5.197   5.710   9.756  3.9326  1.3960  1.1218
  223MOL0     H29398   4.957   5.940   9.484 -1.9703  2.7605 -0.4760
  223MOL0     H29399   4.712   5.906   9.468 -0.1058  0.3869  0.5623
  223MOL0     H29400   4.438   5.680   9.318 -0.0936  1.5835 -0.4649
  223MOL0     H29401   4.201   5.619   9.236  3.4483 -0.3837 -0.4007
  223MOL0     H29402   3.937   5.651   9.568 -1.5086  1.2046  0.2667
  223MOL0     H29403   3.912   5.509   9.481  1.3782  0.3483  0.9769
  223MOL0     H29404   3.717   5.646   9.376 -0.9553  0.2455  0.5658
  223MOL0     H29405   3.746   5.768   9.506  1.2047  0.5656 -1.7495
  223MOL0     H29406   3.702   5.587   9.671  0.1065 -1.7299  0.2732
  223MOL0     H29407   3.665   5.470   9.541  1.8542  0.0613 -0.9310
  223MOL0     H29408   3.501   5.674   9.459  1.2093 -1.3583 -0.6403
  223MOL0     H29409   3.450   5.564   9.587 -1.4552  0.0838 -2.7842
  223MOL0     H29410   3.595   5.836   9.644  1.7612 -1.3933 -2.9784
  223MOL0     H29411   3.545   5.717   9.763  0.7351  0.3222 -0.1872
  223MOL0     H29412   3.360   5.908   9.607 -1.5871  1.7355  2.5054
  223MOL0     H29413   3.402   5.898   9.766  0.8967 -1.8675  1.6620
  223MOL0     H29414   3.198   5.718   9.614  1.1936  2.2137 -1.5902
  223MOL0     H29415   3.301   5.629   9.731  3.5411  0.7113 -1.0212
  223MOL0     H29416   3.226   5.776   9.913  1.3531 -3.6078 -0.3559
  223MOL0     H29417   3.085   5.710   9.835  1.7041 -2.4661 -0.8429
  223MOL0     H29418   4.051   5.808   9.593 -0.3239  0.0528 -1.5101
  223MOL0     H29419   4.255   5.873   9.651 -2.6297  0.2912  0.1635
  223MOL0     H29420   4.730   5.693   9.847  0.1766  1.9068  1.1402
  223MOL0     H29421   4.961   5.745   9.856  0.3070  0.7071 -0.1453
  223MOL0     H29422   6.461   6.393   9.539  0.5589  1.1830  2.2045
  223MOL0     H29423   6.677   6.460   9.476 -2.5564 -0.4277  0.5111
  223MOL0     H29424   7.135   6.422   9.523  2.6426 -2.1147  1.6934
  223MOL0     H29425   7.375   6.473   9.455  1.2206 -2.2328  0.4838
  223MOL0     H29426   7.591   6.432   9.398  3.2947  0.9543 -0.2184
  223MOL0     H29427   7.544   6.583   9.314  1.5859  1.6331 -0.0215
  223MOL0     H29428   7.725   6.555   9.158  0.6409  0.1821 -0.7964
  223MOL0     H29429   7.782   6.534   9.327 -1.0052  3.6526 -0.4104
  223MOL0     H29430   7.734   6.300   9.148  0.4989  1.1467 -1.8890
  223MOL0     H29431   7.839   6.300   9.286  1.5517  0.5334 -0.2828
  223MOL0     H29432   7.993   6.442   9.194  0.8589 -1.4228  2.0742
  223MOL0     H29433   7.961   6.290   9.097 -4.4320 -0.2726 -2.0109
  223MOL0     H29434   7.877   6.541   8.789  1.2979  0.1904  0.3744
  223MOL0     H29435   7.300   6.302   9.071  2.4987  2.8697  0.7649
  223MOL0     H29436   7.062   6.253   9.145 -1.4924 -1.8903  2.0733
  224MOL0     O29437   0.716   4.761   2.497 -0.0307  0.2750 -0.8429
  224MOL0     C29438   0.781   4.863   2.526  0.7274 -1.0776  0.9041
  224MOL0     O29439   0.731   4.992   2.524  0.2332  0.3322  0.0513
  224MOL0     C29440   0.602   5.015   2.472 -0.3139  0.1239 -0.4611
  224MOL0     C29441   0.564   4.976   2.348 -0.2796  0.5108  0.5855
  224MOL0     C29442   0.439   5.011   2.304  0.7382  0.0493 -0.3759
  224MOL0     C29443   0.356   5.096   2.380 -0.4728  0.6443 -0.3363
  224MOL0     O29444   0.223   5.123   2.373  0.5907  0.5470 -0.2614
  224MOL0     C29445   0.158   5.054   2.264 -0.7004 -0.2824 -0.4079
  224MOL0     C29446   0.011   5.080   2.262 -0.3956 -0.2271  0.1967
  224MOL0     C29447  -0.054   5.048   2.125  0.3055 -0.1065  0.0196
  224MOL0     C29448  -0.208   5.046   2.125  0.3457  0.0178 -0.0528
  224MOL0     C29449  -0.252   5.008   1.987 -0.0418 -0.2434  0.0738
  224MOL0     C29450  -0.405   5.007   1.967 -0.2672 -0.4991 -0.8723
  224MOL0     C29451  -0.453   4.998   1.825 -0.0422 -0.1010 -0.4094
  224MOL0     C29452  -0.390   4.875   1.752  0.1882 -0.0942  0.6004
  224MOL0     N29453  -0.496   4.810   1.674 -0.0080  0.2940 -0.0516
  224MOL0     C29454  -0.613   4.766   1.717  0.4283 -0.5655  0.3717
  224MOL0     C29455  -0.658   4.696   1.607 -0.2815  0.6468 -0.3263
  224MOL0     C29456  -0.787   4.628   1.607 -0.2434  0.0788 -0.2403
  224MOL0     C29457  -0.907   4.719   1.618  0.2046 -0.6474 -0.4480
  224MOL0     C29458  -1.037   4.643   1.598  1.1826 -0.7880 -0.3396
  224MOL0     C29459  -1.161   4.742   1.651  0.2276  0.4949 -1.0265
  224MOL0     O29460  -1.288   4.682   1.621 -0.9441  0.7519  0.3276
  224MOL0     C29461  -1.399   4.734   1.683  0.5668  0.2328 -0.3892
  224MOL0     C29462  -1.398   4.820   1.795 -0.3219  0.1539 -0.3246
  224MOL0     C29463  -1.511   4.880   1.850 -0.0697 -0.2406  0.2732
  224MOL0     C29464  -1.632   4.850   1.798  1.2192 -0.1190 -0.7826
  224MOL0     C29465  -1.761   4.888   1.859 -0.0712 -0.2520  0.3752
  224MOL0     O29466  -1.751   4.941   1.986  0.2375 -0.1289 -0.3529
  224MOL0     C29467  -1.877   4.978   2.044 -0.8532 -0.4898 -0.5706
  224MOL0     C29468  -1.937   5.097   2.021 -0.2786 -0.7155 -0.2688
  224MOL0     C29469  -2.041   5.143   2.091 -0.6498 -0.4730 -0.5295
  224MOL0     C29470  -2.102   5.063   2.200  0.1748 -0.6829 -0.3362
  224MOL0     O29471  -2.210   5.105   2.278  0.7951  0.6650 -0.3573
  224MOL0     C29472  -2.278   5.225   2.236  0.3953 -0.1504  0.0158
  224MOL0     C29473  -2.413   5.229   2.297  0.3394 -0.7923 -0.1216
  224MOL0     C29474  -2.486   5.350   2.239 -0.1578  0.0876 -0.7068
  224MOL0     C29475  -2.620   5.347   2.311  0.3342  0.9109 -0.5549
  224MOL0     C29476  -2.703   5.473   2.262 -0.6094  0.0748 -0.9267
  224MOL0     C29477  -2.854   5.473   2.291  0.0538  0.1467 -0.3323
  224MOL0     C29478  -2.930   5.605   2.268 -0.3003 -0.5136 -0.4453
  224MOL0     C29479  -3.075   5.578   2.306 -0.1971  0.1375 -0.3091
  224MOL0    Cl29480  -3.106   5.599   2.487 -0.1995 -0.1008 -0.3347
  224MOL0     C29481  -2.047   4.938   2.223 -0.6489  0.7679  0.5010
  224MOL0     C29482  -1.935   4.896   2.148  0.0244 -0.8486 -0.4775
  224MOL0     O29483  -1.867   4.871   1.796 -0.7566  0.9255  0.4823
  224MOL0     C29484  -1.641   4.770   1.688  0.0383 -0.7285 -0.5328
  224MOL0     C29485  -1.529   4.714   1.627 -0.0359  0.7585  0.4397
  224MOL0     N29486  -0.569   4.702   1.505 -0.3534 -0.3336  0.2469
  224MOL0     N29487  -0.471   4.774   1.548 -0.5142 -0.1397 -0.1248
  224MOL0     C29488   0.407   5.138   2.506  0.0200 -0.6434 -0.1439
  224MOL0     C29489   0.532   5.100   2.554 -0.4773  0.3532 -0.3260
  224MOL0     C29490   0.916   4.844   2.574 -0.4635 -0.1063 -0.5751
  224MOL0     C29491   0.966   4.717   2.579 -0.0183  0.4467 -0.0653
  224MOL0     C29492   1.100   4.694   2.615  0.3569 -0.3224  0.2309
  224MOL0     C29493   1.186   4.792   2.658  0.8690 -0.2370  0.6842
  224MOL0     O29494   1.313   4.788   2.702  0.2272 -0.4178 -0.1126
  224MOL0     C29495   1.390   4.664   2.690 -0.0397 -0.1908 -0.1261
  224MOL0     C29496   1.433   4.648   2.540  0.9548  0.1174  0.1498
  224MOL0     C29497   1.534   4.751   2.492  0.7221  0.3527  0.0480
  224MOL0     C29498   1.548   4.750   2.339  0.2648 -0.0340  0.1857
  224MOL0     C29499   1.645   4.847   2.280  0.5314  0.3655  0.5877
  224MOL0     C29500   1.734   4.921   2.245 -0.2812  0.6088 -0.3675
  224MOL0     C29501   1.132   4.925   2.657 -0.3387 -0.0708  0.5357
  224MOL0     C29502   1.002   4.947   2.613 -0.1549  0.4411  0.1557
  224MOL0     H29503   0.637   4.927   2.284  0.2285  1.5193  0.3835
  224MOL0     H29504   0.403   4.970   2.210  0.6518 -0.6130 -0.0637
  224MOL0     H29505   0.183   4.948   2.275  1.2273  0.0077 -1.4648
  224MOL0     H29506   0.205   5.071   2.167 -3.7327 -1.7820 -2.2853
  224MOL0     H29507  -0.010   5.187   2.272 -2.2102 -0.0491 -3.5340
  224MOL0     H29508  -0.038   5.027   2.344  0.1968 -0.5692  0.3324
  224MOL0     H29509  -0.023   4.945   2.102 -2.2527 -0.7825 -0.7743
  224MOL0     H29510  -0.008   5.107   2.046 -0.2356 -0.8427 -0.8710
  224MOL0     H29511  -0.256   4.976   2.194 -0.5416 -0.6403 -1.3015
  224MOL0     H29512  -0.245   5.147   2.146 -2.9802 -0.6506 -2.0122
  224MOL0     H29513  -0.222   4.903   1.984  0.3709 -0.2303  2.2450
  224MOL0     H29514  -0.193   5.075   1.925 -0.3653 -0.7286 -0.7717
  224MOL0     H29515  -0.446   5.099   2.009  0.1913  0.0832 -1.6606
  224MOL0     H29516  -0.443   4.924   2.027 -1.9608  0.4201 -0.6140
  224MOL0     H29517  -0.562   4.987   1.823 -0.0438 -0.2336  0.2661
  224MOL0     H29518  -0.423   5.084   1.765 -1.2641  0.7058  0.1109
  224MOL0     H29519  -0.354   4.802   1.824 -0.5896 -0.7178  0.3662
  224MOL0     H29520  -0.316   4.906   1.678  0.4158 -2.1986 -0.1252
  224MOL0     H29521  -0.663   4.788   1.811 -0.7810  0.4018 -0.4540
  224MOL0     H29522  -0.797   4.560   1.691 -1.4733  1.1131  0.4877
  224MOL0     H29523  -0.794   4.563   1.519 -0.6592 -1.4378  0.8802
  224MOL0     H29524  -0.904   4.800   1.544  1.6469  1.1089  1.4276
  224MOL0     H29525  -0.902   4.751   1.723 -2.0722 -2.0410  0.1477
  224MOL0     H29526  -1.048   4.617   1.492 -0.1278 -4.5786  0.5822
  224MOL0     H29527  -1.046   4.550   1.655 -1.5656 -0.4040 -0.0160
  224MOL0     H29528  -1.154   4.842   1.606  2.3594 -0.0307 -2.0232
  224MOL0     H29529  -1.148   4.758   1.758  1.7180 -0.7947 -0.9711
  224MOL0     H29530  -1.306   4.851   1.843  1.9650 -2.7689 -2.4476
  224MOL0     H29531  -1.503   4.952   1.931  2.5190 -0.4255  0.2522
  224MOL0     H29532  -1.896   5.161   1.944 -3.2094  3.4587  1.2640
  224MOL0     H29533  -2.092   5.233   2.058 -1.9692 -0.2967  1.7943
  224MOL0     H29534  -2.297   5.231   2.129 -0.1073  0.6048  0.1407
  224MOL0     H29535  -2.223   5.317   2.258 -0.0628  0.4258 -1.1837
  224MOL0     H29536  -2.402   5.254   2.403  0.7101 -4.6403  0.9331
  224MOL0     H29537  -2.479   5.141   2.289 -3.1986  1.5067  1.3067
  224MOL0     H29538  -2.503   5.345   2.131 -3.1029  1.5915 -0.3862
  224MOL0     H29539  -2.433   5.443   2.260 -3.9002  1.8726  1.8601
  224MOL0     H29540  -2.683   5.262   2.284  0.5135  0.5698  0.0800
  224MOL0     H29541  -2.611   5.351   2.420 -1.3022  0.3733 -0.3682
  224MOL0     H29542  -2.689   5.482   2.154 -2.6058 -1.8838 -1.4183
  224MOL0     H29543  -2.660   5.565   2.303 -0.3275  0.9343 -3.0240
  224MOL0     H29544  -2.875   5.459   2.397 -0.6005  1.9225 -0.1940
  224MOL0     H29545  -2.896   5.396   2.225 -2.2501  0.1746  0.9940
  224MOL0     H29546  -2.906   5.687   2.336 -1.7480 -0.7461  0.4132
  224MOL0     H29547  -2.910   5.644   2.168  2.1411  0.1098  0.2290
  224MOL0     H29548  -3.119   5.487   2.265  1.2942 -0.4028 -0.7665
  224MOL0     H29549  -3.119   5.664   2.255  0.6311 -0.0768 -1.4242
  224MOL0     H29550  -2.091   4.877   2.302 -3.4739 -0.5621 -1.8781
  224MOL0     H29551  -1.894   4.799   2.176 -2.3621 -1.5651  0.9108
  224MOL0     H29552  -1.736   4.750   1.639 -1.4754  1.5029  1.2863
  224MOL0     H29553  -1.539   4.658   1.535  0.4327  2.6357 -0.8231
  224MOL0     H29554   0.336   5.199   2.560  0.6906  2.6718 -2.7281
  224MOL0     H29555   0.552   5.127   2.657 -0.6447 -0.9130  0.0538
  224MOL0     H29556   0.907   4.630   2.551 -0.5507  0.4874  0.9058
  224MOL0     H29557   1.145   4.596   2.603 -1.6888 -1.5208  1.7047
  224MOL0     H29558   1.342   4.572   2.722  0.9011 -1.3461 -1.8354
  224MOL0     H29559   1.482   4.668   2.748  2.7864 -1.5088 -4.0389
  224MOL0     H29560   1.477   4.547   2.535 -0.0924 -0.5042  2.4112
  224MOL0     H29561   1.348   4.650   2.471  1.3265 -0.6876 -0.3587
  224MOL0     H29562   1.634   4.729   2.528  0.9995  0.2385 -0.7659
  224MOL0     H29563   1.501   4.847   2.533  0.1967 -0.7789  2.5007
  224MOL0     H29564   1.595   4.655   2.310 -3.8741 -2.5958  0.9148
  224MOL0     H29565   1.451   4.759   2.289 -1.0564  1.5980  2.8087
  224MOL0     H29566   1.805   4.991   2.206 -0.9782  0.4971 -1.8910
  224MOL0     H29567   1.199   5.007   2.680  0.4232 -1.0119  1.7942
  224MOL0     H29568   0.961   5.047   2.627  0.8143  0.6328  1.7753
  225MOL0     O29569  11.014   8.641   1.458 -0.3005 -0.4989 -0.5907
  225MOL0     C29570  11.096   8.560   1.416 -0.2358 -0.4133  0.1551
  225MOL0     O29571  11.092   8.505   1.294  0.2769  0.3683 -0.2232
  225MOL0     C29572  10.969   8.474   1.241 -0.4494  0.1255 -0.2494
  225MOL0     C29573  10.870   8.423   1.321 -0.7092  0.2946  0.2013
  225MOL0     C29574  10.742   8.393   1.268  0.3187 -0.3644  0.1585
  225MOL0     C29575  10.718   8.418   1.133 -1.0225 -0.7601  0.9970
  225MOL0     O29576  10.600   8.385   1.072 -0.9365  0.0843  0.5711
  225MOL0     C29577  10.478   8.419   1.140 -0.8402 -0.5324 -1.0197
  225MOL0     C29578  10.460   8.570   1.133  0.5392 -1.2407 -0.2492
  225MOL0     C29579  10.332   8.610   1.217 -0.8685  0.6066  0.5531
  225MOL0     C29580  10.311   8.753   1.222  0.5762  0.5328 -0.4573
  225MOL0     C29581  10.164   8.788   1.225 -0.3629 -0.0467  0.9836
  225MOL0     C29582  10.097   8.722   1.343 -0.8921 -0.3199 -0.1574
  225MOL0     C29583   9.948   8.775   1.345 -1.0472 -0.0986  0.0440
  225MOL0     C29584   9.893   8.711   1.473  0.2861  0.0084 -0.2642
  225MOL0     N29585   9.751   8.755   1.499 -0.1200  0.1581  0.0358
  225MOL0     C29586   9.692   8.737   1.614  0.2297 -0.0625 -0.7682
  225MOL0     C29587   9.562   8.784   1.597 -0.9066 -0.1197 -1.3704
  225MOL0     C29588   9.439   8.769   1.684 -0.2820 -1.1933  0.7725
  225MOL0     C29589   9.374   8.634   1.655  0.8075  1.0502 -0.1616
  225MOL0     C29590   9.227   8.641   1.712  0.0139  0.2296  0.5473
  225MOL0     C29591   9.157   8.504   1.695 -0.3452  0.1249 -0.0824
  225MOL0     O29592   9.181   8.449   1.565 -0.0365 -0.1668  0.1097
  225MOL0     C29593   9.079   8.482   1.473 -1.2000 -0.3153  0.0524
  225MOL0     C29594   9.093   8.583   1.375 -0.5502 -0.3268 -0.4386
  225MOL0     C29595   8.996   8.600   1.277  0.2274  0.0443 -0.6538
  225MOL0     C29596   8.874   8.528   1.272 -0.1879  0.2370  0.4357
  225MOL0     C29597   8.762   8.554   1.184  0.4839  0.3000 -0.1636
  225MOL0     O29598   8.780   8.639   1.079 -0.3547 -0.2080 -0.0219
  225MOL0     C29599   8.667   8.660   1.005  0.3857 -0.5034  0.1255
  225MOL0     C29600   8.607   8.789   0.990 -0.1051  0.3770 -0.3244
  225MOL0     C29601   8.504   8.806   0.901 -0.3703 -1.0742 -0.2865
  225MOL0     C29602   8.446   8.696   0.839  0.3273  0.7906  0.6188
  225MOL0     O29603   8.337   8.708   0.760 -0.0997  0.1150 -0.0717
  225MOL0     C29604   8.257   8.825   0.770  0.3889  0.0513 -0.6251
  225MOL0     C29605   8.127   8.801   0.701 -0.2478 -0.5265  0.3986
  225MOL0     C29606   8.050   8.707   0.787 -0.8990 -0.4560  0.0136
  225MOL0     C29607   7.918   8.677   0.722  0.3649 -0.0468  0.2144
  225MOL0     C29608   7.808   8.780   0.730  0.0786  0.2859 -0.2868
  225MOL0     C29609   7.771   8.822   0.866 -0.0791 -0.2901 -0.5714
  225MOL0     C29610   7.718   8.713   0.964  0.2346 -0.3687 -0.1402
  225MOL0     C29611   7.825   8.659   1.060 -0.2654  0.5552  0.2720
  225MOL0    Cl29612   7.873   8.799   1.162  0.2131 -0.1601  0.1025
  225MOL0     C29613   8.498   8.572   0.846  0.0279  0.2182 -0.0914
  225MOL0     C29614   8.607   8.558   0.929  0.2441  0.0564  1.5934
  225MOL0     O29615   8.655   8.509   1.227 -0.0558  0.5701 -0.3036
  225MOL0     C29616   8.874   8.417   1.360 -0.0460  0.5643 -0.2525
  225MOL0     C29617   8.976   8.392   1.462  0.7255 -0.1464 -0.5720
  225MOL0     N29618   9.564   8.838   1.474  0.5305  0.0746  0.3229
  225MOL0     N29619   9.674   8.821   1.411 -0.2957 -0.7054  0.6199
  225MOL0     C29620  10.826   8.460   1.052 -0.1427  0.5575  0.1175
  225MOL0     C29621  10.950   8.493   1.109 -0.4089  0.5975 -0.6079
  225MOL0     C29622  11.224   8.554   1.485  0.2985 -0.1553 -0.5745
  225MOL0     C29623  11.236   8.605   1.617 -0.4712  0.5585 -0.3100
  225MOL0     C29624  11.357   8.603   1.687 -1.3576 -0.5412  0.3754
  225MOL0     C29625  11.478   8.558   1.622  1.0386  0.2764 -1.1547
  225MOL0     O29626  11.592   8.563   1.688  0.4582  0.0197  0.3253
  225MOL0     C29627  11.702   8.618   1.628 -0.4094 -0.2193  0.3245
  225MOL0     C29628  11.817   8.520   1.591 -0.1636 -0.3403 -0.0092
  225MOL0     C29629  11.911   8.484   1.709 -0.3285  0.2523  0.0578
  225MOL0     C29630  12.039   8.395   1.657 -0.4476  0.0478 -0.1997
  225MOL0     C29631  12.120   8.480   1.565  0.3857 -0.3513  0.0959
  225MOL0     C29632  12.199   8.539   1.486 -0.2805  0.5028  0.1011
  225MOL0     C29633  11.467   8.510   1.494  0.5622 -0.6183 -0.2373
  225MOL0     C29634  11.341   8.505   1.425  0.1180  0.5006 -0.3892
  225MOL0     H29635  10.884   8.435   1.428 -2.6387 -1.1590  0.6796
  225MOL0     H29636  10.668   8.344   1.331  1.6779 -2.9811 -0.1565
  225MOL0     H29637  10.477   8.380   1.243 -0.9089  1.2828 -0.3017
  225MOL0     H29638  10.394   8.361   1.100 -1.0516 -2.7490  2.2338
  225MOL0     H29639  10.443   8.601   1.030  0.1813 -0.6442 -0.0136
  225MOL0     H29640  10.547   8.620   1.175 -1.3666  1.9035  0.2623
  225MOL0     H29641  10.338   8.570   1.319 -0.0464  0.6355  0.5262
  225MOL0     H29642  10.252   8.567   1.156 -1.0794  0.0369  1.2071
  225MOL0     H29643  10.350   8.796   1.315  1.4719 -0.6395 -0.2682
  225MOL0     H29644  10.366   8.809   1.146  3.3315  0.6437  1.4533
  225MOL0     H29645  10.110   8.768   1.132  2.6398 -0.8921 -0.7030
  225MOL0     H29646  10.152   8.897   1.230 -0.1405 -0.0592  2.0604
  225MOL0     H29647  10.143   8.762   1.433 -2.5593  0.0880  0.5524
  225MOL0     H29648  10.097   8.612   1.343  1.7838 -0.4452 -2.6530
  225MOL0     H29649   9.957   8.884   1.346 -1.3323 -0.0159 -2.0981
  225MOL0     H29650   9.885   8.753   1.259  0.3973  1.4144 -1.4906
  225MOL0     H29651   9.965   8.733   1.553  0.0193  1.4477 -0.3997
  225MOL0     H29652   9.895   8.602   1.465  1.9469 -0.1794  1.7893
  225MOL0     H29653   9.722   8.678   1.700  1.0257 -0.3935 -1.2660
  225MOL0     H29654   9.367   8.848   1.662  0.5868 -0.9122 -1.3318
  225MOL0     H29655   9.469   8.781   1.788  1.0239 -0.3463  0.3359
  225MOL0     H29656   9.426   8.546   1.695  2.1782  1.0870 -1.7593
  225MOL0     H29657   9.370   8.626   1.546  0.0878 -0.9350 -0.0270
  225MOL0     H29658   9.220   8.671   1.817 -3.3399  0.0177  0.4832
  225MOL0     H29659   9.169   8.717   1.660 -1.8610 -1.6504 -0.2506
  225MOL0     H29660   9.051   8.523   1.710 -0.3071 -0.9947  1.8961
  225MOL0     H29661   9.188   8.431   1.771  1.4738 -0.7255 -1.5416
  225MOL0     H29662   9.185   8.640   1.389 -1.3200  0.3682  2.7120
  225MOL0     H29663   9.016   8.683   1.210  4.0480 -0.4822 -0.3736
  225MOL0     H29664   8.663   8.872   1.032  0.4666 -0.3117  0.3168
  225MOL0     H29665   8.470   8.908   0.887 -1.7746 -1.4895 -0.0155
  225MOL0     H29666   8.303   8.915   0.728 -0.6240  1.4179  1.0545
  225MOL0     H29667   8.245   8.858   0.873  3.7757  2.0733 -0.7333
  225MOL0     H29668   8.138   8.776   0.595 -0.6770  1.1955 -0.0857
  225MOL0     H29669   8.066   8.892   0.699 -0.8620 -0.9275 -1.3293
  225MOL0     H29670   8.040   8.753   0.886  0.7946  1.1161 -0.4800
  225MOL0     H29671   8.106   8.614   0.804  1.4558  1.1299  1.5576
  225MOL0     H29672   7.933   8.662   0.615  0.2992 -3.8786  0.6187
  225MOL0     H29673   7.878   8.582   0.757  1.0312 -0.9335 -1.3418
  225MOL0     H29674   7.719   8.749   0.674 -0.3786  2.4892 -0.8781
  225MOL0     H29675   7.839   8.867   0.671 -0.1803 -0.4317 -1.5247
  225MOL0     H29676   7.689   8.894   0.856  0.7285  1.7298  4.3548
  225MOL0     H29677   7.846   8.879   0.922 -2.5458  2.3605  0.3060
  225MOL0     H29678   7.639   8.754   1.027 -0.0806 -0.9237 -0.1635
  225MOL0     H29679   7.669   8.639   0.900 -0.2261  0.9081 -1.3201
  225MOL0     H29680   7.908   8.621   0.999 -2.1965  0.4248 -2.4163
  225MOL0     H29681   7.791   8.583   1.131  2.0218 -0.6651  0.1621
  225MOL0     H29682   8.463   8.491   0.782  1.2661 -1.8098  1.6915
  225MOL0     H29683   8.647   8.458   0.942  0.7391  0.0510  0.1949
  225MOL0     H29684   8.797   8.342   1.376 -1.8411  2.1498 -1.0542
  225MOL0     H29685   8.982   8.301   1.520  3.7664 -0.5204 -1.2508
  225MOL0     H29686  10.808   8.464   0.945 -3.0439  0.9232  0.5385
  225MOL0     H29687  11.024   8.543   1.047  1.1005 -0.0564  0.6029
  225MOL0     H29688  11.157   8.641   1.682 -0.5535 -3.4482  2.2019
  225MOL0     H29689  11.365   8.645   1.787  3.6690 -2.2036  0.9491
  225MOL0     H29690  11.750   8.688   1.698  0.9559 -1.9610  1.1914
  225MOL0     H29691  11.670   8.693   1.555  0.7262  0.9936  1.0089
  225MOL0     H29692  11.769   8.436   1.541  1.1570 -1.1310  0.0139
  225MOL0     H29693  11.877   8.571   1.514 -0.6946  0.8928  0.3592
  225MOL0     H29694  11.851   8.439   1.788 -0.4143 -2.9051 -1.6519
  225MOL0     H29695  11.944   8.579   1.754 -0.8817 -0.0284  1.0935
  225MOL0     H29696  12.103   8.370   1.742 -2.4989  1.1026  1.7497
  225MOL0     H29697  11.996   8.303   1.616 -1.1065  0.9237 -1.5225
  225MOL0     H29698  12.277   8.584   1.428  0.6801 -1.8129 -0.4797
  225MOL0     H29699  11.562   8.474   1.457  0.4113 -0.0446 -1.2164
  225MOL0     H29700  11.330   8.452   1.331 -1.5031 -0.5115  0.3292
  226MOL0     O29701   1.805   0.802   6.215  0.3932  0.0994  0.2653
  226MOL0     C29702   1.838   0.854   6.108 -0.3387  0.3257  0.7050
  226MOL0     O29703   1.755   0.912   6.020 -0.3052 -0.0978  0.3757
  226MOL0     C29704   1.623   0.903   6.045 -0.5197  0.3669  0.7244
  226MOL0     C29705   1.557   1.004   6.116 -0.5894 -0.2084  0.3557
  226MOL0     C29706   1.422   1.005   6.139 -1.0447 -0.7547 -0.2662
  226MOL0     C29707   1.339   0.909   6.092  0.1539  0.0436  0.2266
  226MOL0     O29708   1.201   0.908   6.095  0.0529 -0.0251  0.2351
  226MOL0     C29709   1.118   0.941   6.212 -0.3018 -1.3277  0.4302
  226MOL0     C29710   1.086   0.799   6.266 -0.3809 -0.1442 -0.5434
  226MOL0     C29711   1.002   0.715   6.165  0.5955  0.4573  0.1386
  226MOL0     C29712   0.932   0.598   6.239 -0.2123 -0.2201  0.0395
  226MOL0     C29713   0.834   0.532   6.142 -0.9873 -0.4971 -0.5730
  226MOL0     C29714   0.739   0.436   6.219 -0.0174  0.6133  0.5420
  226MOL0     C29715   0.619   0.396   6.129 -0.3856  0.3488 -0.9049
  226MOL0     C29716   0.527   0.290   6.196 -0.0474  0.4279  0.8211
  226MOL0     N29717   0.393   0.335   6.159  0.0097 -0.4439 -0.4518
  226MOL0     C29718   0.331   0.442   6.221  0.6882  0.6524  0.1245
  226MOL0     C29719   0.216   0.454   6.140 -0.3109  0.6707 -0.4903
  226MOL0     C29720   0.096   0.541   6.169 -0.5097 -0.5128 -0.0277
  226MOL0     C29721   0.120   0.692   6.134 -0.2337  0.8700 -0.0018
  226MOL0     C29722   0.013   0.786   6.194  0.1374  0.4580  0.8519
  226MOL0     C29723   0.017   0.812   6.347  0.3781  0.3135  0.6930
  226MOL0     O29724  -0.038   0.942   6.384 -0.3174  0.0379  1.0123
  226MOL0     C29725  -0.177   0.935   6.405 -0.7707 -0.7838  0.6009
  226MOL0     C29726  -0.234   1.061   6.427  0.0959  0.1673  1.0252
  226MOL0     C29727  -0.373   1.078   6.418 -0.1160 -0.1697 -0.6461
  226MOL0     C29728  -0.468   0.967   6.422 -0.4787 -0.9253 -0.2903
  226MOL0     C29729  -0.611   1.009   6.419  0.5598 -0.0289 -0.5254
  226MOL0     O29730  -0.653   1.139   6.389 -0.4714  0.1367  0.1002
  226MOL0     C29731  -0.781   1.178   6.378 -0.2599  0.4704  0.0755
  226MOL0     C29732  -0.889   1.097   6.335  0.3638 -0.4925  0.0739
  226MOL0     C29733  -1.016   1.142   6.320 -0.5478 -0.0309  0.3361
  226MOL0     C29734  -1.044   1.278   6.362  0.1626  0.3524  0.6568
  226MOL0     O29735  -1.165   1.339   6.362 -0.2121  0.1900 -0.5421
  226MOL0     C29736  -1.272   1.292   6.278 -0.1956  0.6526  0.5573
  226MOL0     C29737  -1.389   1.388   6.273  0.3981 -0.4324 -1.0838
  226MOL0     C29738  -1.502   1.342   6.177 -0.3378 -0.1261 -0.0390
  226MOL0     C29739  -1.632   1.391   6.234 -0.3952  0.0807  0.8896
  226MOL0     C29740  -1.752   1.360   6.135 -0.0829  0.2899 -0.1643
  226MOL0     C29741  -1.780   1.208   6.124  0.3763  0.6465  0.4836
  226MOL0     C29742  -1.912   1.184   6.050  0.0666 -0.2990  0.1019
  226MOL0     C29743  -1.897   1.193   5.900  0.4777  0.5297  0.1461
  226MOL0    Cl29744  -2.054   1.155   5.820  0.1628 -0.6320 -0.0135
  226MOL0     C29745  -0.943   1.356   6.418  0.2730 -0.4388  0.4821
  226MOL0     C29746  -0.812   1.306   6.422  0.0247 -1.5094 -0.8377
  226MOL0     O29747  -0.685   0.917   6.449  0.1167 -0.2341  0.2090
  226MOL0     C29748  -0.405   0.838   6.421 -0.4879  0.9259 -0.0722
  226MOL0     C29749  -0.264   0.825   6.411 -0.5271  0.0261  0.4396
  226MOL0     N29750   0.221   0.362   6.042  0.8094 -0.2543  0.0209
  226MOL0     N29751   0.327   0.293   6.050  1.0190  0.1369  0.7331
  226MOL0     C29752   1.406   0.808   6.015 -0.0663  0.6376 -0.4049
  226MOL0     C29753   1.541   0.803   5.989 -0.9401 -0.7655 -0.4919
  226MOL0     C29754   1.981   0.852   6.071  0.3864 -0.5207 -0.2457
  226MOL0     C29755   2.020   0.849   5.942  0.3834 -0.7205  0.0596
  226MOL0     C29756   2.150   0.835   5.910 -1.2881 -0.4222  0.4136
  226MOL0     C29757   2.256   0.837   5.989  0.0906 -0.1568  0.4429
  226MOL0     O29758   2.379   0.815   5.932 -0.1515 -0.1294 -0.2316
  226MOL0     C29759   2.483   0.823   6.023 -0.6263 -0.7668 -0.1000
  226MOL0     C29760   2.615   0.775   5.959  0.1270 -0.8780 -0.0351
  226MOL0     C29761   2.737   0.819   6.034  0.3767  0.7399  0.7779
  226MOL0     C29762   2.856   0.718   5.995 -0.1333  0.3423  0.1938
  226MOL0     C29763   2.970   0.767   6.075  0.2074 -0.2409  0.6107
  226MOL0     C29764   3.070   0.790   6.128 -0.5400 -0.4814  0.7124
  226MOL0     C29765   2.219   0.831   6.129 -0.6780 -0.2068  0.0093
  226MOL0     C29766   2.086   0.832   6.169  0.2505  0.6133  0.3272
  226MOL0     H29767   1.614   1.088   6.155  2.1730 -2.0382  0.5970
  226MOL0     H29768   1.392   1.087   6.203 -0.8134 -0.5272 -0.4513
  226MOL0     H29769   1.027   0.997   6.189  0.0510 -1.2220 -0.7488
  226MOL0     H29770   1.170   0.993   6.293 -0.9918  0.6250 -0.3295
  226MOL0     H29771   1.025   0.807   6.356  0.5426 -0.5292  0.1369
  226MOL0     H29772   1.179   0.746   6.290 -0.7621 -0.8282 -0.5502
  226MOL0     H29773   1.065   0.689   6.079  0.8038  1.4182 -0.0032
  226MOL0     H29774   0.925   0.782   6.127 -0.7458 -0.8221  0.5019
  226MOL0     H29775   1.002   0.517   6.262 -0.4216 -0.2057  0.7298
  226MOL0     H29776   0.893   0.644   6.330  4.1624  1.6563  1.2345
  226MOL0     H29777   0.891   0.468   6.074  0.9044 -2.2943  2.4952
  226MOL0     H29778   0.784   0.606   6.078 -1.5362 -0.8990 -0.6134
  226MOL0     H29779   0.698   0.493   6.304 -0.7833  1.9955 -0.7114
  226MOL0     H29780   0.796   0.352   6.260 -1.3890 -1.6275 -1.8392
  226MOL0     H29781   0.562   0.489   6.114 -1.8520  0.4963  3.8187
  226MOL0     H29782   0.658   0.358   6.035  1.0567 -0.9333  0.1782
  226MOL0     H29783   0.533   0.285   6.305 -2.9504 -0.3408  1.0352
  226MOL0     H29784   0.551   0.191   6.156 -0.1042  0.5600  0.4482
  226MOL0     H29785   0.363   0.501   6.307  0.0873  1.7584 -0.3786
  226MOL0     H29786   0.075   0.535   6.276  3.6018 -0.9323  0.8972
  226MOL0     H29787   0.002   0.512   6.120 -0.7801  1.8103 -1.0209
  226MOL0     H29788   0.128   0.705   6.026 -1.8462 -1.8587 -0.5640
  226MOL0     H29789   0.219   0.716   6.174  0.0458  0.3182 -0.3530
  226MOL0     H29790   0.034   0.883   6.147 -0.6627  0.1159 -0.2542
  226MOL0     H29791  -0.090   0.761   6.168 -0.8347  2.6256  2.3290
  226MOL0     H29792   0.122   0.814   6.379  0.6213 -4.6518  1.0224
  226MOL0     H29793  -0.033   0.732   6.403 -2.0451  0.3355 -1.2554
  226MOL0     H29794  -0.169   1.148   6.434 -1.3357  1.2436  1.3382
  226MOL0     H29795  -0.402   1.182   6.430  1.9845  0.2452  1.7210
  226MOL0     H29796  -0.861   0.996   6.309  1.3172  0.2157 -1.8955
  226MOL0     H29797  -1.096   1.073   6.292 -1.3425 -0.2429  2.8259
  226MOL0     H29798  -1.299   1.193   6.315 -0.4309  1.0698  1.5495
  226MOL0     H29799  -1.242   1.277   6.174 -1.6095  2.3022 -0.1370
  226MOL0     H29800  -1.349   1.489   6.260 -0.7309  0.1143 -0.3714
  226MOL0     H29801  -1.434   1.392   6.372 -0.4942  0.3210 -1.5005
  226MOL0     H29802  -1.507   1.234   6.162  0.5709 -0.1638 -0.0762
  226MOL0     H29803  -1.475   1.372   6.075  3.3550 -2.5091  0.0623
  226MOL0     H29804  -1.651   1.347   6.333  0.7388 -0.1822  1.0004
  226MOL0     H29805  -1.636   1.500   6.243 -0.5164  0.1238  0.3366
  226MOL0     H29806  -1.728   1.398   6.036  1.3981 -4.4931 -1.9190
  226MOL0     H29807  -1.841   1.406   6.181 -0.7204  1.2629 -2.2660
  226MOL0     H29808  -1.784   1.160   6.222  0.3251  0.5134  0.4150
  226MOL0     H29809  -1.703   1.161   6.063 -2.0742 -0.5929 -1.8512
  226MOL0     H29810  -1.936   1.079   6.069 -0.6431  0.4568  4.3366
  226MOL0     H29811  -1.992   1.234   6.105  1.2659  0.1181  1.5359
  226MOL0     H29812  -1.820   1.124   5.864  2.5746  2.7888  0.0150
  226MOL0     H29813  -1.881   1.295   5.863 -1.8189  0.4412 -1.2702
  226MOL0     H29814  -0.959   1.458   6.450 -2.4135 -0.7034  0.2265
  226MOL0     H29815  -0.733   1.366   6.466 -0.7192 -0.1995 -1.2313
  226MOL0     H29816  -0.470   0.751   6.412 -0.4967  0.8429  0.7569
  226MOL0     H29817  -0.230   0.723   6.394  2.1448  1.0639 -1.1865
  226MOL0     H29818   1.353   0.725   5.970  1.3727 -0.5665  0.0312
  226MOL0     H29819   1.588   0.722   5.935 -1.0898 -0.1594 -1.5546
  226MOL0     H29820   1.947   0.848   5.862  0.4300  3.8903 -0.3038
  226MOL0     H29821   2.178   0.820   5.806 -1.0887 -0.2787  0.4446
  226MOL0     H29822   2.473   0.783   6.124  0.7985  2.6776  1.5942
  226MOL0     H29823   2.486   0.932   6.037  0.0462 -0.5873 -1.4309
  226MOL0     H29824   2.607   0.666   5.962  0.1604 -0.8884  2.9561
  226MOL0     H29825   2.635   0.807   5.857  1.2804 -0.9750  0.1414
  226MOL0     H29826   2.723   0.799   6.141 -0.8487  0.6776  0.6236
  226MOL0     H29827   2.755   0.926   6.016 -1.2038  0.8485 -0.3935
  226MOL0     H29828   2.827   0.616   6.022  3.5121 -1.1656 -0.9680
  226MOL0     H29829   2.880   0.718   5.888  2.0491  0.1237  0.6423
  226MOL0     H29830   3.162   0.805   6.180 -0.7549 -1.2186  1.3232
  226MOL0     H29831   2.296   0.810   6.202 -0.0033 -0.8081 -0.8485
  226MOL0     H29832   2.049   0.825   6.270 -0.7133  2.4292  0.1435
  227MOL0     O29833   5.171   2.741   5.863  0.6808 -1.4597 -0.1150
  227MOL0     C29834   5.135   2.787   5.752 -0.5560 -0.0258 -0.5325
  227MOL0     O29835   5.225   2.821   5.649 -0.1449  0.7846 -0.1835
  227MOL0     C29836   5.359   2.794   5.660  1.2628 -0.4755 -0.5013
  227MOL0     C29837   5.400   2.665   5.658  1.0326 -0.7411 -0.2548
  227MOL0     C29838   5.530   2.622   5.663 -0.4951 -0.4196 -0.9264
  227MOL0     C29839   5.631   2.714   5.675 -1.2434 -0.3108 -0.3765
  227MOL0     O29840   5.770   2.687   5.691 -0.1010 -0.4821 -0.0805
  227MOL0     C29841   5.812   2.549   5.694 -0.0325 -0.0141 -0.0138
  227MOL0     C29842   5.963   2.549   5.661  0.4128  0.1948 -0.0843
  227MOL0     C29843   6.050   2.626   5.762 -0.2044 -0.7417  0.1441
  227MOL0     C29844   6.197   2.580   5.755  0.1239 -0.8730  0.7875
  227MOL0     C29845   6.278   2.672   5.851 -0.2210 -0.1714 -0.3032
  227MOL0     C29846   6.286   2.827   5.821  0.4797  0.5810  0.6675
  227MOL0     C29847   6.346   2.860   5.681  0.3121 -0.2995  0.2057
  227MOL0     C29848   6.396   3.008   5.685  0.1643 -0.4096  0.0742
  227MOL0     N29849   6.280   3.095   5.697  0.7218  0.5966  1.3604
  227MOL0     C29850   6.202   3.122   5.807 -0.7952 -0.4221  0.4659
  227MOL0     C29851   6.093   3.192   5.754  0.3047 -0.0499  0.4797
  227MOL0     C29852   5.973   3.239   5.834  0.1796  0.0138 -0.0419
  227MOL0     C29853   5.871   3.134   5.805 -0.0241 -0.6569  0.3013
  227MOL0     C29854   5.745   3.156   5.899 -0.4888  0.1829 -0.2307
  227MOL0     C29855   5.678   3.296   5.889  0.7331 -0.2289 -0.1325
  227MOL0     O29856   5.643   3.314   5.756  0.2118  0.1654  0.3924
  227MOL0     C29857   5.521   3.277   5.704  0.0887 -0.3971 -0.8517
  227MOL0     C29858   5.505   3.290   5.566 -0.0182 -0.2293 -0.7002
  227MOL0     C29859   5.394   3.271   5.498 -0.3986 -0.1401 -0.4519
  227MOL0     C29860   5.278   3.218   5.569  1.3023  0.0524 -0.0413
  227MOL0     C29861   5.145   3.197   5.507 -1.2625 -0.5120  1.0159
  227MOL0     O29862   5.156   3.176   5.372 -0.5314 -0.4663 -0.2732
  227MOL0     C29863   5.052   3.193   5.289  0.4373  0.4936  0.0116
  227MOL0     C29864   5.066   3.268   5.170 -0.7206 -0.0207  0.4261
  227MOL0     C29865   4.961   3.278   5.080  0.2093  0.1512  0.5444
  227MOL0     C29866   4.840   3.217   5.107  0.6329  0.2339  0.6455
  227MOL0     O29867   4.733   3.196   5.022 -0.4979 -0.2691  0.3196
  227MOL0     C29868   4.739   3.264   4.898 -0.2090  0.1895  0.3415
  227MOL0     C29869   4.645   3.196   4.797  0.4057 -0.1309 -0.0355
  227MOL0     C29870   4.497   3.235   4.835  0.7916  0.2117  0.1923
  227MOL0     C29871   4.401   3.196   4.723 -0.1158  1.1079  0.0425
  227MOL0     C29872   4.355   3.055   4.736  0.0551  0.4243  0.2812
  227MOL0     C29873   4.361   2.964   4.617  0.0457 -0.3389 -0.4496
  227MOL0     C29874   4.253   2.990   4.517 -0.6300 -1.1637  0.2318
  227MOL0     C29875   4.245   2.906   4.395  0.1332 -0.9096  0.3501
  227MOL0    Cl29876   4.111   2.957   4.287  0.0734 -0.3366  0.0607
  227MOL0     C29877   4.829   3.151   5.230 -0.9778 -0.6667 -0.7347
  227MOL0     C29878   4.931   3.130   5.320 -0.0356  0.1355 -0.4761
  227MOL0     O29879   5.043   3.221   5.569 -0.7651  0.3657  0.3350
  227MOL0     C29880   5.288   3.214   5.708  0.0319 -0.0396 -0.5465
  227MOL0     C29881   5.414   3.245   5.773 -0.0741  0.0883  0.4830
  227MOL0     N29882   6.102   3.197   5.614  0.6877  0.1277 -0.2388
  227MOL0     N29883   6.211   3.133   5.586  0.2279 -0.5003  0.1964
  227MOL0     C29884   5.593   2.853   5.667 -0.1718  0.5880 -0.0610
  227MOL0     C29885   5.459   2.894   5.665 -0.2641  1.6598  0.1832
  227MOL0     C29886   4.989   2.802   5.727 -0.0068 -0.0978  0.6235
  227MOL0     C29887   4.896   2.736   5.805  0.7179  0.8827  0.0692
  227MOL0     C29888   4.766   2.740   5.773 -0.0207 -0.2715 -0.3956
  227MOL0     C29889   4.722   2.823   5.675  0.4147 -0.0759  0.3434
  227MOL0     O29890   4.590   2.825   5.653 -0.2772 -0.8538 -0.5384
  227MOL0     C29891   4.527   2.953   5.643  0.1371  0.0720  0.0415
  227MOL0     C29892   4.398   2.969   5.724 -0.0375 -0.2407 -0.1730
  227MOL0     C29893   4.274   2.911   5.646 -0.5061 -1.1308 -0.6368
  227MOL0     C29894   4.145   2.926   5.705  0.2094 -0.0095 -0.6404
  227MOL0     C29895   4.139   2.865   5.839 -0.4242 -0.8663 -0.5343
  227MOL0     C29896   4.145   2.804   5.945 -0.2218 -0.8224 -0.5533
  227MOL0     C29897   4.809   2.908   5.601  0.4231 -0.3236  0.2011
  227MOL0     C29898   4.947   2.891   5.630 -0.0226 -0.6113 -0.3293
  227MOL0     H29899   5.321   2.590   5.661 -2.6201  2.7845  1.5383
  227MOL0     H29900   5.567   2.520   5.670  1.0234  0.2086  3.8922
  227MOL0     H29901   5.754   2.495   5.619  0.6509  1.9348 -2.0404
  227MOL0     H29902   5.789   2.505   5.792 -0.4244  1.0168  0.3751
  227MOL0     H29903   5.984   2.581   5.558  0.3826 -1.8258 -0.7806
  227MOL0     H29904   5.994   2.444   5.665  3.9737  0.9432 -2.7512
  227MOL0     H29905   6.027   2.588   5.862  0.5969 -2.6887 -0.3653
  227MOL0     H29906   6.034   2.734   5.761 -0.3336 -0.7459 -1.9703
  227MOL0     H29907   6.216   2.475   5.780  2.5520 -1.3118 -2.3479
  227MOL0     H29908   6.231   2.599   5.653 -2.1242 -2.6859 -0.3882
  227MOL0     H29909   6.376   2.630   5.872 -0.1076  0.3478  0.2297
  227MOL0     H29910   6.234   2.673   5.951 -1.0516  1.3637 -0.6458
  227MOL0     H29911   6.348   2.878   5.896  2.3042 -0.5460 -0.0174
  227MOL0     H29912   6.185   2.866   5.834  0.7756  1.5942  0.0310
  227MOL0     H29913   6.428   2.788   5.672 -0.8314 -1.4122 -2.1449
  227MOL0     H29914   6.284   2.862   5.592  2.4542  5.6129 -1.6161
  227MOL0     H29915   6.451   3.023   5.591  2.8458  0.0038  1.6278
  227MOL0     H29916   6.466   3.028   5.766  1.3347  4.1848 -1.7099
  227MOL0     H29917   6.219   3.094   5.910 -1.2655 -1.4843  0.2703
  227MOL0     H29918   5.951   3.340   5.797 -0.8202 -0.4561 -0.7547
  227MOL0     H29919   6.002   3.245   5.940  1.1475  3.0657 -0.3728
  227MOL0     H29920   5.915   3.040   5.841  2.4940  0.8604  1.4800
  227MOL0     H29921   5.845   3.128   5.699  1.8221 -0.0880 -0.2177
  227MOL0     H29922   5.665   3.086   5.874 -2.4814  2.3527 -0.2939
  227MOL0     H29923   5.762   3.142   6.006  0.7912  1.9702 -0.1544
  227MOL0     H29924   5.736   3.386   5.912 -0.0511  0.0775  0.6865
  227MOL0     H29925   5.602   3.308   5.966  1.5168 -0.5570  0.7133
  227MOL0     H29926   5.598   3.317   5.516 -0.6964  1.1582 -1.2758
  227MOL0     H29927   5.389   3.303   5.395 -1.0433  0.7934 -0.1496
  227MOL0     H29928   5.148   3.333   5.140 -1.7774 -0.2601 -3.5249
  227MOL0     H29929   4.978   3.332   4.987  0.5146  2.2846  1.7855
  227MOL0     H29930   4.834   3.274   4.845 -1.1630  0.9868 -1.3017
  227MOL0     H29931   4.710   3.369   4.905 -0.3309  0.3470 -1.7526
  227MOL0     H29932   4.649   3.087   4.798 -2.0559 -0.3390 -2.0741
  227MOL0     H29933   4.677   3.221   4.696 -0.1315 -0.3708 -0.2678
  227MOL0     H29934   4.502   3.345   4.834  3.6537  0.1582  0.3590
  227MOL0     H29935   4.472   3.201   4.935  1.9455 -0.0740  0.3963
  227MOL0     H29936   4.317   3.266   4.721  2.1792  4.2157  2.4325
  227MOL0     H29937   4.456   3.208   4.629  1.1973 -1.3828  0.4126
  227MOL0     H29938   4.248   3.067   4.758 -0.4760  0.5608 -2.0916
  227MOL0     H29939   4.408   3.010   4.821  0.7436  0.0868 -0.3173
  227MOL0     H29940   4.343   2.861   4.648  2.9115 -0.8564 -0.2781
  227MOL0     H29941   4.462   2.974   4.577  0.6170  2.1049  1.3499
  227MOL0     H29942   4.149   2.996   4.552  0.0987  2.4446  2.3257
  227MOL0     H29943   4.265   3.095   4.489 -1.5462 -1.1985 -0.3349
  227MOL0     H29944   4.226   2.803   4.426 -0.5385 -0.3570  1.8748
  227MOL0     H29945   4.345   2.919   4.352  0.0169  1.1053  0.5913
  227MOL0     H29946   4.735   3.102   5.255 -1.0804  0.9144  2.4845
  227MOL0     H29947   4.911   3.067   5.405 -1.3978  1.4984  0.2675
  227MOL0     H29948   5.207   3.187   5.775 -0.6454  0.2767 -1.2256
  227MOL0     H29949   5.421   3.241   5.882  0.0659 -0.1576  0.4672
  227MOL0     H29950   5.676   2.923   5.673  0.0971  0.7009 -3.2990
  227MOL0     H29951   5.438   3.000   5.659  2.8730  2.2952 -3.3996
  227MOL0     H29952   4.933   2.676   5.888 -1.2186  0.9527  1.0361
  227MOL0     H29953   4.695   2.684   5.834 -1.2586  0.8856 -0.7155
  227MOL0     H29954   4.503   2.991   5.543 -4.1836 -0.7753  0.5570
  227MOL0     H29955   4.589   3.029   5.691  1.4262 -0.7484 -0.2787
  227MOL0     H29956   4.402   2.912   5.817 -2.3961  1.3008  0.9697
  227MOL0     H29957   4.384   3.069   5.768  2.3015 -0.3545  0.9856
  227MOL0     H29958   4.293   2.807   5.621  0.9091 -0.3613 -3.1228
  227MOL0     H29959   4.263   2.972   5.555 -0.7590  2.0689  1.3792
  227MOL0     H29960   4.118   3.031   5.717 -0.0218 -0.1698  0.3531
  227MOL0     H29961   4.068   2.889   5.637 -1.6891 -0.0791  1.4119
  227MOL0     H29962   4.148   2.754   6.040  0.9634 -0.7607 -0.5494
  227MOL0     H29963   4.772   2.998   5.554  1.7625 -0.7719 -1.8559
  227MOL0     H29964   5.021   2.959   5.588  0.8961 -1.2802  0.1838
  228MOL0     O29965   0.460   9.671   7.278  0.2103  1.2479  0.0720
  228MOL0     C29966   0.493   9.748   7.189  0.4987 -0.2832 -0.5295
  228MOL0     O29967   0.432   9.759   7.070  0.1719  0.4827  0.0461
  228MOL0     C29968   0.342   9.667   7.035 -0.3788  0.4949  0.7400
  228MOL0     C29969   0.202   9.685   7.064 -0.0550 -0.2652 -0.0071
  228MOL0     C29970   0.097   9.596   7.017 -0.4153  0.4493 -0.1854
  228MOL0     C29971   0.149   9.482   6.948  0.2146  0.1699 -0.3316
  228MOL0     O29972   0.064   9.394   6.886  0.1319  0.2348  0.6670
  228MOL0     C29973   0.076   9.252   6.906  0.5546  0.4490 -0.6113
  228MOL0     C29974  -0.022   9.163   6.820 -0.7613  0.1410 -0.1748
  228MOL0     C29975  -0.172   9.176   6.864 -0.0606  0.5685 -0.3247
  228MOL0     C29976  -0.254   9.060   6.793 -0.4440  0.6132 -0.2248
  228MOL0     C29977  -0.407   9.082   6.800  0.4238 -0.2590  0.6684
  228MOL0     C29978  -0.501   8.966   6.739 -0.1989 -0.1861 -0.0171
  228MOL0     C29979  -0.643   8.964   6.817  0.4174  0.8801  0.5178
  228MOL0     C29980  -0.749   8.883   6.742  0.5401  0.4229  0.5756
  228MOL0     N29981  -0.878   8.874   6.823 -0.9371  0.1953 -0.3462
  228MOL0     C29982  -0.956   8.979   6.862 -0.5123  0.1102  1.0352
  228MOL0     C29983  -1.036   8.933   6.956  0.7528 -0.8520  0.4616
  228MOL0     C29984  -1.139   9.019   7.021  0.1776  0.1269  0.0032
  228MOL0     C29985  -1.258   9.048   6.929 -0.3456  0.2825  0.8993
  228MOL0     C29986  -1.379   9.107   6.996 -0.0045 -0.0572  0.1162
  228MOL0     C29987  -1.511   9.105   6.909 -0.5954  0.8700  0.0053
  228MOL0     O29988  -1.502   9.176   6.787  0.2548 -0.1071 -0.3751
  228MOL0     C29989  -1.610   9.239   6.732  0.6360 -0.9975 -0.0000
  228MOL0     C29990  -1.577   9.304   6.612 -0.4904  0.1465 -0.0555
  228MOL0     C29991  -1.680   9.364   6.535  0.3618  0.1241 -0.7570
  228MOL0     C29992  -1.818   9.344   6.574  0.1872 -0.0077  0.6508
  228MOL0     C29993  -1.924   9.400   6.493 -0.2912  0.3175 -0.4299
  228MOL0     O29994  -2.025   9.323   6.476  0.1938 -0.2840  0.0590
  228MOL0     C29995  -2.128   9.357   6.397 -0.6410  0.6718 -0.2073
  228MOL0     C29996  -2.244   9.290   6.429 -0.0327 -0.2961  1.0485
  228MOL0     C29997  -2.359   9.300   6.346 -0.0909  0.4699  0.3144
  228MOL0     C29998  -2.358   9.386   6.232  0.2709 -0.2129  0.6607
  228MOL0     O29999  -2.471   9.386   6.160  0.5254  0.0239 -0.7586
  228MOL0     C30000  -2.522   9.518   6.141 -0.2133  0.5212  1.1684
  228MOL0     C30001  -2.639   9.493   6.042 -0.7140 -1.0493 -0.0962
  228MOL0     C30002  -2.672   9.621   5.968  0.4117  0.7893 -0.4157
  228MOL0     C30003  -2.777   9.627   5.858  0.8484  0.3350  1.0471
  228MOL0     C30004  -2.877   9.737   5.878 -0.5449  0.8138  0.1312
  228MOL0     C30005  -2.981   9.737   5.769  0.2877 -0.6152  0.0034
  228MOL0     C30006  -3.080   9.612   5.770  0.1505  0.3588 -0.5205
  228MOL0     C30007  -3.226   9.654   5.754  0.5984  0.0299  0.5579
  228MOL0    Cl30008  -3.310   9.506   5.790  0.2292 -0.2858 -0.1221
  228MOL0     C30009  -2.241   9.454   6.196 -0.1699 -0.0822  0.4061
  228MOL0     C30010  -2.128   9.435   6.277  0.1798  0.1733  0.3024
  228MOL0     O30011  -1.916   9.518   6.462 -0.2293  0.0558 -0.0204
  228MOL0     C30012  -1.851   9.281   6.696  0.0933  0.0971  1.0381
  228MOL0     C30013  -1.746   9.229   6.771  0.3958  0.2947  0.3079
  228MOL0     N30014  -1.026   8.796   6.959  0.2211  0.4837  0.3071
  228MOL0     N30015  -0.929   8.760   6.884  0.4868  0.9582 -0.0300
  228MOL0     C30016   0.285   9.464   6.919  0.6630  1.2622 -0.2283
  228MOL0     C30017   0.382   9.556   6.957  0.3794  0.1789  0.2766
  228MOL0     C30018   0.627   9.819   7.202  0.5624 -0.3425  0.3680
  228MOL0     C30019   0.710   9.803   7.316 -0.3183  0.1898 -0.9735
  228MOL0     C30020   0.826   9.875   7.335  0.5307  0.2199  0.1455
  228MOL0     C30021   0.864   9.956   7.231 -0.1191 -0.5618 -0.7096
  228MOL0     O30022   0.984  10.022   7.245 -0.1656 -0.1264  0.6932
  228MOL0     C30023   0.978  10.119   7.342 -0.6976  0.2866 -0.4262
  228MOL0     C30024   1.098  10.104   7.429 -0.1190 -0.0064  0.3496
  228MOL0     C30025   1.231  10.098   7.345 -1.1342  0.2200  0.1452
  228MOL0     C30026   1.298  10.235   7.320 -0.0530 -1.1856 -0.7114
  228MOL0     C30027   1.424  10.250   7.396  0.0898 -0.0028  0.3451
  228MOL0     C30028   1.522  10.266   7.467  1.5155 -0.2124  0.7806
  228MOL0     C30029   0.795   9.972   7.111  0.7187  0.3403 -0.5943
  228MOL0     C30030   0.669   9.909   7.106  0.2465  0.4980 -0.3784
  228MOL0     H30031   0.167   9.774   7.115 -0.4024  0.3288 -1.2490
  228MOL0     H30032  -0.008   9.607   7.043  0.0557 -0.7885  2.5980
  228MOL0     H30033   0.048   9.227   7.009 -3.0509  0.0944 -1.5395
  228MOL0     H30034   0.169   9.201   6.878 -1.5199 -4.0823 -0.2002
  228MOL0     H30035  -0.002   9.058   6.842 -2.0546 -0.1610 -0.3644
  228MOL0     H30036   0.012   9.180   6.717  0.8625  1.9547  0.5868
  228MOL0     H30037  -0.221   9.270   6.840 -0.5336  1.0536  2.2179
  228MOL0     H30038  -0.172   9.163   6.973  1.7177 -1.6581 -0.5327
  228MOL0     H30039  -0.218   9.060   6.690  1.1188  1.1217  0.2805
  228MOL0     H30040  -0.221   8.968   6.842  0.3359  1.0275  0.0541
  228MOL0     H30041  -0.435   9.159   6.728 -0.8314 -0.1341  1.2504
  228MOL0     H30042  -0.442   9.113   6.899  2.7458 -0.1228  1.5099
  228MOL0     H30043  -0.461   8.865   6.750 -2.0730 -1.0430 -0.6341
  228MOL0     H30044  -0.523   8.989   6.635 -0.4898  0.3113  0.1517
  228MOL0     H30045  -0.642   8.922   6.918  0.8468 -0.0390  0.1394
  228MOL0     H30046  -0.673   9.069   6.824 -1.9365  0.2149  1.1669
  228MOL0     H30047  -0.716   8.780   6.728  0.0920  0.3602 -0.1183
  228MOL0     H30048  -0.762   8.927   6.642  3.4248 -0.6866 -0.3926
  228MOL0     H30049  -0.952   9.079   6.820 -0.2184 -0.6953 -0.9501
  228MOL0     H30050  -1.097   9.111   7.061 -3.0728  0.4246  3.3454
  228MOL0     H30051  -1.194   8.966   7.100 -1.9754 -0.2364 -1.6472
  228MOL0     H30052  -1.277   8.948   6.890 -0.5512  0.1338  1.3826
  228MOL0     H30053  -1.231   9.117   6.848 -2.0343 -1.2302 -1.0360
  228MOL0     H30054  -1.399   9.054   7.090  1.2550 -1.5154 -0.3881
  228MOL0     H30055  -1.354   9.210   7.024 -0.1471 -0.4640  1.8497
  228MOL0     H30056  -1.577   9.147   6.986 -0.0059 -1.8114  2.1621
  228MOL0     H30057  -1.553   9.005   6.889 -1.4613  0.9324  1.3548
  228MOL0     H30058  -1.472   9.317   6.588  0.0909  1.2417  2.6811
  228MOL0     H30059  -1.653   9.432   6.455 -1.3864  0.5467 -1.0282
  228MOL0     H30060  -2.228   9.241   6.524 -0.4972  0.6386  1.6242
  228MOL0     H30061  -2.455   9.250   6.356 -0.5500  0.5413 -2.7745
  228MOL0     H30062  -2.435   9.571   6.100  0.8371 -2.1132 -0.2811
  228MOL0     H30063  -2.552   9.562   6.236 -0.8841  0.1764  1.1150
  228MOL0     H30064  -2.729   9.457   6.093 -0.4688 -0.1222  1.0354
  228MOL0     H30065  -2.610   9.410   5.978 -1.0175 -0.2079 -1.3643
  228MOL0     H30066  -2.573   9.643   5.928  1.3621 -2.0829  0.1596
  228MOL0     H30067  -2.692   9.701   6.041  0.9258  0.5027  0.0454
  228MOL0     H30068  -2.729   9.642   5.761  1.4266 -0.4589  1.2024
  228MOL0     H30069  -2.817   9.526   5.841  0.5196  0.9718 -3.0721
  228MOL0     H30070  -2.838   9.839   5.875  0.5443  0.3918 -0.8551
  228MOL0     H30071  -2.921   9.733   5.978  1.6935  1.6661  1.2128
  228MOL0     H30072  -2.932   9.741   5.671 -0.4164 -0.7463 -0.3631
  228MOL0     H30073  -3.047   9.823   5.779  1.0122 -0.2270  1.7558
  228MOL0     H30074  -3.059   9.544   5.688  0.2951 -1.1372  0.7113
  228MOL0     H30075  -3.073   9.556   5.864  0.3419  2.6241  0.9037
  228MOL0     H30076  -3.254   9.706   5.661  0.5003  0.3758  0.7760
  228MOL0     H30077  -3.251   9.729   5.830  0.0523 -1.2566  1.6846
  228MOL0     H30078  -2.237   9.513   6.105  1.0524  0.5926  0.8746
  228MOL0     H30079  -2.034   9.477   6.243  1.9766 -1.8058  2.4870
  228MOL0     H30080  -1.954   9.286   6.729  0.0684  0.2392  0.9382
  228MOL0     H30081  -1.767   9.178   6.864  1.4411 -0.0567  0.3516
  228MOL0     H30082   0.307   9.377   6.858 -0.5408  1.3743 -0.8428
  228MOL0     H30083   0.487   9.533   6.944  0.0290 -3.0070  2.0347
  228MOL0     H30084   0.670   9.752   7.403 -0.3137 -0.1215 -1.1513
  228MOL0     H30085   0.887   9.866   7.424  0.2228 -2.1685  0.1681
  228MOL0     H30086   0.899  10.115   7.418  1.6399  0.3106  2.1462
  228MOL0     H30087   0.968  10.214   7.288 -2.0140  0.5320  0.1900
  228MOL0     H30088   1.105  10.178   7.510 -2.7780 -1.4879  2.0881
  228MOL0     H30089   1.091  10.010   7.484 -0.9157  0.2236  0.6646
  228MOL0     H30090   1.211  10.057   7.246  1.2948 -1.0032  0.0823
  228MOL0     H30091   1.296  10.024   7.393  0.1957  0.2554 -1.5160
  228MOL0     H30092   1.327  10.244   7.214 -0.8369  0.4188 -0.8299
  228MOL0     H30093   1.230  10.321   7.323  1.1324 -0.2489  0.2226
  228MOL0     H30094   1.618  10.262   7.515  0.3414 -1.2611  3.2093
  228MOL0     H30095   0.827  10.037   7.030  1.8103  3.5084  2.1341
  228MOL0     H30096   0.621   9.924   7.010  0.9094  1.4224 -0.5753
  229MOL0     O30097  10.698   6.046   9.590 -0.5221 -0.5492 -0.3194
  229MOL0     C30098  10.734   5.983   9.693 -0.0173  0.3736 -1.2763
  229MOL0     O30099  10.666   5.960   9.806  0.1756 -0.1250 -0.1512
  229MOL0     C30100  10.533   5.995   9.824 -0.2603 -0.4923 -0.8462
  229MOL0     C30101  10.446   6.079   9.751 -0.7142 -0.0100  0.4960
  229MOL0     C30102  10.325   6.118   9.797 -0.0037  0.1438  0.3698
  229MOL0     C30103  10.270   6.052   9.905  0.0855 -0.2326  0.5773
  229MOL0     O30104  10.149   6.093   9.942 -1.0894 -0.3341  0.1067
  229MOL0     C30105  10.047   6.005   9.958  0.5273 -0.2531  0.2366
  229MOL0     C30106   9.915   6.074   9.928  0.1510  0.1934 -0.0736
  229MOL0     C30107   9.801   6.025  10.022 -0.7840 -0.7037 -0.0358
  229MOL0     C30108   9.666   6.044   9.959  0.5916 -0.0881 -0.4509
  229MOL0     C30109   9.566   6.003  10.062  0.2498  0.4527  0.9031
  229MOL0     C30110   9.430   6.041  10.015 -0.5691  0.1224 -0.3293
  229MOL0     C30111   9.318   6.032  10.120  0.2952 -0.1919  0.6177
  229MOL0     C30112   9.178   6.045  10.060  0.3162 -0.0519  0.4718
  229MOL0     N30113   9.080   5.996  10.167 -0.0597  0.3655  0.1590
  229MOL0     C30114   9.018   6.075  10.263  0.2400 -0.2114  0.3198
  229MOL0     C30115   8.950   5.991  10.340 -0.4800  0.0349  0.2127
  229MOL0     C30116   8.874   6.026  10.464  0.5444  0.3277  0.9423
  229MOL0     C30117   8.727   6.038  10.426 -0.4973 -0.3386 -0.1569
  229MOL0     C30118   8.697   6.187  10.397 -0.3088 -1.1454  0.6979
  229MOL0     C30119   8.557   6.207  10.347 -0.0027 -0.0149 -0.0838
  229MOL0     O30120   8.470   6.184  10.449  0.3380  0.6145  0.9561
  229MOL0     C30121   8.338   6.194  10.412  0.5632  0.4174 -0.5423
  229MOL0     C30122   8.243   6.173  10.508 -0.9636 -0.1995 -0.7378
  229MOL0     C30123   8.106   6.189  10.495  0.1601 -0.0671  0.2729
  229MOL0     C30124   8.063   6.236  10.373  0.9291  1.3763 -0.2013
  229MOL0     C30125   7.928   6.286  10.359  0.2420 -0.0881  0.2878
  229MOL0     O30126   7.855   6.311  10.483 -0.1621 -0.0138  0.5501
  229MOL0     C30127   7.717   6.346  10.490 -0.1109 -0.9750 -0.2839
  229MOL0     C30128   7.653   6.297  10.602  0.1455 -0.3304  0.5997
  229MOL0     C30129   7.522   6.327  10.633 -0.4062  0.6894  0.3459
  229MOL0     C30130   7.447   6.402  10.545  0.2411 -0.4449 -0.8956
  229MOL0     O30131   7.314   6.431  10.558 -1.0580  0.3623  1.3626
  229MOL0     C30132   7.242   6.335  10.624  0.8621 -0.1331 -0.9608
  229MOL0     C30133   7.094   6.384  10.626 -0.3918  0.0858  0.5931
  229MOL0     C30134   7.040   6.405  10.486  0.2174  0.7834 -0.6286
  229MOL0     C30135   6.884   6.422  10.489 -0.7149  0.5171 -0.7238
  229MOL0     C30136   6.831   6.563  10.548  0.2319 -0.7572  1.0182
  229MOL0     C30137   6.673   6.572  10.535  0.1297 -0.4965  0.0288
  229MOL0     C30138   6.616   6.696  10.610 -0.2447  0.1581  0.4919
  229MOL0     C30139   6.618   6.676  10.763 -0.6030 -0.2178 -0.6081
  229MOL0    Cl30140   6.494   6.555  10.799 -0.2722  0.3736  0.4692
  229MOL0     C30141   7.505   6.451  10.426 -0.2290 -0.1570 -0.6969
  229MOL0     C30142   7.642   6.422  10.402 -1.1212  0.0625  0.1165
  229MOL0     O30143   7.881   6.310  10.248 -0.2245  0.1793  0.6599
  229MOL0     C30144   8.152   6.240  10.270 -0.4766 -0.2289 -1.2990
  229MOL0     C30145   8.290   6.214  10.288 -0.2381  0.0606  0.1352
  229MOL0     N30146   8.971   5.859  10.302  0.2744  0.2592 -0.3716
  229MOL0     N30147   9.042   5.873  10.193  0.1228  0.1324  0.0749
  229MOL0     C30148  10.343   5.958   9.974 -0.2530 -0.6231  0.7507
  229MOL0     C30149  10.477   5.933   9.940 -0.2213 -0.1479  0.1756
  229MOL0     C30150  10.871   5.931   9.691  0.1951 -0.9664  0.3820
  229MOL0     C30151  10.932   5.870   9.804 -0.0349  0.5104  0.6574
  229MOL0     C30152  11.061   5.824   9.795 -0.5456 -0.2215 -0.5606
  229MOL0     C30153  11.134   5.830   9.680  0.4719  0.1797  0.0595
  229MOL0     O30154  11.251   5.757   9.681 -0.1549 -0.2031  0.7064
  229MOL0     C30155  11.351   5.777   9.583  0.6609  0.1985 -0.2279
  229MOL0     C30156  11.491   5.771   9.655  0.5065 -0.2341  0.8644
  229MOL0     C30157  11.599   5.809   9.555 -0.0595  0.5049  0.2671
  229MOL0     C30158  11.738   5.767   9.612  0.2357  0.6859  0.5802
  229MOL0     C30159  11.774   5.837   9.736  0.9119  0.4116  0.5478
  229MOL0     C30160  11.792   5.918   9.822 -0.2561 -0.3341 -0.0248
  229MOL0     C30161  11.077   5.895   9.567 -0.7255  0.2690 -0.2599
  229MOL0     C30162  10.946   5.944   9.571  1.0546  0.6583 -0.6184
  229MOL0     H30163  10.479   6.122   9.657 -1.9916 -1.0365 -0.4525
  229MOL0     H30164  10.266   6.201   9.763 -1.5069 -1.2731 -0.6255
  229MOL0     H30165  10.043   5.966  10.061  0.0858  0.5222  0.5209
  229MOL0     H30166  10.070   5.915   9.900  2.1287 -0.0532  0.5313
  229MOL0     H30167   9.899   6.072   9.820  0.1176  2.7762 -0.1901
  229MOL0     H30168   9.934   6.181   9.945 -1.3149  0.2271  1.7110
  229MOL0     H30169   9.810   6.092  10.108 -1.0841  2.3738 -2.2601
  229MOL0     H30170   9.815   5.920  10.049  2.0871 -0.6803 -1.1213
  229MOL0     H30171   9.650   6.144   9.919  2.8049  0.9574  1.0975
  229MOL0     H30172   9.654   5.968   9.881  0.6329 -1.4941  0.8549
  229MOL0     H30173   9.600   6.050  10.155  1.6695  1.8055 -0.2328
  229MOL0     H30174   9.566   5.894  10.073 -0.2774  0.4066  0.4506
  229MOL0     H30175   9.405   5.986   9.924  2.0674  0.9837 -1.6656
  229MOL0     H30176   9.430   6.147   9.989 -1.0914  0.1112 -0.3934
  229MOL0     H30177   9.326   5.937  10.173 -1.3867  0.6361  2.5069
  229MOL0     H30178   9.330   6.114  10.191  0.0727 -0.3210  0.8064
  229MOL0     H30179   9.168   5.970   9.980 -1.6518 -0.9564  1.4964
  229MOL0     H30180   9.150   6.144  10.024 -1.5387 -0.3324  1.0356
  229MOL0     H30181   9.018   6.183  10.261  2.4783 -0.1624 -0.4317
  229MOL0     H30182   8.918   6.116  10.507 -1.4272  0.0883  3.7555
  229MOL0     H30183   8.874   5.950  10.543 -0.0813  0.5464  1.1627
  229MOL0     H30184   8.665   6.023  10.515 -3.2072 -0.3428 -1.9467
  229MOL0     H30185   8.698   5.962  10.354 -0.4679 -1.2677  0.7947
  229MOL0     H30186   8.717   6.249  10.485 -0.3630  1.3399 -0.9616
  229MOL0     H30187   8.754   6.228  10.313 -1.9108 -0.5200 -0.1186
  229MOL0     H30188   8.535   6.138  10.265  0.2593  0.2973 -0.4160
  229MOL0     H30189   8.546   6.311  10.315 -0.8016  1.0625  3.2625
  229MOL0     H30190   8.273   6.170  10.613  3.5012 -1.9443 -1.8029
  229MOL0     H30191   8.042   6.175  10.581 -0.3891  0.6278 -0.0175
  229MOL0     H30192   7.719   6.239  10.665  2.3842  3.2332  1.8192
  229MOL0     H30193   7.483   6.283  10.724 -2.9768 -1.1178 -1.4786
  229MOL0     H30194   7.263   6.309  10.729 -0.3100  2.0703 -0.1128
  229MOL0     H30195   7.244   6.246  10.560 -1.8814  0.6206 -2.2564
  229MOL0     H30196   7.082   6.483  10.672  0.0744 -0.0910  1.1058
  229MOL0     H30197   7.033   6.323  10.693 -1.3045 -0.1127 -0.3848
  229MOL0     H30198   7.063   6.315  10.428 -0.6518 -0.2935  0.6105
  229MOL0     H30199   7.084   6.492  10.437  0.2699  1.1494  0.0528
  229MOL0     H30200   6.854   6.408  10.385  0.0094  1.7237 -1.1071
  229MOL0     H30201   6.845   6.335  10.543 -1.0599  2.1830  1.8946
  229MOL0     H30202   6.874   6.641  10.486 -0.2286 -1.1754  0.1378
  229MOL0     H30203   6.868   6.579  10.649  4.5188  1.9081 -0.6998
  229MOL0     H30204   6.623   6.485  10.579 -0.9650 -0.6079 -1.3689
  229MOL0     H30205   6.642   6.577  10.430  0.3254 -0.9489 -0.0535
  229MOL0     H30206   6.681   6.782  10.590 -1.0712  0.2183 -2.2968
  229MOL0     H30207   6.520   6.726  10.568  1.4658  1.5871 -2.7837
  229MOL0     H30208   6.607   6.773  10.812  1.1991  0.1754 -0.8819
  229MOL0     H30209   6.713   6.637  10.801 -0.2765 -1.0499 -2.1747
  229MOL0     H30210   7.453   6.512  10.353 -2.5057 -0.9762  0.1446
  229MOL0     H30211   7.691   6.461  10.313  1.7622 -0.8427  1.1889
  229MOL0     H30212   8.132   6.278  10.170  2.0754  0.9062 -1.4675
  229MOL0     H30213   8.343   6.238  10.196 -1.3982  1.2644 -0.2455
  229MOL0     H30214  10.289   5.923  10.062  3.4069 -1.1799  3.0052
  229MOL0     H30215  10.532   5.869  10.009 -1.0951 -0.1247  0.9172
  229MOL0     H30216  10.877   5.866   9.898  0.3423  0.5978  0.8822
  229MOL0     H30217  11.108   5.781   9.883  2.3021  0.9975 -1.3558
  229MOL0     H30218  11.340   5.878   9.542  0.2829  0.8484  1.3939
  229MOL0     H30219  11.342   5.703   9.503 -2.9567  0.0850  0.1531
  229MOL0     H30220  11.498   5.843   9.737  0.7518  0.1510  0.5081
  229MOL0     H30221  11.523   5.681   9.708  1.0141  0.9999  2.7585
  229MOL0     H30222  11.594   5.918   9.545  2.0924  0.6405  0.3807
  229MOL0     H30223  11.586   5.768   9.455  0.7284  0.4386  0.1864
  229MOL0     H30224  11.743   5.658   9.625 -0.8203  0.6832  1.0649
  229MOL0     H30225  11.822   5.799   9.549 -0.7768 -1.7809 -2.2607
  229MOL0     H30226  11.804   5.999   9.892 -0.8070 -0.2616 -0.0172
  229MOL0     H30227  11.125   5.897   9.470 -0.2040 -2.4529 -0.1480
  229MOL0     H30228  10.903   5.990   9.483 -0.9643  1.0529  0.4955
  230MOL0     O30229   0.526   7.573   7.548 -0.4057 -0.0249  0.5392
  230MOL0     C30230   0.605   7.526   7.467 -0.8008 -0.4140  0.3260
  230MOL0     O30231   0.576   7.452   7.351  0.2146  0.0263 -0.0894
  230MOL0     C30232   0.453   7.436   7.299  0.8289 -0.2184 -0.3116
  230MOL0     C30233   0.443   7.436   7.158  0.4126  0.6328  0.0144
  230MOL0     C30234   0.323   7.394   7.100 -0.6540 -0.1930  0.3598
  230MOL0     C30235   0.205   7.387   7.167  1.3307 -0.2794 -0.3665
  230MOL0     O30236   0.094   7.354   7.097  0.2603 -0.2761  0.3777
  230MOL0     C30237  -0.026   7.421   7.132  0.4211  0.5501 -0.1713
  230MOL0     C30238  -0.125   7.364   7.038  0.3971 -0.9208  0.4160
  230MOL0     C30239  -0.261   7.433   7.068  0.0502  0.1436 -0.1162
  230MOL0     C30240  -0.341   7.378   6.952  0.0828  0.2998  0.1914
  230MOL0     C30241  -0.498   7.408   6.969 -0.1797  0.5224  0.5451
  230MOL0     C30242  -0.569   7.408   6.834  0.1951 -0.1728 -1.3506
  230MOL0     C30243  -0.717   7.434   6.842  0.1386  0.5123 -0.5948
  230MOL0     C30244  -0.784   7.441   6.703  0.2529  1.4604  0.7097
  230MOL0     N30245  -0.927   7.411   6.698 -0.3305  0.1803  0.8432
  230MOL0     C30246  -1.026   7.483   6.757 -0.8781 -0.4153 -0.4600
  230MOL0     C30247  -1.138   7.406   6.759  0.9568 -0.5923  0.3721
  230MOL0     C30248  -1.285   7.452   6.795 -0.1045  0.2613  0.7639
  230MOL0     C30249  -1.387   7.410   6.684  0.3184  0.0393  0.1908
  230MOL0     C30250  -1.521   7.490   6.694  0.5395  0.1649  0.6540
  230MOL0     C30251  -1.641   7.428   6.621  0.2154 -0.1480  0.2350
  230MOL0     O30252  -1.747   7.520   6.645 -0.5242 -0.3550 -0.7533
  230MOL0     C30253  -1.875   7.462   6.635  0.0795 -0.6746 -0.6659
  230MOL0     C30254  -1.913   7.328   6.626 -0.1726  0.1797  0.4145
  230MOL0     C30255  -2.045   7.291   6.614 -0.1725  0.4125  0.6929
  230MOL0     C30256  -2.151   7.384   6.611  0.0667  0.3702 -0.5602
  230MOL0     C30257  -2.295   7.342   6.591 -0.3100  0.1431  0.0282
  230MOL0     O30258  -2.328   7.211   6.612  0.6014 -0.3534 -0.2090
  230MOL0     C30259  -2.461   7.171   6.582  0.3124 -0.3176  0.1947
  230MOL0     C30260  -2.527   7.199   6.463  0.5619 -0.1432  0.0289
  230MOL0     C30261  -2.654   7.169   6.435 -0.7982  0.1370  0.2478
  230MOL0     C30262  -2.740   7.101   6.526 -0.8349 -0.2739 -0.2162
  230MOL0     O30263  -2.875   7.079   6.497 -0.4336  0.3857 -0.2680
  230MOL0     C30264  -2.938   6.977   6.568  0.9079  0.6345 -0.1245
  230MOL0     C30265  -3.058   6.931   6.490  0.2891 -0.0171  0.3845
  230MOL0     C30266  -3.105   6.798   6.557  0.3019 -0.4951  0.4200
  230MOL0     C30267  -3.200   6.742   6.456 -0.4020 -0.1059 -0.4979
  230MOL0     C30268  -3.227   6.596   6.508 -0.6721  0.1113 -0.9281
  230MOL0     C30269  -3.333   6.523   6.419  0.5276  0.3323  0.6339
  230MOL0     C30270  -3.369   6.390   6.480  0.2083 -0.0895 -0.4870
  230MOL0     C30271  -3.512   6.342   6.455  0.2980 -0.1623 -1.3724
  230MOL0    Cl30272  -3.522   6.161   6.481 -0.1547  0.1531 -0.1876
  230MOL0     C30273  -2.680   7.076   6.659  0.4639  0.8579  0.4391
  230MOL0     C30274  -2.538   7.101   6.684 -0.1336  0.3809  0.7749
  230MOL0     O30275  -2.377   7.428   6.554 -0.4153 -0.0037  0.1526
  230MOL0     C30276  -2.109   7.516   6.630  0.5751  0.3940 -0.5041
  230MOL0     C30277  -1.978   7.550   6.650 -0.1358  0.2806  1.1090
  230MOL0     N30278  -1.096   7.287   6.696  0.1494  0.2530  0.5390
  230MOL0     N30279  -0.974   7.291   6.652  0.5097  0.3976 -0.2214
  230MOL0     C30280   0.212   7.404   7.307  0.1463  0.1619  0.2842
  230MOL0     C30281   0.332   7.420   7.372 -0.8923 -0.9067 -0.0931
  230MOL0     C30282   0.752   7.550   7.495 -0.2407 -0.1690  0.5636
  230MOL0     C30283   0.850   7.499   7.405  0.4299 -0.1533 -1.1144
  230MOL0     C30284   0.987   7.521   7.428 -0.5419  0.5421  0.6486
  230MOL0     C30285   1.029   7.582   7.549 -0.0989  0.1525  1.0207
  230MOL0     O30286   1.162   7.589   7.587 -0.6192  0.9849 -0.5883
  230MOL0     C30287   1.270   7.584   7.485  0.5492 -0.1560  0.6388
  230MOL0     C30288   1.326   7.447   7.492 -0.3552 -0.1421  0.2220
  230MOL0     C30289   1.445   7.435   7.393 -0.4177 -0.3563  0.1782
  230MOL0     C30290   1.538   7.328   7.446 -0.8379  0.2691  0.1378
  230MOL0     C30291   1.631   7.378   7.541 -0.9712  0.0590 -0.1848
  230MOL0     C30292   1.709   7.429   7.619  0.4418  0.3642 -0.0266
  230MOL0     C30293   0.929   7.617   7.633 -0.6983 -0.5587 -0.1429
  230MOL0     C30294   0.799   7.604   7.614  0.0318 -0.2173 -0.0324
  230MOL0     H30295   0.536   7.438   7.101  1.1560  0.0175  1.1645
  230MOL0     H30296   0.316   7.376   6.993 -0.8404 -0.4748  0.4192
  230MOL0     H30297  -0.029   7.531   7.129  0.7380  0.5315 -2.0006
  230MOL0     H30298  -0.048   7.384   7.233  3.0159 -2.7316 -0.6332
  230MOL0     H30299  -0.128   7.255   7.054  1.1139 -1.2447 -1.3606
  230MOL0     H30300  -0.097   7.372   6.933  2.2040 -0.8095  0.8722
  230MOL0     H30301  -0.261   7.542   7.060  2.4350  0.1403 -1.0303
  230MOL0     H30302  -0.294   7.387   7.162  4.3403 -1.3541  0.8889
  230MOL0     H30303  -0.308   7.433   6.864  2.1520  2.8572  2.4219
  230MOL0     H30304  -0.343   7.270   6.936  3.1311  0.5158 -2.6739
  230MOL0     H30305  -0.506   7.507   7.015 -0.2889  2.5943 -3.5146
  230MOL0     H30306  -0.550   7.339   7.037 -1.6302  1.4936  0.4601
  230MOL0     H30307  -0.562   7.311   6.783  1.0005  0.7661 -3.0942
  230MOL0     H30308  -0.519   7.486   6.777  0.2751 -0.0586 -1.1227
  230MOL0     H30309  -0.767   7.364   6.910  3.1253 -1.6003 -0.3938
  230MOL0     H30310  -0.730   7.524   6.903  1.2064  0.1360  0.2265
  230MOL0     H30311  -0.736   7.360   6.646  1.1504  1.1316  1.8870
  230MOL0     H30312  -0.761   7.538   6.659 -1.2082  2.4575  2.0433
  230MOL0     H30313  -1.008   7.579   6.803  1.8276 -1.5539  1.0946
  230MOL0     H30314  -1.279   7.560   6.814  0.8748  0.2904  0.3653
  230MOL0     H30315  -1.310   7.409   6.893 -0.7209  1.7712  1.2989
  230MOL0     H30316  -1.398   7.301   6.678  0.9092 -0.0280  0.2309
  230MOL0     H30317  -1.343   7.445   6.591  1.6798  0.8295  1.0981
  230MOL0     H30318  -1.547   7.496   6.800  0.1432 -2.0939  0.7206
  230MOL0     H30319  -1.510   7.594   6.661  2.5086 -0.1945  0.0441
  230MOL0     H30320  -1.655   7.333   6.674  2.7880  0.5580  2.4186
  230MOL0     H30321  -1.635   7.402   6.515 -2.9996  2.0552 -0.6540
  230MOL0     H30322  -1.843   7.247   6.643 -1.5240 -1.1110  0.0216
  230MOL0     H30323  -2.077   7.188   6.616  0.0586  0.3278  0.2212
  230MOL0     H30324  -2.469   7.246   6.385  1.3890 -1.1191  0.0439
  230MOL0     H30325  -2.684   7.197   6.335  2.3046  0.2581 -0.7576
  230MOL0     H30326  -2.980   7.015   6.662 -2.9086 -3.5217  0.1844
  230MOL0     H30327  -2.861   6.900   6.575 -2.4081 -3.0790 -1.3529
  230MOL0     H30328  -3.021   6.911   6.389  2.8120  0.2248  1.1680
  230MOL0     H30329  -3.137   7.006   6.494  1.3832  1.2276 -0.2709
  230MOL0     H30330  -3.150   6.812   6.655  1.2504  0.3227  0.7562
  230MOL0     H30331  -3.020   6.730   6.574 -0.5223 -1.2787  1.5257
  230MOL0     H30332  -3.288   6.807   6.460  1.7995  3.0600  0.7403
  230MOL0     H30333  -3.174   6.746   6.350 -1.0616  1.7215 -0.6301
  230MOL0     H30334  -3.254   6.602   6.614  3.2196  0.2004  0.1912
  230MOL0     H30335  -3.138   6.533   6.515 -0.5019  0.5054  0.9226
  230MOL0     H30336  -3.301   6.502   6.317 -4.2541 -1.6535 -0.7365
  230MOL0     H30337  -3.422   6.586   6.408  2.6995  3.3890 -1.0253
  230MOL0     H30338  -3.296   6.318   6.444  0.8329 -0.8297  2.0216
  230MOL0     H30339  -3.361   6.395   6.589 -1.4188 -0.3280 -0.3287
  230MOL0     H30340  -3.541   6.350   6.350  2.3999 -3.1785 -2.3234
  230MOL0     H30341  -3.584   6.399   6.515  0.5400 -0.0165 -1.2166
  230MOL0     H30342  -2.742   7.042   6.740 -1.7025  4.3237  0.4351
  230MOL0     H30343  -2.498   7.066   6.779 -0.8973  0.2823  1.0707
  230MOL0     H30344  -2.185   7.594   6.637 -0.3370 -0.6177  2.3318
  230MOL0     H30345  -1.959   7.655   6.668 -3.9435  1.7087 -1.7993
  230MOL0     H30346   0.128   7.388   7.373  0.5455  0.2383  0.8166
  230MOL0     H30347   0.344   7.429   7.479  1.8234 -0.1039 -0.3582
  230MOL0     H30348   0.816   7.437   7.323  2.0435  1.1320 -2.8460
  230MOL0     H30349   1.049   7.468   7.356  0.7382  1.0354  1.3638
  230MOL0     H30350   1.337   7.670   7.495 -0.6134  0.9001 -0.3910
  230MOL0     H30351   1.231   7.602   7.384  3.2848  1.7720 -0.2182
  230MOL0     H30352   1.357   7.423   7.595 -2.7207  0.3920  1.1264
  230MOL0     H30353   1.260   7.363   7.470 -0.5585 -0.1124  0.6866
  230MOL0     H30354   1.509   7.523   7.404 -1.9252  0.6937  0.8215
  230MOL0     H30355   1.414   7.423   7.289  2.1266 -0.3295 -0.6464
  230MOL0     H30356   1.479   7.245   7.488 -1.5409  0.1335 -1.0606
  230MOL0     H30357   1.586   7.289   7.356 -3.3729 -3.6904  0.2424
  230MOL0     H30358   1.770   7.488   7.685  0.4710 -0.7980  1.0111
  230MOL0     H30359   0.968   7.656   7.727  0.7877  0.4616 -1.1300
  230MOL0     H30360   0.720   7.616   7.688 -1.9463  2.2197 -2.3251
  231MOL0     O30361   7.136   4.825   3.069  0.8864  0.1290 -0.0388
  231MOL0     C30362   7.210   4.727   3.071 -0.5825 -0.0845 -0.4062
  231MOL0     O30363   7.182   4.603   3.124  0.4177  0.1506 -0.3509
  231MOL0     C30364   7.049   4.571   3.150 -0.3230  0.1719 -0.5022
  231MOL0     C30365   7.024   4.510   3.272 -0.4034 -0.2103 -0.2461
  231MOL0     C30366   6.899   4.493   3.322  0.3524  0.2886  0.9072
  231MOL0     C30367   6.786   4.526   3.243  0.6566  0.6100  0.2615
  231MOL0     O30368   6.669   4.494   3.304 -0.0573 -0.8358  0.8444
  231MOL0     C30369   6.557   4.475   3.219  0.4646 -1.1205 -0.5835
  231MOL0     C30370   6.456   4.395   3.298  0.0475  0.2767 -0.1542
  231MOL0     C30371   6.334   4.335   3.224  0.1781  0.0508 -0.0860
  231MOL0     C30372   6.248   4.444   3.161  0.1682 -0.3261  0.2332
  231MOL0     C30373   6.101   4.392   3.189 -0.6527 -0.0074  0.7349
  231MOL0     C30374   6.000   4.485   3.128  0.9792 -0.6220  1.0763
  231MOL0     C30375   5.857   4.448   3.176 -0.0986 -0.7766 -0.0368
  231MOL0     C30376   5.743   4.553   3.151 -0.0382  1.6875  0.4058
  231MOL0     N30377   5.625   4.498   3.206  0.4392 -0.0554 -0.1579
  231MOL0     C30378   5.546   4.576   3.294 -0.4347  0.2145  0.2395
  231MOL0     C30379   5.416   4.530   3.286 -0.2179 -0.6292  0.7033
  231MOL0     C30380   5.295   4.586   3.368 -0.1478  0.0873  0.4772
  231MOL0     C30381   5.263   4.495   3.483  0.4982 -0.4208  0.1997
  231MOL0     C30382   5.206   4.581   3.590  0.5807 -0.9794 -1.0028
  231MOL0     C30383   5.201   4.504   3.728  0.6256  0.0858  0.1094
  231MOL0     O30384   5.174   4.362   3.716  0.3177 -0.2017 -0.1278
  231MOL0     C30385   5.048   4.323   3.669 -0.5864  0.1606  0.2606
  231MOL0     C30386   4.939   4.411   3.646 -0.1450 -0.2374 -0.9113
  231MOL0     C30387   4.819   4.359   3.593 -0.3703 -0.2069  0.0880
  231MOL0     C30388   4.801   4.211   3.591 -0.9954  0.4278  0.5376
  231MOL0     C30389   4.675   4.146   3.555  0.7061 -0.3935 -0.3648
  231MOL0     O30390   4.554   4.200   3.607  0.5888  0.1548  0.7086
  231MOL0     C30391   4.436   4.151   3.556  0.6195 -0.8894 -0.0696
  231MOL0     C30392   4.339   4.111   3.648 -0.2609 -0.6847 -0.1557
  231MOL0     C30393   4.210   4.059   3.613  0.3221  0.6206 -0.7621
  231MOL0     C30394   4.186   4.034   3.475 -0.5098 -0.8277 -0.3312
  231MOL0     O30395   4.069   3.987   3.427  0.0220  0.3931 -0.2156
  231MOL0     C30396   3.947   3.987   3.504  0.0616  0.0252 -0.1420
  231MOL0     C30397   3.837   3.928   3.411 -0.0951 -0.4559 -0.3803
  231MOL0     C30398   3.688   3.935   3.450  0.5155  0.0589  0.1155
  231MOL0     C30399   3.642   3.834   3.553  0.0213  0.4394 -0.3219
  231MOL0     C30400   3.492   3.850   3.583  0.1695  0.7517 -0.0643
  231MOL0     C30401   3.452   3.734   3.672  0.1617 -0.7962 -0.4323
  231MOL0     C30402   3.301   3.737   3.725  0.5415  0.1450  0.5362
  231MOL0     C30403   3.247   3.597   3.783 -0.1648 -0.4228 -0.9137
  231MOL0    Cl30404   3.254   3.477   3.658  0.3337 -0.4668 -0.3141
  231MOL0     C30405   4.277   4.080   3.381  0.1491 -0.3289  0.1130
  231MOL0     C30406   4.404   4.133   3.423  0.3608  0.0667 -0.2647
  231MOL0     O30407   4.684   4.058   3.470 -0.2708 -0.0862  0.2410
  231MOL0     C30408   4.915   4.132   3.603 -0.2279 -0.3211 -0.0388
  231MOL0     C30409   5.035   4.187   3.649 -0.0191  0.2798  1.1499
  231MOL0     N30410   5.421   4.435   3.181  0.1486 -0.4612  0.1288
  231MOL0     N30411   5.543   4.420   3.136  0.9535 -0.7584 -0.4120
  231MOL0     C30412   6.814   4.573   3.115 -0.9669 -0.2836 -0.0559
  231MOL0     C30413   6.946   4.606   3.076  0.6343 -0.2623  0.1404
  231MOL0     C30414   7.351   4.746   3.024 -0.0985 -0.3306  0.4772
  231MOL0     C30415   7.450   4.650   3.031 -0.6956 -0.3845 -0.3687
  231MOL0     C30416   7.584   4.670   2.993  0.2430  0.5868 -0.0281
  231MOL0     C30417   7.618   4.791   2.935 -0.2142 -0.3974 -0.0854
  231MOL0     O30418   7.745   4.803   2.895 -0.6145 -0.0574 -0.1609
  231MOL0     C30419   7.775   4.889   2.782 -0.3451 -1.1129 -0.0544
  231MOL0     C30420   7.905   4.832   2.703  0.4624 -0.1033 -0.5427
  231MOL0     C30421   8.030   4.867   2.775 -0.1550 -0.1505 -0.6682
  231MOL0     C30422   8.060   4.779   2.899  0.2547  0.5901 -0.0183
  231MOL0     C30423   8.183   4.831   2.964 -0.5346 -0.0136  0.1117
  231MOL0     C30424   8.281   4.881   3.017  0.0857 -0.7064  0.7732
  231MOL0     C30425   7.521   4.887   2.927  0.8952 -0.1672  0.6078
  231MOL0     C30426   7.389   4.872   2.971 -0.2328  0.2145 -0.1764
  231MOL0     H30427   7.110   4.500   3.338  1.5203  2.1321 -2.2035
  231MOL0     H30428   6.883   4.443   3.417  2.9327 -5.9848 -1.4086
  231MOL0     H30429   6.578   4.421   3.126  2.1356 -0.8714 -0.3964
  231MOL0     H30430   6.514   4.571   3.188  2.4848 -0.3712 -1.2951
  231MOL0     H30431   6.439   4.462   3.383  2.3757  1.8100 -0.7845
  231MOL0     H30432   6.506   4.309   3.344  0.7844  1.4656  1.3932
  231MOL0     H30433   6.275   4.271   3.291 -0.6832 -0.6767 -1.4900
  231MOL0     H30434   6.364   4.262   3.149  0.0611 -0.4589  0.3570
  231MOL0     H30435   6.273   4.532   3.221  1.1063 -1.0500  0.9280
  231MOL0     H30436   6.267   4.457   3.054 -0.6482  0.8074  0.1982
  231MOL0     H30437   6.086   4.391   3.298 -1.6261  0.5401  0.6141
  231MOL0     H30438   6.080   4.291   3.153  1.9825 -1.2161  2.2485
  231MOL0     H30439   6.003   4.486   3.019 -3.0651 -0.3370  0.8115
  231MOL0     H30440   6.009   4.587   3.168  0.7038 -0.2965  0.3243
  231MOL0     H30441   5.833   4.357   3.120 -1.3814 -0.4653 -0.0251
  231MOL0     H30442   5.861   4.432   3.284 -0.2593  1.7160  0.3999
  231MOL0     H30443   5.734   4.583   3.047 -0.7912 -0.8787 -0.3551
  231MOL0     H30444   5.770   4.644   3.206 -0.8995  2.4353 -0.3703
  231MOL0     H30445   5.581   4.650   3.366  0.2492 -2.5453  2.9715
  231MOL0     H30446   5.202   4.584   3.310 -0.0507 -0.6914  0.3301
  231MOL0     H30447   5.311   4.691   3.393 -0.2559 -0.0193  1.0063
  231MOL0     H30448   5.349   4.447   3.530  2.5902  1.9341 -1.0056
  231MOL0     H30449   5.191   4.420   3.449  1.2294 -1.2435  0.4102
  231MOL0     H30450   5.272   4.667   3.602 -0.9416  0.2074 -0.9553
  231MOL0     H30451   5.109   4.620   3.559  0.6403  0.8913  0.9223
  231MOL0     H30452   5.137   4.555   3.801 -0.2693  0.5145 -0.9460
  231MOL0     H30453   5.301   4.510   3.772  0.3666  1.4452  0.5685
  231MOL0     H30454   4.944   4.515   3.674  1.1691  0.5334 -3.6301
  231MOL0     H30455   4.730   4.420   3.584 -1.0942 -1.2227  0.2017
  231MOL0     H30456   4.354   4.140   3.751  1.3680 -1.6099 -0.1078
  231MOL0     H30457   4.143   4.026   3.692  0.1527 -0.0256 -1.1719
  231MOL0     H30458   3.924   4.091   3.528 -1.5147 -0.5890  1.1568
  231MOL0     H30459   3.965   3.930   3.597  3.8593  2.6442  0.9807
  231MOL0     H30460   3.860   3.827   3.376  0.7091  0.4629 -2.6927
  231MOL0     H30461   3.850   3.989   3.321 -0.1743  1.5613  0.8939
  231MOL0     H30462   3.624   3.943   3.361  2.4272  2.8836 -1.1595
  231MOL0     H30463   3.668   4.037   3.486  0.6162  0.2981 -0.4747
  231MOL0     H30464   3.668   3.732   3.522  0.4907  0.1054  1.0903
  231MOL0     H30465   3.698   3.842   3.646  0.0955 -0.4889 -0.2814
  231MOL0     H30466   3.425   3.851   3.496 -2.5580  3.0942  1.8695
  231MOL0     H30467   3.480   3.946   3.634  2.5844  0.4916  1.1004
  231MOL0     H30468   3.507   3.742   3.766  0.2563  1.2531 -0.6269
  231MOL0     H30469   3.472   3.638   3.622 -2.7222 -0.4221 -2.5913
  231MOL0     H30470   3.279   3.812   3.801  1.4472  1.4934 -0.4841
  231MOL0     H30471   3.249   3.763   3.632 -0.0344 -1.7240  0.2858
  231MOL0     H30472   3.141   3.608   3.809 -0.5298 -2.3281 -1.3829
  231MOL0     H30473   3.313   3.563   3.863  1.7540  1.9381 -1.3662
  231MOL0     H30474   4.257   4.068   3.275  0.4563  1.7408 -0.2227
  231MOL0     H30475   4.480   4.167   3.354  2.7123 -0.2926  2.0008
  231MOL0     H30476   4.908   4.024   3.603 -0.1072 -0.3553 -1.3367
  231MOL0     H30477   5.118   4.123   3.677 -0.3806  0.3994  2.5663
  231MOL0     H30478   6.734   4.589   3.043 -2.7261 -2.1912  1.3628
  231MOL0     H30479   6.964   4.658   2.983  1.7507  0.2001  0.5928
  231MOL0     H30480   7.418   4.558   3.077 -0.6121 -0.4552 -0.4511
  231MOL0     H30481   7.661   4.595   3.004 -0.0755  0.3618  0.6712
  231MOL0     H30482   7.809   4.984   2.826  1.0647 -1.8321  0.4374
  231MOL0     H30483   7.686   4.909   2.721 -0.3047  0.6462  0.3974
  231MOL0     H30484   7.896   4.723   2.693 -1.0403 -0.2033  1.4285
  231MOL0     H30485   7.906   4.870   2.600 -2.8295 -1.7571 -1.3294
  231MOL0     H30486   8.031   4.972   2.805  1.8294 -0.1673 -0.5811
  231MOL0     H30487   8.112   4.843   2.707  0.6062 -2.2456  0.8760
  231MOL0     H30488   7.978   4.772   2.972  1.0442 -0.0845  0.8248
  231MOL0     H30489   8.076   4.678   2.859 -1.2598  0.5089 -0.5080
  231MOL0     H30490   8.368   4.921   3.063  0.9601 -2.6279  0.8631
  231MOL0     H30491   7.542   4.982   2.878 -0.7787  0.6595  1.4083
  231MOL0     H30492   7.322   4.956   2.960 -0.0858  0.3243 -0.2289
  232MOL0     O30493   5.461   1.018   0.045 -0.8908  0.0791  0.3249
  232MOL0     C30494   5.432   1.051  -0.074 -0.6370  0.2316 -1.2738
  232MOL0     O30495   5.313   1.068  -0.119 -0.4111 -0.0934 -0.1624
  232MOL0     C30496   5.198   1.039  -0.042  0.4004  0.0037 -0.0635
  232MOL0     C30497   5.147   1.126   0.053  0.0844 -0.3423  0.1390
  232MOL0     C30498   5.027   1.091   0.116  0.0071  0.0769 -0.6537
  232MOL0     C30499   4.970   0.961   0.117 -0.2440 -1.2655 -0.1369
  232MOL0     O30500   4.851   0.933   0.178 -0.3954  0.3788 -0.0961
  232MOL0     C30501   4.754   1.030   0.210  0.0759  0.1536  0.5209
  232MOL0     C30502   4.638   0.953   0.278 -0.2345  0.9812 -0.0730
  232MOL0     C30503   4.529   1.056   0.285  0.4762  0.2280 -0.1909
  232MOL0     C30504   4.389   1.002   0.317 -0.1642  0.5591  0.4233
  232MOL0     C30505   4.278   1.094   0.294  0.5626  0.1865  0.4052
  232MOL0     C30506   4.159   1.018   0.241  0.0261  0.1353  0.4095
  232MOL0     C30507   4.034   1.091   0.205 -0.5148  0.9214  0.6419
  232MOL0     C30508   3.982   1.163   0.325  0.3888  0.9163  1.0574
  232MOL0     N30509   3.860   1.229   0.279 -0.5940 -0.2617  0.2971
  232MOL0     C30510   3.853   1.310   0.169 -0.8874 -0.0554  0.7732
  232MOL0     C30511   3.724   1.364   0.165 -0.3187  0.4848  0.0462
  232MOL0     C30512   3.651   1.441   0.059  0.1088 -0.8355 -0.0494
  232MOL0     C30513   3.535   1.355  -0.003 -0.1142 -0.5159 -0.4231
  232MOL0     C30514   3.582   1.238  -0.088 -0.4024 -1.3212  0.3023
  232MOL0     C30515   3.453   1.188  -0.147 -0.4866 -0.2369 -0.1593
  232MOL0     O30516   3.371   1.126  -0.044 -0.3389  0.0889  0.4046
  232MOL0     C30517   3.239   1.112  -0.073  0.2213 -0.4404 -0.7009
  232MOL0     C30518   3.176   1.141  -0.192  0.8185 -1.3390  0.1584
  232MOL0     C30519   3.037   1.130  -0.211 -0.3713  0.1500 -0.1500
  232MOL0     C30520   2.951   1.100  -0.103  0.9540 -0.0653 -0.7505
  232MOL0     C30521   2.802   1.100  -0.112 -0.6955 -0.4701 -0.4799
  232MOL0     O30522   2.729   1.043  -0.013  0.3441  0.5197 -0.0891
  232MOL0     C30523   2.588   1.031  -0.012 -0.4879  0.6935 -0.1120
  232MOL0     C30524   2.498   1.117  -0.064  0.3720  0.1301  1.6828
  232MOL0     C30525   2.359   1.097  -0.028 -0.1833 -0.4461  0.1689
  232MOL0     C30526   2.323   0.985   0.049  0.3303 -0.6187  0.8395
  232MOL0     O30527   2.189   0.950   0.079  0.1679  0.5154  1.1654
  232MOL0     C30528   2.086   0.986  -0.021  0.0832  0.1273 -0.8073
  232MOL0     C30529   1.958   0.909   0.017 -0.4284 -0.2550 -0.4990
  232MOL0     C30530   1.975   0.761  -0.027  0.6710  0.0495  0.0013
  232MOL0     C30531   1.864   0.667   0.014  1.1728 -0.2028  0.9422
  232MOL0     C30532   1.731   0.724  -0.017 -0.6276 -0.0194 -0.0018
  232MOL0     C30533   1.610   0.629  -0.009  0.0023  0.1547  0.0390
  232MOL0     C30534   1.474   0.690  -0.033 -0.1300  0.6015  0.4294
  232MOL0     C30535   1.454   0.770  -0.172  0.4289 -0.1832 -0.4113
  232MOL0    Cl30536   1.295   0.855  -0.177 -0.4744  0.3029 -0.0027
  232MOL0     C30537   2.418   0.895   0.088  0.7935 -1.0789 -0.0432
  232MOL0     C30538   2.550   0.912   0.056  0.3483 -0.4142  0.1134
  232MOL0     O30539   2.756   1.166  -0.205  0.0851 -0.7061 -0.4687
  232MOL0     C30540   3.017   1.066   0.015 -0.2047 -0.3038 -0.7613
  232MOL0     C30541   3.157   1.068   0.032 -0.6338  0.1700  0.1289
  232MOL0     N30542   3.661   1.310   0.276 -0.2315  0.3035  0.6842
  232MOL0     N30543   3.733   1.226   0.335  0.0901  0.5323  0.0115
  232MOL0     C30544   5.039   0.868   0.033  0.2747 -0.5542 -0.2187
  232MOL0     C30545   5.142   0.910  -0.050 -0.6686  0.3968 -0.1584
  232MOL0     C30546   5.553   1.077  -0.160  0.5109 -0.6341  0.6645
  232MOL0     C30547   5.676   1.031  -0.113  0.5894  0.1504  0.8762
  232MOL0     C30548   5.790   1.034  -0.195  0.4201 -0.2248 -0.9517
  232MOL0     C30549   5.788   1.094  -0.323 -0.9472  0.3358  0.3026
  232MOL0     O30550   5.896   1.118  -0.399 -0.1644  0.3769 -0.0635
  232MOL0     C30551   6.016   1.039  -0.375 -0.4087  0.5585 -0.1606
  232MOL0     C30552   6.009   0.910  -0.464  0.1224 -0.5407 -1.2050
  232MOL0     C30553   5.955   0.933  -0.609  1.1000 -0.0000  0.3205
  232MOL0     C30554   5.845   0.826  -0.637 -0.7373 -0.6995 -0.9180
  232MOL0     C30555   5.919   0.701  -0.668  0.0350 -0.3015  0.0756
  232MOL0     C30556   5.976   0.595  -0.678 -0.7254  0.6733  0.5866
  232MOL0     C30557   5.662   1.146  -0.363  0.3716  0.1889 -0.7113
  232MOL0     C30558   5.544   1.136  -0.288  0.8464  0.1037  0.0584
  232MOL0     H30559   5.188   1.224   0.078 -0.1797 -0.2897  0.3664
  232MOL0     H30560   4.988   1.164   0.186 -1.1752  1.2941 -2.5098
  232MOL0     H30561   4.722   1.065   0.112  1.1381 -0.8042 -0.1854
  232MOL0     H30562   4.786   1.106   0.283 -1.0515 -0.3907  1.6279
  232MOL0     H30563   4.668   0.930   0.380 -1.3722  0.4403  0.1542
  232MOL0     H30564   4.612   0.859   0.227 -0.0714  2.8978 -4.0999
  232MOL0     H30565   4.515   1.106   0.188 -0.8278  1.6038  0.6663
  232MOL0     H30566   4.548   1.134   0.360 -1.1329 -1.1630  1.7652
  232MOL0     H30567   4.377   0.911   0.258 -1.5291  0.5078  0.7516
  232MOL0     H30568   4.384   0.966   0.420 -0.3524 -0.7788 -0.0293
  232MOL0     H30569   4.293   1.181   0.229 -1.7586  0.4347  0.1097
  232MOL0     H30570   4.241   1.141   0.385 -2.3635  0.8804 -1.0390
  232MOL0     H30571   4.141   0.938   0.313  3.2496 -0.3216  0.8506
  232MOL0     H30572   4.181   0.968   0.146 -3.5129 -0.2317 -0.3488
  232MOL0     H30573   4.067   1.165   0.132 -0.9367 -0.3533 -0.9062
  232MOL0     H30574   3.951   1.043   0.152  0.6666 -1.0760  0.5099
  232MOL0     H30575   4.059   1.235   0.353  3.9337 -1.9193 -0.5678
  232MOL0     H30576   3.966   1.093   0.407 -0.3042  0.2610  0.3743
  232MOL0     H30577   3.934   1.328   0.099 -2.2220  0.0582 -0.8107
  232MOL0     H30578   3.725   1.457  -0.021  1.6570 -0.5605  1.3897
  232MOL0     H30579   3.608   1.530   0.104  0.4523 -1.4035  1.4480
  232MOL0     H30580   3.478   1.424  -0.066  1.0738  1.0434  0.1534
  232MOL0     H30581   3.481   1.319   0.085 -0.2929  0.6789 -0.0272
  232MOL0     H30582   3.656   1.274  -0.161 -2.0764 -1.1493 -1.3833
  232MOL0     H30583   3.618   1.158  -0.023 -1.2898 -1.0250  1.1936
  232MOL0     H30584   3.480   1.117  -0.226  2.7742 -1.5462  1.9569
  232MOL0     H30585   3.394   1.271  -0.187 -1.3060 -1.3092 -1.2686
  232MOL0     H30586   3.231   1.162  -0.284 -0.7055  0.2981 -0.4332
  232MOL0     H30587   3.007   1.145  -0.314  1.3707 -2.9406 -1.2171
  232MOL0     H30588   2.532   1.209  -0.110 -0.3006 -0.0832  0.7408
  232MOL0     H30589   2.289   1.172  -0.063 -2.2293 -1.1453  2.4442
  232MOL0     H30590   2.102   0.963  -0.127  1.7181 -0.5721 -0.4246
  232MOL0     H30591   2.059   1.091  -0.008  0.7423 -0.0496  3.3733
  232MOL0     H30592   1.873   0.950  -0.038 -0.8302  0.9013  0.9375
  232MOL0     H30593   1.932   0.910   0.123 -0.2107  4.8817 -0.2443
  232MOL0     H30594   2.069   0.724   0.015 -0.7631  0.1485  3.6271
  232MOL0     H30595   1.986   0.771  -0.135 -0.4326  0.3117 -0.0938
  232MOL0     H30596   1.862   0.570  -0.035 -3.8938  0.4284 -0.6812
  232MOL0     H30597   1.868   0.657   0.123 -2.7900 -0.5647  1.2128
  232MOL0     H30598   1.738   0.764  -0.119 -0.8880  1.9871  0.7206
  232MOL0     H30599   1.713   0.807   0.053 -2.4148 -0.0946 -0.3252
  232MOL0     H30600   1.612   0.587   0.092 -4.0002  0.5772  0.4355
  232MOL0     H30601   1.632   0.551  -0.082 -1.0662  0.8648 -1.0774
  232MOL0     H30602   1.405   0.605  -0.030  1.4532 -0.7223  0.9878
  232MOL0     H30603   1.453   0.752   0.055  1.4472  1.6610  0.1089
  232MOL0     H30604   1.468   0.715  -0.266 -0.3408 -1.9955  0.4942
  232MOL0     H30605   1.536   0.842  -0.174 -1.2305  2.1018  3.6225
  232MOL0     H30606   2.394   0.808   0.149 -1.7509 -1.9967 -2.1418
  232MOL0     H30607   2.631   0.850   0.091  0.3264 -0.8123 -0.5237
  232MOL0     H30608   2.951   1.034   0.095 -1.5621 -2.7021 -2.7053
  232MOL0     H30609   3.193   1.056   0.134 -1.8932  0.3388  0.6148
  232MOL0     H30610   5.008   0.765   0.024 -0.6554 -0.1229 -3.0500
  232MOL0     H30611   5.186   0.840  -0.120 -0.6461  1.3890 -1.1610
  232MOL0     H30612   5.689   0.979  -0.019 -3.1562 -2.2251  0.2789
  232MOL0     H30613   5.875   0.992  -0.142 -1.4889 -1.5443  1.2036
  232MOL0     H30614   6.042   1.004  -0.275 -0.1438 -1.6071 -0.9231
  232MOL0     H30615   6.099   1.097  -0.418 -0.8665  0.0431 -1.8301
  232MOL0     H30616   6.112   0.873  -0.474  0.4458 -1.4450  3.5025
  232MOL0     H30617   5.948   0.843  -0.405  1.7653 -1.3303 -0.3309
  232MOL0     H30618   6.041   0.942  -0.676  0.5823  1.8041 -0.1701
  232MOL0     H30619   5.899   1.026  -0.623 -0.4380 -1.0423 -0.7996
  232MOL0     H30620   5.780   0.824  -0.549 -0.9826  0.6371 -1.0473
  232MOL0     H30621   5.791   0.847  -0.729 -0.9944  0.4579 -0.5247
  232MOL0     H30622   6.033   0.505  -0.692  0.4453  1.3967  0.5969
  232MOL0     H30623   5.664   1.192  -0.461 -0.5072  2.9214  0.4417
  232MOL0     H30624   5.448   1.174  -0.322  1.1896 -1.9391 -3.5969
  233MOL0     O30625   0.315   0.786   3.608  0.7318 -0.0048  0.3564
  233MOL0     C30626   0.358   0.699   3.533  0.5034 -0.4291  0.3448
  233MOL0     O30627   0.282   0.626   3.441  0.3809 -0.5004  0.5809
  233MOL0     C30628   0.144   0.637   3.423 -0.0895  0.5958 -0.1907
  233MOL0     C30629   0.053   0.712   3.502 -0.9880  0.3281 -0.5891
  233MOL0     C30630  -0.087   0.707   3.479  0.1845  0.6661  0.0358
  233MOL0     C30631  -0.141   0.636   3.372  0.2728 -0.4255  0.4658
  233MOL0     O30632  -0.279   0.645   3.338 -0.6787 -0.2427  0.0267
  233MOL0     C30633  -0.358   0.761   3.362 -0.1726 -0.4559  0.4096
  233MOL0     C30634  -0.448   0.735   3.479 -0.2455 -0.3028 -0.4623
  233MOL0     C30635  -0.519   0.861   3.528  0.6578 -0.3948  0.2986
  233MOL0     C30636  -0.633   0.812   3.621  0.4207 -0.5249  0.2790
  233MOL0     C30637  -0.696   0.930   3.699  0.6930 -0.1366  0.3809
  233MOL0     C30638  -0.748   1.044   3.616  0.0598 -0.6264  0.1678
  233MOL0     C30639  -0.842   1.127   3.699  0.4380  0.1321 -0.2757
  233MOL0     C30640  -0.910   1.234   3.624  0.2526  0.1366 -0.2821
  233MOL0     N30641  -0.978   1.188   3.501  0.3602 -0.0226 -0.0703
  233MOL0     C30642  -1.063   1.075   3.501  0.4159 -0.2615 -0.0510
  233MOL0     C30643  -1.103   1.076   3.371  0.3279 -0.7854  0.8762
  233MOL0     C30644  -1.182   0.977   3.293 -0.2305  0.0068  1.2143
  233MOL0     C30645  -1.334   1.009   3.301 -0.0533  0.4393 -0.1886
  233MOL0     C30646  -1.410   0.903   3.226  0.0062  0.7428  0.3062
  233MOL0     C30647  -1.551   0.947   3.204 -1.1259  0.4994  0.9299
  233MOL0     O30648  -1.610   0.855   3.107  0.2799 -0.6213  0.4097
  233MOL0     C30649  -1.749   0.837   3.118 -0.5097  0.6435  1.2563
  233MOL0     C30650  -1.838   0.929   3.173 -0.8738  0.1565  0.0319
  233MOL0     C30651  -1.969   0.917   3.158  0.6317  0.0914  0.2693
  233MOL0     C30652  -2.031   0.799   3.108  0.0375  0.6123 -0.3263
  233MOL0     C30653  -2.173   0.777   3.116  0.0499  0.2954 -0.8773
  233MOL0     O30654  -2.222   0.653   3.090 -0.6410 -0.7794 -1.1945
  233MOL0     C30655  -2.353   0.618   3.109 -0.0009  0.0535 -0.2059
  233MOL0     C30656  -2.391   0.490   3.155  0.2335  0.3901  0.4173
  233MOL0     C30657  -2.522   0.449   3.165  0.3938 -0.3206 -0.6581
  233MOL0     C30658  -2.622   0.535   3.126  0.1744 -0.1512  0.2360
  233MOL0     O30659  -2.750   0.483   3.113 -0.0205 -0.5412 -0.5906
  233MOL0     C30660  -2.859   0.568   3.157 -0.3031  0.2126  0.3356
  233MOL0     C30661  -2.956   0.599   3.043  0.0206  0.2825  0.6913
  233MOL0     C30662  -3.063   0.697   3.078 -1.0290  0.2545 -0.4443
  233MOL0     C30663  -3.134   0.769   2.958 -0.2423 -0.0200  0.6098
  233MOL0     C30664  -3.222   0.891   2.997  0.5081  0.5682  0.2718
  233MOL0     C30665  -3.300   0.940   2.868  0.1358  0.6453 -0.4742
  233MOL0     C30666  -3.377   1.065   2.898  0.5336 -0.1133  0.3413
  233MOL0     C30667  -3.469   1.108   2.786 -0.2328  0.5035  0.3748
  233MOL0    Cl30668  -3.579   0.979   2.748 -0.3856 -0.2600  0.0287
  233MOL0     C30669  -2.589   0.656   3.064 -0.3022 -0.1760  0.4190
  233MOL0     C30670  -2.457   0.688   3.052  0.1225 -1.2620 -0.1187
  233MOL0     O30671  -2.236   0.875   3.155  0.0356  0.1147 -0.5204
  233MOL0     C30672  -1.944   0.700   3.046 -0.2642  0.3386 -0.3842
  233MOL0     C30673  -1.808   0.729   3.051 -0.9125  0.3316  0.2095
  233MOL0     N30674  -1.051   1.186   3.303  1.3298  0.3921 -0.2023
  233MOL0     N30675  -0.970   1.248   3.376  0.0524  0.0841 -0.4102
  233MOL0     C30676  -0.046   0.555   3.293  0.0403  0.0061  0.2954
  233MOL0     C30677   0.094   0.567   3.320 -0.0812  0.4999  0.4659
  233MOL0     C30678   0.497   0.661   3.536  0.0494  1.4430  0.1310
  233MOL0     C30679   0.587   0.725   3.624  0.4033 -0.1348  0.3455
  233MOL0     C30680   0.729   0.690   3.619  0.3094  0.2526 -0.4046
  233MOL0     C30681   0.776   0.589   3.532 -0.8392 -0.2187  0.5017
  233MOL0     O30682   0.910   0.550   3.531 -0.3082 -0.9514  0.2841
  233MOL0     C30683   1.006   0.622   3.611  0.1458 -0.1829 -0.4200
  233MOL0     C30684   1.149   0.615   3.554  0.5067  0.9942 -0.7358
  233MOL0     C30685   1.202   0.479   3.577  0.5353  0.5080 -0.3803
  233MOL0     C30686   1.320   0.450   3.488 -0.0304 -0.6754 -0.0670
  233MOL0     C30687   1.445   0.519   3.538 -0.6601  0.1988  0.0691
  233MOL0     C30688   1.543   0.563   3.589 -0.3752 -1.0626 -0.5087
  233MOL0     C30689   0.686   0.522   3.444 -0.2408  0.0825 -0.2971
  233MOL0     C30690   0.548   0.556   3.452  0.5129 -0.4636 -0.0524
  233MOL0     H30691   0.087   0.762   3.592  0.8679 -0.0742 -1.0235
  233MOL0     H30692  -0.157   0.751   3.549 -1.9632 -2.3212 -0.0593
  233MOL0     H30693  -0.422   0.780   3.275 -0.1440 -2.4147 -0.0924
  233MOL0     H30694  -0.304   0.854   3.383 -1.2343  0.2339  0.1915
  233MOL0     H30695  -0.400   0.689   3.566  0.7208 -0.5083 -1.0835
  233MOL0     H30696  -0.517   0.658   3.445  0.4555 -1.8076  1.3432
  233MOL0     H30697  -0.553   0.910   3.436  1.6251 -2.5543 -1.3178
  233MOL0     H30698  -0.455   0.935   3.578 -0.8624  0.6384  0.7921
  233MOL0     H30699  -0.707   0.767   3.553  1.6603  0.2811 -1.6900
  233MOL0     H30700  -0.597   0.730   3.684 -0.7683 -2.2693 -1.1796
  233MOL0     H30701  -0.626   0.961   3.777 -0.3483 -0.8806  1.6291
  233MOL0     H30702  -0.780   0.887   3.754 -1.1165  1.5282 -0.9175
  233MOL0     H30703  -0.802   0.997   3.534  2.5837 -1.8554 -0.9201
  233MOL0     H30704  -0.664   1.103   3.579  0.4559 -1.8024 -0.8542
  233MOL0     H30705  -0.921   1.064   3.741  0.2447  2.0804  2.6048
  233MOL0     H30706  -0.781   1.177   3.776 -0.3195  0.9415 -0.1786
  233MOL0     H30707  -0.834   1.306   3.592 -0.5115  1.0770 -0.0584
  233MOL0     H30708  -0.978   1.300   3.680 -0.2462  2.2855 -3.1612
  233MOL0     H30709  -1.097   1.007   3.579 -1.0684 -0.5227 -0.8784
  233MOL0     H30710  -1.159   0.879   3.337 -2.5203 -0.7962  0.7451
  233MOL0     H30711  -1.148   0.972   3.189  1.0841  0.2914  1.6033
  233MOL0     H30712  -1.359   1.099   3.244 -1.9065 -0.3459 -0.7067
  233MOL0     H30713  -1.371   1.034   3.401  0.0284 -1.9139  0.4776
  233MOL0     H30714  -1.362   0.868   3.134 -1.5307 -3.9353  0.9823
  233MOL0     H30715  -1.410   0.813   3.289 -0.1405  1.1539  0.9025
  233MOL0     H30716  -1.550   1.050   3.167  0.0636 -0.0078 -0.5568
  233MOL0     H30717  -1.606   0.957   3.298  0.6242  1.0005  1.9507
  233MOL0     H30718  -1.797   1.012   3.228  1.8902 -1.9276  1.3743
  233MOL0     H30719  -2.029   1.004   3.183  1.3740  0.4172  0.9457
  233MOL0     H30720  -2.311   0.426   3.191  0.6060 -0.7158 -2.1682
  233MOL0     H30721  -2.530   0.350   3.208  1.8280 -0.9323 -1.7190
  233MOL0     H30722  -2.821   0.659   3.205  0.2868 -0.8394  1.9386
  233MOL0     H30723  -2.920   0.523   3.236 -0.5914  2.2310  1.3422
  233MOL0     H30724  -3.013   0.514   3.006 -3.6170  1.8707  2.1443
  233MOL0     H30725  -2.892   0.641   2.965 -0.4238 -1.7811 -0.8545
  233MOL0     H30726  -3.006   0.774   3.130  0.6350 -0.9867 -0.3489
  233MOL0     H30727  -3.135   0.654   3.147 -1.0641  0.9044 -0.0726
  233MOL0     H30728  -3.058   0.814   2.894 -2.2157  1.5129 -0.7616
  233MOL0     H30729  -3.192   0.698   2.897  0.3058  0.7433 -0.8276
  233MOL0     H30730  -3.152   0.971   3.026 -0.0042  1.7966 -1.6828
  233MOL0     H30731  -3.287   0.874   3.083  2.7515 -0.7184  1.8363
  233MOL0     H30732  -3.366   0.857   2.840  0.7124  0.1753 -0.4484
  233MOL0     H30733  -3.238   0.966   2.782 -0.9185 -0.8652 -1.7530
  233MOL0     H30734  -3.441   1.022   2.975 -1.2446 -1.5518 -1.8260
  233MOL0     H30735  -3.311   1.142   2.938  0.1384  0.2327  0.3217
  233MOL0     H30736  -3.406   1.125   2.699 -1.2552  1.3571 -0.2256
  233MOL0     H30737  -3.530   1.197   2.808 -0.4652  0.0651  1.5824
  233MOL0     H30738  -2.662   0.719   3.015 -0.6643 -1.4850 -0.7866
  233MOL0     H30739  -2.445   0.783   3.001 -3.3575 -1.2974 -1.2382
  233MOL0     H30740  -1.983   0.610   3.000  2.0103 -1.2659  0.6446
  233MOL0     H30741  -1.737   0.659   3.008  0.4876  1.7227  0.1676
  233MOL0     H30742  -0.082   0.497   3.209 -1.9762  0.4796  0.7905
  233MOL0     H30743   0.171   0.521   3.258  1.3560  0.6141  2.0728
  233MOL0     H30744   0.559   0.808   3.687  1.7012 -0.7540  1.8043
  233MOL0     H30745   0.797   0.756   3.672 -1.8535  1.5658  0.9077
  233MOL0     H30746   1.020   0.588   3.714  0.2351 -0.0791 -0.3983
  233MOL0     H30747   0.979   0.728   3.608 -0.8724 -0.3585  1.3097
  233MOL0     H30748   1.151   0.644   3.448  4.9739 -0.1046 -1.1662
  233MOL0     H30749   1.214   0.683   3.609 -0.0373 -1.9875  4.1502
  233MOL0     H30750   1.127   0.402   3.557  1.7965 -0.7299 -0.4512
  233MOL0     H30751   1.231   0.471   3.681 -1.2595  0.6969  0.1795
  233MOL0     H30752   1.341   0.345   3.467 -0.9039 -0.5417 -1.8133
  233MOL0     H30753   1.313   0.489   3.386  4.0172 -2.6012 -1.2976
  233MOL0     H30754   1.625   0.607   3.643 -0.6319 -0.2645 -0.7611
  233MOL0     H30755   0.719   0.436   3.386 -4.0966 -3.2917  1.9736
  233MOL0     H30756   0.477   0.509   3.384 -0.5615 -2.0802  2.0597
  234MOL0     O30757   6.038   8.224   9.900 -0.5842  0.2293  0.3054
  234MOL0     C30758   6.100   8.224  10.004  0.2962  0.1538  0.2315
  234MOL0     O30759   6.049   8.184  10.125 -0.2510  0.8090  0.2542
  234MOL0     C30760   5.911   8.206  10.152 -1.1008  0.2006  0.4490
  234MOL0     C30761   5.815   8.106  10.160 -0.0734 -0.4672 -0.4069
  234MOL0     C30762   5.688   8.133  10.183  1.1379  0.2210 -0.3116
  234MOL0     C30763   5.654   8.262  10.228 -0.1909 -0.4275  0.3577
  234MOL0     O30764   5.530   8.301  10.263 -0.3672  0.1072 -0.1181
  234MOL0     C30765   5.430   8.290  10.159  1.1150  0.1163  0.6947
  234MOL0     C30766   5.325   8.391  10.192 -0.5515 -0.2354  0.3497
  234MOL0     C30767   5.242   8.347  10.314 -0.5738 -0.3800  0.3377
  234MOL0     C30768   5.128   8.440  10.349  0.2215  1.1128  0.2203
  234MOL0     C30769   5.035   8.377  10.452 -0.7727  0.3441  0.1485
  234MOL0     C30770   4.923   8.476  10.476 -0.0608 -0.8274 -0.7558
  234MOL0     C30771   4.819   8.419  10.584 -0.0872 -0.3197 -0.9179
  234MOL0     C30772   4.701   8.522  10.609  0.2621  0.4076 -0.1569
  234MOL0     N30773   4.644   8.549  10.473 -0.6958 -0.5715 -0.6828
  234MOL0     C30774   4.571   8.466  10.397  0.3189 -0.3224  0.7285
  234MOL0     C30775   4.536   8.556  10.299 -1.3148  0.7822  0.2484
  234MOL0     C30776   4.453   8.526  10.178 -0.3711 -0.1385 -0.0208
  234MOL0     C30777   4.305   8.547  10.202 -0.1713 -0.2037  1.1395
  234MOL0     C30778   4.220   8.528  10.071  0.3563  0.3230 -0.0791
  234MOL0     C30779   4.080   8.514  10.114  0.1139 -0.3704  0.8514
  234MOL0     O30780   3.999   8.527   9.994  1.0073 -0.9404 -0.3270
  234MOL0     C30781   3.862   8.519  10.013  0.9854  0.2798  0.6349
  234MOL0     C30782   3.782   8.491   9.900 -0.1184 -0.3951 -0.4859
  234MOL0     C30783   3.649   8.468   9.909  0.4505 -0.6040 -0.1511
  234MOL0     C30784   3.581   8.485  10.034  0.3236 -0.3892  0.4438
  234MOL0     C30785   3.442   8.457  10.048 -0.3066 -0.4904 -0.7472
  234MOL0     O30786   3.394   8.442  10.177  0.0905 -0.0998  0.8089
  234MOL0     C30787   3.254   8.427  10.191 -0.1877  0.4212  0.2031
  234MOL0     C30788   3.184   8.499  10.289 -0.6304 -0.2127 -0.2868
  234MOL0     C30789   3.044   8.483  10.312  0.2285  0.4858 -0.2176
  234MOL0     C30790   2.970   8.387  10.240 -0.0661  0.3919 -0.9324
  234MOL0     O30791   2.833   8.379  10.263 -0.1175  0.2061 -0.4662
  234MOL0     C30792   2.763   8.269  10.211  0.7034  0.5485 -0.3081
  234MOL0     C30793   2.613   8.282  10.245  0.2743  0.8996  0.0937
  234MOL0     C30794   2.584   8.221  10.388 -0.3586  0.7583 -0.0907
  234MOL0     C30795   2.427   8.213  10.418  0.1871 -0.0076 -0.8463
  234MOL0     C30796   2.381   8.220  10.567 -0.3234 -0.2091 -0.0291
  234MOL0     C30797   2.416   8.104  10.657  0.0745 -0.3819  0.5617
  234MOL0     C30798   2.355   7.968  10.611  0.6891  0.2824 -0.8026
  234MOL0     C30799   2.397   7.844  10.696  0.9327  0.4385 -0.0301
  234MOL0    Cl30800   2.329   7.872  10.859  0.1360 -0.1954 -0.1387
  234MOL0     C30801   3.043   8.307  10.137 -0.1071  1.0247 -0.6884
  234MOL0     C30802   3.182   8.326  10.122  0.1467  0.1849  1.3487
  234MOL0     O30803   3.374   8.457   9.949  0.2081 -0.3096  0.6392
  234MOL0     C30804   3.659   8.514  10.150  0.3035 -0.0960  0.0278
  234MOL0     C30805   3.794   8.543  10.137 -0.1776  0.2327 -0.5636
  234MOL0     N30806   4.606   8.678  10.304  0.3144 -0.1491  0.4231
  234MOL0     N30807   4.666   8.676  10.412  0.5230  0.6003 -0.3412
  234MOL0     C30808   5.751   8.355  10.244 -0.2525 -1.3213 -0.0434
  234MOL0     C30809   5.878   8.334  10.204 -0.0695  0.4214  1.0635
  234MOL0     C30810   6.240   8.265   9.993  0.4704  0.4015 -0.0040
  234MOL0     C30811   6.311   8.283   9.870 -0.1503  1.4473  0.0497
  234MOL0     C30812   6.452   8.303   9.866  0.0998 -0.2621 -0.6463
  234MOL0     C30813   6.531   8.329   9.985  0.4754  0.0869  0.2418
  234MOL0     O30814   6.665   8.376   9.962  0.1867 -0.6304  0.4458
  234MOL0     C30815   6.737   8.440  10.070 -0.1186  0.0227  0.1654
  234MOL0     C30816   6.697   8.584  10.057 -0.3077 -0.2110 -0.0882
  234MOL0     C30817   6.787   8.691  10.117 -0.0353 -0.3094  0.1225
  234MOL0     C30818   6.836   8.657  10.260 -1.5220 -0.3470  0.0508
  234MOL0     C30819   6.923   8.774  10.294  0.5707  0.9133  0.1340
  234MOL0     C30820   6.999   8.869  10.296 -0.3325 -0.1249 -0.3064
  234MOL0     C30821   6.461   8.314  10.102 -0.5257  0.0250  0.3574
  234MOL0     C30822   6.327   8.269  10.108 -0.7085 -0.2087 -0.5131
  234MOL0     H30823   5.854   8.007  10.137  3.6176  0.4432  1.1281
  234MOL0     H30824   5.616   8.052  10.176  0.6996  0.3330  2.1768
  234MOL0     H30825   5.393   8.188  10.157 -1.3739  0.9598  0.6580
  234MOL0     H30826   5.474   8.319  10.063 -2.5050  3.4623 -0.2084
  234MOL0     H30827   5.260   8.382  10.104  0.8457  1.2056 -0.8884
  234MOL0     H30828   5.368   8.491  10.195 -2.0006  0.4900 -1.2543
  234MOL0     H30829   5.310   8.341  10.400  2.0668 -0.3146 -1.6392
  234MOL0     H30830   5.203   8.251  10.279  1.4460 -0.1453 -2.9218
  234MOL0     H30831   5.166   8.531  10.396  2.8174 -0.5448  1.5447
  234MOL0     H30832   5.069   8.479  10.265  0.4896  0.4549 -0.2747
  234MOL0     H30833   5.083   8.359  10.548  1.2810 -1.2340 -1.1075
  234MOL0     H30834   4.990   8.290  10.404  1.8571 -1.3391  0.5484
  234MOL0     H30835   4.871   8.509  10.385  2.6020  0.9306 -1.7518
  234MOL0     H30836   4.977   8.564  10.513 -0.4615 -0.5492 -0.8242
  234MOL0     H30837   4.772   8.324  10.558 -0.1060 -1.0861  1.6928
  234MOL0     H30838   4.874   8.410  10.678  1.4285  2.7944 -1.3402
  234MOL0     H30839   4.744   8.613  10.651 -2.4809  1.5023  0.4194
  234MOL0     H30840   4.630   8.471  10.675  2.4681 -2.5697  0.1563
  234MOL0     H30841   4.521   8.371  10.415  0.8749 -0.5935  0.8556
  234MOL0     H30842   4.464   8.418  10.167 -0.7048 -0.4078  1.8732
  234MOL0     H30843   4.486   8.584  10.091 -1.0966 -2.3028 -1.8357
  234MOL0     H30844   4.291   8.648  10.240 -2.1086  0.7563 -1.7851
  234MOL0     H30845   4.276   8.481  10.284 -0.6532 -1.2163  0.1899
  234MOL0     H30846   4.247   8.607  10.000  1.5784 -0.2528 -0.2719
  234MOL0     H30847   4.253   8.436  10.023 -0.2401 -0.8819  1.7140
  234MOL0     H30848   4.059   8.596  10.184 -0.5023  0.3872 -0.1930
  234MOL0     H30849   4.057   8.417  10.160  2.4889 -2.0237 -1.2048
  234MOL0     H30850   3.831   8.477   9.804  1.9954  0.6321  0.3735
  234MOL0     H30851   3.590   8.447   9.821  0.0975  1.0028 -0.3399
  234MOL0     H30852   3.239   8.575  10.344 -0.8021 -0.5716  0.3868
  234MOL0     H30853   2.991   8.556  10.373  0.6925  0.3985  0.2989
  234MOL0     H30854   2.794   8.179  10.265  1.2510 -0.5666 -2.4089
  234MOL0     H30855   2.778   8.256  10.104 -0.0102 -3.0257 -0.0803
  234MOL0     H30856   2.548   8.224  10.178 -2.3604  2.4522  1.1396
  234MOL0     H30857   2.577   8.386  10.245  1.9328  1.5000 -0.0428
  234MOL0     H30858   2.629   8.282  10.466 -0.4372 -2.1447  2.4085
  234MOL0     H30859   2.622   8.118  10.385 -1.4426  0.3556 -0.4842
  234MOL0     H30860   2.386   8.306  10.377  1.0773 -0.4754 -2.9195
  234MOL0     H30861   2.378   8.132  10.364  1.4625  0.5871 -3.0192
  234MOL0     H30862   2.273   8.238  10.567 -0.5466 -1.0991  2.6790
  234MOL0     H30863   2.436   8.306  10.607  0.7431 -0.6193 -0.5749
  234MOL0     H30864   2.367   8.129  10.752 -1.6772  0.3399 -0.4923
  234MOL0     H30865   2.523   8.095  10.676 -0.1799 -1.5792  1.5652
  234MOL0     H30866   2.248   7.990  10.612  0.7166  0.6724  2.1881
  234MOL0     H30867   2.392   7.949  10.509  0.6394  0.3226 -0.8279
  234MOL0     H30868   2.505   7.825  10.697  0.5337 -2.8188 -2.3885
  234MOL0     H30869   2.353   7.753  10.654 -0.9004  1.8513 -1.3232
  234MOL0     H30870   3.001   8.230  10.073  2.8480  0.7545 -2.4351
  234MOL0     H30871   3.238   8.271  10.047 -1.1594  0.7302 -0.0637
  234MOL0     H30872   3.610   8.511  10.246  0.8162 -0.3847  0.2836
  234MOL0     H30873   3.850   8.548  10.230 -0.1067 -1.6452 -0.4625
  234MOL0     H30874   5.715   8.451  10.280  1.9408 -0.6223  0.3898
  234MOL0     H30875   5.956   8.410  10.208  1.3074 -0.9499  1.1488
  234MOL0     H30876   6.262   8.272   9.774  1.0215  0.1055 -0.4266
  234MOL0     H30877   6.503   8.314   9.771 -0.2433  1.0985 -0.6956
  234MOL0     H30878   6.845   8.425  10.064 -0.3820 -3.4253  1.4632
  234MOL0     H30879   6.713   8.417  10.174  1.3619  0.4402  0.6290
  234MOL0     H30880   6.703   8.604   9.950 -2.1531 -0.8633 -0.3376
  234MOL0     H30881   6.593   8.600  10.085 -0.2762  3.0064 -1.3577
  234MOL0     H30882   6.716   8.775  10.119 -0.2204 -0.3142 -2.8377
  234MOL0     H30883   6.868   8.707  10.047  0.9811 -3.8006  0.3034
  234MOL0     H30884   6.747   8.661  10.324 -1.8932  0.9263 -0.4982
  234MOL0     H30885   6.900   8.569  10.271 -2.4142 -1.0173  0.0342
  234MOL0     H30886   7.060   8.957  10.296  0.6557 -0.7210 -2.8411
  234MOL0     H30887   6.510   8.323  10.199  1.3739  0.0602 -0.5666
  234MOL0     H30888   6.297   8.246  10.209  1.9198  1.2823  0.7144
  235MOL0     O30889   4.399   2.548   8.840  0.0211  0.2296  1.0437
  235MOL0     C30890   4.364   2.453   8.766  0.0690  0.5016  0.3487
  235MOL0     O30891   4.253   2.443   8.698  0.4998 -0.2214 -1.2080
  235MOL0     C30892   4.147   2.531   8.710 -0.8014  0.3422 -0.2701
  235MOL0     C30893   4.120   2.604   8.822  0.3143  0.0331 -0.5850
  235MOL0     C30894   4.008   2.675   8.842 -0.8208 -0.6912 -0.1913
  235MOL0     C30895   3.917   2.689   8.733  0.0844 -0.3618  0.5121
  235MOL0     O30896   3.802   2.761   8.730  0.1585 -0.1463 -0.9447
  235MOL0     C30897   3.766   2.841   8.842 -0.5390  0.0528  0.5820
  235MOL0     C30898   3.650   2.934   8.806  0.7287  0.0620 -0.2032
  235MOL0     C30899   3.522   2.859   8.754 -0.6220 -0.5011  0.0687
  235MOL0     C30900   3.406   2.956   8.731 -0.5080  0.3857 -0.2607
  235MOL0     C30901   3.298   2.885   8.642  1.3755  0.5435  0.9629
  235MOL0     C30902   3.241   2.750   8.687  0.1315 -0.2788  0.3932
  235MOL0     C30903   3.163   2.683   8.564  0.5372 -0.0609  0.9348
  235MOL0     C30904   3.059   2.583   8.616 -0.0941  0.1954  0.5381
  235MOL0     N30905   3.018   2.505   8.501  0.0557  0.1212  0.5752
  235MOL0     C30906   2.892   2.512   8.456  0.5262 -0.7309  0.4866
  235MOL0     C30907   2.880   2.445   8.345 -0.2474 -0.0782  0.0482
  235MOL0     C30908   2.758   2.437   8.254 -0.1286  0.2526  1.0906
  235MOL0     C30909   2.778   2.338   8.137 -0.1880  0.2535 -0.5592
  235MOL0     C30910   2.637   2.291   8.082 -0.8132  0.2439  0.8488
  235MOL0     C30911   2.555   2.409   8.012 -0.1448 -0.8365  0.3977
  235MOL0     O30912   2.483   2.484   8.112  0.0726 -0.1272  0.0163
  235MOL0     C30913   2.347   2.458   8.120  0.7208 -0.1469 -0.4637
  235MOL0     C30914   2.262   2.452   8.003 -0.1968  0.4551 -0.1013
  235MOL0     C30915   2.130   2.423   8.025  0.1405 -0.4868 -0.4821
  235MOL0     C30916   2.078   2.405   8.144  0.4883  0.7439 -0.8160
  235MOL0     C30917   1.936   2.367   8.167  0.9725  0.2805 -0.1299
  235MOL0     O30918   1.904   2.289   8.283 -0.1371  0.5502 -0.4114
  235MOL0     C30919   1.777   2.265   8.319  1.0639 -0.1229 -0.5486
  235MOL0     C30920   1.660   2.346   8.291  0.1180  0.8079  0.5518
  235MOL0     C30921   1.534   2.310   8.345 -0.1640 -0.1609  0.6812
  235MOL0     C30922   1.524   2.192   8.424 -0.4305 -0.4262  0.3596
  235MOL0     O30923   1.394   2.158   8.462 -0.8708 -0.1852  0.2124
  235MOL0     C30924   1.378   2.053   8.559  0.6917  0.2040  0.1655
  235MOL0     C30925   1.237   2.077   8.633 -0.5096  0.0889  0.6138
  235MOL0     C30926   1.104   2.052   8.541  0.2799  0.1156 -0.5708
  235MOL0     C30927   0.984   2.011   8.636  0.8385 -0.1605 -0.5930
  235MOL0     C30928   0.841   2.029   8.574 -0.4366  0.6711 -0.1017
  235MOL0     C30929   0.738   2.036   8.680  0.3688  0.2478  0.3799
  235MOL0     C30930   0.595   2.057   8.612  0.3732  0.2670 -0.1482
  235MOL0     C30931   0.519   1.933   8.552 -0.4649  0.2377  0.1972
  235MOL0    Cl30932   0.371   1.978   8.471  0.3132 -0.0795 -0.1774
  235MOL0     C30933   1.639   2.109   8.443 -0.0627 -0.6144 -0.6760
  235MOL0     C30934   1.763   2.154   8.402 -0.2027 -0.1799 -0.1066
  235MOL0     O30935   1.855   2.393   8.076 -0.6006  0.5333  0.0248
  235MOL0     C30936   2.163   2.413   8.258  0.1487 -0.7116  0.4672
  235MOL0     C30937   2.295   2.437   8.247  0.3951  0.0739 -0.2701
  235MOL0     N30938   2.997   2.371   8.344 -0.5343 -0.3459  0.0258
  235MOL0     N30939   3.086   2.412   8.432 -0.2785  0.3986 -0.6863
  235MOL0     C30940   3.941   2.618   8.614  0.1396  1.2077  0.6421
  235MOL0     C30941   4.063   2.544   8.609  0.0711  0.0733  0.2720
  235MOL0     C30942   4.470   2.361   8.725 -0.3103  0.0871  0.7088
  235MOL0     C30943   4.464   2.299   8.596  0.2060  0.4062 -0.3590
  235MOL0     C30944   4.578   2.228   8.548 -0.6289 -0.0609 -0.1950
  235MOL0     C30945   4.694   2.220   8.632 -0.3697  0.7793  0.4376
  235MOL0     O30946   4.814   2.157   8.593  0.5362 -0.0931 -0.0838
  235MOL0     C30947   4.827   2.112   8.458  0.5843 -0.4078  0.1104
  235MOL0     C30948   4.952   2.040   8.434 -0.2157 -0.4515 -0.3516
  235MOL0     C30949   5.059   2.078   8.538 -1.1058  0.9981 -0.3225
  235MOL0     C30950   5.197   2.022   8.500  0.0682 -0.4262  1.0669
  235MOL0     C30951   5.203   1.881   8.512  0.5887  0.0141 -0.4965
  235MOL0     C30952   5.194   1.764   8.541  0.0995 -0.5479 -0.2213
  235MOL0     C30953   4.690   2.277   8.757 -0.7005  0.3974 -0.5676
  235MOL0     C30954   4.588   2.358   8.797 -0.0602  0.1941 -0.3555
  235MOL0     H30955   4.182   2.602   8.911 -0.0928 -1.1678 -0.3025
  235MOL0     H30956   3.999   2.712   8.943  0.1714 -0.1178 -0.3081
  235MOL0     H30957   3.857   2.897   8.866  1.0975 -3.2271  2.8427
  235MOL0     H30958   3.736   2.786   8.932 -0.4791  2.4555  2.1849
  235MOL0     H30959   3.681   3.013   8.738 -4.5459 -0.6641 -4.0985
  235MOL0     H30960   3.616   2.985   8.896 -2.2159 -0.6775 -0.7918
  235MOL0     H30961   3.491   2.787   8.830 -0.0255 -1.0264 -0.1694
  235MOL0     H30962   3.549   2.798   8.667  0.2559 -1.8864  1.2575
  235MOL0     H30963   3.375   2.997   8.827  1.0050 -3.8393  2.2793
  235MOL0     H30964   3.440   3.041   8.671  2.3716 -1.6953 -1.8612
  235MOL0     H30965   3.352   2.854   8.552  1.5329  1.8009  0.6054
  235MOL0     H30966   3.216   2.947   8.606 -0.0951 -0.1758  2.8647
  235MOL0     H30967   3.170   2.777   8.765  1.7009  0.4720  1.6098
  235MOL0     H30968   3.324   2.689   8.724  1.4005  0.7432 -0.6853
  235MOL0     H30969   3.112   2.760   8.506  0.3712  1.7272  3.3009
  235MOL0     H30970   3.240   2.628   8.508 -0.3805  0.2122 -0.6504
  235MOL0     H30971   2.973   2.639   8.654  1.5791  2.7364  0.7710
  235MOL0     H30972   3.105   2.526   8.697  1.9068 -0.8924 -1.2452
  235MOL0     H30973   2.810   2.572   8.494 -0.6519 -1.9343 -0.0933
  235MOL0     H30974   2.734   2.536   8.214  0.4705 -0.7195 -1.9542
  235MOL0     H30975   2.672   2.404   8.313 -1.2135 -1.8829 -1.4546
  235MOL0     H30976   2.838   2.260   8.185  1.9405  3.6145  2.7942
  235MOL0     H30977   2.838   2.380   8.056 -1.8072  0.0923 -1.9086
  235MOL0     H30978   2.664   2.219   8.004 -0.2308  0.8052  0.5110
  235MOL0     H30979   2.582   2.250   8.166 -1.0040  1.7324  1.4862
  235MOL0     H30980   2.492   2.351   7.944 -1.4749 -1.8676  2.4098
  235MOL0     H30981   2.620   2.471   7.949 -1.7809  0.9127  0.3616
  235MOL0     H30982   2.300   2.446   7.901  3.7098 -3.0914  1.2855
  235MOL0     H30983   2.061   2.421   7.941 -1.2638  0.8413  0.5896
  235MOL0     H30984   1.684   2.433   8.230 -1.4135  2.4809  2.1946
  235MOL0     H30985   1.444   2.361   8.311 -0.9946 -1.7374  0.3926
  235MOL0     H30986   1.451   2.044   8.640 -1.4240 -2.2661  1.9768
  235MOL0     H30987   1.388   1.964   8.497  2.3974  1.5024 -1.5340
  235MOL0     H30988   1.231   2.172   8.688  2.3510 -0.2949  1.7480
  235MOL0     H30989   1.250   2.007   8.716  0.5987 -0.6128 -0.1214
  235MOL0     H30990   1.115   1.965   8.476 -0.1780 -0.1991 -0.2317
  235MOL0     H30991   1.087   2.148   8.492  0.0500  0.1320 -0.4615
  235MOL0     H30992   0.988   1.906   8.668  1.5367  0.2355  0.6994
  235MOL0     H30993   0.984   2.065   8.731  3.6028  1.0468 -1.1782
  235MOL0     H30994   0.825   1.943   8.508  1.1467  0.1459  0.1702
  235MOL0     H30995   0.845   2.123   8.518  4.1012 -0.6633 -2.4926
  235MOL0     H30996   0.759   2.120   8.747 -0.3936  0.3672  0.4790
  235MOL0     H30997   0.743   1.944   8.739  2.3977 -0.7991 -1.2995
  235MOL0     H30998   0.537   2.118   8.683  0.4392  1.1114 -0.7990
  235MOL0     H30999   0.611   2.117   8.521  0.6579 -0.8391 -0.8410
  235MOL0     H31000   0.489   1.863   8.631  0.2106 -0.7845 -0.4324
  235MOL0     H31001   0.579   1.892   8.471  1.4296  3.8647 -0.4672
  235MOL0     H31002   1.625   2.020   8.504 -0.5528 -1.1337 -1.5297
  235MOL0     H31003   1.851   2.107   8.444 -0.8735  1.1439  3.0924
  235MOL0     H31004   2.139   2.381   8.359 -0.4307 -2.4641 -0.1841
  235MOL0     H31005   2.354   2.440   8.338  1.4598  3.3246 -0.9363
  235MOL0     H31006   3.872   2.616   8.530  2.2540 -1.3774 -1.1969
  235MOL0     H31007   4.082   2.478   8.525  0.4729  1.8527 -1.0982
  235MOL0     H31008   4.375   2.308   8.534 -1.1740 -0.0018  1.4695
  235MOL0     H31009   4.582   2.195   8.444  0.8102  0.1568 -0.2299
  235MOL0     H31010   4.825   2.201   8.394  3.9773  1.3788  2.2049
  235MOL0     H31011   4.741   2.055   8.421  0.6205 -0.4525  0.0938
  235MOL0     H31012   4.934   1.932   8.430 -0.2751 -0.4516 -0.0391
  235MOL0     H31013   4.986   2.074   8.335 -1.2907 -1.7229 -1.1879
  235MOL0     H31014   5.038   2.043   8.639  0.5337 -0.6622 -0.5026
  235MOL0     H31015   5.073   2.186   8.544  0.5260  0.8800 -1.3137
  235MOL0     H31016   5.230   2.070   8.407 -2.2444  1.0477  0.9439
  235MOL0     H31017   5.275   2.067   8.563  2.4714  0.5503 -2.2872
  235MOL0     H31018   5.171   1.662   8.567 -0.0051  0.4711  4.4499
  235MOL0     H31019   4.776   2.270   8.823 -1.0984  4.9174  0.7955
  235MOL0     H31020   4.593   2.415   8.889 -0.5640 -0.3406  0.0104
  236MOL0     O31021   1.470   5.023  11.018  0.1833  0.0177  0.8894
  236MOL0     C31022   1.525   5.124  11.065 -0.5932  0.3453  0.0078
  236MOL0     O31023   1.495   5.251  11.038 -0.2755 -0.1054 -0.2768
  236MOL0     C31024   1.387   5.283  10.967  0.2633 -0.1385 -0.8328
  236MOL0     C31025   1.394   5.353  10.852 -0.5577 -0.4460 -0.1506
  236MOL0     C31026   1.280   5.381  10.779 -0.7875  0.1117  0.4429
  236MOL0     C31027   1.156   5.348  10.830 -0.0457  0.0130 -0.6299
  236MOL0     O31028   1.036   5.374  10.781 -0.3543  0.7513  0.4192
  236MOL0     C31029   1.016   5.416  10.644 -0.4493  0.7717 -1.0629
  236MOL0     C31030   0.991   5.572  10.663  0.2916  0.6605  0.2099
  236MOL0     C31031   1.026   5.627  10.526 -0.4245 -0.2862  0.0725
  236MOL0     C31032   0.986   5.774  10.514 -0.5225 -0.5457  1.4446
  236MOL0     C31033   1.053   5.838  10.397 -0.3483  0.6508  0.8052
  236MOL0     C31034   1.028   5.987  10.386 -0.7188 -0.7290  0.0119
  236MOL0     C31035   1.093   6.079  10.493 -0.6347  0.4225 -0.3370
  236MOL0     C31036   1.024   6.215  10.478 -0.1896  0.3144 -0.5088
  236MOL0     N31037   1.084   6.313  10.573 -0.4369 -0.1673  0.5664
  236MOL0     C31038   1.021   6.398  10.663  0.2352  0.1010  0.2669
  236MOL0     C31039   1.121   6.462  10.731  0.1100 -0.5806 -0.5477
  236MOL0     C31040   1.128   6.576  10.829 -0.4933 -0.3365 -0.4735
  236MOL0     C31041   1.112   6.718  10.763  0.7833  0.4196  0.1625
  236MOL0     C31042   1.031   6.816  10.843 -0.5888 -0.0093  0.0554
  236MOL0     C31043   0.962   6.918  10.748 -0.5156 -0.0774  0.3199
  236MOL0     O31044   0.891   7.010  10.833 -0.8089  0.2250 -1.0241
  236MOL0     C31045   0.947   7.125  10.877 -0.0844  1.0619  1.1200
  236MOL0     C31046   0.862   7.210  10.956 -0.5314  0.3948  0.0727
  236MOL0     C31047   0.913   7.326  11.008  0.2210 -0.1767 -0.4911
  236MOL0     C31048   1.044   7.369  10.988  0.4198  1.2920  0.4042
  236MOL0     C31049   1.108   7.486  11.054 -0.3550  0.0857  0.2789
  236MOL0     O31050   1.228   7.522  11.016  0.2020 -0.2430  0.5675
  236MOL0     C31051   1.292   7.635  11.074  0.3669  0.7886  0.2717
  236MOL0     C31052   1.432   7.615  11.103 -0.3640  0.4347 -1.0502
  236MOL0     C31053   1.522   7.710  11.154  0.0896  0.4468  1.0006
  236MOL0     C31054   1.456   7.837  11.180  0.3256  0.2137  0.5338
  236MOL0     O31055   1.532   7.943  11.228 -0.4322 -0.1509 -0.2961
  236MOL0     C31056   1.498   7.989  11.357  0.1260  0.6916  0.4194
  236MOL0     C31057   1.540   7.903  11.476  1.4377  0.0307 -0.7870
  236MOL0     C31058   1.496   7.952  11.619 -0.7702 -0.8161 -0.4761
  236MOL0     C31059   1.532   7.848  11.727 -0.4467  0.1901  0.5857
  236MOL0     C31060   1.469   7.887  11.858 -0.3525  1.4427 -1.0298
  236MOL0     C31061   1.501   7.777  11.973 -0.0916  0.1578  0.8189
  236MOL0     C31062   1.640   7.772  12.030 -0.5499 -0.3795  0.7605
  236MOL0     C31063   1.685   7.883  12.125  0.9491  0.1374 -0.4447
  236MOL0    Cl31064   1.857   7.862  12.136 -0.1305  0.2032  0.0457
  236MOL0     C31065   1.315   7.855  11.166 -0.2659 -0.2252  0.3868
  236MOL0     C31066   1.226   7.757  11.111 -0.4444  0.3755  1.5666
  236MOL0     O31067   1.045   7.536  11.147  0.5183 -0.2004  1.2162
  236MOL0     C31068   1.130   7.281  10.917 -0.4905  0.8457  0.6337
  236MOL0     C31069   1.080   7.158  10.860 -0.6720  0.2175 -0.3111
  236MOL0     N31070   1.235   6.402  10.691 -0.1983  1.1198 -0.4663
  236MOL0     N31071   1.216   6.313  10.597 -0.1318  1.1971  0.0122
  236MOL0     C31072   1.147   5.282  10.953  0.5522  0.6700 -0.4075
  236MOL0     C31073   1.262   5.246  11.019 -0.8379 -0.6581  0.6597
  236MOL0     C31074   1.646   5.112  11.142  0.0408  0.3066 -0.8204
  236MOL0     C31075   1.717   5.225  11.174  0.5370  0.4950 -0.4686
  236MOL0     C31076   1.830   5.213  11.264  0.0596 -0.2785  0.0328
  236MOL0     C31077   1.865   5.099  11.322 -0.0937  0.1054  0.4702
  236MOL0     O31078   1.971   5.103  11.419 -0.3942  0.2333 -0.3847
  236MOL0     C31079   1.941   5.064  11.551 -0.7993 -0.1939  0.4074
  236MOL0     C31080   1.920   5.187  11.642  0.1938  0.3852 -1.3227
  236MOL0     C31081   1.771   5.225  11.658 -0.4374 -0.4566 -0.0882
  236MOL0     C31082   1.742   5.363  11.734  0.4135  0.5187  0.4948
  236MOL0     C31083   1.799   5.372  11.868 -0.3611 -0.0411  0.3206
  236MOL0     C31084   1.859   5.382  11.970 -0.6314 -0.5706  0.2747
  236MOL0     C31085   1.799   4.982  11.284 -0.5442  0.5945  1.1741
  236MOL0     C31086   1.697   4.985  11.188 -0.4097 -1.0480  0.9114
  236MOL0     H31087   1.489   5.371  10.802 -0.2121  0.7663  0.8758
  236MOL0     H31088   1.284   5.438  10.687 -1.1308  1.7236  1.3743
  236MOL0     H31089   0.928   5.370  10.597 -0.4920  0.0723 -0.3023
  236MOL0     H31090   1.096   5.381  10.578 -1.9379  1.7315 -3.5263
  236MOL0     H31091   1.053   5.617  10.741 -1.3949  4.9664 -0.6939
  236MOL0     H31092   0.890   5.581  10.704  0.6691  1.1962  1.0655
  236MOL0     H31093   0.964   5.575  10.452  2.0096 -1.1485 -1.4925
  236MOL0     H31094   1.133   5.613  10.509 -0.9330 -1.7446 -2.4239
  236MOL0     H31095   0.878   5.770  10.496 -0.5962  2.2722  0.8967
  236MOL0     H31096   1.008   5.829  10.606 -1.1857  1.2946  0.5504
  236MOL0     H31097   1.009   5.782  10.314 -0.6135 -0.0089  1.3876
  236MOL0     H31098   1.161   5.820  10.404 -0.4656 -0.4823 -0.1722
  236MOL0     H31099   0.920   6.001  10.381 -0.5666  0.9223  0.6571
  236MOL0     H31100   1.072   6.016  10.290  0.4362 -1.6053  0.2451
  236MOL0     H31101   1.080   6.047  10.597  2.4722  2.7792  0.9588
  236MOL0     H31102   1.202   6.078  10.478 -0.8852 -0.4199 -2.3795
  236MOL0     H31103   0.918   6.196  10.495 -0.6837  2.2989 -1.0269
  236MOL0     H31104   1.022   6.254  10.375  2.1126 -0.2807 -0.8551
  236MOL0     H31105   0.913   6.409  10.669 -0.0115 -2.5833  2.2816
  236MOL0     H31106   1.224   6.571  10.880 -0.9008  1.3548  0.5916
  236MOL0     H31107   1.053   6.556  10.907 -2.2721 -2.2257 -2.5333
  236MOL0     H31108   1.058   6.705  10.669 -0.4267  1.4291  0.6865
  236MOL0     H31109   1.212   6.760  10.745  1.1859 -0.4439  0.3123
  236MOL0     H31110   0.962   6.768  10.913 -1.5172  0.8645 -0.2456
  236MOL0     H31111   1.100   6.870  10.909  1.1668  0.9530 -2.3820
  236MOL0     H31112   0.893   6.866  10.680  2.3790 -2.3447 -1.0916
  236MOL0     H31113   1.024   6.976  10.680 -1.4581 -1.8192 -2.1782
  236MOL0     H31114   0.763   7.172  10.980 -1.1244  1.5895 -0.4138
  236MOL0     H31115   0.837   7.387  11.056  1.0110 -0.3978  1.1248
  236MOL0     H31116   1.466   7.513  11.089 -1.4096  0.1444 -1.5604
  236MOL0     H31117   1.625   7.698  11.188  0.6425  2.3117  0.1297
  236MOL0     H31118   1.391   8.009  11.363 -0.2339 -0.9778  0.0209
  236MOL0     H31119   1.544   8.088  11.372 -0.3257  1.2194 -1.4077
  236MOL0     H31120   1.650   7.899  11.472  1.4230 -2.0837 -0.4899
  236MOL0     H31121   1.502   7.801  11.467  0.6012  0.1354  1.1891
  236MOL0     H31122   1.391   7.973  11.641  0.0561  1.0475  2.1747
  236MOL0     H31123   1.547   8.047  11.636  0.1920 -1.4871  0.4918
  236MOL0     H31124   1.513   7.745  11.693  1.4400  0.3998 -1.3464
  236MOL0     H31125   1.641   7.858  11.731 -0.4544  0.5749  0.0249
  236MOL0     H31126   1.362   7.881  11.835 -0.5450 -0.6544  0.1998
  236MOL0     H31127   1.502   7.987  11.889  2.0786  0.0324  1.3223
  236MOL0     H31128   1.473   7.680  11.931  0.7847 -0.5662  1.8592
  236MOL0     H31129   1.433   7.804  12.054 -4.1557  0.8298 -2.4730
  236MOL0     H31130   1.639   7.686  12.098  0.0451  0.2522  1.5928
  236MOL0     H31131   1.718   7.763  11.954 -0.5344 -0.7973  0.8211
  236MOL0     H31132   1.633   7.888  12.221 -2.1105  0.3247 -2.0188
  236MOL0     H31133   1.679   7.985  12.087  3.6611  0.2684 -0.7294
  236MOL0     H31134   1.272   7.951  11.192  1.9175  0.6720  0.9343
  236MOL0     H31135   1.120   7.779  11.107 -0.5577 -0.2413  1.0088
  236MOL0     H31136   1.232   7.314  10.900 -1.0170  1.5830 -1.3280
  236MOL0     H31137   1.155   7.092  10.816  1.9995  2.3013  0.8204
  236MOL0     H31138   1.054   5.255  11.002  0.9657  1.3051  0.7604
  236MOL0     H31139   1.243   5.203  11.117 -2.0288  1.7711  1.5919
  236MOL0     H31140   1.702   5.324  11.132 -2.5641  1.8825  3.3242
  236MOL0     H31141   1.888   5.297  11.298  2.3525 -1.9735  0.5364
  236MOL0     H31142   2.032   5.013  11.583  0.6646  2.0793  0.1177
  236MOL0     H31143   1.858   4.994  11.561 -1.4466  0.5213  0.1053
  236MOL0     H31144   1.970   5.189  11.739  2.2612 -1.0641 -2.2709
  236MOL0     H31145   1.968   5.270  11.589  0.8096  0.7871 -0.1742
  236MOL0     H31146   1.718   5.149  11.715  0.7430 -0.0287  1.6752
  236MOL0     H31147   1.723   5.237  11.560 -0.1027 -3.1793 -0.6556
  236MOL0     H31148   1.772   5.446  11.670  0.3512  1.0624  1.1574
  236MOL0     H31149   1.634   5.381  11.737  0.5014  1.1500 -0.1934
  236MOL0     H31150   1.899   5.395  12.068  0.6943 -0.2570 -0.2810
  236MOL0     H31151   1.821   4.888  11.333 -0.4109  1.3330  2.5639
  236MOL0     H31152   1.646   4.892  11.165  0.5271 -1.4241  0.3022
  237MOL0     O31153  10.664   8.232   2.040  0.3918 -0.1569  0.1206
  237MOL0     C31154  10.712   8.339   1.999  0.4100 -0.1901  0.0265
  237MOL0     O31155  10.642   8.467   1.995 -0.5592  0.2453 -0.2607
  237MOL0     C31156  10.512   8.476   2.042 -0.3015  0.5826  0.1508
  237MOL0     C31157  10.410   8.406   1.972  0.1019 -0.1586 -0.1699
  237MOL0     C31158  10.278   8.415   2.028  0.6685  0.1016  0.0845
  237MOL0     C31159  10.240   8.501   2.139 -0.1909 -0.5169  0.1176
  237MOL0     O31160  10.112   8.508   2.182 -0.1719 -0.2350  0.1468
  237MOL0     C31161  10.062   8.580   2.295 -0.1351 -0.4155 -0.1878
  237MOL0     C31162  10.072   8.485   2.413  0.2918 -0.8598  0.7787
  237MOL0     C31163   9.988   8.351   2.386 -0.5989  0.3028  0.0150
  237MOL0     C31164   9.857   8.327   2.456  0.2950 -0.6664 -0.2314
  237MOL0     C31165   9.746   8.419   2.397 -0.0135 -0.1016 -0.4449
  237MOL0     C31166   9.613   8.406   2.478 -0.3465  0.5671  0.5104
  237MOL0     C31167   9.496   8.487   2.421  0.2046  0.4161 -0.0205
  237MOL0     C31168   9.531   8.635   2.393 -0.6116  0.5710 -1.4638
  237MOL0     N31169   9.410   8.717   2.379 -0.3157  0.2187  0.7199
  237MOL0     C31170   9.350   8.804   2.462  0.8889 -0.4071  0.4389
  237MOL0     C31171   9.237   8.842   2.395 -0.3176  1.0275  0.4403
  237MOL0     C31172   9.126   8.915   2.465 -0.5556 -0.3625 -0.5019
  237MOL0     C31173   9.067   8.831   2.576  0.1128 -0.2492  0.8693
  237MOL0     C31174   9.002   8.701   2.523  0.5319  0.0958  0.1214
  237MOL0     C31175   9.086   8.576   2.502 -0.3135  0.8318  0.6304
  237MOL0     O31176   9.142   8.537   2.623 -0.3621  0.6971  0.5348
  237MOL0     C31177   9.059   8.469   2.716  0.2595 -0.1534  0.5290
  237MOL0     C31178   8.923   8.437   2.703  0.2769  0.0363 -0.2026
  237MOL0     C31179   8.850   8.379   2.812  0.4170  0.4732 -0.2883
  237MOL0     C31180   8.909   8.362   2.937  0.1241  0.7611 -0.6548
  237MOL0     C31181   8.834   8.298   3.041 -0.5934 -0.1981  0.1546
  237MOL0     O31182   8.900   8.268   3.159 -0.2728  0.2789  0.4586
  237MOL0     C31183   8.844   8.212   3.269  0.5201 -0.6066  0.3127
  237MOL0     C31184   8.926   8.203   3.382 -0.4909  0.2435 -0.2064
  237MOL0     C31185   8.884   8.149   3.503 -0.0437 -1.0202 -0.0160
  237MOL0     C31186   8.757   8.099   3.512  0.0782 -0.0922 -0.1215
  237MOL0     O31187   8.721   8.046   3.634  0.2729 -0.1365 -0.0671
  237MOL0     C31188   8.658   7.925   3.628  0.3128  0.1040 -0.0551
  237MOL0     C31189   8.697   7.833   3.743 -0.0041  0.2477  0.2045
  237MOL0     C31190   8.631   7.700   3.728  0.6041 -0.7662 -0.5395
  237MOL0     C31191   8.646   7.614   3.855  0.3991  0.4708  0.7194
  237MOL0     C31192   8.542   7.494   3.830  0.2470 -0.1538 -1.0326
  237MOL0     C31193   8.529   7.425   3.972  0.9576 -0.7158  0.1590
  237MOL0     C31194   8.435   7.302   3.985  0.2569  1.5127 -0.0173
  237MOL0     C31195   8.466   7.244   4.124  0.8878  0.6066 -0.5055
  237MOL0    Cl31196   8.419   7.355   4.243  0.2302 -0.0415 -0.5361
  237MOL0     C31197   8.672   8.117   3.404  0.7245  0.4748 -0.5985
  237MOL0     C31198   8.716   8.179   3.288  0.4508 -0.2350 -0.0075
  237MOL0     O31199   8.718   8.275   3.021 -0.2553  0.2554 -0.2443
  237MOL0     C31200   9.045   8.388   2.948  1.1033 -0.0524  0.1085
  237MOL0     C31201   9.114   8.443   2.838  0.6883  0.6419  0.4835
  237MOL0     N31202   9.232   8.777   2.273  0.0173  0.3458  0.5130
  237MOL0     N31203   9.344   8.714   2.260  0.3126 -0.5783  0.3366
  237MOL0     C31204  10.348   8.568   2.201 -0.4470 -0.0646  0.3990
  237MOL0     C31205  10.479   8.554   2.150  0.0731  0.3155 -0.1846
  237MOL0     C31206  10.836   8.328   1.929  0.0904 -0.1210  0.8887
  237MOL0     C31207  10.914   8.214   1.953 -0.7454 -0.3702  0.8597
  237MOL0     C31208  11.029   8.198   1.879  0.4803  0.6158  1.1356
  237MOL0     C31209  11.070   8.291   1.775 -0.2275  0.0498 -0.6448
  237MOL0     O31210  11.168   8.278   1.684 -0.3601 -0.5053  0.0194
  237MOL0     C31211  11.260   8.170   1.704 -0.1920  0.8858 -0.4769
  237MOL0     C31212  11.361   8.213   1.813 -0.3496 -0.7068 -0.3832
  237MOL0     C31213  11.443   8.101   1.883 -0.4153  0.1614  0.2615
  237MOL0     C31214  11.350   8.020   1.980 -0.2202  0.0674 -0.4268
  237MOL0     C31215  11.295   8.101   2.097  0.2069  0.2872  0.1783
  237MOL0     C31216  11.232   8.156   2.178  0.1453 -0.2059 -0.0026
  237MOL0     C31217  10.991   8.402   1.762 -0.8737  0.3165 -0.4490
  237MOL0     C31218  10.880   8.425   1.837 -0.3791  0.2287 -0.2038
  237MOL0     H31219  10.432   8.367   1.873 -0.6105  2.7414 -1.5922
  237MOL0     H31220  10.192   8.379   1.971  1.3441 -1.8843  0.2609
  237MOL0     H31221   9.961   8.621   2.286  0.0439 -0.0071 -0.3338
  237MOL0     H31222  10.123   8.666   2.324  0.4981  0.0554 -2.7211
  237MOL0     H31223  10.041   8.530   2.508  1.2940  2.3154 -0.2714
  237MOL0     H31224  10.179   8.462   2.418  1.1670  2.7749  1.8554
  237MOL0     H31225  10.045   8.265   2.423 -3.0423 -1.5514 -0.2919
  237MOL0     H31226   9.975   8.350   2.277  1.8421  1.1501 -0.3474
  237MOL0     H31227   9.823   8.225   2.435 -2.8843  0.5112 -1.4625
  237MOL0     H31228   9.863   8.342   2.564 -1.7703 -2.2303  0.1663
  237MOL0     H31229   9.732   8.399   2.291  1.7245  3.2327 -1.4601
  237MOL0     H31230   9.778   8.522   2.414 -0.5485 -0.0348  0.2099
  237MOL0     H31231   9.628   8.442   2.581  0.6181  2.7529 -0.3452
  237MOL0     H31232   9.580   8.301   2.480  0.5499  0.2623 -0.0820
  237MOL0     H31233   9.475   8.437   2.325  1.9247  0.0952 -0.2642
  237MOL0     H31234   9.411   8.485   2.490 -0.1621 -1.2629 -0.4544
  237MOL0     H31235   9.599   8.643   2.308  2.1287 -0.8028  0.4674
  237MOL0     H31236   9.575   8.684   2.481  0.9737  0.8922 -2.3993
  237MOL0     H31237   9.387   8.836   2.559  0.1237  0.7118  0.3804
  237MOL0     H31238   9.045   8.937   2.395 -2.3442 -0.8109  1.3064
  237MOL0     H31239   9.170   9.006   2.507 -1.4155  0.3885 -1.1836
  237MOL0     H31240   8.984   8.889   2.618 -0.8884 -0.4948 -0.6829
  237MOL0     H31241   9.148   8.811   2.647  0.7492 -0.5137  0.0903
  237MOL0     H31242   8.922   8.666   2.589  0.0977 -3.5224 -2.0580
  237MOL0     H31243   8.951   8.732   2.431 -0.6309  0.3758  0.8390
  237MOL0     H31244   9.157   8.603   2.423 -0.9501  1.8199  0.3725
  237MOL0     H31245   9.026   8.495   2.460 -0.0211  0.9519 -0.0296
  237MOL0     H31246   8.863   8.446   2.613  1.2946  0.2234 -0.8721
  237MOL0     H31247   8.745   8.357   2.793  0.6578  0.2899 -1.5204
  237MOL0     H31248   9.030   8.230   3.374  0.9503 -1.8958  5.7349
  237MOL0     H31249   8.953   8.155   3.586 -0.9922  1.1128  0.6910
  237MOL0     H31250   8.675   7.873   3.534  1.8293 -0.8071  0.6837
  237MOL0     H31251   8.553   7.948   3.650  1.3180  3.0716  2.3788
  237MOL0     H31252   8.663   7.879   3.836 -1.3423  3.6088 -1.7541
  237MOL0     H31253   8.806   7.824   3.738 -0.0942 -0.0987 -2.0593
  237MOL0     H31254   8.673   7.649   3.641  0.7787  0.5454 -1.2493
  237MOL0     H31255   8.522   7.709   3.720 -0.2813 -2.1423  5.2624
  237MOL0     H31256   8.749   7.577   3.845  0.0165  0.0636 -3.0769
  237MOL0     H31257   8.629   7.665   3.951  1.4333  2.3892 -0.0495
  237MOL0     H31258   8.571   7.418   3.757  1.7296 -1.6573  0.9983
  237MOL0     H31259   8.442   7.535   3.813 -1.6028 -3.8170 -0.1391
  237MOL0     H31260   8.495   7.498   4.047  1.0975  1.3299 -1.6497
  237MOL0     H31261   8.623   7.384   4.011 -0.0090  1.2580  5.3536
  237MOL0     H31262   8.336   7.347   3.999 -0.9777 -1.2302  0.8864
  237MOL0     H31263   8.436   7.224   3.908 -1.0045 -0.5418  1.8932
  237MOL0     H31264   8.568   7.216   4.150  0.3425 -0.0141  1.0829
  237MOL0     H31265   8.406   7.156   4.148  0.6627  1.3572  1.8848
  237MOL0     H31266   8.564   8.110   3.416  0.5433 -0.5633 -2.4336
  237MOL0     H31267   8.631   8.196   3.222 -0.0498  0.1240  0.7140
  237MOL0     H31268   9.100   8.385   3.042 -0.0959  3.6088  1.0885
  237MOL0     H31269   9.221   8.441   2.857  0.6175 -2.1526  1.1116
  237MOL0     H31270  10.330   8.629   2.288 -3.0999 -1.3502  0.8364
  237MOL0     H31271  10.560   8.601   2.206 -0.1548  0.9413 -0.3745
  237MOL0     H31272  10.891   8.129   2.016  0.7992 -1.3980  0.0776
  237MOL0     H31273  11.077   8.101   1.882 -1.9161 -0.8047 -1.5761
  237MOL0     H31274  11.318   8.153   1.614  1.2173  1.2887  0.3215
  237MOL0     H31275  11.198   8.082   1.720 -0.3330  0.9128 -0.8908
  237MOL0     H31276  11.429   8.290   1.774  1.1368 -0.7402  1.9210
  237MOL0     H31277  11.306   8.263   1.893 -0.0041 -4.5439  2.5424
  237MOL0     H31278  11.542   8.129   1.920  0.5390 -1.3613 -0.9984
  237MOL0     H31279  11.462   8.031   1.801  1.1991 -2.5855  2.7664
  237MOL0     H31280  11.263   7.983   1.925 -1.5862  0.3117  1.4927
  237MOL0     H31281  11.405   7.931   2.010  0.8156 -0.2121 -2.8641
  237MOL0     H31282  11.178   8.210   2.253  0.5106 -0.1276  0.2047
  237MOL0     H31283  11.025   8.474   1.688 -2.6799  3.8856  1.9165
  237MOL0     H31284  10.831   8.521   1.828 -2.7773 -0.8409  0.6993
  238MOL0     O31285   0.385   5.729   0.824  0.0395  0.1416 -0.3433
  238MOL0     C31286   0.433   5.816   0.748 -0.0423 -0.1515  1.4423
  238MOL0     O31287   0.372   5.869   0.639 -0.4470 -0.2714  0.0102
  238MOL0     C31288   0.239   5.856   0.631 -0.0146  0.3287  0.0469
  238MOL0     C31289   0.167   5.740   0.632  0.2735 -0.1708 -0.3750
  238MOL0     C31290   0.028   5.739   0.627  0.0957 -0.7116 -0.5086
  238MOL0     C31291  -0.042   5.855   0.614  0.4636 -0.0397  0.1617
  238MOL0     O31292  -0.182   5.861   0.606  0.0485  0.6381  0.4671
  238MOL0     C31293  -0.254   5.728   0.609 -0.0535 -1.1376  0.4651
  238MOL0     C31294  -0.407   5.752   0.608 -0.1633 -0.3467 -0.6723
  238MOL0     C31295  -0.475   5.749   0.476 -0.2568  0.5417 -0.3685
  238MOL0     C31296  -0.628   5.714   0.495 -1.2189  0.6193 -0.5259
  238MOL0     C31297  -0.698   5.833   0.565 -0.4405  0.1440  0.4546
  238MOL0     C31298  -0.842   5.844   0.511  0.2308  0.0623  0.4568
  238MOL0     C31299  -0.948   5.743   0.558 -0.0120 -0.0944  0.4830
  238MOL0     C31300  -0.936   5.706   0.707 -0.4242 -0.2645  0.2933
  238MOL0     N31301  -1.048   5.631   0.751 -0.6972 -0.1869 -0.4671
  238MOL0     C31302  -1.057   5.588   0.882 -0.6212  0.2247  1.0919
  238MOL0     C31303  -1.187   5.550   0.896 -0.5033  0.3127  0.5510
  238MOL0     C31304  -1.261   5.490   1.014 -0.9214  0.3992 -0.4699
  238MOL0     C31305  -1.420   5.476   0.999 -0.6005 -0.3175  0.7950
  238MOL0     C31306  -1.490   5.484   1.128 -0.2514 -0.2852 -0.2103
  238MOL0     C31307  -1.474   5.612   1.217 -0.2607  0.4082  0.5362
  238MOL0     O31308  -1.597   5.622   1.286 -0.6527 -0.4870  0.0922
  238MOL0     C31309  -1.597   5.702   1.403 -0.0425  0.1630  1.2270
  238MOL0     C31310  -1.700   5.680   1.490  0.7139 -0.2657 -0.4329
  238MOL0     C31311  -1.706   5.754   1.610 -0.3658  0.0835  0.0852
  238MOL0     C31312  -1.606   5.846   1.643 -1.2755  0.6689  0.7779
  238MOL0     C31313  -1.605   5.926   1.769 -0.1092 -0.4508  0.5843
  238MOL0     O31314  -1.731   5.932   1.836  0.3856  0.2873  0.3041
  238MOL0     C31315  -1.741   6.019   1.940  0.2531 -0.1225 -0.2902
  238MOL0     C31316  -1.749   5.973   2.069  0.1548  0.4505 -0.3178
  238MOL0     C31317  -1.758   6.063   2.173 -0.2452 -0.3461  0.4703
  238MOL0     C31318  -1.765   6.207   2.158 -0.0892  0.6607  0.0855
  238MOL0     O31319  -1.781   6.300   2.257 -0.0576 -0.0776  0.0046
  238MOL0     C31320  -1.857   6.287   2.369 -0.1569 -0.0239 -0.3766
  238MOL0     C31321  -1.850   6.398   2.469  0.3628  0.9707  0.6907
  238MOL0     C31322  -1.709   6.426   2.522 -0.1257 -0.3670 -0.4419
  238MOL0     C31323  -1.656   6.316   2.602 -0.3609 -1.2963 -0.0868
  238MOL0     C31324  -1.540   6.360   2.695  0.1624  0.3349  0.6915
  238MOL0     C31325  -1.434   6.435   2.611 -0.1584 -0.0726  0.6800
  238MOL0     C31326  -1.363   6.368   2.495 -0.1400 -0.3389  0.0796
  238MOL0     C31327  -1.280   6.467   2.414  0.2309 -0.0162 -0.3511
  238MOL0    Cl31328  -1.157   6.523   2.537 -0.3321 -0.3457  0.3442
  238MOL0     C31329  -1.756   6.255   2.025  0.2535 -0.6626  0.0849
  238MOL0     C31330  -1.745   6.164   1.922 -0.4167  0.0027  0.7600
  238MOL0     O31331  -1.498   5.983   1.802 -0.0278 -0.0402 -1.0666
  238MOL0     C31332  -1.500   5.866   1.547  0.3222  0.4312 -0.3335
  238MOL0     C31333  -1.496   5.796   1.431 -0.6428 -0.0052  0.6630
  238MOL0     N31334  -1.249   5.562   0.778  0.1974 -0.8465  0.2509
  238MOL0     N31335  -1.167   5.602   0.684  0.4742 -0.1381  0.1188
  238MOL0     C31336   0.027   5.979   0.608 -0.7047 -0.6129  0.6000
  238MOL0     C31337   0.167   5.969   0.616  0.0427  0.0455 -0.5655
  238MOL0     C31338   0.577   5.846   0.760  0.3896 -0.2553  0.2398
  238MOL0     C31339   0.635   5.865   0.892  0.0771 -0.1484  0.0504
  238MOL0     C31340   0.766   5.906   0.917 -0.4033 -0.2873 -0.1536
  238MOL0     C31341   0.842   5.944   0.809  0.0803  0.4885  0.6518
  238MOL0     O31342   0.964   5.993   0.832  0.2837  0.1595 -0.3502
  238MOL0     C31343   1.060   5.995   0.722  0.5774  0.8252 -0.1180
  238MOL0     C31344   1.202   6.023   0.775 -0.0567  0.9214 -0.4626
  238MOL0     C31345   1.214   6.155   0.852 -0.3967  1.1122  0.3736
  238MOL0     C31346   1.360   6.175   0.897  0.3723  0.1247 -0.3235
  238MOL0     C31347   1.452   6.174   0.784 -0.3749 -0.6156 -0.3948
  238MOL0     C31348   1.536   6.175   0.695 -0.0878  0.0513 -0.1357
  238MOL0     C31349   0.792   5.931   0.678 -0.5528 -0.2405 -0.0201
  238MOL0     C31350   0.663   5.880   0.655 -0.2543  0.0492  0.0676
  238MOL0     H31351   0.222   5.648   0.651 -0.5764 -0.3436  1.4707
  238MOL0     H31352  -0.020   5.642   0.639  0.4438 -0.8165  0.0849
  238MOL0     H31353  -0.231   5.692   0.709  2.0580 -1.7159 -0.1752
  238MOL0     H31354  -0.235   5.659   0.527 -1.0834 -0.0624 -0.7287
  238MOL0     H31355  -0.421   5.842   0.667 -0.1369 -1.1051  0.5282
  238MOL0     H31356  -0.450   5.672   0.669  0.6256  0.4733  1.0130
  238MOL0     H31357  -0.427   5.672   0.415  1.3235 -0.2944  1.7977
  238MOL0     H31358  -0.476   5.845   0.423  2.2277  0.9929  0.2856
  238MOL0     H31359  -0.667   5.687   0.396 -0.1905 -1.5697 -0.3954
  238MOL0     H31360  -0.653   5.624   0.552 -1.7224  2.0246  1.5643
  238MOL0     H31361  -0.646   5.926   0.543 -2.1557  0.7605 -1.3735
  238MOL0     H31362  -0.697   5.810   0.672  1.4876 -1.7779  0.0917
  238MOL0     H31363  -0.843   5.842   0.402 -1.7771 -1.3035  0.4523
  238MOL0     H31364  -0.867   5.947   0.540  1.6609 -0.3838  3.6556
  238MOL0     H31365  -1.051   5.777   0.544  0.2177  0.2460 -0.4550
  238MOL0     H31366  -0.923   5.650   0.505 -0.4840  0.0810 -0.0617
  238MOL0     H31367  -0.917   5.797   0.766  0.4226  0.8015 -1.5308
  238MOL0     H31368  -0.847   5.645   0.726  0.2531  1.1970  2.0794
  238MOL0     H31369  -0.982   5.592   0.961  1.5791  0.3181 -0.9222
  238MOL0     H31370  -1.246   5.559   1.098  0.2550 -0.3059 -0.0778
  238MOL0     H31371  -1.220   5.395   1.048  0.3718  1.2802  0.5269
  238MOL0     H31372  -1.446   5.386   0.943  3.9459 -1.5274  0.1893
  238MOL0     H31373  -1.457   5.563   0.945  1.9296  0.6963  0.5330
  238MOL0     H31374  -1.599   5.478   1.121 -0.2653 -4.3341  1.1361
  238MOL0     H31375  -1.461   5.397   1.188  1.0966 -0.1633 -0.6581
  238MOL0     H31376  -1.458   5.699   1.153  0.2994 -0.3698 -0.4202
  238MOL0     H31377  -1.383   5.597   1.276 -0.0262 -0.6307 -0.0503
  238MOL0     H31378  -1.783   5.611   1.476 -0.9040  0.6528  3.3760
  238MOL0     H31379  -1.794   5.748   1.674  0.9312 -1.1644  1.8403
  238MOL0     H31380  -1.760   5.866   2.080 -0.3217  0.6145  0.9450
  238MOL0     H31381  -1.774   6.021   2.272 -1.7062  0.5476  0.6443
  238MOL0     H31382  -1.838   6.194   2.423  1.6980 -0.0124 -0.9363
  238MOL0     H31383  -1.958   6.292   2.328 -0.2458  0.3357 -0.1157
  238MOL0     H31384  -1.931   6.390   2.542 -0.9972 -1.4223 -0.9290
  238MOL0     H31385  -1.888   6.487   2.418 -2.1941 -0.7240 -0.5478
  238MOL0     H31386  -1.708   6.515   2.585  0.8365  0.9404 -2.2099
  238MOL0     H31387  -1.642   6.455   2.441  0.8043  0.7127  0.6788
  238MOL0     H31388  -1.740   6.277   2.661 -0.1499 -1.6239  0.0031
  238MOL0     H31389  -1.622   6.241   2.529  1.6849  0.6338 -1.2437
  238MOL0     H31390  -1.500   6.272   2.747  3.0908  0.2710 -1.4448
  238MOL0     H31391  -1.569   6.425   2.779  1.3242 -1.0283  2.2197
  238MOL0     H31392  -1.368   6.464   2.694 -1.8571  0.6435  1.8447
  238MOL0     H31393  -1.475   6.529   2.575  1.0637 -0.2671 -1.3914
  238MOL0     H31394  -1.295   6.290   2.529  2.7419  1.6705 -0.7222
  238MOL0     H31395  -1.443   6.334   2.428 -2.0298  0.9266  1.5604
  238MOL0     H31396  -1.348   6.536   2.365 -0.1497  0.3821  0.6986
  238MOL0     H31397  -1.226   6.408   2.339 -1.7336 -0.9551 -1.0829
  238MOL0     H31398  -1.755   6.357   1.989 -0.0778 -1.5471 -2.7750
  238MOL0     H31399  -1.749   6.208   1.822 -0.2344 -1.1107  0.2482
  238MOL0     H31400  -1.424   5.943   1.551  1.0634 -0.3053 -0.0297
  238MOL0     H31401  -1.429   5.814   1.348 -2.7652  0.5915 -1.0100
  238MOL0     H31402  -0.037   6.063   0.584  0.7556  0.8179  1.4139
  238MOL0     H31403   0.213   6.067   0.606 -0.8704  0.8778  2.2922
  238MOL0     H31404   0.566   5.848   0.974 -0.1309  1.0743  0.1501
  238MOL0     H31405   0.804   5.923   1.017 -2.3996  1.8355  0.3549
  238MOL0     H31406   1.042   6.071   0.646 -1.0440  1.7223  1.0839
  238MOL0     H31407   1.064   5.893   0.683  2.0135 -0.0080  1.9792
  238MOL0     H31408   1.235   5.935   0.832 -0.9409 -0.9669 -2.6984
  238MOL0     H31409   1.265   6.030   0.686  0.2104  1.1334 -0.2584
  238MOL0     H31410   1.153   6.150   0.942 -1.5030 -1.2337 -0.4388
  238MOL0     H31411   1.181   6.235   0.785 -2.7692  0.4023  0.5970
  238MOL0     H31412   1.383   6.267   0.952  1.0956 -0.2098 -0.0505
  238MOL0     H31413   1.379   6.091   0.964  2.7569 -0.4471 -1.5814
  238MOL0     H31414   1.593   6.171   0.605  0.8331  0.5881  0.4112
  238MOL0     H31415   0.856   5.966   0.598 -1.4876  1.5324 -0.0304
  238MOL0     H31416   0.630   5.876   0.552 -1.5201 -0.8438  0.4815
  239MOL0     O31417   4.378   3.707   5.515 -0.2389 -0.5472  1.0850
  239MOL0     C31418   4.455   3.807   5.515  0.5826 -0.6706 -0.0427
  239MOL0     O31419   4.424   3.934   5.473  0.0097  0.4678 -0.5902
  239MOL0     C31420   4.302   3.960   5.417 -0.9516  0.0068  0.5807
  239MOL0     C31421   4.277   3.896   5.289 -0.1526 -0.6112 -0.4136
  239MOL0     C31422   4.161   3.931   5.219 -0.7595  0.1105 -0.7515
  239MOL0     C31423   4.065   4.015   5.276  0.3944  0.5300  0.0117
  239MOL0     O31424   3.956   4.049   5.203  1.0173 -0.4388 -0.4095
  239MOL0     C31425   3.897   4.185   5.210 -0.6462 -0.0646  0.7502
  239MOL0     C31426   3.760   4.193   5.140  0.0423  1.0253  1.3003
  239MOL0     C31427   3.672   4.090   5.207 -0.8990  0.6105 -0.6383
  239MOL0     C31428   3.522   4.129   5.195  0.0515  0.0050 -0.4887
  239MOL0     C31429   3.425   4.024   5.235  0.4419 -0.3346 -0.1645
  239MOL0     C31430   3.286   4.090   5.244 -0.9970  0.1445  0.2153
  239MOL0     C31431   3.181   3.996   5.292 -0.1236  0.7292  0.2426
  239MOL0     C31432   3.044   4.025   5.244  0.1158  0.1078 -0.3268
  239MOL0     N31433   2.941   3.926   5.302 -0.2890 -0.4400 -0.0462
  239MOL0     C31434   2.842   3.874   5.222  0.3824  0.2170 -0.8685
  239MOL0     C31435   2.774   3.800   5.320 -0.3727 -0.2553  0.2003
  239MOL0     C31436   2.674   3.703   5.278 -0.3913  0.3227  0.1161
  239MOL0     C31437   2.534   3.753   5.330  0.2624  0.5158  0.4597
  239MOL0     C31438   2.482   3.876   5.247 -0.1421 -0.8318 -0.4495
  239MOL0     C31439   2.341   3.921   5.302  0.7956  0.6207 -0.5470
  239MOL0     O31440   2.337   3.936   5.450 -0.3261  0.1904  0.0071
  239MOL0     C31441   2.222   3.993   5.501  0.6502  0.6727 -0.1923
  239MOL0     C31442   2.231   4.020   5.641  0.1436  0.4049  0.2879
  239MOL0     C31443   2.108   4.057   5.708  0.4083 -0.4061  0.8043
  239MOL0     C31444   1.986   4.083   5.631 -0.7860 -0.0687  0.2344
  239MOL0     C31445   1.866   4.134   5.696 -0.3605  0.6077 -0.5138
  239MOL0     O31446   1.746   4.089   5.649  0.3778  0.1697  0.2755
  239MOL0     C31447   1.634   4.133   5.721  0.2628 -0.0222  0.4438
  239MOL0     C31448   1.573   4.259   5.689  0.6993  0.3590  0.3145
  239MOL0     C31449   1.454   4.297   5.760 -0.5304  0.5556  0.5307
  239MOL0     C31450   1.409   4.226   5.870  0.4125  0.5352 -0.1324
  239MOL0     O31451   1.288   4.275   5.923  0.0430 -0.4720  0.3073
  239MOL0     C31452   1.259   4.244   6.050 -1.3502  0.0981 -0.6738
  239MOL0     C31453   1.127   4.309   6.085 -0.2065 -0.3325 -0.5008
  239MOL0     C31454   1.108   4.309   6.237  0.3191  1.3887  0.0934
  239MOL0     C31455   0.967   4.367   6.274 -0.0212 -0.4448 -1.3988
  239MOL0     C31456   0.956   4.387   6.421 -0.1794 -0.6181 -0.7239
  239MOL0     C31457   0.929   4.254   6.499 -0.4231 -0.3634 -0.1889
  239MOL0     C31458   0.875   4.292   6.642 -0.7861 -0.0126  0.3884
  239MOL0     C31459   0.855   4.172   6.733 -1.5416 -0.3279 -0.2298
  239MOL0    Cl31460   1.007   4.074   6.753 -0.1343 -0.3222  0.3506
  239MOL0     C31461   1.480   4.112   5.915 -0.4519 -0.4291  0.0910
  239MOL0     C31462   1.588   4.065   5.839  0.4733  0.0540  0.3476
  239MOL0     O31463   1.883   4.220   5.781 -0.1480  0.1145 -0.1386
  239MOL0     C31464   1.985   4.069   5.488  0.5357  1.0040 -0.1406
  239MOL0     C31465   2.103   4.023   5.433 -0.3461  0.1668 -0.6161
  239MOL0     N31466   2.827   3.813   5.445 -0.1716  0.3212  0.4376
  239MOL0     N31467   2.926   3.894   5.431 -0.8283  0.9246  0.1011
  239MOL0     C31468   4.085   4.071   5.400 -0.5982  0.0407  0.0935
  239MOL0     C31469   4.203   4.043   5.476 -0.6626 -0.9502  0.4353
  239MOL0     C31470   4.601   3.799   5.560 -0.2951 -0.4847  0.1531
  239MOL0     C31471   4.619   3.704   5.665  0.1881  0.8225 -0.0870
  239MOL0     C31472   4.742   3.695   5.732 -0.0879 -0.2185  0.4312
  239MOL0     C31473   4.851   3.785   5.696  0.4725 -0.1295 -0.0022
  239MOL0     O31474   4.980   3.779   5.758 -0.1509 -0.0403 -0.1651
  239MOL0     C31475   4.991   3.683   5.871  0.4353  0.3604 -0.4197
  239MOL0     C31476   5.132   3.676   5.932 -0.1007 -0.0240 -0.0360
  239MOL0     C31477   5.238   3.588   5.850  0.1354 -1.3003 -0.4993
  239MOL0     C31478   5.375   3.622   5.898 -0.5864  0.4198 -1.2043
  239MOL0     C31479   5.413   3.572   6.035  0.2874  0.3591  0.2720
  239MOL0     C31480   5.442   3.529   6.147 -0.7169 -0.3477  0.6694
  239MOL0     C31481   4.827   3.884   5.593  0.1955  0.1263 -1.0120
  239MOL0     C31482   4.704   3.881   5.519  0.6493 -0.6297  0.0283
  239MOL0     H31483   4.343   3.822   5.244 -0.7077 -0.2199 -1.9316
  239MOL0     H31484   4.135   3.882   5.126 -0.9767  0.9819 -1.1661
  239MOL0     H31485   3.969   4.254   5.164 -0.2327 -0.7523  0.3559
  239MOL0     H31486   3.871   4.221   5.310 -5.6202  0.9255 -0.6000
  239MOL0     H31487   3.777   4.176   5.034 -1.0473 -1.5325  1.4498
  239MOL0     H31488   3.722   4.294   5.154 -0.1555  0.8249  2.3477
  239MOL0     H31489   3.703   4.087   5.312 -1.2627  3.4890 -0.3496
  239MOL0     H31490   3.685   3.992   5.161 -1.1164  0.5581 -0.5857
  239MOL0     H31491   3.509   4.221   5.252  0.2203  1.0683 -2.1022
  239MOL0     H31492   3.487   4.164   5.097  0.7916  0.5633 -0.5542
  239MOL0     H31493   3.464   3.978   5.326  1.6154  0.0558 -0.4495
  239MOL0     H31494   3.422   3.951   5.154  1.3646 -1.3138  0.6544
  239MOL0     H31495   3.260   4.124   5.143  0.0414  0.6418  0.0935
  239MOL0     H31496   3.282   4.182   5.303 -1.7548 -0.4267  1.0827
  239MOL0     H31497   3.200   3.893   5.260 -1.9486  0.1208  1.0253
  239MOL0     H31498   3.194   3.997   5.401 -1.2031  1.6813  0.3790
  239MOL0     H31499   3.041   4.025   5.135  0.5995  0.6263 -0.3440
  239MOL0     H31500   3.032   4.127   5.280  1.2937 -0.0475  0.5741
  239MOL0     H31501   2.826   3.875   5.115  1.1777 -0.1914 -0.9992
  239MOL0     H31502   2.711   3.607   5.317 -1.3633 -0.2131 -0.2656
  239MOL0     H31503   2.668   3.697   5.169 -1.9387  3.2756 -0.0579
  239MOL0     H31504   2.529   3.786   5.434  1.4682  1.2635  0.2952
  239MOL0     H31505   2.460   3.674   5.315  1.6915 -0.5908 -1.1445
  239MOL0     H31506   2.550   3.956   5.281 -0.4464 -0.8779  0.2936
  239MOL0     H31507   2.474   3.857   5.140  0.6887  1.6154 -1.0174
  239MOL0     H31508   2.267   3.845   5.275  0.6442  0.4766  0.2537
  239MOL0     H31509   2.306   4.011   5.251 -0.2692  1.9470  2.2829
  239MOL0     H31510   2.327   4.004   5.689  0.1827  1.9151  0.7623
  239MOL0     H31511   2.115   4.079   5.814 -0.4266 -0.0886  0.7967
  239MOL0     H31512   1.622   4.322   5.615 -0.0989 -0.7433 -1.2189
  239MOL0     H31513   1.388   4.378   5.727 -1.1338 -0.1554 -0.0514
  239MOL0     H31514   1.341   4.274   6.117 -0.9858 -1.7861 -0.2114
  239MOL0     H31515   1.252   4.136   6.071  3.5083 -0.0884  1.4775
  239MOL0     H31516   1.051   4.254   6.028 -1.0734  0.0271  0.2841
  239MOL0     H31517   1.128   4.412   6.049 -1.1221 -0.2178 -0.2392
  239MOL0     H31518   1.199   4.347   6.285  1.9185 -4.1596  2.2485
  239MOL0     H31519   1.114   4.204   6.269 -0.3525  0.4506 -2.6029
  239MOL0     H31520   0.967   4.466   6.227  2.4266  0.3957  0.1714
  239MOL0     H31521   0.882   4.318   6.226 -0.9039  0.0448 -0.3614
  239MOL0     H31522   0.880   4.460   6.451  0.0846  0.2931 -2.1572
  239MOL0     H31523   1.049   4.430   6.458 -0.1954 -2.4344  1.7004
  239MOL0     H31524   1.018   4.190   6.501  1.1462  1.7340  0.5682
  239MOL0     H31525   0.853   4.199   6.442  1.0349 -1.2531 -1.3349
  239MOL0     H31526   0.944   4.360   6.692  1.2731 -0.6069 -1.5103
  239MOL0     H31527   0.777   4.341   6.631  0.5624  2.9051  0.3794
  239MOL0     H31528   0.765   4.119   6.701 -3.9752  2.8061  0.9122
  239MOL0     H31529   0.835   4.212   6.833 -3.9537  5.4419 -2.5814
  239MOL0     H31530   1.438   4.044   5.990 -0.8357 -0.5172 -0.2032
  239MOL0     H31531   1.629   3.976   5.884 -0.6235 -0.0240  1.2448
  239MOL0     H31532   1.900   4.089   5.424  0.1663 -0.2736 -0.0772
  239MOL0     H31533   2.090   3.998   5.328 -1.2379 -0.2420 -0.4147
  239MOL0     H31534   3.998   4.123   5.436 -1.7033 -1.8440  0.2781
  239MOL0     H31535   4.207   4.096   5.571 -1.8174 -0.0864  0.0282
  239MOL0     H31536   4.538   3.638   5.693 -1.0433  2.1533 -0.4214
  239MOL0     H31537   4.737   3.623   5.813  0.5212 -0.5050  0.2214
  239MOL0     H31538   4.952   3.585   5.845 -0.9250  1.2134 -1.7022
  239MOL0     H31539   4.932   3.731   5.950  0.0442 -1.0162  0.1641
  239MOL0     H31540   5.172   3.777   5.946 -0.9789 -0.1218  4.3724
  239MOL0     H31541   5.112   3.638   6.032 -2.5866  1.8106  0.2668
  239MOL0     H31542   5.232   3.620   5.746 -0.1391  0.8952  0.1433
  239MOL0     H31543   5.215   3.482   5.859 -3.1595 -0.7379 -1.0732
  239MOL0     H31544   5.436   3.563   5.829 -1.3333 -1.6852 -0.1653
  239MOL0     H31545   5.399   3.729   5.896 -0.7190  0.4639 -0.6059
  239MOL0     H31546   5.462   3.482   6.241  0.6279  2.1931  1.7340
  239MOL0     H31547   4.910   3.946   5.559  0.9660 -0.1483  0.3088
  239MOL0     H31548   4.682   3.949   5.436 -0.7402 -0.4345  0.5202
  240MOL0     O31549   1.236   6.727   3.121 -0.0965  0.4816 -0.7157
  240MOL0     C31550   1.146   6.656   3.183 -0.2327  0.0317  0.6819
  240MOL0     O31551   1.172   6.538   3.257 -0.6933  0.3240  0.4805
  240MOL0     C31552   1.302   6.492   3.275 -0.0251 -1.1991  0.2975
  240MOL0     C31553   1.365   6.467   3.398  0.4657  0.9010 -0.6520
  240MOL0     C31554   1.497   6.422   3.411 -0.0092 -0.0851  0.6560
  240MOL0     C31555   1.575   6.400   3.295  0.8482  0.0575 -0.7458
  240MOL0     O31556   1.704   6.366   3.277  0.6298  0.0503 -0.7251
  240MOL0     C31557   1.768   6.266   3.363  0.0195 -0.8372 -0.0135
  240MOL0     C31558   1.711   6.121   3.334 -0.2740 -1.4477  0.0447
  240MOL0     C31559   1.770   6.026   3.441  0.4195 -0.4402 -0.0197
  240MOL0     C31560   1.906   5.982   3.387  0.6258 -0.1328 -0.3841
  240MOL0     C31561   1.989   5.933   3.504 -0.5430 -0.4099  0.0653
  240MOL0     C31562   2.103   5.848   3.432  0.4457  0.2281  0.1261
  240MOL0     C31563   2.194   5.791   3.539  0.2475 -0.0324  0.2138
  240MOL0     C31564   2.266   5.652   3.503  0.0576 -0.0849 -0.9183
  240MOL0     N31565   2.357   5.665   3.385 -0.8082  0.4736  0.1892
  240MOL0     C31566   2.466   5.752   3.369  0.4308  0.0976 -0.0477
  240MOL0     C31567   2.514   5.740   3.248  0.9017 -0.7487 -0.5352
  240MOL0     C31568   2.630   5.815   3.191 -0.0061 -0.0345 -0.8548
  240MOL0     C31569   2.608   5.970   3.194  0.3363  0.2504  0.9152
  240MOL0     C31570   2.527   6.002   3.061  0.2614 -0.4200  0.0917
  240MOL0     C31571   2.372   5.999   3.074  0.2309  0.8350  0.1757
  240MOL0     O31572   2.332   6.089   3.176 -0.2577 -0.0366  0.5766
  240MOL0     C31573   2.266   6.198   3.143 -0.0516 -0.3841  0.1512
  240MOL0     C31574   2.140   6.191   3.091 -0.2178 -0.2711 -0.3544
  240MOL0     C31575   2.081   6.311   3.051 -0.1179 -0.2672 -0.5502
  240MOL0     C31576   2.139   6.441   3.071 -0.1189 -0.8049  0.6486
  240MOL0     C31577   2.068   6.564   3.050  0.6766 -0.2218  0.5585
  240MOL0     O31578   1.941   6.546   2.993  0.4721 -0.1291  0.8811
  240MOL0     C31579   1.852   6.645   2.959 -0.0426  0.3121  0.2666
  240MOL0     C31580   1.874   6.746   2.867  0.9288 -0.6167 -0.2950
  240MOL0     C31581   1.767   6.831   2.831  0.2805 -0.0387  0.2984
  240MOL0     C31582   1.639   6.821   2.891 -0.2720  0.2054  0.1517
  240MOL0     O31583   1.549   6.919   2.862 -0.0590  0.1923 -0.0175
  240MOL0     C31584   1.415   6.884   2.874  0.6318  0.1520 -0.1604
  240MOL0     C31585   1.345   7.009   2.819 -0.8825  0.4147  0.1561
  240MOL0     C31586   1.184   7.002   2.821  1.2017 -0.1817 -0.3010
  240MOL0     C31587   1.122   7.134   2.767 -0.6531 -0.1162  0.2630
  240MOL0     C31588   0.975   7.144   2.758  0.5599  0.8305 -0.0143
  240MOL0     C31589   0.916   7.042   2.654 -0.8247  0.0263  0.1044
  240MOL0     C31590   0.765   7.029   2.665  0.0743 -0.3652  0.1278
  240MOL0     C31591   0.683   7.155   2.694  0.1660 -0.2661  1.3223
  240MOL0    Cl31592   0.515   7.142   2.652  0.0709  0.0115 -0.2005
  240MOL0     C31593   1.617   6.728   2.990  0.3385 -0.8093  0.5990
  240MOL0     C31594   1.723   6.646   3.025  0.1393 -0.3053  0.4383
  240MOL0     O31595   2.108   6.676   3.086  0.4255 -0.2700 -0.2074
  240MOL0     C31596   2.264   6.447   3.127  0.1152  0.0691  0.4962
  240MOL0     C31597   2.334   6.327   3.150  0.1259 -0.1899  0.8999
  240MOL0     N31598   2.442   5.630   3.194  0.4396  0.1538 -0.8953
  240MOL0     N31599   2.342   5.588   3.270 -0.5945  0.2904 -0.5662
  240MOL0     C31600   1.511   6.413   3.171  0.5236 -0.4291 -0.6784
  240MOL0     C31601   1.377   6.464   3.163 -0.4199 -0.1027  0.0720
  240MOL0     C31602   1.005   6.692   3.184  0.6243 -1.3331  1.2249
  240MOL0     C31603   0.979   6.818   3.128  0.2544  1.0164  0.4851
  240MOL0     C31604   0.851   6.862   3.112  0.7933 -1.1366 -0.8090
  240MOL0     C31605   0.744   6.782   3.151  0.2253  0.0682 -0.2134
  240MOL0     O31606   0.612   6.821   3.137  0.3715 -0.1262 -0.4196
  240MOL0     C31607   0.542   6.731   3.048 -0.2139  1.6689 -0.5246
  240MOL0     C31608   0.481   6.819   2.949  0.4715 -0.1780 -0.6205
  240MOL0     C31609   0.395   6.741   2.849 -0.1838  1.0011 -0.3293
  240MOL0     C31610   0.301   6.825   2.763 -0.7684 -0.7149  0.1078
  240MOL0     C31611   0.200   6.892   2.854 -0.7074 -0.2564 -0.4543
  240MOL0     C31612   0.119   6.926   2.936 -0.0184 -0.6346 -0.9211
  240MOL0     C31613   0.774   6.652   3.203  0.4241 -0.0851  0.4847
  240MOL0     C31614   0.905   6.607   3.218  0.5210  0.1915 -0.5696
  240MOL0     H31615   1.318   6.487   3.494 -1.1369  1.5726 -1.5360
  240MOL0     H31616   1.535   6.398   3.510  0.4453 -0.0119  0.5010
  240MOL0     H31617   1.771   6.282   3.471  0.4733  0.0359 -0.1496
  240MOL0     H31618   1.872   6.269   3.331 -0.4276 -0.7622 -1.5982
  240MOL0     H31619   1.751   6.093   3.236  1.6439 -2.5334  1.0757
  240MOL0     H31620   1.602   6.117   3.323 -0.2047  0.7079 -2.3130
  240MOL0     H31621   1.695   5.946   3.447 -0.3419  0.3696  2.2321
  240MOL0     H31622   1.769   6.082   3.535 -1.9334 -0.0999 -0.1770
  240MOL0     H31623   1.893   5.893   3.324 -0.0835 -1.1995  1.1994
  240MOL0     H31624   1.955   6.051   3.318 -1.1563 -1.0811 -2.7523
  240MOL0     H31625   1.925   5.869   3.566  2.1614  0.7816  4.4974
  240MOL0     H31626   2.029   6.018   3.560  1.4424  0.3558 -2.3177
  240MOL0     H31627   2.159   5.908   3.360 -1.9165  0.7499 -1.3622
  240MOL0     H31628   2.058   5.763   3.380 -1.5282 -0.0988  2.1890
  240MOL0     H31629   2.268   5.861   3.580  1.2543 -0.9164 -0.0491
  240MOL0     H31630   2.129   5.771   3.624 -0.2256  1.2362  0.1714
  240MOL0     H31631   2.198   5.570   3.478  0.8884 -0.4722 -1.9441
  240MOL0     H31632   2.335   5.624   3.583  3.2329  2.1628 -2.6467
  240MOL0     H31633   2.491   5.827   3.444 -1.4825  1.0399 -0.2855
  240MOL0     H31634   2.678   5.776   3.101  1.6108  0.8600 -0.4295
  240MOL0     H31635   2.705   5.788   3.266 -3.4780 -2.2896  2.1213
  240MOL0     H31636   2.709   6.012   3.187 -0.0882  1.0620 -1.4011
  240MOL0     H31637   2.568   6.023   3.281  2.7418  1.3072  1.4477
  240MOL0     H31638   2.557   6.102   3.030 -0.3487  0.6228  2.6153
  240MOL0     H31639   2.563   5.931   2.986 -2.8626 -1.4103 -0.6223
  240MOL0     H31640   2.345   5.897   3.102  2.8206 -1.1372 -3.6788
  240MOL0     H31641   2.327   6.016   2.975 -0.3089 -0.8293  0.1107
  240MOL0     H31642   2.082   6.101   3.074 -0.0542 -0.5063  0.2879
  240MOL0     H31643   1.981   6.304   3.009 -0.7243 -0.4578  0.8663
  240MOL0     H31644   1.966   6.757   2.810 -0.0745 -0.8070 -2.0305
  240MOL0     H31645   1.787   6.904   2.753 -1.0370  0.1375  0.1090
  240MOL0     H31646   1.389   6.872   2.979 -0.1976  6.1051  0.6922
  240MOL0     H31647   1.384   6.802   2.810 -1.6082  0.4546  0.4725
  240MOL0     H31648   1.366   7.017   2.712  0.6191 -1.5454  0.2559
  240MOL0     H31649   1.384   7.088   2.885  0.2655  1.8138 -2.0836
  240MOL0     H31650   1.153   6.976   2.923  1.6384 -2.7321 -0.7308
  240MOL0     H31651   1.150   6.919   2.759  0.8742 -1.9219  2.0434
  240MOL0     H31652   1.158   7.207   2.840 -0.7111 -0.9700  1.1776
  240MOL0     H31653   1.162   7.156   2.668  0.5457 -1.0875  0.5173
  240MOL0     H31654   0.950   7.247   2.733  2.0680  0.9709 -1.0708
  240MOL0     H31655   0.931   7.111   2.853 -0.5328 -1.5373 -1.2649
  240MOL0     H31656   0.971   6.948   2.669 -0.1395  0.7211  2.4255
  240MOL0     H31657   0.944   7.071   2.552 -3.2459 -1.9365 -1.2393
  240MOL0     H31658   0.728   6.982   2.573 -0.8562 -0.4967  0.5607
  240MOL0     H31659   0.746   6.957   2.745 -0.6698  2.0439  2.2441
  240MOL0     H31660   0.721   7.237   2.632  1.5989 -2.6711 -1.1772
  240MOL0     H31661   0.682   7.189   2.798 -0.7610  0.9513  0.9404
  240MOL0     H31662   1.522   6.710   3.040  0.5252  1.4226  1.8693
  240MOL0     H31663   1.710   6.571   3.102 -0.2175  1.1065  1.8019
  240MOL0     H31664   2.312   6.541   3.148  1.7488 -0.6724  0.2042
  240MOL0     H31665   2.436   6.336   3.184  1.1476  0.3843 -2.0025
  240MOL0     H31666   1.553   6.391   3.073  0.1321 -0.1040 -0.9247
  240MOL0     H31667   1.323   6.474   3.070  0.8601  0.6199 -0.6170
  240MOL0     H31668   1.057   6.876   3.080 -1.2084  2.0717 -0.7064
  240MOL0     H31669   0.830   6.954   3.059  1.5777 -1.0892 -1.0491
  240MOL0     H31670   0.474   6.666   3.103  1.1260 -2.0489 -2.9041
  240MOL0     H31671   0.611   6.670   2.989  0.0479  1.1613  0.2912
  240MOL0     H31672   0.421   6.893   3.003 -2.4039 -0.4506 -3.2230
  240MOL0     H31673   0.563   6.869   2.895  2.1466  2.3899  3.7846
  240MOL0     H31674   0.333   6.666   2.899  0.3016  0.8176 -0.0082
  240MOL0     H31675   0.447   6.679   2.775 -2.0474  0.0238 -0.8996
  240MOL0     H31676   0.359   6.899   2.708  0.4381 -1.2743  0.5999
  240MOL0     H31677   0.248   6.764   2.689  2.2598 -0.8329 -2.1830
  240MOL0     H31678   0.048   6.970   3.003  0.1959  0.3385 -1.3269
  240MOL0     H31679   0.687   6.595   3.235 -1.1502  2.2518  0.6340
  240MOL0     H31680   0.911   6.504   3.251 -0.5701  0.8789  2.0101
  241MOL0     O31681   0.421  10.042   2.942  0.0974 -0.4099 -0.3634
  241MOL0     C31682   0.425   9.940   2.866  0.4406 -0.1006 -0.3973
  241MOL0     O31683   0.316   9.864   2.827 -0.2973  0.0171 -0.9735
  241MOL0     C31684   0.184   9.901   2.850 -0.3651 -0.2922 -0.0206
  241MOL0     C31685   0.093   9.847   2.755 -0.2962 -0.2021 -1.3562
  241MOL0     C31686  -0.038   9.879   2.759  0.2388 -0.3634  0.0969
  241MOL0     C31687  -0.086   9.962   2.864 -0.0486 -0.5622  0.2851
  241MOL0     O31688  -0.218   9.997   2.870 -0.5499 -0.4862  0.1811
  241MOL0     C31689  -0.291   9.922   2.965 -0.2240 -1.0108  0.1883
  241MOL0     C31690  -0.393  10.023   3.012 -1.4274  0.8080  0.1989
  241MOL0     C31691  -0.507   9.984   3.103  0.2956 -0.0992 -0.6013
  241MOL0     C31692  -0.603  10.100   3.144 -0.0131  0.4405 -0.3192
  241MOL0     C31693  -0.711  10.042   3.243 -0.4079  0.1749 -0.7163
  241MOL0     C31694  -0.749  10.138   3.363  0.0679  0.2279 -0.1613
  241MOL0     C31695  -0.823  10.262   3.308 -0.3030 -0.3797  0.3074
  241MOL0     C31696  -0.949  10.237   3.227  0.4371 -0.7549 -0.3194
  241MOL0     N31697  -1.055  10.151   3.291  0.0987 -0.4297  0.1007
  241MOL0     C31698  -1.141  10.192   3.389  0.5437  0.5129  0.1638
  241MOL0     C31699  -1.240  10.104   3.384 -0.3236 -0.4892 -0.2020
  241MOL0     C31700  -1.372  10.115   3.444  0.3881  0.4919  0.2256
  241MOL0     C31701  -1.397  10.031   3.567  0.0473 -0.8497  0.3142
  241MOL0     C31702  -1.340  10.088   3.694  0.5983  0.5560  0.3167
  241MOL0     C31703  -1.182  10.055   3.706 -0.5215  0.8281  0.7972
  241MOL0     O31704  -1.142  10.105   3.836  0.3792 -0.5891  0.2784
  241MOL0     C31705  -1.009  10.135   3.860 -0.3460 -0.9229 -0.4513
  241MOL0     C31706  -0.966  10.224   3.965 -0.0111  0.4214 -0.3921
  241MOL0     C31707  -0.833  10.242   4.002  0.0389 -0.5595  1.0305
  241MOL0     C31708  -0.726  10.185   3.932  0.0749  0.4397  0.0899
  241MOL0     C31709  -0.584  10.184   3.974 -0.0366 -0.1587 -0.8327
  241MOL0     O31710  -0.490  10.194   3.876  0.0950 -0.3081  0.0366
  241MOL0     C31711  -0.367  10.199   3.917 -1.2065  0.3873  0.5760
  241MOL0     C31712  -0.314  10.323   3.955  0.3987  1.3803 -0.8651
  241MOL0     C31713  -0.184  10.334   3.993 -0.9125 -1.0425 -0.2469
  241MOL0     C31714  -0.095  10.227   3.981 -0.0594 -0.0786  0.3899
  241MOL0     O31715   0.039  10.234   3.993 -0.0441  0.0428 -0.3368
  241MOL0     C31716   0.109  10.282   3.883  0.8533  0.1372  0.7334
  241MOL0     C31717   0.254  10.252   3.913 -0.8390 -0.0454  0.5961
  241MOL0     C31718   0.340  10.383   3.938  0.3710  1.0008  0.1204
  241MOL0     C31719   0.411  10.403   4.070  0.7716  0.6607  0.0028
  241MOL0     C31720   0.501  10.521   4.063 -0.0612 -0.2496  0.6305
  241MOL0     C31721   0.560  10.571   4.194  0.4735 -0.7960  0.0072
  241MOL0     C31722   0.649  10.693   4.191  0.6049 -0.1098 -0.2238
  241MOL0     C31723   0.656  10.760   4.327 -0.3481  0.1383  0.5465
  241MOL0    Cl31724   0.745  10.915   4.327  0.0335 -0.5386  0.3325
  241MOL0     C31725  -0.150  10.107   3.950 -0.1311  0.5034 -0.2277
  241MOL0     C31726  -0.278  10.083   3.916  0.0061  0.7397 -0.2663
  241MOL0     O31727  -0.569  10.209   4.097 -0.3696 -0.2273  0.6994
  241MOL0     C31728  -0.761  10.110   3.814 -0.6067  0.3058 -0.5971
  241MOL0     C31729  -0.897  10.099   3.780 -0.2669 -0.5712  0.8250
  241MOL0     N31730  -1.212  10.010   3.299 -1.3109 -0.8319 -0.2819
  241MOL0     N31731  -1.100  10.032   3.244 -0.7015  0.3411  0.0734
  241MOL0     C31732  -0.008  10.012   2.965  0.4363 -0.4348 -0.2052
  241MOL0     C31733   0.130   9.991   2.951 -0.0406  0.6601  0.3243
  241MOL0     C31734   0.552   9.897   2.842  0.2895  0.2756  0.0499
  241MOL0     C31735   0.662   9.951   2.912  0.0072  0.2920 -0.2915
  241MOL0     C31736   0.793   9.897   2.891  0.7223 -0.5935 -0.3795
  241MOL0     C31737   0.816   9.796   2.801 -0.5720  0.1722 -0.9152
  241MOL0     O31738   0.950   9.745   2.786 -0.1753  0.0071  0.3545
  241MOL0     C31739   0.969   9.623   2.716  0.4811  0.5268 -0.8648
  241MOL0     C31740   1.009   9.663   2.576 -0.1544 -0.0390 -0.7918
  241MOL0     C31741   1.066   9.558   2.474 -0.3197  0.1844 -0.6032
  241MOL0     C31742   1.217   9.553   2.465 -0.3470 -0.3333 -0.0916
  241MOL0     C31743   1.285   9.527   2.598  0.3563 -0.3563  0.3432
  241MOL0     C31744   1.340   9.524   2.709  1.4945 -0.5761  0.4480
  241MOL0     C31745   0.709   9.749   2.729  0.4736 -0.6257 -0.0902
  241MOL0     C31746   0.581   9.792   2.752  0.0417 -0.6588  0.1835
  241MOL0     H31747   0.134   9.772   2.687 -1.0807  0.2715 -2.3784
  241MOL0     H31748  -0.111   9.840   2.689 -2.4429  1.9699  1.4421
  241MOL0     H31749  -0.232   9.890   3.052  0.6445 -1.3291 -0.5029
  241MOL0     H31750  -0.340   9.832   2.926 -1.6508 -0.4253  0.5475
  241MOL0     H31751  -0.440  10.062   2.921  2.0482  4.2758 -0.3623
  241MOL0     H31752  -0.344  10.111   3.055 -0.7455  0.2412  0.6080
  241MOL0     H31753  -0.456   9.947   3.192 -1.0681 -2.8784 -0.8737
  241MOL0     H31754  -0.552   9.895   3.057  2.7014 -0.5153 -2.3437
  241MOL0     H31755  -0.543  10.178   3.191 -1.2859  2.0201 -1.1962
  241MOL0     H31756  -0.661  10.145   3.062 -1.8770  0.6077  1.0321
  241MOL0     H31757  -0.689   9.941   3.279 -0.8307  1.2105  2.7984
  241MOL0     H31758  -0.802  10.020   3.187  0.5028  0.6187 -2.4363
  241MOL0     H31759  -0.662  10.169   3.422 -0.1989 -0.2795  0.5125
  241MOL0     H31760  -0.810  10.088   3.439  2.5329 -0.6108  1.3950
  241MOL0     H31761  -0.846  10.320   3.398 -0.6354  1.7607 -1.0734
  241MOL0     H31762  -0.748  10.321   3.255 -0.0365  0.6420  1.7430
  241MOL0     H31763  -0.926  10.211   3.123  1.5253  2.6306 -1.0763
  241MOL0     H31764  -0.992  10.337   3.217  1.6380 -0.0375  1.3028
  241MOL0     H31765  -1.142  10.287   3.442 -2.1346  0.8100 -0.2337
  241MOL0     H31766  -1.445  10.079   3.371 -0.5384  0.6887  1.0420
  241MOL0     H31767  -1.408  10.218   3.450 -0.8938  0.2881 -2.2716
  241MOL0     H31768  -1.357   9.929   3.560  2.2798  0.0607 -1.3456
  241MOL0     H31769  -1.505  10.028   3.586 -0.4539  0.2014 -2.0095
  241MOL0     H31770  -1.351  10.197   3.694  0.3224  0.5293 -0.1197
  241MOL0     H31771  -1.400  10.047   3.776 -2.3891 -0.1285 -2.0402
  241MOL0     H31772  -1.122  10.096   3.625 -0.3772  0.5109  0.7439
  241MOL0     H31773  -1.167   9.947   3.707  0.6951  0.9877  1.4850
  241MOL0     H31774  -1.042  10.250   4.039  2.0303  2.0606  1.2587
  241MOL0     H31775  -0.814  10.295   4.095  0.5511 -1.2469  1.3258
  241MOL0     H31776  -0.381  10.408   3.954  1.9218  2.6568 -0.1225
  241MOL0     H31777  -0.143  10.416   4.050 -2.9634 -2.4630  3.6739
  241MOL0     H31778   0.091  10.387   3.863  2.1712  0.0725 -1.0223
  241MOL0     H31779   0.073  10.226   3.797  1.5064 -0.7000  0.9852
  241MOL0     H31780   0.293  10.203   3.822 -0.4951 -0.8774  1.1737
  241MOL0     H31781   0.256  10.177   3.992 -3.0244 -0.8703 -0.0536
  241MOL0     H31782   0.278  10.473   3.928  0.2676  1.0068  0.8296
  241MOL0     H31783   0.414  10.393   3.857 -2.6255 -1.0780 -3.2084
  241MOL0     H31784   0.346  10.431   4.154  3.0228 -0.0534  2.1242
  241MOL0     H31785   0.465  10.310   4.091  1.1220  0.3593 -2.0538
  241MOL0     H31786   0.450  10.600   4.007  0.0911 -1.1432 -0.8231
  241MOL0     H31787   0.592  10.503   4.006 -0.5002 -3.9203  0.8595
  241MOL0     H31788   0.602  10.482   4.242 -1.2823 -1.4930  0.3203
  241MOL0     H31789   0.475  10.600   4.256  1.9410 -0.0933  1.7847
  241MOL0     H31790   0.748  10.656   4.166  0.3551 -1.1369  0.2516
  241MOL0     H31791   0.618  10.762   4.112  1.2815 -1.9907 -2.2259
  241MOL0     H31792   0.701  10.693   4.400  1.4918  1.5145  0.7422
  241MOL0     H31793   0.554  10.776   4.363 -1.2250  1.6009 -2.2253
  241MOL0     H31794  -0.078  10.025   3.944 -1.9501 -1.1189 -0.9014
  241MOL0     H31795  -0.327   9.986   3.909  0.2874  0.4430  1.3196
  241MOL0     H31796  -0.680  10.076   3.751 -0.0791 -0.6263  0.5536
  241MOL0     H31797  -0.918  10.033   3.696 -2.9671 -1.1365  1.8337
  241MOL0     H31798  -0.053  10.063   3.049 -1.3291  0.5735 -1.7211
  241MOL0     H31799   0.194  10.030   3.030 -0.6972  2.4962  0.0183
  241MOL0     H31800   0.646  10.035   2.978  0.6084 -1.0171  1.6111
  241MOL0     H31801   0.872   9.933   2.956 -0.4488 -0.6864  1.1444
  241MOL0     H31802   0.880   9.560   2.715 -1.1064  2.6346  0.5797
  241MOL0     H31803   1.053   9.567   2.759  0.9752  0.4299 -1.9077
  241MOL0     H31804   0.914   9.698   2.534 -1.1826 -1.1277  0.5328
  241MOL0     H31805   1.082   9.744   2.583 -0.3584  0.0800  0.0645
  241MOL0     H31806   1.036   9.598   2.376  1.3434  2.7211 -0.1585
  241MOL0     H31807   1.023   9.458   2.486  0.1204  0.0939  0.2243
  241MOL0     H31808   1.248   9.483   2.387  2.8876  2.1208 -1.2609
  241MOL0     H31809   1.254   9.650   2.430 -0.1182 -0.3953 -0.0219
  241MOL0     H31810   1.398   9.520   2.798  0.9453 -0.7579  0.8029
  241MOL0     H31811   0.710   9.668   2.656 -0.0268 -1.1111  0.4336
  241MOL0     H31812   0.497   9.754   2.694  0.2246  0.9720 -1.1898
  242MOL0     O31813   4.262   2.040   8.513 -0.1988  0.3335 -0.2826
  242MOL0     C31814   4.326   2.049   8.408 -0.0482  0.3731  0.3004
  242MOL0     O31815   4.320   2.147   8.323  0.2428 -0.0365 -0.6150
  242MOL0     C31816   4.211   2.232   8.316 -0.0655 -0.2076 -0.8629
  242MOL0     C31817   4.244   2.361   8.285 -0.2965  0.0879 -0.0797
  242MOL0     C31818   4.149   2.455   8.257 -0.0844 -0.0199  0.3554
  242MOL0     C31819   4.011   2.423   8.260 -0.2940  0.2685 -0.8416
  242MOL0     O31820   3.916   2.515   8.266  0.5712  1.0103  0.5523
  242MOL0     C31821   3.941   2.649   8.223  0.2051  0.1534 -0.7278
  242MOL0     C31822   3.819   2.746   8.225  0.3636 -0.0356  0.0524
  242MOL0     C31823   3.688   2.701   8.150 -0.6734  0.0395 -0.1484
  242MOL0     C31824   3.627   2.581   8.217  0.3177  0.5877  0.1658
  242MOL0     C31825   3.483   2.545   8.174 -0.8714  0.1475 -0.2811
  242MOL0     C31826   3.370   2.638   8.202  0.1621 -0.3279  0.2193
  242MOL0     C31827   3.237   2.575   8.158  0.2093 -0.2430 -0.5911
  242MOL0     C31828   3.115   2.679   8.191  0.5971  0.4508 -0.5913
  242MOL0     N31829   3.088   2.777   8.088 -0.2671 -0.3287  0.3816
  242MOL0     C31830   3.003   2.753   7.982  0.9266  0.0335 -0.0296
  242MOL0     C31831   2.978   2.882   7.944 -0.6431 -0.2027 -0.0832
  242MOL0     C31832   2.884   2.911   7.832  0.5964 -0.3737 -0.2928
  242MOL0     C31833   2.739   2.915   7.873 -0.1868 -0.1726 -0.2735
  242MOL0     C31834   2.629   2.878   7.766  0.3071 -0.9555 -0.3309
  242MOL0     C31835   2.630   2.990   7.653 -0.7281  0.1074 -0.3364
  242MOL0     O31836   2.558   3.110   7.695 -0.2109  0.1628 -0.5782
  242MOL0     C31837   2.426   3.107   7.682 -0.2560  0.3737  0.3027
  242MOL0     C31838   2.349   2.998   7.629  0.5181 -0.1179 -0.2991
  242MOL0     C31839   2.207   3.008   7.619 -0.5191 -0.1332 -0.7487
  242MOL0     C31840   2.145   3.129   7.652  0.2716  0.4749  0.5117
  242MOL0     C31841   1.996   3.141   7.644  0.2766 -0.3057 -0.2501
  242MOL0     O31842   1.926   3.049   7.572 -0.0359  0.3679  0.2050
  242MOL0     C31843   1.795   3.080   7.534  0.5248 -0.0889 -0.1220
  242MOL0     C31844   1.692   3.111   7.621  0.2479  0.1501 -0.4325
  242MOL0     C31845   1.570   3.155   7.568 -0.3050 -0.5750 -0.0523
  242MOL0     C31846   1.554   3.169   7.425 -0.1648  0.4107 -0.4421
  242MOL0     O31847   1.440   3.217   7.357 -1.3278  0.4934  0.8802
  242MOL0     C31848   1.320   3.249   7.424  0.2344 -0.3047  0.7712
  242MOL0     C31849   1.220   3.293   7.314  0.1327  0.7953  0.3989
  242MOL0     C31850   1.086   3.238   7.358 -0.8200  0.2946 -0.5576
  242MOL0     C31851   0.970   3.238   7.263  0.3987 -0.4372  0.4052
  242MOL0     C31852   0.909   3.384   7.249  0.0847 -0.1287 -0.5325
  242MOL0     C31853   0.802   3.384   7.140 -0.4900  0.2816 -0.0638
  242MOL0     C31854   0.707   3.505   7.129 -1.1213  0.4521 -0.2187
  242MOL0     C31855   0.634   3.531   7.260 -0.1311 -0.5921  0.7665
  242MOL0    Cl31856   0.513   3.402   7.273  0.1496  0.1625 -0.4171
  242MOL0     C31857   1.653   3.117   7.342  0.3964 -0.1044  0.0356
  242MOL0     C31858   1.772   3.076   7.392  0.1617  0.3052 -0.6583
  242MOL0     O31859   1.943   3.232   7.712 -0.3752  0.2266 -0.2455
  242MOL0     C31860   2.222   3.233   7.704 -0.5814  0.3011  0.2971
  242MOL0     C31861   2.361   3.226   7.714 -0.1634  0.9810 -0.5463
  242MOL0     N31862   3.041   2.975   8.024  0.7114  0.4344  0.7077
  242MOL0     N31863   3.104   2.913   8.109 -0.0683  0.7906 -0.3757
  242MOL0     C31864   3.982   2.299   8.314  0.2384 -0.4344 -0.1271
  242MOL0     C31865   4.074   2.191   8.342 -0.6429 -1.3509 -0.8941
  242MOL0     C31866   4.426   1.942   8.377 -0.0290 -0.4511  0.8867
  242MOL0     C31867   4.514   1.963   8.266 -0.7400  0.3192  0.4852
  242MOL0     C31868   4.611   1.858   8.232  0.2207 -0.0346  0.0822
  242MOL0     C31869   4.623   1.742   8.307 -0.2108  0.0604  0.2404
  242MOL0     O31870   4.712   1.644   8.284  0.8412  0.5439 -0.0872
  242MOL0     C31871   4.810   1.660   8.181  0.5102 -0.6861  0.7160
  242MOL0     C31872   4.891   1.532   8.168 -0.0520 -0.3279  0.9483
  242MOL0     C31873   4.993   1.499   8.285 -0.3056  0.8197 -0.3431
  242MOL0     C31874   5.132   1.554   8.259  0.2453  0.1647 -0.2678
  242MOL0     C31875   5.199   1.452   8.167  0.6406  0.2302  0.0854
  242MOL0     C31876   5.237   1.375   8.081 -0.4038 -0.2335 -0.6956
  242MOL0     C31877   4.534   1.726   8.415  0.0108  0.3101 -0.3904
  242MOL0     C31878   4.438   1.818   8.439 -0.0761 -0.3071 -0.9541
  242MOL0     H31879   4.347   2.394   8.275 -0.7270  0.8944 -2.5284
  242MOL0     H31880   4.185   2.556   8.238  2.4743 -0.6568  1.3913
  242MOL0     H31881   3.987   2.653   8.124  1.2844 -0.9661 -0.2937
  242MOL0     H31882   4.003   2.701   8.296  0.8821  1.2912 -2.0750
  242MOL0     H31883   3.846   2.839   8.173 -2.0976  0.7147 -0.0211
  242MOL0     H31884   3.791   2.772   8.327 -0.9270  1.4988 -0.6508
  242MOL0     H31885   3.712   2.684   8.045 -4.7085 -0.3587 -1.1633
  242MOL0     H31886   3.620   2.786   8.144  0.0617  0.5274 -2.8163
  242MOL0     H31887   3.692   2.494   8.204 -0.2114 -0.3603  3.0514
  242MOL0     H31888   3.623   2.598   8.325  2.5781 -1.8935  0.7481
  242MOL0     H31889   3.462   2.448   8.220  2.7008 -0.1767  0.9670
  242MOL0     H31890   3.479   2.525   8.066 -2.1939 -0.7733 -0.0832
  242MOL0     H31891   3.393   2.726   8.143 -1.1811  0.4837  0.8392
  242MOL0     H31892   3.369   2.663   8.309 -2.4820 -3.3882  1.1019
  242MOL0     H31893   3.237   2.537   8.055  0.6641 -0.5010 -0.4970
  242MOL0     H31894   3.227   2.479   8.211 -1.2657 -0.5510 -1.3639
  242MOL0     H31895   3.129   2.729   8.287 -1.3967  0.2390 -0.1572
  242MOL0     H31896   3.021   2.625   8.206  0.6643  1.1650  3.2858
  242MOL0     H31897   2.958   2.663   7.942 -0.0706  0.4274  0.1631
  242MOL0     H31898   2.906   2.842   7.750  2.7361  0.3028 -0.3496
  242MOL0     H31899   2.921   3.005   7.789  0.2521 -0.3499 -0.5429
  242MOL0     H31900   2.712   3.010   7.920  1.3261 -0.3094  0.9646
  242MOL0     H31901   2.724   2.837   7.948  2.4164 -0.0219  0.5084
  242MOL0     H31902   2.655   2.778   7.728  0.2611 -1.8023  1.7249
  242MOL0     H31903   2.531   2.865   7.812 -0.5200  0.6515 -1.5387
  242MOL0     H31904   2.583   2.956   7.560 -1.9568  1.9515 -0.4286
  242MOL0     H31905   2.736   3.014   7.644  0.0779 -2.2265  1.7903
  242MOL0     H31906   2.397   2.910   7.587  1.6611  0.4133 -0.1375
  242MOL0     H31907   2.150   2.926   7.575 -0.2722 -0.0600 -1.2106
  242MOL0     H31908   1.700   3.092   7.727 -1.3096 -1.4476 -0.5497
  242MOL0     H31909   1.492   3.194   7.633  1.4847  2.3291  0.5592
  242MOL0     H31910   1.334   3.336   7.489 -1.2486  1.1354 -0.7626
  242MOL0     H31911   1.285   3.162   7.479  6.1210 -4.8635 -1.5846
  242MOL0     H31912   1.244   3.245   7.219  1.1771  1.9641  0.0544
  242MOL0     H31913   1.225   3.401   7.301  0.1397  0.8356  0.7255
  242MOL0     H31914   1.059   3.291   7.450 -1.0724 -3.0852  1.4914
  242MOL0     H31915   1.110   3.135   7.386  0.3146  0.4734 -0.8258
  242MOL0     H31916   1.010   3.208   7.166 -0.9216 -0.5445 -0.1160
  242MOL0     H31917   0.895   3.163   7.289 -0.0881  0.2466  0.9990
  242MOL0     H31918   0.993   3.449   7.221  0.2026  0.7211  1.6249
  242MOL0     H31919   0.871   3.406   7.349  0.7771  1.4330 -0.5834
  242MOL0     H31920   0.743   3.294   7.152 -1.0469  0.4877 -1.1666
  242MOL0     H31921   0.869   3.380   7.053  0.9373  0.0323  1.0192
  242MOL0     H31922   0.765   3.593   7.100  2.0337 -0.3806  2.7748
  242MOL0     H31923   0.630   3.479   7.057 -3.5319 -1.2700  2.7298
  242MOL0     H31924   0.591   3.632   7.259 -0.4008 -0.6360  3.1562
  242MOL0     H31925   0.701   3.530   7.346  2.0628  1.3177 -0.7841
  242MOL0     H31926   1.633   3.104   7.236 -1.6466 -2.3373  0.5835
  242MOL0     H31927   1.855   3.042   7.331  0.4293 -0.2667  0.0267
  242MOL0     H31928   2.172   3.326   7.726  0.8358  1.4898 -1.2145
  242MOL0     H31929   2.427   3.303   7.752  1.7144 -0.7710 -0.0242
  242MOL0     H31930   3.875   2.279   8.318  0.1492 -0.0880 -0.7485
  242MOL0     H31931   4.049   2.089   8.368  2.0377 -1.2218  2.8959
  242MOL0     H31932   4.507   2.050   8.203 -0.7479 -0.8827 -1.2487
  242MOL0     H31933   4.683   1.873   8.152 -0.4496  0.9296 -0.3629
  242MOL0     H31934   4.871   1.751   8.184  0.3222 -0.5359  0.0875
  242MOL0     H31935   4.755   1.668   8.087 -0.3091  0.2304  1.2430
  242MOL0     H31936   4.822   1.448   8.152  0.5304 -0.5985 -0.2667
  242MOL0     H31937   4.945   1.525   8.073  1.9862  2.1901  1.8019
  242MOL0     H31938   4.993   1.390   8.296  0.7811  0.9441  1.1907
  242MOL0     H31939   4.962   1.539   8.382 -1.2237 -0.8460  0.1129
  242MOL0     H31940   5.131   1.655   8.216 -1.2704 -0.4060 -1.6960
  242MOL0     H31941   5.197   1.553   8.346  1.2955 -0.9292 -1.0301
  242MOL0     H31942   5.270   1.308   8.004 -1.2839  0.9895 -2.2165
  242MOL0     H31943   4.548   1.648   8.489  0.9584 -0.3940 -1.2778
  242MOL0     H31944   4.382   1.803   8.531  1.3247  0.0444 -0.0098
  243MOL0     O31945   7.733   1.838   1.684  0.2105  0.5237  0.6353
  243MOL0     C31946   7.738   1.956   1.690  0.3931  0.4360  0.9025
  243MOL0     O31947   7.634   2.040   1.665 -0.0694 -0.8071 -0.1913
  243MOL0     C31948   7.520   1.995   1.605  0.4665 -0.2158  0.1142
  243MOL0     C31949   7.447   1.882   1.656 -0.4725  0.0241 -0.2799
  243MOL0     C31950   7.322   1.854   1.608  0.0109  0.7410 -0.3983
  243MOL0     C31951   7.260   1.940   1.514 -0.0002 -0.1903 -0.1815
  243MOL0     O31952   7.128   1.918   1.486 -0.0358 -0.1491 -0.0679
  243MOL0     C31953   7.056   2.028   1.431  0.8161 -1.1984  0.2330
  243MOL0     C31954   6.912   2.007   1.460 -0.0390 -0.4667 -0.3383
  243MOL0     C31955   6.819   2.103   1.385  0.7631 -0.0238 -0.3341
  243MOL0     C31956   6.686   2.092   1.446  0.3060  0.7576  0.1914
  243MOL0     C31957   6.570   2.143   1.359 -0.8050  0.6581  0.3395
  243MOL0     C31958   6.438   2.136   1.430 -0.0802 -0.1684 -0.0174
  243MOL0     C31959   6.327   2.150   1.324  0.2132 -0.2912  0.3337
  243MOL0     C31960   6.181   2.146   1.367  0.1185 -0.1763 -0.5061
  243MOL0     N31961   6.126   2.276   1.418  0.8188  0.9126  0.2715
  243MOL0     C31962   6.048   2.378   1.349 -0.1963 -0.0850  0.0777
  243MOL0     C31963   6.029   2.470   1.444 -0.7133 -0.8862 -0.6607
  243MOL0     C31964   5.957   2.603   1.424 -0.2112 -0.3404 -0.9739
  243MOL0     C31965   5.800   2.590   1.418 -0.0652 -0.9337 -0.2926
  243MOL0     C31966   5.750   2.527   1.550 -0.0787 -0.0953 -0.2384
  243MOL0     C31967   5.595   2.549   1.565 -0.5781 -0.2572  1.1297
  243MOL0     O31968   5.567   2.680   1.595 -0.2813  0.2088 -0.3307
  243MOL0     C31969   5.442   2.718   1.627 -0.3336  0.3130 -0.8214
  243MOL0     C31970   5.419   2.849   1.671  0.7585 -0.2406  0.1260
  243MOL0     C31971   5.291   2.897   1.713  0.5640  0.7119 -0.8256
  243MOL0     C31972   5.179   2.810   1.707 -0.0453 -0.8267  0.2118
  243MOL0     C31973   5.055   2.837   1.773 -0.0059 -0.2263 -0.1442
  243MOL0     O31974   4.955   2.751   1.749  0.6610 -0.0645  0.5542
  243MOL0     C31975   4.829   2.788   1.768  0.9429  0.2088 -0.3178
  243MOL0     C31976   4.782   2.921   1.743  0.1036  0.7920  0.3795
  243MOL0     C31977   4.644   2.942   1.756  0.3746 -0.1276 -0.3413
  243MOL0     C31978   4.550   2.847   1.786 -0.0794 -0.1843 -0.0942
  243MOL0     O31979   4.421   2.890   1.788  0.2060  0.2173 -0.9065
  243MOL0     C31980   4.325   2.786   1.791  0.6353  0.2954 -0.0606
  243MOL0     C31981   4.199   2.852   1.737 -0.1739  0.0754 -0.6640
  243MOL0     C31982   4.082   2.754   1.726 -0.2865 -0.5827 -0.6713
  243MOL0     C31983   3.950   2.817   1.674 -0.2111 -1.1770  0.0265
  243MOL0     C31984   3.852   2.713   1.632  0.0526 -1.0096 -0.3717
  243MOL0     C31985   3.710   2.773   1.623 -0.9757 -0.0946 -0.5728
  243MOL0     C31986   3.617   2.666   1.580 -0.5433  0.2027  0.1234
  243MOL0     C31987   3.569   2.585   1.705 -0.3453  0.0365  1.2056
  243MOL0    Cl31988   3.454   2.458   1.670  0.2103 -0.0163  0.2786
  243MOL0     C31989   4.600   2.722   1.811  0.3231 -0.2692 -0.5847
  243MOL0     C31990   4.731   2.687   1.805 -0.0167  0.0713 -0.0022
  243MOL0     O31991   5.046   2.932   1.846 -0.2593  0.9120  0.2488
  243MOL0     C31992   5.205   2.681   1.654 -0.5847  0.9582 -0.0448
  243MOL0     C31993   5.336   2.635   1.617  0.3515 -0.4525  0.1131
  243MOL0     N31994   6.096   2.441   1.563 -0.0930  0.1176 -0.7079
  243MOL0     N31995   6.158   2.330   1.541 -0.3065 -0.6928  0.2891
  243MOL0     C31996   7.335   2.043   1.466  0.1667  0.0141 -0.1825
  243MOL0     C31997   7.458   2.072   1.503 -0.5828  0.5802  0.1779
  243MOL0     C31998   7.874   2.007   1.750 -0.8500  0.0068  0.3033
  243MOL0     C31999   7.903   2.142   1.749 -0.2806  0.7758  0.0827
  243MOL0     C32000   8.026   2.191   1.795 -0.2015  0.3356  1.2193
  243MOL0     C32001   8.125   2.102   1.836 -0.5697  0.4856  0.0667
  243MOL0     O32002   8.258   2.122   1.874  0.4335  0.0287  0.6265
  243MOL0     C32003   8.314   2.258   1.875  0.5111  0.1451 -0.7643
  243MOL0     C32004   8.438   2.245   1.965  0.3362  0.1618 -0.2927
  243MOL0     C32005   8.408   2.190   2.111  0.0457  0.2454  0.3036
  243MOL0     C32006   8.413   2.293   2.220 -0.1348 -0.7224 -0.0126
  243MOL0     C32007   8.549   2.344   2.222 -0.3251  0.2301 -0.3358
  243MOL0     C32008   8.662   2.386   2.227 -0.5768  0.3630 -0.4958
  243MOL0     C32009   8.092   1.966   1.841 -0.4943 -0.1965 -0.4041
  243MOL0     C32010   7.966   1.916   1.812 -0.0680 -0.2333  0.4534
  243MOL0     H32011   7.488   1.827   1.740 -0.7279 -1.2095 -0.9443
  243MOL0     H32012   7.270   1.768   1.650 -3.6859  0.6579 -4.4405
  243MOL0     H32013   7.064   2.031   1.322 -0.1783  0.3383  0.1831
  243MOL0     H32014   7.089   2.125   1.466  2.5092 -0.8252 -2.1512
  243MOL0     H32015   6.894   2.012   1.568 -0.9104 -0.9688 -0.4537
  243MOL0     H32016   6.875   1.910   1.427  0.2218 -0.8547  0.4706
  243MOL0     H32017   6.812   2.070   1.281  1.1464  2.9846 -1.4227
  243MOL0     H32018   6.838   2.211   1.393 -0.1369  0.2226 -1.4025
  243MOL0     H32019   6.656   1.989   1.467 -0.0729  1.3507  2.9752
  243MOL0     H32020   6.677   2.132   1.548 -2.1616 -3.6602  2.0150
  243MOL0     H32021   6.570   2.094   1.261  2.1843 -1.8323  1.4366
  243MOL0     H32022   6.583   2.249   1.336  0.5215  0.8187  1.7550
  243MOL0     H32023   6.432   2.213   1.508  1.8431  0.6555 -0.6274
  243MOL0     H32024   6.430   2.041   1.484  3.5228  0.6556  2.3212
  243MOL0     H32025   6.340   2.243   1.268 -1.1779 -1.0811 -1.3797
  243MOL0     H32026   6.346   2.065   1.258 -1.3196  0.4886 -1.2054
  243MOL0     H32027   6.178   2.074   1.450  0.7462 -1.0435 -1.2107
  243MOL0     H32028   6.112   2.102   1.295 -0.5413  0.0513 -0.0193
  243MOL0     H32029   6.016   2.395   1.247 -0.7178  0.4603  0.3282
  243MOL0     H32030   5.992   2.624   1.323 -1.5215 -0.8966 -1.5748
  243MOL0     H32031   5.990   2.674   1.500 -0.2687 -2.0308  0.7248
  243MOL0     H32032   5.777   2.533   1.327  1.3385 -0.0747 -1.2186
  243MOL0     H32033   5.760   2.691   1.408  3.4225  0.3835 -3.3076
  243MOL0     H32034   5.775   2.421   1.542 -0.3491 -0.1077 -0.9935
  243MOL0     H32035   5.799   2.583   1.630  2.0638  1.8776 -2.7553
  243MOL0     H32036   5.559   2.484   1.645 -0.2958 -3.2317 -0.9643
  243MOL0     H32037   5.538   2.513   1.478 -3.0494  0.2603  2.4568
  243MOL0     H32038   5.505   2.915   1.680  1.9168 -1.5701 -0.7403
  243MOL0     H32039   5.288   2.999   1.749 -0.1573  1.4460 -2.8162
  243MOL0     H32040   4.856   2.988   1.703 -0.0640 -0.4439 -2.1733
  243MOL0     H32041   4.615   3.043   1.730  2.5106  0.8579  0.8416
  243MOL0     H32042   4.303   2.768   1.897  2.2022  1.8752  0.5803
  243MOL0     H32043   4.349   2.696   1.733  0.4398 -0.6857  1.3385
  243MOL0     H32044   4.220   2.896   1.640 -0.5429  1.4880 -0.1190
  243MOL0     H32045   4.172   2.939   1.796  1.1845 -1.3174  2.2372
  243MOL0     H32046   4.043   2.709   1.818 -0.5135  0.2668 -0.3401
  243MOL0     H32047   4.113   2.677   1.654  1.6811 -1.3486  0.9241
  243MOL0     H32048   3.905   2.883   1.748  1.0776  1.2157 -1.2145
  243MOL0     H32049   3.964   2.891   1.595 -0.3003  1.3213  2.2139
  243MOL0     H32050   3.840   2.624   1.695  0.0450 -0.9831 -0.3362
  243MOL0     H32051   3.889   2.681   1.534  0.7145  1.3360 -0.9431
  243MOL0     H32052   3.714   2.847   1.543 -0.5186 -1.5418 -1.9299
  243MOL0     H32053   3.674   2.824   1.713  0.3311  0.1669 -0.1768
  243MOL0     H32054   3.530   2.719   1.540  1.6874  1.3605 -3.6729
  243MOL0     H32055   3.658   2.603   1.501  0.2001 -1.3823  1.6994
  243MOL0     H32056   3.514   2.657   1.767 -1.3985 -0.0608  0.4065
  243MOL0     H32057   3.649   2.551   1.772  1.0271  2.1850  0.7523
  243MOL0     H32058   4.536   2.650   1.862  0.5352  1.2876  2.1026
  243MOL0     H32059   4.749   2.591   1.853 -3.6158 -2.3238 -2.8970
  243MOL0     H32060   5.126   2.606   1.647  1.0547 -0.7102 -1.4069
  243MOL0     H32061   5.361   2.537   1.579 -0.4672 -0.4232 -0.5379
  243MOL0     H32062   7.299   2.103   1.383 -0.0310 -0.3141 -0.3379
  243MOL0     H32063   7.503   2.157   1.452  2.0401 -2.0847 -2.3502
  243MOL0     H32064   7.842   2.228   1.725  0.1455  0.2371 -3.5621
  243MOL0     H32065   8.041   2.298   1.788 -1.5112  0.4644 -0.0981
  243MOL0     H32066   8.231   2.307   1.926 -0.4485  0.7142 -2.8110
  243MOL0     H32067   8.329   2.294   1.773  0.1585 -1.4784 -1.4205
  243MOL0     H32068   8.509   2.188   1.906  2.2789  1.5739  0.5805
  243MOL0     H32069   8.480   2.346   1.975  0.7553 -0.1498  1.4616
  243MOL0     H32070   8.488   2.117   2.129  2.9868  3.3907  1.0554
  243MOL0     H32071   8.308   2.147   2.099 -0.7943  2.5065 -1.5979
  243MOL0     H32072   8.333   2.366   2.203 -0.4411 -0.8765  0.7199
  243MOL0     H32073   8.389   2.245   2.315  1.1447 -0.9656  0.2070
  243MOL0     H32074   8.769   2.396   2.224 -0.1140 -3.2407 -3.3303
  243MOL0     H32075   8.175   1.905   1.873 -0.9268 -1.3826 -1.4753
  243MOL0     H32076   7.959   1.808   1.819  4.0988 -1.0175 -2.9484
  244MOL0     O32077   8.750   0.768   2.749  0.7497  0.3877 -0.2478
  244MOL0     C32078   8.815   0.673   2.710  0.0215  0.1086  1.3052
  244MOL0     O32079   8.767   0.545   2.704  0.7765  0.2214 -0.0741
  244MOL0     C32080   8.633   0.517   2.712 -0.5305 -0.3706 -0.6844
  244MOL0     C32081   8.531   0.600   2.665 -0.2556  0.7981 -0.0423
  244MOL0     C32082   8.402   0.558   2.685 -0.0359  0.2567 -0.4036
  244MOL0     C32083   8.371   0.447   2.757 -0.4365 -0.1434 -0.8060
  244MOL0     O32084   8.236   0.431   2.792  0.0331  0.1924  0.3636
  244MOL0     C32085   8.193   0.291   2.756 -1.0381 -1.1660 -0.5304
  244MOL0     C32086   8.047   0.306   2.715 -0.6897  0.8467  0.1024
  244MOL0     C32087   8.028   0.311   2.568  0.2408  0.3052 -0.6788
  244MOL0     C32088   7.890   0.361   2.515  0.2919 -0.5942 -0.1697
  244MOL0     C32089   7.848   0.505   2.544 -0.3888  0.1239  0.0260
  244MOL0     C32090   7.724   0.534   2.460  0.4821  0.3383  0.2651
  244MOL0     C32091   7.675   0.682   2.482 -0.7518  0.5849  0.2685
  244MOL0     C32092   7.564   0.702   2.384  0.5610 -0.9984  0.7162
  244MOL0     N32093   7.493   0.831   2.420 -0.4382 -0.7845  0.5003
  244MOL0     C32094   7.557   0.955   2.410 -1.0431  0.7575  0.4668
  244MOL0     C32095   7.460   1.045   2.437  0.3223 -0.4575  1.0722
  244MOL0     C32096   7.475   1.191   2.445  0.1805  0.0445 -0.5492
  244MOL0     C32097   7.519   1.258   2.319 -0.0596 -0.7047  0.0319
  244MOL0     C32098   7.428   1.217   2.204 -0.0986 -1.0235  0.6413
  244MOL0     C32099   7.461   1.289   2.078  0.6316  0.2508  1.1079
  244MOL0     O32100   7.360   1.279   1.980  0.2913  0.5374 -0.3601
  244MOL0     C32101   7.266   1.379   1.971 -0.1188  0.6075 -0.6257
  244MOL0     C32102   7.179   1.348   1.861  0.2093  0.0977 -0.7374
  244MOL0     C32103   7.068   1.427   1.839 -0.9654  0.1438  0.0235
  244MOL0     C32104   7.041   1.547   1.913  0.6925 -0.3379 -1.6318
  244MOL0     C32105   6.931   1.637   1.890  0.6264 -0.2369  0.5519
  244MOL0     O32106   6.894   1.716   1.991 -0.2161 -0.0898 -0.4352
  244MOL0     C32107   6.787   1.800   1.977  0.3458  0.2721 -1.1672
  244MOL0     C32108   6.776   1.895   1.873 -0.3295  0.7810 -0.4131
  244MOL0     C32109   6.666   1.980   1.866 -0.8880 -0.8057 -0.1542
  244MOL0     C32110   6.566   1.978   1.967  0.2169  0.1106 -0.0390
  244MOL0     O32111   6.455   2.057   1.960 -0.6939 -0.2302 -0.2173
  244MOL0     C32112   6.419   2.142   1.847  0.2265  0.1911 -0.8652
  244MOL0     C32113   6.327   2.256   1.890 -0.9761  0.3204 -0.5031
  244MOL0     C32114   6.187   2.210   1.923  0.2556 -0.0985 -0.1631
  244MOL0     C32115   6.095   2.331   1.940 -0.1167  0.2364 -0.6464
  244MOL0     C32116   5.966   2.296   1.994 -0.5064 -0.2352 -0.2971
  244MOL0     C32117   5.881   2.413   2.033 -0.5300 -0.2771 -0.4003
  244MOL0     C32118   5.734   2.394   2.076 -0.2750  0.0029  0.7688
  244MOL0     C32119   5.657   2.322   1.960 -0.3811  0.4591 -0.0174
  244MOL0    Cl32120   5.484   2.336   1.978  0.2528 -0.3708 -0.1757
  244MOL0     C32121   6.570   1.867   2.056  0.1192  0.1535  0.1331
  244MOL0     C32122   6.679   1.782   2.068 -0.8625 -0.0505  0.0149
  244MOL0     O32123   6.876   1.633   1.783  0.3060 -0.1395 -0.1072
  244MOL0     C32124   7.126   1.572   2.029 -0.7438  0.4946 -0.5929
  244MOL0     C32125   7.231   1.484   2.058 -1.0235 -0.8416  0.6660
  244MOL0     N32126   7.345   0.975   2.455 -0.0603  0.1844 -0.1154
  244MOL0     N32127   7.362   0.845   2.444  0.2651 -0.0407  0.2980
  244MOL0     C32128   8.476   0.364   2.805 -0.1040  0.8125 -0.4583
  244MOL0     C32129   8.608   0.394   2.777 -0.3678 -0.0816 -0.1199
  244MOL0     C32130   8.963   0.681   2.681 -0.3469 -0.3951  0.1841
  244MOL0     C32131   9.033   0.569   2.632 -0.3869  0.4430 -0.2096
  244MOL0     C32132   9.170   0.580   2.625  0.5570 -0.7088 -0.9751
  244MOL0     C32133   9.242   0.697   2.652 -0.4345  0.0602  1.3132
  244MOL0     O32134   9.378   0.715   2.637 -0.6312  0.1637 -0.2465
  244MOL0     C32135   9.450   0.596   2.614 -0.0268  1.6542  0.7928
  244MOL0     C32136   9.590   0.631   2.653  0.3413  1.1534  0.3476
  244MOL0     C32137   9.652   0.734   2.558  0.3655 -0.1165  0.0989
  244MOL0     C32138   9.808   0.738   2.547  0.2024 -0.4374 -0.0435
  244MOL0     C32139   9.863   0.782   2.678 -0.5289 -1.0599  0.8358
  244MOL0     C32140   9.914   0.795   2.786  0.6111 -0.1316 -0.5206
  244MOL0     C32141   9.165   0.804   2.692 -0.2256 -0.9365  0.5561
  244MOL0     C32142   9.033   0.800   2.710  1.2816  0.5680 -0.9659
  244MOL0     H32143   8.558   0.692   2.614 -0.2030  0.8849  0.1437
  244MOL0     H32144   8.321   0.620   2.649  0.4902  0.9965 -0.3378
  244MOL0     H32145   8.201   0.234   2.849 -0.2160  0.1027  0.2015
  244MOL0     H32146   8.254   0.246   2.678  2.8686  2.3035  0.1345
  244MOL0     H32147   8.011   0.401   2.755 -1.1380  1.5319 -1.8043
  244MOL0     H32148   7.991   0.220   2.753 -0.4784 -0.5403 -2.4960
  244MOL0     H32149   8.038   0.213   2.521 -4.4861 -1.6612  1.6956
  244MOL0     H32150   8.113   0.376   2.548  3.4200 -3.7535 -1.5551
  244MOL0     H32151   7.891   0.344   2.406 -3.6014  2.1159 -0.8317
  244MOL0     H32152   7.801   0.305   2.543 -0.1976  0.7331  1.0218
  244MOL0     H32153   7.929   0.574   2.517 -0.4960  0.0777 -0.4091
  244MOL0     H32154   7.825   0.527   2.649  2.9555 -0.5497  1.0301
  244MOL0     H32155   7.644   0.467   2.491  0.7825 -0.9063 -1.5003
  244MOL0     H32156   7.751   0.518   2.355  4.6810 -1.7760  1.4318
  244MOL0     H32157   7.640   0.685   2.586 -3.4281  0.8278 -0.5670
  244MOL0     H32158   7.758   0.751   2.470  1.7980 -2.3513 -0.2563
  244MOL0     H32159   7.490   0.623   2.403 -0.9573  0.8031  2.7243
  244MOL0     H32160   7.594   0.697   2.279 -1.1301 -2.7409  0.2623
  244MOL0     H32161   7.656   0.987   2.379 -2.2693  3.6278 -0.9059
  244MOL0     H32162   7.537   1.214   2.532 -3.9929 -1.8907  3.3541
  244MOL0     H32163   7.372   1.226   2.451  0.4376  1.2534 -2.3350
  244MOL0     H32164   7.625   1.239   2.303 -0.1577 -0.6518 -0.7106
  244MOL0     H32165   7.512   1.366   2.331  2.5799 -0.5973  1.3357
  244MOL0     H32166   7.466   1.115   2.201  0.4323 -0.9058  2.1828
  244MOL0     H32167   7.320   1.223   2.223 -0.1988 -0.9197  0.0551
  244MOL0     H32168   7.559   1.270   2.033  0.8257  2.9073  0.2185
  244MOL0     H32169   7.473   1.396   2.097 -0.0780  0.4885  0.2737
  244MOL0     H32170   7.194   1.262   1.796 -2.2170  1.5203 -3.4097
  244MOL0     H32171   7.006   1.413   1.752 -0.9712  2.8887 -0.5049
  244MOL0     H32172   6.848   1.901   1.792 -2.4505  0.7132 -2.4099
  244MOL0     H32173   6.657   2.048   1.782 -0.0658 -0.5772 -0.0616
  244MOL0     H32174   6.366   2.082   1.772 -0.9355 -1.0046  0.8337
  244MOL0     H32175   6.503   2.194   1.800  1.2851  0.6709  1.4345
  244MOL0     H32176   6.325   2.325   1.805 -1.4144  0.3989 -0.4343
  244MOL0     H32177   6.371   2.311   1.974 -1.9568  0.6791 -0.1976
  244MOL0     H32178   6.192   2.148   2.012  2.1775 -0.0959 -0.2261
  244MOL0     H32179   6.151   2.158   1.833 -1.1848  2.6579 -1.3238
  244MOL0     H32180   6.148   2.404   2.001 -0.3750 -0.1908  0.1062
  244MOL0     H32181   6.073   2.382   1.846  0.1532  4.3052  1.3083
  244MOL0     H32182   5.976   2.239   2.087 -4.5713 -0.4438  0.1895
  244MOL0     H32183   5.907   2.231   1.928  0.4861 -2.2801  0.7184
  244MOL0     H32184   5.883   2.473   1.941  2.2534 -0.1704 -0.3383
  244MOL0     H32185   5.917   2.470   2.119 -0.4249  0.4849 -0.9383
  244MOL0     H32186   5.737   2.346   2.175 -2.5258 -0.8681  0.4775
  244MOL0     H32187   5.683   2.491   2.078  1.7295  1.2722 -2.6961
  244MOL0     H32188   5.676   2.214   1.959  0.2759  0.5753 -0.3672
  244MOL0     H32189   5.677   2.367   1.862  2.0585 -0.3310  0.0693
  244MOL0     H32190   6.490   1.855   2.129 -0.4153 -2.6713 -0.8174
  244MOL0     H32191   6.688   1.720   2.157  2.5017  0.6394  0.2865
  244MOL0     H32192   7.113   1.655   2.097 -0.5640 -1.6863  2.2880
  244MOL0     H32193   7.287   1.508   2.149 -1.0555  0.7799  0.2969
  244MOL0     H32194   8.470   0.280   2.874  4.0650  1.1451  0.5848
  244MOL0     H32195   8.697   0.343   2.814 -1.5917 -0.2568  2.9119
  244MOL0     H32196   8.988   0.472   2.618 -1.9772  0.8119  1.8845
  244MOL0     H32197   9.210   0.485   2.590 -0.9934 -2.0096  0.5909
  244MOL0     H32198   9.437   0.563   2.511 -1.4803 -0.6801  1.6255
  244MOL0     H32199   9.416   0.513   2.677 -1.0666  1.1632 -0.3721
  244MOL0     H32200   9.595   0.650   2.761  2.8044  0.3033  0.4476
  244MOL0     H32201   9.635   0.532   2.642 -0.3260  0.7726  0.9676
  244MOL0     H32202   9.619   0.835   2.586  0.1624 -0.3536  0.7352
  244MOL0     H32203   9.625   0.713   2.455 -0.7203 -0.4666  0.4457
  244MOL0     H32204   9.862   0.650   2.510  0.8646 -0.3753  0.7455
  244MOL0     H32205   9.821   0.822   2.478 -1.6501 -0.9837 -1.1354
  244MOL0     H32206   9.952   0.821   2.883 -0.1306  1.2806 -0.5693
  244MOL0     H32207   9.209   0.900   2.716  0.1091 -1.2107  1.0748
  244MOL0     H32208   8.972   0.884   2.741  1.4034  0.3217 -0.0368
  245MOL0     O32209   5.936  10.717   4.153 -0.9487 -0.2705  0.6215
  245MOL0     C32210   6.037  10.712   4.076 -0.1797 -0.0786 -0.6694
  245MOL0     O32211   6.040  10.636   3.960  0.0262  0.3729  0.2633
  245MOL0     C32212   5.917  10.576   3.931 -0.0593  0.0924 -0.3749
  245MOL0     C32213   5.804  10.652   3.885 -0.6777  0.0468  1.1516
  245MOL0     C32214   5.678  10.598   3.880  0.5989  0.4330 -0.6427
  245MOL0     C32215   5.661  10.467   3.930 -0.4448 -0.3102 -0.3069
  245MOL0     O32216   5.539  10.404   3.945  0.9904 -0.0911 -0.3025
  245MOL0     C32217   5.419  10.481   3.912  0.1441 -1.0428 -0.9183
  245MOL0     C32218   5.303  10.378   3.906 -0.0211  0.2322 -0.3623
  245MOL0     C32219   5.159  10.432   3.878  0.5502  0.1510 -0.1551
  245MOL0     C32220   5.066  10.326   3.838  0.2538  0.5219  0.6461
  245MOL0     C32221   4.928  10.385   3.792 -0.1200  0.1786 -0.0249
  245MOL0     C32222   4.832  10.425   3.907  0.3151 -0.1860  0.2487
  245MOL0     C32223   4.699  10.486   3.867  0.7578 -0.3595 -1.0415
  245MOL0     C32224   4.591  10.487   3.979  0.4393 -0.8424 -0.7430
  245MOL0     N32225   4.454  10.530   3.938  0.2618  0.5548 -0.6859
  245MOL0     C32226   4.370  10.451   3.863 -0.5459 -0.2954 -0.3532
  245MOL0     C32227   4.250  10.517   3.856 -1.1446 -0.8842 -0.0311
  245MOL0     C32228   4.127  10.475   3.780 -0.3185  0.1359  0.2361
  245MOL0     C32229   4.110  10.561   3.649  0.1410  0.2131 -0.4975
  245MOL0     C32230   4.177  10.496   3.535 -0.3239  0.4289  0.6177
  245MOL0     C32231   4.324  10.530   3.508  0.1366 -0.0565  0.5279
  245MOL0     O32232   4.394  10.404   3.483  0.9165 -0.5453 -0.2673
  245MOL0     C32233   4.528  10.403   3.456  0.1239  0.0596 -0.9283
  245MOL0     C32234   4.601  10.283   3.473 -0.0926 -0.0706 -0.1555
  245MOL0     C32235   4.733  10.276   3.424 -0.2937 -0.1895 -0.7343
  245MOL0     C32236   4.791  10.390   3.375 -0.1152  0.1677 -0.2243
  245MOL0     C32237   4.939  10.390   3.348  0.7914  0.3553  0.4532
  245MOL0     O32238   5.009  10.286   3.403 -0.8937  0.0047  0.1767
  245MOL0     C32239   5.147  10.293   3.406 -0.7953  1.1567 -0.0678
  245MOL0     C32240   5.221  10.189   3.351 -0.0387 -0.0463  0.1865
  245MOL0     C32241   5.362  10.191   3.369  0.5118 -0.1815  0.0635
  245MOL0     C32242   5.422  10.285   3.450 -1.6516 -0.3608 -0.2241
  245MOL0     O32243   5.564  10.279   3.454  1.4990  0.6194  0.2173
  245MOL0     C32244   5.642  10.381   3.524  0.6737 -0.3164 -0.5080
  245MOL0     C32245   5.779  10.409   3.457  0.2257  0.1178  0.4327
  245MOL0     C32246   5.879  10.471   3.557 -0.1454  0.5342 -0.4960
  245MOL0     C32247   6.011  10.476   3.484 -0.1457 -0.3543 -0.4614
  245MOL0     C32248   6.124  10.503   3.584  0.0614 -0.2786  0.4309
  245MOL0     C32249   6.262  10.540   3.514 -0.2859  0.0704  0.5356
  245MOL0     C32250   6.362  10.602   3.615 -0.7460 -0.3533 -0.0406
  245MOL0     C32251   6.480  10.669   3.533 -0.4562 -0.8117  0.6529
  245MOL0    Cl32252   6.598  10.722   3.662 -0.3616  0.2289  0.1445
  245MOL0     C32253   5.351  10.385   3.512  0.3247  0.6305  0.3736
  245MOL0     C32254   5.211  10.385   3.487 -0.1438 -0.8355 -0.0425
  245MOL0     O32255   4.983  10.491   3.297  0.0638  0.0313 -0.3352
  245MOL0     C32256   4.715  10.505   3.356 -0.3548  0.4155 -0.8556
  245MOL0     C32257   4.584  10.512   3.397 -0.2225 -0.2809 -0.1104
  245MOL0     N32258   4.267  10.634   3.924  0.2755 -0.0662 -0.1409
  245MOL0     N32259   4.390  10.638   3.976 -0.2646  0.3775  0.2129
  245MOL0     C32260   5.769  10.397   3.978 -0.2908 -0.0287  0.7744
  245MOL0     C32261   5.901  10.450   3.984  0.2182  0.3607 -0.2894
  245MOL0     C32262   6.156  10.784   4.116  0.1035 -0.1274  0.3885
  245MOL0     C32263   6.142  10.877   4.216  0.2894 -0.4199 -0.3667
  245MOL0     C32264   6.252  10.951   4.256  0.0224  1.2263  0.5000
  245MOL0     C32265   6.374  10.928   4.204 -0.3506  0.5496 -0.4076
  245MOL0     O32266   6.479  11.008   4.241  0.0928  0.2549  0.7408
  245MOL0     C32267   6.466  11.132   4.181  0.3273 -0.8639 -0.5455
  245MOL0     C32268   6.609  11.200   4.160 -0.0763  1.2314  0.3912
  245MOL0     C32269   6.597  11.323   4.071  0.3508  0.1952 -0.2017
  245MOL0     C32270   6.538  11.430   4.158 -0.3721 -0.3776  0.0428
  245MOL0     C32271   6.522  11.561   4.088 -0.2399  0.2838  0.0269
  245MOL0     C32272   6.510  11.675   4.048  0.3010  0.1443  0.1974
  245MOL0     C32273   6.391  10.837   4.105 -0.4763  0.5679  0.0026
  245MOL0     C32274   6.279  10.767   4.055 -0.5258 -0.7262  0.2475
  245MOL0     H32275   5.833  10.756   3.869 -0.8961 -0.1759 -1.0751
  245MOL0     H32276   5.592  10.655   3.845  0.9766 -0.4542 -3.1904
  245MOL0     H32277   5.420  10.545   3.823  0.3728  2.4041  1.3681
  245MOL0     H32278   5.405  10.557   3.989  3.2912 -1.9589  0.7606
  245MOL0     H32279   5.303  10.326   4.002 -0.1900 -2.0512 -1.5455
  245MOL0     H32280   5.330  10.305   3.828 -0.2278  1.9653 -2.1469
  245MOL0     H32281   5.155  10.492   3.786 -0.1386 -0.0039 -0.2316
  245MOL0     H32282   5.120  10.477   3.969 -0.3272 -2.1645  0.6763
  245MOL0     H32283   5.105  10.273   3.751 -0.9876  0.1386  0.3136
  245MOL0     H32284   5.039  10.254   3.915  0.9137 -1.1094 -0.6015
  245MOL0     H32285   4.871  10.321   3.724 -2.2290  0.6110  1.2217
  245MOL0     H32286   4.943  10.479   3.738  1.2909 -0.7223 -1.2439
  245MOL0     H32287   4.890  10.493   3.970 -2.3398  0.3917  2.2145
  245MOL0     H32288   4.805  10.343   3.974 -0.5718  0.6357  0.9351
  245MOL0     H32289   4.715  10.592   3.844 -0.2457  0.2360  0.7902
  245MOL0     H32290   4.655  10.424   3.789 -2.4133  0.8702 -0.3769
  245MOL0     H32291   4.637  10.554   4.051 -1.8561 -2.1777  2.1839
  245MOL0     H32292   4.592  10.388   4.026  1.6940  0.5827  2.5437
  245MOL0     H32293   4.396  10.355   3.819  2.1000  0.6962 -1.1207
  245MOL0     H32294   4.044  10.486   3.851 -0.2736 -0.2873  0.3540
  245MOL0     H32295   4.125  10.368   3.759  0.5078 -0.1144  1.3646
  245MOL0     H32296   4.136  10.664   3.673 -1.5373  0.5430  0.0759
  245MOL0     H32297   4.009  10.571   3.609  0.0501 -0.2493 -0.3928
  245MOL0     H32298   4.175  10.389   3.555 -0.0784  0.8045  2.9895
  245MOL0     H32299   4.130  10.504   3.436  3.3500 -0.0716 -1.3660
  245MOL0     H32300   4.371  10.570   3.598 -1.6366  0.9248  1.0688
  245MOL0     H32301   4.331  10.606   3.429  1.5542 -0.1853  0.4937
  245MOL0     H32302   4.559  10.194   3.518  1.3040 -3.5146 -4.8135
  245MOL0     H32303   4.790  10.183   3.431 -0.2466 -0.0573  2.4552
  245MOL0     H32304   5.167  10.113   3.295 -0.4387  1.5145 -1.6474
  245MOL0     H32305   5.429  10.117   3.327  1.4231  0.5280  0.2247
  245MOL0     H32306   5.651  10.359   3.631 -0.2320  3.0159  0.3875
  245MOL0     H32307   5.589  10.476   3.517  1.9950  0.5265  0.3850
  245MOL0     H32308   5.752  10.465   3.366 -2.6983 -0.2697  0.9573
  245MOL0     H32309   5.821  10.319   3.411  0.5062  0.8308 -0.7635
  245MOL0     H32310   5.888  10.406   3.644 -0.9072 -0.6906 -1.3005
  245MOL0     H32311   5.852  10.571   3.592  0.9785  0.5790  0.2979
  245MOL0     H32312   6.028  10.380   3.436 -0.6729 -1.9980  2.3954
  245MOL0     H32313   6.022  10.551   3.405 -1.3438 -1.4287 -1.6990
  245MOL0     H32314   6.142  10.414   3.645  3.3643 -0.2629 -0.3060
  245MOL0     H32315   6.086  10.585   3.645 -1.1976  0.9858 -1.9452
  245MOL0     H32316   6.248  10.610   3.431 -2.8104  1.7009  2.1677
  245MOL0     H32317   6.303  10.445   3.480 -2.1130 -1.0261  1.2095
  245MOL0     H32318   6.323  10.676   3.685  2.5320  0.5531  1.0379
  245MOL0     H32319   6.419  10.527   3.670 -1.2893 -1.4418 -0.9457
  245MOL0     H32320   6.453  10.758   3.475 -0.0494 -0.4158  1.0630
  245MOL0     H32321   6.527  10.595   3.468  0.9113 -1.0393  1.8535
  245MOL0     H32322   5.389  10.460   3.581  0.7718 -1.0175  1.9816
  245MOL0     H32323   5.155  10.455   3.548 -0.4212 -1.2382  0.1696
  245MOL0     H32324   4.754  10.599   3.320 -2.4559  0.9969 -1.7692
  245MOL0     H32325   4.539  10.610   3.384 -1.8418 -0.6955  1.8944
  245MOL0     H32326   5.752  10.296   4.015  0.5862 -1.1611 -1.6646
  245MOL0     H32327   5.981  10.397   4.035 -0.0001  4.3192  4.9255
  245MOL0     H32328   6.044  10.903   4.253  0.2198 -0.0497 -0.7988
  245MOL0     H32329   6.246  11.035   4.324 -0.7354  0.3863  1.4964
  245MOL0     H32330   6.413  11.186   4.260 -0.4829 -1.8139 -0.4150
  245MOL0     H32331   6.418  11.131   4.082 -0.0317 -1.3943 -0.3666
  245MOL0     H32332   6.649  11.215   4.261 -0.0883  2.4050  0.2365
  245MOL0     H32333   6.674  11.124   4.116 -2.5874 -0.3785 -0.7784
  245MOL0     H32334   6.533  11.309   3.983 -0.8329  1.7052  0.3697
  245MOL0     H32335   6.693  11.355   4.030  1.3315  1.2385  2.7227
  245MOL0     H32336   6.436  11.398   4.183  0.0905 -0.0206  2.6406
  245MOL0     H32337   6.601  11.436   4.247  1.1769 -0.2313 -1.0402
  245MOL0     H32338   6.485  11.775   4.019  1.5059  0.7330  1.1015
  245MOL0     H32339   6.494  10.834   4.072  0.1751  0.4707  1.8788
  245MOL0     H32340   6.292  10.696   3.974  1.8355 -0.3937  0.2571
  246MOL0     O32341   6.112   8.243   2.546 -0.3021 -0.1215  0.2284
  246MOL0     C32342   6.141   8.256   2.665  0.8423 -0.8062  0.5531
  246MOL0     O32343   6.044   8.276   2.756 -0.0185 -0.4369 -0.1383
  246MOL0     C32344   5.911   8.292   2.715  0.2516  0.7821 -0.2444
  246MOL0     C32345   5.832   8.188   2.656 -0.1472 -0.2758 -0.5350
  246MOL0     C32346   5.701   8.214   2.617 -0.1291  0.8673 -0.7536
  246MOL0     C32347   5.641   8.341   2.642 -0.4592  0.7798  0.3360
  246MOL0     O32348   5.520   8.367   2.601  0.5393 -0.3418  0.0036
  246MOL0     C32349   5.496   8.499   2.545  0.6892 -0.1327 -0.0675
  246MOL0     C32350   5.367   8.483   2.458  0.2443  0.5980  0.6036
  246MOL0     C32351   5.367   8.360   2.360  0.3988  0.4868 -0.4934
  246MOL0     C32352   5.471   8.364   2.250 -0.6779 -0.4407  0.8149
  246MOL0     C32353   5.524   8.231   2.203 -0.1419 -0.0495  1.3472
  246MOL0     C32354   5.664   8.250   2.127 -0.2809 -0.7891  0.0759
  246MOL0     C32355   5.708   8.115   2.066 -0.0743  0.7248  0.3098
  246MOL0     C32356   5.723   8.098   1.922  0.0621 -0.0924 -0.8290
  246MOL0     N32357   5.593   8.074   1.854 -0.8569 -0.6617 -0.7415
  246MOL0     C32358   5.490   7.987   1.890  0.4556  0.1286  0.2088
  246MOL0     C32359   5.414   7.972   1.780  0.4791 -0.1894 -0.1048
  246MOL0     C32360   5.300   7.873   1.765  1.3725 -0.4966  0.8045
  246MOL0     C32361   5.223   7.903   1.636 -0.5237 -0.0010  0.4470
  246MOL0     C32362   5.138   8.030   1.612  0.1148  0.6428 -0.6642
  246MOL0     C32363   5.037   8.046   1.732  0.3452  0.4862  0.6796
  246MOL0     O32364   4.955   8.161   1.716 -0.7800  0.1460 -0.1598
  246MOL0     C32365   4.824   8.162   1.658 -1.4185  0.1199 -0.1851
  246MOL0     C32366   4.755   8.272   1.695 -0.6776 -0.5324 -0.2742
  246MOL0     C32367   4.629   8.283   1.656 -0.4410  0.4935  0.0434
  246MOL0     C32368   4.557   8.174   1.588  0.1143 -0.9848  1.1088
  246MOL0     C32369   4.414   8.181   1.564  0.0839 -0.1785  0.3521
  246MOL0     O32370   4.358   8.094   1.474  0.0676 -0.7870 -0.0074
  246MOL0     C32371   4.223   8.108   1.438  0.8330  0.5217 -0.6597
  246MOL0     C32372   4.165   7.987   1.425  0.9329 -0.0022 -0.1642
  246MOL0     C32373   4.025   7.976   1.388  0.1979 -0.3475  0.3906
  246MOL0     C32374   3.962   8.088   1.338  0.6819 -0.4738  0.9172
  246MOL0     O32375   3.832   8.081   1.291 -0.7101  0.2712  0.2699
  246MOL0     C32376   3.720   8.074   1.381 -0.7671  0.5981 -0.1480
  246MOL0     C32377   3.676   7.934   1.402  0.9466  0.2895  0.5013
  246MOL0     C32378   3.527   7.923   1.431 -0.3393 -0.9306 -0.4229
  246MOL0     C32379   3.503   7.780   1.465  0.4679 -0.7631  0.0441
  246MOL0     C32380   3.543   7.671   1.364  0.6293  0.4114  0.1940
  246MOL0     C32381   3.483   7.688   1.219  0.1572 -1.2571  0.0488
  246MOL0     C32382   3.326   7.726   1.206  0.7062 -0.8154  1.1110
  246MOL0     C32383   3.242   7.621   1.265  1.1939  0.1284  0.3500
  246MOL0    Cl32384   3.255   7.485   1.158  0.0606  0.0580  0.2268
  246MOL0     C32385   4.024   8.218   1.349  0.0077 -0.0080 -1.0621
  246MOL0     C32386   4.157   8.221   1.396 -0.0633 -0.5715 -0.1704
  246MOL0     O32387   4.359   8.271   1.624 -0.2280  0.2036  0.3826
  246MOL0     C32388   4.628   8.062   1.553  0.0502 -0.5018  0.0256
  246MOL0     C32389   4.765   8.061   1.582  0.0592 -0.5365  0.7819
  246MOL0     N32390   5.451   8.061   1.688  0.1616 -0.2453  0.0542
  246MOL0     N32391   5.562   8.114   1.733 -0.4346 -0.0883  0.5902
  246MOL0     C32392   5.731   8.435   2.694 -0.1844 -0.4104  1.0336
  246MOL0     C32393   5.860   8.421   2.728 -0.4815 -0.2627  0.9194
  246MOL0     C32394   6.285   8.240   2.709 -0.0697  0.5519 -0.3501
  246MOL0     C32395   6.308   8.220   2.846 -0.1402  0.2154  0.7509
  246MOL0     C32396   6.435   8.176   2.886  0.3893  0.0083 -0.5635
  246MOL0     C32397   6.540   8.148   2.789  0.5204 -0.1866  0.7365
  246MOL0     O32398   6.665   8.106   2.834  0.7423 -0.0097 -0.3939
  246MOL0     C32399   6.748   8.036   2.747 -0.0356 -0.2940  0.1659
  246MOL0     C32400   6.861   7.982   2.837  0.2913  0.4234  0.2451
  246MOL0     C32401   6.810   7.904   2.958 -0.7405 -0.4714  0.1956
  246MOL0     C32402   6.921   7.857   3.052 -0.2291 -0.4974 -0.1423
  246MOL0     C32403   6.993   7.744   2.985 -0.1723 -0.3703 -0.6997
  246MOL0     C32404   7.054   7.648   2.955 -0.1490  0.4415 -1.2362
  246MOL0     C32405   6.512   8.163   2.650  1.5422 -0.0822  0.2325
  246MOL0     C32406   6.387   8.211   2.613  0.1912  0.4689  0.0603
  246MOL0     H32407   5.888   8.097   2.640  1.0063  0.0430  1.3749
  246MOL0     H32408   5.635   8.146   2.564 -0.3937 -0.3362  1.0315
  246MOL0     H32409   5.582   8.540   2.492 -0.7557  2.6701 -0.4101
  246MOL0     H32410   5.477   8.567   2.629  0.7265  0.8476 -0.8445
  246MOL0     H32411   5.363   8.575   2.398 -0.1508 -0.4236 -0.9739
  246MOL0     H32412   5.276   8.476   2.518  0.6329 -2.3638  0.9962
  246MOL0     H32413   5.268   8.360   2.312  0.3449  0.0782 -0.3837
  246MOL0     H32414   5.387   8.274   2.425  0.5098  0.7044 -0.2401
  246MOL0     H32415   5.422   8.408   2.163 -1.7459  0.4356  1.8270
  246MOL0     H32416   5.549   8.433   2.284  0.7686 -2.1019  1.0703
  246MOL0     H32417   5.459   8.180   2.131  1.8069  0.8757 -1.2331
  246MOL0     H32418   5.542   8.159   2.284 -0.6298 -2.0148 -0.1999
  246MOL0     H32419   5.748   8.283   2.190  0.0760 -0.7675 -0.4058
  246MOL0     H32420   5.649   8.322   2.047 -0.0447 -0.1870  0.5667
  246MOL0     H32421   5.802   8.081   2.110  1.7822  2.0562 -2.3027
  246MOL0     H32422   5.637   8.043   2.107 -0.4032  0.9623  0.1713
  246MOL0     H32423   5.786   8.015   1.886  0.5435  0.2280 -0.7378
  246MOL0     H32424   5.769   8.191   1.888 -0.1858  0.3382 -0.0170
  246MOL0     H32425   5.481   7.939   1.986 -1.6271 -1.0510 -0.5303
  246MOL0     H32426   5.233   7.878   1.851  0.1962 -2.9351  0.1228
  246MOL0     H32427   5.339   7.772   1.751 -1.7630 -1.3639 -3.8574
  246MOL0     H32428   5.162   7.813   1.620  1.0707 -1.1418  0.5818
  246MOL0     H32429   5.298   7.895   1.557 -1.1769  1.8495 -0.4248
  246MOL0     H32430   5.188   8.126   1.596 -2.0656  1.4636 -3.5028
  246MOL0     H32431   5.078   8.022   1.520  0.6719  1.5976 -1.1294
  246MOL0     H32432   5.098   8.050   1.823  0.2893  0.3287  0.7245
  246MOL0     H32433   4.971   7.959   1.741  1.9183 -0.7188  1.1403
  246MOL0     H32434   4.799   8.360   1.740  0.0667 -0.8183 -0.4206
  246MOL0     H32435   4.575   8.376   1.667 -1.8893 -0.3393  0.2691
  246MOL0     H32436   4.215   7.900   1.465 -0.6972 -0.3017  1.3450
  246MOL0     H32437   3.996   7.872   1.378  0.3731 -0.2858 -0.9370
  246MOL0     H32438   3.633   8.123   1.337 -0.5944 -1.0238 -2.4535
  246MOL0     H32439   3.749   8.133   1.468  0.2865 -1.1180  0.7389
  246MOL0     H32440   3.728   7.888   1.487 -1.6815 -1.4897  1.2858
  246MOL0     H32441   3.694   7.880   1.309  1.0095 -0.0422  0.7044
  246MOL0     H32442   3.460   7.955   1.350  0.3868  1.4532 -0.1707
  246MOL0     H32443   3.491   7.983   1.515  0.2559 -1.6570  0.3672
  246MOL0     H32444   3.546   7.755   1.562  1.1482  2.0156  0.5308
  246MOL0     H32445   3.396   7.770   1.483  0.2199 -0.9669 -1.3709
  246MOL0     H32446   3.511   7.578   1.414 -2.0535  1.4507  0.5809
  246MOL0     H32447   3.651   7.677   1.354  0.8218 -1.5713  0.6430
  246MOL0     H32448   3.497   7.592   1.169 -0.2775 -0.4107 -1.7769
  246MOL0     H32449   3.538   7.772   1.174  1.2370 -0.9917  1.7462
  246MOL0     H32450   3.290   7.825   1.236 -1.2147 -0.4381 -2.0046
  246MOL0     H32451   3.300   7.737   1.101 -1.0573  0.4843  1.6432
  246MOL0     H32452   3.139   7.656   1.260  1.7215  1.6004 -1.3451
  246MOL0     H32453   3.280   7.599   1.365 -2.6472 -2.1207  1.5122
  246MOL0     H32454   3.964   8.307   1.332 -1.3344 -0.8296 -0.8342
  246MOL0     H32455   4.217   8.312   1.391 -2.0914  0.8180 -0.1616
  246MOL0     H32456   4.574   7.979   1.508 -3.3412  1.2609  0.5022
  246MOL0     H32457   4.829   7.979   1.551  1.5356  0.5893  0.7338
  246MOL0     H32458   5.690   8.534   2.715  1.4493  0.9962 -1.7871
  246MOL0     H32459   5.923   8.501   2.767  0.8509  0.6591 -2.7284
  246MOL0     H32460   6.227   8.243   2.914  0.2034  0.2104  1.1683
  246MOL0     H32461   6.448   8.156   2.992  1.7975 -0.5716 -0.8123
  246MOL0     H32462   6.787   8.093   2.662 -0.3673 -1.1993 -0.6115
  246MOL0     H32463   6.694   7.952   2.702 -2.0055  1.2340 -0.4319
  246MOL0     H32464   6.932   7.918   2.784  1.6842  1.8894  0.2777
  246MOL0     H32465   6.914   8.070   2.874  1.2292 -1.0260  2.5902
  246MOL0     H32466   6.747   7.825   2.918 -0.5102  0.5173 -2.3074
  246MOL0     H32467   6.751   7.974   3.018 -0.9778 -1.3009  0.9540
  246MOL0     H32468   6.998   7.931   3.072 -1.5870  0.8433  0.3520
  246MOL0     H32469   6.867   7.827   3.142 -0.2445  1.2634  0.4705
  246MOL0     H32470   7.104   7.558   2.928 -1.5093 -0.3522 -1.2262
  246MOL0     H32471   6.580   8.138   2.569  2.1051  1.6496  0.1308
  246MOL0     H32472   6.373   8.219   2.506  0.9823 -0.6053 -0.1487
  247MOL0     O32473   8.562   2.431   4.487  0.4867  0.2111 -0.1210
  247MOL0     C32474   8.612   2.447   4.598 -0.1349 -0.2736  0.1108
  247MOL0     O32475   8.549   2.489   4.707 -0.4031  0.5976 -0.0509
  247MOL0     C32476   8.415   2.533   4.689  0.4983 -0.1768 -0.5233
  247MOL0     C32477   8.308   2.445   4.730  0.2070  0.2572  0.5016
  247MOL0     C32478   8.179   2.487   4.708 -0.5291  0.1437  0.4090
  247MOL0     C32479   8.149   2.601   4.638  0.7081  0.3894  0.2071
  247MOL0     O32480   8.016   2.621   4.614  0.8294  0.2684 -0.6658
  247MOL0     C32481   7.995   2.711   4.501  0.4261  0.0299  0.1149
  247MOL0     C32482   7.843   2.704   4.465 -1.5701  1.0721  0.0169
  247MOL0     C32483   7.809   2.578   4.381 -0.2320 -0.5596  0.3903
  247MOL0     C32484   7.671   2.597   4.323 -0.2582  0.7043  1.3226
  247MOL0     C32485   7.621   2.463   4.260 -0.6377 -0.4234 -0.1416
  247MOL0     C32486   7.531   2.485   4.140 -0.0494  0.2258  0.0831
  247MOL0     C32487   7.419   2.592   4.152 -0.7102  0.3845 -0.0483
  247MOL0     C32488   7.386   2.654   4.019  1.4702  0.8441 -0.5798
  247MOL0     N32489   7.260   2.733   4.025 -0.0733  0.0232  0.0493
  247MOL0     C32490   7.137   2.685   3.982  0.3655  0.5212  0.2482
  247MOL0     C32491   7.053   2.791   4.010 -0.3459 -0.7493  0.2409
  247MOL0     C32492   6.906   2.805   3.979 -0.3691  0.0324 -0.1374
  247MOL0     C32493   6.826   2.685   4.025  0.3557  0.9714  0.5549
  247MOL0     C32494   6.673   2.718   4.029  0.2888 -0.2746  0.3656
  247MOL0     C32495   6.595   2.597   4.074 -0.3090  0.2349 -1.1631
  247MOL0     O32496   6.458   2.609   4.039 -0.9625 -0.0295 -0.5443
  247MOL0     C32497   6.374   2.502   4.038 -0.0052 -0.4927 -0.3599
  247MOL0     C32498   6.268   2.507   3.951 -0.5629 -0.0672  0.9249
  247MOL0     C32499   6.169   2.405   3.939 -0.1509  0.2012 -0.4978
  247MOL0     C32500   6.187   2.289   4.017 -0.3038  0.3892 -0.2483
  247MOL0     C32501   6.093   2.179   4.017  0.3749  0.0896 -0.3178
  247MOL0     O32502   5.985   2.200   3.938 -0.8912 -0.7310 -0.4942
  247MOL0     C32503   5.877   2.120   3.945  0.5734  0.8942  0.1704
  247MOL0     C32504   5.775   2.150   4.039 -0.7862 -0.3604  0.5567
  247MOL0     C32505   5.659   2.078   4.047 -0.2759  0.1685  0.0383
  247MOL0     C32506   5.634   1.973   3.945 -1.1128 -0.6720 -0.1394
  247MOL0     O32507   5.515   1.908   3.944  0.0074  0.4060 -0.0834
  247MOL0     C32508   5.445   1.897   3.824 -0.7543  0.6149  0.2097
  247MOL0     C32509   5.299   1.857   3.844 -0.2269 -0.7612 -0.5624
  247MOL0     C32510   5.241   1.973   3.940 -1.2786  0.4454  0.7525
  247MOL0     C32511   5.149   2.082   3.882  0.0009 -0.7945 -0.0584
  247MOL0     C32512   5.074   2.175   3.979 -0.4555  1.0439 -0.1842
  247MOL0     C32513   4.986   2.274   3.904 -0.0321 -0.8403  0.5306
  247MOL0     C32514   4.957   2.397   3.995 -0.2656  0.4360 -0.0755
  247MOL0     C32515   5.079   2.495   4.000 -0.4203 -0.4976 -0.2814
  247MOL0    Cl32516   5.035   2.661   4.066  0.2783 -0.2929 -0.4073
  247MOL0     C32517   5.726   1.953   3.842 -0.7460 -0.2299  0.0051
  247MOL0     C32518   5.857   2.010   3.859 -0.2145  0.2758 -0.3434
  247MOL0     O32519   6.114   2.084   4.089  0.0507 -0.0576  0.5135
  247MOL0     C32520   6.291   2.285   4.109 -0.6718  0.9045  0.7038
  247MOL0     C32521   6.387   2.387   4.114 -0.3541 -0.5279 -0.9924
  247MOL0     N32522   7.126   2.892   4.075  0.3568 -0.3826  0.6295
  247MOL0     N32523   7.250   2.855   4.089 -0.4873  0.2289  0.1419
  247MOL0     C32524   8.264   2.692   4.601 -0.1633  0.4981 -0.3727
  247MOL0     C32525   8.394   2.653   4.625  1.1612  0.6734  0.2957
  247MOL0     C32526   8.754   2.425   4.609 -0.0831  0.0118 -0.9453
  247MOL0     C32527   8.834   2.436   4.498 -0.2704  0.5581  0.7191
  247MOL0     C32528   8.973   2.418   4.501  0.7424  0.8814  0.1231
  247MOL0     C32529   9.035   2.404   4.625  0.4640  0.0747 -0.8663
  247MOL0     O32530   9.173   2.411   4.632 -0.1039  1.0841 -0.7155
  247MOL0     C32531   9.229   2.426   4.760 -0.9805 -0.1756  0.9422
  247MOL0     C32532   9.263   2.293   4.829  0.2842  0.7089 -0.6900
  247MOL0     C32533   9.399   2.238   4.782 -0.3207 -1.1298 -0.3734
  247MOL0     C32534   9.445   2.113   4.859  0.0247  0.5020 -0.7065
  247MOL0     C32535   9.489   2.149   4.994  0.2282 -0.5220  0.3477
  247MOL0     C32536   9.519   2.185   5.106 -0.1202  0.0016  0.4028
  247MOL0     C32537   8.955   2.398   4.742  0.9310 -0.9780 -0.7754
  247MOL0     C32538   8.817   2.397   4.729 -0.0098 -0.3472  0.0723
  247MOL0     H32539   8.337   2.353   4.779  0.3192 -0.3473 -0.6759
  247MOL0     H32540   8.103   2.417   4.743  0.7919 -0.5719  1.9391
  247MOL0     H32541   8.048   2.678   4.411 -1.2458 -0.5162 -0.7019
  247MOL0     H32542   8.016   2.815   4.528 -0.4709  0.1006  0.5751
  247MOL0     H32543   7.821   2.789   4.399 -2.5127  0.7369 -0.1280
  247MOL0     H32544   7.789   2.733   4.556  0.6306  1.4272  1.2600
  247MOL0     H32545   7.805   2.499   4.457 -2.2482 -0.5922  0.2896
  247MOL0     H32546   7.882   2.561   4.301  0.3182 -3.1504  1.3618
  247MOL0     H32547   7.594   2.628   4.395 -0.6238 -0.8973  1.6735
  247MOL0     H32548   7.668   2.670   4.241 -3.3575 -0.4118  0.2794
  247MOL0     H32549   7.558   2.415   4.335  1.1798  0.9351  2.4010
  247MOL0     H32550   7.706   2.396   4.242 -0.4051 -0.5441  1.2880
  247MOL0     H32551   7.465   2.399   4.126  1.5587 -0.6625 -2.9148
  247MOL0     H32552   7.592   2.493   4.049  0.4832  2.4782  0.5840
  247MOL0     H32553   7.330   2.539   4.189  0.2116 -0.5359  0.9084
  247MOL0     H32554   7.446   2.674   4.220 -2.3938 -0.5799  1.9044
  247MOL0     H32555   7.381   2.570   3.949  3.8203 -1.5165  1.8249
  247MOL0     H32556   7.467   2.716   3.980  2.9782 -0.0602  0.9331
  247MOL0     H32557   7.114   2.592   3.931  0.6677  0.0433  0.9635
  247MOL0     H32558   6.890   2.822   3.872 -0.6592 -3.0473 -0.6769
  247MOL0     H32559   6.875   2.894   4.035  0.9326 -0.8723  2.0996
  247MOL0     H32560   6.854   2.655   4.127  0.0118 -3.4464 -0.4504
  247MOL0     H32561   6.852   2.607   3.953  0.6438  3.5470 -2.3102
  247MOL0     H32562   6.661   2.805   4.094  0.7487  1.9920 -2.3747
  247MOL0     H32563   6.626   2.750   3.935 -1.5225 -1.7811  0.7107
  247MOL0     H32564   6.614   2.579   4.180 -0.3806  1.1235 -0.9883
  247MOL0     H32565   6.624   2.514   4.009 -1.6571 -0.8442 -0.4338
  247MOL0     H32566   6.265   2.596   3.889 -1.2546  0.6540  1.9667
  247MOL0     H32567   6.087   2.407   3.868 -0.8132 -0.7276  0.2053
  247MOL0     H32568   5.783   2.247   4.087  1.7427 -1.3207  2.2663
  247MOL0     H32569   5.581   2.108   4.116 -0.1585  2.5982 -0.8005
  247MOL0     H32570   5.496   1.820   3.766 -0.6575 -2.1483  3.5808
  247MOL0     H32571   5.445   1.996   3.778 -0.2002  0.2408 -0.6152
  247MOL0     H32572   5.285   1.761   3.893 -2.2245 -0.5951 -0.7554
  247MOL0     H32573   5.244   1.856   3.749  0.8750 -1.8227 -1.2234
  247MOL0     H32574   5.321   2.017   3.999 -1.6168 -1.5598  2.8788
  247MOL0     H32575   5.177   1.910   4.004 -1.1649  0.6546  1.0740
  247MOL0     H32576   5.218   2.143   3.823  2.4225 -0.7706  2.6423
  247MOL0     H32577   5.078   2.038   3.811  0.4833 -1.0132 -0.4076
  247MOL0     H32578   5.142   2.210   4.057  0.0318 -2.6537  1.2028
  247MOL0     H32579   5.006   2.113   4.037 -1.1820  0.2175 -1.8540
  247MOL0     H32580   4.887   2.240   3.870 -0.4609 -0.7618  1.6598
  247MOL0     H32581   5.035   2.311   3.814 -2.8683  3.5577  0.4760
  247MOL0     H32582   4.870   2.450   3.957 -1.0672  0.3502  1.5427
  247MOL0     H32583   4.932   2.370   4.098 -1.6412  2.8364  0.2835
  247MOL0     H32584   5.118   2.513   3.899  0.5064  1.0812  0.3247
  247MOL0     H32585   5.151   2.443   4.064  0.0613  2.3551  1.6580
  247MOL0     H32586   5.699   1.884   3.762  0.7113 -1.2246  0.3248
  247MOL0     H32587   5.941   1.971   3.801 -1.5585 -1.8327 -1.0097
  247MOL0     H32588   6.299   2.197   4.172 -1.3216 -1.0947 -1.8875
  247MOL0     H32589   6.475   2.366   4.175  2.2276  1.0575 -3.8740
  247MOL0     H32590   8.239   2.787   4.553 -4.5649 -0.5435 -0.5903
  247MOL0     H32591   8.478   2.706   4.581  0.4549 -0.3637 -2.5047
  247MOL0     H32592   8.787   2.438   4.400  1.5663  0.6505 -0.2042
  247MOL0     H32593   9.026   2.417   4.407  0.1036  0.1641 -0.2486
  247MOL0     H32594   9.170   2.494   4.821 -0.9940 -0.5317  1.3333
  247MOL0     H32595   9.319   2.483   4.732 -1.2871 -0.2820 -0.3471
  247MOL0     H32596   9.271   2.330   4.931  0.0700  1.3404 -0.9000
  247MOL0     H32597   9.186   2.215   4.822  1.6972 -0.6155 -3.3146
  247MOL0     H32598   9.469   2.319   4.805  0.5424 -1.5755 -1.3563
  247MOL0     H32599   9.395   2.223   4.674 -0.7316  0.8455 -0.6754
  247MOL0     H32600   9.377   2.028   4.851 -0.5893  1.0209 -1.1274
  247MOL0     H32601   9.537   2.076   4.813 -1.1273  1.1367 -3.7692
  247MOL0     H32602   9.561   2.219   5.198 -2.2175 -0.1894  1.5032
  247MOL0     H32603   8.993   2.394   4.844  3.2449  1.4471 -1.4205
  247MOL0     H32604   8.754   2.396   4.817 -2.3828 -1.2628 -1.5458
  248MOL0     O32605   1.765   8.110   2.677  0.4114  0.1486 -0.7530
  248MOL0     C32606   1.765   7.988   2.678 -0.0511  0.1291 -0.2687
  248MOL0     O32607   1.648   7.911   2.676 -0.5170  0.1039  0.2232
  248MOL0     C32608   1.525   7.968   2.662  0.4544 -0.1401 -0.5910
  248MOL0     C32609   1.417   7.874   2.676  0.3110  0.2347 -0.2497
  248MOL0     C32610   1.281   7.909   2.654  1.1238  0.0151 -0.9276
  248MOL0     C32611   1.245   8.045   2.640 -0.4354  0.0866 -0.2405
  248MOL0     O32612   1.118   8.103   2.637 -0.6420 -0.5239 -0.1959
  248MOL0     C32613   1.008   8.020   2.603  0.1883 -0.0468 -0.0127
  248MOL0     C32614   0.882   8.102   2.578 -0.2172  0.3536  0.0358
  248MOL0     C32615   0.775   8.020   2.514  0.6059 -0.4384 -0.7070
  248MOL0     C32616   0.647   8.106   2.513 -0.4558 -0.0484 -0.2358
  248MOL0     C32617   0.509   8.039   2.497 -0.0227 -0.4676 -0.5964
  248MOL0     C32618   0.403   8.152   2.475 -0.1098 -0.3504 -0.5029
  248MOL0     C32619   0.250   8.124   2.460 -0.1610 -0.1199 -0.0927
  248MOL0     C32620   0.182   8.071   2.584 -0.0926 -0.5135 -0.2843
  248MOL0     N32621   0.035   8.058   2.558  0.0579 -0.2218 -0.5097
  248MOL0     C32622  -0.033   7.982   2.475  0.2176  0.4497  0.5985
  248MOL0     C32623  -0.163   7.999   2.504  0.0066  0.5301  0.6875
  248MOL0     C32624  -0.272   7.904   2.453 -0.2834 -0.2943  0.1886
  248MOL0     C32625  -0.393   7.893   2.550 -0.2303 -0.0420  0.0332
  248MOL0     C32626  -0.475   7.769   2.537 -0.3973  0.4338  0.6972
  248MOL0     C32627  -0.589   7.776   2.632  0.5447  0.8931 -0.0026
  248MOL0     O32628  -0.670   7.662   2.594 -0.1497  0.4427  0.9163
  248MOL0     C32629  -0.781   7.626   2.658  0.4488 -1.0252 -0.1745
  248MOL0     C32630  -0.818   7.499   2.650 -0.4454  0.2302 -0.7633
  248MOL0     C32631  -0.945   7.461   2.697  0.6255 -0.1808 -0.0277
  248MOL0     C32632  -1.032   7.551   2.762 -0.5747  0.0619 -0.1815
  248MOL0     C32633  -1.153   7.507   2.829  0.0388  0.9611 -0.2159
  248MOL0     O32634  -1.227   7.609   2.881 -0.2878  0.5578 -0.0835
  248MOL0     C32635  -1.363   7.601   2.896  0.6494 -0.1527 -0.0112
  248MOL0     C32636  -1.421   7.646   3.021 -0.2351  0.3396 -0.0485
  248MOL0     C32637  -1.556   7.631   3.043  0.1211 -0.0263 -0.1582
  248MOL0     C32638  -1.636   7.582   2.944 -0.4911  0.0348  0.4423
  248MOL0     O32639  -1.766   7.570   2.988 -0.4548 -0.1492  0.7185
  248MOL0     C32640  -1.868   7.500   2.911 -0.1898 -0.1213 -0.0128
  248MOL0     C32641  -1.997   7.517   2.989  0.6716 -0.4318  0.0048
  248MOL0     C32642  -2.097   7.424   2.924  0.1885  0.5377  0.4144
  248MOL0     C32643  -2.237   7.433   2.998 -0.1166 -0.3604 -0.1698
  248MOL0     C32644  -2.347   7.387   2.908  0.2284  0.4840 -0.5843
  248MOL0     C32645  -2.466   7.336   2.988  0.2197 -0.4341  0.1080
  248MOL0     C32646  -2.567   7.311   2.885 -0.1759 -0.8246 -0.1650
  248MOL0     C32647  -2.692   7.234   2.926  0.5087 -0.8302 -0.4422
  248MOL0    Cl32648  -2.652   7.063   2.972  0.4219  0.0750 -0.0210
  248MOL0     C32649  -1.593   7.552   2.825 -0.3436  0.6377 -0.0869
  248MOL0     C32650  -1.453   7.553   2.798 -0.4677  1.6202  0.3876
  248MOL0     O32651  -1.192   7.392   2.813 -0.0616  0.3787 -0.3719
  248MOL0     C32652  -0.992   7.688   2.757  0.1866  0.4994 -0.2895
  248MOL0     C32653  -0.868   7.722   2.709  0.1702  1.0141 -0.4700
  248MOL0     N32654  -0.171   8.083   2.609  0.1057  0.1041 -0.2684
  248MOL0     N32655  -0.051   8.120   2.645 -0.7576  0.5322  0.1143
  248MOL0     C32656   1.345   8.143   2.614 -0.0964  0.2727 -0.1223
  248MOL0     C32657   1.479   8.110   2.627 -1.0272  0.4422  0.4192
  248MOL0     C32658   1.898   7.927   2.656  0.6134 -0.2037 -0.1595
  248MOL0     C32659   2.010   8.006   2.673  0.0686  0.1270 -0.3423
  248MOL0     C32660   2.136   7.968   2.623 -0.0148 -0.7655 -0.0949
  248MOL0     C32661   2.153   7.847   2.567  0.2325 -0.2114  0.0287
  248MOL0     O32662   2.269   7.823   2.506 -0.1856  0.0945  0.3040
  248MOL0     C32663   2.327   7.686   2.511  0.5528  0.0866 -0.0954
  248MOL0     C32664   2.411   7.675   2.636  0.0934 -0.6457 -0.2761
  248MOL0     C32665   2.522   7.781   2.647  0.1067  0.6776  0.6919
  248MOL0     C32666   2.615   7.800   2.524 -0.8333  0.3823 -0.4377
  248MOL0     C32667   2.694   7.675   2.512  0.6005  0.0801 -0.4794
  248MOL0     C32668   2.757   7.571   2.494  0.2852  0.1514  0.0653
  248MOL0     C32669   2.042   7.753   2.560  0.2678  0.0299 -0.2753
  248MOL0     C32670   1.913   7.801   2.597  0.6765  0.6011 -0.0890
  248MOL0     H32671   1.428   7.773   2.716  1.7681 -0.2275 -1.7230
  248MOL0     H32672   1.199   7.838   2.656 -2.6346  3.8586 -2.3426
  248MOL0     H32673   0.984   7.949   2.684 -3.2715 -0.3749 -1.1318
  248MOL0     H32674   1.031   7.956   2.517  4.4601  0.7109  0.3521
  248MOL0     H32675   0.900   8.186   2.510 -0.2981 -0.9393 -1.6476
  248MOL0     H32676   0.855   8.152   2.671 -1.6259  0.1027 -0.2151
  248MOL0     H32677   0.766   7.931   2.578  0.8428 -1.7068 -2.3836
  248MOL0     H32678   0.806   7.994   2.413  1.7297  1.8690 -1.0206
  248MOL0     H32679   0.648   8.157   2.609 -3.7833  2.3162 -1.2610
  248MOL0     H32680   0.667   8.175   2.430  1.5456  1.0400  1.0789
  248MOL0     H32681   0.477   7.989   2.589 -0.6512 -0.4047 -0.7764
  248MOL0     H32682   0.500   7.965   2.418 -2.7314 -2.1492  1.1185
  248MOL0     H32683   0.435   8.193   2.379 -1.8486  0.7292 -0.6564
  248MOL0     H32684   0.419   8.233   2.546  2.5432 -0.3198 -1.0292
  248MOL0     H32685   0.200   8.218   2.436 -1.0539  0.1506  2.4795
  248MOL0     H32686   0.243   8.050   2.380  4.0950  0.5904 -1.4238
  248MOL0     H32687   0.209   8.143   2.662 -1.6993  2.3324 -2.1303
  248MOL0     H32688   0.227   7.977   2.617 -0.6411 -0.9452 -0.7542
  248MOL0     H32689   0.006   7.909   2.403 -1.4389  1.9273 -1.9533
  248MOL0     H32690  -0.232   7.803   2.439  2.0046  0.7127 -0.9860
  248MOL0     H32691  -0.324   7.933   2.361 -1.8882  3.0536  1.9746
  248MOL0     H32692  -0.457   7.981   2.534  0.4974  0.4041 -0.4707
  248MOL0     H32693  -0.353   7.904   2.651  0.5359  1.0674 -0.3727
  248MOL0     H32694  -0.501   7.766   2.431  2.3341  1.1252 -0.0752
  248MOL0     H32695  -0.424   7.675   2.559  2.1143  0.9468 -2.2741
  248MOL0     H32696  -0.651   7.863   2.607 -1.4918 -0.8988 -1.6596
  248MOL0     H32697  -0.548   7.781   2.733  1.5901  0.4366 -0.3948
  248MOL0     H32698  -0.754   7.421   2.610 -1.3464 -1.3738  0.7922
  248MOL0     H32699  -0.977   7.357   2.698 -2.1796  0.6138  0.7699
  248MOL0     H32700  -1.357   7.686   3.099  1.2100 -1.6318 -0.1505
  248MOL0     H32701  -1.602   7.654   3.139  2.9807 -3.0978  2.1863
  248MOL0     H32702  -1.841   7.394   2.913  2.6447  0.5179  0.2937
  248MOL0     H32703  -1.876   7.533   2.806  0.1265 -1.6057 -0.5202
  248MOL0     H32704  -2.033   7.620   2.983 -1.0282 -1.0479 -4.2628
  248MOL0     H32705  -1.976   7.487   3.092 -1.2037 -0.0307  0.5373
  248MOL0     H32706  -2.063   7.320   2.921  3.4093  1.5168 -1.0978
  248MOL0     H32707  -2.111   7.461   2.822 -1.3533  2.2922  1.1886
  248MOL0     H32708  -2.223   7.372   3.087 -0.2477  0.8646  0.7098
  248MOL0     H32709  -2.254   7.536   3.029  1.8625  0.1846 -0.7290
  248MOL0     H32710  -2.306   7.309   2.844  0.7956  1.0748 -0.9554
  248MOL0     H32711  -2.371   7.476   2.849 -2.6917 -0.9024 -1.6388
  248MOL0     H32712  -2.496   7.417   3.055  0.4468  2.2642 -2.8401
  248MOL0     H32713  -2.430   7.254   3.051  2.8061  0.0156 -0.6882
  248MOL0     H32714  -2.601   7.413   2.865  0.4860  0.6266  4.7249
  248MOL0     H32715  -2.522   7.247   2.809 -0.0601 -4.4032  2.6212
  248MOL0     H32716  -2.762   7.230   2.842  0.3610 -0.2123 -0.3520
  248MOL0     H32717  -2.752   7.285   3.002  0.3365  1.1725 -1.8481
  248MOL0     H32718  -1.669   7.507   2.762 -0.7244 -1.5838  1.8372
  248MOL0     H32719  -1.412   7.506   2.709  0.4600  3.2389 -0.0611
  248MOL0     H32720  -1.045   7.770   2.805  0.2422  0.8081 -0.7540
  248MOL0     H32721  -0.845   7.828   2.708  0.8861  0.8978 -2.8478
  248MOL0     H32722   1.313   8.243   2.586  3.1992  1.8621  1.2645
  248MOL0     H32723   1.541   8.192   2.594 -1.0536  0.3463  0.1266
  248MOL0     H32724   2.011   8.101   2.726 -0.2446 -0.7446  1.2818
  248MOL0     H32725   2.218   8.038   2.631 -0.8322  0.0309  2.2977
  248MOL0     H32726   2.397   7.668   2.428 -0.2704  0.9837 -1.0061
  248MOL0     H32727   2.256   7.604   2.492 -0.1303  0.6766 -0.1119
  248MOL0     H32728   2.339   7.675   2.718 -2.6087 -0.6195 -2.4842
  248MOL0     H32729   2.450   7.573   2.641 -0.5297 -0.9555 -1.3486
  248MOL0     H32730   2.582   7.745   2.732 -0.1262 -1.0831  0.1512
  248MOL0     H32731   2.472   7.877   2.662 -0.6050  0.3354  0.5386
  248MOL0     H32732   2.564   7.824   2.431 -1.0242 -0.8138 -0.6585
  248MOL0     H32733   2.680   7.882   2.557  0.9674 -1.2388  0.2401
  248MOL0     H32734   2.812   7.480   2.479  0.3899  0.2899 -0.4034
  248MOL0     H32735   2.057   7.654   2.519 -0.6112 -0.4340  0.4837
  248MOL0     H32736   1.832   7.733   2.575  1.0289  1.1624 -3.7755
  249MOL0     O32737   1.294   9.837   6.510  0.0249  0.2230 -0.7272
  249MOL0     C32738   1.206   9.822   6.595 -0.8332 -0.2051  0.5744
  249MOL0     O32739   1.200   9.891   6.716  0.4035  0.0330 -0.2594
  249MOL0     C32740   1.312   9.965   6.764  0.0815 -0.1605  0.9845
  249MOL0     C32741   1.289  10.072   6.856  0.5603  0.0252 -0.2493
  249MOL0     C32742   1.389  10.142   6.913  0.7754 -0.1206  0.4300
  249MOL0     C32743   1.523  10.116   6.880 -1.3451 -0.4914  0.6251
  249MOL0     O32744   1.621  10.202   6.937  0.1253 -0.5546  0.1742
  249MOL0     C32745   1.745  10.141   6.970 -0.3066  0.1509  0.3563
  249MOL0     C32746   1.767  10.136   7.117 -0.9034  0.5064 -0.1068
  249MOL0     C32747   1.726  10.008   7.187 -0.8691 -0.4146  1.3246
  249MOL0     C32748   1.778   9.999   7.322 -0.1957 -0.1299  0.2355
  249MOL0     C32749   1.751   9.858   7.373  0.2116  0.3867 -0.1866
  249MOL0     C32750   1.826   9.814   7.498 -0.5979  0.4244 -0.0820
  249MOL0     C32751   1.864   9.915   7.605  0.1138 -0.7646 -0.0700
  249MOL0     C32752   1.734   9.936   7.692 -0.1315 -0.6318  0.4581
  249MOL0     N32753   1.777  10.037   7.786  0.8205  0.1238  0.5798
  249MOL0     C32754   1.817  10.015   7.914 -0.1304  0.5876 -0.5305
  249MOL0     C32755   1.854  10.140   7.962  0.5073  0.0040 -0.0777
  249MOL0     C32756   1.886  10.176   8.108  0.8522  0.1181  0.1431
  249MOL0     C32757   1.760  10.157   8.196  0.1581  0.0028  0.3050
  249MOL0     C32758   1.698  10.016   8.216  0.0321  0.8109 -0.2191
  249MOL0     C32759   1.577  10.007   8.308  1.0758  0.6021  1.2993
  249MOL0     O32760   1.479  10.102   8.263 -0.0359  0.0038 -0.3538
  249MOL0     C32761   1.372  10.117   8.346 -0.9125 -0.2644  0.2826
  249MOL0     C32762   1.367  10.094   8.487  0.0228 -0.0319  0.6743
  249MOL0     C32763   1.249  10.112   8.559 -0.4079 -0.4154  0.2797
  249MOL0     C32764   1.130  10.130   8.488  0.3346  0.1457 -0.1512
  249MOL0     C32765   1.003  10.111   8.554 -0.3275  0.4704  0.4040
  249MOL0     O32766   0.899  10.122   8.477 -0.3917 -0.0127 -0.0380
  249MOL0     C32767   0.773  10.073   8.509  0.3531  0.3861  0.0221
  249MOL0     C32768   0.672  10.124   8.432  1.2508  0.5871 -0.4347
  249MOL0     C32769   0.536  10.094   8.465 -0.3655  0.4926  0.5456
  249MOL0     C32770   0.503  10.004   8.570 -0.7977 -0.1204 -0.8269
  249MOL0     O32771   0.378   9.977   8.622 -0.2428  0.0093  0.9923
  249MOL0     C32772   0.266  10.040   8.566  0.0631 -0.1220 -0.3115
  249MOL0     C32773   0.142   9.988   8.641  0.7526  0.8849 -0.1797
  249MOL0     C32774   0.036  10.090   8.627  1.8221  1.0857  0.2392
  249MOL0     C32775  -0.096  10.027   8.689 -0.5148 -0.0419 -0.0468
  249MOL0     C32776  -0.198  10.134   8.699 -0.5073  0.3156 -0.0693
  249MOL0     C32777  -0.229  10.229   8.577 -0.8568  0.6839  0.9446
  249MOL0     C32778  -0.265  10.144   8.458  0.5425  0.4014 -0.3431
  249MOL0     C32779  -0.338  10.223   8.348  0.5322 -0.8393 -0.7660
  249MOL0    Cl32780  -0.499  10.275   8.414 -0.0989 -0.0134 -0.0684
  249MOL0     C32781   0.608   9.939   8.640 -0.3557 -0.1826  0.7729
  249MOL0     C32782   0.739   9.979   8.613  0.2144  0.0237 -0.2450
  249MOL0     O32783   0.998  10.093   8.676  0.9234  0.5831 -0.2499
  249MOL0     C32784   1.140  10.161   8.355 -0.1488 -0.9673 -0.1860
  249MOL0     C32785   1.264  10.159   8.287  0.7692  0.2189 -0.0531
  249MOL0     N32786   1.858  10.226   7.857  0.9676  0.7409 -0.0928
  249MOL0     N32787   1.800  10.167   7.759  0.3386 -0.6702  0.1417
  249MOL0     C32788   1.550  10.013   6.788  0.0887  0.1093  0.4469
  249MOL0     C32789   1.445   9.931   6.735 -0.0427  0.0116 -0.5577
  249MOL0     C32790   1.099   9.723   6.573 -0.1643 -0.1714 -0.1550
  249MOL0     C32791   0.998   9.702   6.676  0.0311 -0.6196  0.3621
  249MOL0     C32792   0.901   9.621   6.655  0.3536 -0.0154  0.0684
  249MOL0     C32793   0.884   9.550   6.536 -0.2604  0.9652 -0.4514
  249MOL0     O32794   0.778   9.469   6.502  0.0917 -0.5812 -0.5119
  249MOL0     C32795   0.651   9.479   6.567  0.0751 -0.9888  0.0335
  249MOL0     C32796   0.532   9.406   6.504  0.4101  1.0052 -0.3458
  249MOL0     C32797   0.551   9.262   6.530  0.4366  0.7198  0.6931
  249MOL0     C32798   0.462   9.170   6.430  0.0499 -0.0292 -0.0448
  249MOL0     C32799   0.529   9.040   6.420  0.1232  0.2780  0.9462
  249MOL0     C32800   0.589   8.944   6.403 -0.7668  0.0446  0.1256
  249MOL0     C32801   0.980   9.569   6.437 -0.0409  0.5311 -1.4053
  249MOL0     C32802   1.093   9.652   6.449 -0.5682 -1.0198 -0.2083
  249MOL0     H32803   1.182  10.077   6.875  0.6737  0.2628  0.3617
  249MOL0     H32804   1.364  10.221   6.983 -0.2116  0.8319 -0.9503
  249MOL0     H32805   1.831  10.198   6.931 -1.0532  0.0979 -1.4476
  249MOL0     H32806   1.765  10.045   6.923  0.3160 -0.1377  1.1814
  249MOL0     H32807   1.699  10.211   7.160 -1.1341  0.5405 -0.5336
  249MOL0     H32808   1.873  10.161   7.127  0.2565 -2.6697 -2.7016
  249MOL0     H32809   1.769   9.922   7.134  2.4742  1.2852  1.0483
  249MOL0     H32810   1.616  10.009   7.182 -0.9883  0.9634  3.2476
  249MOL0     H32811   1.885  10.019   7.324 -0.0265 -0.9802 -0.0209
  249MOL0     H32812   1.723  10.065   7.390 -0.8742 -0.3797 -0.0527
  249MOL0     H32813   1.774   9.787   7.293 -0.2807 -0.3469  0.3043
  249MOL0     H32814   1.645   9.847   7.397  0.7155  0.3675  2.3381
  249MOL0     H32815   1.924   9.785   7.460 -1.9312  0.1143 -3.5930
  249MOL0     H32816   1.777   9.730   7.547 -0.8429  0.4974 -0.2025
  249MOL0     H32817   1.951   9.874   7.657  1.5558 -0.8869 -2.4268
  249MOL0     H32818   1.885  10.013   7.562 -1.6156 -1.8982 -4.0022
  249MOL0     H32819   1.697   9.842   7.734  2.0129 -1.2950  1.0006
  249MOL0     H32820   1.648   9.965   7.631 -1.0322  3.9058  3.4187
  249MOL0     H32821   1.806   9.921   7.968  0.4354  0.9791  0.2746
  249MOL0     H32822   1.919  10.279   8.089  0.8858 -0.5638 -5.1626
  249MOL0     H32823   1.975  10.117   8.131  1.4761 -0.8382 -3.9433
  249MOL0     H32824   1.682  10.221   8.153  0.8232  0.2992 -0.4900
  249MOL0     H32825   1.775  10.206   8.292  1.2116 -0.0941  0.2005
  249MOL0     H32826   1.661   9.981   8.119 -1.8641  1.4229  0.2436
  249MOL0     H32827   1.785   9.956   8.245 -0.8120  0.1907  1.0643
  249MOL0     H32828   1.596  10.022   8.414 -1.0680 -0.3638  1.8857
  249MOL0     H32829   1.539   9.904   8.300 -3.4501  2.1685 -1.8555
  249MOL0     H32830   1.454  10.057   8.540  0.9480  2.6173  1.1514
  249MOL0     H32831   1.247  10.089   8.665 -1.0411 -3.1581 -0.2419
  249MOL0     H32832   0.704  10.190   8.351  0.5573  1.3086 -0.1342
  249MOL0     H32833   0.450  10.135   8.411 -2.8223 -2.0586  2.2696
  249MOL0     H32834   0.249  10.036   8.458  0.0373  4.2062 -0.6670
  249MOL0     H32835   0.276  10.147   8.590  0.9269 -0.6088  1.6615
  249MOL0     H32836   0.164   9.979   8.747  2.3736  0.7546 -0.4995
  249MOL0     H32837   0.110   9.892   8.599  2.0213  0.5239 -0.3620
  249MOL0     H32838   0.019  10.104   8.520  1.1751  1.7356  0.4231
  249MOL0     H32839   0.067  10.182   8.676 -2.8143  2.2365  1.5306
  249MOL0     H32840  -0.138   9.946   8.629 -2.7150 -1.1245  2.7666
  249MOL0     H32841  -0.079   9.992   8.791 -1.4961 -1.0582 -0.2146
  249MOL0     H32842  -0.158  10.202   8.775 -0.4613 -0.5856  0.7197
  249MOL0     H32843  -0.287  10.091   8.746  0.3338  2.0502  3.4698
  249MOL0     H32844  -0.134  10.277   8.554  0.5644 -3.2520 -2.9087
  249MOL0     H32845  -0.304  10.305   8.603  0.9752  1.9003  3.0066
  249MOL0     H32846  -0.176  10.097   8.416 -0.7371 -2.5866 -0.0305
  249MOL0     H32847  -0.329  10.063   8.495  0.7820  1.3856  2.4626
  249MOL0     H32848  -0.361  10.165   8.258 -2.3156 -1.8835  0.5187
  249MOL0     H32849  -0.287  10.312   8.309  0.6805 -0.9572 -0.8383
  249MOL0     H32850   0.590   9.861   8.714  1.2717  0.7238  2.2063
  249MOL0     H32851   0.817   9.940   8.678 -0.7479  1.0910  1.6641
  249MOL0     H32852   1.054  10.188   8.295 -0.5202 -0.4488  0.5589
  249MOL0     H32853   1.264  10.189   8.183  0.0937 -0.2457 -0.1925
  249MOL0     H32854   1.652   9.992   6.756 -0.8012 -2.2015 -1.1637
  249MOL0     H32855   1.475   9.840   6.685  0.2916  0.5861 -1.4298
  249MOL0     H32856   1.008   9.747   6.774  2.8370  0.1170 -0.1597
  249MOL0     H32857   0.819   9.622   6.726  0.2755  2.1889 -0.0037
  249MOL0     H32858   0.615   9.582   6.569  1.3993 -0.5075  0.6090
  249MOL0     H32859   0.672   9.436   6.665  0.5926  1.1331  0.9026
  249MOL0     H32860   0.435   9.443   6.540  0.3206  1.6628 -1.2227
  249MOL0     H32861   0.541   9.431   6.397 -2.2293  0.5643 -0.7316
  249MOL0     H32862   0.518   9.222   6.626 -1.0240 -2.8117 -1.1033
  249MOL0     H32863   0.655   9.229   6.521  0.4607  1.0569 -0.4064
  249MOL0     H32864   0.362   9.160   6.473 -0.4851  0.9704 -1.0037
  249MOL0     H32865   0.453   9.218   6.332  0.4413  2.0245  0.8798
  249MOL0     H32866   0.642   8.851   6.397 -0.4529  0.0238  2.3404
  249MOL0     H32867   0.960   9.500   6.356 -2.3414 -0.3513 -0.1613
  249MOL0     H32868   1.172   9.659   6.374  0.4984 -1.2683  0.8537
  250MOL0     O32869   2.383   8.776   9.920  0.6438 -0.1693 -0.1030
  250MOL0     C32870   2.428   8.735  10.027 -1.1438  0.2807  0.0281
  250MOL0     O32871   2.360   8.679  10.133  0.4192  0.1274 -0.3213
  250MOL0     C32872   2.227   8.645  10.119 -0.4885  0.0599  0.0113
  250MOL0     C32873   2.172   8.524  10.158 -0.6342 -0.4298 -0.0696
  250MOL0     C32874   2.031   8.506  10.171 -0.2437 -0.6491 -0.1106
  250MOL0     C32875   1.945   8.613  10.149 -0.2470 -0.5641 -0.3325
  250MOL0     O32876   1.810   8.608  10.168 -0.6691  0.1318 -0.7524
  250MOL0     C32877   1.753   8.473  10.153  0.3892  0.3787 -0.3730
  250MOL0     C32878   1.611   8.473  10.208 -1.0376  0.3632  0.1249
  250MOL0     C32879   1.511   8.536  10.115 -0.3709  0.6329 -0.0773
  250MOL0     C32880   1.369   8.523  10.174 -0.5260  0.3462 -1.0944
  250MOL0     C32881   1.263   8.597  10.092 -0.5020  0.8412  0.7220
  250MOL0     C32882   1.263   8.531   9.949  0.3011 -0.4684 -1.1128
  250MOL0     C32883   1.147   8.553   9.863  0.4540  0.3739  0.1619
  250MOL0     C32884   1.043   8.451   9.894  0.9517 -0.6115 -0.7723
  250MOL0     N32885   0.911   8.514   9.927 -0.1175  0.5311 -0.6267
  250MOL0     C32886   0.807   8.508   9.834 -0.9170 -0.1353  0.1484
  250MOL0     C32887   0.702   8.566   9.898  0.5395 -0.3535  0.4901
  250MOL0     C32888   0.568   8.607   9.827 -0.2142 -1.0474  0.0995
  250MOL0     C32889   0.438   8.606   9.909 -0.3525  0.9366  0.3355
  250MOL0     C32890   0.311   8.629   9.831  0.6368 -0.1588  0.0474
  250MOL0     C32891   0.189   8.638   9.926 -0.4176 -0.1665  0.5435
  250MOL0     O32892   0.069   8.693   9.861 -1.0244  0.5630  0.0684
  250MOL0     C32893  -0.051   8.683   9.926  0.4986 -0.3418 -0.3954
  250MOL0     C32894  -0.066   8.669  10.069  0.0736  0.3224  0.5787
  250MOL0     C32895  -0.194   8.669  10.124 -0.1210  0.2226  0.3539
  250MOL0     C32896  -0.318   8.672  10.047 -0.2220  0.4603 -0.1878
  250MOL0     C32897  -0.442   8.645  10.107  0.9072  0.5780 -0.1976
  250MOL0     O32898  -0.536   8.587  10.022 -0.8055 -0.0141 -0.0660
  250MOL0     C32899  -0.654   8.550  10.080 -0.6874  0.1270  0.1936
  250MOL0     C32900  -0.745   8.650  10.104  0.1488 -0.1727 -0.4622
  250MOL0     C32901  -0.848   8.634  10.195 -0.5453  0.3452  0.3430
  250MOL0     C32902  -0.872   8.513  10.257 -0.7109 -0.2742  0.2465
  250MOL0     O32903  -0.975   8.496  10.348 -0.5490  0.1905  0.3250
  250MOL0     C32904  -1.003   8.363  10.393  0.4337  0.2301  0.0780
  250MOL0     C32905  -0.905   8.321  10.504  0.2525  0.3295 -0.8788
  250MOL0     C32906  -0.956   8.337  10.653  0.7887  0.6472 -0.2451
  250MOL0     C32907  -0.891   8.245  10.753  0.4327  0.5007  0.2260
  250MOL0     C32908  -0.928   8.282  10.899 -0.5597 -0.2090  0.0478
  250MOL0     C32909  -1.078   8.308  10.928 -0.0188  0.0014 -0.4896
  250MOL0     C32910  -1.177   8.197  10.898 -0.6058 -0.7132  0.3742
  250MOL0     C32911  -1.316   8.223  10.941  0.8315 -0.0831  0.8263
  250MOL0    Cl32912  -1.413   8.256  10.803 -0.1669 -0.2609 -0.5948
  250MOL0     C32913  -0.784   8.407  10.213 -0.2899  0.2984 -0.6588
  250MOL0     C32914  -0.675   8.422  10.126  0.7281  0.0511  0.2242
  250MOL0     O32915  -0.458   8.652  10.232  1.6246 -0.2351 -0.8237
  250MOL0     C32916  -0.297   8.687   9.909  0.0128 -0.8154 -0.3363
  250MOL0     C32917  -0.172   8.702   9.851 -1.3221 -0.3433 -0.7221
  250MOL0     N32918   0.740   8.592  10.034  0.2928 -0.4367 -0.2145
  250MOL0     N32919   0.861   8.555  10.050  1.0041 -0.1669 -0.0610
  250MOL0     C32920   2.002   8.740  10.130  0.3541  0.8761  1.4447
  250MOL0     C32921   2.146   8.751  10.111 -0.1913 -1.4033  0.2223
  250MOL0     C32922   2.575   8.740  10.034  0.6645 -0.2065  0.8549
  250MOL0     C32923   2.662   8.660  10.107  0.6828  0.1847  0.8840
  250MOL0     C32924   2.801   8.668  10.097 -0.5476 -0.0221  0.1185
  250MOL0     C32925   2.861   8.765  10.020  0.9072  0.7291  0.3546
  250MOL0     O32926   2.997   8.779  10.024 -0.0964 -0.0891  0.5542
  250MOL0     C32927   3.070   8.869   9.945 -0.2944  0.8413  0.6532
  250MOL0     C32928   3.219   8.852   9.950 -0.1267  0.1608  0.2076
  250MOL0     C32929   3.268   8.817  10.096  0.4983 -0.2275 -0.8805
  250MOL0     C32930   3.424   8.833  10.117  0.0800  0.1969 -0.3187
  250MOL0     C32931   3.476   8.801  10.256  0.0286 -0.4493 -0.1230
  250MOL0     C32932   3.520   8.764  10.360 -0.1223 -0.6421 -0.2709
  250MOL0     C32933   2.781   8.848   9.945  0.3581 -0.6449 -0.2997
  250MOL0     C32934   2.638   8.831   9.940 -0.1124 -0.0450  0.4970
  250MOL0     H32935   2.241   8.446  10.188  0.9224  0.6687 -0.6727
  250MOL0     H32936   2.002   8.403  10.192  0.5991 -0.8360  0.1970
  250MOL0     H32937   1.807   8.397  10.209 -1.5079  0.5274  1.8020
  250MOL0     H32938   1.755   8.441  10.048 -0.3198  1.1124 -0.6204
  250MOL0     H32939   1.620   8.525  10.304 -1.3444  0.0339  0.3300
  250MOL0     H32940   1.581   8.370  10.230  1.0336  0.1959  2.6325
  250MOL0     H32941   1.519   8.488  10.017  4.1637  3.0813 -1.1713
  250MOL0     H32942   1.531   8.643  10.112  0.7060  0.4329 -1.4313
  250MOL0     H32943   1.333   8.419  10.179 -0.5593  0.2926 -2.3211
  250MOL0     H32944   1.372   8.561  10.277  1.5286 -0.9323 -0.6111
  250MOL0     H32945   1.292   8.702  10.083 -0.3984  0.6479 -2.2809
  250MOL0     H32946   1.162   8.592  10.133 -1.4488 -0.9972 -1.5920
  250MOL0     H32947   1.286   8.425   9.962  1.9010  0.1172  1.4404
  250MOL0     H32948   1.345   8.578   9.893 -0.7880  1.2473 -1.3430
  250MOL0     H32949   1.112   8.655   9.881  2.3643  1.0300  0.3989
  250MOL0     H32950   1.172   8.534   9.759  4.6724 -0.6046  1.1551
  250MOL0     H32951   1.070   8.389   9.980 -1.7997 -0.2172  0.4960
  250MOL0     H32952   1.037   8.388   9.804  2.9499 -0.1250 -1.2970
  250MOL0     H32953   0.814   8.463   9.735  1.1832 -0.3369  0.3399
  250MOL0     H32954   0.563   8.543   9.739 -2.6324 -2.4738  1.1693
  250MOL0     H32955   0.575   8.713   9.799 -3.1987 -0.0010  2.7844
  250MOL0     H32956   0.458   8.680   9.987  3.3252  0.6907 -0.1993
  250MOL0     H32957   0.431   8.509   9.959 -1.4931 -1.0686 -3.3399
  250MOL0     H32958   0.336   8.726   9.785 -0.8491  1.4168  2.3295
  250MOL0     H32959   0.298   8.551   9.756  1.5050  1.2139 -1.6185
  250MOL0     H32960   0.221   8.685  10.020 -1.6760  2.0723 -0.0717
  250MOL0     H32961   0.151   8.541   9.960 -3.2831  1.6056  2.9507
  250MOL0     H32962   0.025   8.660  10.127  0.7259  1.3176 -0.2499
  250MOL0     H32963  -0.214   8.652  10.229 -0.6412  0.2502  0.2611
  250MOL0     H32964  -0.728   8.751  10.070 -1.3081  0.5960  0.9325
  250MOL0     H32965  -0.908   8.721  10.216 -0.7499 -0.1785  2.1201
  250MOL0     H32966  -1.013   8.285  10.318 -2.2594 -0.4983  1.0590
  250MOL0     H32967  -1.105   8.375  10.433  1.2222  2.6234  1.5888
  250MOL0     H32968  -0.809   8.374  10.497  1.7103 -1.9110  0.5857
  250MOL0     H32969  -0.885   8.213  10.502 -0.8321  0.0605  0.9766
  250MOL0     H32970  -1.064   8.339  10.669  1.0716  0.3982  2.0472
  250MOL0     H32971  -0.924   8.436  10.686 -0.6853  0.9863  0.2498
  250MOL0     H32972  -0.932   8.145  10.735  0.6646  0.9476 -3.4798
  250MOL0     H32973  -0.782   8.237  10.745  0.2203 -0.8255 -2.3674
  250MOL0     H32974  -0.876   8.375  10.922  0.3619 -0.1861 -1.9366
  250MOL0     H32975  -0.891   8.202  10.964  1.7506 -0.0965 -1.0280
  250MOL0     H32976  -1.116   8.404  10.892 -3.7274 -0.5750  1.3442
  250MOL0     H32977  -1.075   8.326  11.036  1.6411  0.8009 -0.6352
  250MOL0     H32978  -1.178   8.182  10.789  0.1872  2.3447 -0.1331
  250MOL0     H32979  -1.145   8.114  10.962 -2.0948 -0.2928  1.7075
  250MOL0     H32980  -1.325   8.307  11.011 -2.6557  0.2789  0.1309
  250MOL0     H32981  -1.354   8.135  10.994  1.1416  0.4245  1.9166
  250MOL0     H32982  -0.805   8.306  10.247  2.7748 -0.9489 -2.0579
  250MOL0     H32983  -0.595   8.350  10.109  1.7645  1.3631 -0.6658
  250MOL0     H32984  -0.380   8.682   9.840  0.2906 -2.3619 -0.5810
  250MOL0     H32985  -0.159   8.713   9.744  2.7756  0.2420 -0.3210
  250MOL0     H32986   1.935   8.824  10.112  2.2471  1.8105 -2.1749
  250MOL0     H32987   2.192   8.844  10.078  3.1374 -2.7155  0.7286
  250MOL0     H32988   2.614   8.590  10.175 -0.4829 -0.1159 -0.2112
  250MOL0     H32989   2.866   8.605  10.158 -0.5443  0.8051  0.9985
  250MOL0     H32990   3.039   8.970   9.977 -0.9634  0.4990  1.1116
  250MOL0     H32991   3.043   8.860   9.840  1.4422  1.7509  0.0817
  250MOL0     H32992   3.262   8.777   9.882  1.6866  0.7754  0.6208
  250MOL0     H32993   3.254   8.954   9.932  1.8447 -0.4229  0.5415
  250MOL0     H32994   3.240   8.713  10.115  2.1973 -0.7048 -0.7815
  250MOL0     H32995   3.214   8.878  10.170  2.4763  1.3436 -0.6249
  250MOL0     H32996   3.476   8.772  10.044  1.0250  0.4655  0.1190
  250MOL0     H32997   3.447   8.938  10.096  1.0764  0.8589  3.2934
  250MOL0     H32998   3.568   8.752  10.455  0.3051  1.2530 -0.1954
  250MOL0     H32999   2.819   8.936   9.895 -1.3121 -0.0530 -0.5818
  250MOL0     H33000   2.588   8.912   9.888  0.8835  0.4795  0.3316
  251MOL0     O33001   4.033   2.964   8.681 -0.1397 -0.3556  0.0408
  251MOL0     C33002   4.111   3.016   8.599  0.4483  0.6097 -0.3727
  251MOL0     O33003   4.081   3.115   8.518 -0.2343 -0.0412  0.5123
  251MOL0     C33004   3.943   3.142   8.513 -1.1012  0.4556 -0.3031
  251MOL0     C33005   3.880   3.259   8.558 -0.1390  0.2976 -0.0083
  251MOL0     C33006   3.743   3.282   8.536  0.4244  0.3501 -0.7710
  251MOL0     C33007   3.664   3.191   8.464 -0.0465 -1.0073 -0.5611
  251MOL0     O33008   3.532   3.222   8.456 -0.4724  0.3065  0.0786
  251MOL0     C33009   3.453   3.132   8.382  0.3969 -0.7643  0.1350
  251MOL0     C33010   3.303   3.143   8.408  1.0976  0.6998 -0.0410
  251MOL0     C33011   3.230   3.233   8.307 -1.2051 -0.6785 -0.9089
  251MOL0     C33012   3.076   3.213   8.322 -0.1515  0.0283 -0.3254
  251MOL0     C33013   2.995   3.344   8.293  0.3111 -0.2880  0.1345
  251MOL0     C33014   3.028   3.417   8.155  0.0450  0.1799  0.2743
  251MOL0     C33015   3.017   3.329   8.019  0.2923 -0.5314 -0.6996
  251MOL0     C33016   2.879   3.270   8.002 -0.2466  0.3927  0.0006
  251MOL0     N33017   2.782   3.373   7.979  0.0603 -1.1752  0.4082
  251MOL0     C33018   2.688   3.422   8.067 -0.3941 -0.2075  0.2485
  251MOL0     C33019   2.604   3.502   8.000  0.5650 -0.5968  0.3090
  251MOL0     C33020   2.477   3.561   8.060  0.3849 -0.5861  0.4762
  251MOL0     C33021   2.358   3.474   8.030  0.2307  0.1455  0.5020
  251MOL0     C33022   2.230   3.522   8.099  0.4632  0.0487 -0.9701
  251MOL0     C33023   2.104   3.458   8.049 -0.8064 -0.3757  0.3891
  251MOL0     O33024   1.989   3.525   8.108  0.0412  0.4520 -0.0484
  251MOL0     C33025   1.869   3.481   8.070 -0.2053 -0.8892  0.1428
  251MOL0     C33026   1.758   3.549   8.124 -0.4195 -0.0788  1.0859
  251MOL0     C33027   1.628   3.517   8.085 -0.0776  0.2579  0.0978
  251MOL0     C33028   1.601   3.412   7.988 -0.7615 -0.3578  0.2069
  251MOL0     C33029   1.472   3.381   7.939 -0.4613  0.6257 -0.0666
  251MOL0     O33030   1.372   3.467   7.979 -0.3561 -0.0136 -0.0424
  251MOL0     C33031   1.244   3.424   7.940  0.0264 -0.1624  0.5048
  251MOL0     C33032   1.191   3.472   7.821 -0.0739 -0.0970 -0.4800
  251MOL0     C33033   1.061   3.429   7.792 -0.9756  0.4463  0.3347
  251MOL0     C33034   0.983   3.333   7.876 -0.5806 -0.4896  0.5588
  251MOL0     O33035   0.862   3.300   7.843 -0.4227  0.0213 -0.1664
  251MOL0     C33036   0.851   3.195   7.751 -0.3602  0.3509  0.9210
  251MOL0     C33037   0.801   3.220   7.610 -0.0163 -0.4764 -0.5466
  251MOL0     C33038   0.657   3.170   7.580 -0.2587 -0.5439  0.5806
  251MOL0     C33039   0.551   3.251   7.657  0.2147 -0.2490  1.1842
  251MOL0     C33040   0.412   3.173   7.679 -0.1994 -0.0167  0.6091
  251MOL0     C33041   0.305   3.249   7.754 -0.1365  0.9617  0.5078
  251MOL0     C33042   0.268   3.369   7.672 -0.1994  0.7388 -0.8463
  251MOL0     C33043   0.135   3.419   7.723  0.2544 -0.6986  0.2076
  251MOL0    Cl33044   0.139   3.474   7.886  0.2296  0.4777  0.5817
  251MOL0     C33045   1.046   3.293   7.991  0.3395 -0.0109  0.2999
  251MOL0     C33046   1.170   3.344   8.026  0.3098 -0.3927  0.6701
  251MOL0     O33047   1.452   3.268   7.894  0.7027  0.1606 -0.2410
  251MOL0     C33048   1.713   3.349   7.928 -0.3097  0.1974  0.1029
  251MOL0     C33049   1.849   3.381   7.973 -0.0570  0.1768  1.0686
  251MOL0     N33050   2.651   3.511   7.870 -0.2247  0.2231 -0.2401
  251MOL0     N33051   2.748   3.424   7.858  0.2527 -0.9763  0.2337
  251MOL0     C33052   3.736   3.081   8.411  0.5259  0.1714  0.4304
  251MOL0     C33053   3.866   3.057   8.435  0.2517 -0.0752  1.0220
  251MOL0     C33054   4.253   2.986   8.598 -0.5387 -0.3129  0.0202
  251MOL0     C33055   4.299   2.864   8.652 -0.7226  0.2433  0.2443
  251MOL0     C33056   4.442   2.850   8.667 -0.4090 -1.4098  0.3423
  251MOL0     C33057   4.532   2.947   8.617  0.0199 -0.3641  0.3603
  251MOL0     O33058   4.667   2.934   8.620  0.5403 -0.2323 -0.4323
  251MOL0     C33059   4.727   2.818   8.659 -0.1753  1.0383 -1.1629
  251MOL0     C33060   4.750   2.802   8.815  0.0725 -1.1277  1.4130
  251MOL0     C33061   4.810   2.671   8.860  0.0086  0.6830 -0.5787
  251MOL0     C33062   4.954   2.659   8.828  0.7779  0.4108  0.4837
  251MOL0     C33063   5.006   2.531   8.878  0.0732 -0.7073 -0.7520
  251MOL0     C33064   5.049   2.426   8.924 -0.5695  0.5187  0.5162
  251MOL0     C33065   4.486   3.071   8.568  0.6635  0.4775 -0.6365
  251MOL0     C33066   4.348   3.093   8.569  0.7909  0.4885  0.0814
  251MOL0     H33067   3.936   3.325   8.623 -0.0202 -1.6031  1.9340
  251MOL0     H33068   3.690   3.367   8.577  2.3830  1.2151  0.0973
  251MOL0     H33069   3.489   3.035   8.417 -0.7052 -0.6835  1.5686
  251MOL0     H33070   3.479   3.139   8.276 -1.4047  3.6440 -0.2279
  251MOL0     H33071   3.285   3.186   8.507  1.5961  0.3799  0.1925
  251MOL0     H33072   3.265   3.041   8.410 -0.6516  1.3231  0.8459
  251MOL0     H33073   3.273   3.210   8.210  2.3032 -0.9019  0.5607
  251MOL0     H33074   3.260   3.337   8.326  0.7320 -1.6876  2.5223
  251MOL0     H33075   3.036   3.139   8.252  1.0122 -0.4995 -0.4610
  251MOL0     H33076   3.058   3.172   8.422 -2.0342  1.9801  0.1911
  251MOL0     H33077   3.013   3.419   8.372 -2.8272  0.7184  0.0045
  251MOL0     H33078   2.886   3.338   8.296  0.2842 -0.1457 -0.4551
  251MOL0     H33079   3.130   3.458   8.158 -0.7692  2.2254  1.6357
  251MOL0     H33080   2.964   3.505   8.145  1.2973  1.4255  2.5710
  251MOL0     H33081   3.044   3.390   7.933  2.0306 -2.0122 -1.2568
  251MOL0     H33082   3.092   3.250   8.021  1.5900  0.6457  1.3858
  251MOL0     H33083   2.851   3.204   8.085  0.8914  2.5774  2.2794
  251MOL0     H33084   2.898   3.213   7.911  0.3872  0.8647 -0.1669
  251MOL0     H33085   2.678   3.383   8.168  0.4784  0.7727  0.7452
  251MOL0     H33086   2.470   3.657   8.008  2.3816 -2.0571 -2.8187
  251MOL0     H33087   2.482   3.564   8.170 -2.2457 -3.6951  0.8190
  251MOL0     H33088   2.386   3.371   8.056  1.3217  0.0568 -0.8933
  251MOL0     H33089   2.347   3.478   7.921  3.4597 -0.0594  0.0700
  251MOL0     H33090   2.237   3.505   8.207  0.7071  0.1172 -0.9752
  251MOL0     H33091   2.214   3.629   8.083  0.1858  0.5854  2.2172
  251MOL0     H33092   2.106   3.350   8.062  1.2479 -0.3141  1.0415
  251MOL0     H33093   2.112   3.478   7.942  0.0915  0.1201  0.5345
  251MOL0     H33094   1.781   3.631   8.191  1.0586 -0.3401  0.9443
  251MOL0     H33095   1.550   3.583   8.123  0.6460 -0.2225  2.6339
  251MOL0     H33096   1.228   3.556   7.763 -2.1687 -0.0757 -1.9259
  251MOL0     H33097   1.021   3.459   7.695  4.7080  4.2928 -1.2945
  251MOL0     H33098   0.786   3.126   7.806 -1.0729 -0.4621 -0.8413
  251MOL0     H33099   0.949   3.149   7.738 -1.5230 -1.3443 -3.5273
  251MOL0     H33100   0.874   3.180   7.539  1.7291 -0.9008  1.3997
  251MOL0     H33101   0.805   3.329   7.601  1.3112 -0.2338  2.0545
  251MOL0     H33102   0.651   3.062   7.598  1.3155 -0.8526 -0.5437
  251MOL0     H33103   0.641   3.190   7.474  0.5904  2.7570  0.9789
  251MOL0     H33104   0.581   3.280   7.758 -1.1122 -2.6802  2.3752
  251MOL0     H33105   0.530   3.339   7.595 -1.5539  0.2380  2.3890
  251MOL0     H33106   0.425   3.082   7.739 -1.8753 -0.6924  0.0138
  251MOL0     H33107   0.374   3.151   7.579  1.1130 -1.7453  0.4357
  251MOL0     H33108   0.342   3.275   7.853  3.1835  0.1150 -0.3798
  251MOL0     H33109   0.224   3.176   7.765 -0.6108  1.5726  1.1972
  251MOL0     H33110   0.340   3.450   7.683  0.5941  0.2015 -1.8115
  251MOL0     H33111   0.264   3.358   7.563 -2.1325  1.3362 -0.8688
  251MOL0     H33112   0.072   3.330   7.710  0.1438 -0.6227  0.2243
  251MOL0     H33113   0.087   3.491   7.657 -1.6774 -1.5403  0.6106
  251MOL0     H33114   0.991   3.239   8.068  1.1346 -0.6948  0.4020
  251MOL0     H33115   1.218   3.316   8.119  0.0302 -2.9610  0.1068
  251MOL0     H33116   1.702   3.275   7.849 -0.9504  0.8181 -0.4080
  251MOL0     H33117   1.938   3.334   7.933 -1.0883 -0.2724 -0.8196
  251MOL0     H33118   3.690   3.024   8.331 -0.4497  1.1214  0.2836
  251MOL0     H33119   3.913   2.983   8.370 -1.3162 -1.3984  1.3293
  251MOL0     H33120   4.232   2.789   8.691 -0.0452  0.4396  1.8368
  251MOL0     H33121   4.465   2.756   8.716  0.9357 -1.0323  0.4774
  251MOL0     H33122   4.828   2.808   8.618 -0.8611  0.4147 -2.7576
  251MOL0     H33123   4.670   2.730   8.626  0.3848 -0.4026  1.4045
  251MOL0     H33124   4.811   2.888   8.843 -0.1046  0.1355 -1.7138
  251MOL0     H33125   4.658   2.823   8.870  1.4835  2.5994  2.6603
  251MOL0     H33126   4.754   2.584   8.825 -0.0794  0.2059  0.6959
  251MOL0     H33127   4.820   2.680   8.968  1.0960  1.3553 -0.7276
  251MOL0     H33128   4.966   2.653   8.720 -2.5853  0.6418 -0.0105
  251MOL0     H33129   5.010   2.745   8.866  0.5527 -0.0214  1.8630
  251MOL0     H33130   5.092   2.330   8.946 -1.1584  0.4986  1.6303
  251MOL0     H33131   4.556   3.151   8.542  1.5378 -0.0922 -0.1085
  251MOL0     H33132   4.307   3.187   8.535 -0.6091  0.4443  1.5489
  252MOL0     O33133  10.779   6.518   9.229  0.1066  0.6991  0.1560
  252MOL0     C33134  10.819   6.449   9.325 -0.1370 -0.3884 -0.0983
  252MOL0     O33135  10.735   6.403   9.423 -0.1223  0.0332  0.2053
  252MOL0     C33136  10.612   6.463   9.449  0.0847 -0.1331  0.4919
  252MOL0     C33137  10.504   6.398   9.388 -0.1962 -1.2827 -0.3473
  252MOL0     C33138  10.373   6.453   9.402  0.4911  0.3782  0.2156
  252MOL0     C33139  10.344   6.571   9.478 -0.7845  0.4652 -0.0830
  252MOL0     O33140  10.206   6.611   9.491 -0.3022  0.7488 -0.1952
  252MOL0     C33141  10.164   6.652   9.627  0.2232  0.5946  0.4107
  252MOL0     C33142  10.020   6.706   9.623  0.5679 -0.2261  0.5184
  252MOL0     C33143   9.984   6.806   9.509 -0.0569  0.3619 -0.1580
  252MOL0     C33144   9.835   6.850   9.520  0.6759 -0.1636  0.0144
  252MOL0     C33145   9.781   6.949   9.417  0.3854  0.2441 -0.4715
  252MOL0     C33146   9.777   6.888   9.276 -0.7411  0.5486  0.1779
  252MOL0     C33147   9.720   6.987   9.176 -0.7653  0.0163 -0.3637
  252MOL0     C33148   9.573   7.031   9.206 -0.1274  0.0536  0.0491
  252MOL0     N33149   9.506   7.112   9.113 -0.5180  0.4349  0.0057
  252MOL0     C33150   9.521   7.107   8.976 -0.3627  0.1393 -0.0862
  252MOL0     C33151   9.458   7.218   8.923  0.7105  0.5932 -1.1444
  252MOL0     C33152   9.418   7.240   8.778 -0.3304 -0.3407  1.0594
  252MOL0     C33153   9.268   7.224   8.772  0.3020 -0.0015  0.4012
  252MOL0     C33154   9.222   7.076   8.743 -0.0267  0.0252  0.2595
  252MOL0     C33155   9.080   7.062   8.702 -0.1830  0.7206 -0.1504
  252MOL0     O33156   8.993   7.047   8.820  0.2534 -0.1916 -0.5588
  252MOL0     C33157   8.864   6.998   8.799  0.4681  0.4257 -0.0695
  252MOL0     C33158   8.791   6.958   8.917 -0.2973 -0.1145 -0.1504
  252MOL0     C33159   8.657   6.922   8.903 -0.0936  0.8152 -0.1951
  252MOL0     C33160   8.585   6.923   8.778  0.1071  0.7913  0.6103
  252MOL0     C33161   8.439   6.888   8.760 -0.4176  0.0083  0.5047
  252MOL0     O33162   8.397   6.877   8.629 -0.0633  0.0033  1.0302
  252MOL0     C33163   8.265   6.880   8.589 -1.0376 -0.3235  0.4306
  252MOL0     C33164   8.237   6.919   8.453 -0.7214 -0.2573 -0.3757
  252MOL0     C33165   8.105   6.907   8.409 -0.3739 -0.4003  0.6019
  252MOL0     C33166   8.007   6.850   8.485  0.1541  0.2912 -0.8825
  252MOL0     O33167   7.883   6.839   8.429  0.7556 -0.0204  0.6930
  252MOL0     C33168   7.768   6.831   8.514 -0.0013  0.4957  0.7639
  252MOL0     C33169   7.725   6.974   8.555  0.1953 -0.0167 -0.3980
  252MOL0     C33170   7.588   6.969   8.619 -0.8163 -0.3703 -0.6287
  252MOL0     C33171   7.562   7.087   8.720  0.2822 -0.3887 -0.2086
  252MOL0     C33172   7.460   7.038   8.832 -0.2759  0.6226  0.5159
  252MOL0     C33173   7.454   7.133   8.941  0.1338  0.4372  1.2045
  252MOL0     C33174   7.397   7.270   8.897  0.7278 -0.6587 -0.3567
  252MOL0     C33175   7.374   7.359   9.009 -0.4280  0.4260  0.4910
  252MOL0    Cl33176   7.263   7.490   8.948 -0.0218  0.3654 -0.0154
  252MOL0     C33177   8.036   6.799   8.618  0.0144 -1.3268 -0.2404
  252MOL0     C33178   8.168   6.826   8.669  0.0223  0.2169 -0.1057
  252MOL0     O33179   8.369   6.862   8.856 -0.1039 -0.4178 -0.3271
  252MOL0     C33180   8.667   6.964   8.663 -0.2336 -0.1209 -0.1344
  252MOL0     C33181   8.803   6.999   8.670 -0.2586  0.0919 -0.1087
  252MOL0     N33182   9.405   7.288   9.038  0.2969  0.3394  0.2089
  252MOL0     N33183   9.436   7.224   9.138 -0.7086 -0.5502 -0.0214
  252MOL0     C33184  10.459   6.634   9.533 -0.1006 -0.0078  0.3999
  252MOL0     C33185  10.590   6.589   9.508 -0.1873 -0.2663 -0.9702
  252MOL0     C33186  10.957   6.420   9.321 -1.0329 -0.1835  0.0354
  252MOL0     C33187  11.002   6.310   9.392 -0.0853  0.2582  0.0532
  252MOL0     C33188  11.133   6.259   9.385  0.1348 -0.0383  1.4618
  252MOL0     C33189  11.234   6.334   9.315  0.4949  0.4463 -0.3737
  252MOL0     O33190  11.370   6.321   9.333 -0.3909 -0.1788 -0.0770
  252MOL0     C33191  11.415   6.225   9.434  0.2422  0.2045  0.9334
  252MOL0     C33192  11.571   6.218   9.411 -0.2339 -0.7545  0.0898
  252MOL0     C33193  11.642   6.360   9.419  0.2658 -0.6073  0.2902
  252MOL0     C33194  11.801   6.344   9.421  0.3958  0.0849 -0.2678
  252MOL0     C33195  11.850   6.242   9.525  0.0627 -0.2439  0.1442
  252MOL0     C33196  11.895   6.156   9.595 -0.8705 -0.3705 -0.4694
  252MOL0     C33197  11.182   6.450   9.236  0.1420 -0.0965  0.4323
  252MOL0     C33198  11.051   6.489   9.234 -0.1825 -0.9146 -0.2174
  252MOL0     H33199  10.516   6.308   9.328 -1.4553 -2.4542  1.0483
  252MOL0     H33200  10.291   6.388   9.374  1.5915 -1.6270  1.3591
  252MOL0     H33201  10.238   6.725   9.660  2.3938 -1.3477  0.1403
  252MOL0     H33202  10.180   6.559   9.682 -0.2149 -0.4687 -1.1838
  252MOL0     H33203   9.999   6.757   9.717 -0.4139 -0.3913  0.4085
  252MOL0     H33204   9.948   6.623   9.616 -1.0828  1.1783  0.1485
  252MOL0     H33205   9.994   6.761   9.410 -1.6167  0.7044 -0.5006
  252MOL0     H33206  10.041   6.899   9.522  1.1547 -0.5576  1.6236
  252MOL0     H33207   9.782   6.756   9.503  1.3114 -0.3761 -0.8788
  252MOL0     H33208   9.814   6.882   9.622 -1.6152  1.2315 -0.8376
  252MOL0     H33209   9.831   7.046   9.419  2.2322 -0.6608 -0.1597
  252MOL0     H33210   9.675   6.955   9.446  0.9897 -0.5846  2.2240
  252MOL0     H33211   9.714   6.799   9.282  0.4460 -0.3596 -0.4398
  252MOL0     H33212   9.878   6.860   9.244 -0.7694 -0.0417  0.5846
  252MOL0     H33213   9.775   7.082   9.182 -1.7972  0.5236  3.1085
  252MOL0     H33214   9.730   6.938   9.079 -0.1563 -0.6488  0.0226
  252MOL0     H33215   9.583   7.087   9.299 -2.7340  0.1162  0.3649
  252MOL0     H33216   9.515   6.939   9.218  0.5386 -0.9049 -3.0999
  252MOL0     H33217   9.564   7.024   8.922  1.1667  1.4115 -0.9037
  252MOL0     H33218   9.471   7.171   8.711 -2.9978 -0.9383 -0.5741
  252MOL0     H33219   9.450   7.342   8.758  0.4675 -0.7602  0.0738
  252MOL0     H33220   9.232   7.296   8.699 -3.8807 -1.5849  0.6277
  252MOL0     H33221   9.232   7.266   8.866 -1.9287 -1.7721  0.4109
  252MOL0     H33222   9.283   7.036   8.662  0.3007  0.6316  0.1982
  252MOL0     H33223   9.228   7.017   8.835 -2.3269 -0.7949 -0.0738
  252MOL0     H33224   9.077   6.974   8.638 -1.3682 -0.3239  1.2814
  252MOL0     H33225   9.052   7.150   8.643  3.5501  1.0677 -1.7010
  252MOL0     H33226   8.830   6.980   9.015  0.3568  1.7374 -0.7898
  252MOL0     H33227   8.596   6.896   8.989  3.4587 -0.7041  2.1080
  252MOL0     H33228   8.311   6.953   8.381 -0.4993  0.4324  0.1704
  252MOL0     H33229   8.090   6.930   8.304  1.6817 -2.2191 -0.1709
  252MOL0     H33230   7.777   6.768   8.603 -1.5583  0.3097  0.8335
  252MOL0     H33231   7.687   6.786   8.455  2.3004 -2.0125 -0.7296
  252MOL0     H33232   7.715   7.037   8.467 -0.2216 -2.7011 -2.3828
  252MOL0     H33233   7.802   7.013   8.624  1.4880 -2.1819 -0.5152
  252MOL0     H33234   7.584   6.875   8.675 -2.6164 -0.4320 -0.8007
  252MOL0     H33235   7.498   6.971   8.557 -2.3384  4.9341  1.2003
  252MOL0     H33236   7.652   7.136   8.759 -0.4680  1.0168 -0.1683
  252MOL0     H33237   7.516   7.174   8.672 -2.2633 -0.8427  1.1865
  252MOL0     H33238   7.506   6.946   8.870 -0.1932  0.5089  0.1460
  252MOL0     H33239   7.359   7.011   8.797 -1.1744 -2.1401  4.4792
  252MOL0     H33240   7.560   7.149   8.964  0.7904  0.2155 -1.3711
  252MOL0     H33241   7.390   7.104   9.025 -1.3469  0.2811  0.0609
  252MOL0     H33242   7.456   7.326   8.824  1.0149  3.2027  2.5365
  252MOL0     H33243   7.297   7.254   8.855  0.4000 -0.4110  0.3151
  252MOL0     H33244   7.454   7.418   9.055 -3.1134  5.6331 -0.7367
  252MOL0     H33245   7.325   7.294   9.082 -2.3037  1.9526  0.6913
  252MOL0     H33246   7.963   6.754   8.684 -0.2299  2.8703  2.7506
  252MOL0     H33247   8.192   6.796   8.771  1.0860  1.9131  0.1870
  252MOL0     H33248   8.626   6.978   8.564  1.3536  1.4190 -0.6303
  252MOL0     H33249   8.850   7.016   8.574 -0.7358  1.2686 -0.1519
  252MOL0     H33250  10.457   6.728   9.588 -1.8319  0.3516 -0.1835
  252MOL0     H33251  10.674   6.644   9.550 -1.1712 -0.3991  1.2983
  252MOL0     H33252  10.935   6.252   9.454  1.6964 -0.4782  1.4072
  252MOL0     H33253  11.147   6.161   9.429  1.9302 -1.0805 -1.1772
  252MOL0     H33254  11.370   6.126   9.425  0.0255  0.4673 -1.5672
  252MOL0     H33255  11.386   6.269   9.530 -2.5083 -0.1917  0.3594
  252MOL0     H33256  11.617   6.145   9.479  2.6056 -0.0522 -0.9342
  252MOL0     H33257  11.593   6.177   9.313 -0.5066  0.3659 -0.4598
  252MOL0     H33258  11.608   6.410   9.510 -0.0362  2.8104 -1.5607
  252MOL0     H33259  11.614   6.417   9.330 -3.8914 -2.7565 -0.0457
  252MOL0     H33260  11.837   6.301   9.327  1.3861  0.8062 -0.2243
  252MOL0     H33261  11.845   6.442   9.435 -1.9564  1.3717 -1.2777
  252MOL0     H33262  11.930   6.083   9.666 -0.2444  1.0447  0.7400
  252MOL0     H33263  11.247   6.511   9.174  0.3833  0.5900  1.3338
  252MOL0     H33264  11.019   6.576   9.177 -0.2881  0.8820  2.4262
  253MOL0     O33265   0.707   7.165   8.458 -0.5875 -0.4586 -0.6620
  253MOL0     C33266   0.773   7.240   8.384 -0.7691  0.1030 -0.5106
  253MOL0     O33267   0.725   7.338   8.296 -0.4248  0.5187 -0.5955
  253MOL0     C33268   0.594   7.347   8.289  0.4349 -0.6040 -0.0726
  253MOL0     C33269   0.525   7.294   8.182 -0.2703  0.6977 -0.1623
  253MOL0     C33270   0.388   7.296   8.179 -0.2696  0.4858 -0.0332
  253MOL0     C33271   0.311   7.350   8.285 -0.0841  0.4642 -0.3454
  253MOL0     O33272   0.171   7.348   8.292 -0.5651  0.1496  0.2305
  253MOL0     C33273   0.092   7.341   8.169 -0.8119 -0.1874 -0.1613
  253MOL0     C33274   0.037   7.205   8.154 -0.3739 -0.6114 -0.7224
  253MOL0     C33275  -0.097   7.226   8.065 -0.4318 -0.1926 -0.2835
  253MOL0     C33276  -0.157   7.090   8.062 -0.4688  0.4601  0.7000
  253MOL0     C33277  -0.308   7.094   8.025  0.4867  0.1494 -0.5555
  253MOL0     C33278  -0.347   7.108   7.871 -0.3387  0.0671  0.2155
  253MOL0     C33279  -0.499   7.099   7.840 -0.5560  0.9548  0.5066
  253MOL0     C33280  -0.538   7.144   7.702 -0.0192 -0.5310 -0.1372
  253MOL0     N33281  -0.681   7.177   7.694  0.2202 -0.5023  0.2864
  253MOL0     C33282  -0.794   7.090   7.688  0.1411 -0.2760  0.3992
  253MOL0     C33283  -0.905   7.174   7.706  0.2292  0.5795 -0.4065
  253MOL0     C33284  -1.055   7.141   7.715 -1.6778  0.0327  1.3999
  253MOL0     C33285  -1.138   7.192   7.597 -0.2686  0.3159 -0.2291
  253MOL0     C33286  -1.152   7.348   7.602 -0.4970 -0.3712  0.5267
  253MOL0     C33287  -1.279   7.388   7.528  0.2638  0.3353  0.3018
  253MOL0     O33288  -1.389   7.350   7.615 -0.3259 -0.3026 -0.1721
  253MOL0     C33289  -1.513   7.387   7.587 -0.0130  0.0935 -0.0907
  253MOL0     C33290  -1.557   7.439   7.463 -0.0162 -0.2763 -0.5152
  253MOL0     C33291  -1.689   7.472   7.440 -0.1337 -0.3992 -0.6656
  253MOL0     C33292  -1.784   7.451   7.541  0.4930  0.4396 -0.8077
  253MOL0     C33293  -1.934   7.470   7.524  0.4364 -0.2657  0.1031
  253MOL0     O33294  -1.968   7.545   7.421 -0.0817  0.2814 -0.2144
  253MOL0     C33295  -2.103   7.562   7.403  0.0066  0.5842 -1.2452
  253MOL0     C33296  -2.180   7.454   7.354  0.8290  0.2999  0.1198
  253MOL0     C33297  -2.329   7.471   7.339  0.1282  0.0071  0.2316
  253MOL0     C33298  -2.378   7.594   7.358  0.3443  0.0307 -0.5900
  253MOL0     O33299  -2.514   7.621   7.358  0.1984 -0.0610 -0.1619
  253MOL0     C33300  -2.615   7.539   7.300  0.2142  1.0493  1.1698
  253MOL0     C33301  -2.723   7.627   7.266  0.0021 -0.1650 -0.1218
  253MOL0     C33302  -2.827   7.554   7.177  0.5928 -0.7288 -0.0437
  253MOL0     C33303  -2.955   7.628   7.161 -0.9001  0.0267  0.5740
  253MOL0     C33304  -3.070   7.542   7.098 -0.3125 -0.5726 -0.2681
  253MOL0     C33305  -3.034   7.492   6.958 -0.1721 -0.2332 -0.5228
  253MOL0     C33306  -3.012   7.590   6.849  0.2207 -0.1562 -1.1979
  253MOL0     C33307  -2.978   7.512   6.718  0.2316  0.1347  0.4338
  253MOL0    Cl33308  -3.113   7.406   6.672 -0.2132 -0.3251 -0.0357
  253MOL0     C33309  -2.295   7.701   7.386  0.3613  0.3622 -0.4400
  253MOL0     C33310  -2.166   7.682   7.422 -0.1951 -0.1211  0.5039
  253MOL0     O33311  -2.010   7.416   7.604  0.3065  0.4412 -0.1723
  253MOL0     C33312  -1.741   7.407   7.672 -0.4942  0.1950  0.6127
  253MOL0     C33313  -1.607   7.370   7.689 -0.5009 -0.0145  0.6165
  253MOL0     N33314  -0.857   7.305   7.736 -0.2436  0.0520  0.8495
  253MOL0     N33315  -0.725   7.306   7.725  0.6390  0.8918  0.2582
  253MOL0     C33316   0.387   7.428   8.380 -0.1153 -0.2665  0.4717
  253MOL0     C33317   0.525   7.421   8.382  0.5021 -0.9514 -0.4988
  253MOL0     C33318   0.922   7.231   8.406  0.0862  0.2623  0.5885
  253MOL0     C33319   0.980   7.119   8.476 -0.4710  0.1319  0.4789
  253MOL0     C33320   1.119   7.106   8.477 -0.2103  0.6622 -0.0505
  253MOL0     C33321   1.208   7.200   8.420  0.3447  0.8590 -1.2422
  253MOL0     O33322   1.344   7.202   8.426 -0.2449 -0.0081 -0.1562
  253MOL0     C33323   1.410   7.082   8.471  0.0267 -0.6224 -0.9117
  253MOL0     C33324   1.406   6.969   8.355  0.7279  0.3717  1.1037
  253MOL0     C33325   1.507   6.988   8.238 -0.4477 -0.0287 -0.8848
  253MOL0     C33326   1.645   6.907   8.258  0.6963 -0.7077  0.0837
  253MOL0     C33327   1.699   6.921   8.393 -0.4249 -0.2953 -0.9602
  253MOL0     C33328   1.743   6.925   8.510 -0.2402 -0.2920 -0.0783
  253MOL0     C33329   1.148   7.303   8.357  0.3195  0.1188 -0.0677
  253MOL0     C33330   1.011   7.313   8.338 -0.4453  0.1079  0.8957
  253MOL0     H33331   0.586   7.253   8.102 -2.2783 -0.8504 -0.9967
  253MOL0     H33332   0.334   7.261   8.091 -1.4158  0.1077  0.7861
  253MOL0     H33333   0.147   7.374   8.080  0.9139  0.7723  1.1880
  253MOL0     H33334   0.009   7.410   8.183 -0.7646  0.0289 -0.8891
  253MOL0     H33335   0.007   7.166   8.252 -0.3842  0.6625 -0.1871
  253MOL0     H33336   0.113   7.138   8.116 -0.7080  0.5668 -3.7817
  253MOL0     H33337  -0.075   7.256   7.962 -0.9665  0.1284 -0.3052
  253MOL0     H33338  -0.163   7.296   8.116 -0.2640  0.2630 -0.6882
  253MOL0     H33339  -0.105   7.027   7.990 -1.1762  3.3086 -2.5848
  253MOL0     H33340  -0.144   7.048   8.162  1.0612  0.6888  0.6135
  253MOL0     H33341  -0.351   7.180   8.079 -2.3275 -2.1407  1.1347
  253MOL0     H33342  -0.357   7.001   8.055  0.9062 -0.7887 -2.6566
  253MOL0     H33343  -0.300   7.025   7.817 -0.8056 -0.3687  0.4795
  253MOL0     H33344  -0.303   7.205   7.844 -0.2318  0.0958  0.4858
  253MOL0     H33345  -0.523   6.993   7.846  0.4495  0.6416 -0.6607
  253MOL0     H33346  -0.549   7.158   7.918  0.7448 -0.4455  2.5116
  253MOL0     H33347  -0.506   7.067   7.631 -0.6357 -1.2394  0.3300
  253MOL0     H33348  -0.487   7.239   7.684 -3.0604  1.1013 -0.6969
  253MOL0     H33349  -0.804   6.986   7.659 -1.9161  0.2055 -0.8048
  253MOL0     H33350  -1.092   7.180   7.809 -0.3491 -0.0438  1.9800
  253MOL0     H33351  -1.059   7.031   7.719  2.7915 -0.3878 -0.0180
  253MOL0     H33352  -1.238   7.150   7.610 -0.9455  1.1010 -2.4389
  253MOL0     H33353  -1.108   7.150   7.501 -2.6620 -1.1563 -0.4090
  253MOL0     H33354  -1.173   7.381   7.704 -2.5614  0.2679 -0.0692
  253MOL0     H33355  -1.062   7.394   7.559 -1.1268  1.3195  0.9710
  253MOL0     H33356  -1.276   7.349   7.426 -0.2154  1.4259 -0.1447
  253MOL0     H33357  -1.291   7.496   7.516 -3.0076  0.0438 -0.0879
  253MOL0     H33358  -1.496   7.457   7.375 -2.7055  1.6380 -2.1094
  253MOL0     H33359  -1.722   7.504   7.342 -2.1962 -0.1383  0.0625
  253MOL0     H33360  -2.142   7.355   7.333 -0.1644  0.2705 -1.6599
  253MOL0     H33361  -2.389   7.383   7.321  1.8156 -1.4015  1.1286
  253MOL0     H33362  -2.653   7.458   7.363  2.1714 -0.0217  1.0483
  253MOL0     H33363  -2.572   7.507   7.204 -1.7873  0.2665  0.4924
  253MOL0     H33364  -2.667   7.704   7.213  0.4055  0.0740  0.6342
  253MOL0     H33365  -2.768   7.663   7.359 -1.4726 -1.6643 -0.2017
  253MOL0     H33366  -2.851   7.454   7.213  3.3935 -1.8149 -0.9024
  253MOL0     H33367  -2.783   7.541   7.077 -0.1408 -0.8978 -0.3504
  253MOL0     H33368  -2.988   7.679   7.252  0.2559  0.9093  0.5080
  253MOL0     H33369  -2.939   7.715   7.098 -0.7315  0.8746  1.7497
  253MOL0     H33370  -3.156   7.609   7.100 -0.2052 -0.4413  0.0362
  253MOL0     H33371  -3.094   7.459   7.164  1.7356 -0.7030  0.3987
  253MOL0     H33372  -3.115   7.425   6.928 -0.9556  0.0104  0.9540
  253MOL0     H33373  -2.944   7.430   6.965 -1.1810 -1.8949 -1.6634
  253MOL0     H33374  -3.095   7.660   6.834  1.2993  1.9794  1.7749
  253MOL0     H33375  -2.922   7.650   6.867 -0.0140  0.6088 -2.4951
  253MOL0     H33376  -2.893   7.446   6.742  2.5538  3.1669  1.1835
  253MOL0     H33377  -2.963   7.572   6.628  1.9265 -0.2969  0.3929
  253MOL0     H33378  -2.342   7.799   7.392  0.0931  0.4482 -2.9897
  253MOL0     H33379  -2.106   7.765   7.459 -0.7457 -0.1633  1.5442
  253MOL0     H33380  -1.810   7.409   7.756 -0.8223 -2.0429  0.4518
  253MOL0     H33381  -1.578   7.340   7.789 -0.6135 -0.2755  0.5710
  253MOL0     H33382   0.346   7.506   8.443 -0.1078 -0.5710  0.8559
  253MOL0     H33383   0.568   7.482   8.461  1.3201  0.4623 -1.9590
  253MOL0     H33384   0.927   7.035   8.521 -1.6635  0.8786  0.5017
  253MOL0     H33385   1.150   7.017   8.530 -0.0580 -1.5738 -3.5063
  253MOL0     H33386   1.376   7.039   8.567  2.9796 -2.0289 -0.3920
  253MOL0     H33387   1.515   7.105   8.488  1.0164 -1.7162 -4.6514
  253MOL0     H33388   1.435   6.871   8.393  1.5736  0.1339 -0.0785
  253MOL0     H33389   1.307   6.956   8.311  1.4843 -0.6444 -0.3961
  253MOL0     H33390   1.515   7.096   8.228  2.0071  0.2569  2.6606
  253MOL0     H33391   1.460   6.959   8.143  1.5499 -0.7489 -1.7085
  253MOL0     H33392   1.635   6.801   8.236  2.8120 -1.5115  2.4627
  253MOL0     H33393   1.715   6.949   8.186  1.1284  1.5404  1.7006
  253MOL0     H33394   1.778   6.945   8.609  4.8178  1.4576 -1.9039
  253MOL0     H33395   1.212   7.379   8.312  0.2380  1.7545  2.3481
  253MOL0     H33396   0.972   7.387   8.268  3.2737  1.2389 -0.2543
  254MOL0     O33397   5.138   5.783   3.544 -0.3005 -0.2679 -0.1113
  254MOL0     C33398   5.176   5.708   3.452 -0.1557  0.4214  0.8708
  254MOL0     O33399   5.111   5.691   3.332  0.3528  0.5472  0.1140
  254MOL0     C33400   5.018   5.772   3.273  0.2228  0.8688  0.1049
  254MOL0     C33401   4.996   5.742   3.139 -0.2236  0.1386  0.0589
  254MOL0     C33402   4.893   5.808   3.064 -0.1788  0.4443  0.0344
  254MOL0     C33403   4.813   5.907   3.126 -0.0531 -0.4613  0.4774
  254MOL0     O33404   4.714   5.961   3.048  0.0978  0.3628 -0.4065
  254MOL0     C33405   4.616   6.050   3.103  0.1370 -0.2926 -0.0599
  254MOL0     C33406   4.508   6.092   3.001  0.0114 -0.7882 -0.0289
  254MOL0     C33407   4.420   6.208   3.043 -0.7890 -0.2293  0.8322
  254MOL0     C33408   4.339   6.272   2.933  0.4537  0.1583 -0.1751
  254MOL0     C33409   4.269   6.165   2.843 -0.0856 -0.2561 -0.2303
  254MOL0     C33410   4.164   6.228   2.755 -0.0654 -0.0133  0.4498
  254MOL0     C33411   4.121   6.131   2.639  0.4191  1.0467 -0.5808
  254MOL0     C33412   3.996   6.178   2.565  0.7765  0.3228 -0.3677
  254MOL0     N33413   3.953   6.072   2.475  0.0706 -0.3196 -0.3956
  254MOL0     C33414   3.824   6.027   2.451 -0.0970 -0.5976 -0.6862
  254MOL0     C33415   3.832   5.938   2.351  0.8723 -0.1412  0.4828
  254MOL0     C33416   3.725   5.852   2.308  0.8532  0.1798 -0.6721
  254MOL0     C33417   3.628   5.930   2.217 -0.1148  0.3561 -0.1424
  254MOL0     C33418   3.507   5.843   2.194  0.3990 -0.6596  0.3432
  254MOL0     C33419   3.396   5.901   2.104 -0.6340  0.3948  0.2404
  254MOL0     O33420   3.292   5.802   2.091  0.0558  0.3752  0.7870
  254MOL0     C33421   3.163   5.840   2.075  0.5470 -0.3039  0.3901
  254MOL0     C33422   3.109   5.972   2.062  0.1861 -0.2134 -0.7237
  254MOL0     C33423   2.964   5.986   2.035  0.2905 -0.8573 -0.7773
  254MOL0     C33424   2.878   5.874   2.033 -0.2925  0.3037 -0.0895
  254MOL0     C33425   2.736   5.894   2.023 -0.0127  0.0345 -0.0754
  254MOL0     O33426   2.660   5.784   2.056 -0.4325  0.0748 -0.7054
  254MOL0     C33427   2.524   5.775   2.063 -0.0993  0.5584  0.9860
  254MOL0     C33428   2.439   5.883   2.063 -0.7707 -0.3160  0.9865
  254MOL0     C33429   2.303   5.868   2.062 -0.0139  0.0322  0.0391
  254MOL0     C33430   2.241   5.741   2.065  0.6432 -0.4416 -0.2543
  254MOL0     O33431   2.107   5.732   2.056  0.2361  0.0720 -0.5155
  254MOL0     C33432   2.039   5.645   2.148  1.0107 -0.2595 -1.2434
  254MOL0     C33433   1.892   5.674   2.150  0.5984 -0.5802  0.5163
  254MOL0     C33434   1.819   5.622   2.022 -0.2079  0.1189  0.4009
  254MOL0     C33435   1.669   5.660   2.014  0.5502 -0.5024 -0.2226
  254MOL0     C33436   1.582   5.572   2.095  0.3457 -0.1993  0.4384
  254MOL0     C33437   1.434   5.615   2.084 -0.8098 -0.2358 -0.0082
  254MOL0     C33438   1.353   5.553   2.191  0.3336  0.2385 -0.0368
  254MOL0     C33439   1.206   5.607   2.180  0.3591 -0.3007 -0.2159
  254MOL0    Cl33440   1.129   5.545   2.035 -0.0751 -0.2542  0.1091
  254MOL0     C33441   2.323   5.636   2.043 -0.3457 -0.0599 -0.0795
  254MOL0     C33442   2.463   5.646   2.060  0.5335 -0.3105  0.8397
  254MOL0     O33443   2.688   5.998   1.970  0.3053  0.2816 -0.2681
  254MOL0     C33444   2.935   5.747   2.053  0.8282  0.5902  0.4915
  254MOL0     C33445   3.071   5.731   2.066 -0.3512 -0.4044  0.0632
  254MOL0     N33446   3.966   5.944   2.306  0.3823 -0.0215 -0.7802
  254MOL0     N33447   4.039   6.008   2.392  0.6533  0.3499 -0.0727
  254MOL0     C33448   4.833   5.937   3.264  0.0714  0.3425  0.1358
  254MOL0     C33449   4.939   5.865   3.338 -0.5610 -0.3051 -0.1207
  254MOL0     C33450   5.303   5.637   3.457 -0.3196 -0.6278 -0.4744
  254MOL0     C33451   5.396   5.683   3.555 -0.5658 -0.5740 -0.1132
  254MOL0     C33452   5.522   5.608   3.568 -0.6505 -0.1602  0.4995
  254MOL0     C33453   5.556   5.510   3.475  0.3727  0.6861  0.3678
  254MOL0     O33454   5.678   5.450   3.497 -0.7295 -0.1689 -0.1511
  254MOL0     C33455   5.727   5.349   3.402  0.2758  0.0425 -0.3157
  254MOL0     C33456   5.881   5.337   3.412  0.4460  0.6250  0.3496
  254MOL0     C33457   5.930   5.284   3.552 -0.0328 -0.0314  0.0794
  254MOL0     C33458   6.067   5.216   3.556  0.2526 -0.4916  0.4722
  254MOL0     C33459   6.166   5.305   3.501 -0.4789 -0.6935 -0.2427
  254MOL0     C33460   6.250   5.391   3.485 -0.7683 -0.7625 -0.1344
  254MOL0     C33461   5.470   5.482   3.368  0.2944 -0.1594  0.1610
  254MOL0     C33462   5.348   5.554   3.358  0.4048  0.5801  0.7901
  254MOL0     H33463   5.052   5.661   3.094 -0.6606  2.4903 -5.5788
  254MOL0     H33464   4.878   5.781   2.960  1.6244  1.8888 -0.6460
  254MOL0     H33465   4.666   6.139   3.143  1.7291 -1.0588 -0.2778
  254MOL0     H33466   4.572   6.009   3.194  1.2638  1.2995  1.2594
  254MOL0     H33467   4.442   6.007   2.980 -1.0968  0.4007 -1.5921
  254MOL0     H33468   4.552   6.118   2.904  0.2387  1.2533  0.5816
  254MOL0     H33469   4.483   6.279   3.098 -0.5719  1.3472 -1.3212
  254MOL0     H33470   4.358   6.165   3.122 -3.6754  0.3238 -0.9972
  254MOL0     H33471   4.264   6.334   2.984  0.9139  1.1690 -0.7010
  254MOL0     H33472   4.392   6.346   2.873  0.3586  1.9026  1.7890
  254MOL0     H33473   4.231   6.092   2.914 -0.5433 -2.3301 -2.4964
  254MOL0     H33474   4.338   6.112   2.777 -1.8403 -1.3299 -1.2476
  254MOL0     H33475   4.204   6.322   2.714  0.8922  0.0041  1.3729
  254MOL0     H33476   4.076   6.255   2.813  0.9740  1.5735  1.3975
  254MOL0     H33477   4.207   6.127   2.572  3.3275  0.1368  2.8791
  254MOL0     H33478   4.098   6.032   2.679  0.9750  2.0495  2.4599
  254MOL0     H33479   4.022   6.269   2.510 -1.4276  1.2165 -0.0519
  254MOL0     H33480   3.923   6.197   2.644  1.0402  1.7579 -0.4353
  254MOL0     H33481   3.729   6.059   2.494 -0.6214  0.3875 -2.4601
  254MOL0     H33482   3.675   5.804   2.393  3.0466  1.2344  1.3470
  254MOL0     H33483   3.773   5.765   2.262  1.5159 -1.0455  2.1195
  254MOL0     H33484   3.675   5.952   2.120  0.1495 -1.6103 -0.4968
  254MOL0     H33485   3.599   6.024   2.265  0.9475  1.7624 -2.0968
  254MOL0     H33486   3.537   5.746   2.152 -0.9318 -1.2818  0.7684
  254MOL0     H33487   3.450   5.840   2.287 -2.0669  2.7617 -0.8498
  254MOL0     H33488   3.439   5.926   2.006 -1.2778 -0.7819 -0.3629
  254MOL0     H33489   3.367   5.999   2.142  4.0837  1.1022  2.7019
  254MOL0     H33490   3.164   6.065   2.070  2.2907 -1.3574 -1.0383
  254MOL0     H33491   2.915   6.082   2.031  0.3605 -0.8448 -1.5894
  254MOL0     H33492   2.477   5.984   2.068  1.4138 -0.8911 -1.6067
  254MOL0     H33493   2.249   5.960   2.078  1.9205  1.0343  1.2269
  254MOL0     H33494   2.078   5.661   2.249  4.7082  1.1143 -2.7020
  254MOL0     H33495   2.065   5.541   2.126  2.0377 -1.0537  2.8860
  254MOL0     H33496   1.875   5.782   2.156 -4.3295 -1.1101  0.5213
  254MOL0     H33497   1.850   5.626   2.239 -1.1780  0.4739  0.2955
  254MOL0     H33498   1.836   5.515   2.034  1.0896  0.0889 -1.2790
  254MOL0     H33499   1.875   5.653   1.933  0.5014  2.0128  1.4493
  254MOL0     H33500   1.671   5.762   2.051  0.8322  0.0139 -1.6047
  254MOL0     H33501   1.635   5.658   1.909  0.6269  0.2311 -0.2603
  254MOL0     H33502   1.609   5.575   2.201  0.8158  0.3668  0.3098
  254MOL0     H33503   1.593   5.468   2.063 -0.1872 -0.3035  0.5886
  254MOL0     H33504   1.385   5.584   1.991 -2.6643 -0.1452  0.9017
  254MOL0     H33505   1.431   5.723   2.099 -2.0204  0.0443 -1.9343
  254MOL0     H33506   1.358   5.444   2.181  0.6686  0.2697 -0.2152
  254MOL0     H33507   1.387   5.576   2.293 -4.3927 -0.2697  1.9118
  254MOL0     H33508   1.200   5.716   2.187  0.3846 -0.3346  0.3894
  254MOL0     H33509   1.157   5.568   2.269  1.2436  0.0680  0.4532
  254MOL0     H33510   2.288   5.534   2.042  3.9753 -1.7467 -0.0558
  254MOL0     H33511   2.528   5.559   2.065 -0.8361 -1.5397 -1.1069
  254MOL0     H33512   2.878   5.654   2.046 -0.3531  1.4112 -2.7238
  254MOL0     H33513   3.114   5.635   2.092 -0.5243 -0.7389 -0.8803
  254MOL0     H33514   4.768   5.997   3.327  1.3663  0.2847  1.5909
  254MOL0     H33515   4.950   5.895   3.441 -3.1138 -2.8631  1.0422
  254MOL0     H33516   5.386   5.766   3.624  1.5765  1.8663 -2.5029
  254MOL0     H33517   5.594   5.644   3.640 -1.8695 -1.2073  2.3233
  254MOL0     H33518   5.702   5.384   3.301 -1.5375  1.2084  0.4904
  254MOL0     H33519   5.672   5.255   3.420 -3.1679  1.7400 -1.0955
  254MOL0     H33520   5.917   5.267   3.336  0.5801  0.2876  0.7190
  254MOL0     H33521   5.932   5.434   3.400 -0.0381  0.9681  1.0158
  254MOL0     H33522   5.853   5.213   3.583 -0.5118 -0.4844 -1.9942
  254MOL0     H33523   5.929   5.372   3.616  1.5314 -1.3159  1.9781
  254MOL0     H33524   6.105   5.185   3.653  4.2798 -0.8883 -1.0472
  254MOL0     H33525   6.057   5.127   3.494 -1.6597  0.5031 -0.7635
  254MOL0     H33526   6.330   5.461   3.471  1.1022 -3.0087 -1.4967
  254MOL0     H33527   5.488   5.398   3.302  0.1081 -0.8508  0.9674
  254MOL0     H33528   5.298   5.522   3.267  1.7086  0.7739 -0.0271
  255MOL0     O33529   7.123   1.474  10.988 -0.1759 -0.7220  0.0513
  255MOL0     C33530   7.159   1.583  11.032 -0.3721 -0.2403 -0.1721
  255MOL0     O33531   7.083   1.698  11.050  0.0054 -0.5410 -0.1169
  255MOL0     C33532   6.954   1.718  10.992  0.0491 -0.0208  0.0832
  255MOL0     C33533   6.881   1.624  10.915  0.2040  0.0291 -0.1599
  255MOL0     C33534   6.752   1.653  10.870  0.5410 -0.8869  0.4053
  255MOL0     C33535   6.692   1.775  10.909 -0.7585  0.0556  0.2999
  255MOL0     O33536   6.562   1.784  10.890  0.2976  0.1514 -0.1461
  255MOL0     C33537   6.511   1.917  10.862  0.1876  0.3472  0.8080
  255MOL0     C33538   6.366   1.920  10.836  0.4277 -0.8067  0.1815
  255MOL0     C33539   6.311   2.051  10.762  0.4474  0.2414  0.1219
  255MOL0     C33540   6.172   2.093  10.822  0.1381 -0.3072  0.0738
  255MOL0     C33541   6.149   2.243  10.799 -0.2855 -1.1741 -0.2849
  255MOL0     C33542   6.004   2.288  10.841  0.5036  0.1339  0.1938
  255MOL0     C33543   5.989   2.441  10.859 -0.3243 -0.8001  1.0958
  255MOL0     C33544   5.861   2.504  10.792 -0.3497  0.0435 -0.2230
  255MOL0     N33545   5.738   2.445  10.839 -0.1996 -0.3865 -0.7495
  255MOL0     C33546   5.687   2.465  10.967  0.3326 -0.8892  0.3226
  255MOL0     C33547   5.564   2.414  10.957 -0.2420  0.1362  0.0440
  255MOL0     C33548   5.467   2.414  11.075  0.3108 -0.3537  0.0999
  255MOL0     C33549   5.329   2.454  11.019  0.0911  0.0077  0.1370
  255MOL0     C33550   5.255   2.336  10.962 -0.3003  0.8930  0.8566
  255MOL0     C33551   5.118   2.348  10.902 -0.4549 -0.8083  0.6944
  255MOL0     O33552   5.038   2.417  10.998  0.1085 -1.1607  0.1183
  255MOL0     C33553   4.909   2.454  10.969  0.4330  0.6616 -0.7925
  255MOL0     C33554   4.827   2.508  11.071 -0.1623  0.1539 -0.5181
  255MOL0     C33555   4.693   2.556  11.043 -0.0191 -0.4483 -0.7008
  255MOL0     C33556   4.634   2.540  10.916 -0.5977 -0.8684  0.2881
  255MOL0     C33557   4.506   2.601  10.893 -1.4924  0.4613 -0.6006
  255MOL0     O33558   4.425   2.643  10.993  0.1691 -0.2631 -0.3458
  255MOL0     C33559   4.302   2.700  10.957  0.2587  0.5623 -0.1381
  255MOL0     C33560   4.289   2.805  10.865 -0.1944 -0.1857 -0.2516
  255MOL0     C33561   4.169   2.867  10.842 -0.1156 -0.1100 -0.5175
  255MOL0     C33562   4.053   2.823  10.906  0.7455  0.4302  0.9545
  255MOL0     O33563   3.934   2.896  10.889  0.1771  0.0795 -0.0217
  255MOL0     C33564   3.805   2.838  10.928  0.6111 -0.7448 -0.2519
  255MOL0     C33565   3.690   2.909  10.847 -0.1971  0.1517 -0.7423
  255MOL0     C33566   3.675   3.057  10.879  0.3623  0.5309  0.4119
  255MOL0     C33567   3.557   3.130  10.821  0.4607  0.0230 -0.5059
  255MOL0     C33568   3.566   3.271  10.868  0.1890  0.5518 -0.0119
  255MOL0     C33569   3.447   3.342  10.815  0.5723  0.0298 -0.6865
  255MOL0     C33570   3.407   3.469  10.897 -0.5280 -0.1121 -0.0400
  255MOL0     C33571   3.270   3.536  10.865  0.4103  0.4874 -0.2589
  255MOL0    Cl33572   3.133   3.421  10.896 -0.1844 -0.3772  0.0514
  255MOL0     C33573   4.061   2.729  11.009 -0.0927  0.1964 -0.3270
  255MOL0     C33574   4.188   2.674  11.031  0.2413 -0.3861 -0.5776
  255MOL0     O33575   4.488   2.617  10.774  0.3517 -0.1759  0.6169
  255MOL0     C33576   4.715   2.475  10.813 -0.0619  0.1408 -0.1525
  255MOL0     C33577   4.844   2.429  10.846 -0.4269 -0.4723  1.0783
  255MOL0     N33578   5.534   2.375  10.830  0.2593 -0.3041  0.5417
  255MOL0     N33579   5.642   2.395  10.759  0.2974 -0.7758 -0.1990
  255MOL0     C33580   6.758   1.857  10.995 -0.0742 -0.3876  0.0846
  255MOL0     C33581   6.889   1.829  11.034 -0.4234 -0.0724 -0.3581
  255MOL0     C33582   7.303   1.589  11.071 -0.6526  0.2014 -0.0947
  255MOL0     C33583   7.359   1.693  11.140 -0.0806 -0.3455  1.0447
  255MOL0     C33584   7.497   1.688  11.174 -0.6029 -0.8851 -0.3670
  255MOL0     C33585   7.579   1.581  11.140 -0.3398  0.5064 -0.4706
  255MOL0     O33586   7.713   1.595  11.159 -0.3403 -0.3610  0.2014
  255MOL0     C33587   7.811   1.491  11.121 -0.8185 -1.1073 -0.3575
  255MOL0     C33588   7.953   1.570  11.114 -0.1302  1.0910 -0.4358
  255MOL0     C33589   7.974   1.664  11.237 -0.1728  0.4699 -0.3627
  255MOL0     C33590   8.115   1.704  11.246 -0.0523 -0.9021 -0.6815
  255MOL0     C33591   8.180   1.767  11.135  0.4483 -1.2947 -0.0945
  255MOL0     C33592   8.238   1.812  11.035  0.7537 -0.1828 -0.0449
  255MOL0     C33593   7.517   1.466  11.082 -0.0318 -0.2732 -1.1160
  255MOL0     C33594   7.382   1.472  11.044  0.6173 -0.6186  0.3590
  255MOL0     H33595   6.915   1.525  10.885 -1.2193 -0.9300  1.2547
  255MOL0     H33596   6.699   1.594  10.796  1.3256  1.0447 -1.8191
  255MOL0     H33597   6.572   1.942  10.775  1.2893 -4.3023 -0.0596
  255MOL0     H33598   6.526   1.978  10.951  0.4782 -0.6548  1.4680
  255MOL0     H33599   6.315   1.919  10.933 -1.3332  0.8585 -0.6796
  255MOL0     H33600   6.338   1.839  10.768  0.1098 -0.9997  0.5371
  255MOL0     H33601   6.308   2.036  10.654 -4.1140  2.9000 -0.3650
  255MOL0     H33602   6.372   2.137  10.790 -2.8324  1.9831  2.5926
  255MOL0     H33603   6.085   2.033  10.793 -0.2074  0.0987  0.2543
  255MOL0     H33604   6.180   2.086  10.931 -1.0086  0.2017  0.2043
  255MOL0     H33605   6.177   2.271  10.697  0.5801 -0.3057  0.1740
  255MOL0     H33606   6.218   2.301  10.861 -0.2364 -0.4089 -1.0328
  255MOL0     H33607   5.979   2.232  10.932 -0.3912 -1.5143 -1.0187
  255MOL0     H33608   5.921   2.257  10.777 -0.4704  2.3180  0.3199
  255MOL0     H33609   5.983   2.474  10.963  0.3489 -0.0294  0.8990
  255MOL0     H33610   6.074   2.489  10.809 -1.8403  2.2456  1.1957
  255MOL0     H33611   5.861   2.500  10.682 -1.7357 -0.2835 -0.2276
  255MOL0     H33612   5.862   2.609  10.821  1.7861 -0.7972  3.3246
  255MOL0     H33613   5.731   2.515  11.052  2.0644 -0.4537 -0.7751
  255MOL0     H33614   5.500   2.498  11.138 -0.5102  0.0265  0.0319
  255MOL0     H33615   5.475   2.317  11.125  1.4521  1.5721  4.0764
  255MOL0     H33616   5.341   2.540  10.953  1.7618 -0.1057  0.2445
  255MOL0     H33617   5.271   2.471  11.111  1.9345 -0.2404  1.4050
  255MOL0     H33618   5.320   2.282  10.893  1.0630  0.2230  2.5625
  255MOL0     H33619   5.231   2.260  11.037 -3.2860 -0.0402 -0.9154
  255MOL0     H33620   5.076   2.248  10.886  1.0028 -1.7121  2.1962
  255MOL0     H33621   5.125   2.379  10.797 -0.5552 -2.2449  0.2418
  255MOL0     H33622   4.879   2.511  11.167  0.0491  3.6395 -0.6477
  255MOL0     H33623   4.634   2.592  11.127 -1.0414  0.8992 -1.9322
  255MOL0     H33624   4.380   2.839  10.816 -0.4253 -1.1570 -1.3971
  255MOL0     H33625   4.168   2.942  10.764 -0.7273  2.2674  1.6505
  255MOL0     H33626   3.793   2.852  11.036 -0.1265  0.0942 -0.4237
  255MOL0     H33627   3.804   2.730  10.910 -0.7910 -1.8650  4.9210
  255MOL0     H33628   3.593   2.864  10.867 -1.5673  2.8419 -0.8085
  255MOL0     H33629   3.720   2.898  10.742  1.6165  0.4846 -0.2982
  255MOL0     H33630   3.764   3.115  10.854 -0.0522  0.2020 -2.0582
  255MOL0     H33631   3.665   3.060  10.988  0.5273 -0.2919  0.4598
  255MOL0     H33632   3.545   3.116  10.713 -2.7639 -4.4525  0.1224
  255MOL0     H33633   3.464   3.099  10.871  0.5841  0.1608 -0.1895
  255MOL0     H33634   3.660   3.322  10.842  0.5286  1.1531  2.1918
  255MOL0     H33635   3.569   3.270  10.977  0.0435 -1.6153  0.0123
  255MOL0     H33636   3.360   3.276  10.823  0.2654  0.4771 -0.2816
  255MOL0     H33637   3.446   3.360  10.707  2.7744  0.7534 -0.6271
  255MOL0     H33638   3.410   3.444  11.004  3.3295 -0.7468 -0.1312
  255MOL0     H33639   3.483   3.546  10.882 -1.7167  1.2932  0.8331
  255MOL0     H33640   3.270   3.567  10.760 -2.7311  0.2632 -0.4083
  255MOL0     H33641   3.270   3.627  10.927 -0.6637 -0.0880  0.6166
  255MOL0     H33642   3.974   2.693  11.063  0.0051 -3.3291 -2.2138
  255MOL0     H33643   4.188   2.603  11.112 -0.0800 -0.5591 -0.7256
  255MOL0     H33644   4.682   2.466  10.710 -0.9308  0.8687  0.0496
  255MOL0     H33645   4.891   2.398  10.753 -2.2675  1.2375 -0.5253
  255MOL0     H33646   6.703   1.940  11.039 -0.2133 -0.9579  1.0161
  255MOL0     H33647   6.942   1.899  11.097 -1.4814  1.3052 -0.9397
  255MOL0     H33648   7.295   1.777  11.167 -0.4940  0.6350 -2.4681
  255MOL0     H33649   7.538   1.779  11.217 -0.1720  0.1355 -2.7792
  255MOL0     H33650   7.797   1.447  11.022 -0.0546  1.9849 -1.9422
  255MOL0     H33651   7.828   1.415  11.199 -0.7601 -0.2011  0.5369
  255MOL0     H33652   8.029   1.492  11.122 -1.4697 -0.1361  0.8256
  255MOL0     H33653   7.956   1.622  11.017  2.7734  0.2261 -0.9095
  255MOL0     H33654   7.942   1.603  11.322  1.8848  0.3805  0.4041
  255MOL0     H33655   7.916   1.757  11.233 -0.3580  0.5253  2.3307
  255MOL0     H33656   8.115   1.775  11.328  0.3304 -1.3986 -0.2471
  255MOL0     H33657   8.160   1.609  11.276 -0.1773 -0.6768  0.2434
  255MOL0     H33658   8.300   1.829  10.950 -1.2787 -0.2975 -1.6240
  255MOL0     H33659   7.578   1.382  11.052  1.7663  1.3782 -2.3623
  255MOL0     H33660   7.339   1.384  10.998 -1.8738  1.2983 -1.2427
  256MOL0     O33661   8.353   4.227   4.495 -0.9698  0.1079 -0.1077
  256MOL0     C33662   8.338   4.170   4.385  1.3579  0.4050  0.2537
  256MOL0     O33663   8.263   4.059   4.372  0.4350 -0.3377  0.1468
  256MOL0     C33664   8.201   4.005   4.484  0.2515  0.6805 -0.0805
  256MOL0     C33665   8.083   3.928   4.464  0.1628 -0.0767 -0.6703
  256MOL0     C33666   8.017   3.870   4.570  0.2675 -0.3927  0.3911
  256MOL0     C33667   8.066   3.873   4.705  0.3938  0.6934  0.2205
  256MOL0     O33668   8.007   3.809   4.809  0.3699  0.1577 -0.6266
  256MOL0     C33669   7.877   3.739   4.789 -0.0838  0.3058 -0.8248
  256MOL0     C33670   7.825   3.695   4.932 -0.0083  0.4960  0.1252
  256MOL0     C33671   7.671   3.658   4.941  0.5574  0.1675 -0.3449
  256MOL0     C33672   7.628   3.668   5.082  0.3010  0.1558 -0.5605
  256MOL0     C33673   7.491   3.609   5.115  0.3203  0.0009  0.4507
  256MOL0     C33674   7.448   3.644   5.256  0.4748 -0.2492  0.1683
  256MOL0     C33675   7.298   3.670   5.257  0.4429 -0.8626 -0.0293
  256MOL0     C33676   7.260   3.805   5.204  0.2621 -0.5646  0.6682
  256MOL0     N33677   7.261   3.911   5.309 -0.1628 -0.4863 -0.0515
  256MOL0     C33678   7.372   3.987   5.340  0.4895 -0.5026  0.3007
  256MOL0     C33679   7.336   4.072   5.439 -0.4246  0.7611  0.9029
  256MOL0     C33680   7.423   4.145   5.538 -0.0542  0.0747 -0.3545
  256MOL0     C33681   7.560   4.173   5.483  0.4548  0.6680 -0.4289
  256MOL0     C33682   7.646   4.050   5.511 -0.2875 -0.3850 -0.3090
  256MOL0     C33683   7.773   4.047   5.423  0.2022 -1.1429  0.0625
  256MOL0     O33684   7.877   3.972   5.479 -0.5607  0.1446  0.4897
  256MOL0     C33685   7.996   3.987   5.408 -0.3009  0.0264  0.1144
  256MOL0     C33686   8.011   3.947   5.277  0.0835 -0.7779  0.6995
  256MOL0     C33687   8.134   3.968   5.205  0.9177  1.1490 -0.4649
  256MOL0     C33688   8.240   4.030   5.272  0.0940 -0.8135  0.4698
  256MOL0     C33689   8.366   4.067   5.203  0.4693  0.6178  0.7751
  256MOL0     O33690   8.365   4.033   5.074 -0.0511 -0.3465  0.7131
  256MOL0     C33691   8.488   4.024   5.007 -0.0194 -0.7412 -0.5448
  256MOL0     C33692   8.501   4.078   4.876 -0.0318 -0.1107 -0.6254
  256MOL0     C33693   8.625   4.086   4.810 -0.0445 -0.5618 -0.1088
  256MOL0     C33694   8.743   4.041   4.877 -0.1486  0.5687  0.3351
  256MOL0     O33695   8.875   4.045   4.829 -0.1551  0.2111 -0.5529
  256MOL0     C33696   8.951   4.149   4.895 -0.5515  0.1892 -0.2936
  256MOL0     C33697   8.879   4.283   4.929  0.7126 -0.1489 -0.3381
  256MOL0     C33698   8.988   4.390   4.958 -0.5148  0.4531  0.5080
  256MOL0     C33699   8.936   4.505   5.052 -0.3196 -0.2988  0.6580
  256MOL0     C33700   9.052   4.570   5.130 -0.2431 -0.2164  0.6236
  256MOL0     C33701   9.169   4.628   5.041  0.8185 -0.1679 -0.0294
  256MOL0     C33702   9.122   4.738   4.937  0.3334 -0.6484  1.0073
  256MOL0     C33703   9.228   4.787   4.849  0.5317 -0.0631 -0.2705
  256MOL0    Cl33704   9.178   4.918   4.733  0.0612  0.5089  0.3231
  256MOL0     C33705   8.725   3.974   5.001 -0.0290  0.7739  0.1739
  256MOL0     C33706   8.601   3.962   5.064  0.7889 -0.2448  0.0599
  256MOL0     O33707   8.458   4.106   5.272  0.1221  0.2938 -0.1005
  256MOL0     C33708   8.227   4.064   5.412  1.1787  0.5612 -0.6576
  256MOL0     C33709   8.105   4.034   5.472 -0.0400 -0.9259 -0.4741
  256MOL0     N33710   7.198   4.040   5.458  0.3048 -0.0840  1.4172
  256MOL0     N33711   7.150   3.951   5.382 -0.7768  0.0491  0.4253
  256MOL0     C33712   8.186   3.941   4.722 -0.5619  1.0728 -0.1099
  256MOL0     C33713   8.251   3.998   4.608 -0.6075  0.4549 -0.6576
  256MOL0     C33714   8.429   4.212   4.273 -0.3919  0.2337  0.1082
  256MOL0     C33715   8.551   4.269   4.297  1.1787  0.3553  0.3946
  256MOL0     C33716   8.636   4.309   4.190  0.6082  0.3489  0.4401
  256MOL0     C33717   8.598   4.280   4.057  0.1826 -0.6693 -0.2622
  256MOL0     O33718   8.678   4.328   3.965  0.0569 -0.2031  0.0064
  256MOL0     C33719   8.705   4.232   3.859 -0.1584  0.4220 -0.4363
  256MOL0     C33720   8.848   4.257   3.815 -0.1760 -0.6445  1.1008
  256MOL0     C33721   8.873   4.403   3.754 -0.3848 -0.6860 -0.6933
  256MOL0     C33722   8.997   4.466   3.822  0.2307 -0.0508 -0.4816
  256MOL0     C33723   8.980   4.467   3.968 -0.1747 -0.2856 -0.0071
  256MOL0     C33724   8.989   4.467   4.087  0.0730  0.2225  0.3734
  256MOL0     C33725   8.479   4.201   4.041 -0.6372  0.2843  0.4538
  256MOL0     C33726   8.397   4.166   4.141 -0.1002 -0.6653  0.4565
  256MOL0     H33727   8.045   3.919   4.363 -0.4157 -4.5794 -0.2245
  256MOL0     H33728   7.931   3.806   4.556  0.4658 -0.6678  0.4112
  256MOL0     H33729   7.879   3.649   4.726  0.8106 -0.1760 -0.1328
  256MOL0     H33730   7.800   3.804   4.748 -0.8978 -0.1690 -0.0763
  256MOL0     H33731   7.839   3.780   4.999 -0.6734  0.3515  0.4570
  256MOL0     H33732   7.882   3.608   4.967 -0.3763 -0.2865 -1.1621
  256MOL0     H33733   7.659   3.559   4.895  2.2665 -0.3277  0.2135
  256MOL0     H33734   7.607   3.722   4.879  3.2207  0.1216 -3.3857
  256MOL0     H33735   7.694   3.617   5.153 -0.1721  0.6233  0.2318
  256MOL0     H33736   7.621   3.776   5.099 -0.4084  0.1484 -0.7500
  256MOL0     H33737   7.484   3.500   5.106  0.0918 -0.0420  1.0607
  256MOL0     H33738   7.425   3.648   5.037 -1.0341  1.7207  2.3515
  256MOL0     H33739   7.506   3.727   5.297  1.7871 -0.2087 -1.6449
  256MOL0     H33740   7.456   3.556   5.321 -2.7567 -2.5844 -2.2325
  256MOL0     H33741   7.239   3.591   5.211 -0.4285 -0.5444  0.5097
  256MOL0     H33742   7.280   3.679   5.365 -0.2376  0.2570 -0.2163
  256MOL0     H33743   7.163   3.802   5.154 -1.2741  2.3688  3.1054
  256MOL0     H33744   7.338   3.840   5.136  2.6175 -3.1536  1.8383
  256MOL0     H33745   7.467   3.958   5.296 -1.6019 -0.4262 -5.1387
  256MOL0     H33746   7.429   4.085   5.629 -1.4362 -2.1212 -1.6130
  256MOL0     H33747   7.391   4.248   5.560  3.1678  0.4535  3.8742
  256MOL0     H33748   7.608   4.250   5.546  2.3774 -0.3194 -0.5974
  256MOL0     H33749   7.565   4.198   5.376  0.1384  1.7969 -0.2017
  256MOL0     H33750   7.682   4.061   5.614 -1.2744 -3.6364  0.4971
  256MOL0     H33751   7.584   3.960   5.509 -1.2891  0.1557  2.1115
  256MOL0     H33752   7.813   4.147   5.406 -1.5863 -0.6558 -1.8045
  256MOL0     H33753   7.746   4.013   5.322  1.7339  1.4793 -1.3394
  256MOL0     H33754   7.931   3.918   5.210 -0.8010  0.2380  1.2893
  256MOL0     H33755   8.145   3.937   5.102  0.4097  1.0720 -0.4974
  256MOL0     H33756   8.410   4.114   4.829  0.0935  1.3661  0.2293
  256MOL0     H33757   8.623   4.143   4.717 -1.5680  2.4153  1.6014
  256MOL0     H33758   9.037   4.174   4.831  1.4819  0.4789  2.3629
  256MOL0     H33759   9.005   4.115   4.984 -0.2491  2.2170  0.3521
  256MOL0     H33760   8.809   4.263   5.010  2.0732 -0.8298  0.7265
  256MOL0     H33761   8.824   4.301   4.837  2.7584 -2.0818 -2.0665
  256MOL0     H33762   9.016   4.433   4.862 -1.0602  1.2250  0.6807
  256MOL0     H33763   9.074   4.333   4.994 -0.0751 -0.3747 -1.7009
  256MOL0     H33764   8.873   4.584   5.009  1.6953  0.0314 -1.9827
  256MOL0     H33765   8.872   4.458   5.126 -0.3211 -0.0071  0.8461
  256MOL0     H33766   9.086   4.494   5.202  0.1452 -0.6803 -0.0357
  256MOL0     H33767   9.020   4.649   5.198 -0.9287  2.7107 -2.8442
  256MOL0     H33768   9.227   4.548   4.994 -0.4465 -1.0265 -0.2071
  256MOL0     H33769   9.238   4.680   5.108  0.6879  0.8263 -0.6452
  256MOL0     H33770   9.042   4.696   4.875  1.1640 -0.3895 -0.2584
  256MOL0     H33771   9.078   4.826   4.986 -0.0173  0.1638 -0.6880
  256MOL0     H33772   9.272   4.703   4.796 -1.5979 -1.9183  0.7381
  256MOL0     H33773   9.302   4.838   4.912 -1.4444  1.2469  1.1447
  256MOL0     H33774   8.812   3.928   5.046 -0.9215 -0.9141  0.2711
  256MOL0     H33775   8.598   3.921   5.165 -2.7336  0.2333  0.2733
  256MOL0     H33776   8.315   4.100   5.464  1.7892 -0.5469 -0.9026
  256MOL0     H33777   8.101   4.061   5.577  2.0916  2.5485 -1.1286
  256MOL0     H33778   8.231   3.927   4.820  0.6899  2.3246 -0.4749
  256MOL0     H33779   8.350   4.040   4.619 -0.8244  0.6268  0.9604
  256MOL0     H33780   8.586   4.289   4.398  2.1857 -0.2740  0.1917
  256MOL0     H33781   8.731   4.349   4.225  1.6871 -3.2512  2.1333
  256MOL0     H33782   8.643   4.242   3.769 -0.6027  0.6753 -0.1111
  256MOL0     H33783   8.695   4.131   3.899  0.6632  0.0990 -1.0341
  256MOL0     H33784   8.919   4.226   3.893  0.6881 -0.2692  0.4902
  256MOL0     H33785   8.868   4.183   3.737 -4.9722 -0.2707 -0.8166
  256MOL0     H33786   8.793   4.478   3.757  0.7156  0.4996  1.3249
  256MOL0     H33787   8.904   4.400   3.649 -0.7077  1.1420 -0.8694
  256MOL0     H33788   9.080   4.401   3.792  0.3852 -0.6379  1.1335
  256MOL0     H33789   9.019   4.569   3.791 -0.0460  1.3733  3.4816
  256MOL0     H33790   8.984   4.464   4.194  0.8806  0.7988  0.4396
  256MOL0     H33791   8.450   4.175   3.939 -0.4346  1.2625  0.1328
  256MOL0     H33792   8.305   4.110   4.126  0.3415 -1.4825  0.7164
  257MOL0     O33793   2.320   3.496   6.207 -0.2765 -0.8690 -0.8748
  257MOL0     C33794   2.314   3.420   6.112 -0.0207 -0.0075 -0.0913
  257MOL0     O33795   2.209   3.414   6.024  0.0970  0.2286  0.1390
  257MOL0     C33796   2.094   3.467   6.064  0.5070 -0.2101 -0.3221
  257MOL0     C33797   2.067   3.596   6.031  0.4138 -0.9110  0.5190
  257MOL0     C33798   1.952   3.660   6.069 -0.2484 -0.1070  0.3367
  257MOL0     C33799   1.852   3.590   6.148 -0.9883 -0.3170  0.2760
  257MOL0     O33800   1.734   3.646   6.195  0.0894  0.0751 -0.4999
  257MOL0     C33801   1.772   3.771   6.253  0.8573  0.0528 -0.5205
  257MOL0     C33802   1.662   3.810   6.353 -1.3548  0.4462 -1.1879
  257MOL0     C33803   1.531   3.819   6.285  0.3770  0.6099 -0.7386
  257MOL0     C33804   1.428   3.890   6.383 -0.3773 -0.5226  1.0619
  257MOL0     C33805   1.301   3.909   6.305 -1.2189  0.6182 -0.5100
  257MOL0     C33806   1.191   3.941   6.400 -0.7048 -0.1362  0.3291
  257MOL0     C33807   1.052   3.906   6.330 -0.1698  0.0654 -0.4003
  257MOL0     C33808   0.956   3.848   6.432 -0.5019 -0.0111 -0.1534
  257MOL0     N33809   0.823   3.816   6.383 -0.1723  0.1291 -0.5928
  257MOL0     C33810   0.787   3.690   6.343  0.1909 -0.2040  0.5256
  257MOL0     C33811   0.648   3.698   6.328 -0.5890 -0.7807  0.0597
  257MOL0     C33812   0.558   3.585   6.296  0.5037  0.3296 -0.0685
  257MOL0     C33813   0.446   3.574   6.399 -0.3682 -0.2580 -0.0025
  257MOL0     C33814   0.322   3.497   6.357 -0.3245 -0.3975 -0.1954
  257MOL0     C33815   0.208   3.529   6.465 -0.1829 -0.8210 -0.2500
  257MOL0     O33816   0.085   3.454   6.452 -0.4905 -0.8687 -0.4579
  257MOL0     C33817   0.001   3.420   6.548  0.2808  0.0633 -0.3803
  257MOL0     C33818  -0.000   3.472   6.682  0.1177 -0.4094 -0.3565
  257MOL0     C33819  -0.104   3.437   6.775 -0.0733 -0.7413  0.3956
  257MOL0     C33820  -0.202   3.347   6.728  0.4261  0.0028 -0.3156
  257MOL0     C33821  -0.317   3.304   6.818 -0.8279 -1.0656 -0.1312
  257MOL0     O33822  -0.321   3.348   6.947  0.7019 -0.0007  0.6685
  257MOL0     C33823  -0.436   3.315   7.019  0.9826 -0.1752 -0.7147
  257MOL0     C33824  -0.492   3.186   7.030 -0.2531  0.7183  1.1131
  257MOL0     C33825  -0.594   3.159   7.120 -0.6227 -0.3406  1.0907
  257MOL0     C33826  -0.646   3.259   7.202 -0.2824 -0.3430 -0.1564
  257MOL0     O33827  -0.728   3.224   7.312  0.0386 -0.3911 -0.2500
  257MOL0     C33828  -0.848   3.308   7.317  0.4313  0.1129  0.1768
  257MOL0     C33829  -0.920   3.279   7.458  0.6772 -0.8855 -0.5669
  257MOL0     C33830  -1.034   3.176   7.452  0.3663  1.0602  0.0946
  257MOL0     C33831  -1.130   3.208   7.574  0.4282  0.6477 -0.5738
  257MOL0     C33832  -1.062   3.191   7.713 -0.0314 -0.2874  1.2336
  257MOL0     C33833  -1.146   3.190   7.837  0.3685  0.0173 -0.1309
  257MOL0     C33834  -1.059   3.169   7.960  0.2638  0.7547 -0.4309
  257MOL0     C33835  -1.143   3.176   8.085  0.0000  0.4445 -0.4368
  257MOL0    Cl33836  -1.044   3.126   8.224 -0.5511  0.0025  0.3552
  257MOL0     C33837  -0.612   3.389   7.176 -0.2015  0.6480  1.0493
  257MOL0     C33838  -0.502   3.412   7.087 -0.7183  0.0329  0.0152
  257MOL0     O33839  -0.399   3.235   6.764  0.2142  0.0995 -0.1080
  257MOL0     C33840  -0.194   3.286   6.600 -0.5315  0.4380 -1.3074
  257MOL0     C33841  -0.099   3.328   6.515 -0.2121  0.5882 -0.1957
  257MOL0     N33842   0.607   3.821   6.374 -0.3896  0.4202 -0.4090
  257MOL0     N33843   0.712   3.898   6.390 -0.1872  0.0718 -0.2965
  257MOL0     C33844   1.878   3.458   6.178  0.4527 -0.3759  0.1157
  257MOL0     C33845   1.998   3.400   6.139  0.1823 -0.1891 -0.1305
  257MOL0     C33846   2.431   3.330   6.086  0.0820  0.0959  0.3612
  257MOL0     C33847   2.421   3.219   6.001  0.0468 -0.2339 -0.0132
  257MOL0     C33848   2.528   3.138   5.992  0.1173  0.9921 -0.3194
  257MOL0     C33849   2.651   3.167   6.057  0.5448  0.4090 -0.7895
  257MOL0     O33850   2.754   3.081   6.028  0.0699 -0.0117 -0.6804
  257MOL0     C33851   2.880   3.102   6.101 -0.4834  0.1011 -0.3003
  257MOL0     C33852   2.864   3.039   6.234  0.0116  0.1592 -0.6569
  257MOL0     C33853   2.835   2.888   6.226 -0.4515  0.6159 -0.4728
  257MOL0     C33854   2.931   2.810   6.129  0.0994 -0.1851 -0.8081
  257MOL0     C33855   3.067   2.816   6.176 -1.0009  0.2560  0.9184
  257MOL0     C33856   3.178   2.810   6.227 -0.0257 -0.2992  0.1249
  257MOL0     C33857   2.653   3.286   6.135  0.5311 -0.2582  0.3045
  257MOL0     C33858   2.539   3.364   6.159 -0.1503 -0.5874  0.0381
  257MOL0     H33859   2.138   3.642   5.964 -0.6277  1.7353  1.1304
  257MOL0     H33860   1.916   3.759   6.042 -0.5216 -1.1844 -3.8380
  257MOL0     H33861   1.771   3.842   6.171 -0.5870  0.2298 -0.3735
  257MOL0     H33862   1.867   3.772   6.308  0.1994  0.6359  0.6347
  257MOL0     H33863   1.691   3.907   6.394  4.0398 -0.2981 -2.5489
  257MOL0     H33864   1.664   3.735   6.432 -0.2002 -0.4095 -1.9865
  257MOL0     H33865   1.495   3.717   6.267 -2.2699  1.3730 -0.1650
  257MOL0     H33866   1.542   3.877   6.192  1.0036  0.4490 -0.7714
  257MOL0     H33867   1.408   3.824   6.468  0.2452 -0.1127  1.5389
  257MOL0     H33868   1.469   3.984   6.421 -0.4953 -1.0984  2.6655
  257MOL0     H33869   1.283   3.817   6.249 -0.1657  1.3046 -2.0526
  257MOL0     H33870   1.306   3.984   6.225  0.4766  0.8283 -0.2480
  257MOL0     H33871   1.189   4.050   6.411  1.5318 -0.2482  2.8484
  257MOL0     H33872   1.204   3.897   6.499 -0.8624  1.2432  0.9793
  257MOL0     H33873   1.016   4.000   6.287 -2.1120 -0.4394 -0.0101
  257MOL0     H33874   1.069   3.833   6.249  1.1536  1.8886 -1.8569
  257MOL0     H33875   0.947   3.917   6.516  1.2143  0.6417 -0.4691
  257MOL0     H33876   1.008   3.760   6.472 -1.5836  0.9715  3.9328
  257MOL0     H33877   0.852   3.608   6.317  0.2690  0.3326 -1.0458
  257MOL0     H33878   0.601   3.485   6.287 -0.3396 -0.2603  1.7805
  257MOL0     H33879   0.517   3.603   6.196  0.3571  1.6496  0.2000
  257MOL0     H33880   0.405   3.676   6.404  0.2322 -0.0772  2.7232
  257MOL0     H33881   0.488   3.555   6.498 -0.0821  4.4078  1.0230
  257MOL0     H33882   0.282   3.532   6.261  1.9037  2.5943 -0.1840
  257MOL0     H33883   0.345   3.390   6.356  0.3085 -0.2759  0.4029
  257MOL0     H33884   0.187   3.636   6.465 -0.7929 -0.9225 -1.5675
  257MOL0     H33885   0.240   3.506   6.567 -3.5916 -1.1392  0.8859
  257MOL0     H33886   0.076   3.543   6.712  0.6922 -0.4080 -1.7326
  257MOL0     H33887  -0.115   3.470   6.878  0.3981 -0.3809  0.3376
  257MOL0     H33888  -0.456   3.108   6.964 -1.9147 -1.2410  2.3953
  257MOL0     H33889  -0.641   3.062   7.127 -0.2020 -0.5886  0.4946
  257MOL0     H33890  -0.916   3.286   7.234  1.4200 -5.2278  0.3728
  257MOL0     H33891  -0.815   3.412   7.316  1.7409 -0.2757  0.5448
  257MOL0     H33892  -0.957   3.376   7.492  0.2734 -1.3476  0.3324
  257MOL0     H33893  -0.845   3.258   7.535  0.8646  0.2512 -0.4318
  257MOL0     H33894  -0.994   3.076   7.474  0.2894  1.2501  1.1412
  257MOL0     H33895  -1.089   3.184   7.358  1.3494  2.3352 -0.4023
  257MOL0     H33896  -1.173   3.308   7.574 -1.4881 -0.1252  0.3119
  257MOL0     H33897  -1.215   3.140   7.572  1.3177 -0.5931  1.0966
  257MOL0     H33898  -0.987   3.268   7.731  1.1758 -0.4717 -2.1870
  257MOL0     H33899  -1.010   3.095   7.713  0.7332  0.1238  1.1990
  257MOL0     H33900  -1.215   3.106   7.832  1.2812 -0.9030  1.7155
  257MOL0     H33901  -1.202   3.284   7.841 -2.9947 -1.8290 -0.1805
  257MOL0     H33902  -1.023   3.066   7.951 -0.3694  0.3542  1.2987
  257MOL0     H33903  -0.969   3.231   7.971  2.2575 -1.7312 -1.5798
  257MOL0     H33904  -1.227   3.107   8.072  0.1601  0.2044 -0.2104
  257MOL0     H33905  -1.164   3.281   8.104  1.7358  1.1751 -2.1876
  257MOL0     H33906  -0.653   3.481   7.216 -1.9056  1.3145 -1.9603
  257MOL0     H33907  -0.469   3.515   7.080 -1.5688  0.3093 -0.0719
  257MOL0     H33908  -0.270   3.222   6.557 -1.5752  1.0316 -0.3914
  257MOL0     H33909  -0.084   3.296   6.412  3.0145 -0.0696  0.3866
  257MOL0     H33910   1.802   3.404   6.233  0.6057  0.4183  1.1499
  257MOL0     H33911   2.026   3.305   6.183  1.3687 -1.0178 -2.4686
  257MOL0     H33912   2.324   3.201   5.957  0.4031  0.2690 -1.0323
  257MOL0     H33913   2.526   3.047   5.932 -0.6205  0.7178  0.1098
  257MOL0     H33914   2.904   3.209   6.111  0.6787 -0.3269  2.5605
  257MOL0     H33915   2.968   3.058   6.053  0.5592  2.0744 -0.3042
  257MOL0     H33916   2.950   3.055   6.299 -2.5411 -2.1337  3.7849
  257MOL0     H33917   2.780   3.087   6.286  1.5235  1.4001  0.7357
  257MOL0     H33918   2.733   2.887   6.188 -0.0152  0.2175 -1.6770
  257MOL0     H33919   2.838   2.840   6.324  1.0814  2.3609  0.4116
  257MOL0     H33920   2.902   2.705   6.122 -1.0487  0.1654 -1.5635
  257MOL0     H33921   2.921   2.853   6.029  0.1334 -3.4723 -2.3699
  257MOL0     H33922   3.274   2.810   6.274 -0.8268  0.0537  1.8461
  257MOL0     H33923   2.739   3.343   6.167 -0.1635  3.2196 -3.2769
  257MOL0     H33924   2.554   3.453   6.219  0.3597 -1.8079  1.7922
  258MOL0     O33925   0.464   2.402  10.344  0.3009  0.9471 -0.7847
  258MOL0     C33926   0.473   2.289  10.313 -0.1799  1.1287  0.1566
  258MOL0     O33927   0.368   2.206  10.293  0.1343 -0.4473 -0.4090
  258MOL0     C33928   0.245   2.261  10.281  0.4578  0.4044 -0.3714
  258MOL0     C33929   0.153   2.251  10.379  0.1473 -0.1734 -0.3566
  258MOL0     C33930   0.023   2.296  10.364 -0.1817  0.6460  0.9092
  258MOL0     C33931  -0.015   2.345  10.228 -0.4435  0.4256  0.6172
  258MOL0     O33932  -0.135   2.374  10.188  1.0271  0.2334  0.2545
  258MOL0     C33933  -0.228   2.429  10.285 -0.1434  0.1116  0.5561
  258MOL0     C33934  -0.337   2.506  10.209 -0.0064  0.2078 -0.2955
  258MOL0     C33935  -0.444   2.420  10.135  0.2962  0.0918 -1.6834
  258MOL0     C33936  -0.583   2.490  10.127 -0.4943 -0.0311  0.8016
  258MOL0     C33937  -0.705   2.399  10.088 -0.4011  0.1857  0.5130
  258MOL0     C33938  -0.681   2.323   9.955 -0.1505 -0.4412  0.5848
  258MOL0     C33939  -0.665   2.415   9.836  0.3529 -0.3585 -0.9325
  258MOL0     C33940  -0.695   2.352   9.688  0.1512 -0.0096  0.0943
  258MOL0     N33941  -0.845   2.331   9.663 -0.5511  0.4640 -0.5044
  258MOL0     C33942  -0.934   2.425   9.619  0.1368 -0.4980 -0.0694
  258MOL0     C33943  -1.028   2.354   9.554  0.6211 -0.2124 -0.2314
  258MOL0     C33944  -1.136   2.424   9.472 -0.0356  0.4711 -0.0636
  258MOL0     C33945  -1.080   2.443   9.331  0.5665  1.3530  0.3974
  258MOL0     C33946  -1.182   2.528   9.255 -0.3445  0.0130  0.3161
  258MOL0     C33947  -1.164   2.512   9.105  0.2551  0.2320 -1.0527
  258MOL0     O33948  -1.260   2.599   9.040 -0.5545 -0.1694 -0.2495
  258MOL0     C33949  -1.394   2.579   9.060 -0.3090  0.2390  0.1102
  258MOL0     C33950  -1.459   2.504   8.971 -0.6612  0.7388  0.3190
  258MOL0     C33951  -1.596   2.492   8.971  0.4956  0.3632  0.0592
  258MOL0     C33952  -1.678   2.561   9.065  0.0317  0.0278 -0.7858
  258MOL0     C33953  -1.820   2.538   9.072  1.1343  0.0196  0.5788
  258MOL0     O33954  -1.896   2.642   9.129 -0.2040 -0.1463  0.3564
  258MOL0     C33955  -2.031   2.633   9.144  0.0458  0.0506 -0.0992
  258MOL0     C33956  -2.109   2.733   9.089  0.3539  0.2913  0.2545
  258MOL0     C33957  -2.245   2.730   9.113 -0.3099 -0.7872 -0.9745
  258MOL0     C33958  -2.302   2.653   9.219  0.0066  0.0008 -0.8711
  258MOL0     O33959  -2.442   2.676   9.237 -0.5658  0.5469 -0.5981
  258MOL0     C33960  -2.502   2.629   9.355 -0.3774  0.3903  0.2756
  258MOL0     C33961  -2.643   2.680   9.354  0.3279 -0.2236  0.1398
  258MOL0     C33962  -2.735   2.653   9.474  0.3153 -0.0588  0.2406
  258MOL0     C33963  -2.805   2.513   9.462  0.7786 -0.4160 -0.0152
  258MOL0     C33964  -2.918   2.507   9.570 -1.1066  0.0517 -0.2883
  258MOL0     C33965  -3.045   2.590   9.535 -0.7027  0.0220 -0.2457
  258MOL0     C33966  -3.112   2.532   9.412 -0.7998 -0.4204 -0.8326
  258MOL0     C33967  -3.252   2.593   9.392  0.1444 -0.9299 -0.2549
  258MOL0    Cl33968  -3.354   2.597   9.546  0.1645  0.5395 -0.4998
  258MOL0     C33969  -2.222   2.551   9.266 -0.5143 -0.0141 -0.0075
  258MOL0     C33970  -2.085   2.554   9.245  0.2611  0.3152 -0.5292
  258MOL0     O33971  -1.861   2.427   9.035  0.4564 -0.2848  0.1929
  258MOL0     C33972  -1.616   2.658   9.143  0.5207  0.1490 -0.0735
  258MOL0     C33973  -1.476   2.661   9.136 -0.0780 -0.2825  0.1805
  258MOL0     N33974  -1.013   2.218   9.576  0.2812 -0.0727 -0.4220
  258MOL0     N33975  -0.894   2.207   9.633 -0.4461 -0.1650 -1.0965
  258MOL0     C33976   0.081   2.340  10.127  0.4251 -0.2807 -0.5699
  258MOL0     C33977   0.211   2.306  10.155  1.7439 -0.7559  0.2467
  258MOL0     C33978   0.605   2.218  10.329 -0.6542 -1.9082  0.4381
  258MOL0     C33979   0.637   2.096  10.264  0.5997 -0.2546 -0.4753
  258MOL0     C33980   0.763   2.035  10.282  0.2042 -0.1365 -0.5665
  258MOL0     C33981   0.862   2.104  10.357  0.1810 -1.1659 -0.3723
  258MOL0     O33982   0.987   2.066  10.397 -0.2705 -0.8556 -0.8223
  258MOL0     C33983   1.015   1.926  10.368 -1.1533 -0.1070  0.1679
  258MOL0     C33984   1.169   1.906  10.395  0.2418 -0.4532  0.6869
  258MOL0     C33985   1.199   1.931  10.539  0.6772 -0.5368 -0.3264
  258MOL0     C33986   1.334   1.859  10.584 -0.3650  0.0706  0.2971
  258MOL0     C33987   1.317   1.714  10.593  0.1502 -0.3684 -0.9504
  258MOL0     C33988   1.317   1.592  10.592 -0.5521 -0.6225 -0.2557
  258MOL0     C33989   0.826   2.229  10.416  1.1687  0.1557 -0.5514
  258MOL0     C33990   0.700   2.277  10.414 -0.3962 -0.4666  0.4063
  258MOL0     H33991   0.199   2.208  10.468 -0.2378 -1.1224 -0.6101
  258MOL0     H33992  -0.051   2.291  10.444 -1.3195  4.2738  0.2459
  258MOL0     H33993  -0.178   2.501  10.351  0.4854 -1.1560  1.5060
  258MOL0     H33994  -0.268   2.344  10.341  0.7161  0.1638  1.2809
  258MOL0     H33995  -0.290   2.571  10.134 -2.1289  0.8950 -1.0920
  258MOL0     H33996  -0.383   2.571  10.284  1.9643 -0.5447  1.6682
  258MOL0     H33997  -0.446   2.323  10.187  3.3356  0.0233 -1.4780
  258MOL0     H33998  -0.414   2.397  10.032  2.7567 -0.9034 -0.8391
  258MOL0     H33999  -0.607   2.530  10.226 -0.1774  1.6519  0.2275
  258MOL0     H34000  -0.575   2.573  10.056  1.9982 -0.9581 -0.1149
  258MOL0     H34001  -0.792   2.465  10.075 -0.8476 -0.6238 -0.9195
  258MOL0     H34002  -0.728   2.329  10.169 -3.0664  1.6765  1.1878
  258MOL0     H34003  -0.771   2.263   9.938 -1.0018  1.3505 -1.7350
  258MOL0     H34004  -0.588   2.269   9.974  1.5820  2.8533  2.2140
  258MOL0     H34005  -0.728   2.502   9.855  1.5310 -0.0831  2.3923
  258MOL0     H34006  -0.562   2.452   9.841 -0.1880  1.1585  3.2440
  258MOL0     H34007  -0.632   2.264   9.679  1.2297  0.5935  1.3954
  258MOL0     H34008  -0.655   2.420   9.612  2.9416  0.2219  1.6318
  258MOL0     H34009  -0.922   2.531   9.600  1.3663 -0.5403  0.3925
  258MOL0     H34010  -1.133   2.523   9.519 -0.3732 -0.4481  1.9985
  258MOL0     H34011  -1.236   2.381   9.467 -1.3520  3.3653 -0.3927
  258MOL0     H34012  -1.066   2.349   9.276 -4.6476  0.0580  0.7262
  258MOL0     H34013  -0.990   2.504   9.318  1.0169  0.2832 -1.8512
  258MOL0     H34014  -1.283   2.514   9.293 -0.6031 -1.3973 -0.7924
  258MOL0     H34015  -1.152   2.627   9.291  3.1759 -1.2045  1.1244
  258MOL0     H34016  -1.178   2.413   9.061  1.6425 -0.7485  0.5621
  258MOL0     H34017  -1.063   2.543   9.075  0.1322  0.8899 -0.8017
  258MOL0     H34018  -1.395   2.445   8.905 -2.9177  0.3853 -1.6750
  258MOL0     H34019  -1.632   2.417   8.902  2.2828 -0.7521  0.2778
  258MOL0     H34020  -2.066   2.809   9.025 -0.8464  2.0939  1.5198
  258MOL0     H34021  -2.309   2.809   9.075  0.0296 -1.4713 -3.0762
  258MOL0     H34022  -2.446   2.660   9.444 -1.2214  0.0166  0.9510
  258MOL0     H34023  -2.506   2.519   9.356 -2.5782  0.4429  1.4142
  258MOL0     H34024  -2.688   2.639   9.263 -0.5519 -2.2016  1.3908
  258MOL0     H34025  -2.643   2.787   9.331 -2.6917  0.0603  1.0897
  258MOL0     H34026  -2.816   2.725   9.463 -2.1527 -2.7993 -1.0481
  258MOL0     H34027  -2.677   2.656   9.567  0.1048 -3.9679  0.6738
  258MOL0     H34028  -2.847   2.501   9.362  2.7341 -0.2260 -0.9058
  258MOL0     H34029  -2.729   2.437   9.480  0.2870 -0.6761  1.0739
  258MOL0     H34030  -2.877   2.530   9.668 -2.5276 -0.9321  0.5780
  258MOL0     H34031  -2.959   2.406   9.582 -2.5153  0.7146  0.7454
  258MOL0     H34032  -3.009   2.690   9.511 -1.9095  0.5818  0.2071
  258MOL0     H34033  -3.113   2.581   9.620 -1.6988 -1.4852 -1.1458
  258MOL0     H34034  -3.047   2.563   9.330  1.5521 -0.3067  0.9544
  258MOL0     H34035  -3.117   2.423   9.424  1.2431 -0.4691  0.1194
  258MOL0     H34036  -3.301   2.540   9.311  0.6414  0.6113 -1.6161
  258MOL0     H34037  -3.225   2.690   9.349 -0.5990 -0.4521  0.3101
  258MOL0     H34038  -2.267   2.479   9.335  0.6954 -0.6406  0.1507
  258MOL0     H34039  -2.022   2.488   9.304  1.2365  0.9251 -0.8612
  258MOL0     H34040  -1.671   2.723   9.210  0.3047  1.1598 -1.2072
  258MOL0     H34041  -1.412   2.738   9.178 -1.6550  1.5160 -0.5592
  258MOL0     H34042   0.055   2.372  10.026  2.1489  4.8345  0.3140
  258MOL0     H34043   0.286   2.311  10.076  0.3481  2.9611 -1.0412
  258MOL0     H34044   0.562   2.047  10.203  0.7153 -1.1084  0.0363
  258MOL0     H34045   0.782   1.931  10.256 -0.9598 -1.5034  3.2987
  258MOL0     H34046   0.995   1.891  10.266 -1.9257 -1.2100  0.6769
  258MOL0     H34047   0.959   1.861  10.435 -0.5855  1.0866  1.8895
  258MOL0     H34048   1.196   1.804  10.365  0.8641 -0.0924  0.0232
  258MOL0     H34049   1.218   1.982  10.334 -1.3032 -0.3286 -0.4763
  258MOL0     H34050   1.110   1.900  10.595 -0.7462  1.5330 -1.2862
  258MOL0     H34051   1.219   2.038  10.553  2.6133 -0.8812 -0.1488
  258MOL0     H34052   1.415   1.880  10.514  0.3501 -1.8108  0.5033
  258MOL0     H34053   1.353   1.901  10.683 -0.9960  2.2290 -0.4309
  258MOL0     H34054   1.332   1.487  10.606 -1.1057 -0.7614 -0.6295
  258MOL0     H34055   0.887   2.285  10.486  1.3746 -0.9622  0.2035
  258MOL0     H34056   0.687   2.375  10.460  2.2300  2.1869 -3.7928
  259MOL0     O34057  10.377   4.157  10.107 -0.7769 -0.6965  0.0486
  259MOL0     C34058  10.435   4.246  10.172 -0.4860  0.4329 -0.4265
  259MOL0     O34059  10.382   4.312  10.279 -0.1345  0.7798 -0.9800
  259MOL0     C34060  10.250   4.286  10.310 -0.5023 -0.0211  0.1276
  259MOL0     C34061  10.216   4.214  10.420  0.1711  0.2183  0.6227
  259MOL0     C34062  10.080   4.200  10.453  0.9215 -0.1528 -0.6441
  259MOL0     C34063   9.983   4.261  10.378  0.6044 -0.3537  0.0661
  259MOL0     O34064   9.845   4.255  10.402 -0.4522  0.2371  0.8715
  259MOL0     C34065   9.787   4.151  10.494 -0.1049  0.3285 -0.2721
  259MOL0     C34066   9.634   4.131  10.457  0.2556 -0.1612  0.3687
  259MOL0     C34067   9.542   4.229  10.535 -0.4811 -0.0696  0.6258
  259MOL0     C34068   9.392   4.229  10.500  0.3032 -0.5425  0.1584
  259MOL0     C34069   9.309   4.299  10.610  0.0995  0.6449 -0.1153
  259MOL0     C34070   9.156   4.272  10.599 -0.1280  0.2474 -0.7071
  259MOL0     C34071   9.068   4.355  10.711 -0.0848  0.5923  0.0968
  259MOL0     C34072   9.114   4.318  10.853  0.3852 -0.8214  0.4472
  259MOL0     N34073   9.005   4.334  10.949  0.3796 -0.2461  0.6747
  259MOL0     C34074   8.891   4.413  10.933 -0.2991 -0.2839  0.6820
  259MOL0     C34075   8.807   4.386  11.042 -0.5852 -0.9698  0.4524
  259MOL0     C34076   8.672   4.426  11.055  0.0072  0.5682 -0.2317
  259MOL0     C34077   8.574   4.309  11.059 -0.4971  0.1473 -0.6972
  259MOL0     C34078   8.430   4.367  11.066 -0.1982  0.1861 -0.6067
  259MOL0     C34079   8.337   4.256  11.113  0.3775 -0.2622 -0.3693
  259MOL0     O34080   8.199   4.284  11.102 -0.8957  0.0759  0.1381
  259MOL0     C34081   8.093   4.203  11.138 -0.6778 -0.4901  0.2018
  259MOL0     C34082   8.119   4.071  11.179  0.3064 -0.1962 -0.1067
  259MOL0     C34083   8.010   3.987  11.219  0.2451  0.0279  0.7096
  259MOL0     C34084   7.883   4.042  11.230 -0.7313  0.3147  0.3221
  259MOL0     C34085   7.773   3.974  11.303 -0.5870 -0.1863 -1.4317
  259MOL0     O34086   7.677   4.056  11.367  0.2160 -1.0003  0.4703
  259MOL0     C34087   7.586   3.992  11.449  0.0262  0.4293  0.1280
  259MOL0     C34088   7.611   3.991  11.589 -0.8232  0.1633  0.0280
  259MOL0     C34089   7.519   3.936  11.676  0.2107 -0.2625  0.0085
  259MOL0     C34090   7.398   3.876  11.630  0.2434 -0.0806 -0.4987
  259MOL0     O34091   7.303   3.819  11.709  0.2568 -1.1792  0.2823
  259MOL0     C34092   7.251   3.911  11.814 -0.3235 -0.8839  0.1981
  259MOL0     C34093   7.112   3.864  11.860  0.0816  1.2217  0.4225
  259MOL0     C34094   7.007   3.928  11.767 -0.0327 -0.1204 -0.7237
  259MOL0     C34095   6.871   3.919  11.819 -0.2729  0.6507 -0.2438
  259MOL0     C34096   6.765   3.996  11.740 -0.2552  0.5371  0.3182
  259MOL0     C34097   6.638   3.971  11.832 -0.2906  0.0757 -0.0740
  259MOL0     C34098   6.522   4.037  11.768 -0.6540  0.2974 -0.0399
  259MOL0     C34099   6.391   4.032  11.852 -0.1243  0.2728 -0.1782
  259MOL0    Cl34100   6.400   4.132  11.993 -0.3602 -0.4345 -0.7466
  259MOL0     C34101   7.373   3.883  11.493  0.0455  0.5899 -0.6666
  259MOL0     C34102   7.464   3.940  11.400 -0.6837  0.2333  0.3806
  259MOL0     O34103   7.775   3.853  11.315  0.5817 -0.0786 -0.3864
  259MOL0     C34104   7.867   4.172  11.194  0.1179  0.2575 -0.1396
  259MOL0     C34105   7.967   4.258  11.137 -0.3590 -0.0881 -0.4207
  259MOL0     N34106   8.884   4.295  11.118  0.1362 -0.6395 -0.4971
  259MOL0     N34107   8.990   4.261  11.062  0.0422 -0.0507 -0.3638
  259MOL0     C34108  10.020   4.324  10.263  1.1423  0.1685 -0.1852
  259MOL0     C34109  10.154   4.338  10.226  0.7015 -0.0768  0.2987
  259MOL0     C34110  10.572   4.274  10.141 -0.0281 -0.4746  0.3220
  259MOL0     C34111  10.626   4.403  10.184 -0.4329  0.2471 -0.8540
  259MOL0     C34112  10.758   4.439  10.168 -0.3503 -0.0059 -0.2436
  259MOL0     C34113  10.849   4.336  10.113 -0.0188  0.0567 -0.6886
  259MOL0     O34114  10.992   4.358  10.113  0.7373 -0.1490  0.5117
  259MOL0     C34115  11.033   4.488  10.142 -0.2672 -0.2359  0.1325
  259MOL0     C34116  11.009   4.582  10.023  0.2357 -0.6707  0.7294
  259MOL0     C34117  10.997   4.517   9.877  0.4184 -0.0658 -1.3403
  259MOL0     C34118  11.006   4.621   9.767  0.7874 -0.3828  0.9924
  259MOL0     C34119  10.973   4.580   9.635  0.0850 -0.6542  0.7474
  259MOL0     C34120  10.946   4.544   9.529  0.6761  0.2766  0.4626
  259MOL0     C34121  10.794   4.215  10.069  0.1996 -0.3193 -0.1399
  259MOL0     C34122  10.656   4.186  10.077 -0.7595  0.0703 -0.7264
  259MOL0     H34123  10.298   4.171  10.478  1.4494 -0.3632 -1.5160
  259MOL0     H34124  10.051   4.150  10.544  1.4980 -0.7734 -0.7884
  259MOL0     H34125   9.796   4.170  10.601  4.9013  0.3865 -0.4826
  259MOL0     H34126   9.842   4.057  10.486 -0.5504  0.0258  0.2039
  259MOL0     H34127   9.609   4.028  10.485 -0.1328  0.6675  3.5107
  259MOL0     H34128   9.618   4.142  10.350  2.0014 -2.4442 -0.2053
  259MOL0     H34129   9.572   4.331  10.509  1.7920 -0.6959  0.6044
  259MOL0     H34130   9.559   4.200  10.639 -0.9418  0.1623  0.7682
  259MOL0     H34131   9.364   4.287  10.412  0.6293 -0.2100  0.2732
  259MOL0     H34132   9.366   4.123  10.485 -2.4760  0.1654 -0.5565
  259MOL0     H34133   9.328   4.406  10.617  2.8076  0.1421  2.4637
  259MOL0     H34134   9.344   4.248  10.700 -0.7439 -1.3439 -0.8637
  259MOL0     H34135   9.139   4.165  10.611 -0.3700  0.5500  2.5522
  259MOL0     H34136   9.130   4.316  10.503 -0.6605  0.4119 -0.4907
  259MOL0     H34137   9.082   4.463  10.706 -2.3877  1.1426  3.0961
  259MOL0     H34138   8.960   4.346  10.700 -0.4214  2.5647  1.5188
  259MOL0     H34139   9.195   4.390  10.874 -1.1959  1.8351 -1.8289
  259MOL0     H34140   9.145   4.216  10.876 -0.0210 -0.3302  3.6372
  259MOL0     H34141   8.870   4.482  10.852  1.3671  0.6483  0.9947
  259MOL0     H34142   8.647   4.471  10.958  0.6145  0.8111 -0.2799
  259MOL0     H34143   8.644   4.496  11.134 -2.0394  0.4126 -0.7630
  259MOL0     H34144   8.605   4.249  11.146 -1.7347  1.6934  0.8873
  259MOL0     H34145   8.585   4.236  10.979  1.7719 -1.5118  0.9808
  259MOL0     H34146   8.430   4.448  11.139 -2.1696 -2.0503  2.0667
  259MOL0     H34147   8.399   4.410  10.970 -1.0409 -0.6832 -0.7355
  259MOL0     H34148   8.362   4.215  11.212  0.0831 -0.5774 -0.4213
  259MOL0     H34149   8.353   4.181  11.035 -0.0943 -2.5247  1.5806
  259MOL0     H34150   8.217   4.026  11.173  0.9215  1.1285 -0.2589
  259MOL0     H34151   8.033   3.888  11.258 -2.7284 -1.3589 -0.7733
  259MOL0     H34152   7.696   4.042  11.633 -1.2411  0.5517  0.3796
  259MOL0     H34153   7.536   3.926  11.783 -1.3065 -0.6960  0.2379
  259MOL0     H34154   7.245   4.014  11.776 -1.2219 -0.2486  1.9375
  259MOL0     H34155   7.325   3.911  11.894 -0.8636  2.3253  0.8677
  259MOL0     H34156   7.105   3.895  11.964  2.3775  2.2662  0.3310
  259MOL0     H34157   7.093   3.756  11.865 -1.7766  1.4457 -0.6972
  259MOL0     H34158   7.006   3.870  11.674 -0.0911 -1.5482  0.1503
  259MOL0     H34159   7.027   4.034  11.744 -2.2944  0.4912 -0.0604
  259MOL0     H34160   6.847   3.812  11.813  0.8482  0.3719 -0.0474
  259MOL0     H34161   6.871   3.941  11.927 -1.0141 -1.1494  0.1631
  259MOL0     H34162   6.750   3.964  11.636 -2.8547 -0.1420  0.8402
  259MOL0     H34163   6.805   4.098  11.735 -0.0892  0.6610  2.8947
  259MOL0     H34164   6.658   4.012  11.931 -1.8086 -0.1876  0.3608
  259MOL0     H34165   6.605   3.870  11.858  0.4205 -0.4783 -1.2141
  259MOL0     H34166   6.557   4.140  11.753 -1.3001  0.2772 -2.0787
  259MOL0     H34167   6.508   3.995  11.667  4.9525  2.0920 -1.9745
  259MOL0     H34168   6.372   3.931  11.890  0.7959  0.3722  0.5866
  259MOL0     H34169   6.306   4.063  11.790  1.2236  4.0685 -0.3746
  259MOL0     H34170   7.283   3.832  11.459  0.4124 -0.9785  0.5819
  259MOL0     H34171   7.453   3.951  11.292 -0.2429  2.3695  0.5045
  259MOL0     H34172   7.770   4.215  11.216 -1.6013 -2.5151 -1.7741
  259MOL0     H34173   7.948   4.361  11.108 -0.5159  0.0870  0.2690
  259MOL0     H34174   9.938   4.357  10.199 -0.1178 -0.3037  1.1371
  259MOL0     H34175  10.183   4.386  10.133  2.4096  2.5225  2.0282
  259MOL0     H34176  10.564   4.483  10.223  2.4929  1.4481  1.7945
  259MOL0     H34177  10.788   4.531  10.218  1.8541 -1.8847  2.1882
  259MOL0     H34178  11.140   4.495  10.165 -0.5535  2.0048  1.0631
  259MOL0     H34179  10.990   4.537  10.230 -1.3237 -1.4865  0.3338
  259MOL0     H34180  10.914   4.632  10.043 -0.1006 -1.3400  0.8318
  259MOL0     H34181  11.073   4.671  10.022 -1.4585  0.6044 -1.0917
  259MOL0     H34182  10.904   4.462   9.863 -1.2292  2.6594 -1.9308
  259MOL0     H34183  11.072   4.441   9.853  1.7263  1.6597 -3.0638
  259MOL0     H34184  10.935   4.700   9.792  0.6694 -0.1479 -0.0591
  259MOL0     H34185  11.104   4.668   9.755  0.1869  0.6121 -0.1811
  259MOL0     H34186  10.929   4.499   9.433  2.7621  0.3352  0.0049
  259MOL0     H34187  10.851   4.129  10.037  0.0901 -1.2166  1.9312
  259MOL0     H34188  10.622   4.087  10.048  0.0671 -0.8950  1.3697
  260MOL0     O34189   7.221   5.106   1.561 -0.1813 -0.0829 -0.3191
  260MOL0     C34190   7.319   5.056   1.606 -0.0007 -0.2994  0.2200
  260MOL0     O34191   7.345   5.060   1.741 -0.0117  0.4701 -0.3448
  260MOL0     C34192   7.234   5.079   1.828 -0.6193  0.2608 -0.0029
  260MOL0     C34193   7.163   4.968   1.872  0.1805  0.0941  0.2319
  260MOL0     C34194   7.059   4.984   1.958  0.3630  0.9151 -0.3628
  260MOL0     C34195   7.011   5.110   2.003 -0.4390  0.2114  0.9401
  260MOL0     O34196   6.898   5.122   2.074 -0.0993  0.0170 -0.4274
  260MOL0     C34197   6.832   5.248   2.095  0.3051  0.8277  0.5861
  260MOL0     C34198   6.738   5.233   2.217  0.4633  0.0188  0.0038
  260MOL0     C34199   6.647   5.359   2.248  0.7982 -0.6465 -0.2722
  260MOL0     C34200   6.547   5.393   2.138 -0.3463 -0.2872  1.0764
  260MOL0     C34201   6.465   5.519   2.172 -0.0146  0.5156  1.2674
  260MOL0     C34202   6.346   5.485   2.251  0.0115 -0.2344  0.0242
  260MOL0     C34203   6.249   5.603   2.258  0.3825 -0.0560  0.2787
  260MOL0     C34204   6.168   5.630   2.123  0.2115 -0.2803 -0.7323
  260MOL0     N34205   6.073   5.744   2.149  0.0492  0.2306 -0.4543
  260MOL0     C34206   5.953   5.741   2.220 -0.6332 -0.4333  0.7327
  260MOL0     C34207   5.909   5.873   2.209 -0.0936 -0.2804  0.2656
  260MOL0     C34208   5.773   5.917   2.265  0.4031 -0.6852  0.2640
  260MOL0     C34209   5.652   5.855   2.190 -0.7177 -0.5809 -0.1811
  260MOL0     C34210   5.526   5.822   2.273  0.7240  0.4124 -0.3490
  260MOL0     C34211   5.456   5.952   2.294  0.2109  0.4068 -0.4024
  260MOL0     O34212   5.349   5.935   2.385 -0.2685  0.0115 -0.2588
  260MOL0     C34213   5.236   6.008   2.376  0.4795 -0.1625  0.0444
  260MOL0     C34214   5.232   6.129   2.299  0.1398  0.1786 -0.2933
  260MOL0     C34215   5.112   6.193   2.280 -0.0582  0.9954 -0.3197
  260MOL0     C34216   4.989   6.144   2.330 -0.5211  0.0874  0.2952
  260MOL0     C34217   4.867   6.214   2.282  0.6446  0.5282  0.5548
  260MOL0     O34218   4.765   6.204   2.373 -0.7945 -0.0829 -0.2884
  260MOL0     C34219   4.648   6.252   2.337  0.1977  0.1880  0.0559
  260MOL0     C34220   4.633   6.385   2.301  0.7968  0.0904  0.1634
  260MOL0     C34221   4.508   6.433   2.264 -0.0238 -0.0517 -1.6739
  260MOL0     C34222   4.398   6.352   2.280  0.3411  0.0311  0.2974
  260MOL0     O34223   4.279   6.418   2.259  0.2221  0.1261  0.0560
  260MOL0     C34224   4.161   6.339   2.276 -0.4935  0.1873 -0.7096
  260MOL0     C34225   4.043   6.431   2.287  0.3549 -0.7632  0.3832
  260MOL0     C34226   3.906   6.364   2.262 -1.0396  0.3052  0.6020
  260MOL0     C34227   3.796   6.482   2.262 -0.4865  0.2683 -0.1691
  260MOL0     C34228   3.655   6.437   2.311 -0.3471 -0.3056 -0.1806
  260MOL0     C34229   3.594   6.312   2.232 -0.4403  0.5354 -0.6570
  260MOL0     C34230   3.575   6.350   2.085 -0.1361  0.0955 -0.2309
  260MOL0     C34231   3.464   6.450   2.053 -0.1764  0.1770  0.5618
  260MOL0    Cl34232   3.301   6.372   2.103  0.2101 -0.1419 -0.4675
  260MOL0     C34233   4.412   6.222   2.322 -0.2353 -0.5107 -0.1915
  260MOL0     C34234   4.536   6.174   2.360  0.2610 -0.6381  0.7955
  260MOL0     O34235   4.871   6.267   2.168  0.7796  0.4259  0.2767
  260MOL0     C34236   4.992   6.029   2.405  0.6133 -0.4141 -0.2427
  260MOL0     C34237   5.116   5.966   2.435  0.4045  0.6246  0.4214
  260MOL0     N34238   6.001   5.950   2.137  0.7822  0.0374 -0.2492
  260MOL0     N34239   6.103   5.871   2.112  0.1895 -0.4111 -0.1441
  260MOL0     C34240   7.088   5.222   1.969  0.1584 -1.1262 -0.0359
  260MOL0     C34241   7.201   5.209   1.883 -0.9619 -0.4167 -0.5701
  260MOL0     C34242   7.430   5.016   1.520 -0.5466  0.4311  0.1594
  260MOL0     C34243   7.411   4.999   1.381  0.2386  0.3319  0.3338
  260MOL0     C34244   7.509   4.959   1.297  0.1265  0.3414  0.5307
  260MOL0     C34245   7.635   4.930   1.345  0.8218 -0.4878 -0.1709
  260MOL0     O34246   7.732   4.899   1.251  0.5278 -0.3700  0.6296
  260MOL0     C34247   7.871   4.908   1.284 -0.0737 -0.0733  0.7863
  260MOL0     C34248   7.946   4.875   1.166  0.1252  0.3901  0.5236
  260MOL0     C34249   8.096   4.862   1.184 -0.0550  0.2747 -0.2213
  260MOL0     C34250   8.159   4.837   1.044 -0.8029  0.5541  0.3301
  260MOL0     C34251   8.300   4.786   1.066  0.1769 -0.8545  0.1401
  260MOL0     C34252   8.410   4.742   1.080  0.6060  0.0249 -0.1441
  260MOL0     C34253   7.663   4.946   1.483  0.7756  0.3463 -0.0898
  260MOL0     C34254   7.558   4.983   1.571  0.3546  0.4464  0.4050
  260MOL0     H34255   7.184   4.877   1.816 -1.0835  1.1646 -2.1383
  260MOL0     H34256   7.011   4.901   2.009 -0.9701  2.3169  0.7711
  260MOL0     H34257   6.784   5.270   1.999  0.2811 -2.4952 -0.2893
  260MOL0     H34258   6.908   5.325   2.111  1.2155  0.4297 -1.5169
  260MOL0     H34259   6.795   5.211   2.308  1.3150  1.0095 -0.2722
  260MOL0     H34260   6.675   5.147   2.193  1.1033 -1.7453  3.8096
  260MOL0     H34261   6.708   5.444   2.278 -0.7089  0.2497  0.3691
  260MOL0     H34262   6.596   5.341   2.343 -0.6675 -1.0313 -1.1029
  260MOL0     H34263   6.595   5.415   2.042  0.4643 -2.1846  1.0077
  260MOL0     H34264   6.479   5.307   2.130  0.0515 -0.4314 -2.4177
  260MOL0     H34265   6.414   5.551   2.081 -1.9812 -2.2721  1.2782
  260MOL0     H34266   6.540   5.590   2.209  2.2483 -1.0710  0.0106
  260MOL0     H34267   6.359   5.450   2.354  0.5364 -0.1056  0.0060
  260MOL0     H34268   6.301   5.404   2.193  1.3125 -0.0928 -1.2461
  260MOL0     H34269   6.172   5.580   2.332 -1.7878 -1.8939 -2.3341
  260MOL0     H34270   6.300   5.694   2.293  0.9871 -0.1914 -0.2330
  260MOL0     H34271   6.106   5.543   2.100 -2.4849  1.2322  0.3672
  260MOL0     H34272   6.233   5.654   2.038 -2.9951 -0.1000 -3.3740
  260MOL0     H34273   5.899   5.654   2.257  0.7029 -1.3882  0.5288
  260MOL0     H34274   5.761   6.026   2.264  1.4358 -0.5636 -0.1779
  260MOL0     H34275   5.778   5.881   2.368 -0.3995 -0.5844  0.3441
  260MOL0     H34276   5.690   5.761   2.148  2.2332  1.1524 -1.7077
  260MOL0     H34277   5.623   5.919   2.107 -2.5135 -0.8341  0.2198
  260MOL0     H34278   5.455   5.762   2.216 -0.0278 -1.1501  2.0882
  260MOL0     H34279   5.557   5.764   2.361 -1.2503  2.2864  1.7216
  260MOL0     H34280   5.426   5.987   2.195  1.8397  0.7815 -0.7980
  260MOL0     H34281   5.526   6.028   2.328 -0.8007  0.0505  2.7756
  260MOL0     H34282   5.313   6.173   2.242  0.2349 -0.5993 -0.7915
  260MOL0     H34283   5.105   6.282   2.218 -0.7876  0.2652 -1.3085
  260MOL0     H34284   4.727   6.438   2.289  3.0976 -3.7290 -0.3328
  260MOL0     H34285   4.504   6.537   2.231  4.0090  0.8637  0.1300
  260MOL0     H34286   4.168   6.272   2.362 -1.1085 -0.5820 -1.2504
  260MOL0     H34287   4.159   6.275   2.188  2.7309 -0.6167 -0.3513
  260MOL0     H34288   4.044   6.509   2.211 -0.8380 -2.8953 -1.9588
  260MOL0     H34289   4.043   6.486   2.382 -2.5333  0.0442  0.0142
  260MOL0     H34290   3.893   6.285   2.337  0.5012  2.3806  3.2493
  260MOL0     H34291   3.901   6.327   2.159  0.0230  1.5976  0.0462
  260MOL0     H34292   3.822   6.575   2.314 -0.4531 -0.2350  0.7355
  260MOL0     H34293   3.793   6.516   2.158 -1.8154 -2.5361 -1.1521
  260MOL0     H34294   3.585   6.521   2.305 -0.5957 -0.6036 -1.7853
  260MOL0     H34295   3.664   6.415   2.418 -0.4253  1.7656  0.3002
  260MOL0     H34296   3.503   6.277   2.283  1.0985 -0.9889  1.2178
  260MOL0     H34297   3.664   6.229   2.219 -2.5668 -1.3722 -0.6242
  260MOL0     H34298   3.668   6.391   2.043  0.8580 -1.1214  0.6827
  260MOL0     H34299   3.549   6.257   2.033  1.6418 -1.2332  1.1167
  260MOL0     H34300   3.459   6.476   1.947 -0.6055  1.3681  0.8576
  260MOL0     H34301   3.481   6.546   2.103  0.2725  1.1473 -1.3451
  260MOL0     H34302   4.326   6.158   2.339 -0.4291  0.2122  1.7337
  260MOL0     H34303   4.552   6.074   2.398 -0.5081 -1.0184  0.1664
  260MOL0     H34304   4.899   5.994   2.450  0.2749  0.0588 -0.5700
  260MOL0     H34305   5.111   5.885   2.507  1.8486  0.8212  0.7819
  260MOL0     H34306   7.060   5.319   2.009 -2.4715 -2.2606  1.0905
  260MOL0     H34307   7.263   5.293   1.855 -2.0154  1.1871  1.6647
  260MOL0     H34308   7.313   5.007   1.335  1.3267  1.7722 -1.8779
  260MOL0     H34309   7.488   4.946   1.192 -0.0443 -1.8403  0.7823
  260MOL0     H34310   7.899   4.829   1.354  3.1421  1.1019  0.9951
  260MOL0     H34311   7.902   5.004   1.326  0.8299 -0.0899  0.1980
  260MOL0     H34312   7.918   4.775   1.133 -0.4835  1.7007 -3.5197
  260MOL0     H34313   7.921   4.949   1.089  1.0746 -0.4204 -0.5849
  260MOL0     H34314   8.125   4.778   1.248 -2.1148  0.2211  0.7463
  260MOL0     H34315   8.137   4.955   1.225 -0.0240 -0.5451  1.7212
  260MOL0     H34316   8.103   4.755   0.999  3.3084 -1.9427 -0.7208
  260MOL0     H34317   8.157   4.932   0.990 -1.1303 -0.1791 -0.9774
  260MOL0     H34318   8.503   4.694   1.104 -0.7726 -1.4003  2.8715
  260MOL0     H34319   7.765   4.917   1.502  0.6487 -0.1259 -0.1082
  260MOL0     H34320   7.571   4.965   1.677  0.8103  1.3209  0.5052
  261MOL0     O34321   4.467   8.256  10.766  0.9668  0.2382 -0.1116
  261MOL0     C34322   4.475   8.147  10.824 -1.2613  0.4039 -0.5485
  261MOL0     O34323   4.373   8.074  10.872  0.1059  0.5341  0.1178
  261MOL0     C34324   4.245   8.120  10.856  0.4048 -0.0054  0.6603
  261MOL0     C34325   4.191   8.157  10.983 -0.3702 -0.5985  0.0803
  261MOL0     C34326   4.056   8.205  10.984  0.1907  0.0433  0.0821
  261MOL0     C34327   3.983   8.206  10.859  0.1570  0.0694 -0.3394
  261MOL0     O34328   3.854   8.247  10.872 -0.5644 -0.4553 -0.1975
  261MOL0     C34329   3.747   8.152  10.829  0.3174  0.0592 -0.4798
  261MOL0     C34330   3.606   8.217  10.831 -0.6692  0.0081  0.0375
  261MOL0     C34331   3.546   8.258  10.962  1.2720  0.0694 -0.0704
  261MOL0     C34332   3.393   8.292  10.963 -0.8291  0.5796 -1.0921
  261MOL0     C34333   3.358   8.324  11.106  0.0466 -0.1797 -0.6931
  261MOL0     C34334   3.211   8.364  11.107  0.1249 -0.1800  1.0269
  261MOL0     C34335   3.180   8.427  11.244  0.0488 -0.6041  0.3003
  261MOL0     C34336   3.034   8.477  11.258  0.1771  0.1431 -0.4941
  261MOL0     N34337   2.936   8.374  11.282  0.2355 -0.0772  0.3084
  261MOL0     C34338   2.948   8.238  11.276 -1.0574  1.0917  0.0504
  261MOL0     C34339   2.823   8.197  11.309 -0.9103 -0.0748  0.3286
  261MOL0     C34340   2.776   8.057  11.323 -0.6444 -0.6359 -0.1960
  261MOL0     C34341   2.744   8.015  11.466  0.1347 -0.4081 -0.2551
  261MOL0     C34342   2.640   7.897  11.479  0.8737  0.7528  0.6985
  261MOL0     C34343   2.513   7.904  11.390  0.2759 -0.0403 -0.2682
  261MOL0     O34344   2.447   8.027  11.425 -0.2537 -0.9094 -0.2761
  261MOL0     C34345   2.371   8.093  11.333 -0.6186  1.5279 -0.3390
  261MOL0     C34346   2.321   8.031  11.217  0.1487 -1.1017 -0.1738
  261MOL0     C34347   2.231   8.115  11.141 -0.4667 -0.5522 -0.5024
  261MOL0     C34348   2.189   8.246  11.181 -0.3717 -0.3250 -0.8014
  261MOL0     C34349   2.097   8.325  11.098 -0.4890  0.4018 -0.3097
  261MOL0     O34350   2.048   8.447  11.142 -0.1234 -0.3773  0.3676
  261MOL0     C34351   1.948   8.520  11.076  0.8365 -0.9547 -0.3094
  261MOL0     C34352   1.994   8.596  10.965  0.9228 -0.0211 -0.2727
  261MOL0     C34353   1.907   8.688  10.911 -1.0812 -0.3537  0.0015
  261MOL0     C34354   1.769   8.688  10.951  0.1629  0.8736  0.3769
  261MOL0     O34355   1.672   8.768  10.901  0.1273 -0.4150  0.4099
  261MOL0     C34356   1.711   8.875  10.810  0.4912  0.6023 -0.3516
  261MOL0     C34357   1.608   8.976  10.788  0.4923  0.0237  0.2868
  261MOL0     C34358   1.467   8.918  10.767  0.0964 -0.0078 -0.6425
  261MOL0     C34359   1.358   9.021  10.758  0.4605  0.2236  0.5362
  261MOL0     C34360   1.226   8.952  10.730 -0.5030 -1.0488 -0.1632
  261MOL0     C34361   1.106   9.053  10.721 -0.6515  0.2734 -0.3459
  261MOL0     C34362   0.976   8.980  10.709  0.4932  0.4742  0.0217
  261MOL0     C34363   0.866   9.079  10.728 -0.6423 -1.1066 -0.5798
  261MOL0    Cl34364   0.821   9.101  10.902  0.0880  0.1901 -0.1861
  261MOL0     C34365   1.730   8.609  11.061  0.6809  0.3437 -0.1873
  261MOL0     C34366   1.819   8.520  11.121  0.4517 -0.2752  0.6572
  261MOL0     O34367   2.077   8.278  10.991  0.1038  0.0268  0.2874
  261MOL0     C34368   2.246   8.303  11.301  0.3171 -0.8255 -0.1842
  261MOL0     C34369   2.338   8.226  11.376  0.8822  0.3475 -0.5323
  261MOL0     N34370   2.748   8.304  11.341 -0.2115  0.2176 -0.6375
  261MOL0     N34371   2.815   8.414  11.320 -0.0284  0.0751  0.1135
  261MOL0     C34372   4.037   8.151  10.745  0.0094  0.6413  0.7095
  261MOL0     C34373   4.167   8.118  10.736 -1.1011 -1.1670 -0.2629
  261MOL0     C34374   4.613   8.099  10.824  0.2821  0.1458 -0.2310
  261MOL0     C34375   4.628   7.959  10.811  0.6543 -0.2329 -0.6882
  261MOL0     C34376   4.757   7.908  10.788  0.7970  0.5850  0.8120
  261MOL0     C34377   4.872   7.989  10.777 -0.0529 -0.1763  0.5633
  261MOL0     O34378   4.999   7.940  10.746 -0.6972 -0.0293  0.0923
  261MOL0     C34379   5.103   8.032  10.727 -0.4547  0.4354  0.0830
  261MOL0     C34380   5.224   7.957  10.675 -0.8796  0.1175 -1.2138
  261MOL0     C34381   5.343   8.052  10.642  0.2732 -0.0923 -0.8284
  261MOL0     C34382   5.436   8.085  10.759  0.0212  0.9686  0.2290
  261MOL0     C34383   5.546   8.171  10.718  0.3921  0.9100 -0.6049
  261MOL0     C34384   5.626   8.253  10.679  0.0924 -0.5487  0.8901
  261MOL0     C34385   4.853   8.128  10.791  0.0194 -1.2737 -0.5501
  261MOL0     C34386   4.727   8.185  10.824 -0.4375  0.3960  0.1172
  261MOL0     H34387   4.261   8.138  11.064 -0.7434 -0.7004  0.3854
  261MOL0     H34388   3.993   8.237  11.066  0.5021  0.2268  0.2518
  261MOL0     H34389   3.745   8.063  10.892 -4.4460  1.4617  1.8252
  261MOL0     H34390   3.771   8.112  10.730  3.0632  1.0230 -0.3009
  261MOL0     H34391   3.540   8.148  10.777  2.8563 -3.8482  0.1470
  261MOL0     H34392   3.612   8.311  10.774  0.4594 -0.0790 -0.0142
  261MOL0     H34393   3.595   8.350  10.997  0.6951  0.6075 -0.6532
  261MOL0     H34394   3.561   8.173  11.029  0.9098  0.3463  0.3615
  261MOL0     H34395   3.369   8.374  10.895  0.7366  1.4740 -0.5818
  261MOL0     H34396   3.338   8.202  10.932 -0.9808 -0.1270  1.0767
  261MOL0     H34397   3.422   8.407  11.138 -2.0864  1.2281  0.1547
  261MOL0     H34398   3.370   8.239  11.174  0.4618  1.5591  1.5235
  261MOL0     H34399   3.150   8.276  11.084  1.7434 -1.1464  0.1913
  261MOL0     H34400   3.201   8.440  11.029 -1.3337 -2.9268 -1.7000
  261MOL0     H34401   3.202   8.358  11.326  0.7229  0.0734  0.7029
  261MOL0     H34402   3.249   8.511  11.254  0.4857 -1.0664  1.3108
  261MOL0     H34403   3.000   8.554  11.189  2.3004  0.2798 -1.4567
  261MOL0     H34404   3.027   8.520  11.359 -0.5521  0.1362 -0.5382
  261MOL0     H34405   3.033   8.179  11.245 -0.6104  1.7933 -0.1030
  261MOL0     H34406   2.850   7.991  11.277 -0.7963 -0.1264 -1.1946
  261MOL0     H34407   2.688   8.074  11.261  0.3243  3.0870 -0.8386
  261MOL0     H34408   2.696   8.091  11.528  0.8913 -1.9303  2.3300
  261MOL0     H34409   2.841   7.997  11.514 -1.5867 -1.6137  3.1014
  261MOL0     H34410   2.703   7.815  11.445 -0.7299 -0.2466  0.0320
  261MOL0     H34411   2.616   7.889  11.585 -3.4795 -1.9233 -0.2621
  261MOL0     H34412   2.448   7.819  11.414 -0.9257  0.3691 -1.9064
  261MOL0     H34413   2.540   7.887  11.286  1.0669  0.8976 -0.2285
  261MOL0     H34414   2.340   7.924  11.209 -0.4682 -1.2487  0.2194
  261MOL0     H34415   2.185   8.065  11.057  2.4740 -0.5877 -2.2460
  261MOL0     H34416   2.093   8.574  10.925  1.4792 -0.5172  1.2948
  261MOL0     H34417   1.944   8.751  10.831 -0.2599  1.3786  1.6702
  261MOL0     H34418   1.740   8.836  10.712  1.3994 -0.7212  0.3957
  261MOL0     H34419   1.796   8.929  10.853  1.2088 -0.2696 -0.6283
  261MOL0     H34420   1.637   9.040  10.705 -2.1777  1.5806  0.4379
  261MOL0     H34421   1.602   9.038  10.878  0.4165  0.2815  0.1039
  261MOL0     H34422   1.447   8.852  10.852  3.5326  0.4612  0.7126
  261MOL0     H34423   1.471   8.857  10.677 -1.3443  1.5211 -1.7838
  261MOL0     H34424   1.346   9.079  10.850 -0.4332  0.8559  0.0450
  261MOL0     H34425   1.381   9.092  10.678 -0.8234  0.3790  0.2707
  261MOL0     H34426   1.203   8.878  10.807 -1.2667  0.5019  1.1366
  261MOL0     H34427   1.240   8.894  10.638  2.9509 -2.6417  1.1962
  261MOL0     H34428   1.118   9.127  10.641 -4.0782  0.8004 -0.5151
  261MOL0     H34429   1.118   9.113  10.812  0.2281 -0.7783  0.2500
  261MOL0     H34430   0.970   8.932  10.611 -0.2263  0.9227 -0.1633
  261MOL0     H34431   0.953   8.909  10.788 -1.3212  0.0540 -0.8236
  261MOL0     H34432   0.781   9.047  10.666 -2.0609 -0.2129  0.8025
  261MOL0     H34433   0.903   9.174  10.689 -0.4837  0.1498  2.3844
  261MOL0     H34434   1.633   8.610  11.109  2.4216 -0.1304  3.7077
  261MOL0     H34435   1.802   8.468  11.215  0.4160  2.0198  1.9689
  261MOL0     H34436   2.221   8.405  11.327 -2.3720 -1.4138 -0.2167
  261MOL0     H34437   2.372   8.257  11.475  0.9072  0.1914 -0.4926
  261MOL0     H34438   3.985   8.145  10.650  1.6806  0.2159 -0.2111
  261MOL0     H34439   4.220   8.093  10.645  0.1835 -1.8986  0.6545
  261MOL0     H34440   4.544   7.891  10.815 -0.0257  0.6657  1.1307
  261MOL0     H34441   4.768   7.802  10.768 -0.4581  0.7900 -1.2345
  261MOL0     H34442   5.134   8.079  10.821 -0.2525 -0.4789  0.4867
  261MOL0     H34443   5.085   8.114  10.657  1.0289  0.4188 -0.3663
  261MOL0     H34444   5.261   7.888  10.751 -1.6060  3.7427  2.7406
  261MOL0     H34445   5.186   7.897  10.591  0.2118 -0.9193 -0.9975
  261MOL0     H34446   5.303   8.138  10.588  0.2993  1.1936  1.0889
  261MOL0     H34447   5.407   7.995  10.575  0.2399 -1.1588  0.0041
  261MOL0     H34448   5.382   8.145  10.833  0.7612 -0.5588  2.0795
  261MOL0     H34449   5.482   7.996  10.803 -1.7367 -0.4010 -0.5650
  261MOL0     H34450   5.699   8.317  10.634  0.1876 -1.5107 -0.3822
  261MOL0     H34451   4.930   8.204  10.784  1.0795 -2.2103  0.3532
  261MOL0     H34452   4.725   8.293  10.827 -1.0182  0.3804  0.3076
  262MOL0     O34453   8.899  10.613   7.273  0.1963 -0.0491 -0.1460
  262MOL0     C34454   8.933  10.729   7.283 -1.1208 -0.6922  0.6182
  262MOL0     O34455   8.870  10.836   7.218  0.0992 -0.3673 -0.3572
  262MOL0     C34456   8.803  10.802   7.099  0.6620  0.3797  0.0690
  262MOL0     C34457   8.678  10.750   7.112  0.7019  0.5112 -0.1878
  262MOL0     C34458   8.612  10.716   7.000 -0.2513  0.5876 -0.0782
  262MOL0     C34459   8.663  10.735   6.870  0.9529  0.5634  0.1657
  262MOL0     O34460   8.594  10.705   6.761  0.3530 -0.4096  0.4844
  262MOL0     C34461   8.455  10.743   6.752 -1.2757  0.1466  0.5457
  262MOL0     C34462   8.400  10.699   6.616  0.0353 -0.9008 -0.1571
  262MOL0     C34463   8.277  10.771   6.579 -0.2421 -1.3232  0.7517
  262MOL0     C34464   8.212  10.690   6.472 -0.9286 -0.2116 -0.4227
  262MOL0     C34465   8.083  10.744   6.427  0.2822 -0.4194  0.6542
  262MOL0     C34466   8.106  10.860   6.319  0.2153  0.0661 -0.3125
  262MOL0     C34467   7.981  10.902   6.242 -0.0138  0.7399 -0.1115
  262MOL0     C34468   7.885  10.973   6.338 -0.5608  0.0364  0.7571
  262MOL0     N34469   7.751  10.943   6.304 -0.4325  0.2255 -0.0200
  262MOL0     C34470   7.692  10.816   6.300  0.0396 -0.4310  0.2560
  262MOL0     C34471   7.567  10.839   6.248  0.0238  0.3138 -0.1450
  262MOL0     C34472   7.465  10.734   6.204  1.1520  0.1990 -0.6247
  262MOL0     C34473   7.364  10.688   6.311  0.0504  1.1307  0.7103
  262MOL0     C34474   7.283  10.794   6.380 -0.0980 -0.0244  0.7045
  262MOL0     C34475   7.185  10.858   6.278 -0.7406 -0.5059  1.0710
  262MOL0     O34476   7.095  10.940   6.346  0.7874 -0.8201  1.0082
  262MOL0     C34477   6.970  10.945   6.290 -0.1006 -1.1100 -0.0194
  262MOL0     C34478   6.879  10.843   6.330 -0.9010  0.5905  0.3366
  262MOL0     C34479   6.754  10.836   6.268 -0.5724 -0.2318  0.7015
  262MOL0     C34480   6.720  10.929   6.169  0.6425  0.1405  0.9233
  262MOL0     C34481   6.597  10.912   6.090 -0.1491 -0.7071 -0.2230
  262MOL0     O34482   6.555  11.012   6.001  0.0667 -0.4156 -0.1523
  262MOL0     C34483   6.440  11.004   5.939  0.4107  0.3684  0.1241
  262MOL0     C34484   6.331  11.047   6.018 -0.6954  0.7454  0.4448
  262MOL0     C34485   6.201  11.058   5.962 -0.1910  0.0610 -1.1334
  262MOL0     C34486   6.184  11.029   5.823  0.6871  0.6030  0.5375
  262MOL0     O34487   6.056  11.042   5.767 -0.8476 -0.3667 -0.6259
  262MOL0     C34488   6.005  10.937   5.683  0.1503  1.0649  0.7910
  262MOL0     C34489   5.928  10.843   5.779 -0.0165 -0.0308 -0.1064
  262MOL0     C34490   5.840  10.733   5.718  0.3710 -0.1233  0.3186
  262MOL0     C34491   5.764  10.654   5.825 -0.6649 -0.5314 -0.2931
  262MOL0     C34492   5.737  10.517   5.771 -0.4653 -0.1043  0.1330
  262MOL0     C34493   5.662  10.426   5.870  0.1666 -0.2271 -0.1477
  262MOL0     C34494   5.623  10.290   5.806 -0.0485 -0.9383  0.5730
  262MOL0     C34495   5.515  10.213   5.896 -0.7496 -0.4661 -0.0633
  262MOL0    Cl34496   5.367  10.322   5.885 -0.1380  0.6402  0.6280
  262MOL0     C34497   6.296  10.971   5.751  0.0466 -0.3534 -0.8642
  262MOL0     C34498   6.430  10.961   5.806  0.7903 -0.0278  0.2240
  262MOL0     O34499   6.528  10.813   6.117  0.1551 -0.3468  1.0272
  262MOL0     C34500   6.805  11.036   6.145  0.2338 -0.9388  0.4520
  262MOL0     C34501   6.933  11.046   6.201 -0.6518  0.2020 -0.2178
  262MOL0     N34502   7.566  10.972   6.215  0.0339  0.0855  0.4238
  262MOL0     N34503   7.674  11.036   6.246 -0.3051 -0.2511  0.5519
  262MOL0     C34504   8.784  10.800   6.861  0.6064 -0.0021  0.7885
  262MOL0     C34505   8.861  10.826   6.975 -0.4600  0.2366  0.6190
  262MOL0     C34506   9.029  10.771   7.384  0.6427 -0.7660  0.3323
  262MOL0     C34507   9.087  10.900   7.378 -0.0637 -0.7753 -0.0488
  262MOL0     C34508   9.157  10.948   7.491 -0.0622  0.4980 -0.4334
  262MOL0     C34509   9.194  10.854   7.591  0.2918  0.8146  0.1287
  262MOL0     O34510   9.261  10.896   7.700  0.0874 -0.0264 -0.1890
  262MOL0     C34511   9.293  10.804   7.809 -0.4531  0.0792 -0.2172
  262MOL0     C34512   9.366  10.895   7.903  0.2216  0.0784 -0.1327
  262MOL0     C34513   9.427  10.819   8.019 -1.2335  0.1079  0.3542
  262MOL0     C34514   9.513  10.897   8.120  1.4282 -0.2134  0.2355
  262MOL0     C34515   9.564  10.817   8.236 -0.3670 -0.0335 -0.7262
  262MOL0     C34516   9.600  10.753   8.333  0.6686  0.1935  0.1007
  262MOL0     C34517   9.147  10.722   7.577 -0.3792 -0.2732 -0.0824
  262MOL0     C34518   9.066  10.687   7.477 -0.1493 -0.3435 -0.2723
  262MOL0     H34519   8.633  10.748   7.211 -2.3068  1.9624 -1.3721
  262MOL0     H34520   8.525  10.652   7.004 -0.1752  0.5665  2.0731
  262MOL0     H34521   8.437  10.849   6.767  0.2510  0.3703  0.9670
  262MOL0     H34522   8.412  10.675   6.828  2.1332 -0.5221  2.0693
  262MOL0     H34523   8.377  10.592   6.623 -0.6356 -0.7229  0.3604
  262MOL0     H34524   8.466  10.714   6.530 -0.0654  0.1769 -0.0613
  262MOL0     H34525   8.309  10.868   6.539 -1.3845 -1.8071 -1.4680
  262MOL0     H34526   8.212  10.787   6.665 -0.7507  0.6454  0.0499
  262MOL0     H34527   8.274  10.663   6.386 -0.9326 -3.6614  0.5074
  262MOL0     H34528   8.203  10.589   6.514 -1.1199 -1.5132 -3.3214
  262MOL0     H34529   8.022  10.781   6.509  0.8439  0.8403  0.5300
  262MOL0     H34530   8.016  10.677   6.371 -0.2719  0.9345 -0.3797
  262MOL0     H34531   8.182  10.826   6.249  1.3119  0.5261  0.6192
  262MOL0     H34532   8.134  10.950   6.376 -4.6568  0.6505  1.6816
  262MOL0     H34533   7.991  10.966   6.154 -1.1989  2.9237  1.2523
  262MOL0     H34534   7.941  10.805   6.210 -0.1302  0.1854  1.5961
  262MOL0     H34535   7.894  11.081   6.327 -0.1304 -0.2233 -2.4318
  262MOL0     H34536   7.905  10.948   6.443 -0.0936  0.2592  0.7268
  262MOL0     H34537   7.734  10.725   6.339 -0.1618 -0.9020 -0.5827
  262MOL0     H34538   7.508  10.641   6.167 -0.1738 -0.2303 -1.1137
  262MOL0     H34539   7.406  10.771   6.119 -2.2309  3.3860  2.7256
  262MOL0     H34540   7.426  10.646   6.391  2.2222 -0.8777 -1.8523
  262MOL0     H34541   7.302  10.599   6.292 -1.0365  2.1114 -0.5285
  262MOL0     H34542   7.222  10.758   6.464 -1.7916  0.7605 -0.1231
  262MOL0     H34543   7.352  10.868   6.422 -1.6986  0.1588  3.2448
  262MOL0     H34544   7.145  10.766   6.235  1.9080 -1.4019  0.2906
  262MOL0     H34545   7.239  10.919   6.204  1.0393  1.1488  3.5507
  262MOL0     H34546   6.893  10.759   6.397 -3.7201  0.6951  1.1738
  262MOL0     H34547   6.693  10.749   6.291 -0.0246 -0.6650  0.5415
  262MOL0     H34548   6.357  11.082   6.118  2.1075  2.0818 -0.6472
  262MOL0     H34549   6.116  11.091   6.022  1.0171  1.0789  0.1023
  262MOL0     H34550   6.090  10.889   5.635  1.0107  0.9654  2.3587
  262MOL0     H34551   5.930  10.958   5.606 -2.0610 -1.5625  2.0420
  262MOL0     H34552   5.863  10.910   5.835  0.7389  1.1094 -0.5596
  262MOL0     H34553   5.993  10.796   5.854 -0.1087  0.0745  0.0412
  262MOL0     H34554   5.901  10.668   5.655 -1.7323 -1.2396 -0.6634
  262MOL0     H34555   5.764  10.781   5.656  0.7604  0.9627  0.6516
  262MOL0     H34556   5.823  10.653   5.917 -0.4217  2.0378 -0.3434
  262MOL0     H34557   5.670  10.703   5.851  0.5600  1.3035  0.8828
  262MOL0     H34558   5.831  10.472   5.738 -0.0639  0.5691  0.3245
  262MOL0     H34559   5.675  10.530   5.682  0.5768 -3.8387 -1.3449
  262MOL0     H34560   5.573  10.469   5.915 -1.1715 -2.7566 -0.1641
  262MOL0     H34561   5.727  10.412   5.957  0.6536 -1.3891 -0.6701
  262MOL0     H34562   5.572  10.305   5.711 -0.7728 -0.0937  1.0825
  262MOL0     H34563   5.716  10.234   5.788  0.3712 -0.3528  0.8924
  262MOL0     H34564   5.554  10.191   5.996  0.0311  0.6972 -0.0891
  262MOL0     H34565   5.495  10.114   5.854  0.4880 -1.6979  2.1052
  262MOL0     H34566   6.281  10.923   5.654  1.4408  1.7354 -2.1993
  262MOL0     H34567   6.513  10.923   5.748  0.1657 -1.3810  0.1867
  262MOL0     H34568   6.784  11.111   6.070 -0.4645 -0.0512  1.5177
  262MOL0     H34569   7.009  11.114   6.164  0.0485  0.6284  1.8713
  262MOL0     H34570   8.831  10.834   6.769 -1.7536  1.5726  0.0698
  262MOL0     H34571   8.962  10.865   6.970 -0.0650 -0.7595  0.5315
  262MOL0     H34572   9.068  10.971   7.298 -1.5959 -1.3216 -0.2102
  262MOL0     H34573   9.197  11.044   7.518 -0.6412  0.0465  2.2795
  262MOL0     H34574   9.363  10.725   7.781  0.7573 -0.4514  3.6588
  262MOL0     H34575   9.199  10.760   7.842 -1.1134  0.2138 -1.8340
  262MOL0     H34576   9.446  10.953   7.855  0.0866  0.0999 -0.3352
  262MOL0     H34577   9.286  10.955   7.947 -0.3241  0.6536 -1.8083
  262MOL0     H34578   9.505  10.753   7.980 -0.0372  1.0030  1.1602
  262MOL0     H34579   9.345  10.759   8.059 -1.2266 -1.0743 -1.2813
  262MOL0     H34580   9.604  10.930   8.068  1.8942 -0.7595  0.6848
  262MOL0     H34581   9.456  10.982   8.159 -0.4188 -2.1431  1.9831
  262MOL0     H34582   9.615  10.693   8.421  4.1704 -0.5211 -0.8365
  262MOL0     H34583   9.177  10.643   7.646 -0.7768  0.1165  0.5511
  262MOL0     H34584   9.031  10.584   7.475 -2.4140  0.3874 -1.7111
  263MOL0     O34585   9.640   7.140   1.213 -0.5544  0.7914 -0.2911
  263MOL0     C34586   9.718   7.066   1.273  0.7167 -0.5771  0.1552
  263MOL0     O34587   9.678   6.944   1.326 -0.0540  0.3930 -0.3864
  263MOL0     C34588   9.552   6.906   1.302 -0.1206 -0.4788 -0.5079
  263MOL0     C34589   9.534   6.793   1.228 -0.1138  0.0333  0.1654
  263MOL0     C34590   9.417   6.733   1.202  0.3252  0.1189 -0.2654
  263MOL0     C34591   9.296   6.796   1.244 -0.7476 -0.3668  0.2109
  263MOL0     O34592   9.178   6.730   1.193  0.0403 -0.7100 -0.1788
  263MOL0     C34593   9.059   6.811   1.174 -0.0730 -0.5871  0.3077
  263MOL0     C34594   9.065   6.895   1.043 -0.4171 -0.1715  0.0352
  263MOL0     C34595   9.078   6.806   0.912 -0.3827  0.3723 -0.2104
  263MOL0     C34596   8.961   6.714   0.893 -0.3945 -0.7275 -0.3105
  263MOL0     C34597   8.959   6.655   0.751 -0.4093 -1.0457 -0.2558
  263MOL0     C34598   8.838   6.561   0.725 -0.0804 -0.2854  0.4519
  263MOL0     C34599   8.703   6.626   0.743  0.0480  0.4022 -1.3246
  263MOL0     C34600   8.591   6.519   0.748 -0.2348  0.0200  0.3693
  263MOL0     N34601   8.533   6.485   0.617  0.4396 -0.7105 -0.6740
  263MOL0     C34602   8.425   6.556   0.572  0.6537  0.3136 -0.3017
  263MOL0     C34603   8.412   6.517   0.442 -0.2598 -0.3665  0.2431
  263MOL0     C34604   8.302   6.562   0.345 -0.0322  0.3696  0.7052
  263MOL0     C34605   8.203   6.454   0.312 -0.2586 -0.1802 -0.8625
  263MOL0     C34606   8.139   6.395   0.444  0.0052 -1.0913 -0.6279
  263MOL0     C34607   8.010   6.322   0.407 -0.1412 -0.2409 -0.2233
  263MOL0     O34608   7.895   6.410   0.375 -0.0026 -0.3313 -0.2012
  263MOL0     C34609   7.764   6.370   0.373  0.5283 -0.1608 -0.4032
  263MOL0     C34610   7.732   6.228   0.382 -0.2246 -0.0729  0.2683
  263MOL0     C34611   7.595   6.198   0.387  0.2075  0.0629 -0.4457
  263MOL0     C34612   7.496   6.302   0.398 -0.3372 -0.4061 -0.5076
  263MOL0     C34613   7.355   6.260   0.410  0.1130 -0.0954 -0.6295
  263MOL0     O34614   7.264   6.359   0.425  0.3419 -0.3772  0.0540
  263MOL0     C34615   7.126   6.327   0.427 -0.6750  0.6378 -0.1096
  263MOL0     C34616   7.070   6.282   0.299 -0.5127  0.7845 -0.9232
  263MOL0     C34617   6.945   6.222   0.295 -0.9283 -0.7056  0.4551
  263MOL0     C34618   6.853   6.236   0.409 -0.6144 -0.0263 -0.3274
  263MOL0     O34619   6.721   6.202   0.406 -0.8237 -0.0578 -0.6031
  263MOL0     C34620   6.649   6.226   0.286  0.4083  1.3629 -0.1169
  263MOL0     C34621   6.500   6.215   0.308  0.4112  0.0437 -0.0286
  263MOL0     C34622   6.417   6.235   0.183  0.2641  0.2382  0.1500
  263MOL0     C34623   6.271   6.237   0.234 -0.3160  0.4581  1.1962
  263MOL0     C34624   6.168   6.245   0.123  0.0763  0.1410  0.3801
  263MOL0     C34625   6.207   6.336   0.004  0.4559  0.5898 -1.0498
  263MOL0     C34626   6.111   6.333  -0.116 -0.4622 -0.7827 -0.2459
  263MOL0     C34627   6.160   6.429  -0.215  1.0277 -0.2198  0.2958
  263MOL0    Cl34628   6.057   6.438  -0.361  0.5112 -0.1625  0.0979
  263MOL0     C34629   6.906   6.289   0.528 -0.8330  0.4736 -0.2733
  263MOL0     C34630   7.039   6.333   0.534 -0.4087 -0.1477 -0.3262
  263MOL0     O34631   7.324   6.146   0.423  0.5160 -0.3127  0.5148
  263MOL0     C34632   7.530   6.434   0.398  0.3020 -0.2706  0.8275
  263MOL0     C34633   7.668   6.468   0.380  0.1639  0.0879  0.0395
  263MOL0     N34634   8.519   6.432   0.412 -0.0295  0.7615 -0.2058
  263MOL0     N34635   8.583   6.408   0.514  0.8200  0.5240  0.4391
  263MOL0     C34636   9.307   6.913   1.326 -0.2474  0.1842 -0.6060
  263MOL0     C34637   9.439   6.972   1.345  0.8952 -0.4442  0.6990
  263MOL0     C34638   9.863   7.100   1.272 -0.1864 -1.0326  0.8230
  263MOL0     C34639   9.955   7.019   1.345 -1.0363 -0.0067  0.4205
  263MOL0     C34640  10.090   7.053   1.344  0.2986 -0.0229 -0.0417
  263MOL0     C34641  10.135   7.169   1.272 -0.5160  0.1519 -0.6408
  263MOL0     O34642  10.263   7.223   1.268 -0.4988  0.5851 -0.5497
  263MOL0     C34643  10.354   7.158   1.344 -1.0811 -0.0236 -0.2760
  263MOL0     C34644  10.499   7.214   1.319  0.4201  0.8485  0.2242
  263MOL0     C34645  10.606   7.116   1.376 -0.3392 -0.3896 -0.1484
  263MOL0     C34646  10.742   7.177   1.324  0.0017  0.5198  0.4542
  263MOL0     C34647  10.836   7.076   1.364  0.3085  0.4464  0.8089
  263MOL0     C34648  10.936   7.008   1.394  0.3021 -0.1598  0.1289
  263MOL0     C34649  10.041   7.240   1.199  1.1204  0.0726 -0.4410
  263MOL0     C34650   9.907   7.205   1.195 -0.6893 -0.2697 -0.0017
  263MOL0     H34651   9.627   6.756   1.186 -0.4057  0.2744 -0.7211
  263MOL0     H34652   9.407   6.645   1.138 -1.3357  0.8851 -1.1284
  263MOL0     H34653   9.042   6.894   1.244 -0.2590  0.4203 -0.9077
  263MOL0     H34654   8.971   6.747   1.162 -1.3458  1.0268  0.5563
  263MOL0     H34655   9.154   6.958   1.047  0.1572 -0.9827  0.2215
  263MOL0     H34656   8.977   6.960   1.033 -2.4330 -2.6285  0.7851
  263MOL0     H34657   9.166   6.741   0.920  0.6773  1.9229  1.6434
  263MOL0     H34658   9.085   6.868   0.823  0.9631 -2.5034 -2.2690
  263MOL0     H34659   8.942   6.643   0.973 -1.2345 -0.2507 -0.0661
  263MOL0     H34660   8.877   6.784   0.893  0.4747  0.5488 -3.8417
  263MOL0     H34661   9.052   6.603   0.726  1.4248  1.8760 -0.0602
  263MOL0     H34662   8.948   6.748   0.694 -2.2038  0.2142  1.9940
  263MOL0     H34663   8.864   6.478   0.791  0.4093  0.4564  1.2109
  263MOL0     H34664   8.833   6.531   0.620 -1.1535  1.3557 -0.0033
  263MOL0     H34665   8.708   6.671   0.843  2.4113 -1.7318 -0.3584
  263MOL0     H34666   8.697   6.707   0.669  2.5481  0.6165 -1.4004
  263MOL0     H34667   8.506   6.558   0.805  0.3923  0.0167  1.3268
  263MOL0     H34668   8.622   6.437   0.814 -1.7706 -0.2488  0.7875
  263MOL0     H34669   8.374   6.632   0.630  0.9712 -0.1337  0.5801
  263MOL0     H34670   8.335   6.602   0.249  1.4967 -1.4494  0.4248
  263MOL0     H34671   8.246   6.641   0.397 -1.2645 -0.3540  0.5176
  263MOL0     H34672   8.245   6.371   0.254  1.2412 -0.1788  0.1680
  263MOL0     H34673   8.125   6.504   0.254 -2.1504 -1.9728 -0.0201
  263MOL0     H34674   8.217   6.326   0.479  2.9676  1.5434 -1.5777
  263MOL0     H34675   8.117   6.471   0.520  2.5488  1.4181 -2.1791
  263MOL0     H34676   7.979   6.270   0.498  0.3756  1.5829  1.0351
  263MOL0     H34677   8.030   6.239   0.338  1.2103 -2.5400  2.7131
  263MOL0     H34678   7.817   6.160   0.386  0.6409  1.0159  0.9560
  263MOL0     H34679   7.555   6.097   0.390 -0.0619  0.1753  1.3502
  263MOL0     H34680   7.131   6.281   0.210 -0.3120 -0.4920 -0.7778
  263MOL0     H34681   6.907   6.191   0.198 -3.6994  0.8470  0.9149
  263MOL0     H34682   6.673   6.154   0.207  1.5804  1.2453  0.3378
  263MOL0     H34683   6.672   6.324   0.243  0.2087  1.3984 -0.1476
  263MOL0     H34684   6.473   6.294   0.378 -1.1778  1.0568 -1.6880
  263MOL0     H34685   6.479   6.120   0.356  0.9620  0.5622  1.2809
  263MOL0     H34686   6.459   6.157   0.117 -0.2509 -1.7794  2.0924
  263MOL0     H34687   6.434   6.327   0.127 -1.8227 -1.4539 -3.6634
  263MOL0     H34688   6.253   6.153   0.301 -1.4230  0.1495  0.5473
  263MOL0     H34689   6.257   6.322   0.300  0.3252  1.8216 -0.3556
  263MOL0     H34690   6.077   6.286   0.170  0.4544  0.0514  1.2129
  263MOL0     H34691   6.141   6.144   0.089  2.1185  0.1444 -1.4499
  263MOL0     H34692   6.301   6.294  -0.033  1.8262 -1.2147  3.7597
  263MOL0     H34693   6.212   6.441   0.034 -0.1078  0.5823 -0.9357
  263MOL0     H34694   6.121   6.235  -0.163  1.2070 -0.5795 -0.3776
  263MOL0     H34695   6.008   6.356  -0.091 -0.8766 -0.1879 -2.3337
  263MOL0     H34696   6.267   6.428  -0.235  1.4428  2.8117  1.7315
  263MOL0     H34697   6.144   6.524  -0.164  1.0079 -0.7733  1.3538
  263MOL0     H34698   6.843   6.309   0.615  0.4411  0.8569  0.5924
  263MOL0     H34699   7.076   6.398   0.613 -0.0640 -0.9497  0.1967
  263MOL0     H34700   7.466   6.521   0.390  2.2002  1.0347 -1.8793
  263MOL0     H34701   7.700   6.572   0.375 -2.0058  0.7599 -1.7504
  263MOL0     H34702   9.214   6.956   1.362  0.5234  0.9223  0.5644
  263MOL0     H34703   9.459   7.059   1.405  0.4270 -0.5313  0.9884
  263MOL0     H34704   9.922   6.927   1.392 -0.0339  0.1778  1.5125
  263MOL0     H34705  10.149   6.987   1.406 -1.5164 -1.7080 -0.0330
  263MOL0     H34706  10.354   7.050   1.325  0.4408 -0.8280  3.4399
  263MOL0     H34707  10.327   7.174   1.449  2.0373 -0.3264  0.6641
  263MOL0     H34708  10.513   7.208   1.211  1.8105 -1.8466  0.4720
  263MOL0     H34709  10.515   7.314   1.361  1.7608 -0.0374  1.9715
  263MOL0     H34710  10.587   7.021   1.327 -0.2897  1.3671 -3.8931
  263MOL0     H34711  10.597   7.112   1.485  1.0597  0.2689  0.0137
  263MOL0     H34712  10.734   7.194   1.216 -1.9418 -2.0826  0.0820
  263MOL0     H34713  10.757   7.275   1.371 -0.7958  0.1899  1.4368
  263MOL0     H34714  11.021   6.943   1.399  1.4434  1.3859  1.6491
  263MOL0     H34715  10.079   7.316   1.131 -0.9786  0.2314 -1.5210
  263MOL0     H34716   9.846   7.265   1.128 -0.2023  0.5954  0.3159
  264MOL0     O34717  10.987   0.258   7.647 -0.0937 -0.2878  0.4245
  264MOL0     C34718  10.924   0.369   7.640 -0.4227  0.2854 -0.8462
  264MOL0     O34719  10.966   0.490   7.689  0.0643 -0.6255  0.0237
  264MOL0     C34720  11.070   0.494   7.773  0.9578  0.3301 -0.7161
  264MOL0     C34721  11.192   0.525   7.724  0.2243 -0.9047 -0.0983
  264MOL0     C34722  11.304   0.531   7.813  0.6785  0.9547 -0.5180
  264MOL0     C34723  11.289   0.509   7.951  0.3193  0.2387  1.1249
  264MOL0     O34724  11.403   0.513   8.025  0.8820  0.0452  0.2357
  264MOL0     C34725  11.395   0.482   8.169 -1.0054  0.0026 -0.3681
  264MOL0     C34726  11.544   0.496   8.223 -0.2076 -0.1248  0.1188
  264MOL0     C34727  11.637   0.396   8.163  0.1380 -0.7880  0.0212
  264MOL0     C34728  11.614   0.247   8.190  0.6745 -0.0721  0.4473
  264MOL0     C34729  11.744   0.164   8.166  0.0060  0.5250  0.2730
  264MOL0     C34730  11.739   0.021   8.219  0.2670 -1.0651 -0.3331
  264MOL0     C34731  11.605  -0.053   8.190  0.0065 -0.1740  0.4177
  264MOL0     C34732  11.615  -0.205   8.234  0.2269 -0.0223  0.1423
  264MOL0     N34733  11.519  -0.284   8.151 -0.1426 -0.4151 -0.7338
  264MOL0     C34734  11.544  -0.325   8.023 -0.2812 -0.6600  0.1807
  264MOL0     C34735  11.428  -0.391   7.992  0.5641  0.0713 -0.5101
  264MOL0     C34736  11.421  -0.452   7.853  0.1346 -0.4669 -0.5804
  264MOL0     C34737  11.270  -0.438   7.803 -0.5208 -0.8929  0.6273
  264MOL0     C34738  11.185  -0.561   7.846 -0.5251  0.3244  0.0661
  264MOL0     C34739  11.043  -0.548   7.791 -0.2611  0.2130  0.4491
  264MOL0     O34740  11.031  -0.571   7.643  0.0232 -0.2140  0.0601
  264MOL0     C34741  10.917  -0.580   7.570  0.0765 -0.2657 -0.0084
  264MOL0     C34742  10.924  -0.643   7.442  0.4033  0.3482 -0.3712
  264MOL0     C34743  10.804  -0.666   7.367  0.3894  0.2205 -0.0351
  264MOL0     C34744  10.675  -0.632   7.414  0.2634  0.8683  0.2356
  264MOL0     C34745  10.547  -0.649   7.333 -0.0953 -0.5544  0.0177
  264MOL0     O34746  10.553  -0.688   7.202 -0.2449  0.0247  0.5206
  264MOL0     C34747  10.446  -0.677   7.106 -0.3983  0.2908  0.2080
  264MOL0     C34748  10.461  -0.758   7.002 -0.5390 -0.2106 -0.9177
  264MOL0     C34749  10.370  -0.760   6.902  0.7875 -0.1617 -0.1406
  264MOL0     C34750  10.265  -0.664   6.892 -0.8396 -0.0801 -0.6732
  264MOL0     O34751  10.180  -0.662   6.778 -0.5944  0.7763  0.3513
  264MOL0     C34752  10.092  -0.551   6.756  0.3090  0.1616  0.2113
  264MOL0     C34753  10.001  -0.577   6.634  0.1965 -0.2834 -0.1087
  264MOL0     C34754   9.947  -0.444   6.579  1.0461 -0.9269 -0.0886
  264MOL0     C34755   9.842  -0.471   6.475  0.2577  0.6996 -0.1101
  264MOL0     C34756   9.783  -0.360   6.398  0.2484  0.1748  0.0881
  264MOL0     C34757   9.684  -0.414   6.292 -0.2935 -0.1727  0.1475
  264MOL0     C34758   9.649  -0.308   6.175 -0.5670  0.1547 -0.3316
  264MOL0     C34759   9.572  -0.381   6.056  0.1594 -0.4656 -0.3644
  264MOL0    Cl34760   9.410  -0.430   6.116 -0.1839  0.1881  0.3582
  264MOL0     C34761  10.242  -0.583   7.002 -1.5972  0.5731  0.0940
  264MOL0     C34762  10.334  -0.588   7.108  0.8749  0.0312 -0.7095
  264MOL0     O34763  10.445  -0.608   7.391 -0.2951  0.7314 -0.2548
  264MOL0     C34764  10.669  -0.566   7.540 -0.1401 -0.0770 -0.0430
  264MOL0     C34765  10.788  -0.550   7.615  0.1647 -0.3564  0.1776
  264MOL0     N34766  11.330  -0.371   8.087 -0.4218 -1.4305  0.1699
  264MOL0     N34767  11.395  -0.311   8.188  0.4156 -0.7567 -0.0004
  264MOL0     C34768  11.162   0.465   8.000  0.0338  1.0528  0.1799
  264MOL0     C34769  11.052   0.469   7.914 -0.5486  0.0159  0.1831
  264MOL0     C34770  10.807   0.364   7.555  0.9597 -0.5880 -0.5105
  264MOL0     C34771  10.792   0.268   7.455 -0.2351 -0.0462 -0.2638
  264MOL0     C34772  10.671   0.265   7.387  0.4004 -0.4088  0.0857
  264MOL0     C34773  10.572   0.352   7.409 -1.2077  0.0666 -0.1136
  264MOL0     O34774  10.461   0.346   7.326 -0.1776 -0.1083  0.3029
  264MOL0     C34775  10.331   0.328   7.389  0.4942 -0.1271 -0.4518
  264MOL0     C34776  10.290   0.180   7.391 -0.3015  0.1070  0.1970
  264MOL0     C34777  10.309   0.098   7.267  1.0371 -0.5046 -0.1342
  264MOL0     C34778  10.209   0.140   7.160  0.3514 -0.0049  0.1558
  264MOL0     C34779  10.066   0.122   7.194 -0.0883 -0.1132 -0.0413
  264MOL0     C34780   9.955   0.112   7.249  0.0895  0.1764  0.5807
  264MOL0     C34781  10.588   0.454   7.497 -0.1268 -0.7159 -0.7652
  264MOL0     C34782  10.700   0.460   7.574 -0.4495  0.5009 -0.4814
  264MOL0     H34783  11.215   0.542   7.619  1.5311  2.0327  0.5613
  264MOL0     H34784  11.409   0.529   7.784  0.4496 -4.5776 -2.2689
  264MOL0     H34785  11.354   0.382   8.188 -2.7525  0.6642 -0.4363
  264MOL0     H34786  11.334   0.566   8.204 -1.1792  0.1803 -1.0677
  264MOL0     H34787  11.541   0.474   8.330 -0.0911 -1.7802 -0.1917
  264MOL0     H34788  11.589   0.594   8.206 -0.6266 -0.1762 -1.4093
  264MOL0     H34789  11.734   0.414   8.209 -0.8809 -0.2611  2.0738
  264MOL0     H34790  11.640   0.413   8.055  1.5329  3.8137  0.5584
  264MOL0     H34791  11.585   0.237   8.295  1.5916 -0.3126  0.6859
  264MOL0     H34792  11.530   0.213   8.129 -0.3325  2.1796  0.4898
  264MOL0     H34793  11.830   0.217   8.208 -0.6675  0.0881  2.2853
  264MOL0     H34794  11.760   0.153   8.058  1.6659  0.7782  0.4695
  264MOL0     H34795  11.752   0.033   8.327  0.2631  2.2995 -0.6134
  264MOL0     H34796  11.825  -0.035   8.181 -0.2174 -0.9617 -1.6278
  264MOL0     H34797  11.515  -0.006   8.231  0.2270 -0.6625  1.4894
  264MOL0     H34798  11.593  -0.047   8.081  3.0035 -0.9468 -0.0289
  264MOL0     H34799  11.596  -0.205   8.341  0.4250 -1.3744  0.2005
  264MOL0     H34800  11.718  -0.243   8.229  0.6289  0.8781  1.3182
  264MOL0     H34801  11.625  -0.314   7.951 -2.0501 -1.4033 -2.0514
  264MOL0     H34802  11.474  -0.547   7.841 -1.2844 -1.9398  3.4538
  264MOL0     H34803  11.483  -0.386   7.792  2.6214 -0.2126  2.0223
  264MOL0     H34804  11.259  -0.428   7.695  1.8946 -1.6694  0.2457
  264MOL0     H34805  11.235  -0.343   7.843  4.2078  1.8598 -0.9431
  264MOL0     H34806  11.227  -0.650   7.799 -1.3375  0.9208 -1.8788
  264MOL0     H34807  11.205  -0.568   7.953  4.6991 -1.9173 -0.7394
  264MOL0     H34808  11.013  -0.445   7.808 -3.6322  0.5335 -5.0108
  264MOL0     H34809  10.974  -0.614   7.845 -0.0705  0.4387  0.9722
  264MOL0     H34810  11.016  -0.688   7.404 -1.0051 -1.9260 -1.3195
  264MOL0     H34811  10.814  -0.713   7.269  0.4495 -0.9793  0.5235
  264MOL0     H34812  10.549  -0.818   6.984  0.1747  0.7762 -0.8359
  264MOL0     H34813  10.387  -0.824   6.816 -0.4016  1.4368 -1.6292
  264MOL0     H34814  10.151  -0.459   6.748 -1.7581  1.4069 -1.7488
  264MOL0     H34815  10.021  -0.530   6.836 -1.5796 -1.3303 -0.9814
  264MOL0     H34816   9.926  -0.650   6.666 -0.2614 -1.3604 -3.2402
  264MOL0     H34817  10.059  -0.634   6.561 -1.8301 -1.8114 -0.6159
  264MOL0     H34818  10.026  -0.376   6.546  0.8074 -0.7455 -0.2843
  264MOL0     H34819   9.904  -0.384   6.660 -0.8154 -0.3729 -1.4197
  264MOL0     H34820   9.881  -0.546   6.405 -3.0727 -0.5210 -0.8482
  264MOL0     H34821   9.753  -0.514   6.520  0.9592  0.4698  1.1029
  264MOL0     H34822   9.862  -0.307   6.344  0.1511  0.5746  0.3348
  264MOL0     H34823   9.736  -0.285   6.462 -0.5632  0.9590 -1.3828
  264MOL0     H34824   9.598  -0.440   6.354 -1.1781 -0.5035 -1.1621
  264MOL0     H34825   9.718  -0.508   6.247  0.0395 -0.2128  0.4792
  264MOL0     H34826   9.585  -0.225   6.207  1.8230  1.9123  0.2838
  264MOL0     H34827   9.741  -0.266   6.132 -0.1164  0.2953  0.7176
  264MOL0     H34828   9.624  -0.473   6.027 -0.9723 -1.1354 -0.3348
  264MOL0     H34829   9.563  -0.314   5.971 -0.8668  0.7764  0.6840
  264MOL0     H34830  10.153  -0.522   7.013 -1.3735  0.7394  1.0758
  264MOL0     H34831  10.321  -0.522   7.193  1.8788 -2.0302  1.1685
  264MOL0     H34832  10.574  -0.549   7.589  0.1176  3.6199 -0.5392
  264MOL0     H34833  10.771  -0.517   7.717  0.5062  1.3718 -0.2813
  264MOL0     H34834  11.160   0.436   8.104  3.8856 -2.4756 -0.4693
  264MOL0     H34835  10.952   0.449   7.948 -0.5842  1.8228  1.2550
  264MOL0     H34836  10.861   0.186   7.436  0.5101 -0.0649  2.1736
  264MOL0     H34837  10.654   0.189   7.311  1.0997 -0.8879  0.3959
  264MOL0     H34838  10.258   0.391   7.337  0.7666 -0.0648 -0.7635
  264MOL0     H34839  10.334   0.365   7.492  1.2375  1.3128 -0.9521
  264MOL0     H34840  10.345   0.144   7.479  1.1321  0.8800 -0.3458
  264MOL0     H34841  10.183   0.177   7.414 -0.8921 -1.0557 -2.4066
  264MOL0     H34842  10.291  -0.003   7.305 -1.4065  0.1637  0.6805
  264MOL0     H34843  10.408   0.113   7.224  0.4621 -2.2858 -2.2581
  264MOL0     H34844  10.233   0.238   7.118 -0.5621  0.2418  0.1763
  264MOL0     H34845  10.215   0.075   7.072  2.3429 -3.3918  2.5461
  264MOL0     H34846   9.853   0.102   7.280 -0.1504 -1.0125 -0.5423
  264MOL0     H34847  10.519   0.535   7.516  1.0479  0.0680  0.2908
  264MOL0     H34848  10.723   0.527   7.656  1.7140 -1.6214  0.7955
  265MOL0     O34849   5.764   4.548   0.991  0.0294  0.5661  0.4638
  265MOL0     C34850   5.787   4.624   1.086  0.4181  0.6211 -0.5801
  265MOL0     O34851   5.694   4.678   1.171 -0.4586 -0.5051  0.8979
  265MOL0     C34852   5.560   4.673   1.136 -0.6180  0.2770 -0.3788
  265MOL0     C34853   5.491   4.794   1.107 -0.1079  0.2590  0.4849
  265MOL0     C34854   5.356   4.789   1.077  0.5641  0.0474 -0.5195
  265MOL0     C34855   5.283   4.671   1.082  0.2914 -0.4098  0.0724
  265MOL0     O34856   5.148   4.685   1.071  0.4057  0.2348 -0.1920
  265MOL0     C34857   5.063   4.583   1.111 -0.1761  0.6340  0.2355
  265MOL0     C34858   4.943   4.651   1.143  1.1285 -0.6271 -0.7303
  265MOL0     C34859   4.813   4.569   1.162  0.5318 -0.2633  0.2922
  265MOL0     C34860   4.681   4.656   1.143 -0.5600 -0.0666 -0.1375
  265MOL0     C34861   4.574   4.570   1.212 -0.6091 -0.4199  0.0687
  265MOL0     C34862   4.438   4.646   1.224 -0.3905  0.4381 -0.1254
  265MOL0     C34863   4.378   4.678   1.094  0.7228 -0.4864  0.3154
  265MOL0     C34864   4.252   4.768   1.102 -0.5911  0.4437 -0.2286
  265MOL0     N34865   4.137   4.706   1.159  0.1105 -0.2612 -0.4236
  265MOL0     C34866   4.064   4.611   1.106  0.7048  0.3207  1.1639
  265MOL0     C34867   3.963   4.577   1.190  0.5424  0.6631 -0.4083
  265MOL0     C34868   3.854   4.479   1.168  0.9603  0.2725  0.9950
  265MOL0     C34869   3.748   4.535   1.068  1.1307 -0.3538 -0.1946
  265MOL0     C34870   3.607   4.462   1.093 -0.9453  0.1121  0.4547
  265MOL0     C34871   3.502   4.497   0.991 -0.6324 -0.0099  0.3917
  265MOL0     O34872   3.389   4.414   1.019  0.2170  0.1378 -0.4174
  265MOL0     C34873   3.265   4.440   0.975  0.7518 -0.9421  0.0443
  265MOL0     C34874   3.235   4.542   0.881 -0.5093  0.1161 -0.3645
  265MOL0     C34875   3.103   4.562   0.841 -0.0455  0.5676 -0.2416
  265MOL0     C34876   2.994   4.486   0.884 -1.7013  0.4496 -0.5318
  265MOL0     C34877   2.854   4.515   0.854  0.4241  0.1473  0.7486
  265MOL0     O34878   2.818   4.625   0.777  0.0456  0.1687  0.1622
  265MOL0     C34879   2.680   4.649   0.753 -0.1093 -0.7018  0.3392
  265MOL0     C34880   2.605   4.571   0.667  0.4961 -0.1834 -0.1801
  265MOL0     C34881   2.470   4.604   0.633  0.1111  0.1835  0.0397
  265MOL0     C34882   2.407   4.719   0.679  0.2779  0.0869  0.2413
  265MOL0     O34883   2.285   4.774   0.641 -0.4808 -0.3553  0.4715
  265MOL0     C34884   2.199   4.684   0.561 -0.2117 -0.3597  0.2650
  265MOL0     C34885   2.085   4.756   0.500  0.0717  0.0658 -0.5290
  265MOL0     C34886   1.996   4.828   0.609  0.1222  0.3780  0.5644
  265MOL0     C34887   1.881   4.738   0.654  0.1089  0.8092  0.2373
  265MOL0     C34888   1.782   4.789   0.759  0.3948 -0.4676 -0.1101
  265MOL0     C34889   1.705   4.909   0.700  0.3086  0.3834  0.8968
  265MOL0     C34890   1.616   4.955   0.810  0.1179 -1.0904  0.5506
  265MOL0     C34891   1.541   5.087   0.786 -0.2480 -0.2793  0.3139
  265MOL0    Cl34892   1.502   5.142   0.947 -0.3593 -0.4990  0.1566
  265MOL0     C34893   2.487   4.794   0.762 -0.7003 -0.9623  0.5482
  265MOL0     C34894   2.615   4.769   0.803 -0.5042  0.0863  0.3585
  265MOL0     O34895   2.770   4.440   0.902  0.1796 -0.1303 -0.7074
  265MOL0     C34896   3.029   4.383   0.978  0.9604  0.1696  0.2536
  265MOL0     C34897   3.162   4.363   1.026  1.4377 -0.1653  0.4775
  265MOL0     N34898   3.988   4.645   1.308  0.7896 -0.7351 -0.3006
  265MOL0     N34899   4.083   4.722   1.285 -0.6068  0.6224  0.0605
  265MOL0     C34900   5.345   4.547   1.125 -0.0000 -0.5880 -0.4581
  265MOL0     C34901   5.485   4.546   1.140 -0.0799  0.1401 -0.4104
  265MOL0     C34902   5.931   4.622   1.134  0.1567 -0.0627 -0.7289
  265MOL0     C34903   5.966   4.718   1.233 -0.3358 -0.6110  1.1677
  265MOL0     C34904   6.099   4.743   1.257 -0.4349 -0.0664 -0.6723
  265MOL0     C34905   6.203   4.663   1.209  0.3852 -0.1131  0.2131
  265MOL0     O34906   6.332   4.702   1.238  0.0005 -0.0775 -0.2874
  265MOL0     C34907   6.382   4.825   1.192  0.0440 -0.0957  0.2550
  265MOL0     C34908   6.422   4.921   1.311  0.2248  0.8466  0.1878
  265MOL0     C34909   6.511   4.846   1.415  0.2286  0.3701 -0.0952
  265MOL0     C34910   6.623   4.747   1.365 -0.9460  0.4480  0.7299
  265MOL0     C34911   6.748   4.819   1.344  0.2172  0.0928 -0.1997
  265MOL0     C34912   6.852   4.886   1.339 -0.1778 -0.1028 -0.6415
  265MOL0     C34913   6.167   4.560   1.125 -0.8588 -0.1033  0.2711
  265MOL0     C34914   6.034   4.544   1.073 -0.2199  0.1388 -0.3886
  265MOL0     H34915   5.547   4.885   1.126  0.4561 -0.0626  0.3939
  265MOL0     H34916   5.307   4.882   1.051 -0.6327 -0.0365  1.2977
  265MOL0     H34917   5.091   4.525   1.199 -0.2816 -1.0407 -0.7890
  265MOL0     H34918   5.042   4.507   1.035  1.0440 -0.6460  1.1453
  265MOL0     H34919   4.929   4.725   1.063 -2.9793 -0.3523  0.0156
  265MOL0     H34920   4.958   4.694   1.242 -1.7798 -1.3778  0.1317
  265MOL0     H34921   4.813   4.508   1.253 -1.6999  0.2350  0.6830
  265MOL0     H34922   4.808   4.499   1.078  0.9991  0.1589 -0.0954
  265MOL0     H34923   4.687   4.746   1.204 -0.1637 -1.9902  2.8712
  265MOL0     H34924   4.664   4.676   1.036  1.2181  2.9921  0.0369
  265MOL0     H34925   4.599   4.539   1.314 -0.1448 -1.4765 -0.3545
  265MOL0     H34926   4.567   4.479   1.153 -0.2965 -0.3274 -0.1104
  265MOL0     H34927   4.457   4.734   1.287  0.8771 -0.4853  0.8349
  265MOL0     H34928   4.377   4.585   1.291 -0.3304  0.6227  0.1013
  265MOL0     H34929   4.446   4.725   1.023 -1.5978 -0.2224 -1.8869
  265MOL0     H34930   4.355   4.578   1.056  2.1637 -1.5390  2.0456
  265MOL0     H34931   4.233   4.808   1.002  0.7487 -0.2922 -0.8040
  265MOL0     H34932   4.270   4.861   1.156  2.1202 -0.6517  0.9780
  265MOL0     H34933   4.070   4.572   1.005 -1.6891  1.3595  0.5476
  265MOL0     H34934   3.803   4.465   1.264  1.5417 -0.2774  1.2319
  265MOL0     H34935   3.901   4.389   1.128  1.0066  0.3231  0.9366
  265MOL0     H34936   3.790   4.510   0.970  1.3960 -2.3188  0.3706
  265MOL0     H34937   3.729   4.642   1.074 -0.7629 -0.5602 -1.5016
  265MOL0     H34938   3.623   4.354   1.096 -0.7018  0.0874 -0.9307
  265MOL0     H34939   3.560   4.480   1.190 -1.2094 -2.2193  0.8326
  265MOL0     H34940   3.538   4.476   0.890 -3.4151 -0.3582 -0.6264
  265MOL0     H34941   3.476   4.603   0.996  0.8134  0.3109  3.1476
  265MOL0     H34942   3.309   4.613   0.847  1.8382 -1.2665  1.5289
  265MOL0     H34943   3.074   4.645   0.776 -2.1876 -1.4594 -2.0687
  265MOL0     H34944   2.637   4.478   0.621  0.7265  0.2309 -0.8689
  265MOL0     H34945   2.420   4.544   0.557 -0.2472  0.2529  0.2156
  265MOL0     H34946   2.173   4.592   0.613  2.6972 -0.3988  1.8727
  265MOL0     H34947   2.257   4.652   0.473  0.5515  0.8519  0.2983
  265MOL0     H34948   2.027   4.685   0.440  3.2096 -0.4173 -3.2954
  265MOL0     H34949   2.123   4.834   0.433 -1.7138  0.0160 -1.6791
  265MOL0     H34950   1.950   4.915   0.563 -1.3926  1.3116  3.5343
  265MOL0     H34951   2.055   4.869   0.692  2.2029 -1.3618  0.0437
  265MOL0     H34952   1.821   4.703   0.570 -1.1351  0.5350  1.2045
  265MOL0     H34953   1.932   4.654   0.700 -0.7165  0.6286  0.8590
  265MOL0     H34954   1.827   4.826   0.852 -3.1565  2.9860  0.4767
  265MOL0     H34955   1.715   4.706   0.782 -2.0057  0.4365 -3.1498
  265MOL0     H34956   1.652   4.877   0.609 -0.7259  4.1568 -0.0032
  265MOL0     H34957   1.766   4.994   0.669  2.5918 -1.4971 -0.0789
  265MOL0     H34958   1.543   4.879   0.838  0.0880 -0.7432  1.4593
  265MOL0     H34959   1.684   4.974   0.894  2.3017  1.7278 -1.6581
  265MOL0     H34960   1.448   5.078   0.728 -2.2171  2.9369  2.6229
  265MOL0     H34961   1.605   5.162   0.739 -0.0940  0.5688  1.8179
  265MOL0     H34962   2.441   4.885   0.798 -0.5263 -1.5137  2.2198
  265MOL0     H34963   2.674   4.831   0.868 -0.7342 -2.1233  2.8623
  265MOL0     H34964   2.950   4.314   1.005  2.0942 -1.4793 -0.5440
  265MOL0     H34965   3.186   4.295   1.107 -0.7818 -2.6505 -0.7929
  265MOL0     H34966   5.283   4.459   1.127 -4.6026  2.3609  0.4290
  265MOL0     H34967   5.541   4.457   1.168  0.3871 -0.1157 -2.0746
  265MOL0     H34968   5.896   4.787   1.280  0.1254 -1.6357  3.4975
  265MOL0     H34969   6.104   4.827   1.326 -2.1044 -0.8228  0.4132
  265MOL0     H34970   6.321   4.870   1.114  2.2320  1.1130 -0.8467
  265MOL0     H34971   6.472   4.800   1.135  0.1915  0.1907  0.3603
  265MOL0     H34972   6.474   5.011   1.277 -0.7143  1.5324  0.5349
  265MOL0     H34973   6.332   4.949   1.366  0.2958  0.6541  0.4023
  265MOL0     H34974   6.446   4.776   1.468  1.6222 -0.6045  0.4004
  265MOL0     H34975   6.562   4.915   1.483  1.9902 -0.4132 -0.5411
  265MOL0     H34976   6.634   4.667   1.439 -2.0725  0.5508  1.0389
  265MOL0     H34977   6.590   4.698   1.273 -1.2194  3.0605 -0.6461
  265MOL0     H34978   6.935   4.948   1.314 -0.9115  0.6819 -1.1701
  265MOL0     H34979   6.248   4.499   1.086  0.1860  0.9996  0.6372
  265MOL0     H34980   6.014   4.472   0.995  1.5189  0.1155 -0.8710
  266MOL0     O34981   8.666   1.114   8.416  0.0305  0.0034 -0.7722
  266MOL0     C34982   8.630   1.222   8.445 -0.0564 -0.3415 -0.2193
  266MOL0     O34983   8.710   1.323   8.502  0.4340 -0.2338  0.1022
  266MOL0     C34984   8.838   1.304   8.544 -0.1706 -0.3102 -0.1598
  266MOL0     C34985   8.907   1.428   8.571  0.8370 -0.4383  0.0431
  266MOL0     C34986   9.043   1.428   8.616 -0.5106 -0.5442  0.3748
  266MOL0     C34987   9.105   1.303   8.662  0.6171 -0.5802  0.0097
  266MOL0     O34988   9.225   1.286   8.725 -0.0296  0.5607  0.0292
  266MOL0     C34989   9.307   1.404   8.736  0.0233 -0.0467 -0.3656
  266MOL0     C34990   9.427   1.375   8.834  0.4772  0.0999 -0.0601
  266MOL0     C34991   9.518   1.494   8.844  0.3981 -0.7530 -0.0048
  266MOL0     C34992   9.607   1.528   8.957 -0.6925  0.0361 -0.1443
  266MOL0     C34993   9.696   1.411   9.000  0.8380  1.0479  0.2438
  266MOL0     C34994   9.793   1.464   9.102  0.0182  0.2135 -0.3954
  266MOL0     C34995   9.890   1.568   9.047 -0.2635 -0.5367 -0.4817
  266MOL0     C34996   9.959   1.526   8.915  0.4651  0.2992  0.2142
  266MOL0     N34997  10.068   1.617   8.865  0.1265 -0.8783 -0.2644
  266MOL0     C34998  10.192   1.629   8.898 -0.4978  0.1964  0.6756
  266MOL0     C34999  10.253   1.709   8.819 -0.3846 -0.0866 -0.2951
  266MOL0     C35000  10.393   1.763   8.849 -0.5430 -0.5407 -0.1553
  266MOL0     C35001  10.484   1.640   8.865  0.0098  0.0395  0.0633
  266MOL0     C35002  10.481   1.541   8.744 -0.5859 -0.5514 -0.3637
  266MOL0     C35003  10.617   1.469   8.724 -0.9202  0.2846 -0.5108
  266MOL0     O35004  10.712   1.570   8.706  0.5751 -0.1424 -0.6659
  266MOL0     C35005  10.845   1.534   8.701  0.8291 -0.4111  0.8135
  266MOL0     C35006  10.938   1.632   8.668  0.1843 -0.2918 -0.0234
  266MOL0     C35007  11.071   1.609   8.637 -0.4048 -0.0322  0.5372
  266MOL0     C35008  11.120   1.481   8.639 -1.1585 -0.0288  0.6881
  266MOL0     C35009  11.254   1.442   8.597 -0.9700 -0.4104  0.0611
  266MOL0     O35010  11.333   1.552   8.586 -0.4381 -0.3649 -0.5405
  266MOL0     C35011  11.464   1.543   8.540  0.0665  0.5708 -0.0675
  266MOL0     C35012  11.492   1.532   8.401  0.2876  0.1018 -1.0775
  266MOL0     C35013  11.622   1.499   8.354 -0.0956 -0.1477  0.8263
  266MOL0     C35014  11.724   1.467   8.445 -0.0188 -0.2108  1.3915
  266MOL0     O35015  11.847   1.424   8.390  0.4211 -0.3093  0.8571
  266MOL0     C35016  11.954   1.508   8.434  0.9663 -0.4529  0.3987
  266MOL0     C35017  12.055   1.536   8.325 -0.2072 -0.1639 -0.1409
  266MOL0     C35018  12.161   1.420   8.291  0.0175 -0.9399 -0.5471
  266MOL0     C35019  12.091   1.286   8.228 -0.6237  0.5221 -0.2744
  266MOL0     C35020  12.201   1.179   8.207  0.0642 -0.2987 -0.7452
  266MOL0     C35021  12.252   1.118   8.342  0.2313  0.3034 -0.2716
  266MOL0     C35022  12.343   0.990   8.318 -0.1681 -0.2905 -0.1722
  266MOL0     C35023  12.474   1.016   8.255  0.2135  0.0959  0.1141
  266MOL0    Cl35024  12.608   1.018   8.382 -0.3015  0.3299  0.2118
  266MOL0     C35025  11.701   1.480   8.580  0.1080 -0.0405 -0.6526
  266MOL0     C35026  11.576   1.527   8.628  0.8237 -0.2856  0.6359
  266MOL0     O35027  11.291   1.329   8.571  0.7391  0.2009  0.2743
  266MOL0     C35028  11.033   1.381   8.688 -0.1688  0.7331  0.7171
  266MOL0     C35029  10.897   1.407   8.723 -0.0724 -0.3892  0.3805
  266MOL0     N35030  10.164   1.751   8.724 -0.3953  0.5137  0.9425
  266MOL0     N35031  10.049   1.692   8.751 -0.4487  0.0345  0.1065
  266MOL0     C35032   9.037   1.189   8.630 -0.1409  0.4458 -0.2324
  266MOL0     C35033   8.911   1.186   8.572  0.4209 -0.4453 -0.9748
  266MOL0     C35034   8.495   1.260   8.410 -0.3135 -0.2267 -0.1549
  266MOL0     C35035   8.404   1.163   8.364  0.3583  0.1986  0.2024
  266MOL0     C35036   8.274   1.190   8.332  0.4079  0.3478  0.3677
  266MOL0     C35037   8.231   1.318   8.332  0.3560 -0.0169 -0.3649
  266MOL0     O35038   8.102   1.322   8.281 -0.0025  0.4398 -0.4179
  266MOL0     C35039   8.018   1.440   8.295 -0.2973 -0.1018 -0.3253
  266MOL0     C35040   7.883   1.393   8.249 -0.4290  0.0068 -0.3780
  266MOL0     C35041   7.802   1.318   8.354 -0.5860 -0.3097  0.1110
  266MOL0     C35042   7.657   1.305   8.311 -0.3813 -0.0916 -0.8587
  266MOL0     C35043   7.637   1.201   8.213 -0.1415 -0.0353 -0.7127
  266MOL0     C35044   7.612   1.111   8.133 -0.6354 -0.1383 -0.0524
  266MOL0     C35045   8.316   1.421   8.382 -0.4584  0.4832 -1.1441
  266MOL0     C35046   8.450   1.393   8.422  1.2257 -0.5132 -0.4376
  266MOL0     H35047   8.862   1.525   8.554  2.0293 -0.2157 -2.3633
  266MOL0     H35048   9.092   1.523   8.634  1.7947 -1.5382 -0.3072
  266MOL0     H35049   9.247   1.484   8.780  0.1921 -0.5047  0.7247
  266MOL0     H35050   9.336   1.439   8.637  2.1074 -0.2315  0.1304
  266MOL0     H35051   9.483   1.286   8.804  1.4110  0.5725  0.2548
  266MOL0     H35052   9.385   1.364   8.934 -0.9876  0.5777 -0.5896
  266MOL0     H35053   9.462   1.583   8.812  1.3609 -0.0595  0.1664
  266MOL0     H35054   9.591   1.482   8.762  0.6880  1.8204 -0.2077
  266MOL0     H35055   9.672   1.606   8.917  1.8189 -1.7685  0.2516
  266MOL0     H35056   9.547   1.558   9.044 -2.6466 -1.2165 -0.9973
  266MOL0     H35057   9.738   1.355   8.916 -0.9017  1.7686 -1.1749
  266MOL0     H35058   9.625   1.345   9.052 -0.6600  0.3550 -2.4621
  266MOL0     H35059   9.847   1.382   9.151 -0.4264  1.2648  1.9866
  266MOL0     H35060   9.740   1.512   9.184 -2.3873  1.7319 -2.6882
  266MOL0     H35061   9.837   1.664   9.045 -0.7199 -0.7446  0.8056
  266MOL0     H35062   9.963   1.576   9.128 -1.0075 -1.6835  0.3373
  266MOL0     H35063   9.881   1.512   8.840 -2.2668  1.5446  2.6019
  266MOL0     H35064  10.007   1.428   8.925  1.0504  0.6348  0.8123
  266MOL0     H35065  10.238   1.592   8.990  0.7212 -1.3311 -0.5015
  266MOL0     H35066  10.390   1.825   8.939 -1.8734  0.4461 -0.8546
  266MOL0     H35067  10.440   1.825   8.772 -2.0866  0.6735 -0.1536
  266MOL0     H35068  10.453   1.588   8.957  0.1409  0.3362  0.2760
  266MOL0     H35069  10.585   1.681   8.875 -0.2357  0.6366  0.1774
  266MOL0     H35070  10.411   1.458   8.763 -0.1831 -1.5763 -2.9165
  266MOL0     H35071  10.449   1.586   8.649  1.0694  2.7039  0.4934
  266MOL0     H35072  10.614   1.406   8.635  1.3779 -0.2154 -0.2959
  266MOL0     H35073  10.640   1.401   8.806  1.7750  1.5056 -0.1403
  266MOL0     H35074  10.901   1.734   8.660  0.9325 -0.1287 -1.6128
  266MOL0     H35075  11.138   1.683   8.595  0.5722 -1.4685 -0.5153
  266MOL0     H35076  11.415   1.562   8.331 -1.6137 -3.6089 -0.8398
  266MOL0     H35077  11.643   1.488   8.248 -1.4436  1.8063  0.3071
  266MOL0     H35078  12.001   1.448   8.512  0.6113 -0.2521  0.7755
  266MOL0     H35079  11.921   1.602   8.479  0.6079 -1.2968  1.9615
  266MOL0     H35080  12.103   1.634   8.338 -0.2385 -0.4536  2.7599
  266MOL0     H35081  11.995   1.552   8.235 -1.1474 -1.3697  0.2523
  266MOL0     H35082  12.212   1.389   8.382 -0.3428  1.2208  0.4407
  266MOL0     H35083  12.240   1.455   8.224 -0.9612  0.6592 -0.9089
  266MOL0     H35084  12.012   1.242   8.290 -3.0273  1.0376 -2.7606
  266MOL0     H35085  12.036   1.303   8.135  0.2888 -0.9572 -1.1221
  266MOL0     H35086  12.287   1.215   8.150  0.6987  1.8037  1.3972
  266MOL0     H35087  12.158   1.088   8.165  0.5729 -0.9495  0.0921
  266MOL0     H35088  12.167   1.081   8.400 -0.8680 -1.0808 -2.6124
  266MOL0     H35089  12.299   1.193   8.405 -0.6404  1.7293 -1.2735
  266MOL0     H35090  12.360   0.931   8.408 -1.2518 -1.5619 -0.7551
  266MOL0     H35091  12.278   0.929   8.253  1.0304 -0.5887 -1.1350
  266MOL0     H35092  12.483   1.110   8.200 -0.0308  0.3074  0.4324
  266MOL0     H35093  12.496   0.932   8.187  1.2093  0.6887 -0.3168
  266MOL0     H35094  11.771   1.456   8.659 -1.9595 -1.3660  0.8863
  266MOL0     H35095  11.552   1.551   8.731  1.8003 -2.6101  1.4642
  266MOL0     H35096  11.075   1.282   8.705 -0.4369  0.6865  1.1288
  266MOL0     H35097  10.834   1.331   8.767 -0.6788  0.8619  1.7667
  266MOL0     H35098   9.095   1.099   8.646  0.0796  0.6115 -0.0957
  266MOL0     H35099   8.861   1.090   8.565  0.5104 -0.4591 -1.4000
  266MOL0     H35100   8.436   1.060   8.355 -1.4901 -0.3821 -0.1276
  266MOL0     H35101   8.206   1.114   8.293  1.5553 -0.8523  0.6395
  266MOL0     H35102   8.066   1.525   8.246 -1.5150  2.2759  2.2894
  266MOL0     H35103   8.024   1.485   8.395 -1.6333  0.0136 -0.2885
  266MOL0     H35104   7.824   1.481   8.221 -1.3099 -0.1871  0.8045
  266MOL0     H35105   7.885   1.323   8.164 -1.2763  0.5326 -0.8520
  266MOL0     H35106   7.804   1.375   8.448 -0.2910  1.9631 -1.2031
  266MOL0     H35107   7.852   1.225   8.381  0.9067  0.6167  0.7011
  266MOL0     H35108   7.596   1.292   8.400  2.6096  1.2648  1.5685
  266MOL0     H35109   7.619   1.403   8.284 -4.2393 -0.7166  1.6020
  266MOL0     H35110   7.585   1.023   8.078 -0.0044 -0.2369 -0.2094
  266MOL0     H35111   8.272   1.521   8.382 -3.6070 -0.7603  0.0640
  266MOL0     H35112   8.518   1.470   8.456  2.0007 -1.6674  0.7356
  267MOL0     O35113   3.409   5.080   6.889  0.6518  0.0479 -0.2121
  267MOL0     C35114   3.457   5.161   6.963 -0.7076  0.2483  0.1673
  267MOL0     O35115   3.394   5.274   7.015  0.2859 -0.2756  0.0390
  267MOL0     C35116   3.270   5.314   6.979 -0.5709 -0.2892  0.2296
  267MOL0     C35117   3.252   5.455   6.978 -0.1511  0.3336 -0.0130
  267MOL0     C35118   3.136   5.513   6.940  0.7046 -0.2750  0.4727
  267MOL0     C35119   3.031   5.434   6.902  0.6131 -0.1699  0.6152
  267MOL0     O35120   2.911   5.477   6.848  0.7493 -0.2146 -0.5415
  267MOL0     C35121   2.908   5.507   6.703 -0.3784  0.5612 -0.0552
  267MOL0     C35122   2.759   5.499   6.663 -0.2664  0.2545  0.0774
  267MOL0     C35123   2.738   5.563   6.520 -1.0006  0.8221 -0.0128
  267MOL0     C35124   2.588   5.570   6.493 -0.7220 -0.0579  0.0366
  267MOL0     C35125   2.553   5.614   6.355  0.1948  0.2417 -0.2074
  267MOL0     C35126   2.399   5.635   6.354 -0.0546  0.4678  0.7499
  267MOL0     C35127   2.354   5.674   6.202 -0.4196 -0.9757  0.2356
  267MOL0     C35128   2.208   5.705   6.193  0.5716 -0.4766 -0.2832
  267MOL0     N35129   2.183   5.837   6.246  0.2713  0.4343  0.0424
  267MOL0     C35130   2.201   5.958   6.187 -0.6093 -0.0552 -0.4798
  267MOL0     C35131   2.151   6.047   6.275  0.1744 -0.2768  0.5070
  267MOL0     C35132   2.134   6.196   6.251 -0.3457 -0.1721  0.2661
  267MOL0     C35133   2.013   6.238   6.173  0.1427  1.2331  0.3976
  267MOL0     C35134   1.878   6.206   6.256 -1.0023  0.2710 -0.6400
  267MOL0     C35135   1.762   6.269   6.188  0.1620  0.4376  0.5038
  267MOL0     O35136   1.642   6.242   6.265  0.1509 -0.2998 -0.0120
  267MOL0     C35137   1.528   6.313   6.254  0.1660 -0.4116  0.6534
  267MOL0     C35138   1.461   6.359   6.367 -0.8034 -0.0821  0.1118
  267MOL0     C35139   1.335   6.423   6.356  0.1955 -0.5412  0.3392
  267MOL0     C35140   1.270   6.429   6.235  0.9428 -0.1063  0.3040
  267MOL0     C35141   1.140   6.485   6.224  0.3571  0.7975  0.4524
  267MOL0     O35142   1.098   6.591   6.308  0.3282  0.7067 -0.6836
  267MOL0     C35143   0.966   6.638   6.305  0.0656 -0.2281  0.1157
  267MOL0     C35144   0.934   6.768   6.274 -0.8845 -0.0675  0.1184
  267MOL0     C35145   0.799   6.802   6.288  0.0671 -0.8696  0.6124
  267MOL0     C35146   0.696   6.710   6.305  0.0857 -0.1599  0.0308
  267MOL0     O35147   0.572   6.766   6.292  0.5423  1.0988  0.4524
  267MOL0     C35148   0.473   6.691   6.224  0.3538  0.4736  0.1972
  267MOL0     C35149   0.393   6.778   6.133 -0.2803 -0.6583  0.1225
  267MOL0     C35150   0.337   6.903   6.194 -0.3020 -0.1636  1.0274
  267MOL0     C35151   0.216   6.876   6.295 -1.1608 -0.5428  0.5423
  267MOL0     C35152   0.145   7.006   6.328 -0.0245 -0.1526  0.2254
  267MOL0     C35153   0.075   7.094   6.220 -0.1297 -0.0675  0.4944
  267MOL0     C35154  -0.041   7.022   6.142 -0.1470 -0.3723 -0.0759
  267MOL0     C35155  -0.163   7.004   6.241 -0.7737  0.0697  0.3650
  267MOL0    Cl35156  -0.307   6.978   6.145  0.0861 -0.4910 -0.1328
  267MOL0     C35157   0.730   6.576   6.334 -0.4793 -0.3923 -0.6194
  267MOL0     C35158   0.867   6.544   6.338 -0.1149 -0.4833 -0.2292
  267MOL0     O35159   1.061   6.434   6.142  0.7373  0.1564  0.1681
  267MOL0     C35160   1.337   6.384   6.124  0.5519  0.3291  0.6395
  267MOL0     C35161   1.465   6.325   6.129  0.9351 -0.5187  0.2845
  267MOL0     N35162   2.124   5.982   6.393  0.5166  1.0378  0.7094
  267MOL0     N35163   2.144   5.858   6.372  0.0407  0.1637 -0.6216
  267MOL0     C35164   3.041   5.296   6.913 -0.2325 -0.0362 -0.2659
  267MOL0     C35165   3.161   5.233   6.948  0.4920  0.5755 -0.0443
  267MOL0     C35166   3.585   5.129   7.011  0.3771 -0.0438  0.3643
  267MOL0     C35167   3.630   5.167   7.139 -1.2716  0.6998 -0.2741
  267MOL0     C35168   3.752   5.110   7.194 -0.4367 -0.4454 -0.0754
  267MOL0     C35169   3.833   5.027   7.110 -0.1722  1.5578  0.1517
  267MOL0     O35170   3.943   4.954   7.154  0.7746 -0.0672 -0.0992
  267MOL0     C35171   3.953   4.922   7.297 -0.2017  0.8641 -0.2498
  267MOL0     C35172   4.060   4.808   7.319 -0.4737  0.2167 -0.6230
  267MOL0     C35173   4.205   4.851   7.307 -0.4555  0.0641  0.5298
  267MOL0     C35174   4.297   4.724   7.303  0.6226  0.1633  0.9021
  267MOL0     C35175   4.434   4.759   7.268  0.1368  0.1618 -0.5678
  267MOL0     C35176   4.548   4.792   7.254  0.6312 -0.5102 -0.3729
  267MOL0     C35177   3.788   4.992   6.980 -0.2207 -0.3495  0.3998
  267MOL0     C35178   3.668   5.046   6.925 -0.1620 -0.5830 -0.3326
  267MOL0     H35179   3.334   5.506   7.028 -0.5818  2.0619 -0.9822
  267MOL0     H35180   3.116   5.619   6.946 -0.1056 -0.4764  1.6818
  267MOL0     H35181   2.971   5.441   6.643 -0.4731  1.3754 -1.0709
  267MOL0     H35182   2.946   5.609   6.690  0.2711  0.2721 -0.4607
  267MOL0     H35183   2.695   5.553   6.733 -0.5699  1.0255 -0.7687
  267MOL0     H35184   2.717   5.398   6.657 -2.2241  1.0967 -2.1961
  267MOL0     H35185   2.783   5.487   6.456  1.3901 -1.5899  4.0589
  267MOL0     H35186   2.789   5.659   6.513 -1.6213  1.2901  1.4788
  267MOL0     H35187   2.542   5.473   6.512 -0.6528 -1.1059 -4.1818
  267MOL0     H35188   2.553   5.638   6.571 -0.6850  0.0138 -0.0088
  267MOL0     H35189   2.586   5.528   6.296  3.0427 -0.0879  1.6740
  267MOL0     H35190   2.605   5.709   6.339 -1.0995  0.4538 -4.1829
  267MOL0     H35191   2.364   5.708   6.428 -1.5531  0.5872 -0.0295
  267MOL0     H35192   2.346   5.542   6.376 -0.4477  0.2044 -1.1264
  267MOL0     H35193   2.417   5.746   6.150  0.2434 -1.6512  0.0882
  267MOL0     H35194   2.366   5.582   6.144 -1.5409 -0.2136 -1.2568
  267MOL0     H35195   2.150   5.629   6.246  0.4509  0.3857  0.8640
  267MOL0     H35196   2.173   5.716   6.090  0.6326 -0.8816 -0.3460
  267MOL0     H35197   2.250   5.975   6.092  2.0770  1.2514  1.0039
  267MOL0     H35198   2.211   6.228   6.180 -2.7534 -0.0565 -2.4572
  267MOL0     H35199   2.143   6.244   6.349  1.5506 -0.4744  0.2835
  267MOL0     H35200   2.010   6.187   6.077 -1.0298  4.6545 -1.5574
  267MOL0     H35201   2.015   6.344   6.144 -1.9443  1.3421  0.5154
  267MOL0     H35202   1.862   6.098   6.266 -1.6023  0.6183  3.7648
  267MOL0     H35203   1.880   6.249   6.356 -0.2647 -0.1104 -0.4800
  267MOL0     H35204   1.754   6.231   6.086 -0.7041  1.8955  0.0022
  267MOL0     H35205   1.781   6.376   6.181  0.6405  0.4906  2.1899
  267MOL0     H35206   1.511   6.346   6.463  0.3815  2.6953 -0.0098
  267MOL0     H35207   1.293   6.449   6.453  0.3189  0.5686  0.1043
  267MOL0     H35208   1.008   6.830   6.226 -1.6667  0.7007 -0.1181
  267MOL0     H35209   0.768   6.903   6.264  0.5234 -0.7126  0.6629
  267MOL0     H35210   0.400   6.659   6.299 -2.1462 -0.3304 -2.3943
  267MOL0     H35211   0.518   6.607   6.170 -0.7567  0.0263 -0.0542
  267MOL0     H35212   0.306   6.729   6.090 -0.9713  1.0686 -0.5298
  267MOL0     H35213   0.463   6.801   6.052 -0.3661 -0.5471  0.0797
  267MOL0     H35214   0.302   6.960   6.108  0.6836 -0.5677  0.3380
  267MOL0     H35215   0.419   6.964   6.232 -0.2831  1.0445 -0.7879
  267MOL0     H35216   0.154   6.803   6.242 -0.9357  0.5443 -1.3057
  267MOL0     H35217   0.243   6.831   6.391  0.2331 -1.4987 -0.2677
  267MOL0     H35218   0.214   7.073   6.380 -0.5389  0.2890  0.3474
  267MOL0     H35219   0.077   6.971   6.406 -1.4089  3.9686  1.1390
  267MOL0     H35220   0.146   7.130   6.145 -1.5895  3.1454  0.4675
  267MOL0     H35221   0.038   7.180   6.278  0.4537 -0.9163  2.1725
  267MOL0     H35222  -0.067   7.082   6.054  3.1583 -0.0950 -0.9878
  267MOL0     H35223  -0.013   6.918   6.122 -1.7503 -0.7082 -0.7506
  267MOL0     H35224  -0.175   7.090   6.307  0.0473  0.6624 -0.2543
  267MOL0     H35225  -0.149   6.923   6.314 -1.9253 -0.2559  0.2477
  267MOL0     H35226   0.650   6.509   6.363 -3.4415  2.0820 -2.4750
  267MOL0     H35227   0.884   6.438   6.351  0.3195 -0.4319 -0.3570
  267MOL0     H35228   1.289   6.379   6.027  1.4762  0.3916  0.1688
  267MOL0     H35229   1.507   6.267   6.048 -1.7649  0.4530 -1.9744
  267MOL0     H35230   2.958   5.232   6.885  0.7593 -1.1341 -0.8037
  267MOL0     H35231   3.165   5.124   6.951 -1.4950  0.4349 -1.0175
  267MOL0     H35232   3.567   5.228   7.202 -0.4557 -1.8451  3.3701
  267MOL0     H35233   3.792   5.143   7.289 -0.8540 -1.2729  0.3969
  267MOL0     H35234   3.854   4.898   7.335 -0.9124  0.2702 -2.3740
  267MOL0     H35235   3.994   5.011   7.346 -1.4091  1.0905  0.3826
  267MOL0     H35236   4.040   4.775   7.421 -2.6592 -0.3025 -1.1573
  267MOL0     H35237   4.034   4.732   7.244  0.7786  1.4890 -2.4383
  267MOL0     H35238   4.235   4.910   7.394  0.2752 -1.6285  1.4719
  267MOL0     H35239   4.221   4.913   7.218  1.5759 -0.7578  0.2812
  267MOL0     H35240   4.294   4.666   7.396 -0.3335  1.3056  1.6125
  267MOL0     H35241   4.266   4.665   7.215  0.9125  0.8858  0.3058
  267MOL0     H35242   4.650   4.822   7.247  0.7615 -0.1526  2.2800
  267MOL0     H35243   3.856   4.929   6.923  1.1201  0.6161  0.8774
  267MOL0     H35244   3.642   4.998   6.831 -0.9577 -5.0185  1.8903
  268MOL0     O35245   6.408   9.406  11.179 -0.0236  0.7297  0.2846
  268MOL0     C35246   6.440   9.289  11.163  0.3749  0.0270  0.6516
  268MOL0     O35247   6.370   9.202  11.082 -0.0501 -0.1150 -0.1197
  268MOL0     C35248   6.238   9.233  11.041 -0.7320 -0.2840 -0.3167
  268MOL0     C35249   6.210   9.225  10.904 -0.0476 -0.7430 -0.5056
  268MOL0     C35250   6.082   9.235  10.850  0.2963 -0.3370 -0.5458
  268MOL0     C35251   5.977   9.269  10.944  0.5373 -0.0862  0.1569
  268MOL0     O35252   5.853   9.291  10.885 -0.1641  0.8915 -0.1229
  268MOL0     C35253   5.761   9.371  10.961  0.5782  0.0972  0.5974
  268MOL0     C35254   5.630   9.401  10.878 -0.0898  0.0406  0.3741
  268MOL0     C35255   5.518   9.426  10.980 -0.1156 -0.5650  0.1371
  268MOL0     C35256   5.386   9.442  10.909 -0.0547  0.1256  1.2423
  268MOL0     C35257   5.272   9.400  10.998 -0.0781  1.2636  0.3396
  268MOL0     C35258   5.139   9.401  10.917 -0.2536  0.5788 -0.0518
  268MOL0     C35259   5.077   9.541  10.913  0.2214 -0.5483  0.1135
  268MOL0     C35260   4.957   9.555  10.818 -0.4059  0.9273  0.0850
  268MOL0     N35261   4.928   9.686  10.774  0.8733  0.4042  0.1222
  268MOL0     C35262   5.013   9.756  10.695  1.0422  0.2023  0.8356
  268MOL0     C35263   4.970   9.889  10.691 -0.1478 -0.5687  0.1657
  268MOL0     C35264   5.035  10.003  10.617 -0.1077 -0.2748 -0.0470
  268MOL0     C35265   4.994   9.999  10.474 -0.0862 -0.1739  0.9739
  268MOL0     C35266   4.846   9.979  10.453 -0.0442 -0.0991  0.1119
  268MOL0     C35267   4.752  10.097  10.493  0.0979  0.8364  0.1472
  268MOL0     O35268   4.641  10.039  10.429 -0.2888  0.8551  0.1474
  268MOL0     C35269   4.527  10.117  10.415  0.2286  0.1060  0.6314
  268MOL0     C35270   4.504  10.242  10.471 -0.4443 -0.6338 -0.3445
  268MOL0     C35271   4.392  10.315  10.445 -0.2837  0.4077 -1.1457
  268MOL0     C35272   4.286  10.270  10.358 -0.7632  0.2320 -0.3414
  268MOL0     C35273   4.168  10.349  10.330 -0.3800 -0.6618 -1.1615
  268MOL0     O35274   4.090  10.286  10.237  0.0047  0.0718  0.0811
  268MOL0     C35275   3.970  10.323  10.188  0.2176  0.1072  0.6261
  268MOL0     C35276   3.938  10.277  10.060  0.2806  0.6379  0.0783
  268MOL0     C35277   3.815  10.300   9.999  0.1864  0.1693  0.2973
  268MOL0     C35278   3.712  10.370  10.074 -0.6212  0.4905 -1.2074
  268MOL0     O35279   3.595  10.400  10.022  0.5889 -0.0769 -0.4464
  268MOL0     C35280   3.515  10.285   9.994 -0.5442 -0.6017 -0.1210
  268MOL0     C35281   3.423  10.254  10.106  0.2233 -0.5809 -0.3306
  268MOL0     C35282   3.351  10.386  10.151 -1.1713 -0.2266 -0.0372
  268MOL0     C35283   3.206  10.384  10.207  0.0080  0.4840  0.0773
  268MOL0     C35284   3.096  10.321  10.118 -0.0653 -0.0593 -0.1915
  268MOL0     C35285   2.968  10.338  10.190  0.1822  0.0794 -0.1975
  268MOL0     C35286   2.854  10.268  10.118  0.0702  0.0745 -0.3736
  268MOL0     C35287   2.717  10.274  10.189  0.0419  0.4039  1.0804
  268MOL0    Cl35288   2.607  10.157  10.112  0.2961 -0.1875  0.5170
  268MOL0     C35289   3.748  10.427  10.203 -0.1559  0.5957 -0.5931
  268MOL0     C35290   3.868  10.397  10.262 -1.0357  0.1734 -0.6847
  268MOL0     O35291   4.138  10.451  10.394  0.0084 -0.5255  0.4839
  268MOL0     C35292   4.307  10.144  10.302 -0.2994  0.8217  0.0534
  268MOL0     C35293   4.427  10.067  10.332  0.3142 -0.1374 -0.0009
  268MOL0     N35294   4.856   9.893  10.769 -0.5781  0.7885  0.0452
  268MOL0     N35295   4.838   9.778  10.820  0.4242  0.3301 -0.0712
  268MOL0     C35296   6.006   9.279  11.082 -0.4684  0.5715  0.7493
  268MOL0     C35297   6.136   9.261  11.125  0.1055 -0.6486 -0.0772
  268MOL0     C35298   6.553   9.234  11.242 -0.3428  1.1680  0.5652
  268MOL0     C35299   6.572   9.085  11.252 -0.4049 -0.1917  0.2032
  268MOL0     C35300   6.688   9.036  11.320  0.4710 -1.0945 -0.0165
  268MOL0     C35301   6.786   9.126  11.363 -0.0429  0.3275 -0.2886
  268MOL0     O35302   6.868   9.077  11.457 -0.2781 -0.2161 -0.9970
  268MOL0     C35303   7.011   9.065  11.421  0.1363  0.3312 -0.7080
  268MOL0     C35304   7.080   8.976  11.525  0.6604  0.6831 -0.3594
  268MOL0     C35305   7.096   9.048  11.655  0.4236 -0.2500 -0.2434
  268MOL0     C35306   7.145   8.941  11.746 -0.5140 -0.5964 -0.5716
  268MOL0     C35307   7.142   8.982  11.885 -0.7381 -1.0886 -0.5107
  268MOL0     C35308   7.135   9.018  12.003 -0.5637  1.2778  0.2226
  268MOL0     C35309   6.769   9.267  11.348 -0.6128  0.5767 -0.2331
  268MOL0     C35310   6.656   9.315  11.282 -0.9761 -1.0256  0.1225
  268MOL0     H35311   6.285   9.208  10.827  3.2578  1.2960  1.9630
  268MOL0     H35312   6.053   9.234  10.745 -0.0113 -0.6597 -0.4610
  268MOL0     H35313   5.806   9.469  10.977  1.7941  0.0038 -1.7562
  268MOL0     H35314   5.734   9.319  11.053 -1.5004 -0.2453 -0.1440
  268MOL0     H35315   5.598   9.313  10.822 -1.3758  0.1010  0.9647
  268MOL0     H35316   5.644   9.489  10.814 -3.0591  1.8286  1.9267
  268MOL0     H35317   5.543   9.516  11.037 -2.2579 -0.2214  0.5878
  268MOL0     H35318   5.525   9.338  11.044  0.8454 -1.1952 -0.7863
  268MOL0     H35319   5.388   9.549  10.884  2.4692 -0.5525 -2.2331
  268MOL0     H35320   5.379   9.399  10.809 -3.6006  0.0060  1.4239
  268MOL0     H35321   5.266   9.469  11.083  1.1679 -0.6822  2.1002
  268MOL0     H35322   5.287   9.298  11.033  0.9426  0.8011 -1.3623
  268MOL0     H35323   5.060   9.343  10.965 -1.2917  1.9583 -0.0311
  268MOL0     H35324   5.146   9.361  10.815 -1.4674  1.6666 -0.5895
  268MOL0     H35325   5.044   9.554  11.016 -1.3578 -4.7495  0.3248
  268MOL0     H35326   5.159   9.608  10.883  1.1338 -1.0489  1.4235
  268MOL0     H35327   4.862   9.514  10.850 -0.0743 -2.4832 -2.7541
  268MOL0     H35328   4.995   9.506  10.728 -1.9881 -0.7113  0.2605
  268MOL0     H35329   5.097   9.710  10.643 -2.0053 -1.5806 -2.9583
  268MOL0     H35330   5.143   9.988  10.609  0.1315  1.6503 -0.8933
  268MOL0     H35331   5.009  10.100  10.660 -1.1544 -1.6802  2.7918
  268MOL0     H35332   5.046   9.916  10.427  1.2184  0.6093  0.9892
  268MOL0     H35333   5.020  10.094  10.426  2.4540 -0.7031  1.1625
  268MOL0     H35334   4.832   9.963  10.346  0.3330 -1.7282  0.2872
  268MOL0     H35335   4.805   9.888  10.497 -1.3595  1.6608  2.8568
  268MOL0     H35336   4.789  10.190  10.448  3.6730 -2.0590 -3.6733
  268MOL0     H35337   4.747  10.104  10.602  1.1616 -0.2090  0.2825
  268MOL0     H35338   4.577  10.275  10.543 -0.3754  1.4969 -1.3059
  268MOL0     H35339   4.377  10.408  10.499  1.7151 -0.6280  1.3647
  268MOL0     H35340   4.010  10.225   9.998 -0.0073  0.6140 -0.2366
  268MOL0     H35341   3.794  10.246   9.907 -0.5319  0.6169  0.1935
  268MOL0     H35342   3.565  10.192   9.966 -1.3064 -0.9206 -0.4582
  268MOL0     H35343   3.462  10.310   9.901 -0.1259  0.4340 -0.0942
  268MOL0     H35344   3.490  10.205  10.178 -0.2710 -0.7932 -0.0059
  268MOL0     H35345   3.345  10.188  10.067  0.4904 -0.9486 -0.2509
  268MOL0     H35346   3.336  10.446  10.060 -0.0478 -1.8738 -1.3778
  268MOL0     H35347   3.417  10.434  10.222  1.9877 -2.3733 -1.3015
  268MOL0     H35348   3.210  10.318  10.295 -1.4947 -1.8357 -1.4872
  268MOL0     H35349   3.186  10.490  10.225 -1.9106  0.7620 -2.9349
  268MOL0     H35350   3.119  10.214  10.109  1.8258  0.2056  0.9349
  268MOL0     H35351   3.094  10.368  10.019 -1.3678 -0.5647 -0.4237
  268MOL0     H35352   2.948  10.446  10.197 -0.5754 -0.1650  4.4833
  268MOL0     H35353   2.977  10.296  10.290  2.2179 -1.3510 -0.9072
  268MOL0     H35354   2.842  10.305  10.016  1.0445 -1.2009 -0.9858
  268MOL0     H35355   2.883  10.162  10.114 -1.2238 -0.4901  2.6107
  268MOL0     H35356   2.684  10.378  10.181  0.3654  0.6855  2.8065
  268MOL0     H35357   2.723  10.249  10.296 -0.5878 -0.7980  0.8473
  268MOL0     H35358   3.678  10.488  10.260 -0.9782  0.0978 -1.0471
  268MOL0     H35359   3.891  10.432  10.362 -1.2637 -0.9027 -0.2395
  268MOL0     H35360   4.245  10.092  10.230 -0.2729  0.0164  0.5953
  268MOL0     H35361   4.432   9.971  10.281 -0.8002  0.5836 -1.5815
  268MOL0     H35362   5.932   9.315  11.153  1.0191  1.1839  2.0495
  268MOL0     H35363   6.159   9.269  11.231 -0.9296  0.8282  0.0635
  268MOL0     H35364   6.497   9.024  11.203 -1.5555  1.7162 -0.5129
  268MOL0     H35365   6.692   8.931  11.343  0.8896 -0.8291  1.1714
  268MOL0     H35366   7.065   9.159  11.439  0.0482  0.0666  1.1395
  268MOL0     H35367   7.019   9.014  11.325  1.1242 -1.0869  0.0865
  268MOL0     H35368   7.012   8.891  11.531  2.0106 -0.6944 -3.0278
  268MOL0     H35369   7.179   8.939  11.499  0.1509 -2.1021  1.2887
  268MOL0     H35370   7.001   9.085  11.696  2.1692  3.0331  1.1978
  268MOL0     H35371   7.170   9.127  11.645  1.9485 -1.6346 -0.2508
  268MOL0     H35372   7.097   8.845  11.725  0.3848 -0.7555 -2.0148
  268MOL0     H35373   7.251   8.931  11.719 -0.9781  0.5463 -3.0525
  268MOL0     H35374   7.107   9.056  12.100 -6.6627  1.3305 -1.1593
  268MOL0     H35375   6.838   9.336  11.395 -0.1637  0.8880 -1.3279
  268MOL0     H35376   6.646   9.423  11.270  2.9021 -0.6535 -1.0789
  269MOL0     O35377   4.921   3.758   1.949  0.6599 -0.5515  0.1520
  269MOL0     C35378   4.958   3.869   1.922  0.7018 -0.9967  0.0921
  269MOL0     O35379   4.876   3.968   1.876  0.0675  0.6482 -0.1709
  269MOL0     C35380   4.744   3.962   1.921  0.4647 -0.6003  0.0714
  269MOL0     C35381   4.713   4.039   2.039 -0.0475 -0.0324 -0.3604
  269MOL0     C35382   4.581   4.049   2.081 -0.1478 -1.3091 -0.0967
  269MOL0     C35383   4.481   3.980   2.012  0.0740 -0.4720  0.3179
  269MOL0     O35384   4.347   3.991   2.059 -0.2718 -0.0756 -0.3687
  269MOL0     C35385   4.234   4.012   1.974 -0.3809 -0.3641  0.4724
  269MOL0     C35386   4.112   4.033   2.065 -0.1947 -0.4209 -0.3124
  269MOL0     C35387   4.007   4.119   1.992 -0.7994  0.9982  0.8363
  269MOL0     C35388   3.884   4.128   2.074  0.4373 -0.4666 -0.2644
  269MOL0     C35389   3.762   4.181   1.982  1.0728  0.7012 -0.4854
  269MOL0     C35390   3.643   4.183   2.070  0.3689  0.1280 -0.5540
  269MOL0     C35391   3.516   4.227   1.983 -0.0434 -0.9242  0.3593
  269MOL0     C35392   3.398   4.242   2.081 -1.1195  0.1403 -0.4775
  269MOL0     N35393   3.271   4.257   2.014 -0.0255  0.7381  0.0230
  269MOL0     C35394   3.180   4.356   2.036  0.4537 -0.0424 -0.4951
  269MOL0     C35395   3.080   4.336   1.953  0.8557 -0.1006 -0.6640
  269MOL0     C35396   2.955   4.425   1.958  0.6940  0.0559 -0.6661
  269MOL0     C35397   2.835   4.356   2.008 -0.3531  0.3426 -0.0743
  269MOL0     C35398   2.713   4.442   2.036 -0.1488 -0.2955  0.3092
  269MOL0     C35399   2.595   4.391   1.949  0.0805  0.1432 -0.0760
  269MOL0     O35400   2.488   4.475   1.982 -0.3618  0.0846 -0.6123
  269MOL0     C35401   2.366   4.439   1.940  0.6010  0.7166 -0.3902
  269MOL0     C35402   2.271   4.514   2.013 -0.4093  0.2372  1.0513
  269MOL0     C35403   2.135   4.482   1.995 -0.5573  0.1910 -0.4488
  269MOL0     C35404   2.092   4.378   1.910  0.7007 -0.5189  0.1188
  269MOL0     C35405   1.948   4.342   1.907  0.0079  0.0352 -0.1332
  269MOL0     O35406   1.865   4.412   1.984 -0.0014  0.1799 -0.4429
  269MOL0     C35407   1.722   4.382   2.000 -1.1881 -0.1748 -0.0437
  269MOL0     C35408   1.648   4.295   1.922  0.1465  0.4283  0.2280
  269MOL0     C35409   1.515   4.271   1.962 -0.6154 -0.2227 -0.9081
  269MOL0     C35410   1.460   4.329   2.081 -0.8425 -0.0963  0.3728
  269MOL0     O35411   1.331   4.332   2.122  0.0815  0.0258  0.1468
  269MOL0     C35412   1.218   4.297   2.035  0.3763 -0.4169 -0.6442
  269MOL0     C35413   1.169   4.158   2.059  0.6462  0.1722 -0.2331
  269MOL0     C35414   1.083   4.117   1.943 -0.6003 -0.0899  0.4226
  269MOL0     C35415   1.021   3.975   1.951 -0.4301  0.2798 -0.2021
  269MOL0     C35416   0.973   3.923   2.088  0.1342 -0.1592 -0.5762
  269MOL0     C35417   0.840   3.974   2.141  0.5408  0.3075 -0.2910
  269MOL0     C35418   0.734   3.972   2.033 -0.4163  0.5543 -0.5060
  269MOL0     C35419   0.592   4.003   2.090 -0.8044  0.2907  0.7245
  269MOL0    Cl35420   0.567   4.149   2.202  0.0542 -0.1104  0.0838
  269MOL0     C35421   1.537   4.432   2.148 -0.1986  0.9736  0.3734
  269MOL0     C35422   1.667   4.451   2.107 -0.4281  0.4459 -0.4381
  269MOL0     O35423   1.921   4.244   1.836  0.6694  0.3012 -0.4039
  269MOL0     C35424   2.193   4.304   1.836 -0.1693 -1.0577 -0.2828
  269MOL0     C35425   2.328   4.332   1.859  0.3441 -0.9625 -0.1492
  269MOL0     N35426   3.108   4.215   1.887 -0.7091 -0.7112  1.2912
  269MOL0     N35427   3.221   4.168   1.922 -0.2633 -0.0358 -0.1792
  269MOL0     C35428   4.514   3.918   1.892  0.1850  0.0488 -0.0428
  269MOL0     C35429   4.641   3.902   1.848 -0.4047  0.2865 -0.6916
  269MOL0     C35430   5.103   3.895   1.929 -0.3981  0.5591  0.5135
  269MOL0     C35431   5.188   3.786   1.962 -0.7220 -0.0401 -0.1344
  269MOL0     C35432   5.330   3.797   1.946  0.3108  0.1483 -0.1837
  269MOL0     C35433   5.386   3.910   1.890  0.2343 -0.3018 -0.4140
  269MOL0     O35434   5.524   3.926   1.880  0.2861  0.1867 -0.2617
  269MOL0     C35435   5.592   4.057   1.853  0.0230 -0.8065  0.5139
  269MOL0     C35436   5.741   4.034   1.859  0.3392  0.5236 -0.1020
  269MOL0     C35437   5.790   3.957   1.983 -0.7618 -0.5221  0.6040
  269MOL0     C35438   5.942   3.906   1.978  0.3649 -0.3082 -0.3938
  269MOL0     C35439   6.030   4.005   1.939 -0.9459 -0.2374  0.7714
  269MOL0     C35440   6.091   4.104   1.907 -0.1925 -1.1549  0.1678
  269MOL0     C35441   5.301   4.023   1.879  0.1348 -0.5290  0.4395
  269MOL0     C35442   5.162   4.016   1.881  0.6285  0.1184 -0.0194
  269MOL0     H35443   4.788   4.093   2.096 -0.8646  0.6781  0.0649
  269MOL0     H35444   4.547   4.104   2.168  2.2752  0.9643 -0.4650
  269MOL0     H35445   4.219   3.935   1.897  2.6095 -0.4341 -0.1331
  269MOL0     H35446   4.254   4.104   1.919  2.9352 -0.3693  1.5074
  269MOL0     H35447   4.151   4.076   2.157  2.8390 -2.2089 -0.6503
  269MOL0     H35448   4.068   3.935   2.084 -2.9066  0.9021  0.8773
  269MOL0     H35449   3.984   4.057   1.905 -0.3379  1.8126  0.1174
  269MOL0     H35450   4.049   4.218   1.974  1.4311  0.6500  3.5005
  269MOL0     H35451   3.859   4.029   2.110  1.8777  0.0448  2.4317
  269MOL0     H35452   3.893   4.197   2.159  2.4329  0.6514 -1.2812
  269MOL0     H35453   3.747   4.106   1.903 -2.9593  0.9224 -0.1144
  269MOL0     H35454   3.759   4.280   1.938 -2.3175  1.6349  1.4893
  269MOL0     H35455   3.667   4.248   2.154 -2.4547 -0.8488  1.1564
  269MOL0     H35456   3.632   4.079   2.103  2.7402 -0.4186 -1.2748
  269MOL0     H35457   3.541   4.319   1.930  0.9047  0.1222  2.4757
  269MOL0     H35458   3.496   4.147   1.911 -2.9442 -2.6675  2.8545
  269MOL0     H35459   3.404   4.327   2.149  2.3732 -0.5191  0.2131
  269MOL0     H35460   3.392   4.152   2.144 -0.0918  0.6694  0.4112
  269MOL0     H35461   3.192   4.438   2.106  0.5289  0.2578 -0.8510
  269MOL0     H35462   2.934   4.458   1.856  1.9790 -0.0716 -0.9884
  269MOL0     H35463   2.984   4.506   2.026  1.6736 -0.4183 -0.5040
  269MOL0     H35464   2.862   4.309   2.103 -3.6801  0.7582  1.1990
  269MOL0     H35465   2.811   4.272   1.943  0.5751 -2.9613  3.5027
  269MOL0     H35466   2.691   4.435   2.143  0.5125 -0.6457  0.4278
  269MOL0     H35467   2.735   4.544   2.003  0.6964 -1.1327 -1.9300
  269MOL0     H35468   2.567   4.287   1.971  0.3717  0.7152  3.6537
  269MOL0     H35469   2.615   4.422   1.846 -1.0707 -0.3334 -0.4618
  269MOL0     H35470   2.288   4.597   2.081 -1.1096 -0.7495  2.4923
  269MOL0     H35471   2.063   4.545   2.046 -1.1122 -0.4652 -0.4176
  269MOL0     H35472   1.691   4.248   1.835 -0.9184  3.0941 -1.9004
  269MOL0     H35473   1.444   4.204   1.913 -2.2451  0.9666 -0.2576
  269MOL0     H35474   1.253   4.306   1.931 -2.1759 -0.0389 -1.5381
  269MOL0     H35475   1.144   4.378   2.038  0.2956 -0.5295  0.8800
  269MOL0     H35476   1.116   4.157   2.155 -2.5791  1.3927 -1.8711
  269MOL0     H35477   1.256   4.092   2.060 -1.3909 -2.7345 -1.4023
  269MOL0     H35478   1.133   4.118   1.845 -3.1055 -0.8281 -0.9636
  269MOL0     H35479   0.997   4.184   1.932 -0.0849  0.3768 -1.0170
  269MOL0     H35480   0.940   3.958   1.879 -1.0224  3.4376 -0.4093
  269MOL0     H35481   1.096   3.903   1.916 -0.7361  0.4484 -1.2661
  269MOL0     H35482   1.045   3.936   2.169 -2.9005 -1.7784  2.6737
  269MOL0     H35483   0.967   3.814   2.081 -1.6907 -0.1299  0.0448
  269MOL0     H35484   0.853   4.077   2.175  0.6407 -0.8491  3.7808
  269MOL0     H35485   0.803   3.913   2.224 -1.5313  0.0755 -1.3216
  269MOL0     H35486   0.768   4.055   1.970  0.5679 -1.2851 -2.5306
  269MOL0     H35487   0.741   3.878   1.977  0.3821  0.6751 -0.6221
  269MOL0     H35488   0.556   3.914   2.144 -1.8689  1.0226  1.2528
  269MOL0     H35489   0.539   4.024   1.997  0.5614  0.9447  0.0659
  269MOL0     H35490   1.506   4.486   2.236  2.7238  1.5434  1.1476
  269MOL0     H35491   1.734   4.519   2.159 -0.2468  0.9640 -1.3324
  269MOL0     H35492   2.165   4.218   1.777 -1.4180 -0.1703 -1.0199
  269MOL0     H35493   2.403   4.277   1.803  1.8102  1.2374 -0.4539
  269MOL0     H35494   4.439   3.857   1.843  0.3636 -2.0018  2.0863
  269MOL0     H35495   4.663   3.832   1.768  0.3481  0.7281 -0.8808
  269MOL0     H35496   5.144   3.698   2.007  1.3930 -0.4227  1.3113
  269MOL0     H35497   5.392   3.712   1.969 -0.5186 -0.0862  1.2741
  269MOL0     H35498   5.578   4.133   1.930  3.4483  2.5791 -1.8886
  269MOL0     H35499   5.561   4.101   1.758  3.5312  0.0501 -0.3596
  269MOL0     H35500   5.765   3.968   1.775 -0.4307  0.6492 -0.4337
  269MOL0     H35501   5.783   4.134   1.859 -0.6766  0.9841 -1.5641
  269MOL0     H35502   5.721   3.874   2.001 -2.5110  0.0914 -2.4499
  269MOL0     H35503   5.780   4.025   2.068 -0.2170 -0.0309  0.2844
  269MOL0     H35504   5.972   3.884   2.082  0.6367  2.4927  0.1858
  269MOL0     H35505   5.951   3.823   1.908  1.1229  0.6705 -1.4805
  269MOL0     H35506   6.139   4.194   1.873 -1.8601 -0.0841  0.5358
  269MOL0     H35507   5.354   4.110   1.843  3.5484 -2.7957 -0.4637
  269MOL0     H35508   5.104   4.104   1.855 -1.1957 -1.1238 -0.3002
  270MOL0     O35509   0.218  11.104   2.879 -0.0662  0.0073  0.2835
  270MOL0     C35510   0.239  11.034   2.971 -0.3029 -0.2656 -0.3317
  270MOL0     O35511   0.147  10.954   3.031 -0.6318  0.0032  1.0412
  270MOL0     C35512   0.022  10.964   2.967  0.0552  0.1400 -0.2416
  270MOL0     C35513  -0.014  10.857   2.888  0.2255  0.2917 -0.7987
  270MOL0     C35514  -0.138  10.860   2.829  0.1155 -0.0321 -0.8645
  270MOL0     C35515  -0.227  10.968   2.863 -0.8573 -0.2890 -0.2006
  270MOL0     O35516  -0.335  10.997   2.792 -0.4087  0.1990  0.0379
  270MOL0     C35517  -0.416  10.892   2.743  0.9331  0.3871  0.0889
  270MOL0     C35518  -0.563  10.937   2.789 -0.5153  0.1114  0.5214
  270MOL0     C35519  -0.594  11.086   2.775 -0.0511 -0.8462  0.0301
  270MOL0     C35520  -0.748  11.102   2.797 -0.3609  0.0394  0.0454
  270MOL0     C35521  -0.764  11.252   2.800  0.5716  0.7279 -0.3353
  270MOL0     C35522  -0.912  11.280   2.792 -0.4406  0.0669 -0.8133
  270MOL0     C35523  -0.925  11.427   2.833  1.1441  0.1667  0.4309
  270MOL0     C35524  -1.073  11.470   2.838  0.0705 -0.4677  0.3689
  270MOL0     N35525  -1.144  11.463   2.706 -0.0194 -0.2834 -0.2311
  270MOL0     C35526  -1.165  11.557   2.616 -0.7839  0.6279  0.2580
  270MOL0     C35527  -1.242  11.488   2.534  1.3742  0.8096 -0.1020
  270MOL0     C35528  -1.285  11.560   2.403  0.1171  0.7894  0.6289
  270MOL0     C35529  -1.423  11.543   2.362  0.0424  0.0894  0.8617
  270MOL0     C35530  -1.465  11.613   2.230 -0.2643  0.2952 -0.5809
  270MOL0     C35531  -1.601  11.583   2.173 -0.0037 -1.0553  0.0594
  270MOL0     O35532  -1.702  11.568   2.278 -0.0110 -0.5148 -0.0073
  270MOL0     C35533  -1.830  11.559   2.246 -0.6199  0.4594 -0.2407
  270MOL0     C35534  -1.872  11.539   2.115 -0.5288  0.3689 -0.6709
  270MOL0     C35535  -2.008  11.501   2.092 -0.3917 -0.0758  0.1081
  270MOL0     C35536  -2.105  11.511   2.196 -0.3976  0.1553 -0.2752
  270MOL0     C35537  -2.246  11.485   2.172 -0.1860 -0.3323 -0.7036
  270MOL0     O35538  -2.334  11.489   2.277 -0.7063  0.4082  0.2387
  270MOL0     C35539  -2.463  11.508   2.257  0.5187  0.0349 -0.1064
  270MOL0     C35540  -2.512  11.607   2.173 -0.3363  0.6094 -0.0066
  270MOL0     C35541  -2.650  11.625   2.152  0.6192  0.0579  0.2456
  270MOL0     C35542  -2.743  11.550   2.223  0.0633 -0.9161 -0.3637
  270MOL0     O35543  -2.875  11.568   2.215  0.4344 -0.0539  0.0691
  270MOL0     C35544  -2.914  11.697   2.172  0.5875  0.3601 -0.2363
  270MOL0     C35545  -3.066  11.698   2.207  0.1635  0.0600 -0.4180
  270MOL0     C35546  -3.114  11.842   2.178  0.4832  0.4052 -0.4947
  270MOL0     C35547  -3.265  11.866   2.208 -0.2246  0.2583  0.1847
  270MOL0     C35548  -3.328  11.989   2.136  0.5498 -0.7139  0.1269
  270MOL0     C35549  -3.264  12.114   2.171 -0.3002  0.3043  0.2446
  270MOL0     C35550  -3.328  12.241   2.118 -0.5263 -0.8674  1.0251
  270MOL0     C35551  -3.282  12.358   2.194  0.2665  0.0594  1.1652
  270MOL0    Cl35552  -3.352  12.368   2.359  0.4632  0.3728  0.1230
  270MOL0     C35553  -2.699  11.458   2.319 -0.7105  0.7117  0.3642
  270MOL0     C35554  -2.552  11.435   2.338  0.2412 -0.4076 -0.4448
  270MOL0     O35555  -2.274  11.475   2.054  0.7878  0.0118 -0.1016
  270MOL0     C35556  -2.060  11.543   2.328 -0.2713  0.0878  0.0273
  270MOL0     C35557  -1.921  11.558   2.345 -0.4546  1.5757  0.5018
  270MOL0     N35558  -1.271  11.359   2.568 -0.3260  0.1348  0.3295
  270MOL0     N35559  -1.219  11.349   2.687 -0.5192  1.0875  0.6472
  270MOL0     C35560  -0.192  11.068   2.951 -0.3603 -0.6037 -0.0759
  270MOL0     C35561  -0.064  11.070   2.997 -0.1567 -0.5041  0.4753
  270MOL0     C35562   0.383  11.018   2.993  0.2941 -0.7815 -0.1874
  270MOL0     C35563   0.482  11.112   2.963 -0.0896  0.1523 -0.1005
  270MOL0     C35564   0.618  11.069   2.972  0.5057  0.2610  0.0661
  270MOL0     C35565   0.655  10.944   3.016  0.3968  0.0474  0.8053
  270MOL0     O35566   0.777  10.886   3.022 -0.8539 -0.0193  0.4249
  270MOL0     C35567   0.893  10.956   2.975  0.3040 -0.2936  0.1945
  270MOL0     C35568   1.028  10.880   3.000 -0.1885  0.4827 -0.6691
  270MOL0     C35569   1.022  10.736   2.937  0.2835 -0.6668  0.7044
  270MOL0     C35570   1.089  10.712   2.799 -0.8956 -0.7207 -0.0466
  270MOL0     C35571   1.229  10.675   2.818 -0.4144 -0.1403  0.3922
  270MOL0     C35572   1.341  10.641   2.834  0.4809  0.1696 -0.4828
  270MOL0     C35573   0.554  10.858   3.067 -0.0956 -0.2307  0.4439
  270MOL0     C35574   0.418  10.889   3.045 -0.0454 -0.0072  0.3646
  270MOL0     H35575   0.037  10.765   2.860 -3.5450 -2.3561  0.1607
  270MOL0     H35576  -0.172  10.792   2.751 -2.7138  1.4908 -1.1031
  270MOL0     H35577  -0.391  10.795   2.788  1.7979  2.1138  3.7224
  270MOL0     H35578  -0.415  10.883   2.634 -1.9321 -1.6101  0.1146
  270MOL0     H35579  -0.581  10.907   2.893  1.6565  1.0130  1.2226
  270MOL0     H35580  -0.628  10.879   2.723  1.0092 -0.3639 -0.6396
  270MOL0     H35581  -0.568  11.129   2.678  1.1971 -0.3276  0.5711
  270MOL0     H35582  -0.543  11.143   2.853 -1.7263 -2.0239  2.1077
  270MOL0     H35583  -0.802  11.045   2.721  2.0636 -0.5531 -1.3658
  270MOL0     H35584  -0.791  11.055   2.886  1.7259 -0.9481  0.6068
  270MOL0     H35585  -0.722  11.305   2.714  0.6641  0.8566 -0.2132
  270MOL0     H35586  -0.718  11.292   2.891  1.5450 -1.7530  0.3282
  270MOL0     H35587  -0.965  11.220   2.867  1.4027 -0.1653  0.3751
  270MOL0     H35588  -0.950  11.276   2.689 -1.1919  1.8886 -0.6635
  270MOL0     H35589  -0.876  11.432   2.931  0.8801  1.3127  0.5185
  270MOL0     H35590  -0.876  11.493   2.761  0.2520  3.5351  2.6629
  270MOL0     H35591  -1.090  11.570   2.880 -1.7237 -0.9114  0.7957
  270MOL0     H35592  -1.120  11.401   2.909 -3.1353  0.5818 -0.5497
  270MOL0     H35593  -1.134  11.661   2.612  0.6442  0.2870  1.2441
  270MOL0     H35594  -1.216  11.521   2.328  0.3312  0.0237  1.2074
  270MOL0     H35595  -1.266  11.668   2.406 -1.8500  1.2681 -1.7375
  270MOL0     H35596  -1.500  11.573   2.433 -1.0178 -0.8284  0.1532
  270MOL0     H35597  -1.440  11.437   2.337 -1.0458  0.9837 -2.8177
  270MOL0     H35598  -1.461  11.720   2.252 -2.4203  0.8571 -2.5186
  270MOL0     H35599  -1.397  11.592   2.147 -0.7888 -2.0226 -0.4866
  270MOL0     H35600  -1.595  11.503   2.099 -1.0449  0.5169 -1.8122
  270MOL0     H35601  -1.613  11.673   2.112 -1.3035 -1.6776 -0.6190
  270MOL0     H35602  -1.807  11.540   2.028  0.9299  0.5735  0.3852
  270MOL0     H35603  -2.042  11.471   1.993  0.1826 -2.6896  0.6395
  270MOL0     H35604  -2.444  11.663   2.109 -1.2997  0.9357 -0.7646
  270MOL0     H35605  -2.696  11.700   2.089 -0.9488  0.3286  1.6236
  270MOL0     H35606  -2.885  11.705   2.067 -2.9357  1.2949 -1.2915
  270MOL0     H35607  -2.874  11.775   2.237  2.6189 -1.8690  1.3355
  270MOL0     H35608  -3.090  11.678   2.311 -1.7751  0.8721 -0.6531
  270MOL0     H35609  -3.125  11.637   2.139 -2.3299 -0.3397  1.9382
  270MOL0     H35610  -3.098  11.853   2.071 -0.5715  0.3453 -0.6652
  270MOL0     H35611  -3.058  11.913   2.240  0.0659  0.2392  0.0819
  270MOL0     H35612  -3.324  11.785   2.164  0.7281 -0.1141 -0.4439
  270MOL0     H35613  -3.296  11.863   2.313  0.4011 -2.7914  0.3861
  270MOL0     H35614  -3.430  12.002   2.174  0.7020 -0.4315  0.4374
  270MOL0     H35615  -3.327  11.968   2.029 -2.0964 -2.0439  0.2816
  270MOL0     H35616  -3.157  12.118   2.146 -0.4150  2.7609 -0.0431
  270MOL0     H35617  -3.265  12.123   2.280 -0.4433 -3.8812  0.7678
  270MOL0     H35618  -3.301  12.247   2.012 -2.4338 -1.3537  0.4858
  270MOL0     H35619  -3.437  12.245   2.126 -0.8037  1.2345 -2.1914
  270MOL0     H35620  -3.305  12.439   2.125  2.6993 -1.1226 -1.2117
  270MOL0     H35621  -3.174  12.366   2.210  0.1752 -0.3272  2.0255
  270MOL0     H35622  -2.772  11.417   2.387 -3.0220  1.1504 -1.7221
  270MOL0     H35623  -2.515  11.365   2.412 -0.1838  0.2322  0.3967
  270MOL0     H35624  -2.121  11.558   2.417  2.4186 -1.2171  2.2436
  270MOL0     H35625  -1.889  11.593   2.443 -2.0321  3.3236  0.4439
  270MOL0     H35626  -0.261  11.150   2.972 -0.7116 -0.7580 -0.6114
  270MOL0     H35627  -0.028  11.151   3.058 -0.4418 -0.6027  0.7764
  270MOL0     H35628   0.463  11.213   2.928 -0.9908  0.9833  2.5401
  270MOL0     H35629   0.695  11.144   2.956 -0.7284  1.7504  0.8606
  270MOL0     H35630   0.894  11.052   3.028 -0.8430 -0.5128  0.6521
  270MOL0     H35631   0.874  10.969   2.868 -0.3712  0.5371  0.3970
  270MOL0     H35632   1.114  10.943   2.975  0.1074  0.7108  0.8492
  270MOL0     H35633   1.034  10.867   3.108 -1.1543 -0.7262 -0.7365
  270MOL0     H35634   0.916  10.711   2.930  0.0478  0.2517  0.8747
  270MOL0     H35635   1.068  10.672   3.013  0.2651  1.7916  2.9406
  270MOL0     H35636   1.024  10.638   2.751 -1.2069  0.5263 -1.5943
  270MOL0     H35637   1.088  10.800   2.735 -2.0992  0.2493  1.2281
  270MOL0     H35638   1.445  10.626   2.852  0.5647  0.8444 -0.3745
  270MOL0     H35639   0.592  10.766   3.111  2.4337  0.1988 -0.6663
  270MOL0     H35640   0.341  10.816   3.065  0.2473 -0.7375 -0.9987
  271MOL0     O35641   1.792  10.607   1.017  0.7780  0.0343  0.2193
  271MOL0     C35642   1.816  10.495   0.963  0.3092 -0.7021 -0.7193
  271MOL0     O35643   1.725  10.400   0.922 -0.3140 -0.0555  0.1035
  271MOL0     C35644   1.608  10.408   0.979  0.4148  0.4526  0.6286
  271MOL0     C35645   1.565  10.340   1.100  0.3309 -0.1667 -0.0348
  271MOL0     C35646   1.434  10.353   1.147 -0.3190 -0.4814 -0.8104
  271MOL0     C35647   1.343  10.433   1.088  0.2467 -0.0277  0.0600
  271MOL0     O35648   1.221  10.430   1.150 -0.2051 -0.1592 -0.1686
  271MOL0     C35649   1.118  10.507   1.089  0.4241 -0.3152  0.5182
  271MOL0     C35650   0.980  10.518   1.159 -0.4305 -0.9354 -0.2605
  271MOL0     C35651   0.905  10.384   1.153 -0.3080  0.2391 -0.4061
  271MOL0     C35652   0.771  10.400   1.238 -0.0582  0.1338  0.5222
  271MOL0     C35653   0.797  10.383   1.388 -0.6632 -1.1858  0.0590
  271MOL0     C35654   0.667  10.367   1.463 -0.3032  0.3812  0.2197
  271MOL0     C35655   0.697  10.374   1.614 -0.3590 -0.2791 -0.5638
  271MOL0     C35656   0.569  10.364   1.694 -1.1740  0.5420  0.3234
  271MOL0     N35657   0.601  10.395   1.836  0.4003 -0.5555  0.3319
  271MOL0     C35658   0.543  10.497   1.905  1.4063  0.3942 -0.0501
  271MOL0     C35659   0.585  10.473   2.037 -0.2022  0.1452  0.4110
  271MOL0     C35660   0.575  10.577   2.149 -0.1233 -0.1588  0.7689
  271MOL0     C35661   0.436  10.595   2.209 -0.0310 -0.0610  0.5715
  271MOL0     C35662   0.384  10.465   2.273  0.8475 -0.2408  0.4588
  271MOL0     C35663   0.241  10.496   2.332  0.3900  0.2221 -0.5481
  271MOL0     O35664   0.142  10.521   2.231  0.3796 -0.0252  0.0275
  271MOL0     C35665   0.006  10.551   2.268  0.3280  0.1115 -0.4192
  271MOL0     C35666  -0.072  10.610   2.175  0.3832  0.7831  0.4451
  271MOL0     C35667  -0.205  10.652   2.209  0.7737  0.5648  0.6133
  271MOL0     C35668  -0.263  10.623   2.330  0.7506  0.1584  0.1579
  271MOL0     C35669  -0.403  10.675   2.354 -0.7542 -0.4278 -0.1583
  271MOL0     O35670  -0.476  10.720   2.252 -0.3603  0.0781  0.3867
  271MOL0     C35671  -0.605  10.770   2.276 -0.0525 -0.6271  0.6775
  271MOL0     C35672  -0.621  10.890   2.354 -0.0027 -0.4719 -0.7928
  271MOL0     C35673  -0.749  10.934   2.388  0.2038  1.0320  0.5754
  271MOL0     C35674  -0.858  10.855   2.360 -0.1037  0.6853 -0.5057
  271MOL0     O35675  -0.985  10.873   2.416 -0.7487 -0.0196 -0.0741
  271MOL0     C35676  -0.986  10.949   2.536 -0.2720 -0.1593  0.2613
  271MOL0     C35677  -1.126  10.941   2.599 -0.2985 -0.6699  0.4738
  271MOL0     C35678  -1.238  10.977   2.501  0.0851  0.7180  0.3798
  271MOL0     C35679  -1.369  10.931   2.567 -0.1307 -0.1183  0.3078
  271MOL0     C35680  -1.482  11.012   2.512  0.4126  0.1741 -0.0552
  271MOL0     C35681  -1.615  10.963   2.576  0.1077  0.5759 -0.7354
  271MOL0     C35682  -1.732  11.047   2.516 -0.5941  0.2433 -0.6191
  271MOL0     C35683  -1.863  11.008   2.592  0.0549  0.2706 -0.6681
  271MOL0    Cl35684  -1.854  11.058   2.769  0.3214 -0.2098  0.4497
  271MOL0     C35685  -0.837  10.739   2.283 -0.0195  0.1486 -0.0581
  271MOL0     C35686  -0.715  10.695   2.235  0.2269  0.3751  0.1265
  271MOL0     O35687  -0.439  10.660   2.468  0.1446  0.1226 -0.5180
  271MOL0     C35688  -0.177  10.561   2.425 -0.8889  0.2282 -0.4150
  271MOL0     C35689  -0.044  10.519   2.399  0.8071  0.0956  0.4178
  271MOL0     N35690   0.667  10.363   2.041  0.0745  0.6132 -0.4753
  271MOL0     N35691   0.666  10.314   1.921 -0.2424 -0.0310  0.4149
  271MOL0     C35692   1.385  10.516   0.982 -0.7395 -0.4868  0.4659
  271MOL0     C35693   1.514  10.500   0.929  0.0977  0.0343 -0.0501
  271MOL0     C35694   1.958  10.458   0.943  0.2207  0.6053 -0.1837
  271MOL0     C35695   2.071  10.541   0.920 -0.1315  0.2350 -0.4567
  271MOL0     C35696   2.197  10.487   0.905 -0.2846  0.6567  0.1053
  271MOL0     C35697   2.226  10.351   0.918 -1.1360 -0.5335 -0.7941
  271MOL0     O35698   2.360  10.316   0.909 -0.1937 -0.0900  0.1894
  271MOL0     C35699   2.412  10.180   0.921 -0.1289 -0.1188 -1.0431
  271MOL0     C35700   2.556  10.179   0.885 -0.3133 -0.2204 -0.2684
  271MOL0     C35701   2.629  10.044   0.903  0.2782 -0.0784 -1.0027
  271MOL0     C35702   2.775  10.057   0.866  0.4435  0.4859 -0.4942
  271MOL0     C35703   2.849   9.937   0.920  0.4810  0.4265  0.7704
  271MOL0     C35704   2.898   9.837   0.960 -1.4816  0.3801 -0.8783
  271MOL0     C35705   2.120  10.262   0.940  0.4643  0.9254  0.4611
  271MOL0     C35706   1.985  10.318   0.942  0.2433  0.3445  0.3449
  271MOL0     H35707   1.632  10.268   1.146 -0.0362  1.1746  2.8262
  271MOL0     H35708   1.404  10.305   1.240 -3.0230  1.3953 -0.5993
  271MOL0     H35709   1.085  10.464   0.993 -1.7054  0.6609  0.7524
  271MOL0     H35710   1.139  10.614   1.080 -1.4319 -0.0349 -1.4925
  271MOL0     H35711   0.912  10.590   1.113 -0.6958 -2.2139 -1.9781
  271MOL0     H35712   0.996  10.536   1.266 -1.1430 -1.4557 -0.0605
  271MOL0     H35713   0.971  10.299   1.174  1.4912  1.5144 -0.7023
  271MOL0     H35714   0.877  10.376   1.048  1.5445 -0.8109 -0.8592
  271MOL0     H35715   0.715  10.492   1.219 -1.4505 -1.1287 -1.9116
  271MOL0     H35716   0.699  10.323   1.207 -0.5297  0.5014  0.6955
  271MOL0     H35717   0.850  10.474   1.416  0.5707 -1.7279 -0.4455
  271MOL0     H35718   0.857  10.292   1.394  0.8784 -0.4271 -2.3294
  271MOL0     H35719   0.612  10.281   1.425  2.3554 -0.3985 -2.1528
  271MOL0     H35720   0.597  10.443   1.428 -3.9627 -2.5555  0.5247
  271MOL0     H35721   0.762  10.287   1.633  0.4021 -0.3518 -3.1638
  271MOL0     H35722   0.752  10.464   1.642 -1.8259  0.4238  0.1599
  271MOL0     H35723   0.547  10.257   1.685  3.5032 -0.4149 -3.8305
  271MOL0     H35724   0.491  10.424   1.646  0.6059  2.0079 -0.8968
  271MOL0     H35725   0.480  10.572   1.858  0.8247 -2.9552 -5.5910
  271MOL0     H35726   0.606  10.673   2.105 -2.7710 -0.1568 -1.3679
  271MOL0     H35727   0.639  10.558   2.236 -0.1778  0.8738  1.0492
  271MOL0     H35728   0.369  10.633   2.131  1.3994  3.1653  0.7358
  271MOL0     H35729   0.441  10.680   2.278 -0.7400  2.5417 -2.3419
  271MOL0     H35730   0.366  10.385   2.201 -0.4040  1.2320 -0.9258
  271MOL0     H35731   0.450  10.422   2.349  1.1714 -0.8845 -0.1844
  271MOL0     H35732   0.251  10.584   2.397 -0.1507  1.4767 -2.1178
  271MOL0     H35733   0.210  10.407   2.388 -2.4195  0.4580 -1.6138
  271MOL0     H35734  -0.018  10.609   2.080  2.4970 -1.0257  1.5889
  271MOL0     H35735  -0.255  10.708   2.130  0.2748  0.7907  1.0834
  271MOL0     H35736  -0.537  10.957   2.371  1.6876 -2.3057 -1.5119
  271MOL0     H35737  -0.758  11.032   2.434  2.7219  0.5198  2.3950
  271MOL0     H35738  -0.953  11.052   2.524 -1.0297  0.1258  0.5997
  271MOL0     H35739  -0.917  10.903   2.608  0.2320  2.0823  1.2857
  271MOL0     H35740  -1.131  11.007   2.686 -1.1234 -0.5593  0.3436
  271MOL0     H35741  -1.139  10.839   2.636 -1.3112 -0.2423  1.3222
  271MOL0     H35742  -1.227  10.919   2.409 -0.5992 -0.1670  0.8370
  271MOL0     H35743  -1.238  11.086   2.486  2.1590  0.9049  1.4016
  271MOL0     H35744  -1.389  10.824   2.553 -1.2158  0.3031 -2.0035
  271MOL0     H35745  -1.367  10.953   2.674 -0.2533  1.5067  0.0070
  271MOL0     H35746  -1.489  10.997   2.403  1.6578 -2.1869  0.1152
  271MOL0     H35747  -1.470  11.119   2.531  0.8870 -0.1648  1.7366
  271MOL0     H35748  -1.607  10.970   2.684 -2.4779  2.3800 -0.5478
  271MOL0     H35749  -1.630  10.859   2.547  1.3930 -0.3193  1.5574
  271MOL0     H35750  -1.708  11.153   2.527  0.2212 -0.0810  0.9721
  271MOL0     H35751  -1.742  11.032   2.408  1.4350  1.7350 -1.0811
  271MOL0     H35752  -1.877  10.900   2.593  1.9716 -0.0105  0.7871
  271MOL0     H35753  -1.953  11.057   2.554 -2.0720 -1.7609  1.4135
  271MOL0     H35754  -0.927  10.687   2.250  1.7955 -1.3491 -3.0611
  271MOL0     H35755  -0.701  10.596   2.194 -0.3741  1.4091 -2.8528
  271MOL0     H35756  -0.223  10.536   2.520 -0.6666  2.3018  0.2890
  271MOL0     H35757   0.014  10.466   2.473  1.0399 -1.0321 -0.5537
  271MOL0     H35758   1.314  10.588   0.943 -0.2716  0.0266  0.5525
  271MOL0     H35759   1.539  10.571   0.851  0.9199  1.1289  1.1638
  271MOL0     H35760   2.064  10.648   0.935  1.1904  0.2598  0.0922
  271MOL0     H35761   2.285  10.551   0.904  2.6639 -2.9846  1.8031
  271MOL0     H35762   2.354  10.110   0.861 -0.6919 -0.2764 -0.3309
  271MOL0     H35763   2.392  10.164   1.028  1.0313 -0.9478 -0.9387
  271MOL0     H35764   2.573  10.213   0.782  0.1003 -0.8201 -0.4071
  271MOL0     H35765   2.600  10.252   0.954  0.2130  2.5021 -3.2517
  271MOL0     H35766   2.579   9.970   0.841 -2.1276  1.2934 -0.8410
  271MOL0     H35767   2.618  10.013   1.007 -0.8611 -1.1172 -1.4148
  271MOL0     H35768   2.785  10.055   0.757 -1.0127 -0.0736 -0.6393
  271MOL0     H35769   2.818  10.149   0.907 -1.8075  1.8375 -0.9826
  271MOL0     H35770   2.958   9.762   1.007  0.8190  2.0077 -1.0519
  271MOL0     H35771   2.127  10.154   0.942  0.1707  0.8707 -0.7965
  271MOL0     H35772   1.904  10.246   0.948  0.6010 -0.4391 -2.5583
  272MOL0     O35773   3.218  10.006  10.705 -0.0108  0.4591 -0.0829
  272MOL0     C35774   3.247  10.092  10.624  0.1332 -0.2919  0.4438
  272MOL0     O35775   3.153  10.159  10.546 -1.0416  0.7213 -0.1381
  272MOL0     C35776   3.031  10.106  10.548 -0.3409 -0.6632 -0.3340
  272MOL0     C35777   2.937  10.137  10.650  0.0386  0.3022  0.3179
  272MOL0     C35778   2.807  10.098  10.632  0.8248 -0.8133  0.3841
  272MOL0     C35779   2.771  10.021  10.519 -0.3594  0.0540  0.2401
  272MOL0     O35780   2.645   9.983  10.486  0.3685 -0.8240 -0.8797
  272MOL0     C35781   2.549  10.095  10.478 -0.9387  1.1340 -0.0402
  272MOL0     C35782   2.423  10.050  10.400  0.1764  1.1768  0.0568
  272MOL0     C35783   2.334  10.166  10.375 -0.7802 -0.3543 -0.2085
  272MOL0     C35784   2.204  10.128  10.310  0.3262 -0.2775  0.6433
  272MOL0     C35785   2.117  10.252  10.296 -0.5940  0.2746  0.3943
  272MOL0     C35786   2.161  10.355  10.178  0.0664  0.6502 -0.8649
  272MOL0     C35787   2.058  10.466  10.136  0.4964  0.9180 -1.2536
  272MOL0     C35788   1.912  10.410  10.124 -0.8088  0.6383  0.5133
  272MOL0     N35789   1.811  10.512  10.091 -0.3216 -0.1747 -0.0333
  272MOL0     C35790   1.765  10.613  10.170 -0.2545 -0.3344  0.1378
  272MOL0     C35791   1.684  10.687  10.098 -0.8071  0.1339  0.0755
  272MOL0     C35792   1.589  10.797  10.146  0.2656  0.2942  0.9289
  272MOL0     C35793   1.544  10.786  10.293  0.0085 -0.3231 -0.1503
  272MOL0     C35794   1.420  10.869  10.310  0.7500  0.4219 -0.4414
  272MOL0     C35795   1.355  10.856  10.450 -0.0634  1.0839  0.9291
  272MOL0     O35796   1.287  10.726  10.470 -1.2406  0.1001 -1.3939
  272MOL0     C35797   1.163  10.713  10.520  0.0117  0.2820  0.4571
  272MOL0     C35798   1.085  10.598  10.494 -0.4883  0.7471 -0.1139
  272MOL0     C35799   0.955  10.577  10.528  0.2475 -0.0820  0.0378
  272MOL0     C35800   0.884  10.674  10.603 -0.1327 -0.6682  1.2557
  272MOL0     C35801   0.749  10.649  10.646  0.8262  0.2549 -0.7722
  272MOL0     O35802   0.690  10.741  10.734 -0.3701  0.1833  0.1733
  272MOL0     C35803   0.556  10.741  10.771  0.4246  0.1217 -0.1014
  272MOL0     C35804   0.449  10.679  10.717 -0.1007 -0.1830 -0.2847
  272MOL0     C35805   0.317  10.709  10.758  1.2990 -0.7812  0.1704
  272MOL0     C35806   0.291  10.817  10.841 -0.9080 -1.0320 -1.0021
  272MOL0     O35807   0.169  10.858  10.882  0.0382 -0.1521  0.0523
  272MOL0     C35808   0.052  10.778  10.850  0.1008 -0.3144  0.5436
  272MOL0     C35809  -0.068  10.843  10.914  0.3903 -0.3053  0.7229
  272MOL0     C35810  -0.208  10.774  10.892  0.4344  0.7377 -0.3555
  272MOL0     C35811  -0.317  10.863  10.950  0.2644 -0.4832  0.2161
  272MOL0     C35812  -0.449  10.813  10.878 -0.1625  0.3907  0.2704
  272MOL0     C35813  -0.571  10.859  10.952 -0.2486 -0.2789  0.4516
  272MOL0     C35814  -0.707  10.828  10.880  1.9237 -0.1836 -0.1098
  272MOL0     C35815  -0.767  10.934  10.795  0.2543  0.4333 -0.0930
  272MOL0    Cl35816  -0.925  10.889  10.735  0.1148  0.0825  0.1070
  272MOL0     C35817   0.409  10.881  10.891 -0.0327 -0.0225 -0.8319
  272MOL0     C35818   0.539  10.843  10.863  0.0379 -0.4990 -0.2344
  272MOL0     O35819   0.695  10.543  10.617  0.5884 -0.3992 -0.1328
  272MOL0     C35820   0.964  10.794  10.643 -0.1502 -0.3131  0.0976
  272MOL0     C35821   1.091  10.814  10.593 -1.2667  0.4722  0.4398
  272MOL0     N35822   1.686  10.632   9.970 -0.4161  0.1545 -0.3667
  272MOL0     N35823   1.768  10.535   9.965 -0.2955 -0.1231  0.5118
  272MOL0     C35824   2.873   9.969  10.435 -0.0082  0.2120  0.1843
  272MOL0     C35825   3.009  10.008  10.453 -0.3281 -0.0904  1.2331
  272MOL0     C35826   3.383  10.150  10.620 -0.3204  0.3220 -0.2207
  272MOL0     C35827   3.410  10.262  10.533  1.5702 -0.5412  0.0553
  272MOL0     C35828   3.517  10.338  10.536  0.3504  0.3339 -0.1206
  272MOL0     C35829   3.624  10.302  10.619  0.2104 -0.2330 -0.5949
  272MOL0     O35830   3.747  10.366  10.603  0.2304 -0.0755 -0.1967
  272MOL0     C35831   3.819  10.412  10.720  0.6858 -0.1119 -0.2278
  272MOL0     C35832   3.958  10.431  10.663 -0.2153  0.2718  0.6912
  272MOL0     C35833   4.072  10.455  10.758 -0.0356 -0.2719  0.3488
  272MOL0     C35834   4.132  10.600  10.736  0.3724  0.6503  1.4616
  272MOL0     C35835   4.027  10.701  10.761 -0.4359  0.3886 -0.5231
  272MOL0     C35836   3.930  10.766  10.779 -0.3142 -0.4971 -0.5420
  272MOL0     C35837   3.604  10.199  10.716  0.2481 -0.2805  0.1483
  272MOL0     C35838   3.480  10.125  10.721  0.0183 -0.2290 -0.3830
  272MOL0     H35839   2.966  10.202  10.732  1.2684 -2.0764  1.8570
  272MOL0     H35840   2.729  10.141  10.693 -2.1383 -2.5504 -1.9052
  272MOL0     H35841   2.592  10.173  10.414  1.4988 -1.7489 -2.2277
  272MOL0     H35842   2.514  10.123  10.578  0.1132 -0.1248  0.7087
  272MOL0     H35843   2.370   9.973  10.457  0.7309  1.3269  0.7862
  272MOL0     H35844   2.455  10.015  10.302  0.3509  0.6876  0.2847
  272MOL0     H35845   2.388  10.233  10.308  0.9032 -0.9158  0.5316
  272MOL0     H35846   2.311  10.229  10.462 -1.8043 -2.5783  1.1996
  272MOL0     H35847   2.220  10.074  10.216  0.8762 -0.3846  0.7968
  272MOL0     H35848   2.150  10.049  10.364 -3.3234  0.4886 -1.5300
  272MOL0     H35849   2.108  10.298  10.395  2.5967 -2.1264  2.0095
  272MOL0     H35850   2.020  10.209  10.269  0.1666 -0.8680 -0.6442
  272MOL0     H35851   2.192  10.306  10.085 -0.0975 -0.5365 -0.3057
  272MOL0     H35852   2.248  10.415  10.205  0.3379 -0.7933  1.8294
  272MOL0     H35853   2.065  10.556  10.198 -0.8299 -0.2801  0.7471
  272MOL0     H35854   2.086  10.489  10.033  1.0537  1.5817 -0.9631
  272MOL0     H35855   1.869  10.365  10.214 -0.1207  1.0853  1.0706
  272MOL0     H35856   1.907  10.322  10.058  1.2259 -0.3111  1.5235
  272MOL0     H35857   1.789  10.624  10.275 -3.2682  3.3751  0.6406
  272MOL0     H35858   1.508  10.799  10.072  1.5836  0.8371 -0.5608
  272MOL0     H35859   1.636  10.894  10.127  1.7465 -0.8510 -1.9677
  272MOL0     H35860   1.626  10.808  10.362 -1.6037  0.1014  1.7106
  272MOL0     H35861   1.520  10.681  10.310  3.5676 -1.4674 -1.2602
  272MOL0     H35862   1.459  10.971  10.307 -0.2165  0.8067 -0.3766
  272MOL0     H35863   1.354  10.849  10.226 -0.7988  1.4872  0.4675
  272MOL0     H35864   1.295  10.946  10.466 -2.7056 -0.9204  3.1941
  272MOL0     H35865   1.442  10.858  10.517  0.8321  1.3542 -0.2140
  272MOL0     H35866   1.134  10.513  10.449 -0.1298 -1.1628  3.4566
  272MOL0     H35867   0.915  10.480  10.501  3.4895 -1.3423 -0.7052
  272MOL0     H35868   0.468  10.613  10.633 -0.2662 -1.0922  0.3763
  272MOL0     H35869   0.231  10.652  10.724  0.1271  2.0199 -1.9769
  272MOL0     H35870   0.057  10.685  10.906  0.8887  1.5575  3.8132
  272MOL0     H35871   0.028  10.774  10.743  0.3205  3.0353  0.2465
  272MOL0     H35872  -0.073  10.943  10.870 -3.6109 -0.2854  0.8110
  272MOL0     H35873  -0.041  10.856  11.019  3.2840 -3.6159  0.5693
  272MOL0     H35874  -0.212  10.679  10.945 -0.2635  0.9189 -0.0766
  272MOL0     H35875  -0.218  10.766  10.784 -0.6257 -0.0687 -0.2043
  272MOL0     H35876  -0.338  10.842  11.055 -1.5547 -0.7737 -0.1633
  272MOL0     H35877  -0.287  10.968  10.943  1.4768 -0.9272 -2.4838
  272MOL0     H35878  -0.450  10.704  10.871 -0.8855  0.3352  1.0620
  272MOL0     H35879  -0.451  10.858  10.778 -2.2198 -0.0214  0.0803
  272MOL0     H35880  -0.555  10.966  10.968  1.0342 -0.4548  0.4150
  272MOL0     H35881  -0.582  10.808  11.048  2.5724 -0.8162  0.5655
  272MOL0     H35882  -0.706  10.735  10.823 -1.3592 -0.1087 -0.4791
  272MOL0     H35883  -0.787  10.812  10.952  2.7049  3.0846  1.7084
  272MOL0     H35884  -0.703  10.969  10.713 -3.0315  0.0053 -3.0989
  272MOL0     H35885  -0.782  11.027  10.850  1.7283  1.5066 -1.3951
  272MOL0     H35886   0.398  10.957  10.968  1.5609 -0.9546  0.3895
  272MOL0     H35887   0.623  10.895  10.907 -0.3366 -1.6526  1.9648
  272MOL0     H35888   0.925  10.882  10.693  2.9406  2.1460 -1.3973
  272MOL0     H35889   1.141  10.911  10.600  1.7180 -0.7512 -1.6577
  272MOL0     H35890   2.842   9.903  10.355  3.2241 -1.3603  0.0847
  272MOL0     H35891   3.083   9.967  10.386  0.8420 -0.6185  2.7974
  272MOL0     H35892   3.338  10.304  10.464  0.7193 -0.9842  0.6434
  272MOL0     H35893   3.522  10.422  10.467  0.1581  0.7759  0.3922
  272MOL0     H35894   3.812  10.337  10.800  0.3703 -1.3361 -1.3743
  272MOL0     H35895   3.776  10.503  10.762 -0.3869 -0.3629 -0.7410
  272MOL0     H35896   4.001  10.345  10.612 -1.6069 -1.0201  1.6257
  272MOL0     H35897   3.960  10.524  10.606  2.9279  0.5971  1.1439
  272MOL0     H35898   4.149  10.379  10.747  1.5333  1.3345 -0.1874
  272MOL0     H35899   4.050  10.459  10.865  1.1892  0.2646  0.5921
  272MOL0     H35900   4.219  10.619  10.799  2.9727  2.0111 -2.1999
  272MOL0     H35901   4.167  10.610  10.633 -1.1288 -1.3684  0.6800
  272MOL0     H35902   3.850  10.828  10.812  0.6999 -0.3580  1.8283
  272MOL0     H35903   3.696  10.169  10.765  1.0224  0.6903 -0.6543
  272MOL0     H35904   3.467  10.054  10.802 -2.1571  2.5609  1.9127
  273MOL0     O35905   2.167   4.065   8.330 -0.0792  0.2253 -0.0896
  273MOL0     C35906   2.231   4.130   8.249  1.1216 -0.4922 -0.1766
  273MOL0     O35907   2.171   4.228   8.171  0.3269 -0.2699 -0.1409
  273MOL0     C35908   2.034   4.251   8.153 -0.7062 -0.0299  0.2936
  273MOL0     C35909   2.004   4.345   8.048  1.2921  0.9270 -0.6070
  273MOL0     C35910   1.871   4.369   8.017  0.1084  0.1045  0.0045
  273MOL0     C35911   1.769   4.316   8.093  0.2294 -0.3942 -0.0615
  273MOL0     O35912   1.641   4.338   8.033 -0.5234 -0.1978 -0.7923
  273MOL0     C35913   1.529   4.270   8.097  0.4243 -0.0603  0.5380
  273MOL0     C35914   1.398   4.344   8.057  0.3625 -0.5850 -0.6430
  273MOL0     C35915   1.270   4.270   8.078  0.4759  0.3790 -0.5001
  273MOL0     C35916   1.156   4.353   8.028  1.0986  0.1417  0.9296
  273MOL0     C35917   1.021   4.282   8.054 -1.3796  0.1081  0.0286
  273MOL0     C35918   0.904   4.347   7.982 -0.4885  0.2283 -0.0125
  273MOL0     C35919   0.766   4.270   7.998 -0.4031 -0.2892 -0.3501
  273MOL0     C35920   0.656   4.360   7.936  0.7155 -0.2352 -0.4516
  273MOL0     N35921   0.536   4.283   7.894  0.3698  0.1231  0.1976
  273MOL0     C35922   0.421   4.250   7.969 -0.5019  0.6003 -0.8033
  273MOL0     C35923   0.346   4.169   7.887  0.1495  0.8030  0.1053
  273MOL0     C35924   0.224   4.092   7.929  0.8158 -0.0363  0.3394
  273MOL0     C35925   0.269   3.965   8.008 -0.2787  0.2406 -0.1266
  273MOL0     C35926   0.145   3.868   8.018  0.0054  0.1867  0.3305
  273MOL0     C35927   0.042   3.932   8.109 -0.7331  0.3052  0.5675
  273MOL0     O35928  -0.070   3.837   8.125  0.1245  0.1246  0.0883
  273MOL0     C35929  -0.173   3.867   8.210  0.1731 -0.0950 -0.9558
  273MOL0     C35930  -0.166   3.963   8.321 -0.5008  0.2476 -0.4906
  273MOL0     C35931  -0.274   3.976   8.413  0.2118  0.1618 -0.1727
  273MOL0     C35932  -0.395   3.909   8.392  0.0959 -0.7424  0.5353
  273MOL0     C35933  -0.510   3.923   8.487 -0.2204  0.5316  0.6164
  273MOL0     O35934  -0.614   3.836   8.468  0.0443  0.6704  0.2781
  273MOL0     C35935  -0.719   3.858   8.549 -0.1928  0.2022 -0.0688
  273MOL0     C35936  -0.710   3.848   8.692 -1.0591  1.0247 -0.1446
  273MOL0     C35937  -0.812   3.876   8.777 -0.0098 -0.3822  0.0514
  273MOL0     C35938  -0.933   3.909   8.725 -0.0782  0.4906  0.1885
  273MOL0     O35939  -1.035   3.918   8.821  0.1335  0.3602  0.3208
  273MOL0     C35940  -1.164   3.959   8.771  0.2054  0.9223 -0.6386
  273MOL0     C35941  -1.258   3.960   8.885 -0.2081 -0.7136 -0.2239
  273MOL0     C35942  -1.404   3.956   8.846  0.8189  0.8222  0.4085
  273MOL0     C35943  -1.498   3.970   8.970 -0.6658 -0.2685  0.3601
  273MOL0     C35944  -1.644   3.966   8.913  0.9245  0.2845 -0.2407
  273MOL0     C35945  -1.742   4.041   9.011  0.2161 -0.7966  0.2147
  273MOL0     C35946  -1.874   4.066   8.939 -0.3480  0.0518  0.4090
  273MOL0     C35947  -1.970   4.160   9.019  0.6435 -0.2959 -0.4365
  273MOL0    Cl35948  -2.025   4.087   9.173 -0.0793  0.4141 -0.5456
  273MOL0     C35949  -0.953   3.927   8.587 -0.7307 -0.4243 -0.4496
  273MOL0     C35950  -0.843   3.901   8.505 -0.0790 -0.1296  0.3518
  273MOL0     O35951  -0.505   4.008   8.573 -0.5873 -0.2137 -0.0292
  273MOL0     C35952  -0.402   3.819   8.286  0.1106  0.5691 -0.1097
  273MOL0     C35953  -0.296   3.793   8.205  0.3555  0.4264  0.4636
  273MOL0     N35954   0.422   4.163   7.757 -0.1899  0.1839 -0.9982
  273MOL0     N35955   0.535   4.227   7.772 -0.1974  0.0381 -0.3821
  273MOL0     C35956   1.796   4.220   8.191  0.4790 -0.4405 -0.3984
  273MOL0     C35957   1.930   4.191   8.226  0.1826  0.2917  0.4510
  273MOL0     C35958   2.363   4.085   8.220  0.1702  0.2284  0.1439
  273MOL0     C35959   2.437   4.158   8.118  0.4432 -0.4091  0.0685
  273MOL0     C35960   2.563   4.118   8.096 -0.2534 -0.5541 -0.6239
  273MOL0     C35961   2.629   4.009   8.164  0.5070 -0.5850  0.5490
  273MOL0     O35962   2.769   3.991   8.152  0.4420 -0.8171 -0.0648
  273MOL0     C35963   2.794   3.902   8.047  0.5786  0.0119 -0.1128
  273MOL0     C35964   2.938   3.918   7.989  0.2718 -0.2984  0.2198
  273MOL0     C35965   2.976   3.794   7.901 -0.5169 -0.4120 -0.4287
  273MOL0     C35966   3.124   3.798   7.855 -0.6424  0.6418  0.1010
  273MOL0     C35967   3.147   3.667   7.778 -0.6116 -0.5174  0.0573
  273MOL0     C35968   3.160   3.560   7.718 -0.3518 -0.4408 -0.1341
  273MOL0     C35969   2.555   3.928   8.248 -0.0127  0.2964  0.1058
  273MOL0     C35970   2.422   3.966   8.278 -0.7437 -0.1549  0.7830
  273MOL0     H35971   2.091   4.375   7.989  2.0993 -1.7499 -0.9246
  273MOL0     H35972   1.840   4.438   7.939 -0.4797 -1.1815 -0.9500
  273MOL0     H35973   1.534   4.269   8.206  1.2103  3.2506  0.6457
  273MOL0     H35974   1.521   4.169   8.058 -0.1742 -0.4120  1.5297
  273MOL0     H35975   1.408   4.368   7.951  1.9142  1.1621 -0.1520
  273MOL0     H35976   1.383   4.440   8.108  0.5024 -1.0746  0.3591
  273MOL0     H35977   1.259   4.238   8.182 -0.1955 -0.6475 -0.8668
  273MOL0     H35978   1.276   4.176   8.021  0.5376  1.0071 -1.5483
  273MOL0     H35979   1.157   4.452   8.075  2.3075  0.1427  0.9545
  273MOL0     H35980   1.175   4.363   7.920 -0.4130 -2.1855  0.4010
  273MOL0     H35981   1.002   4.276   8.161 -0.0306 -0.1021  0.2629
  273MOL0     H35982   1.020   4.175   8.028  3.5638 -0.0947 -0.2927
  273MOL0     H35983   0.926   4.354   7.875  1.7276 -1.8613  0.2211
  273MOL0     H35984   0.895   4.449   8.021 -2.5717  1.6327 -3.6581
  273MOL0     H35985   0.773   4.173   7.948 -2.7057 -2.3695  2.9679
  273MOL0     H35986   0.758   4.237   8.102 -1.0110 -2.7752 -1.1073
  273MOL0     H35987   0.698   4.414   7.851  0.7153 -1.0291 -0.9633
  273MOL0     H35988   0.617   4.423   8.016  0.9351 -2.0875  1.1724
  273MOL0     H35989   0.397   4.282   8.070 -4.5538 -3.8504  0.0044
  273MOL0     H35990   0.165   4.069   7.840  1.5885 -1.2908  0.1361
  273MOL0     H35991   0.161   4.155   7.993  1.0107  2.2864 -1.5784
  273MOL0     H35992   0.307   3.987   8.108 -2.8763 -0.2010  1.0419
  273MOL0     H35993   0.345   3.913   7.948 -1.1037 -2.9009  1.2996
  273MOL0     H35994   0.104   3.838   7.920 -2.2194  1.3802  0.8195
  273MOL0     H35995   0.172   3.779   8.075  0.7564  0.0382 -0.2412
  273MOL0     H35996  -0.004   4.020   8.064 -2.1377 -1.5686 -1.9242
  273MOL0     H35997   0.098   3.952   8.201  0.0466  0.0367  0.1590
  273MOL0     H35998  -0.063   3.995   8.333  1.2022 -2.9071 -4.3818
  273MOL0     H35999  -0.274   4.038   8.502 -0.1228 -2.0076  1.4181
  273MOL0     H36000  -0.614   3.815   8.732 -1.0107 -1.5132 -2.0691
  273MOL0     H36001  -0.808   3.877   8.885 -0.1228 -0.4097  0.0565
  273MOL0     H36002  -1.195   3.887   8.693  2.7393 -0.3179 -0.6063
  273MOL0     H36003  -1.146   4.055   8.723 -0.5443  0.6398 -1.5266
  273MOL0     H36004  -1.227   4.046   8.946  1.1209 -1.1016 -0.3245
  273MOL0     H36005  -1.235   3.876   8.951  3.0804 -2.6751 -3.4958
  273MOL0     H36006  -1.426   3.862   8.795 -1.1062  2.3624 -1.8335
  273MOL0     H36007  -1.442   4.033   8.778 -5.6069 -2.2391 -0.2535
  273MOL0     H36008  -1.489   3.878   9.028 -2.5399 -1.0413 -0.4790
  273MOL0     H36009  -1.476   4.063   9.022  0.6450 -1.1435  1.4257
  273MOL0     H36010  -1.699   3.871   8.906  0.8720  0.2772  0.2652
  273MOL0     H36011  -1.652   4.008   8.812 -2.7220 -0.6249 -0.4583
  273MOL0     H36012  -1.705   4.141   9.036  0.4103 -0.9218  0.4269
  273MOL0     H36013  -1.768   4.004   9.110 -3.2390  0.2112 -0.1691
  273MOL0     H36014  -1.849   4.114   8.844 -0.4685 -0.4670  0.1115
  273MOL0     H36015  -1.923   3.969   8.926  0.0655  0.0674 -1.7009
  273MOL0     H36016  -2.057   4.194   8.962  0.3114 -0.2057  0.1142
  273MOL0     H36017  -1.910   4.250   9.037 -2.8342  2.2423 -0.4521
  273MOL0     H36018  -1.039   3.950   8.526 -0.0527 -1.3048 -1.8007
  273MOL0     H36019  -0.859   3.900   8.397 -0.1810 -2.4152  0.3369
  273MOL0     H36020  -0.489   3.754   8.273  0.0384  1.0425 -2.2759
  273MOL0     H36021  -0.309   3.711   8.136 -3.6691  0.9251  0.3924
  273MOL0     H36022   1.723   4.162   8.247  1.3189 -0.4040  0.7767
  273MOL0     H36023   1.946   4.124   8.310 -0.3674 -1.2300 -0.6182
  273MOL0     H36024   2.398   4.249   8.074 -1.7726 -2.0257 -1.5477
  273MOL0     H36025   2.621   4.178   8.027  1.8768  2.1885  3.1095
  273MOL0     H36026   2.723   3.913   7.964  0.5064 -0.9681 -0.1976
  273MOL0     H36027   2.773   3.804   8.091 -0.9178  0.8841  1.2185
  273MOL0     H36028   2.942   4.010   7.930 -2.3614 -1.0421 -1.2979
  273MOL0     H36029   3.012   3.926   8.069 -1.8677  0.9999  2.1981
  273MOL0     H36030   2.914   3.784   7.811 -0.6676  1.0943 -0.5253
  273MOL0     H36031   2.950   3.707   7.960 -3.8600  1.1548  0.6441
  273MOL0     H36032   3.147   3.888   7.798 -1.6159  0.0388 -1.3258
  273MOL0     H36033   3.186   3.787   7.944 -1.0041 -2.3142  0.1029
  273MOL0     H36034   3.193   3.472   7.666  0.6558 -0.9791  1.3384
  273MOL0     H36035   2.617   3.847   8.285 -2.3332 -1.1588  1.0379
  273MOL0     H36036   2.365   3.904   8.346 -1.3075  1.9208  2.2950
  274MOL0     O36037   3.010  10.390   3.340 -0.2214 -0.4466 -0.5738
  274MOL0     C36038   3.002  10.273   3.316  0.4285  0.7704  0.7814
  274MOL0     O36039   2.891  10.199   3.320  0.4994 -0.0203 -0.5150
  274MOL0     C36040   2.768  10.261   3.322 -0.0273 -0.7863 -0.3443
  274MOL0     C36041   2.685  10.252   3.431 -0.2752 -1.0150 -0.0357
  274MOL0     C36042   2.564  10.326   3.428  0.1935 -0.5095  0.3099
  274MOL0     C36043   2.521  10.415   3.318 -0.3276 -1.0633 -0.2894
  274MOL0     O36044   2.405  10.492   3.322  0.6605  0.2985 -0.3254
  274MOL0     C36045   2.285  10.436   3.379 -0.2565  0.0558 -0.5152
  274MOL0     C36046   2.165  10.515   3.329 -0.6114 -1.0918 -0.0814
  274MOL0     C36047   2.024  10.462   3.361 -0.6206  1.0083 -0.2861
  274MOL0     C36048   1.922  10.567   3.317  0.6355  0.4039 -0.7069
  274MOL0     C36049   1.782  10.551   3.386 -0.4142 -0.1764  0.6698
  274MOL0     C36050   1.732  10.407   3.404 -0.8416 -0.0239  0.3165
  274MOL0     C36051   1.614  10.409   3.507  0.4563 -0.1102  0.4787
  274MOL0     C36052   1.536  10.284   3.479  0.6537  0.3856  0.0403
  274MOL0     N36053   1.446  10.249   3.593 -0.1665 -0.5794  0.6131
  274MOL0     C36054   1.370  10.340   3.668 -0.7056 -0.3475  0.5740
  274MOL0     C36055   1.297  10.263   3.751 -0.3020 -0.2341 -0.3274
  274MOL0     C36056   1.195  10.296   3.857  0.1127  1.3037 -0.2049
  274MOL0     C36057   1.055  10.248   3.800 -0.1322  0.4671  0.4384
  274MOL0     C36058   0.945  10.343   3.815  0.5589  0.9380 -0.3383
  274MOL0     C36059   0.963  10.469   3.727  0.6791 -1.4922  0.1854
  274MOL0     O36060   0.863  10.576   3.753  0.5774 -0.1914 -0.4891
  274MOL0     C36061   0.734  10.559   3.719  0.1374  0.6969 -0.6240
  274MOL0     C36062   0.694  10.461   3.630  0.7228 -0.9244  0.6018
  274MOL0     C36063   0.556  10.470   3.596 -0.5344 -0.0850  0.0287
  274MOL0     C36064   0.459  10.559   3.648 -0.1213 -0.2951  0.4768
  274MOL0     C36065   0.317  10.534   3.629 -0.0260 -0.0097 -0.1199
  274MOL0     O36066   0.234  10.620   3.691  0.9275 -0.5385  0.2062
  274MOL0     C36067   0.094  10.597   3.700  0.0831 -0.3870 -0.0205
  274MOL0     C36068   0.008  10.542   3.604 -0.3250 -0.1218  0.1019
  274MOL0     C36069  -0.129  10.525   3.633 -0.6101 -0.3740 -0.2964
  274MOL0     C36070  -0.188  10.580   3.748 -0.2470  0.1343  0.7822
  274MOL0     O36071  -0.317  10.581   3.777 -0.1616 -0.8004 -0.6569
  274MOL0     C36072  -0.418  10.548   3.680  0.2200  0.3123  0.2618
  274MOL0     C36073  -0.549  10.527   3.754 -0.2236  0.1609  0.1883
  274MOL0     C36074  -0.659  10.515   3.649  0.3316  0.6608  0.6814
  274MOL0     C36075  -0.794  10.484   3.715  0.6100  1.1850 -0.5958
  274MOL0     C36076  -0.912  10.470   3.610 -0.2482  0.6637  0.0155
  274MOL0     C36077  -1.051  10.530   3.649  0.3927  0.0614  0.3104
  274MOL0     C36078  -1.126  10.477   3.777  0.6631  0.0256  0.3466
  274MOL0     C36079  -1.279  10.512   3.766 -0.6480 -0.4542 -0.1889
  274MOL0    Cl36080  -1.368  10.479   3.622  0.2288 -0.1576  0.7676
  274MOL0     C36081  -0.100  10.625   3.850 -0.5033 -0.2439 -0.4771
  274MOL0     C36082   0.036  10.644   3.819  0.6531  0.5032  0.1189
  274MOL0     O36083   0.285  10.433   3.566 -0.2733 -0.0610  0.5226
  274MOL0     C36084   0.513  10.655   3.738  0.0680  0.1274 -1.1571
  274MOL0     C36085   0.643  10.657   3.772 -0.3431  0.0085 -0.9734
  274MOL0     N36086   1.336  10.131   3.730 -0.0605  0.0090  0.2761
  274MOL0     N36087   1.426  10.126   3.639  0.1482 -0.0195  0.3265
  274MOL0     C36088   2.612  10.425   3.212 -0.0192 -0.3545 -0.3921
  274MOL0     C36089   2.727  10.349   3.218 -0.3371  0.3203  0.2272
  274MOL0     C36090   3.127  10.206   3.280 -0.4430  0.6655  0.4483
  274MOL0     C36091   3.247  10.272   3.293  0.5255  1.4838  0.2827
  274MOL0     C36092   3.372  10.216   3.261 -0.5847  0.5877 -0.1388
  274MOL0     C36093   3.383  10.083   3.232  0.0143  0.0803  0.9528
  274MOL0     O36094   3.505  10.025   3.223 -0.7305 -0.6206  0.2671
  274MOL0     C36095   3.526   9.908   3.132 -1.0551  0.0570 -0.8226
  274MOL0     C36096   3.677   9.879   3.114  0.7476 -0.4130 -0.4298
  274MOL0     C36097   3.748   9.985   3.035 -0.4484 -0.0803 -0.3186
  274MOL0     C36098   3.892   9.947   3.001  0.6088  0.4427  0.1019
  274MOL0     C36099   3.975   9.907   3.112  0.0576 -1.3278 -0.0759
  274MOL0     C36100   4.054   9.856   3.189  0.0780 -0.2221 -1.0432
  274MOL0     C36101   3.263  10.015   3.208 -0.5150  0.1755  0.0792
  274MOL0     C36102   3.139  10.069   3.238 -0.0441  0.2737  0.6737
  274MOL0     H36103   2.703  10.199   3.524  1.6134  1.5718  1.1962
  274MOL0     H36104   2.507  10.328   3.520  0.5080 -1.0474  0.5258
  274MOL0     H36105   2.279  10.446   3.488  2.1605 -1.3954 -0.1680
  274MOL0     H36106   2.279  10.330   3.351 -0.9787 -0.6110  1.9260
  274MOL0     H36107   2.175  10.540   3.222 -0.3488  1.8865  0.5391
  274MOL0     H36108   2.190  10.611   3.376 -1.4246 -1.4645  1.1407
  274MOL0     H36109   2.020  10.436   3.467 -2.2195 -0.2913 -0.6324
  274MOL0     H36110   2.008  10.372   3.301  0.0908 -0.9187  2.2660
  274MOL0     H36111   1.957  10.667   3.344 -2.6090  1.2431  1.0158
  274MOL0     H36112   1.915  10.570   3.208  2.6787 -0.3636 -0.9103
  274MOL0     H36113   1.709  10.612   3.332  0.4725  2.7790  2.5881
  274MOL0     H36114   1.781  10.594   3.486  1.7300  0.9343  0.2850
  274MOL0     H36115   1.807  10.345   3.453 -1.0269 -0.0076  0.6212
  274MOL0     H36116   1.719  10.371   3.302 -0.9910  0.6290  0.0961
  274MOL0     H36117   1.656  10.398   3.608 -0.0897  1.1813  0.8730
  274MOL0     H36118   1.547  10.495   3.499 -1.3334 -1.6412 -4.4567
  274MOL0     H36119   1.601  10.199   3.456 -2.0289 -2.2804  1.5128
  274MOL0     H36120   1.476  10.297   3.389  2.1976  1.1153 -0.9146
  274MOL0     H36121   1.371  10.448   3.659  1.7383 -0.4737 -2.0999
  274MOL0     H36122   1.200  10.399   3.894  1.5526  1.6438 -1.2542
  274MOL0     H36123   1.202  10.224   3.940 -0.3649 -0.6752 -1.7841
  274MOL0     H36124   1.024  10.153   3.844 -0.5266  0.2868 -0.2123
  274MOL0     H36125   1.066  10.239   3.691 -0.3354 -3.0398  0.5910
  274MOL0     H36126   0.851  10.289   3.801  0.4042  0.5548  1.8444
  274MOL0     H36127   0.947  10.364   3.923  1.3413 -0.0172 -0.1515
  274MOL0     H36128   0.961  10.441   3.621 -1.8535  1.3399 -0.6480
  274MOL0     H36129   1.062  10.510   3.748  1.0425 -2.5121  0.5370
  274MOL0     H36130   0.762  10.383   3.599  1.0487 -0.9117  1.2522
  274MOL0     H36131   0.524  10.409   3.512 -1.8428  1.3276 -0.5412
  274MOL0     H36132   0.046  10.526   3.504 -2.7727 -2.0827 -0.6095
  274MOL0     H36133  -0.197  10.476   3.564 -1.0456  2.7403 -2.3076
  274MOL0     H36134  -0.403  10.456   3.624  1.1185  0.4402  0.2802
  274MOL0     H36135  -0.440  10.616   3.597 -1.2163 -2.0387 -1.3803
  274MOL0     H36136  -0.573  10.609   3.823 -3.1157 -1.0362  0.8013
  274MOL0     H36137  -0.543  10.429   3.803 -2.5551 -1.2555 -2.1071
  274MOL0     H36138  -0.638  10.428   3.585  1.4453  0.6587  1.0280
  274MOL0     H36139  -0.673  10.612   3.599  0.5174  1.3863  1.9993
  274MOL0     H36140  -0.781  10.390   3.768  0.3554  1.1974 -0.5099
  274MOL0     H36141  -0.811  10.565   3.786 -1.7243  0.0836  0.2149
  274MOL0     H36142  -0.927  10.362   3.603 -3.7224  0.9384  1.5850
  274MOL0     H36143  -0.875  10.503   3.512 -1.9095 -1.5487 -1.4539
  274MOL0     H36144  -1.114  10.508   3.562  3.6072 -0.1362 -2.1765
  274MOL0     H36145  -1.042  10.639   3.654 -0.5159  0.1090  1.3566
  274MOL0     H36146  -1.108  10.369   3.782  1.9978  0.0194 -2.4819
  274MOL0     H36147  -1.083  10.516   3.869 -2.4806 -2.0736  2.9202
  274MOL0     H36148  -1.283  10.621   3.760  1.5162 -0.4238 -2.0364
  274MOL0     H36149  -1.330  10.478   3.857  0.4769  1.6800  1.3194
  274MOL0     H36150  -0.133  10.662   3.946  2.3247 -0.1516  0.5514
  274MOL0     H36151   0.102  10.675   3.899  0.2959  1.3643  0.0909
  274MOL0     H36152   0.444  10.722   3.788 -1.8226 -1.9861 -0.8137
  274MOL0     H36153   0.675  10.742   3.831 -1.8762 -0.1150  0.1045
  274MOL0     H36154   2.593  10.492   3.129 -1.7430  0.6551  0.7496
  274MOL0     H36155   2.789  10.385   3.136  1.1540  1.0289  1.6043
  274MOL0     H36156   3.250  10.375   3.327  1.6436  0.6119  3.0179
  274MOL0     H36157   3.466  10.269   3.268 -0.8041  1.2520 -1.8526
  274MOL0     H36158   3.484   9.938   3.036 -0.7582  1.4328 -0.5532
  274MOL0     H36159   3.477   9.822   3.178 -1.8404 -0.0787 -1.8713
  274MOL0     H36160   3.722   9.874   3.214  0.8091  1.1314 -0.3523
  274MOL0     H36161   3.678   9.788   3.054 -1.6546  0.8340 -2.5296
  274MOL0     H36162   3.745  10.088   3.069  3.0442 -0.2056  0.7749
  274MOL0     H36163   3.708   9.989   2.933  0.1378  2.7884 -0.5194
  274MOL0     H36164   3.893   9.870   2.924 -2.0130 -0.0941  0.4955
  274MOL0     H36165   3.936  10.035   2.954 -0.0818  0.1372 -1.1490
  274MOL0     H36166   4.115   9.811   3.265  0.5988  1.3708 -0.4617
  274MOL0     H36167   3.273   9.914   3.171  0.3347  0.3906 -0.3133
  274MOL0     H36168   3.045  10.015   3.234  1.2320 -2.0876  0.5123
  275MOL0     O36169   0.215   6.617   5.082 -0.6458 -0.2802  0.6085
  275MOL0     C36170   0.250   6.596   5.201  0.6060  0.1146 -0.5632
  275MOL0     O36171   0.376   6.559   5.239 -0.6281 -0.0726  0.2165
  275MOL0     C36172   0.478   6.561   5.140  0.7139 -1.0346 -0.3050
  275MOL0     C36173   0.576   6.463   5.153  0.2144 -0.1436  0.0952
  275MOL0     C36174   0.684   6.454   5.064  0.3866  0.1607 -0.7394
  275MOL0     C36175   0.698   6.541   4.954  0.0207  0.2787  0.2419
  275MOL0     O36176   0.789   6.534   4.862 -0.0176  0.9062  0.4604
  275MOL0     C36177   0.912   6.461   4.880 -0.6080 -0.6230 -0.1308
  275MOL0     C36178   0.994   6.527   4.762 -0.1580  0.0627 -0.0406
  275MOL0     C36179   1.131   6.465   4.747  0.4832 -0.3977 -0.2348
  275MOL0     C36180   1.220   6.471   4.877 -0.4658  0.7091  0.0742
  275MOL0     C36181   1.366   6.429   4.865 -0.2713  0.4027  0.2540
  275MOL0     C36182   1.381   6.307   4.788  0.4418  0.1965 -0.6774
  275MOL0     C36183   1.526   6.260   4.775  0.0504 -0.0678  0.5769
  275MOL0     C36184   1.619   6.360   4.708 -0.2726 -1.0462  1.1756
  275MOL0     N36185   1.561   6.428   4.593  0.1746  0.0276 -0.3745
  275MOL0     C36186   1.568   6.565   4.569  0.7847  0.0924 -0.0861
  275MOL0     C36187   1.524   6.587   4.441  0.2022 -0.3165  0.4518
  275MOL0     C36188   1.504   6.715   4.367 -0.4776 -0.1242 -0.4009
  275MOL0     C36189   1.359   6.730   4.308 -0.0493  0.7470  0.2267
  275MOL0     C36190   1.253   6.737   4.417 -0.1939  0.3087 -1.0575
  275MOL0     C36191   1.132   6.809   4.371  0.0532  0.5900  0.9896
  275MOL0     O36192   1.076   6.724   4.272 -0.3365  0.9176  0.7396
  275MOL0     C36193   0.950   6.752   4.234  1.3189 -0.5125  0.4424
  275MOL0     C36194   0.843   6.804   4.307 -0.1404  0.5864  0.4244
  275MOL0     C36195   0.714   6.818   4.254 -1.2038 -0.0927  0.3352
  275MOL0     C36196   0.682   6.791   4.128  0.1957 -0.4849 -0.8361
  275MOL0     C36197   0.544   6.816   4.080  0.0954 -0.5741  0.9463
  275MOL0     O36198   0.442   6.839   4.170 -0.3466  0.2163  0.2043
  275MOL0     C36199   0.313   6.833   4.145 -0.8310 -0.2189  0.2624
  275MOL0     C36200   0.233   6.850   4.258 -0.3623  1.1498 -0.5306
  275MOL0     C36201   0.092   6.844   4.255  0.4560 -0.0099  0.3803
  275MOL0     C36202   0.016   6.833   4.130 -1.0905 -0.2368 -0.0763
  275MOL0     O36203  -0.120   6.845   4.111  0.5012  0.8988 -1.0019
  275MOL0     C36204  -0.204   6.878   4.227 -0.9125  0.1897 -0.1722
  275MOL0     C36205  -0.351   6.854   4.190  0.1357 -0.7216 -0.1380
  275MOL0     C36206  -0.434   6.915   4.299  0.7043 -1.1471  1.3789
  275MOL0     C36207  -0.577   6.919   4.266  0.9332  1.2069  0.0489
  275MOL0     C36208  -0.660   6.981   4.382 -0.7137 -0.1537 -0.1401
  275MOL0     C36209  -0.693   6.884   4.499 -0.0691 -0.6588 -0.6422
  275MOL0     C36210  -0.838   6.843   4.485  0.6247 -0.1468  0.2461
  275MOL0     C36211  -0.887   6.765   4.607 -0.6474 -0.1461 -0.9614
  275MOL0    Cl36212  -1.060   6.716   4.594 -0.3315  0.4342 -0.0747
  275MOL0     C36213   0.103   6.828   4.015 -0.4974  0.8219 -0.1270
  275MOL0     C36214   0.243   6.817   4.022 -0.3920  0.8947 -0.4683
  275MOL0     O36215   0.527   6.789   3.959 -0.3805 -0.0751  0.4171
  275MOL0     C36216   0.784   6.734   4.048  0.1139  0.1281  0.0969
  275MOL0     C36217   0.910   6.704   4.102  0.0282  0.5504 -0.2385
  275MOL0     N36218   1.487   6.462   4.398 -0.5794  0.1515 -0.1360
  275MOL0     N36219   1.497   6.371   4.486 -1.2177  0.0282 -0.6830
  275MOL0     C36220   0.601   6.639   4.942 -0.6495  0.4272 -0.0963
  275MOL0     C36221   0.502   6.658   5.036  0.0811 -0.0219  0.7419
  275MOL0     C36222   0.135   6.596   5.307 -0.0706  0.5526 -0.3561
  275MOL0     C36223   0.002   6.613   5.277 -0.3995  0.4238  0.1219
  275MOL0     C36224  -0.101   6.601   5.371  0.3506 -0.1392 -0.0205
  275MOL0     C36225  -0.062   6.561   5.499  0.2059 -0.4327 -0.8611
  275MOL0     O36226  -0.162   6.536   5.598  0.1606  0.0846  0.5714
  275MOL0     C36227  -0.134   6.594   5.723 -0.7360  0.3876 -0.9148
  275MOL0     C36228  -0.268   6.620   5.797 -0.0572  0.6336 -0.3387
  275MOL0     C36229  -0.362   6.492   5.818 -0.6603 -0.6345  0.0247
  275MOL0     C36230  -0.489   6.544   5.885 -0.8811 -0.8712 -0.3644
  275MOL0     C36231  -0.577   6.421   5.900  0.0492  0.3883  0.0383
  275MOL0     C36232  -0.633   6.319   5.926 -0.7198  0.2925 -0.2127
  275MOL0     C36233   0.076   6.556   5.534  0.9570 -0.5310  0.0899
  275MOL0     C36234   0.173   6.571   5.439 -0.2328 -0.6676  0.7149
  275MOL0     H36235   0.582   6.389   5.232  0.8109 -0.7794 -0.5303
  275MOL0     H36236   0.768   6.387   5.081 -1.7106 -1.7782  3.3423
  275MOL0     H36237   0.904   6.353   4.863 -0.2635 -0.4208 -1.6885
  275MOL0     H36238   0.970   6.482   4.971  0.3603  1.4040 -1.1635
  275MOL0     H36239   1.004   6.634   4.780  0.1028 -0.4903  4.0123
  275MOL0     H36240   0.946   6.503   4.666  0.1847 -0.8692  0.0095
  275MOL0     H36241   1.188   6.529   4.678 -0.1228  1.0527  0.5504
  275MOL0     H36242   1.128   6.362   4.710 -1.0634  0.8501 -4.1157
  275MOL0     H36243   1.230   6.575   4.911  0.4520  1.5916 -2.6306
  275MOL0     H36244   1.186   6.418   4.966 -1.4183  1.5876  0.2426
  275MOL0     H36245   1.395   6.409   4.969  0.3762 -0.3308 -0.0581
  275MOL0     H36246   1.429   6.504   4.815  0.2539  0.4142  0.9185
  275MOL0     H36247   1.343   6.328   4.687 -0.8460 -0.3547 -0.3211
  275MOL0     H36248   1.328   6.227   4.839  1.1426 -0.2598 -0.6559
  275MOL0     H36249   1.575   6.216   4.862 -0.4266 -0.0717  0.8502
  275MOL0     H36250   1.518   6.179   4.701  0.6402 -1.9531  2.4828
  275MOL0     H36251   1.697   6.296   4.666 -0.3188  0.2071 -0.9603
  275MOL0     H36252   1.652   6.430   4.786 -1.1460 -0.6834  1.2313
  275MOL0     H36253   1.615   6.637   4.635 -0.1730  0.1588  0.5325
  275MOL0     H36254   1.579   6.728   4.289 -0.4086 -0.3586 -0.3743
  275MOL0     H36255   1.524   6.795   4.440  4.6974 -3.4462  2.5011
  275MOL0     H36256   1.340   6.648   4.239 -0.4869  3.2242 -2.7860
  275MOL0     H36257   1.354   6.822   4.249 -4.7189 -0.5943 -1.8682
  275MOL0     H36258   1.228   6.636   4.448 -0.4080  0.9065  0.8544
  275MOL0     H36259   1.292   6.780   4.510 -2.1252 -2.5976  1.2610
  275MOL0     H36260   1.150   6.908   4.327  0.0430  0.6037  1.0163
  275MOL0     H36261   1.064   6.831   4.455  0.1696  2.1666  0.6980
  275MOL0     H36262   0.866   6.833   4.409 -2.0636  2.5617  0.3941
  275MOL0     H36263   0.641   6.875   4.311 -0.7807  0.2637  0.5250
  275MOL0     H36264   0.284   6.863   4.353 -0.4704  0.6496 -0.3979
  275MOL0     H36265   0.044   6.857   4.351 -0.1769 -0.9293  0.2030
  275MOL0     H36266  -0.190   6.984   4.250 -2.4005  0.5042 -0.6225
  275MOL0     H36267  -0.187   6.809   4.310  0.0709  2.0565  1.2504
  275MOL0     H36268  -0.379   6.749   4.179  1.2227 -0.9883 -0.4832
  275MOL0     H36269  -0.363   6.900   4.092  1.1366  1.8551  0.8502
  275MOL0     H36270  -0.394   7.010   4.335  0.5251 -0.6564  0.3301
  275MOL0     H36271  -0.412   6.863   4.393  2.2899 -2.5381  0.3038
  275MOL0     H36272  -0.603   6.983   4.180  1.1234  2.5604  0.9625
  275MOL0     H36273  -0.610   6.818   4.240 -1.3198  2.0897 -0.7799
  275MOL0     H36274  -0.754   7.023   4.346 -0.8203 -0.2385  0.0369
  275MOL0     H36275  -0.605   7.067   4.420  1.4558 -0.1162 -3.0242
  275MOL0     H36276  -0.667   6.945   4.586 -0.5694 -0.1900 -0.8102
  275MOL0     H36277  -0.636   6.791   4.510 -0.3414 -0.7978 -0.3657
  275MOL0     H36278  -0.906   6.925   4.462  3.0432  1.8026 -0.3941
  275MOL0     H36279  -0.837   6.773   4.401  5.3770  0.6374 -0.6237
  275MOL0     H36280  -0.876   6.819   4.702  0.4195  0.2833 -1.3078
  275MOL0     H36281  -0.815   6.684   4.618 -1.2634 -0.5458  0.2702
  275MOL0     H36282   0.050   6.823   3.920 -2.0559  2.2527  0.6253
  275MOL0     H36283   0.294   6.785   3.932 -1.6111  1.4143 -1.3602
  275MOL0     H36284   0.777   6.721   3.940 -1.6564 -0.0422  0.2158
  275MOL0     H36285   0.984   6.660   4.036  1.1622  0.5626  0.9705
  275MOL0     H36286   0.618   6.708   4.859  2.0035 -0.9808 -0.8270
  275MOL0     H36287   0.437   6.744   5.025  0.2414 -0.0591 -0.7417
  275MOL0     H36288  -0.021   6.628   5.172  0.3828 -1.8591 -0.4330
  275MOL0     H36289  -0.209   6.603   5.360  0.2274  0.0982  1.1023
  275MOL0     H36290  -0.074   6.683   5.702  0.7972 -0.9529 -2.5849
  275MOL0     H36291  -0.072   6.522   5.778  0.1186  2.0216  0.3584
  275MOL0     H36292  -0.240   6.663   5.893 -1.4757 -0.8096  0.7750
  275MOL0     H36293  -0.333   6.684   5.735  0.2476  1.4292  0.1478
  275MOL0     H36294  -0.314   6.415   5.879  0.0827  1.0097  1.6221
  275MOL0     H36295  -0.384   6.451   5.719 -2.6933  1.8753 -0.6630
  275MOL0     H36296  -0.477   6.586   5.985  0.0614  1.0085 -1.2080
  275MOL0     H36297  -0.537   6.615   5.816 -1.8585 -3.3641 -2.4028
  275MOL0     H36298  -0.686   6.230   5.955 -1.3324  0.8325  0.3581
  275MOL0     H36299   0.103   6.527   5.635  3.4659 -0.9391 -0.6083
  275MOL0     H36300   0.278   6.563   5.464  0.2428 -0.3564 -1.0559
  276MOL0     O36301   1.674   4.566   7.241  0.0892  1.0867 -0.0250
  276MOL0     C36302   1.697   4.682   7.206  0.4730 -0.3202  0.2084
  276MOL0     O36303   1.825   4.735   7.189  0.1335  0.4212 -1.0020
  276MOL0     C36304   1.933   4.654   7.225 -0.4259  0.1510 -0.7923
  276MOL0     C36305   2.033   4.635   7.133  0.0846 -0.2325 -0.3060
  276MOL0     C36306   2.139   4.546   7.165  0.6636 -0.4196 -0.6972
  276MOL0     C36307   2.147   4.467   7.283 -0.0846 -0.2535  0.2493
  276MOL0     O36308   2.245   4.379   7.314 -0.0838 -0.1016 -0.1863
  276MOL0     C36309   2.333   4.341   7.205 -0.1664 -0.0905 -0.5883
  276MOL0     C36310   2.403   4.206   7.242  0.1426 -0.3832 -0.0928
  276MOL0     C36311   2.497   4.162   7.130 -0.4110 -0.4402  0.2797
  276MOL0     C36312   2.556   4.025   7.141 -0.2753 -0.5955  0.3243
  276MOL0     C36313   2.640   4.007   7.006  0.0642  0.2532 -0.2072
  276MOL0     C36314   2.665   3.860   6.973 -0.6174  0.4987 -0.7243
  276MOL0     C36315   2.803   3.836   6.912  0.0811  0.2766  0.5098
  276MOL0     C36316   2.817   3.685   6.907 -0.6314  0.3014  0.0448
  276MOL0     N36317   2.954   3.634   6.868  0.1361  0.2491 -0.6789
  276MOL0     C36318   2.995   3.585   6.746 -0.0730 -0.3381 -0.6534
  276MOL0     C36319   3.128   3.563   6.773  0.3586  0.5733  0.5223
  276MOL0     C36320   3.214   3.491   6.676 -0.3541 -0.0576 -0.1052
  276MOL0     C36321   3.278   3.561   6.558  0.0770  0.4248 -0.3605
  276MOL0     C36322   3.321   3.703   6.591  0.4816  0.1094  0.5284
  276MOL0     C36323   3.379   3.761   6.467  0.0148  0.2776 -0.6131
  276MOL0     O36324   3.283   3.763   6.358  0.0298 -0.0358  0.4231
  276MOL0     C36325   3.181   3.856   6.368  0.1059 -0.0501 -0.3744
  276MOL0     C36326   3.055   3.814   6.403  0.7469 -1.6101 -0.4703
  276MOL0     C36327   2.953   3.911   6.412  0.7717  0.0214  0.2841
  276MOL0     C36328   2.973   4.043   6.375  0.0786 -0.7631  0.1452
  276MOL0     C36329   2.855   4.134   6.391 -0.9874  0.6456  0.2349
  276MOL0     O36330   2.743   4.075   6.421  0.1262  0.1197  0.2668
  276MOL0     C36331   2.629   4.154   6.457 -0.0202  1.0478  0.2149
  276MOL0     C36332   2.564   4.127   6.582 -0.7648  0.5495  0.6961
  276MOL0     C36333   2.456   4.188   6.624 -0.4775 -0.5596  0.1422
  276MOL0     C36334   2.376   4.267   6.537  0.0250  0.0019 -0.5267
  276MOL0     O36335   2.252   4.328   6.567 -0.3548 -0.0648 -0.2789
  276MOL0     C36336   2.188   4.282   6.683  0.0601 -0.1594 -0.4493
  276MOL0     C36337   2.048   4.352   6.684 -0.1806 -0.1378  0.4138
  276MOL0     C36338   1.982   4.330   6.822  0.3584 -1.2290  0.1012
  276MOL0     C36339   1.855   4.426   6.829 -0.7584 -0.1370  0.1366
  276MOL0     C36340   1.753   4.395   6.937 -0.4997  0.9091 -0.0504
  276MOL0     C36341   1.622   4.469   6.935 -0.9799 -0.0776 -0.4173
  276MOL0     C36342   1.524   4.409   6.832  0.4240 -0.6631 -0.2196
  276MOL0     C36343   1.426   4.513   6.777  0.2240 -0.7691 -0.7674
  276MOL0    Cl36344   1.274   4.445   6.707 -0.7136 -0.0810  0.2418
  276MOL0     C36345   2.432   4.293   6.412 -0.6177 -0.4130  1.0330
  276MOL0     C36346   2.561   4.246   6.378  0.0159 -1.1096 -0.3763
  276MOL0     O36347   2.877   4.256   6.385 -0.0063  0.0417 -0.1093
  276MOL0     C36348   3.097   4.083   6.322 -0.0204 -0.1384  1.0494
  276MOL0     C36349   3.200   3.990   6.330  0.8616  0.8522  0.1231
  276MOL0     N36350   3.167   3.599   6.891 -0.6389  0.1943 -0.5520
  276MOL0     N36351   3.065   3.639   6.950 -0.4100 -0.2552 -0.2491
  276MOL0     C36352   2.046   4.492   7.377  0.4516 -0.1817 -0.5173
  276MOL0     C36353   1.940   4.586   7.352 -0.3815 -0.5430  0.4475
  276MOL0     C36354   1.582   4.771   7.174  0.4348  0.3054  0.4199
  276MOL0     C36355   1.449   4.719   7.187  0.6426  0.4527  0.7889
  276MOL0     C36356   1.343   4.799   7.159 -0.4999 -0.8768 -0.4287
  276MOL0     C36357   1.359   4.934   7.109  0.7434 -0.3401  0.4977
  276MOL0     O36358   1.256   5.021   7.089 -1.4119  0.1050  0.5759
  276MOL0     C36359   1.127   4.975   7.092  0.6287  0.2000  0.0189
  276MOL0     C36360   1.089   5.015   7.241 -0.1361 -0.5576 -0.2752
  276MOL0     C36361   0.935   5.029   7.252  0.2744  0.7616  0.2847
  276MOL0     C36362   0.850   4.905   7.247 -0.1624 -0.4624 -0.3462
  276MOL0     C36363   0.714   4.933   7.269 -0.3275 -1.2417 -0.2514
  276MOL0     C36364   0.603   4.960   7.311  0.0762  0.2823  0.2750
  276MOL0     C36365   1.486   4.985   7.110 -0.1947  0.7072 -0.0765
  276MOL0     C36366   1.603   4.907   7.135  0.1887 -0.2881  0.5222
  276MOL0     H36367   2.042   4.690   7.040  0.0892  1.4160  0.6216
  276MOL0     H36368   2.215   4.555   7.088 -2.8863  0.8890 -4.4492
  276MOL0     H36369   2.411   4.414   7.183 -0.3138 -0.4450 -2.4711
  276MOL0     H36370   2.276   4.320   7.114 -0.5540 -0.4978 -0.2581
  276MOL0     H36371   2.334   4.126   7.267 -2.0677  1.0801 -1.2358
  276MOL0     H36372   2.455   4.223   7.337 -0.3437  1.5293 -0.1325
  276MOL0     H36373   2.577   4.236   7.124  0.0939 -0.8304  1.7205
  276MOL0     H36374   2.440   4.162   7.037  0.2953 -0.6974 -0.1682
  276MOL0     H36375   2.623   4.020   7.228  3.0344  1.9174 -1.8381
  276MOL0     H36376   2.473   3.955   7.154 -2.7893  2.0734 -0.4339
  276MOL0     H36377   2.738   4.051   7.026  0.4984 -0.0768 -1.4980
  276MOL0     H36378   2.612   4.057   6.913  0.6426  2.0745  0.5568
  276MOL0     H36379   2.588   3.838   6.899 -0.7914 -0.4733 -0.2689
  276MOL0     H36380   2.651   3.801   7.064 -0.0628 -0.0035 -0.9613
  276MOL0     H36381   2.805   3.857   6.804  0.6641 -2.5790 -0.1129
  276MOL0     H36382   2.886   3.877   6.971  0.0053  0.2010  0.6665
  276MOL0     H36383   2.737   3.639   6.849  0.1138 -1.7428  0.5495
  276MOL0     H36384   2.800   3.636   7.004  1.3621 -0.6778 -0.0525
  276MOL0     H36385   2.939   3.567   6.656  2.3078 -2.9290 -1.7729
  276MOL0     H36386   3.156   3.406   6.638 -0.6876  0.7410 -1.4470
  276MOL0     H36387   3.294   3.446   6.736 -0.2967  0.3617  0.1370
  276MOL0     H36388   3.203   3.548   6.479 -0.4030 -0.4664  0.2238
  276MOL0     H36389   3.363   3.499   6.527  0.0006 -1.5886  2.9272
  276MOL0     H36390   3.240   3.769   6.623 -0.1792 -1.1356  1.5154
  276MOL0     H36391   3.393   3.707   6.673  1.7855  2.7664 -0.6211
  276MOL0     H36392   3.465   3.697   6.446  0.1435  0.0869  0.4186
  276MOL0     H36393   3.426   3.860   6.475  1.7152 -0.5408  0.0676
  276MOL0     H36394   3.039   3.707   6.416 -2.4618 -1.1156  0.5977
  276MOL0     H36395   2.852   3.880   6.436  0.2608 -0.7360 -2.4586
  276MOL0     H36396   2.616   4.053   6.641  1.1024  0.4561 -0.9552
  276MOL0     H36397   2.425   4.172   6.726  0.8910  0.2909  0.7228
  276MOL0     H36398   2.229   4.307   6.781 -0.9183  2.9601 -0.7240
  276MOL0     H36399   2.160   4.176   6.673 -2.6619  0.3405  0.9060
  276MOL0     H36400   1.988   4.307   6.605 -1.3643  1.2658  0.4847
  276MOL0     H36401   2.053   4.458   6.660  1.1504 -0.2006  0.3345
  276MOL0     H36402   2.057   4.346   6.900  1.9767  0.1408 -1.6579
  276MOL0     H36403   1.955   4.224   6.825  1.0672 -1.3927  1.1581
  276MOL0     H36404   1.882   4.531   6.842 -0.3045  0.2338 -3.0766
  276MOL0     H36405   1.809   4.407   6.732  1.1719  0.7985 -1.0280
  276MOL0     H36406   1.801   4.414   7.033 -0.4459  1.9949 -0.2799
  276MOL0     H36407   1.735   4.287   6.927  0.2436  0.8194 -0.5501
  276MOL0     H36408   1.632   4.577   6.930  2.9796 -0.3400 -2.2556
  276MOL0     H36409   1.579   4.456   7.035  0.2086  3.2222  0.6472
  276MOL0     H36410   1.579   4.379   6.743 -1.1971 -0.1170 -1.4626
  276MOL0     H36411   1.461   4.333   6.881  0.7363  0.1628  1.5557
  276MOL0     H36412   1.473   4.575   6.700  3.8544 -1.0864  0.9632
  276MOL0     H36413   1.404   4.585   6.856  0.1792  0.8199 -2.1621
  276MOL0     H36414   2.382   4.351   6.336  1.1376  0.1396  0.2498
  276MOL0     H36415   2.601   4.282   6.284  1.4366 -0.2011  0.5319
  276MOL0     H36416   3.113   4.183   6.282 -3.7465  0.2715  0.1373
  276MOL0     H36417   3.301   4.026   6.317 -0.5248  4.7536 -1.4263
  276MOL0     H36418   2.053   4.426   7.463  0.0415  1.4963  0.8789
  276MOL0     H36419   1.874   4.608   7.435  2.0493  0.5062  2.2218
  276MOL0     H36420   1.440   4.623   7.237  1.7840 -0.3024 -0.4094
  276MOL0     H36421   1.246   4.752   7.171 -1.2925  0.6379 -0.5638
  276MOL0     H36422   1.111   4.869   7.071 -0.2917  0.8033 -2.7873
  276MOL0     H36423   1.066   5.025   7.017  0.8707  3.4443  1.8140
  276MOL0     H36424   1.125   4.933   7.306 -3.9108 -1.8061  0.4794
  276MOL0     H36425   1.136   5.109   7.271  1.9672 -1.5673 -0.1959
  276MOL0     H36426   0.899   5.100   7.177 -1.8525 -0.5192  0.0228
  276MOL0     H36427   0.920   5.074   7.350  4.3030  1.4145  0.7511
  276MOL0     H36428   0.850   4.860   7.147  2.1601 -1.8034  0.1740
  276MOL0     H36429   0.891   4.829   7.315 -1.2234 -1.8851 -1.2379
  276MOL0     H36430   0.504   4.990   7.335 -0.0388  0.8428 -0.8636
  276MOL0     H36431   1.515   5.087   7.086  2.9233  0.4356  1.9507
  276MOL0     H36432   1.700   4.955   7.125 -0.7200  1.6946  0.6078
  277MOL0     O36433   9.011   8.631   7.116 -0.4610 -0.2646  0.5994
  277MOL0     C36434   8.962   8.606   7.227 -0.2571  0.7166 -0.3943
  277MOL0     O36435   8.835   8.595   7.246  0.1809 -0.0970  0.1928
  277MOL0     C36436   8.741   8.581   7.145  0.4438 -0.2694 -0.4661
  277MOL0     C36437   8.755   8.492   7.035 -0.9310 -0.0168  0.1384
  277MOL0     C36438   8.651   8.472   6.951  1.2462  0.6809  0.1519
  277MOL0     C36439   8.518   8.531   6.971 -0.5061  1.0414  0.0480
  277MOL0     O36440   8.417   8.499   6.887  0.1738 -0.1663 -0.8301
  277MOL0     C36441   8.311   8.595   6.864  0.0245 -1.0556  0.0877
  277MOL0     C36442   8.195   8.531   6.784  0.7948 -0.0115  0.3863
  277MOL0     C36443   8.098   8.631   6.721 -0.5459  0.0050  0.6647
  277MOL0     C36444   7.991   8.549   6.644 -0.2202 -0.1792 -0.1644
  277MOL0     C36445   7.901   8.636   6.555 -0.4264 -0.0783  0.9636
  277MOL0     C36446   7.819   8.744   6.627  1.6173 -0.5917  0.0307
  277MOL0     C36447   7.755   8.720   6.763  0.1396  0.2530  0.2814
  277MOL0     C36448   7.751   8.837   6.847 -0.3209  0.8950  0.0940
  277MOL0     N36449   7.644   8.934   6.821 -0.0055  0.3403 -0.4716
  277MOL0     C36450   7.555   8.931   6.711 -0.6530  0.5571  0.0145
  277MOL0     C36451   7.483   9.042   6.712 -0.1561  0.0091  1.2307
  277MOL0     C36452   7.396   9.089   6.606 -0.1309 -0.6151 -0.6102
  277MOL0     C36453   7.307   8.978   6.548 -0.0162  0.8182  0.0612
  277MOL0     C36454   7.196   9.051   6.472 -0.1158  0.0029 -0.0563
  277MOL0     C36455   7.141   8.965   6.360 -0.1029 -0.4193  0.3388
  277MOL0     O36456   7.067   9.053   6.273 -0.4460  0.2655  0.1535
  277MOL0     C36457   6.940   9.080   6.309  0.2301  0.6339 -0.1126
  277MOL0     C36458   6.913   9.205   6.355 -0.3764  0.2181  0.3000
  277MOL0     C36459   6.784   9.246   6.407  0.1303  0.4153  0.0865
  277MOL0     C36460   6.685   9.148   6.415  0.6094  0.4585 -0.5773
  277MOL0     C36461   6.543   9.182   6.454  0.5458  1.0133  0.1006
  277MOL0     O36462   6.460   9.078   6.469 -0.1058 -0.6297  0.5617
  277MOL0     C36463   6.328   9.101   6.498 -0.3602  0.3444 -0.3824
  277MOL0     C36464   6.285   9.048   6.624 -0.2177  0.0286 -0.2803
  277MOL0     C36465   6.151   9.070   6.665  0.4505  0.0890  0.1003
  277MOL0     C36466   6.059   9.134   6.581 -0.8309  0.2296  0.5042
  277MOL0     O36467   5.934   9.182   6.608  0.4617  0.0588  0.0311
  277MOL0     C36468   5.858   9.097   6.696 -1.0218 -0.3458 -0.1385
  277MOL0     C36469   5.703   9.112   6.703 -0.9844 -0.3634  0.0787
  277MOL0     C36470   5.643   9.056   6.829  0.3577 -0.4562 -0.0394
  277MOL0     C36471   5.491   9.065   6.820  0.0114  0.5627 -0.8763
  277MOL0     C36472   5.433   9.055   6.962 -0.1635  0.6355 -0.1933
  277MOL0     C36473   5.286   9.104   6.973  0.2522 -0.2656 -0.3248
  277MOL0     C36474   5.195   8.984   6.922  0.4635 -0.0786 -0.0709
  277MOL0     C36475   5.077   8.949   7.022 -0.6660 -1.0665 -0.3152
  277MOL0    Cl36476   4.957   8.847   6.933 -0.0902 -0.0353  0.0965
  277MOL0     C36477   6.099   9.177   6.454 -0.0758 -0.2165 -0.3188
  277MOL0     C36478   6.233   9.154   6.408 -0.6924 -0.1064  0.5783
  277MOL0     O36479   6.523   9.299   6.483 -0.0085  0.0682 -0.5299
  277MOL0     C36480   6.717   9.015   6.365 -0.5982 -0.4347  0.3868
  277MOL0     C36481   6.842   8.983   6.313 -0.9338 -0.2861 -1.0641
  277MOL0     N36482   7.525   9.109   6.820  0.3877 -1.2345 -0.2405
  277MOL0     N36483   7.622   9.050   6.876  0.3362 -0.7155  0.0883
  277MOL0     C36484   8.509   8.611   7.090  0.0083  0.1664  0.3313
  277MOL0     C36485   8.619   8.643   7.173 -0.2607 -0.3305  0.5868
  277MOL0     C36486   9.044   8.591   7.345 -0.6662 -0.1228  0.4073
  277MOL0     C36487   9.171   8.530   7.336  0.0797 -0.9056 -0.0791
  277MOL0     C36488   9.247   8.516   7.458  0.7040 -0.6220  1.0510
  277MOL0     C36489   9.189   8.538   7.586 -0.4230  0.0675 -0.3224
  277MOL0     O36490   9.250   8.504   7.703 -0.4046  0.4489 -0.2862
  277MOL0     C36491   9.376   8.433   7.701  0.5724  0.5563 -0.3817
  277MOL0     C36492   9.488   8.522   7.697 -0.3348 -0.1720  0.6053
  277MOL0     C36493   9.617   8.457   7.755 -0.3605  0.2067 -0.3000
  277MOL0     C36494   9.747   8.518   7.729  0.1032 -0.3132  0.8452
  277MOL0     C36495   9.775   8.525   7.581 -0.2426 -0.3072 -0.0766
  277MOL0     C36496   9.802   8.552   7.462 -0.0736  0.1869  0.2332
  277MOL0     C36497   9.070   8.603   7.588  0.6672 -0.1335 -0.0059
  277MOL0     C36498   9.001   8.635   7.472  0.1936 -0.7218 -0.0683
  277MOL0     H36499   8.854   8.447   7.037  0.1273  2.0253  4.2605
  277MOL0     H36500   8.650   8.397   6.873 -0.5402  0.2415  0.5439
  277MOL0     H36501   8.350   8.683   6.811  0.0360 -1.0329  0.1333
  277MOL0     H36502   8.268   8.635   6.956 -5.0462  0.2166 -2.4491
  277MOL0     H36503   8.137   8.468   6.852 -1.6171  0.6134 -1.0142
  277MOL0     H36504   8.240   8.469   6.706 -1.0587 -1.4798  0.4318
  277MOL0     H36505   8.157   8.693   6.654 -0.3586  1.9711  2.5597
  277MOL0     H36506   8.047   8.685   6.801 -2.4304  0.4489 -0.7473
  277MOL0     H36507   8.045   8.474   6.586 -0.7879 -1.6017  1.0935
  277MOL0     H36508   7.933   8.485   6.711  0.6579 -0.8071  0.0109
  277MOL0     H36509   7.835   8.566   6.503 -2.0201 -0.0863  2.8723
  277MOL0     H36510   7.967   8.679   6.480  0.9820 -2.8578  0.4501
  277MOL0     H36511   7.736   8.768   6.558 -0.4131 -1.2889  2.1139
  277MOL0     H36512   7.880   8.833   6.644  1.2379 -0.0873 -1.0931
  277MOL0     H36513   7.657   8.674   6.749 -0.6096  1.2593  1.8977
  277MOL0     H36514   7.815   8.646   6.818  0.3593 -0.4370 -0.8588
  277MOL0     H36515   7.838   8.904   6.840 -0.4018  0.8147 -3.1401
  277MOL0     H36516   7.752   8.795   6.948  1.6326 -1.2888 -0.7483
  277MOL0     H36517   7.554   8.848   6.641 -0.1880  0.4794  0.0944
  277MOL0     H36518   7.460   9.124   6.525 -0.4791 -1.0780 -1.0865
  277MOL0     H36519   7.338   9.165   6.660  0.3744 -1.9598  2.0056
  277MOL0     H36520   7.265   8.911   6.624  2.2628 -0.0057  0.6566
  277MOL0     H36521   7.362   8.916   6.477 -0.3048  0.6027  0.0196
  277MOL0     H36522   7.121   9.097   6.536 -0.1524  1.5372 -1.1503
  277MOL0     H36523   7.242   9.136   6.421 -1.3812  0.3447 -0.6640
  277MOL0     H36524   7.082   8.884   6.403 -0.4937 -1.0120 -1.2510
  277MOL0     H36525   7.219   8.915   6.302 -1.1656 -0.1006 -1.4254
  277MOL0     H36526   6.996   9.274   6.352  2.5041 -2.9700 -0.2544
  277MOL0     H36527   6.754   9.344   6.445 -0.4865 -0.6296  2.5030
  277MOL0     H36528   6.360   9.003   6.688 -2.1456 -1.0663  1.3395
  277MOL0     H36529   6.120   9.022   6.757  0.2630 -2.5796 -1.2559
  277MOL0     H36530   5.889   9.120   6.798 -1.1778 -0.3920 -0.0803
  277MOL0     H36531   5.883   8.991   6.683  0.7286  0.1363 -0.9737
  277MOL0     H36532   5.670   9.062   6.611 -0.4485  1.4096 -1.1282
  277MOL0     H36533   5.678   9.218   6.688  1.0557  0.1958  0.2911
  277MOL0     H36534   5.672   9.119   6.914 -3.5690 -0.6864  1.6925
  277MOL0     H36535   5.670   8.952   6.847  3.2399 -0.2276 -2.3456
  277MOL0     H36536   5.459   9.153   6.763 -0.8733  0.8512  0.0242
  277MOL0     H36537   5.449   8.976   6.774  1.8693 -0.3568 -0.8697
  277MOL0     H36538   5.501   9.101   7.036 -0.4725  0.1964  0.3696
  277MOL0     H36539   5.442   8.950   6.992 -1.3272  0.1412 -1.4757
  277MOL0     H36540   5.272   9.198   6.919  0.5980 -0.6716 -1.1391
  277MOL0     H36541   5.270   9.123   7.080 -1.4272  0.3717 -0.6642
  277MOL0     H36542   5.160   9.012   6.823 -2.5192  1.7972  1.3645
  277MOL0     H36543   5.254   8.892   6.927 -0.1129 -0.4102  1.2745
  277MOL0     H36544   5.038   9.050   7.038  1.9526  0.8149 -4.2968
  277MOL0     H36545   5.114   8.890   7.106  1.2930  1.1192  0.4723
  277MOL0     H36546   6.029   9.222   6.384  2.3575  0.7694 -2.2361
  277MOL0     H36547   6.266   9.179   6.308  0.2761  0.0537  0.9268
  277MOL0     H36548   6.644   8.936   6.380 -1.4243  0.6340  2.4733
  277MOL0     H36549   6.853   8.876   6.297 -2.0158 -1.0387  2.3628
  277MOL0     H36550   8.420   8.638   7.145  1.1860  1.3005  1.7833
  277MOL0     H36551   8.584   8.700   7.259 -3.5641  1.5549 -1.7576
  277MOL0     H36552   9.215   8.490   7.246  3.7355  1.2899  0.5329
  277MOL0     H36553   9.344   8.471   7.440  1.0160 -0.4373  2.1996
  277MOL0     H36554   9.381   8.367   7.614  3.4517  2.2394 -1.6351
  277MOL0     H36555   9.382   8.372   7.792 -1.5512 -1.8573 -1.7053
  277MOL0     H36556   9.482   8.545   7.590 -0.9653 -2.8839 -0.0041
  277MOL0     H36557   9.482   8.614   7.756  0.4932  0.5474 -0.3951
  277MOL0     H36558   9.620   8.351   7.732 -1.4132 -0.4512  2.1799
  277MOL0     H36559   9.610   8.468   7.864  3.5619  0.3181  0.0859
  277MOL0     H36560   9.743   8.616   7.778 -0.4762  0.2085 -0.2237
  277MOL0     H36561   9.828   8.459   7.774  0.5634  0.1445  0.6254
  277MOL0     H36562   9.807   8.589   7.362 -1.6960  1.9298  0.7195
  277MOL0     H36563   9.024   8.623   7.684 -2.5316  0.2406 -1.4815
  277MOL0     H36564   8.897   8.666   7.476  0.4037 -0.1109  0.7495
  278MOL0     O36565   9.409   1.306   1.797 -0.2215 -0.1093 -0.1725
  278MOL0     C36566   9.443   1.216   1.872  0.3952 -0.0044 -0.2298
  278MOL0     O36567   9.363   1.124   1.921  0.5418  0.0407 -0.1125
  278MOL0     C36568   9.238   1.096   1.872  0.0567 -0.7070 -0.0770
  278MOL0     C36569   9.137   1.069   1.969 -0.5074 -0.3641  0.3252
  278MOL0     C36570   9.008   1.045   1.925 -0.1469 -0.1955  0.2682
  278MOL0     C36571   8.979   1.048   1.789 -0.3887  0.2881 -0.7137
  278MOL0     O36572   8.846   1.021   1.759 -0.2137  0.7514  0.6210
  278MOL0     C36573   8.803   1.053   1.628 -0.0379 -0.8842 -0.6518
  278MOL0     C36574   8.662   1.005   1.638 -1.1699  0.0236 -0.3866
  278MOL0     C36575   8.580   1.059   1.534  0.2437  1.3065 -0.2929
  278MOL0     C36576   8.433   1.006   1.546  0.0564  0.3457 -0.1723
  278MOL0     C36577   8.329   1.058   1.455 -0.1568 -0.0692 -0.1561
  278MOL0     C36578   8.190   1.069   1.521  0.2190  1.2556 -1.0096
  278MOL0     C36579   8.085   1.155   1.446 -0.3201  0.0803 -0.9246
  278MOL0     C36580   8.088   1.127   1.292 -0.7407 -0.0541  0.4086
  278MOL0     N36581   7.970   1.168   1.226  0.6614 -0.3604 -1.0175
  278MOL0     C36582   7.890   1.105   1.134  0.2650 -0.2236 -0.1425
  278MOL0     C36583   7.787   1.189   1.106 -0.3614 -0.6496  0.2792
  278MOL0     C36584   7.678   1.152   1.014 -0.0925 -0.8391  0.3290
  278MOL0     C36585   7.539   1.177   1.064 -0.3251  0.6935 -0.2547
  278MOL0     C36586   7.496   1.074   1.174  0.1560  0.0900  0.4122
  278MOL0     C36587   7.351   1.083   1.211  0.8547 -0.2578 -0.4131
  278MOL0     O36588   7.272   1.121   1.096 -0.5968 -0.2074 -0.1234
  278MOL0     C36589   7.139   1.154   1.117 -0.1665 -0.2583  0.1937
  278MOL0     C36590   7.060   1.086   1.200 -0.2473 -0.3008  0.0409
  278MOL0     C36591   6.927   1.109   1.212  0.2094  0.4526 -0.9135
  278MOL0     C36592   6.871   1.221   1.146  0.7120  0.1711 -0.3483
  278MOL0     C36593   6.724   1.251   1.164  0.3791 -0.7868  0.9437
  278MOL0     O36594   6.666   1.322   1.061  0.3490  0.5645 -0.6954
  278MOL0     C36595   6.529   1.336   1.065  0.0757  0.1267  0.2636
  278MOL0     C36596   6.459   1.404   1.163 -0.2966  0.1541  0.2126
  278MOL0     C36597   6.327   1.410   1.169 -0.4415 -0.2966  1.0241
  278MOL0     C36598   6.255   1.336   1.074  0.8386 -0.2381  0.1205
  278MOL0     O36599   6.116   1.348   1.069  0.0564  0.1017  1.3102
  278MOL0     C36600   6.041   1.364   1.193 -0.4131 -0.2441 -0.2929
  278MOL0     C36601   5.899   1.332   1.139  0.4625 -0.2313  0.1956
  278MOL0     C36602   5.791   1.370   1.242 -0.3473 -0.0056 -0.3968
  278MOL0     C36603   5.656   1.301   1.200  0.3398 -0.4017 -0.0213
  278MOL0     C36604   5.565   1.310   1.321 -0.0753 -0.2909 -0.2311
  278MOL0     C36605   5.459   1.193   1.329  0.4291 -0.0763  0.3251
  278MOL0     C36606   5.378   1.194   1.464  0.1108  0.0298  0.8292
  278MOL0     C36607   5.264   1.294   1.451  0.1991 -0.5515 -0.3745
  278MOL0    Cl36608   5.161   1.282   1.601  0.6106  0.2781 -0.2439
  278MOL0     C36609   6.318   1.268   0.971  1.3821  0.5389  0.3982
  278MOL0     C36610   6.458   1.270   0.966  0.2566  0.1561  0.1237
  278MOL0     O36611   6.662   1.210   1.258  0.9974  0.2462 -1.3370
  278MOL0     C36612   6.951   1.286   1.048  0.2879 -0.6243 -0.4334
  278MOL0     C36613   7.086   1.250   1.029  0.7041  0.6684  0.2042
  278MOL0     N36614   7.801   1.298   1.181 -0.1265 -0.2591 -0.4706
  278MOL0     N36615   7.911   1.290   1.248  0.6041 -0.1372 -0.5313
  278MOL0     C36616   9.071   1.094   1.694 -0.0002 -0.4311 -0.4220
  278MOL0     C36617   9.205   1.116   1.734  0.9845  0.3446 -0.3814
  278MOL0     C36618   9.579   1.212   1.912 -0.3280  0.2991  0.1896
  278MOL0     C36619   9.635   1.106   1.986 -0.8680 -0.4145 -0.1250
  278MOL0     C36620   9.777   1.090   1.992  0.0590 -0.4399  0.1332
  278MOL0     C36621   9.861   1.186   1.945 -0.6375  0.4258 -0.0296
  278MOL0     O36622  10.003   1.164   1.965  0.4954  0.3359 -0.5586
  278MOL0     C36623  10.094   1.221   1.874  0.2078  0.2991 -0.1955
  278MOL0     C36624  10.165   1.101   1.793  0.3888  0.6671 -0.6717
  278MOL0     C36625  10.306   1.144   1.737 -0.6417  0.4470 -0.6371
  278MOL0     C36626  10.308   1.285   1.661  0.0189  0.1531 -0.1477
  278MOL0     C36627  10.443   1.303   1.605 -0.1776 -0.6733  0.3079
  278MOL0     C36628  10.556   1.317   1.563  0.6851 -0.5185 -0.2570
  278MOL0     C36629   9.805   1.303   1.899  0.2366 -0.6082 -0.0713
  278MOL0     C36630   9.668   1.313   1.874  0.2041 -0.0516 -0.4912
  278MOL0     H36631   9.153   1.065   2.076  1.0701 -0.2454  0.1118
  278MOL0     H36632   8.929   1.027   1.997  1.0139 -1.7453  1.2158
  278MOL0     H36633   8.854   1.000   1.548  0.2148 -0.0990 -1.0218
  278MOL0     H36634   8.807   1.161   1.609  0.3140 -0.3882  1.8437
  278MOL0     H36635   8.631   1.027   1.740  1.6695 -2.0108  1.0707
  278MOL0     H36636   8.657   0.896   1.624 -2.2663  0.2824 -2.4429
  278MOL0     H36637   8.612   1.024   1.436 -0.3058  1.6073 -0.5849
  278MOL0     H36638   8.585   1.168   1.537  1.2323  1.3599 -2.4964
  278MOL0     H36639   8.427   0.897   1.553 -0.5088  0.4501  1.1528
  278MOL0     H36640   8.406   1.036   1.647  0.7109  2.0409 -0.4645
  278MOL0     H36641   8.326   0.996   1.365  0.0488 -0.8552  0.3654
  278MOL0     H36642   8.361   1.157   1.423  0.9601 -1.1537 -2.5871
  278MOL0     H36643   8.208   1.116   1.618  1.1558  0.5362 -0.8231
  278MOL0     H36644   8.153   0.966   1.529  0.9449  1.0030 -0.8066
  278MOL0     H36645   7.988   1.131   1.489  0.6860  0.4272  1.7597
  278MOL0     H36646   8.131   1.255   1.450 -0.2455  0.0195  1.1628
  278MOL0     H36647   8.087   1.017   1.295 -2.5536 -0.0951  4.0895
  278MOL0     H36648   8.167   1.176   1.235  1.1089 -1.7790  1.3321
  278MOL0     H36649   7.910   1.009   1.088 -0.3137 -0.4625  0.1035
  278MOL0     H36650   7.682   1.047   0.983 -4.0744 -0.7764 -0.8469
  278MOL0     H36651   7.687   1.213   0.923 -1.2090 -1.4886 -0.2402
  278MOL0     H36652   7.465   1.180   0.983 -3.8780  1.2163  2.7081
  278MOL0     H36653   7.525   1.272   1.118 -2.7808 -0.3897  1.1914
  278MOL0     H36654   7.520   0.969   1.150 -0.2899 -0.2139  1.2726
  278MOL0     H36655   7.551   1.090   1.267  0.1286  2.0370  0.1218
  278MOL0     H36656   7.341   1.156   1.292 -0.4100 -2.0718  1.1650
  278MOL0     H36657   7.317   0.993   1.263  1.0781  0.7087  1.4819
  278MOL0     H36658   7.101   1.008   1.264 -0.1460  1.0635  1.6959
  278MOL0     H36659   6.876   1.037   1.276  3.1667  0.1381  1.3045
  278MOL0     H36660   6.518   1.461   1.234 -0.7916  1.2099 -0.1998
  278MOL0     H36661   6.273   1.474   1.238 -0.9926  0.9672 -0.5333
  278MOL0     H36662   6.039   1.471   1.218 -0.9902 -0.4256  0.4554
  278MOL0     H36663   6.073   1.299   1.275  2.9888  3.5053  1.7245
  278MOL0     H36664   5.899   1.227   1.109  0.6926  0.9741 -4.9580
  278MOL0     H36665   5.880   1.384   1.044  1.9168  0.3044  0.1687
  278MOL0     H36666   5.781   1.478   1.258  0.9712 -0.1465  1.6115
  278MOL0     H36667   5.830   1.337   1.338  0.7654  2.9836  0.2971
  278MOL0     H36668   5.605   1.347   1.114 -0.2753 -0.8561  0.0934
  278MOL0     H36669   5.671   1.193   1.190 -3.9081 -1.1494 -0.5484
  278MOL0     H36670   5.523   1.411   1.322 -1.2782 -0.7154 -2.0273
  278MOL0     H36671   5.631   1.301   1.408 -0.9671 -2.5275  0.3049
  278MOL0     H36672   5.496   1.091   1.319  0.8564  0.1991 -1.2182
  278MOL0     H36673   5.392   1.210   1.244  0.3411 -1.7510  0.0379
  278MOL0     H36674   5.328   1.099   1.484 -1.9544  0.7911 -0.4377
  278MOL0     H36675   5.439   1.211   1.554  0.7755 -1.2769  0.6417
  278MOL0     H36676   5.213   1.255   1.363  0.7757 -1.6889 -0.2165
  278MOL0     H36677   5.295   1.398   1.439 -1.9844  0.1114 -0.7118
  278MOL0     H36678   6.269   1.221   0.885  3.6616  0.3955 -0.9113
  278MOL0     H36679   6.512   1.213   0.891  2.4493 -1.2150  2.6012
  278MOL0     H36680   6.909   1.363   0.984 -0.4564 -1.7869 -1.3910
  278MOL0     H36681   7.148   1.287   0.948 -1.1891 -0.5636 -1.9403
  278MOL0     H36682   9.051   1.094   1.588 -4.0413 -2.0797  0.2022
  278MOL0     H36683   9.284   1.147   1.667  0.0532 -0.7465 -2.0432
  278MOL0     H36684   9.569   1.031   2.028 -0.4746 -0.9358 -0.4195
  278MOL0     H36685   9.820   1.013   2.056 -0.3786 -1.0714 -0.3290
  278MOL0     H36686  10.180   1.274   1.915  2.7447 -3.6540  0.1970
  278MOL0     H36687  10.045   1.295   1.810 -0.8981 -0.5035 -0.3032
  278MOL0     H36688  10.164   1.009   1.852 -1.5393 -0.4472 -2.3369
  278MOL0     H36689  10.108   1.081   1.703  1.4256  0.9891 -1.4177
  278MOL0     H36690  10.339   1.065   1.669  1.0871 -1.1393  1.8742
  278MOL0     H36691  10.375   1.137   1.821 -2.7776 -2.9440  1.0255
  278MOL0     H36692  10.234   1.288   1.580 -1.1527  0.7850  0.9223
  278MOL0     H36693  10.282   1.372   1.722 -1.2501 -0.2336 -0.0978
  278MOL0     H36694  10.650   1.340   1.518 -1.1186  1.7971 -3.2438
  278MOL0     H36695   9.875   1.383   1.876 -0.1549  0.0464  0.9421
  278MOL0     H36696   9.629   1.393   1.812 -0.3526 -2.6522 -3.7958
  279MOL0     O36697  11.011   3.334   3.300  0.3399  0.4051 -0.2906
  279MOL0     C36698  11.072   3.439   3.329 -0.1065  0.0083 -0.1073
  279MOL0     O36699  11.018   3.544   3.390  0.1304 -0.1646 -0.4455
  279MOL0     C36700  10.881   3.545   3.413 -0.4748 -0.1366  0.9554
  279MOL0     C36701  10.833   3.467   3.512 -0.0173 -0.4041 -0.1709
  279MOL0     C36702  10.702   3.479   3.542  1.0075 -0.1904 -0.6035
  279MOL0     C36703  10.611   3.566   3.467 -0.0678 -0.6320  0.8559
  279MOL0     O36704  10.479   3.560   3.509 -0.2502 -0.0070 -0.8780
  279MOL0     C36705  10.377   3.584   3.419 -0.3008  0.5239  0.0848
  279MOL0     C36706  10.239   3.563   3.489 -0.5598 -0.0483  0.2761
  279MOL0     C36707  10.118   3.577   3.401 -0.5031 -0.4324 -0.3603
  279MOL0     C36708   9.986   3.564   3.481  0.0599 -0.1384  0.1235
  279MOL0     C36709   9.861   3.576   3.384  0.2863 -0.4199 -0.2586
  279MOL0     C36710   9.736   3.548   3.466 -0.3304  0.3781 -0.4313
  279MOL0     C36711   9.610   3.571   3.379 -0.2097 -0.3268 -0.6614
  279MOL0     C36712   9.497   3.495   3.460 -0.0384 -0.5249  0.8194
  279MOL0     N36713   9.365   3.525   3.403  0.4232 -0.5184 -0.5652
  279MOL0     C36714   9.309   3.647   3.431 -0.8009 -0.1253  0.4406
  279MOL0     C36715   9.175   3.630   3.413 -0.2586 -0.2623  0.1683
  279MOL0     C36716   9.052   3.728   3.439 -0.2382 -0.6842  0.6387
  279MOL0     C36717   9.086   3.877   3.425 -0.0506  0.1236  0.0818
  279MOL0     C36718   8.976   3.969   3.475  0.1443  0.3280  0.1451
  279MOL0     C36719   8.837   3.952   3.407 -0.4572 -0.0590 -0.4224
  279MOL0     O36720   8.759   4.061   3.456  0.3423  0.2497  0.0240
  279MOL0     C36721   8.630   4.071   3.424  0.0953  0.4269  0.1070
  279MOL0     C36722   8.562   4.175   3.485  0.7482 -0.4397  0.8871
  279MOL0     C36723   8.420   4.193   3.460  0.4790 -0.2784 -0.2426
  279MOL0     C36724   8.350   4.112   3.379  0.1956  0.2752  0.0080
  279MOL0     C36725   8.203   4.123   3.357 -0.8161  1.3638 -0.0494
  279MOL0     O36726   8.134   4.219   3.415 -0.2123  0.3027  0.0280
  279MOL0     C36727   8.000   4.226   3.403 -0.0967  0.0311  0.0455
  279MOL0     C36728   7.938   4.318   3.314 -0.0440  0.0907  0.5890
  279MOL0     C36729   7.796   4.311   3.292 -0.7254 -0.4760 -0.1511
  279MOL0     C36730   7.720   4.220   3.362  0.3649 -0.2367 -0.2746
  279MOL0     O36731   7.586   4.190   3.331 -0.7891 -0.1159  0.1967
  279MOL0     C36732   7.515   4.281   3.236  0.6830 -0.6116 -0.1897
  279MOL0     C36733   7.372   4.227   3.226  0.5710 -0.5296  0.0124
  279MOL0     C36734   7.316   4.157   3.348 -0.1372  0.2558 -0.0830
  279MOL0     C36735   7.169   4.144   3.357  0.4105  0.2322  0.5183
  279MOL0     C36736   7.107   4.070   3.238  0.6854 -0.6315  0.7645
  279MOL0     C36737   6.953   4.038   3.257 -1.5145  0.2024  0.2518
  279MOL0     C36738   6.888   3.961   3.140 -0.3266 -0.1691  0.2487
  279MOL0     C36739   6.736   3.965   3.144 -0.2859 -1.0481 -1.1689
  279MOL0    Cl36740   6.674   4.132   3.107  0.1894 -0.1396  0.6050
  279MOL0     C36741   7.783   4.138   3.454 -0.1328  0.6420 -0.0150
  279MOL0     C36742   7.925   4.142   3.473  0.0824  0.7464  0.3243
  279MOL0     O36743   8.158   4.038   3.277  0.3889 -0.5945 -0.4971
  279MOL0     C36744   8.425   4.024   3.307  0.9556 -0.4493  0.3136
  279MOL0     C36745   8.562   3.997   3.326 -0.9268  0.4400 -0.4451
  279MOL0     N36746   9.155   3.502   3.368  0.1346  0.0887 -0.6162
  279MOL0     N36747   9.266   3.435   3.370 -0.0900 -0.0104  0.1616
  279MOL0     C36748  10.661   3.631   3.357 -0.0373  0.6400  0.1112
  279MOL0     C36749  10.797   3.616   3.329  0.1954  1.0952  0.3596
  279MOL0     C36750  11.207   3.452   3.279  0.1516  0.3665 -0.6582
  279MOL0     C36751  11.284   3.341   3.254  0.5272 -0.3645  0.3592
  279MOL0     C36752  11.412   3.350   3.207 -0.3430 -0.1668  0.2100
  279MOL0     C36753  11.473   3.474   3.191 -0.2144 -0.3059  0.5356
  279MOL0     O36754  11.604   3.501   3.148  0.7595  0.2163 -0.5525
  279MOL0     C36755  11.711   3.403   3.166 -0.4670 -0.2500  0.3667
  279MOL0     C36756  11.733   3.298   3.046 -0.0584  0.2889 -0.3155
  279MOL0     C36757  11.769   3.370   2.926 -0.3962 -0.1652  0.2768
  279MOL0     C36758  11.837   3.289   2.818  0.0979 -1.0179  0.1140
  279MOL0     C36759  11.975   3.273   2.861 -0.7194 -0.6286  0.3104
  279MOL0     C36760  12.091   3.247   2.889  0.1575  0.5563  0.2535
  279MOL0     C36761  11.402   3.587   3.232 -0.2035 -0.4266 -0.2046
  279MOL0     C36762  11.271   3.575   3.286 -0.0354 -0.9397  0.8191
  279MOL0     H36763  10.898   3.405   3.573 -0.7592  1.9346  3.2973
  279MOL0     H36764  10.668   3.425   3.629 -0.0153 -0.8729 -1.4027
  279MOL0     H36765  10.388   3.511   3.338  0.3143  2.0729 -1.2712
  279MOL0     H36766  10.392   3.684   3.377  2.5302  0.0241 -0.3203
  279MOL0     H36767  10.237   3.640   3.567 -2.0037  0.5158 -0.2728
  279MOL0     H36768  10.231   3.462   3.529  0.8372 -0.0448  0.6038
  279MOL0     H36769  10.124   3.507   3.317 -0.2557 -0.5469 -0.2459
  279MOL0     H36770  10.122   3.680   3.364  1.2212 -0.1972  0.3765
  279MOL0     H36771   9.995   3.462   3.520  4.6774  0.0510  0.0807
  279MOL0     H36772   9.987   3.642   3.557  2.0267 -0.9585  1.0039
  279MOL0     H36773   9.863   3.504   3.301 -0.6636  0.0109 -0.6690
  279MOL0     H36774   9.831   3.674   3.346 -0.5096 -0.3671  0.4833
  279MOL0     H36775   9.723   3.610   3.555 -1.3682 -1.9257  1.1351
  279MOL0     H36776   9.742   3.448   3.510  1.4224  1.6424  2.5166
  279MOL0     H36777   9.581   3.676   3.371  1.6825  0.2690 -0.2294
  279MOL0     H36778   9.617   3.532   3.277  2.3678  1.7807 -1.3913
  279MOL0     H36779   9.502   3.523   3.565  1.1721 -2.9830  1.4779
  279MOL0     H36780   9.507   3.386   3.452  0.5072 -0.4407  0.2495
  279MOL0     H36781   9.365   3.735   3.461  1.3546 -1.2473 -0.1293
  279MOL0     H36782   9.004   3.705   3.535 -0.6771 -0.0704  0.5657
  279MOL0     H36783   8.971   3.696   3.374 -0.7257 -0.4506  1.1292
  279MOL0     H36784   9.107   3.906   3.322  0.2899  0.3087  0.2019
  279MOL0     H36785   9.176   3.909   3.479 -1.6645  1.1690  2.3224
  279MOL0     H36786   8.961   3.947   3.582 -0.4668 -2.5355 -0.4312
  279MOL0     H36787   9.011   4.069   3.451  1.6616  0.3568  2.2106
  279MOL0     H36788   8.789   3.859   3.438  0.2774 -0.3233 -0.0864
  279MOL0     H36789   8.846   3.949   3.298  0.5654 -3.0791 -0.3350
  279MOL0     H36790   8.622   4.248   3.538  1.4723  1.0738 -1.8218
  279MOL0     H36791   8.365   4.276   3.503 -2.2633 -2.7967  1.5527
  279MOL0     H36792   7.984   4.402   3.262  0.8506 -0.9498 -0.3469
  279MOL0     H36793   7.746   4.387   3.233  0.8513 -0.5518 -1.6583
  279MOL0     H36794   7.550   4.265   3.133  0.7311 -2.0108  0.0293
  279MOL0     H36795   7.506   4.385   3.270 -2.3739 -0.5603 -0.9072
  279MOL0     H36796   7.361   4.155   3.144 -1.5965  0.7542 -0.9311
  279MOL0     H36797   7.309   4.309   3.189  1.5414  0.1078 -0.2658
  279MOL0     H36798   7.353   4.208   3.438  1.1613  0.9444 -0.9801
  279MOL0     H36799   7.361   4.058   3.338  0.5868  0.7503 -2.0439
  279MOL0     H36800   7.155   4.088   3.449  0.1969 -1.5065 -0.5275
  279MOL0     H36801   7.118   4.241   3.354  0.4788  0.3504  2.2039
  279MOL0     H36802   7.161   3.983   3.200 -0.1326 -0.5333 -0.6704
  279MOL0     H36803   7.118   4.145   3.159  0.9279 -1.2049  0.2515
  279MOL0     H36804   6.894   4.128   3.276  0.5163  1.5728  0.2274
  279MOL0     H36805   6.946   3.978   3.348  1.3765  1.3275  1.3259
  279MOL0     H36806   6.915   3.996   3.040 -1.5290 -0.0510 -0.0543
  279MOL0     H36807   6.922   3.857   3.151  1.1792  0.3015  0.2337
  279MOL0     H36808   6.707   3.932   3.244 -0.3118 -3.2855 -1.8729
  279MOL0     H36809   6.690   3.894   3.075  0.6167 -1.3818 -1.4444
  279MOL0     H36810   7.723   4.063   3.506  0.7732 -0.5834 -0.6886
  279MOL0     H36811   7.975   4.075   3.542  1.3786 -0.8305 -2.0283
  279MOL0     H36812   8.374   3.964   3.232  1.3062  0.8835 -1.0568
  279MOL0     H36813   8.605   3.915   3.269  1.9860  0.1657  1.8906
  279MOL0     H36814  10.596   3.699   3.303  2.3457  1.8249 -1.4621
  279MOL0     H36815  10.847   3.659   3.243 -0.8881 -1.6230 -1.7348
  279MOL0     H36816  11.243   3.241   3.256 -1.8342  0.4987 -0.2228
  279MOL0     H36817  11.468   3.260   3.184  0.2231  0.3619 -0.5751
  279MOL0     H36818  11.677   3.346   3.252 -1.3386 -0.0516  0.1655
  279MOL0     H36819  11.807   3.453   3.184 -0.0696 -0.5044 -0.9011
  279MOL0     H36820  11.817   3.238   3.080  0.6086  2.0449  1.3204
  279MOL0     H36821  11.652   3.225   3.038  2.0502 -2.5458  1.8874
  279MOL0     H36822  11.827   3.455   2.963  0.2014 -0.9554  1.1874
  279MOL0     H36823  11.677   3.413   2.884 -0.0574  1.8296  1.4544
  279MOL0     H36824  11.789   3.191   2.808  3.7114 -3.1257  1.4517
  279MOL0     H36825  11.830   3.338   2.720 -0.4750  0.8989  1.0682
  279MOL0     H36826  12.192   3.225   2.915 -0.5460 -2.6428  0.8235
  279MOL0     H36827  11.450   3.684   3.221  0.5689 -0.9008 -1.2131
  279MOL0     H36828  11.229   3.673   3.306  4.2316  1.1498  0.7181
  280MOL0     O36829   1.455   5.397   0.234 -0.1034  0.7048 -0.0412
  280MOL0     C36830   1.341   5.347   0.233  0.3564  0.1059 -0.8416
  280MOL0     O36831   1.227   5.407   0.166 -0.0382  0.3048 -1.1206
  280MOL0     C36832   1.234   5.484   0.052  0.2937 -0.5557 -0.3771
  280MOL0     C36833   1.350   5.514  -0.007  0.4709  0.8562  0.5564
  280MOL0     C36834   1.347   5.597  -0.122  0.7132 -0.5560  0.5403
  280MOL0     C36835   1.232   5.654  -0.169  0.3000  0.0182  1.3144
  280MOL0     O36836   1.219   5.736  -0.280 -0.7334  0.3369 -0.3062
  280MOL0     C36837   1.331   5.820  -0.308 -0.9236  0.0062 -0.0160
  280MOL0     C36838   1.300   5.893  -0.442  0.0487 -0.7460  0.3770
  280MOL0     C36839   1.339   5.806  -0.560  0.4368  0.1713  0.0454
  280MOL0     C36840   1.483   5.819  -0.611  0.1346 -0.1017 -0.1829
  280MOL0     C36841   1.509   5.747  -0.743  0.4982 -0.6406 -0.2159
  280MOL0     C36842   1.486   5.593  -0.720 -0.2493  0.9189 -0.1705
  280MOL0     C36843   1.517   5.521  -0.863  0.3963 -0.7987 -0.4999
  280MOL0     C36844   1.469   5.378  -0.870  0.5876  0.7265 -0.2020
  280MOL0     N36845   1.538   5.289  -0.772  0.3848 -0.1574  0.0175
  280MOL0     C36846   1.484   5.211  -0.666 -0.5269  0.2650  0.2306
  280MOL0     C36847   1.589   5.128  -0.635  0.2062 -0.2774 -0.4732
  280MOL0     C36848   1.573   5.018  -0.531 -0.5559 -0.4107  0.4283
  280MOL0     C36849   1.518   4.889  -0.591 -0.0611  0.1629  0.4008
  280MOL0     C36850   1.490   4.777  -0.481  0.0497  0.2802  0.3416
  280MOL0     C36851   1.454   4.645  -0.552  0.1471  1.0877 -0.0136
  280MOL0     O36852   1.360   4.578  -0.473  0.4882 -0.7600  0.3282
  280MOL0     C36853   1.306   4.459  -0.519 -0.3489  0.0779  0.7042
  280MOL0     C36854   1.213   4.394  -0.446  1.3182  0.1443  0.2046
  280MOL0     C36855   1.165   4.265  -0.472 -0.2651  0.1450 -0.1215
  280MOL0     C36856   1.199   4.208  -0.591 -0.3661  0.1568 -1.2109
  280MOL0     C36857   1.152   4.068  -0.617 -1.0290 -0.6388 -0.7480
  280MOL0     O36858   1.154   4.026  -0.745 -0.1272  0.3130 -0.1132
  280MOL0     C36859   1.124   3.898  -0.788  0.4996  0.8779  0.1672
  280MOL0     C36860   1.039   3.897  -0.903  0.6252  0.3544 -0.1461
  280MOL0     C36861   1.002   3.776  -0.960  0.1265  0.6353 -0.6817
  280MOL0     C36862   1.048   3.647  -0.911  0.1066  0.1192  0.1230
  280MOL0     O36863   1.021   3.523  -0.960 -0.9679 -0.5437 -0.2396
  280MOL0     C36864   0.946   3.510  -1.081  0.5066 -0.4160  0.0199
  280MOL0     C36865   0.952   3.361  -1.129 -0.4132 -0.4521 -0.1503
  280MOL0     C36866   0.886   3.279  -1.013 -0.2516  0.7662  0.3897
  280MOL0     C36867   0.735   3.303  -1.012 -1.0575 -0.5840  0.8280
  280MOL0     C36868   0.647   3.209  -0.932  0.8674  0.2498  0.0946
  280MOL0     C36869   0.488   3.225  -0.955 -0.3908  0.3185 -0.8448
  280MOL0     C36870   0.406   3.105  -0.924 -0.1296  0.4975 -0.6453
  280MOL0     C36871   0.281   3.094  -1.009  0.8289 -0.1658 -0.0912
  280MOL0    Cl36872   0.176   3.246  -0.969 -0.2840 -0.2991 -0.2884
  280MOL0     C36873   1.134   3.649  -0.793  0.7447  0.3604  0.5510
  280MOL0     C36874   1.176   3.771  -0.736  0.1720 -0.3677 -0.2392
  280MOL0     O36875   1.141   3.998  -0.518 -0.1540  0.2933 -0.0021
  280MOL0     C36876   1.276   4.279  -0.686  0.8500 -0.7261  0.1656
  280MOL0     C36877   1.333   4.406  -0.650  0.2853  0.6800  0.1332
  280MOL0     N36878   1.702   5.170  -0.711  0.2759  1.1310  0.4660
  280MOL0     N36879   1.668   5.252  -0.795  0.1734  0.1009  0.9543
  280MOL0     C36880   1.114   5.626  -0.101  0.0343  1.1694  0.4931
  280MOL0     C36881   1.119   5.539   0.000 -0.6939 -0.4572 -0.6087
  280MOL0     C36882   1.321   5.221   0.310 -0.0345  0.2471  0.7443
  280MOL0     C36883   1.419   5.126   0.299 -0.4767 -0.0904  1.7084
  280MOL0     C36884   1.399   4.997   0.357  0.9370 -0.3657 -0.5420
  280MOL0     C36885   1.285   4.953   0.414 -0.9979 -1.1504 -0.6628
  280MOL0     O36886   1.273   4.821   0.455  0.4467 -0.1222 -0.9376
  280MOL0     C36887   1.139   4.776   0.497 -0.0760 -0.4437  0.2871
  280MOL0     C36888   1.058   4.739   0.372 -0.3739 -0.2720 -0.8395
  280MOL0     C36889   0.974   4.617   0.393  0.0163  0.5457 -0.0361
  280MOL0     C36890   0.896   4.615   0.521 -0.2524 -0.4061 -0.1276
  280MOL0     C36891   0.787   4.723   0.510 -0.0622  0.1260 -0.3073
  280MOL0     C36892   0.699   4.811   0.507 -0.9086  0.5554  0.1589
  280MOL0     C36893   1.186   5.058   0.425  0.1822  0.1138  0.2763
  280MOL0     C36894   1.198   5.181   0.364  0.2473 -0.0710 -0.2682
  280MOL0     H36895   1.448   5.484   0.029  1.2296  1.2097 -1.1123
  280MOL0     H36896   1.444   5.614  -0.167  0.3063  3.7133  0.9185
  280MOL0     H36897   1.428   5.768  -0.304 -1.0132 -0.3752 -1.8567
  280MOL0     H36898   1.330   5.894  -0.227 -1.8538  0.0821 -0.0883
  280MOL0     H36899   1.350   5.990  -0.439  1.2380 -1.3578  0.9297
  280MOL0     H36900   1.195   5.923  -0.453  0.7630  1.6309 -0.6820
  280MOL0     H36901   1.285   5.852  -0.643  0.7773  1.9483  0.7576
  280MOL0     H36902   1.308   5.701  -0.550  1.8310 -0.3860 -1.0733
  280MOL0     H36903   1.502   5.925  -0.631 -1.8182 -0.1786 -2.8529
  280MOL0     H36904   1.546   5.779  -0.530 -1.5824 -2.8480 -0.0820
  280MOL0     H36905   1.608   5.772  -0.783  0.0715  0.4956 -0.6145
  280MOL0     H36906   1.435   5.787  -0.813  0.2824 -0.5993  0.0351
  280MOL0     H36907   1.380   5.578  -0.698 -0.8518 -1.2088 -3.6763
  280MOL0     H36908   1.547   5.548  -0.641 -1.4330 -3.5129 -1.5014
  280MOL0     H36909   1.476   5.571  -0.951 -0.5631 -1.8987 -0.6976
  280MOL0     H36910   1.624   5.533  -0.882  0.7070 -1.6545  0.6275
  280MOL0     H36911   1.490   5.335  -0.969 -3.3633  0.1177 -0.9590
  280MOL0     H36912   1.361   5.364  -0.857  0.7840  0.3783  1.1698
  280MOL0     H36913   1.387   5.198  -0.620 -0.3999  1.6846  0.9376
  280MOL0     H36914   1.506   5.056  -0.453 -1.9705  3.2838 -2.2300
  280MOL0     H36915   1.664   4.985  -0.482 -1.4580  1.3015  3.5414
  280MOL0     H36916   1.573   4.852  -0.678 -0.7378 -1.6803  0.6925
  280MOL0     H36917   1.418   4.921  -0.623  0.5563  4.4857  2.1688
  280MOL0     H36918   1.577   4.761  -0.417  0.2308 -1.4448 -0.2607
  280MOL0     H36919   1.406   4.801  -0.416  0.5817 -0.7817  1.4715
  280MOL0     H36920   1.546   4.586  -0.554  0.0997  1.0297 -0.7167
  280MOL0     H36921   1.422   4.652  -0.657  0.7870  1.1948 -0.2086
  280MOL0     H36922   1.175   4.426  -0.350 -0.4595 -2.4060  0.4672
  280MOL0     H36923   1.091   4.223  -0.404 -0.1973 -3.5337 -2.1052
  280MOL0     H36924   1.003   3.991  -0.945  2.6699  2.7489  2.9862
  280MOL0     H36925   0.947   3.788  -1.053 -0.5495 -2.4496 -0.7633
  280MOL0     H36926   0.995   3.575  -1.155  0.3318  1.9325  1.8453
  280MOL0     H36927   0.845   3.550  -1.072  1.1986  1.9166 -1.5650
  280MOL0     H36928   1.059   3.350  -1.151 -0.5625 -0.1309 -1.1260
  280MOL0     H36929   0.899   3.344  -1.223  1.1110 -2.4864 -0.7002
  280MOL0     H36930   0.911   3.292  -0.908  3.1161  0.1846 -0.2196
  280MOL0     H36931   0.900   3.174  -1.044 -0.7993  0.6220  0.6289
  280MOL0     H36932   0.720   3.402  -0.969  0.9969  1.3233 -2.4296
  280MOL0     H36933   0.700   3.313  -1.115 -1.0951  1.2088  0.9870
  280MOL0     H36934   0.667   3.216  -0.824 -2.2028 -2.6249  1.0467
  280MOL0     H36935   0.673   3.105  -0.956  2.7568 -0.3338  3.9465
  280MOL0     H36936   0.475   3.234  -1.063 -2.3963  1.2907 -0.5608
  280MOL0     H36937   0.451   3.317  -0.909 -3.0642  0.4725 -3.0213
  280MOL0     H36938   0.470   3.016  -0.931 -2.0892 -1.2745  1.8857
  280MOL0     H36939   0.367   3.104  -0.822 -0.3266 -0.3853 -0.7176
  280MOL0     H36940   0.239   2.998  -0.978  2.6601 -1.4081 -1.2023
  280MOL0     H36941   0.289   3.092  -1.118 -1.7868 -0.6588 -0.3369
  280MOL0     H36942   1.177   3.553  -0.768  0.4319 -0.1960 -0.9349
  280MOL0     H36943   1.249   3.765  -0.656  0.5771 -0.6655 -0.6277
  280MOL0     H36944   1.284   4.230  -0.783 -1.0512 -1.5977  0.4005
  280MOL0     H36945   1.391   4.451  -0.730 -2.0890  1.4917 -1.2416
  280MOL0     H36946   1.016   5.654  -0.138 -0.9684  1.9648  3.4472
  280MOL0     H36947   1.029   5.515   0.056 -2.2948  2.8826 -1.4956
  280MOL0     H36948   1.512   5.134   0.243 -2.8618 -2.6883 -3.2660
  280MOL0     H36949   1.479   4.924   0.351  0.1107 -1.2833 -0.6560
  280MOL0     H36950   1.077   4.836   0.564 -0.7750 -2.5232  1.6163
  280MOL0     H36951   1.156   4.684   0.555 -2.4261 -0.5472  0.9017
  280MOL0     H36952   0.994   4.820   0.335  1.2604  1.0853 -0.7916
  280MOL0     H36953   1.131   4.714   0.295  2.5026 -0.1123  1.6232
  280MOL0     H36954   1.031   4.525   0.411  0.2576  1.0810  2.3168
  280MOL0     H36955   0.906   4.601   0.309 -0.4107  0.3488  0.3358
  280MOL0     H36956   0.851   4.515   0.528 -0.8688 -0.2301 -1.3372
  280MOL0     H36957   0.961   4.641   0.605 -0.2755  4.6941 -1.3878
  280MOL0     H36958   0.635   4.895   0.496  0.9198  2.0506  0.4732
  280MOL0     H36959   1.089   5.042   0.470 -0.2439 -1.2085 -1.0401
  280MOL0     H36960   1.116   5.251   0.369  1.0188  0.7784  1.2445
  281MOL0     O36961  10.732   0.410   9.399 -0.2342 -0.2244  0.1561
  281MOL0     C36962  10.794   0.343   9.486 -0.1885 -0.4174  0.3376
  281MOL0     O36963  10.738   0.303   9.609 -0.0604 -0.2498  0.1408
  281MOL0     C36964  10.597   0.317   9.627 -0.0471 -0.1215 -1.0515
  281MOL0     C36965  10.506   0.277   9.533  0.7665 -1.1718 -0.0040
  281MOL0     C36966  10.366   0.303   9.549  0.6021  0.5241  0.1222
  281MOL0     C36967  10.325   0.354   9.667 -0.4178 -0.0104 -1.1301
  281MOL0     O36968  10.189   0.379   9.699 -0.3069 -0.0661 -0.4392
  281MOL0     C36969  10.105   0.268   9.664  0.2483 -0.0216 -0.2272
  281MOL0     C36970  10.031   0.232   9.785 -0.1641  0.3462 -0.2181
  281MOL0     C36971   9.914   0.320   9.809  0.5229 -0.3235 -0.5243
  281MOL0     C36972   9.818   0.280   9.920 -0.6698 -0.0409 -0.0099
  281MOL0     C36973   9.753   0.139   9.908 -0.6472 -0.9415 -0.3971
  281MOL0     C36974   9.673   0.124   9.788  0.3775 -0.0999 -0.6095
  281MOL0     C36975   9.527   0.058   9.789 -0.7979  0.2628 -0.3431
  281MOL0     C36976   9.414   0.147   9.842  0.3704  0.1525  0.5150
  281MOL0     N36977   9.284   0.122   9.770  0.2873 -0.4376  0.4950
  281MOL0     C36978   9.236   0.197   9.663 -0.3048 -0.4079  0.5630
  281MOL0     C36979   9.115   0.142   9.634  0.4461  0.4656  0.2604
  281MOL0     C36980   9.016   0.179   9.524  0.1433 -0.3018  0.3630
  281MOL0     C36981   8.957   0.315   9.564  0.4018 -0.2906 -0.1485
  281MOL0     C36982   8.879   0.384   9.445 -0.0407  0.0435  0.3488
  281MOL0     C36983   8.726   0.350   9.445  0.1598  0.3522 -1.2370
  281MOL0     O36984   8.664   0.409   9.330 -0.1297 -0.4602  0.4896
  281MOL0     C36985   8.526   0.393   9.319 -0.4498  0.7866  0.1213
  281MOL0     C36986   8.444   0.337   9.424 -0.0797 -0.4568  0.4456
  281MOL0     C36987   8.306   0.335   9.407 -0.0162 -1.5100  0.2917
  281MOL0     C36988   8.249   0.383   9.290  0.4233  0.0207 -0.1826
  281MOL0     C36989   8.103   0.396   9.283 -0.0895  0.5206  0.6080
  281MOL0     O36990   8.041   0.376   9.173 -0.4220  0.4800  0.8326
  281MOL0     C36991   7.910   0.407   9.159 -0.0339 -0.8882  0.0602
  281MOL0     C36992   7.865   0.545   9.167 -0.6119  0.1785  0.4903
  281MOL0     C36993   7.738   0.588   9.139  0.0497 -0.1899  0.4131
  281MOL0     C36994   7.636   0.490   9.116 -0.0816 -0.4092 -0.8723
  281MOL0     O36995   7.506   0.542   9.112 -0.4526 -0.4281 -0.1779
  281MOL0     C36996   7.390   0.459   9.103 -0.7670 -0.1146 -0.9997
  281MOL0     C36997   7.270   0.547   9.128  0.2100 -0.1367 -0.7032
  281MOL0     C36998   7.256   0.656   9.023  0.0927  0.4230  0.3036
  281MOL0     C36999   7.151   0.757   9.056  0.2229 -0.5733 -0.7621
  281MOL0     C37000   7.001   0.704   9.034 -0.0640  0.4344  0.6706
  281MOL0     C37001   6.897   0.806   9.075 -0.2241 -0.1221  0.3485
  281MOL0     C37002   6.755   0.757   9.064 -0.2259 -0.3589  0.2686
  281MOL0     C37003   6.656   0.838   9.140 -0.2455 -0.3950  0.5140
  281MOL0    Cl37004   6.521   0.732   9.168  0.0713 -0.2517 -0.5784
  281MOL0     C37005   7.670   0.354   9.108 -0.6006 -0.0610 -0.4695
  281MOL0     C37006   7.804   0.314   9.130 -0.2236  0.4060 -0.3149
  281MOL0     O37007   8.051   0.441   9.388  0.6468  0.1350  0.4730
  281MOL0     C37008   8.332   0.441   9.192 -0.1070 -0.2619 -0.7250
  281MOL0     C37009   8.470   0.450   9.211 -0.5022  0.4771  0.8513
  281MOL0     N37010   9.093   0.037   9.720  0.1904  0.2768 -0.3370
  281MOL0     N37011   9.194   0.025   9.794 -0.0323  0.2387  1.0334
  281MOL0     C37012  10.414   0.388   9.765 -0.0883 -1.0140  0.7349
  281MOL0     C37013  10.552   0.369   9.754 -0.1030  0.3230  0.5469
  281MOL0     C37014  10.925   0.297   9.449 -0.1510 -0.5997 -1.2980
  281MOL0     C37015  10.993   0.333   9.333  0.5615  0.9627  0.7229
  281MOL0     C37016  11.113   0.268   9.296  0.2977 -0.5831  0.7387
  281MOL0     C37017  11.187   0.189   9.385 -0.1883  0.2934 -0.4711
  281MOL0     O37018  11.311   0.132   9.369 -0.0749  0.4021 -0.6483
  281MOL0     C37019  11.393   0.179   9.259 -0.1388  0.2753 -0.1684
  281MOL0     C37020  11.511   0.097   9.239 -0.4574  0.1550  0.1768
  281MOL0     C37021  11.596   0.098   9.370  0.5313  0.6328  0.1972
  281MOL0     C37022  11.738   0.021   9.370 -0.0006 -0.1737  0.2208
  281MOL0     C37023  11.731  -0.101   9.291  0.5659 -0.0113  0.4440
  281MOL0     C37024  11.741  -0.196   9.215  0.0175  0.2716 -0.1609
  281MOL0     C37025  11.132   0.163   9.504 -0.6034 -0.5022 -0.6514
  281MOL0     C37026  11.000   0.208   9.534 -0.2522  0.5093  0.1505
  281MOL0     H37027  10.542   0.233   9.441  0.3596 -0.5780 -0.4539
  281MOL0     H37028  10.298   0.271   9.471  1.9187 -1.4709 -0.2825
  281MOL0     H37029  10.167   0.184   9.631  1.6753  1.0753 -0.4008
  281MOL0     H37030  10.042   0.296   9.579  0.5124 -0.9341 -0.7352
  281MOL0     H37031  10.095   0.226   9.872  0.3625 -0.5658 -0.6609
  281MOL0     H37032   9.998   0.131   9.758  1.7297  0.0913 -1.8464
  281MOL0     H37033   9.856   0.329   9.716  0.1831  2.7252 -0.1200
  281MOL0     H37034   9.945   0.423   9.831 -0.3146  0.3772 -2.3702
  281MOL0     H37035   9.866   0.291  10.018 -1.8537  3.8056  0.2626
  281MOL0     H37036   9.747   0.362   9.914  1.1959  2.1009  3.6328
  281MOL0     H37037   9.701   0.135  10.005  0.8092  0.3596  0.4898
  281MOL0     H37038   9.834   0.065   9.916 -0.6326 -0.8174  0.8984
  281MOL0     H37039   9.722   0.054   9.720 -3.6187 -3.8842 -0.0548
  281MOL0     H37040   9.648   0.219   9.740 -4.6903 -0.8388 -0.0474
  281MOL0     H37041   9.506   0.029   9.685  2.3908  1.8427 -1.6029
  281MOL0     H37042   9.527  -0.033   9.850 -0.7256  0.2313 -0.3894
  281MOL0     H37043   9.442   0.251   9.828  1.0183 -0.2927 -1.9207
  281MOL0     H37044   9.400   0.127   9.948 -2.2698 -1.4179 -0.0144
  281MOL0     H37045   9.279   0.281   9.610  0.3960 -0.3518  1.2034
  281MOL0     H37046   8.931   0.110   9.525  0.5471 -0.8849 -1.6383
  281MOL0     H37047   9.061   0.198   9.427  1.3482  0.6970  1.0927
  281MOL0     H37048   9.040   0.375   9.603  0.7111 -0.4769 -0.5133
  281MOL0     H37049   8.897   0.307   9.655 -0.0256  0.5643 -0.3446
  281MOL0     H37050   8.880   0.493   9.454 -2.5656  0.1087  0.5074
  281MOL0     H37051   8.929   0.371   9.349 -0.4064  1.4508 -0.0584
  281MOL0     H37052   8.680   0.374   9.542 -1.3573 -1.7890 -1.3615
  281MOL0     H37053   8.726   0.242   9.433 -1.6452  0.3665 -1.6946
  281MOL0     H37054   8.477   0.308   9.524 -2.9327  3.7256  2.8991
  281MOL0     H37055   8.236   0.293   9.477 -0.0767  1.4072  2.1531
  281MOL0     H37056   7.932   0.629   9.185 -2.4595  1.7644  0.2800
  281MOL0     H37057   7.726   0.695   9.142  1.2874 -0.0593  1.6551
  281MOL0     H37058   7.390   0.382   9.181 -1.8962  0.2029 -0.6776
  281MOL0     H37059   7.389   0.411   9.004 -2.9292 -0.3920 -0.8825
  281MOL0     H37060   7.268   0.586   9.230  2.3163  2.2263 -1.4732
  281MOL0     H37061   7.189   0.473   9.124  0.8446 -0.8107 -1.2722
  281MOL0     H37062   7.223   0.602   8.935 -2.4052  2.4569 -0.1183
  281MOL0     H37063   7.350   0.713   9.029  0.4380 -0.2338  1.7527
  281MOL0     H37064   7.151   0.790   9.160 -2.7257 -2.4443 -0.0430
  281MOL0     H37065   7.162   0.845   8.992 -1.3362 -0.9396 -1.5898
  281MOL0     H37066   6.977   0.613   9.090 -1.6240  1.7512  2.2573
  281MOL0     H37067   6.983   0.675   8.930 -2.3282  0.2846  1.0611
  281MOL0     H37068   6.901   0.887   9.001  1.2040  1.0574  1.6432
  281MOL0     H37069   6.912   0.841   9.177  0.5815  2.3480 -0.5473
  281MOL0     H37070   6.725   0.748   8.960 -2.1918  1.9723  0.5442
  281MOL0     H37071   6.747   0.656   9.105  2.6769 -1.2702 -1.1325
  281MOL0     H37072   6.621   0.924   9.082  0.9393  0.8525  1.6033
  281MOL0     H37073   6.682   0.873   9.240  0.2681  2.7882 -0.6198
  281MOL0     H37074   7.589   0.290   9.075 -4.1851  4.4741 -1.5355
  281MOL0     H37075   7.824   0.208   9.131 -0.8492  0.2641 -1.5388
  281MOL0     H37076   8.289   0.474   9.098 -0.0591 -4.2471 -2.3756
  281MOL0     H37077   8.539   0.483   9.135 -0.0782 -0.6265  0.7521
  281MOL0     H37078  10.360   0.410   9.856 -0.7474  0.1165  0.1027
  281MOL0     H37079  10.624   0.390   9.832 -0.0855  2.8236 -0.0623
  281MOL0     H37080  10.956   0.396   9.252  0.3188  1.9346  1.5704
  281MOL0     H37081  11.150   0.293   9.198 -1.2743 -1.0223  0.0024
  281MOL0     H37082  11.429   0.281   9.274  2.1195 -0.5043  0.2588
  281MOL0     H37083  11.322   0.170   9.176 -2.7223  0.0774  1.9493
  281MOL0     H37084  11.479  -0.006   9.220 -1.5145  0.5376 -0.2155
  281MOL0     H37085  11.578   0.139   9.163  0.4898  2.3840  2.0847
  281MOL0     H37086  11.533   0.046   9.443  1.0772  0.6191  0.6717
  281MOL0     H37087  11.610   0.200   9.407 -1.5835 -0.0794  3.4239
  281MOL0     H37088  11.830   0.074   9.342  0.3871 -0.4637  0.9056
  281MOL0     H37089  11.762  -0.003   9.474 -2.3946 -0.0089  0.8701
  281MOL0     H37090  11.752  -0.277   9.147  2.3228  1.3974 -1.2571
  281MOL0     H37091  11.176   0.102   9.583 -2.7513 -0.3681  0.7250
  281MOL0     H37092  10.952   0.168   9.623  2.3468 -0.4949  1.1920
  282MOL0     O37093   3.089   7.804  10.212 -1.1974  0.3275  0.2033
  282MOL0     C37094   3.184   7.765  10.146 -0.1725  0.8315  0.2943
  282MOL0     O37095   3.195   7.639  10.098 -0.8173  0.6967  0.3290
  282MOL0     C37096   3.085   7.550  10.115 -0.1484  0.6805  0.4765
  282MOL0     C37097   3.028   7.519  10.240 -0.2578  0.7970 -0.2208
  282MOL0     C37098   2.921   7.423  10.242 -1.6223 -0.0230 -0.1529
  282MOL0     C37099   2.872   7.372  10.126 -0.2479 -1.1473  0.3842
  282MOL0     O37100   2.780   7.263  10.124 -0.5604 -0.9600 -0.9112
  282MOL0     C37101   2.647   7.303  10.109 -0.7776  0.8142  0.0400
  282MOL0     C37102   2.580   7.359  10.238  0.7101 -0.1799 -0.6360
  282MOL0     C37103   2.548   7.249  10.330  0.0581  0.3530 -0.1502
  282MOL0     C37104   2.491   7.286  10.467 -0.0021 -1.3851  0.2669
  282MOL0     C37105   2.364   7.370  10.449  0.0739  0.0505  0.6169
  282MOL0     C37106   2.252   7.354  10.557 -0.4042 -0.3950 -0.7623
  282MOL0     C37107   2.288   7.429  10.688  0.0917 -0.4818 -0.0460
  282MOL0     C37108   2.188   7.403  10.806  0.2482  0.3546  0.3101
  282MOL0     N37109   2.056   7.456  10.776 -0.0774 -0.5624 -0.6026
  282MOL0     C37110   2.032   7.596  10.788 -0.0190  0.5471 -0.5207
  282MOL0     C37111   1.918   7.620  10.716  0.0268 -0.7507 -0.3016
  282MOL0     C37112   1.850   7.756  10.730 -0.0258 -0.6037  0.8652
  282MOL0     C37113   1.874   7.856  10.621  0.0869  0.2033 -0.3865
  282MOL0     C37114   1.806   7.991  10.646 -0.1520 -0.2122 -0.4874
  282MOL0     C37115   1.836   8.103  10.548 -0.1566 -0.8179 -0.8000
  282MOL0     O37116   1.769   8.085  10.421 -0.0938  0.0600 -0.8380
  282MOL0     C37117   1.632   8.098  10.408  0.4796  0.3905  0.1807
  282MOL0     C37118   1.540   8.130  10.515  0.1169 -0.4131  0.3817
  282MOL0     C37119   1.399   8.134  10.499  0.5513 -0.2530  0.0890
  282MOL0     C37120   1.347   8.109  10.369 -0.5178 -0.5194  0.3909
  282MOL0     C37121   1.205   8.113  10.337 -0.4058  0.7981  0.6551
  282MOL0     O37122   1.122   8.145  10.443  0.4049 -0.1439  0.4549
  282MOL0     C37123   0.991   8.183  10.411  0.1232  0.1852  0.3649
  282MOL0     C37124   0.961   8.254  10.294  0.1762 -0.1912 -0.2649
  282MOL0     C37125   0.834   8.311  10.275  0.0167 -0.4650  0.2622
  282MOL0     C37126   0.733   8.284  10.372  0.3433  0.2742  0.2352
  282MOL0     O37127   0.598   8.329  10.371 -0.0353 -0.1492 -0.2929
  282MOL0     C37128   0.544   8.383  10.252 -0.8783  0.5142 -0.1210
  282MOL0     C37129   0.440   8.485  10.293  0.1682  0.7633  0.2857
  282MOL0     C37130   0.313   8.444  10.364  0.1713  0.9818 -0.7230
  282MOL0     C37131   0.226   8.366  10.272  0.2633 -0.4060  0.4528
  282MOL0     C37132   0.096   8.317  10.331  0.3533  0.2803  0.5802
  282MOL0     C37133   0.015   8.218  10.237 -0.2896  0.9091  0.0302
  282MOL0     C37134  -0.137   8.205  10.281 -0.6785 -1.4915  0.6134
  282MOL0     C37135  -0.224   8.323  10.246 -1.0985 -1.7732 -0.5756
  282MOL0    Cl37136  -0.231   8.355  10.076 -0.3784 -0.4289  0.2911
  282MOL0     C37137   0.762   8.208  10.488 -0.1471  0.2123 -0.0958
  282MOL0     C37138   0.892   8.158  10.507 -0.0050  0.0213 -0.3550
  282MOL0     O37139   1.170   8.072  10.226 -0.4036  0.1128  0.0401
  282MOL0     C37140   1.434   8.086  10.260  0.3362 -1.1419  0.6016
  282MOL0     C37141   1.573   8.061  10.288  0.7749  0.3254  0.5571
  282MOL0     N37142   1.874   7.499  10.666  0.4735  0.1654 -0.0571
  282MOL0     N37143   1.960   7.410  10.691 -0.1644  0.7752  0.0098
  282MOL0     C37144   2.930   7.408   9.999 -0.2916  0.9476  0.0281
  282MOL0     C37145   3.036   7.503   9.997  0.7229 -0.4100  0.3626
  282MOL0     C37146   3.304   7.852  10.139  0.0792 -0.4515  1.1934
  282MOL0     C37147   3.419   7.804  10.080  0.2196 -0.1766 -0.1593
  282MOL0     C37148   3.535   7.882  10.061 -0.0437  0.3188 -0.6073
  282MOL0     C37149   3.536   8.011  10.126  0.4173 -0.6827  0.7294
  282MOL0     O37150   3.651   8.091  10.129  0.5966 -0.1578 -0.1184
  282MOL0     C37151   3.773   8.032  10.081 -0.3082 -0.6825 -0.3721
  282MOL0     C37152   3.883   8.138  10.061 -0.3603 -0.0556 -0.7869
  282MOL0     C37153   4.008   8.057  10.027 -0.5198  0.4253  0.9455
  282MOL0     C37154   4.136   8.142  10.035 -0.6131  0.5455 -0.2053
  282MOL0     C37155   4.172   8.175  10.173  0.1439  0.1656 -0.8513
  282MOL0     C37156   4.208   8.170  10.282 -0.4036  1.2370 -0.7260
  282MOL0     C37157   3.418   8.065  10.175 -0.5821  0.1548 -0.6116
  282MOL0     C37158   3.300   7.987  10.177 -0.3449 -0.7782 -0.8802
  282MOL0     H37159   3.064   7.573  10.326 -1.2063  2.0885 -0.5969
  282MOL0     H37160   2.869   7.393  10.333 -2.0236  2.9760  0.6996
  282MOL0     H37161   2.588   7.219  10.073 -3.3904  2.5588 -0.0649
  282MOL0     H37162   2.657   7.384  10.035  1.4335 -0.3173 -0.9893
  282MOL0     H37163   2.486   7.411  10.216  1.0655  1.7424  1.8907
  282MOL0     H37164   2.640   7.439  10.282 -0.1390  0.0679  0.1141
  282MOL0     H37165   2.634   7.181  10.335 -1.3074 -1.3892  0.9675
  282MOL0     H37166   2.471   7.192  10.277  0.3502 -0.5515  0.3686
  282MOL0     H37167   2.470   7.198  10.529 -1.0828  0.6983  3.0743
  282MOL0     H37168   2.563   7.348  10.521 -0.1847  2.1501 -3.1349
  282MOL0     H37169   2.312   7.337  10.358 -2.6911  3.1869  0.8270
  282MOL0     H37170   2.394   7.474  10.433 -2.5814  0.6295 -1.4162
  282MOL0     H37171   2.238   7.246  10.567  1.4399 -0.6047 -0.2514
  282MOL0     H37172   2.161   7.408  10.527 -1.6719 -0.9351  1.8133
  282MOL0     H37173   2.382   7.396  10.732  0.6465 -0.3360 -1.1142
  282MOL0     H37174   2.296   7.535  10.661 -1.6977 -0.2236  0.2722
  282MOL0     H37175   2.231   7.455  10.892  3.2688  0.4372 -1.1197
  282MOL0     H37176   2.190   7.297  10.835  4.0780  1.0284  3.3292
  282MOL0     H37177   2.093   7.665  10.847  0.1824 -0.0466 -0.0296
  282MOL0     H37178   1.880   7.811  10.819 -0.2538 -0.4716  0.8591
  282MOL0     H37179   1.746   7.724  10.731  0.1591 -1.2900  0.0129
  282MOL0     H37180   1.827   7.807  10.535  1.6133 -0.7764 -0.7014
  282MOL0     H37181   1.979   7.868  10.591  0.3195 -0.9434 -0.0602
  282MOL0     H37182   1.698   7.974  10.656 -0.1224 -1.2914 -1.7965
  282MOL0     H37183   1.839   8.021  10.746  0.1461 -2.4693  0.1340
  282MOL0     H37184   1.942   8.116  10.524 -0.3466  0.7907 -0.9054
  282MOL0     H37185   1.800   8.197  10.592 -1.2761 -1.6084  0.0306
  282MOL0     H37186   1.591   8.153  10.608  1.1469 -1.0135 -0.0105
  282MOL0     H37187   1.335   8.157  10.583  0.3574  0.9211 -0.3584
  282MOL0     H37188   1.041   8.274  10.223  0.2894 -2.6346 -0.9161
  282MOL0     H37189   0.819   8.383  10.195 -2.2799 -1.5326 -0.3431
  282MOL0     H37190   0.516   8.304  10.182 -0.5475  2.0263 -2.0576
  282MOL0     H37191   0.621   8.432  10.192 -0.5674 -2.0245 -1.9272
  282MOL0     H37192   0.414   8.530  10.197  1.5064 -0.9313 -0.9246
  282MOL0     H37193   0.493   8.557  10.357 -0.7530  0.8889  0.9298
  282MOL0     H37194   0.259   8.533  10.398  1.8948  1.8034 -0.0337
  282MOL0     H37195   0.344   8.395  10.457  0.3770 -0.4418 -1.5230
  282MOL0     H37196   0.210   8.432  10.187 -0.9336 -1.3219 -0.0710
  282MOL0     H37197   0.280   8.280  10.233 -0.7454 -1.0876  0.5049
  282MOL0     H37198   0.035   8.401  10.367 -0.4394 -0.3579  0.7748
  282MOL0     H37199   0.125   8.256  10.417  3.3157  0.6315 -0.0576
  282MOL0     H37200   0.062   8.119  10.233 -2.4627 -0.1581 -1.1243
  282MOL0     H37201   0.026   8.258  10.136  1.1728 -0.3710 -0.3701
  282MOL0     H37202  -0.182   8.115  10.238  1.3893 -1.3649 -2.1052
  282MOL0     H37203  -0.132   8.189  10.390 -0.5763 -1.4434  0.6166
  282MOL0     H37204  -0.192   8.414  10.297 -3.0723 -1.2000 -0.2690
  282MOL0     H37205  -0.324   8.303  10.286 -0.7024 -1.7736  0.4449
  282MOL0     H37206   0.680   8.184  10.555 -0.2597  0.6886 -0.0569
  282MOL0     H37207   0.932   8.114  10.597 -1.5984 -1.4990 -0.3648
  282MOL0     H37208   1.391   8.062  10.163  2.9678  1.9259 -1.4833
  282MOL0     H37209   1.632   8.018  10.207  1.1863  0.0313  1.0105
  282MOL0     H37210   2.893   7.365   9.907  2.5764  0.4280 -0.9922
  282MOL0     H37211   3.091   7.531   9.908 -0.1898 -2.0578 -0.7609
  282MOL0     H37212   3.415   7.704  10.039 -3.7639 -1.9725  3.8920
  282MOL0     H37213   3.610   7.831  10.002 -0.5897 -0.8274 -0.3222
  282MOL0     H37214   3.752   7.997   9.979 -2.6280 -3.7125  0.9849
  282MOL0     H37215   3.802   7.942  10.137 -0.0673 -1.3556 -1.5443
  282MOL0     H37216   3.853   8.218   9.992 -2.2021  0.3739  0.4583
  282MOL0     H37217   3.890   8.193  10.155 -0.6863  2.5795 -2.2091
  282MOL0     H37218   3.998   8.022   9.924 -1.8640 -1.6088  1.7106
  282MOL0     H37219   4.016   7.964  10.083 -1.4841 -0.4363 -0.3234
  282MOL0     H37220   4.218   8.088   9.986  0.1544  0.7755  0.7928
  282MOL0     H37221   4.125   8.237   9.984 -2.9661  0.8539  0.7599
  282MOL0     H37222   4.232   8.156  10.385  3.1595  0.8077 -1.4933
  282MOL0     H37223   3.427   8.167  10.212 -1.0479 -0.6983  2.0381
  282MOL0     H37224   3.210   8.034  10.216 -1.2878 -4.1641  1.3941
  283MOL0     O37225   1.510   1.626   1.443 -0.1026  0.3495 -0.3824
  283MOL0     C37226   1.598   1.556   1.392 -0.5261  1.3969  0.1749
  283MOL0     O37227   1.593   1.505   1.260  0.1706  0.8575 -0.4149
  283MOL0     C37228   1.474   1.516   1.194  0.8638 -0.1991  0.0105
  283MOL0     C37229   1.464   1.620   1.099 -0.0631 -0.8678 -0.7238
  283MOL0     C37230   1.353   1.614   1.013  0.3983  0.8923  0.1438
  283MOL0     C37231   1.255   1.518   1.025  0.1870  0.7912  0.5129
  283MOL0     O37232   1.147   1.513   0.938 -0.4518  0.2365  0.7270
  283MOL0     C37233   1.046   1.409   0.942 -0.1851 -1.2541  1.4090
  283MOL0     C37234   0.955   1.441   0.819 -0.7966 -0.3173 -1.8399
  283MOL0     C37235   0.818   1.375   0.832  0.4951  0.3583 -0.2132
  283MOL0     C37236   0.824   1.224   0.802  0.2136 -0.7694 -0.3749
  283MOL0     C37237   0.687   1.162   0.803 -0.8940 -0.5954 -0.2521
  283MOL0     C37238   0.693   1.022   0.733  0.1665  0.3220 -0.4900
  283MOL0     C37239   0.565   0.932   0.726  0.3866 -1.1964 -0.1172
  283MOL0     C37240   0.476   0.991   0.606 -0.4200 -0.9247 -0.3342
  283MOL0     N37241   0.342   0.926   0.611  0.2161  0.0647  0.4869
  283MOL0     C37242   0.326   0.787   0.614  0.0532 -0.1376  0.3967
  283MOL0     C37243   0.199   0.765   0.660 -0.2081 -0.1240 -0.1064
  283MOL0     C37244   0.129   0.641   0.700  0.3664  0.0965 -0.5535
  283MOL0     C37245   0.044   0.579   0.596  0.8507 -0.3714  0.0253
  283MOL0     C37246   0.006   0.433   0.624  0.0359 -0.0221 -0.5007
  283MOL0     C37247  -0.124   0.391   0.557  0.2698  0.5178  0.8304
  283MOL0     O37248  -0.233   0.440   0.648 -0.7050  0.1978 -0.4321
  283MOL0     C37249  -0.363   0.425   0.600 -0.8454  0.4785 -1.4876
  283MOL0     C37250  -0.409   0.337   0.500  0.4379  0.2037 -0.1446
  283MOL0     C37251  -0.549   0.322   0.462 -0.2731 -0.2196 -0.5529
  283MOL0     C37252  -0.645   0.396   0.536 -0.1630  0.0933 -0.0392
  283MOL0     C37253  -0.793   0.383   0.506 -0.6362 -0.1770 -0.0000
  283MOL0     O37254  -0.885   0.421   0.601 -0.7508 -0.4562  0.7598
  283MOL0     C37255  -1.014   0.389   0.567  0.5018  0.4603  0.0372
  283MOL0     C37256  -1.090   0.479   0.493  0.7766  0.1292  0.2820
  283MOL0     C37257  -1.224   0.436   0.463 -0.4475  0.2572 -0.5368
  283MOL0     C37258  -1.274   0.312   0.511 -0.0062 -0.9192 -0.0089
  283MOL0     O37259  -1.405   0.295   0.472  0.1372  0.1148  0.6301
  283MOL0     C37260  -1.481   0.197   0.532 -0.1934  0.6283  0.1135
  283MOL0     C37261  -1.628   0.175   0.474  0.3551 -0.5686  0.4698
  283MOL0     C37262  -1.709   0.053   0.520 -0.2849  0.6812 -0.0125
  283MOL0     C37263  -1.849   0.070   0.456  0.5602 -0.1228  1.0533
  283MOL0     C37264  -1.868   0.045   0.307  0.6940  0.1708 -0.3714
  283MOL0     C37265  -1.847  -0.097   0.254 -0.4993  0.5278  0.3270
  283MOL0     C37266  -1.856  -0.095   0.103  0.1207  0.5740  0.6874
  283MOL0     C37267  -1.870  -0.224   0.024  1.9748  0.7829  0.2588
  283MOL0    Cl37268  -2.044  -0.286   0.039 -0.4644  0.1087  0.4082
  283MOL0     C37269  -1.190   0.226   0.589  0.2992  0.0195  0.0282
  283MOL0     C37270  -1.059   0.264   0.613  0.2849 -0.7423  0.1815
  283MOL0     O37271  -0.819   0.326   0.397  0.2326 -0.6363  0.3638
  283MOL0     C37272  -0.600   0.492   0.625 -0.0957 -0.1087 -0.8097
  283MOL0     C37273  -0.463   0.499   0.661  0.5091  0.5838  0.1157
  283MOL0     N37274   0.145   0.887   0.686  0.8893  0.2265 -0.8220
  283MOL0     N37275   0.233   0.981   0.675 -0.0129 -0.0544 -0.0893
  283MOL0     C37276   1.256   1.435   1.140  0.6128 -0.6897  0.3988
  283MOL0     C37277   1.363   1.431   1.213 -0.6344 -0.1195 -0.3065
  283MOL0     C37278   1.722   1.518   1.463 -0.6037  0.1336  0.2812
  283MOL0     C37279   1.767   1.588   1.585 -0.2573 -0.5880  0.5034
  283MOL0     C37280   1.880   1.546   1.647  0.2928 -0.3357 -0.0828
  283MOL0     C37281   1.971   1.454   1.592 -0.4400  0.8180  0.8052
  283MOL0     O37282   2.093   1.437   1.658  0.4866  0.9725  0.2888
  283MOL0     C37283   2.155   1.313   1.626 -0.6626  0.4302  1.3055
  283MOL0     C37284   2.079   1.191   1.672 -0.5604 -0.0566  0.2921
  283MOL0     C37285   2.112   1.137   1.810  0.0892  0.2543  0.2940
  283MOL0     C37286   2.059   1.235   1.924 -0.5999  0.3136 -0.2851
  283MOL0     C37287   2.171   1.316   1.975 -1.1191 -0.8085  0.2514
  283MOL0     C37288   2.261   1.375   2.034 -0.1203 -0.2314 -0.4790
  283MOL0     C37289   1.924   1.398   1.468 -0.6256  0.2109  0.7860
  283MOL0     C37290   1.809   1.428   1.405 -0.5067  0.4871 -0.0774
  283MOL0     H37291   1.533   1.698   1.068 -3.2177  0.4935 -5.5003
  283MOL0     H37292   1.354   1.676   0.924  2.2689  0.3989 -0.2189
  283MOL0     H37293   0.983   1.417   1.031  0.4355  1.7590  1.6923
  283MOL0     H37294   1.087   1.308   0.932  0.1812 -0.9798 -0.2494
  283MOL0     H37295   1.014   1.408   0.733 -2.2212 -2.0965 -2.1886
  283MOL0     H37296   0.949   1.550   0.821  2.7123 -0.0090 -0.2753
  283MOL0     H37297   0.749   1.421   0.761 -1.0247  0.0373  1.0163
  283MOL0     H37298   0.779   1.390   0.933  0.0659 -2.8596  0.2112
  283MOL0     H37299   0.877   1.210   0.707  0.3279  1.0538 -0.6226
  283MOL0     H37300   0.886   1.173   0.875 -0.1904 -0.7202  0.0078
  283MOL0     H37301   0.625   1.235   0.752  0.7496  1.5741  0.6938
  283MOL0     H37302   0.663   1.144   0.908 -0.0217  1.0412  0.2591
  283MOL0     H37303   0.771   0.956   0.771 -2.1001 -0.6730  2.8098
  283MOL0     H37304   0.732   1.045   0.633  3.4897  2.4688  1.1191
  283MOL0     H37305   0.586   0.826   0.715 -0.1269 -1.2898 -0.2509
  283MOL0     H37306   0.508   0.951   0.817  1.3572 -0.5360  0.3611
  283MOL0     H37307   0.537   0.978   0.517  1.0864  1.6025  0.2212
  283MOL0     H37308   0.459   1.098   0.617  0.9026 -0.6988 -0.3210
  283MOL0     H37309   0.404   0.712   0.602 -0.1000 -0.1932 -0.3017
  283MOL0     H37310   0.067   0.667   0.786  2.2284 -0.0057  0.8821
  283MOL0     H37311   0.212   0.573   0.726  0.9680  1.4666  1.3132
  283MOL0     H37312   0.093   0.580   0.498 -2.3347 -1.8612 -1.7318
  283MOL0     H37313  -0.053   0.629   0.601  0.1477 -1.6012 -0.9499
  283MOL0     H37314   0.084   0.374   0.577  0.4532  1.7427 -2.1387
  283MOL0     H37315  -0.001   0.406   0.730 -0.6320  0.3088 -0.4492
  283MOL0     H37316  -0.129   0.283   0.546 -1.6068  0.7230 -0.9110
  283MOL0     H37317  -0.137   0.445   0.463  1.4511 -1.9621 -0.8456
  283MOL0     H37318  -0.337   0.287   0.437  0.8017  1.6902 -0.9442
  283MOL0     H37319  -0.579   0.240   0.398 -0.0660  0.1019 -1.0699
  283MOL0     H37320  -1.058   0.577   0.459 -0.3319 -0.3606 -2.3997
  283MOL0     H37321  -1.288   0.496   0.399 -3.2549  0.6468  2.3855
  283MOL0     H37322  -1.489   0.205   0.641  0.6381  1.5145  0.1205
  283MOL0     H37323  -1.432   0.100   0.520 -2.0757 -0.5587  1.4327
  283MOL0     H37324  -1.626   0.183   0.365 -4.6378  4.5178  0.3272
  283MOL0     H37325  -1.678   0.265   0.510  1.0032 -0.2168  0.5060
  283MOL0     H37326  -1.717   0.047   0.629  2.7794  1.3878  0.3602
  283MOL0     H37327  -1.674  -0.043   0.483 -1.6123 -0.1706  0.8505
  283MOL0     H37328  -1.922   0.008   0.510 -0.9987 -0.6887 -1.5590
  283MOL0     H37329  -1.880   0.174   0.465  2.1709  0.2691  2.8435
  283MOL0     H37330  -1.786   0.105   0.265  1.1276 -0.0526  0.1378
  283MOL0     H37331  -1.970   0.073   0.281  0.9240  1.9318  0.5200
  283MOL0     H37332  -1.932  -0.154   0.293 -0.5464  0.8903  0.7796
  283MOL0     H37333  -1.751  -0.135   0.289  0.0734  2.0040  0.4403
  283MOL0     H37334  -1.946  -0.041   0.070 -0.3620 -0.3917  0.3953
  283MOL0     H37335  -1.768  -0.041   0.068  0.2504  0.4503  0.8226
  283MOL0     H37336  -1.801  -0.302   0.057 -0.2188 -1.2849  0.2197
  283MOL0     H37337  -1.855  -0.220  -0.085 -1.1283  1.0229 -0.2509
  283MOL0     H37338  -1.233   0.133   0.625  1.8954 -0.5398  0.5702
  283MOL0     H37339  -0.989   0.195   0.659  0.9629 -2.0283 -2.5828
  283MOL0     H37340  -0.679   0.546   0.677  0.3113 -1.4949  1.3770
  283MOL0     H37341  -0.423   0.566   0.736  2.9618 -1.6229  0.8940
  283MOL0     H37342   1.174   1.366   1.157  0.2943 -0.7238 -1.0724
  283MOL0     H37343   1.368   1.355   1.290 -0.1236  0.8485  0.6452
  283MOL0     H37344   1.710   1.673   1.622  1.5407  0.6893  0.5191
  283MOL0     H37345   1.909   1.601   1.736  0.9968 -1.1983  0.2379
  283MOL0     H37346   2.254   1.304   1.671 -0.7529 -0.9167  1.2759
  283MOL0     H37347   2.181   1.316   1.519 -0.4347  1.5854  1.3779
  283MOL0     H37348   1.970   1.201   1.678 -0.5066  1.4818 -0.7644
  283MOL0     H37349   2.102   1.107   1.605  0.8282 -1.6634  2.6112
  283MOL0     H37350   2.221   1.137   1.823  0.4199  1.1945 -2.0979
  283MOL0     H37351   2.079   1.035   1.832  0.4275  0.0896  0.0477
  283MOL0     H37352   1.981   1.304   1.888  0.0000  1.5798  0.7610
  283MOL0     H37353   2.008   1.176   2.001  0.4739 -0.9438 -0.5104
  283MOL0     H37354   2.348   1.412   2.084  0.0213 -2.9275  1.4539
  283MOL0     H37355   1.994   1.329   1.422  1.9595  3.1967 -0.0880
  283MOL0     H37356   1.785   1.381   1.310 -0.3151 -0.0829  0.1558
  284MOL0     O37357   3.952   1.247  11.042 -0.4690  0.1373  0.0160
  284MOL0     C37358   4.057   1.323  11.043 -0.5088  0.2471 -0.2540
  284MOL0     O37359   4.054   1.459  11.036  0.3213 -1.1589  0.3260
  284MOL0     C37360   3.941   1.536  11.002  0.5233  0.4285 -0.1276
  284MOL0     C37361   3.849   1.490  10.905  0.5038  0.5449 -0.1805
  284MOL0     C37362   3.732   1.561  10.882  0.5060  0.0823 -0.6440
  284MOL0     C37363   3.708   1.689  10.940  0.2579  0.0475  0.0710
  284MOL0     O37364   3.586   1.753  10.913  0.3121  0.3995  0.0382
  284MOL0     C37365   3.473   1.693  10.970 -0.6188  0.8011 -0.0955
  284MOL0     C37366   3.344   1.754  10.936 -0.3228 -0.0174 -0.5129
  284MOL0     C37367   3.224   1.687  11.000 -0.4579  0.0611 -0.5218
  284MOL0     C37368   3.092   1.745  10.967  0.4190  0.5667 -0.4119
  284MOL0     C37369   2.986   1.652  11.019 -0.0830 -0.3674 -0.1116
  284MOL0     C37370   2.865   1.648  10.938  0.0665  0.1285  1.0330
  284MOL0     C37371   2.756   1.571  11.013  0.2886  0.3801  0.6074
  284MOL0     C37372   2.627   1.585  10.933 -0.0071  0.2517  0.2451
  284MOL0     N37373   2.649   1.521  10.795 -0.0761 -0.8759  0.3739
  284MOL0     C37374   2.690   1.389  10.768  0.2162 -0.2767 -0.2493
  284MOL0     C37375   2.691   1.376  10.633  0.8052 -0.1480 -0.1137
  284MOL0     C37376   2.712   1.247  10.566 -0.7994 -0.1032  0.4997
  284MOL0     C37377   2.848   1.178  10.573 -0.0906 -0.1836  0.2060
  284MOL0     C37378   2.863   1.068  10.461 -0.3209  0.1750  0.9879
  284MOL0     C37379   3.010   1.030  10.455  0.2069 -0.1811  0.6877
  284MOL0     O37380   3.041   0.969  10.579 -0.1507  0.5483  0.1664
  284MOL0     C37381   3.162   0.948  10.631 -0.4916  0.7079 -0.3607
  284MOL0     C37382   3.159   0.895  10.759 -0.5936  0.2963 -0.3600
  284MOL0     C37383   3.281   0.856  10.822 -0.0386  0.7589 -0.1208
  284MOL0     C37384   3.404   0.857  10.757 -0.0518 -0.6244  0.3692
  284MOL0     C37385   3.528   0.808  10.817  0.0593  0.7357  0.3926
  284MOL0     O37386   3.553   0.860  10.933 -0.0334 -0.3479 -0.2538
  284MOL0     C37387   3.663   0.820  11.006  0.2512  0.3880 -0.1119
  284MOL0     C37388   3.679   0.690  11.055 -0.1683  0.2620  0.3695
  284MOL0     C37389   3.786   0.654  11.134 -0.5367  0.1838 -1.7873
  284MOL0     C37390   3.888   0.750  11.173  0.7073  0.0737  0.8316
  284MOL0     O37391   3.989   0.725  11.275 -0.4936  0.9362  0.4987
  284MOL0     C37392   4.014   0.588  11.318  1.1041  0.1995 -0.0871
  284MOL0     C37393   4.124   0.583  11.425  0.2565  0.5912 -1.0797
  284MOL0     C37394   4.264   0.596  11.359 -0.3550 -0.1615  0.0650
  284MOL0     C37395   4.380   0.549  11.452 -0.0144 -0.0924 -0.3528
  284MOL0     C37396   4.517   0.562  11.373 -0.6143 -0.0367 -0.0392
  284MOL0     C37397   4.643   0.530  11.454  0.3188 -0.0546 -0.6021
  284MOL0     C37398   4.767   0.533  11.362  0.0259 -0.1195 -0.8491
  284MOL0     C37399   4.892   0.492  11.440 -0.3637  0.2398 -0.0054
  284MOL0    Cl37400   5.028   0.488  11.332 -0.2620  0.1872  0.2172
  284MOL0     C37401   3.868   0.875  11.115  0.4476 -0.4910  0.7306
  284MOL0     C37402   3.761   0.909  11.036 -0.4510  0.2915 -0.7703
  284MOL0     O37403   3.607   0.740  10.747 -0.7021 -0.1419  0.2712
  284MOL0     C37404   3.412   0.905  10.625 -0.3305 -0.1940 -0.7687
  284MOL0     C37405   3.296   0.961  10.565  0.1434  0.3930 -0.5387
  284MOL0     N37406   2.680   1.507  10.585  0.0193  0.0465 -0.2499
  284MOL0     N37407   2.663   1.593  10.681  0.1767 -0.6293 -0.4148
  284MOL0     C37408   3.793   1.736  11.029 -0.3507  0.3964 -0.1342
  284MOL0     C37409   3.907   1.660  11.068 -0.0276  0.0370  0.3912
  284MOL0     C37410   4.190   1.263  11.065  0.7085 -0.3155 -0.0467
  284MOL0     C37411   4.203   1.133  11.106 -0.6711  1.0178 -0.0031
  284MOL0     C37412   4.327   1.069  11.112  0.2702 -0.1964 -0.6573
  284MOL0     C37413   4.442   1.138  11.083 -0.4469 -0.1655  0.7232
  284MOL0     O37414   4.558   1.072  11.091  0.2124  0.4852  0.4487
  284MOL0     C37415   4.672   1.112  11.022 -0.9826 -0.2648 -0.0603
  284MOL0     C37416   4.738   0.978  10.960  0.0427  0.5791 -0.0345
  284MOL0     C37417   4.646   0.915  10.852  0.8923 -0.4700  0.1019
  284MOL0     C37418   4.705   0.785  10.786 -0.7202  0.1898 -0.0543
  284MOL0     C37419   4.587   0.707  10.729  0.3448  0.5517  0.0962
  284MOL0     C37420   4.479   0.656  10.689 -0.6005 -1.0584  0.3130
  284MOL0     C37421   4.435   1.276  11.047 -0.6341 -0.6518 -0.5470
  284MOL0     C37422   4.308   1.332  11.036 -0.3703 -0.0558 -0.4695
  284MOL0     H37423   3.873   1.399  10.850 -0.6789 -0.6941  1.2620
  284MOL0     H37424   3.663   1.542  10.800 -1.3234  1.9315  0.3629
  284MOL0     H37425   3.489   1.701  11.078  3.4820  1.4151 -0.6029
  284MOL0     H37426   3.462   1.590  10.935  0.7153  0.4123  0.5592
  284MOL0     H37427   3.332   1.750  10.827  0.2026 -1.5202 -0.5281
  284MOL0     H37428   3.355   1.861  10.956  1.4929 -0.2714  0.0343
  284MOL0     H37429   3.252   1.690  11.106 -0.1003 -3.7867 -0.3528
  284MOL0     H37430   3.221   1.581  10.971 -0.0987 -0.5839  1.6313
  284MOL0     H37431   3.076   1.840  11.019 -0.8661 -0.1617  0.5829
  284MOL0     H37432   3.081   1.753  10.858 -1.8096  2.4749 -0.1075
  284MOL0     H37433   2.958   1.673  11.123 -0.2971 -0.6889 -0.1022
  284MOL0     H37434   3.025   1.550  11.027  3.1244  0.7737  0.5414
  284MOL0     H37435   2.903   1.606  10.845 -2.3065 -1.1682  0.5581
  284MOL0     H37436   2.828   1.747  10.911  1.6883  0.9160  1.6317
  284MOL0     H37437   2.789   1.468  11.025  1.1652  0.4366 -0.9095
  284MOL0     H37438   2.747   1.620  11.110 -0.1125 -0.7461  1.1408
  284MOL0     H37439   2.598   1.690  10.924  0.6516  0.5499  1.4454
  284MOL0     H37440   2.550   1.536  10.993 -1.4714  1.9270 -0.2063
  284MOL0     H37441   2.699   1.314  10.845 -1.4881  0.3479  0.5985
  284MOL0     H37442   2.686   1.269  10.462  1.2438  0.8603  0.1302
  284MOL0     H37443   2.638   1.173  10.599 -1.7171  0.5937  0.0376
  284MOL0     H37444   2.864   1.147  10.676 -2.8482  1.9851  1.4136
  284MOL0     H37445   2.917   1.256  10.539  2.6194 -3.2991 -2.1028
  284MOL0     H37446   2.802   0.981  10.490  2.9431 -3.5822 -2.3335
  284MOL0     H37447   2.827   1.092  10.361 -1.1984 -0.3853  1.1552
  284MOL0     H37448   3.062   1.121  10.424 -2.7973  0.9376 -1.5139
  284MOL0     H37449   3.038   0.959  10.377 -1.6622 -0.8234  0.5682
  284MOL0     H37450   3.068   0.878  10.814 -1.2336  1.6756 -0.9206
  284MOL0     H37451   3.278   0.834  10.928  1.6787  2.4512  0.3380
  284MOL0     H37452   3.611   0.609  11.031 -0.6485 -0.1929  3.0311
  284MOL0     H37453   3.790   0.557  11.181 -0.3747  1.4376  1.0155
  284MOL0     H37454   4.024   0.530  11.226  0.3079 -0.8766  0.4866
  284MOL0     H37455   3.926   0.544  11.365  1.9791 -3.0808 -1.2607
  284MOL0     H37456   4.118   0.484  11.471 -1.8928  1.2870  0.2747
  284MOL0     H37457   4.099   0.663  11.494 -3.9975 -0.0890 -1.5820
  284MOL0     H37458   4.275   0.699  11.324  1.5318 -0.4189 -0.2070
  284MOL0     H37459   4.265   0.541  11.264  2.0302  2.4164 -1.5434
  284MOL0     H37460   4.382   0.615  11.539  0.5573 -0.0684 -0.3764
  284MOL0     H37461   4.353   0.449  11.485 -3.1268 -0.1915 -2.7591
  284MOL0     H37462   4.531   0.665  11.339  1.1640  0.3259  1.6001
  284MOL0     H37463   4.511   0.490  11.291 -1.8790 -0.9443  0.8155
  284MOL0     H37464   4.630   0.436  11.507  0.2974 -0.9867 -2.1919
  284MOL0     H37465   4.652   0.616  11.521 -1.6976  3.5051 -4.4270
  284MOL0     H37466   4.744   0.466  11.279 -0.8100  1.0437 -1.5965
  284MOL0     H37467   4.791   0.629  11.316 -0.1084 -1.2311 -3.3774
  284MOL0     H37468   4.876   0.391  11.480 -0.1448 -0.7316 -2.2416
  284MOL0     H37469   4.903   0.563  11.523 -1.2471  0.0417  0.2889
  284MOL0     H37470   3.942   0.950  11.142  2.3213 -2.6167  1.9232
  284MOL0     H37471   3.738   1.013  11.012 -0.0327  0.9239  1.3995
  284MOL0     H37472   3.505   0.882  10.574  0.2726 -0.3436  0.3526
  284MOL0     H37473   3.302   0.978  10.458 -0.4416  1.7542 -0.3854
  284MOL0     H37474   3.787   1.834  11.077  2.6863 -0.6263  2.7643
  284MOL0     H37475   3.974   1.699  11.145  1.7171  0.3229 -1.1974
  284MOL0     H37476   4.114   1.076  11.131  0.1482  0.4327  1.7268
  284MOL0     H37477   4.329   0.964  11.140 -1.6380 -0.9826 -3.0931
  284MOL0     H37478   4.747   1.165  11.081  1.3137  0.5100 -3.3377
  284MOL0     H37479   4.645   1.181  10.941  2.1958  1.2314  0.0084
  284MOL0     H37480   4.840   0.995  10.922 -0.6325  0.6023 -1.9679
  284MOL0     H37481   4.753   0.908  11.042 -0.5145  1.4075  0.7919
  284MOL0     H37482   4.623   0.991  10.777  0.9812  1.2772  1.7864
  284MOL0     H37483   4.551   0.887  10.898 -0.4157  0.5149 -1.8472
  284MOL0     H37484   4.774   0.816  10.706 -0.7033  1.5237  0.4411
  284MOL0     H37485   4.752   0.722  10.862  4.2903 -0.0069 -2.8748
  284MOL0     H37486   4.384   0.613  10.667 -2.8156  1.6168  3.5291
  284MOL0     H37487   4.522   1.337  11.031 -2.1296  2.0138  0.7867
  284MOL0     H37488   4.306   1.434  10.999  0.1307 -0.8208 -2.7642
  285MOL0     O37489   1.393   6.658   1.103  0.3555 -0.2467  0.0443
  285MOL0     C37490   1.422   6.539   1.129 -0.0761 -0.6443  0.5581
  285MOL0     O37491   1.341   6.452   1.201  0.1272  0.0786  0.3242
  285MOL0     C37492   1.207   6.477   1.188  0.2282 -0.3559  0.6484
  285MOL0     C37493   1.145   6.479   1.061 -0.7172  0.3974  0.0530
  285MOL0     C37494   1.008   6.485   1.057  0.3560  0.1085 -0.1762
  285MOL0     C37495   0.930   6.479   1.173  0.1703 -0.4970 -0.6637
  285MOL0     O37496   0.799   6.468   1.141  0.6279 -0.1537 -0.2508
  285MOL0     C37497   0.695   6.489   1.243 -0.6150 -0.6717 -0.2108
  285MOL0     C37498   0.569   6.403   1.213  0.2241  0.0141  0.9597
  285MOL0     C37499   0.478   6.378   1.328 -0.2970 -0.1651 -0.3588
  285MOL0     C37500   0.425   6.513   1.382  0.0503  0.0844  0.0131
  285MOL0     C37501   0.328   6.489   1.500  0.1103 -0.5175 -1.0967
  285MOL0     C37502   0.310   6.617   1.585  0.6772  0.8865 -0.2079
  285MOL0     C37503   0.251   6.747   1.522 -0.8259  0.9612 -0.5158
  285MOL0     C37504   0.113   6.731   1.459 -0.9318  0.1118  0.2490
  285MOL0     N37505   0.007   6.738   1.557 -0.1541 -0.0182 -0.2197
  285MOL0     C37506  -0.116   6.669   1.549 -0.1036 -0.2708 -0.6329
  285MOL0     C37507  -0.203   6.732   1.641 -0.2546 -0.3352 -0.2577
  285MOL0     C37508  -0.347   6.709   1.671 -0.7726  0.1045  0.1584
  285MOL0     C37509  -0.414   6.581   1.649 -0.6889  0.2541 -0.1759
  285MOL0     C37510  -0.434   6.557   1.503 -0.8272 -0.1211 -0.5409
  285MOL0     C37511  -0.459   6.405   1.488 -0.0517 -0.6946 -0.1628
  285MOL0     O37512  -0.508   6.392   1.356  0.5262 -0.1266  0.0295
  285MOL0     C37513  -0.639   6.386   1.336 -0.3724 -0.1022  0.3810
  285MOL0     C37514  -0.683   6.376   1.205 -0.6597 -0.0785 -0.4905
  285MOL0     C37515  -0.821   6.376   1.178 -0.0658 -0.3803  0.3116
  285MOL0     C37516  -0.921   6.388   1.280  0.2873  0.9854  0.2101
  285MOL0     C37517  -1.060   6.386   1.241 -0.1895 -0.2981 -0.1933
  285MOL0     O37518  -1.136   6.369   1.349  0.3367 -0.1098  0.2584
  285MOL0     C37519  -1.262   6.326   1.328  0.4412 -0.2302 -0.5469
  285MOL0     C37520  -1.359   6.397   1.395 -1.2087 -0.2897  0.2448
  285MOL0     C37521  -1.492   6.360   1.382 -0.5071 -0.1238 -0.1570
  285MOL0     C37522  -1.525   6.236   1.323 -0.2976  0.4162  0.3335
  285MOL0     O37523  -1.646   6.178   1.320  0.7484 -0.1982 -0.5666
  285MOL0     C37524  -1.744   6.206   1.424  0.4357 -0.2524 -0.4092
  285MOL0     C37525  -1.852   6.104   1.404  0.6970  0.2005 -0.2409
  285MOL0     C37526  -1.949   6.090   1.526  0.5514 -0.1509  0.6422
  285MOL0     C37527  -2.005   5.951   1.538  0.0942 -1.0387  0.0319
  285MOL0     C37528  -2.060   5.926   1.674  0.8683  0.4698 -0.4450
  285MOL0     C37529  -2.158   5.811   1.679  0.0506  0.4473 -0.5302
  285MOL0     C37530  -2.093   5.680   1.688  0.2963 -0.2931 -0.0127
  285MOL0     C37531  -2.059   5.647   1.821 -0.2013 -0.2926 -0.1859
  285MOL0    Cl37532  -2.003   5.482   1.817  0.0686 -0.0244 -0.2397
  285MOL0     C37533  -1.425   6.172   1.253 -0.4194  0.3153  1.2132
  285MOL0     C37534  -1.295   6.213   1.258 -0.2514 -0.0705  0.7993
  285MOL0     O37535  -1.098   6.411   1.126 -0.1437  0.7619  1.0235
  285MOL0     C37536  -0.877   6.395   1.415 -0.3624 -0.2910  0.9753
  285MOL0     C37537  -0.739   6.393   1.437  0.0572 -0.5834 -0.5895
  285MOL0     N37538  -0.121   6.824   1.704 -0.0641  0.0278  0.4583
  285MOL0     N37539  -0.012   6.845   1.639  0.1130 -0.0234  0.0400
  285MOL0     C37540   0.992   6.478   1.297 -0.6501 -0.0933 -0.4908
  285MOL0     C37541   1.135   6.484   1.309 -0.1694  0.2267 -0.2289
  285MOL0     C37542   1.543   6.487   1.069 -0.5249 -0.4982  0.2047
  285MOL0     C37543   1.586   6.360   1.095 -0.5009  0.2830 -0.0089
  285MOL0     C37544   1.707   6.308   1.046 -0.4785  0.4600 -0.4807
  285MOL0     C37545   1.785   6.381   0.954 -0.2958 -0.2347 -1.2083
  285MOL0     O37546   1.902   6.345   0.892 -0.0158 -0.3660  0.5658
  285MOL0     C37547   1.931   6.204   0.882  0.1233 -0.1128 -0.1902
  285MOL0     C37548   2.034   6.214   0.768  0.6215  0.0308  0.0854
  285MOL0     C37549   2.167   6.254   0.821 -1.0025 -0.5813 -0.4534
  285MOL0     C37550   2.258   6.135   0.843  0.5480  0.5161  0.5812
  285MOL0     C37551   2.315   6.091   0.712  0.2004  0.6661 -0.2315
  285MOL0     C37552   2.339   6.058   0.605 -0.8463  0.2701  0.3696
  285MOL0     C37553   1.736   6.513   0.926  0.2225 -0.2961 -0.3484
  285MOL0     C37554   1.621   6.567   0.987 -0.0014  0.3561  0.8292
  285MOL0     H37555   1.207   6.467   0.973 -0.1680 -1.0771  0.6053
  285MOL0     H37556   0.955   6.483   0.962 -0.7055  1.9928  0.3396
  285MOL0     H37557   0.674   6.596   1.246  2.3923  0.0209 -0.7859
  285MOL0     H37558   0.731   6.447   1.338  2.2459  1.0597 -0.4080
  285MOL0     H37559   0.601   6.306   1.174  1.1462  0.2433  1.1221
  285MOL0     H37560   0.513   6.448   1.130 -0.9850  0.5011  2.0002
  285MOL0     H37561   0.533   6.323   1.405 -0.5305 -0.8996 -0.7085
  285MOL0     H37562   0.392   6.314   1.305 -0.3236 -0.0593 -0.5491
  285MOL0     H37563   0.502   6.575   1.430 -1.1960  1.1211  0.7444
  285MOL0     H37564   0.379   6.574   1.303  1.5782 -2.0435 -2.7255
  285MOL0     H37565   0.357   6.409   1.569 -0.9964  1.2276  1.5578
  285MOL0     H37566   0.237   6.463   1.445  0.1721  0.6626 -1.7868
  285MOL0     H37567   0.403   6.633   1.640  2.5477 -3.0354 -1.8418
  285MOL0     H37568   0.230   6.588   1.654  1.1254 -1.1393 -0.4702
  285MOL0     H37569   0.242   6.827   1.597 -0.2682  2.2313 -1.7471
  285MOL0     H37570   0.328   6.785   1.454 -0.2998  0.2691 -0.3058
  285MOL0     H37571   0.108   6.636   1.406  3.9487  0.0676 -0.6480
  285MOL0     H37572   0.110   6.809   1.382  1.7908 -3.2525 -3.6531
  285MOL0     H37573  -0.153   6.589   1.486  0.5649  0.2554 -1.7323
  285MOL0     H37574  -0.414   6.772   1.613  0.4099 -0.2170 -1.6293
  285MOL0     H37575  -0.359   6.738   1.776  2.1004  1.1626  0.2788
  285MOL0     H37576  -0.511   6.593   1.698 -1.8753  0.2715 -2.4254
  285MOL0     H37577  -0.357   6.509   1.709  0.4868  1.6469  0.4520
  285MOL0     H37578  -0.521   6.613   1.467 -0.0611 -0.0255 -2.3500
  285MOL0     H37579  -0.345   6.590   1.448 -2.4951  1.7882 -2.2494
  285MOL0     H37580  -0.520   6.358   1.566 -0.3430  2.8958  1.9641
  285MOL0     H37581  -0.358   6.365   1.498  0.9048  1.6235 -0.0685
  285MOL0     H37582  -0.619   6.354   1.120  3.0194 -0.4891  2.1378
  285MOL0     H37583  -0.855   6.376   1.075  2.7385 -2.3230 -0.7223
  285MOL0     H37584  -1.329   6.487   1.448 -1.3659 -1.2496  2.0308
  285MOL0     H37585  -1.574   6.414   1.426 -2.0220 -1.9379 -0.6230
  285MOL0     H37586  -1.786   6.307   1.430  0.2952 -0.2984 -0.6226
  285MOL0     H37587  -1.697   6.192   1.522  0.0587 -1.4097 -0.3812
  285MOL0     H37588  -1.806   6.007   1.382 -1.5130 -0.9341 -0.1466
  285MOL0     H37589  -1.914   6.135   1.320 -1.8080 -1.0029  1.0344
  285MOL0     H37590  -2.030   6.163   1.513  1.9286  1.0332 -2.3567
  285MOL0     H37591  -1.900   6.115   1.620 -1.8039  2.0682  1.4209
  285MOL0     H37592  -2.082   5.938   1.461  2.2480  0.4085 -2.5257
  285MOL0     H37593  -1.922   5.882   1.519 -1.0215 -2.1078 -1.1247
  285MOL0     H37594  -2.113   6.017   1.702  0.3260 -0.8668  3.5509
  285MOL0     H37595  -1.984   5.908   1.751  1.9375 -2.1623 -1.9700
  285MOL0     H37596  -2.223   5.821   1.592  1.8680 -0.4756 -2.0660
  285MOL0     H37597  -2.216   5.830   1.770  1.3865 -1.2426  0.7569
  285MOL0     H37598  -2.167   5.610   1.648  0.1288 -0.4066  0.4882
  285MOL0     H37599  -2.000   5.687   1.631 -0.3514  3.4253 -0.8925
  285MOL0     H37600  -2.148   5.643   1.884  0.2129  1.6675  0.6084
  285MOL0     H37601  -1.999   5.720   1.876 -1.5960  0.4436  0.4145
  285MOL0     H37602  -1.445   6.082   1.196  0.5100  1.8816 -1.7938
  285MOL0     H37603  -1.223   6.149   1.208  2.2351 -0.0432  4.0336
  285MOL0     H37604  -0.954   6.415   1.489 -1.9881  0.8584 -0.9381
  285MOL0     H37605  -0.708   6.391   1.541  0.5659 -2.2206 -0.7451
  285MOL0     H37606   0.945   6.469   1.394  1.0409  0.6326  0.4405
  285MOL0     H37607   1.189   6.475   1.403 -2.1126  3.5266  1.3997
  285MOL0     H37608   1.533   6.299   1.167  1.1763 -0.8575  0.3323
  285MOL0     H37609   1.737   6.213   1.091 -0.7389  1.3851  1.7677
  285MOL0     H37610   1.845   6.147   0.846  1.2123 -0.8096 -1.8707
  285MOL0     H37611   1.970   6.161   0.975 -2.8364 -2.0998  0.2525
  285MOL0     H37612   2.048   6.118   0.717 -0.1155  0.8873 -1.8171
  285MOL0     H37613   1.998   6.288   0.696  2.1191 -1.7227 -2.6495
  285MOL0     H37614   2.154   6.297   0.921 -1.1442  1.2932 -1.2375
  285MOL0     H37615   2.216   6.331   0.761 -1.1080  1.2737  1.6917
  285MOL0     H37616   2.337   6.148   0.918  1.1611 -1.9162  0.4463
  285MOL0     H37617   2.201   6.054   0.890  2.8788 -1.2716  0.5224
  285MOL0     H37618   2.366   6.019   0.509 -3.0584 -2.2290  0.6148
  285MOL0     H37619   1.791   6.577   0.857  1.5820  0.3073  1.2263
  285MOL0     H37620   1.586   6.666   0.962 -1.1381 -0.4697 -1.0824
  286MOL0     O37621   8.323   3.249   0.035  0.9287 -0.1862 -0.2428
  286MOL0     C37622   8.356   3.225  -0.080 -0.0375 -0.4400 -0.1904
  286MOL0     O37623   8.279   3.169  -0.185 -0.7375 -0.4883  0.1566
  286MOL0     C37624   8.154   3.133  -0.152  0.2514  0.2508 -0.3605
  286MOL0     C37625   8.097   3.088  -0.031 -0.0012  0.1120  0.2794
  286MOL0     C37626   7.967   3.055  -0.015 -0.7129  0.7898  0.1631
  286MOL0     C37627   7.886   3.055  -0.124  0.2987 -0.4956  0.2742
  286MOL0     O37628   7.754   3.012  -0.118 -0.7371 -0.4175 -0.2567
  286MOL0     C37629   7.744   2.875  -0.145 -0.7115  0.1681 -0.5827
  286MOL0     C37630   7.606   2.835  -0.137 -0.6157  0.1223  0.8160
  286MOL0     C37631   7.510   2.932  -0.206 -0.1221 -0.0949  0.5538
  286MOL0     C37632   7.371   2.883  -0.195  0.4702 -0.2562 -0.2163
  286MOL0     C37633   7.279   2.932  -0.305  1.1130 -0.2839  0.8975
  286MOL0     C37634   7.245   3.089  -0.290  0.1508  0.6728 -0.5462
  286MOL0     C37635   7.166   3.160  -0.400  0.7952 -0.3603 -0.2443
  286MOL0     C37636   7.233   3.211  -0.526  0.3071  0.3725 -0.2292
  286MOL0     N37637   7.279   3.355  -0.526  0.0158 -0.0300 -0.3866
  286MOL0     C37638   7.257   3.440  -0.633 -0.6190 -0.4740  0.6448
  286MOL0     C37639   7.345   3.538  -0.614 -1.0397 -0.4763  0.8422
  286MOL0     C37640   7.389   3.642  -0.717 -0.4340  0.5651  1.0640
  286MOL0     C37641   7.270   3.736  -0.742  0.0670  0.8849  0.5521
  286MOL0     C37642   7.300   3.826  -0.861  0.1749 -0.3892 -0.5127
  286MOL0     C37643   7.236   3.966  -0.863  0.7287 -0.2761  0.2304
  286MOL0     O37644   7.092   3.956  -0.879 -0.2371 -0.0516  0.0914
  286MOL0     C37645   7.011   3.970  -0.770  0.2111  0.6801  0.5974
  286MOL0     C37646   6.908   3.874  -0.752 -0.5676 -0.1288  0.3246
  286MOL0     C37647   6.812   3.898  -0.655 -0.6743  0.1776 -0.2441
  286MOL0     C37648   6.826   4.003  -0.560  0.2440  0.0121 -0.0814
  286MOL0     C37649   6.744   4.018  -0.440  0.8025 -1.2838 -0.2949
  286MOL0     O37650   6.770   4.131  -0.356 -0.0718  0.3763 -0.2679
  286MOL0     C37651   6.700   4.140  -0.236 -0.1508 -1.0726 -0.4284
  286MOL0     C37652   6.691   4.040  -0.140 -0.1711  0.4026  1.2817
  286MOL0     C37653   6.624   4.065  -0.025 -0.0560 -0.2773 -0.4167
  286MOL0     C37654   6.551   4.179  -0.003  0.3182  0.2073 -0.8631
  286MOL0     O37655   6.467   4.179   0.107 -0.1256 -0.2338 -0.7984
  286MOL0     C37656   6.330   4.145   0.073 -0.6103  0.0333  0.2523
  286MOL0     C37657   6.245   4.241   0.158 -0.2946 -0.9819 -0.5404
  286MOL0     C37658   6.255   4.230   0.317 -0.3532  0.0353  0.0414
  286MOL0     C37659   6.212   4.349   0.395 -0.3213 -0.0735  0.1352
  286MOL0     C37660   6.059   4.371   0.400  0.0926  0.0505 -0.0079
  286MOL0     C37661   5.969   4.248   0.424 -0.2724  0.3520  0.5623
  286MOL0     C37662   6.014   4.171   0.549 -0.6202 -0.4160 -0.5208
  286MOL0     C37663   6.000   4.252   0.679  0.2080  0.3689  0.1227
  286MOL0    Cl37664   6.005   4.136   0.811  0.5573 -0.3257  0.0195
  286MOL0     C37665   6.557   4.280  -0.099  0.7129  0.3708  0.1201
  286MOL0     C37666   6.639   4.265  -0.209 -0.7420  0.2752  0.4072
  286MOL0     O37667   6.656   3.936  -0.423  0.0324 -0.3157 -0.0035
  286MOL0     C37668   6.936   4.086  -0.565  0.2997 -0.6188  1.2313
  286MOL0     C37669   7.021   4.072  -0.676 -0.4552 -0.2686  0.0287
  286MOL0     N37670   7.402   3.523  -0.487 -0.8882 -0.2773 -0.3710
  286MOL0     N37671   7.366   3.407  -0.443 -0.1024 -0.0640  0.3653
  286MOL0     C37672   7.928   3.107  -0.244 -0.6412 -0.0572 -0.0663
  286MOL0     C37673   8.062   3.146  -0.254 -0.8751  0.6076  0.8160
  286MOL0     C37674   8.496   3.265  -0.110  0.2414 -0.0761  0.4518
  286MOL0     C37675   8.561   3.223  -0.227 -1.0485  0.2759 -0.8516
  286MOL0     C37676   8.690   3.258  -0.258 -0.4414 -0.2723 -0.5425
  286MOL0     C37677   8.761   3.340  -0.163  0.2683 -0.5922  0.7638
  286MOL0     O37678   8.887   3.377  -0.201  0.1983 -0.9572  0.0574
  286MOL0     C37679   8.991   3.282  -0.161 -0.0180 -0.4936  0.3691
  286MOL0     C37680   9.003   3.263  -0.009  0.3138 -0.3270  0.3661
  286MOL0     C37681   9.141   3.217   0.020 -0.1153 -0.9282 -0.1309
  286MOL0     C37682   9.241   3.322   0.079 -0.1950  0.0489 -0.4134
  286MOL0     C37683   9.275   3.419  -0.028 -0.3916 -1.3628 -0.3076
  286MOL0     C37684   9.304   3.509  -0.110  0.7057  1.0145 -0.3056
  286MOL0     C37685   8.693   3.402  -0.059 -0.0430  0.2347 -0.8929
  286MOL0     C37686   8.558   3.359  -0.027 -0.0095 -0.1364 -0.0190
  286MOL0     H37687   8.158   3.075   0.057  0.7189  0.2360 -0.1915
  286MOL0     H37688   7.932   3.017   0.081  2.6281  1.6935  1.8712
  286MOL0     H37689   7.801   2.809  -0.079 -3.9009 -0.5639  1.6657
  286MOL0     H37690   7.784   2.863  -0.247  2.9830 -1.4336  0.8598
  286MOL0     H37691   7.575   2.831  -0.032 -3.6367  1.9906  0.1133
  286MOL0     H37692   7.587   2.736  -0.177 -0.5847  0.3486  0.2397
  286MOL0     H37693   7.543   2.957  -0.307 -3.0327 -2.7443 -1.2319
  286MOL0     H37694   7.501   3.021  -0.143  0.1382  2.9045 -3.3016
  286MOL0     H37695   7.374   2.775  -0.213  1.4337 -0.0893 -1.1725
  286MOL0     H37696   7.332   2.897  -0.094  0.2049  0.1211 -0.3680
  286MOL0     H37697   7.182   2.882  -0.306  0.7337  0.4016 -0.9253
  286MOL0     H37698   7.336   2.925  -0.398  1.7519 -1.0921  1.3348
  286MOL0     H37699   7.339   3.141  -0.270  1.6498 -2.2009  0.5849
  286MOL0     H37700   7.198   3.110  -0.194  1.6993  1.7716  0.0088
  286MOL0     H37701   7.080   3.098  -0.429 -0.0691  0.3698  0.6744
  286MOL0     H37702   7.129   3.253  -0.356 -0.1614 -0.4954 -0.7275
  286MOL0     H37703   7.164   3.198  -0.610  1.6331 -0.5492 -1.2066
  286MOL0     H37704   7.330   3.162  -0.535  0.0580  0.1611 -2.1692
  286MOL0     H37705   7.197   3.435  -0.724  1.8097 -1.6590 -1.0067
  286MOL0     H37706   7.413   3.583  -0.806 -4.1557  0.1271  0.1907
  286MOL0     H37707   7.472   3.708  -0.688 -1.4296  2.6913 -0.6256
  286MOL0     H37708   7.252   3.794  -0.651  3.7235  0.8823  1.4139
  286MOL0     H37709   7.177   3.685  -0.768 -0.0977  1.6485 -0.4527
  286MOL0     H37710   7.408   3.835  -0.874 -0.1230  2.5925 -1.7186
  286MOL0     H37711   7.264   3.767  -0.945 -1.4144 -0.7617  0.3861
  286MOL0     H37712   7.271   4.023  -0.949  0.8222  0.5702  0.8177
  286MOL0     H37713   7.269   4.010  -0.768  3.0554 -2.0057  0.3208
  286MOL0     H37714   6.885   3.794  -0.821 -0.4665 -1.5714  1.9114
  286MOL0     H37715   6.729   3.830  -0.640 -1.0919  0.7505  0.1057
  286MOL0     H37716   6.730   3.940  -0.158  0.0397  0.4946  1.2355
  286MOL0     H37717   6.605   3.980   0.040 -2.5687  0.8658  0.5018
  286MOL0     H37718   6.324   4.041   0.106 -0.8509 -1.6207 -4.2794
  286MOL0     H37719   6.302   4.152  -0.032  0.8905 -1.7153 -0.3173
  286MOL0     H37720   6.141   4.231   0.125 -0.7175  0.6421  0.2292
  286MOL0     H37721   6.275   4.344   0.136 -1.9251 -0.2191  0.5868
  286MOL0     H37722   6.359   4.215   0.350 -0.4646 -0.6349  0.0861
  286MOL0     H37723   6.190   4.148   0.347  0.7400 -0.7559  0.3361
  286MOL0     H37724   6.238   4.343   0.501 -1.2556  1.5784  0.5001
  286MOL0     H37725   6.259   4.442   0.362  2.9027 -0.8106  2.1486
  286MOL0     H37726   6.030   4.407   0.301  0.8460  0.9003  0.0701
  286MOL0     H37727   6.042   4.445   0.478  2.1835  1.5915 -0.8998
  286MOL0     H37728   5.971   4.174   0.343  0.8237  0.2722  0.6582
  286MOL0     H37729   5.862   4.271   0.427 -0.8346 -2.0326  1.9129
  286MOL0     H37730   5.945   4.087   0.552 -1.0406 -0.1049 -1.2567
  286MOL0     H37731   6.117   4.136   0.537 -0.9439 -1.9364  0.8309
  286MOL0     H37732   5.899   4.293   0.675 -0.8017 -1.7299  1.7783
  286MOL0     H37733   6.075   4.329   0.698  1.2383 -0.7982  0.9980
  286MOL0     H37734   6.498   4.369  -0.080  2.0799  1.4592 -0.5029
  286MOL0     H37735   6.646   4.340  -0.287  3.3754  0.2092  0.5120
  286MOL0     H37736   6.977   4.147  -0.485 -0.5625  2.0526 -0.2164
  286MOL0     H37737   7.108   4.136  -0.687 -0.2388  0.5391  4.4404
  286MOL0     H37738   7.872   3.118  -0.337 -2.4095  0.1723  0.9793
  286MOL0     H37739   8.091   3.187  -0.350  1.1765 -0.3435  0.9757
  286MOL0     H37740   8.516   3.153  -0.296  3.1902 -2.0946 -1.4836
  286MOL0     H37741   8.733   3.250  -0.357 -3.5020 -0.3708 -1.9737
  286MOL0     H37742   9.082   3.321  -0.207  0.3998 -2.1525 -0.2823
  286MOL0     H37743   8.968   3.190  -0.215  1.0580 -1.3225  1.2922
  286MOL0     H37744   8.997   3.361   0.039 -1.5906 -0.3967  0.3588
  286MOL0     H37745   8.925   3.195   0.028 -1.6347  1.3100 -0.5368
  286MOL0     H37746   9.189   3.177  -0.070  0.8141 -1.3924  0.5650
  286MOL0     H37747   9.138   3.138   0.095  2.3321 -1.8502 -0.8936
  286MOL0     H37748   9.188   3.384   0.151  1.4253  2.8600 -1.4510
  286MOL0     H37749   9.334   3.274   0.112 -0.8941 -1.2702 -0.2957
  286MOL0     H37750   9.334   3.585  -0.180  0.7747  3.0049  1.7697
  286MOL0     H37751   8.750   3.470   0.004  1.2764  0.5829 -2.4052
  286MOL0     H37752   8.509   3.408   0.056  0.2937  2.4058 -1.2400
  287MOL0     O37753   2.253   8.759  10.652  0.6492 -0.0391  0.4865
  287MOL0     C37754   2.320   8.667  10.606 -0.5367  0.8913 -0.7999
  287MOL0     O37755   2.261   8.546  10.585  0.3671 -0.5595 -0.7931
  287MOL0     C37756   2.124   8.534  10.596 -0.3241  0.1148 -0.0917
  287MOL0     C37757   2.074   8.431  10.683 -0.4122  0.3395 -0.1628
  287MOL0     C37758   1.932   8.414  10.688 -0.3929  0.2411 -0.7359
  287MOL0     C37759   1.847   8.483  10.603 -0.4921 -0.3623 -0.1149
  287MOL0     O37760   1.718   8.450  10.600  0.8411  0.9994  0.1416
  287MOL0     C37761   1.617   8.552  10.591 -0.0013 -0.4179  0.3022
  287MOL0     C37762   1.476   8.480  10.565 -0.7480  0.2631  0.1737
  287MOL0     C37763   1.355   8.572  10.573  0.8385  0.1121  0.7817
  287MOL0     C37764   1.226   8.501  10.536 -0.0272 -0.4191 -0.3649
  287MOL0     C37765   1.106   8.584  10.582 -0.2614  0.8992 -0.2477
  287MOL0     C37766   0.972   8.542  10.539 -0.0343  0.2755 -0.0591
  287MOL0     C37767   0.860   8.621  10.612  0.2477  0.0993 -0.3435
  287MOL0     C37768   0.730   8.586  10.548 -0.8426  0.2441  0.0053
  287MOL0     N37769   0.613   8.672  10.582  0.7235 -0.1318  1.1137
  287MOL0     C37770   0.483   8.633  10.606 -0.7729  0.1419  1.5649
  287MOL0     C37771   0.408   8.743  10.598  1.5368 -0.7681  0.0590
  287MOL0     C37772   0.261   8.770  10.594  0.2782  0.8958  0.5573
  287MOL0     C37773   0.191   8.665  10.682  0.2770 -0.8889 -0.1697
  287MOL0     C37774   0.037   8.696  10.688  0.1852 -0.2237  0.0896
  287MOL0     C37775  -0.041   8.567  10.685 -1.0272 -0.3087 -0.3419
  287MOL0     O37776  -0.169   8.587  10.642  0.4143 -0.6594 -0.1831
  287MOL0     C37777  -0.238   8.473  10.608 -1.5214  0.0210  0.1317
  287MOL0     C37778  -0.349   8.492  10.527  0.3413  0.6623 -0.5043
  287MOL0     C37779  -0.436   8.389  10.510 -0.3440 -0.0328  0.2025
  287MOL0     C37780  -0.419   8.261  10.564 -0.5708 -0.1501  0.2516
  287MOL0     C37781  -0.519   8.155  10.540  0.1725  0.5930  0.5094
  287MOL0     O37782  -0.491   8.032  10.600  0.3275 -0.0874 -0.3748
  287MOL0     C37783  -0.574   7.923  10.608  0.1716  0.9227  0.6576
  287MOL0     C37784  -0.713   7.925  10.581 -0.8847  0.1459  0.1557
  287MOL0     C37785  -0.787   7.807  10.606 -0.1822  0.4947  0.2547
  287MOL0     C37786  -0.724   7.688  10.652 -0.4377 -0.7106 -0.6120
  287MOL0     O37787  -0.788   7.567  10.682  0.4400 -0.6301 -0.3520
  287MOL0     C37788  -0.931   7.568  10.698 -0.1433 -0.5606 -0.8243
  287MOL0     C37789  -0.973   7.418  10.715 -0.3057  0.4414 -0.9637
  287MOL0     C37790  -1.120   7.419  10.762  0.0055 -0.0576  0.3099
  287MOL0     C37791  -1.225   7.459  10.656  0.0782  0.7189 -0.1990
  287MOL0     C37792  -1.345   7.511  10.722 -0.1781  0.7963  0.5776
  287MOL0     C37793  -1.465   7.530  10.629  0.1684  0.4189 -0.3841
  287MOL0     C37794  -1.575   7.594  10.710  0.3250 -0.1981 -0.0061
  287MOL0     C37795  -1.708   7.589  10.625  0.0501  0.0757  0.2693
  287MOL0    Cl37796  -1.843   7.677  10.698  0.0385  0.0028 -0.1844
  287MOL0     C37797  -0.585   7.692  10.663  0.3136 -0.5251 -0.7712
  287MOL0     C37798  -0.510   7.809  10.647 -0.2268  0.3796 -0.1841
  287MOL0     O37799  -0.621   8.185  10.487  0.3264  0.4199  0.0927
  287MOL0     C37800  -0.314   8.243  10.643  0.9460 -0.5077  0.2857
  287MOL0     C37801  -0.218   8.338  10.666  1.3421 -1.0187  1.0922
  287MOL0     N37802   0.486   8.857  10.583  0.1959  0.9821 -0.4479
  287MOL0     N37803   0.604   8.805  10.575  0.4060  0.0992 -0.0355
  287MOL0     C37804   1.897   8.587  10.514  0.1499 -0.4153 -0.2896
  287MOL0     C37805   2.033   8.604  10.513 -0.4337 -0.8941  1.2100
  287MOL0     C37806   2.465   8.685  10.606  0.7850 -0.0327  0.2970
  287MOL0     C37807   2.555   8.589  10.547  0.7955 -1.1031  0.2386
  287MOL0     C37808   2.688   8.606  10.549  0.4462  0.0306  0.8891
  287MOL0     C37809   2.750   8.719  10.610 -0.3795 -0.5526  0.1672
  287MOL0     O37810   2.888   8.716  10.613  0.9333 -0.0570  0.0756
  287MOL0     C37811   2.949   8.774  10.725  0.0123 -0.1451 -0.1866
  287MOL0     C37812   3.098   8.728  10.730 -0.2583  0.2788 -0.1060
  287MOL0     C37813   3.169   8.729  10.590  0.2267 -0.2111  0.1929
  287MOL0     C37814   3.161   8.874  10.528  0.4248 -0.2351  0.1791
  287MOL0     C37815   3.223   8.984  10.604  0.7870  0.2102  0.6489
  287MOL0     C37816   3.275   9.055  10.678  0.2073 -0.4022 -0.6925
  287MOL0     C37817   2.662   8.823  10.657 -0.1400 -0.0045  0.5318
  287MOL0     C37818   2.519   8.808  10.650 -0.3209  0.2693 -0.8682
  287MOL0     H37819   2.146   8.378  10.744 -0.2954  0.5919 -0.0780
  287MOL0     H37820   1.885   8.343  10.755 -1.6092  1.1918 -0.5511
  287MOL0     H37821   1.633   8.633  10.520  1.9224 -1.6688 -0.7693
  287MOL0     H37822   1.599   8.595  10.690  1.3082 -0.2424  0.4738
  287MOL0     H37823   1.467   8.411  10.648 -0.9140 -1.0705 -0.9224
  287MOL0     H37824   1.479   8.428  10.469  1.6350 -0.2174  0.4458
  287MOL0     H37825   1.364   8.661  10.510 -4.0315 -0.7951 -1.6670
  287MOL0     H37826   1.358   8.608  10.676  2.0545  0.0665  0.7709
  287MOL0     H37827   1.211   8.481  10.429  1.0462  0.9129 -0.7994
  287MOL0     H37828   1.211   8.401  10.577 -1.3620 -1.8589 -3.9568
  287MOL0     H37829   1.116   8.690  10.556 -1.6530  1.2765  0.6050
  287MOL0     H37830   1.106   8.586  10.692 -1.1788  1.5816 -0.2415
  287MOL0     H37831   0.960   8.434  10.557 -0.1283  0.5578  1.7760
  287MOL0     H37832   0.957   8.555  10.431 -1.8395  0.9831  0.2361
  287MOL0     H37833   0.854   8.594  10.718 -1.7667 -0.7961 -0.6288
  287MOL0     H37834   0.885   8.727  10.610  3.8556 -0.5105  2.2228
  287MOL0     H37835   0.701   8.482  10.566 -1.4211  0.2886 -0.6098
  287MOL0     H37836   0.739   8.595  10.439 -2.7458  1.5840 -0.1053
  287MOL0     H37837   0.447   8.531  10.618 -2.2824  0.7555  2.6176
  287MOL0     H37838   0.223   8.772  10.492  0.5466 -2.3976  0.3030
  287MOL0     H37839   0.238   8.870  10.634 -2.0013  0.8744 -0.5392
  287MOL0     H37840   0.224   8.679  10.786  0.7691 -1.7521 -0.2083
  287MOL0     H37841   0.208   8.561  10.654 -0.8572 -1.1157 -0.0981
  287MOL0     H37842   0.004   8.754  10.775 -2.3080  0.3555 -1.1391
  287MOL0     H37843   0.004   8.766  10.611  2.2226  0.9590  0.2285
  287MOL0     H37844  -0.030   8.504  10.773 -2.3785 -2.4210 -1.6085
  287MOL0     H37845  -0.003   8.510  10.600  1.0319 -0.3184  0.5262
  287MOL0     H37846  -0.363   8.586  10.474  1.0472 -0.0358 -1.9626
  287MOL0     H37847  -0.521   8.411  10.446  1.3171  1.1204 -1.7089
  287MOL0     H37848  -0.757   8.019  10.550  0.4154  0.6161 -0.3625
  287MOL0     H37849  -0.895   7.809  10.595 -0.2553 -2.7670 -0.4668
  287MOL0     H37850  -0.979   7.607  10.608  0.0887 -1.1423 -1.2019
  287MOL0     H37851  -0.965   7.620  10.788 -1.8310 -1.1941 -1.0570
  287MOL0     H37852  -0.907   7.381  10.793  1.5901 -0.0662 -2.7092
  287MOL0     H37853  -0.958   7.361  10.622  1.8368 -2.7626  1.1630
  287MOL0     H37854  -1.131   7.483  10.850 -1.2527 -1.1812  1.0013
  287MOL0     H37855  -1.157   7.321  10.793 -1.1184  0.4694  0.6762
  287MOL0     H37856  -1.184   7.540  10.596 -1.4971  2.3358  0.7869
  287MOL0     H37857  -1.246   7.377  10.586 -0.7358  2.8975 -2.6751
  287MOL0     H37858  -1.331   7.610  10.765 -2.8031  0.9974  1.1334
  287MOL0     H37859  -1.378   7.439  10.798 -0.8552  1.1062  0.5820
  287MOL0     H37860  -1.505   7.441  10.579 -0.9540 -0.5757  2.1073
  287MOL0     H37861  -1.430   7.606  10.558 -0.1320  1.7062  0.8097
  287MOL0     H37862  -1.581   7.540  10.805  3.4957 -1.3545 -0.3508
  287MOL0     H37863  -1.561   7.699  10.736 -0.3676 -0.4620  1.5753
  287MOL0     H37864  -1.733   7.484  10.606  1.5663 -0.5801  1.6045
  287MOL0     H37865  -1.694   7.637  10.528  6.5757  1.0134  1.1801
  287MOL0     H37866  -0.538   7.597  10.688 -1.5802 -1.0019  1.2711
  287MOL0     H37867  -0.402   7.812  10.656 -0.0099  2.6567 -2.4144
  287MOL0     H37868  -0.304   8.152  10.701 -0.8718 -0.3774  0.8541
  287MOL0     H37869  -0.130   8.319  10.726  1.5357 -0.2840  1.0497
  287MOL0     H37870   1.824   8.651  10.464 -1.1835  0.9115  2.9986
  287MOL0     H37871   2.053   8.686  10.445 -4.3149 -0.4710  0.3213
  287MOL0     H37872   2.509   8.503  10.498  0.7075 -0.3871 -0.9910
  287MOL0     H37873   2.750   8.528  10.505 -0.4729  1.1273 -2.6721
  287MOL0     H37874   2.904   8.749  10.821 -1.2390  1.4648 -0.3059
  287MOL0     H37875   2.962   8.883  10.716  3.1028 -0.5643 -2.5468
  287MOL0     H37876   3.162   8.791  10.792  1.4108 -0.6439 -0.8233
  287MOL0     H37877   3.109   8.624  10.761  0.2292  0.1473 -0.6811
  287MOL0     H37878   3.113   8.661  10.525  0.4998  0.7126 -1.0377
  287MOL0     H37879   3.272   8.694  10.599  1.2637  2.7913  1.4522
  287MOL0     H37880   3.203   8.867  10.427  3.1657  0.8434  1.1503
  287MOL0     H37881   3.056   8.902  10.517  0.0082 -0.8978  2.0819
  287MOL0     H37882   3.334   9.112  10.747 -0.8787 -0.9362  0.7100
  287MOL0     H37883   2.707   8.913  10.697 -0.0642  1.1936 -2.0425
  287MOL0     H37884   2.456   8.883  10.697 -0.0871 -0.5012  0.7429
  288MOL0     O37885   9.622  10.539   1.206 -0.5263 -0.3671 -0.9516
  288MOL0     C37886   9.595  10.584   1.097 -0.6152  0.2043 -0.4591
  288MOL0     O37887   9.479  10.551   1.026 -0.2047  0.4877  0.3783
  288MOL0     C37888   9.384  10.464   1.079 -0.4397  0.1487 -0.1061
  288MOL0     C37889   9.404  10.327   1.094 -0.1427 -0.1677  0.8757
  288MOL0     C37890   9.288  10.250   1.122 -0.2620  0.0785  0.1238
  288MOL0     C37891   9.167  10.312   1.168 -0.6020 -0.5691 -0.0153
  288MOL0     O37892   9.043  10.250   1.181 -0.2371  0.3093 -0.2977
  288MOL0     C37893   9.039  10.105   1.174 -0.5205 -0.3549  1.0314
  288MOL0     C37894   8.890  10.065   1.162 -1.3578  0.6761  0.1343
  288MOL0     C37895   8.868   9.912   1.144  1.3562  0.5069  0.0172
  288MOL0     C37896   8.726   9.879   1.095  0.5736 -0.2205 -0.4079
  288MOL0     C37897   8.616   9.950   1.176  0.9577 -0.2293 -0.5399
  288MOL0     C37898   8.476   9.905   1.157  0.9436  0.3115 -0.1636
  288MOL0     C37899   8.361   9.993   1.211 -0.3713 -0.3464 -0.0572
  288MOL0     C37900   8.309  10.084   1.107 -0.4869  0.5101  0.4603
  288MOL0     N37901   8.238  10.196   1.165  0.0903  0.4906  0.0199
  288MOL0     C37902   8.126  10.188   1.245  0.1102 -0.2299 -0.4867
  288MOL0     C37903   8.128  10.309   1.303  0.1393  0.5955  0.0634
  288MOL0     C37904   8.039  10.340   1.419 -0.6232 -0.2243  0.3035
  288MOL0     C37905   7.950  10.463   1.407  0.1182 -0.0765  0.2311
  288MOL0     C37906   7.841  10.453   1.299 -0.4600 -0.1955 -0.6634
  288MOL0     C37907   7.744  10.342   1.314 -0.3707  0.5743  0.5086
  288MOL0     O37908   7.666  10.342   1.434  0.7673  1.0658  0.3981
  288MOL0     C37909   7.565  10.247   1.434 -0.5654 -0.0845 -0.2240
  288MOL0     C37910   7.450  10.273   1.505  0.1304  0.7348 -0.4906
  288MOL0     C37911   7.354  10.176   1.524 -0.2039 -0.2373 -0.2494
  288MOL0     C37912   7.373  10.050   1.475 -0.3028  0.0420 -0.5599
  288MOL0     C37913   7.278   9.941   1.512 -0.1889 -0.5063 -0.1739
  288MOL0     O37914   7.311   9.808   1.481 -0.0811  0.6750  0.0441
  288MOL0     C37915   7.209   9.721   1.498 -0.2964  0.0636  0.8007
  288MOL0     C37916   7.110   9.691   1.406 -1.4645  0.3019  0.7058
  288MOL0     C37917   7.008   9.601   1.429 -0.1086  0.3943  0.3365
  288MOL0     C37918   7.001   9.536   1.549 -0.3096  1.2476 -0.2271
  288MOL0     O37919   6.895   9.455   1.578  0.7300  0.1628  0.5352
  288MOL0     C37920   6.799   9.527   1.662 -0.3189 -0.2338 -0.4285
  288MOL0     C37921   6.688   9.436   1.708  0.3230  0.6358  0.3528
  288MOL0     C37922   6.593   9.390   1.593  0.0296 -0.2428  0.8148
  288MOL0     C37923   6.483   9.299   1.649  1.6294  0.4527  0.4510
  288MOL0     C37924   6.388   9.246   1.532  1.0244 -0.0962 -0.3344
  288MOL0     C37925   6.294   9.139   1.588  0.1391  0.7552 -0.1808
  288MOL0     C37926   6.196   9.102   1.480  0.1319  0.4193  0.3357
  288MOL0     C37927   6.073   9.013   1.533 -0.1461 -0.5403 -0.5162
  288MOL0    Cl37928   6.134   8.857   1.600 -0.0762 -0.4368 -0.6477
  288MOL0     C37929   7.101   9.564   1.650 -0.2888  1.2996  0.8303
  288MOL0     C37930   7.204   9.650   1.618  0.3280  0.2909  0.0245
  288MOL0     O37931   7.161   9.974   1.548  0.0482 -0.3029  0.4111
  288MOL0     C37932   7.488  10.020   1.400 -0.1275 -0.3049  0.6982
  288MOL0     C37933   7.578  10.118   1.381 -0.4988 -0.9387 -0.3189
  288MOL0     N37934   8.227  10.385   1.260 -0.3108  0.2522  0.2677
  288MOL0     N37935   8.295  10.321   1.177 -0.0213 -0.1402  0.4156
  288MOL0     C37936   9.155  10.450   1.168 -0.8373 -0.0404  0.5363
  288MOL0     C37937   9.265  10.524   1.126  0.3713 -0.2635 -0.1682
  288MOL0     C37938   9.700  10.654   1.028  0.0987 -0.4154 -0.3005
  288MOL0     C37939   9.700  10.663   0.885  0.4380 -0.0127  0.2025
  288MOL0     C37940   9.800  10.714   0.808 -0.6601  0.1237 -0.3890
  288MOL0     C37941   9.919  10.759   0.868  0.1027 -0.1805  0.0126
  288MOL0     O37942  10.039  10.797   0.803  0.5913  0.2000  0.1285
  288MOL0     C37943  10.067  10.733   0.675 -0.7386  0.2470 -0.5860
  288MOL0     C37944  10.206  10.680   0.650  0.6616  0.3567 -0.6683
  288MOL0     C37945  10.224  10.631   0.512 -0.5194  0.2496  0.7626
  288MOL0     C37946  10.371  10.589   0.484  0.5328 -0.1009  0.6074
  288MOL0     C37947  10.464  10.702   0.502  0.3182  0.2687 -0.9009
  288MOL0     C37948  10.543  10.793   0.528  0.6946 -0.8107  1.2041
  288MOL0     C37949   9.933  10.734   1.007  0.3574  0.4258 -0.0028
  288MOL0     C37950   9.827  10.690   1.090  0.2689  0.2794  0.4996
  288MOL0     H37951   9.504  10.291   1.074  1.4944  3.4496  1.8175
  288MOL0     H37952   9.279  10.142   1.127  0.3631 -0.1109 -2.0223
  288MOL0     H37953   9.089  10.065   1.262 -0.5924  1.1466  1.7853
  288MOL0     H37954   9.089  10.068   1.084 -0.2987 -0.9591  1.4028
  288MOL0     H37955   8.862  10.120   1.072  4.0505  1.3441 -1.5156
  288MOL0     H37956   8.837  10.090   1.255 -1.1411 -0.2457  0.5137
  288MOL0     H37957   8.896   9.856   1.234 -0.1565 -0.7190 -0.2193
  288MOL0     H37958   8.935   9.879   1.064 -0.7441 -1.1149 -1.2007
  288MOL0     H37959   8.719   9.905   0.989 -1.3878  0.0333 -0.2514
  288MOL0     H37960   8.706   9.772   1.092 -0.4015 -0.0279 -2.0144
  288MOL0     H37961   8.621  10.056   1.147 -0.9207 -0.1147 -0.5774
  288MOL0     H37962   8.638   9.945   1.282  0.3421 -0.5754 -0.4240
  288MOL0     H37963   8.474   9.807   1.207  4.2431 -0.2556 -0.9564
  288MOL0     H37964   8.461   9.886   1.051 -0.2859  1.0285 -0.1417
  288MOL0     H37965   8.278   9.925   1.233  1.4584 -2.5332  0.4306
  288MOL0     H37966   8.400  10.048   1.297 -1.0405  0.9243 -0.5272
  288MOL0     H37967   8.237  10.023   1.052  2.5424  0.1361 -3.5494
  288MOL0     H37968   8.390  10.126   1.046  0.0511  1.8868  2.0166
  288MOL0     H37969   8.054  10.107   1.253  1.8201 -1.5875  3.7329
  288MOL0     H37970   8.095  10.346   1.513 -2.0726 -0.1882  1.1941
  288MOL0     H37971   7.981  10.249   1.434 -0.6476 -1.2445 -4.3923
  288MOL0     H37972   8.018  10.544   1.380  0.0084 -0.7874 -2.5038
  288MOL0     H37973   7.884  10.482   1.492  1.6593  0.7628  1.2798
  288MOL0     H37974   7.793  10.552   1.294  0.2919  0.2569  0.5865
  288MOL0     H37975   7.887  10.442   1.201 -2.2654 -0.8536 -1.4790
  288MOL0     H37976   7.806  10.253   1.299  2.4676  2.7577 -2.0825
  288MOL0     H37977   7.673  10.350   1.230  0.5397 -0.9556 -0.4680
  288MOL0     H37978   7.445  10.370   1.553  0.4437 -0.2930  1.7454
  288MOL0     H37979   7.264  10.194   1.581  1.0129 -1.5306  2.2258
  288MOL0     H37980   7.121   9.749   1.314  3.1480 -2.3226 -0.7004
  288MOL0     H37981   6.938   9.579   1.349  0.7554  0.5022 -0.4668
  288MOL0     H37982   6.761   9.620   1.619 -0.1258  0.2160  0.3589
  288MOL0     H37983   6.861   9.555   1.748  2.6169  0.4702 -2.6258
  288MOL0     H37984   6.630   9.492   1.782  0.2058  1.3447 -0.2588
  288MOL0     H37985   6.719   9.341   1.752  1.3034  0.7154 -0.1342
  288MOL0     H37986   6.646   9.338   1.513  0.4597  0.9155  0.3156
  288MOL0     H37987   6.547   9.481   1.551  1.7105  0.6018  0.7076
  288MOL0     H37988   6.523   9.216   1.707  2.0075  0.5962  0.3994
  288MOL0     H37989   6.426   9.359   1.721  1.5514 -0.3737  1.0956
  288MOL0     H37990   6.442   9.193   1.454 -2.1668 -1.2054 -1.9442
  288MOL0     H37991   6.323   9.326   1.495  0.2702  0.2039  1.5266
  288MOL0     H37992   6.240   9.183   1.673  0.8495  1.4141 -0.0543
  288MOL0     H37993   6.355   9.054   1.620 -0.3217 -0.1490 -1.6072
  288MOL0     H37994   6.160   9.190   1.427  0.6178 -0.4738 -1.5897
  288MOL0     H37995   6.246   9.044   1.402  4.1492 -0.0516  2.9427
  288MOL0     H37996   5.999   8.994   1.454  0.6064 -2.8708 -0.7384
  288MOL0     H37997   6.027   9.064   1.618 -1.9454 -2.3346 -0.3229
  288MOL0     H37998   7.083   9.508   1.741 -0.8315 -2.0705 -1.1808
  288MOL0     H37999   7.275   9.667   1.699 -0.3764  2.9042  0.1780
  288MOL0     H38000   7.507   9.920   1.362  0.8128  0.1381 -0.0175
  288MOL0     H38001   7.659  10.093   1.313 -1.9691  1.6071 -3.2264
  288MOL0     H38002   9.068  10.502   1.206  0.4854  2.7289 -0.0314
  288MOL0     H38003   9.252  10.631   1.140 -1.6435 -0.6952  2.0025
  288MOL0     H38004   9.613  10.619   0.836  0.3469 -1.0291  1.2428
  288MOL0     H38005   9.769  10.719   0.704 -2.1290 -0.6940 -0.0218
  288MOL0     H38006  10.050  10.811   0.600  0.3259  0.3086 -0.7873
  288MOL0     H38007   9.995  10.652   0.660  2.3194 -2.6183 -1.1831
  288MOL0     H38008  10.274  10.761   0.678  2.0139 -1.2440  0.8987
  288MOL0     H38009  10.229  10.600   0.721 -0.0435  1.3682  0.7603
  288MOL0     H38010  10.211  10.716   0.444  0.2591 -0.5280 -0.4181
  288MOL0     H38011  10.153  10.551   0.486  0.6090  0.4426 -3.8451
  288MOL0     H38012  10.401  10.504   0.545  2.4966 -0.3259 -0.5500
  288MOL0     H38013  10.392  10.548   0.384  2.9145  2.9662 -0.3292
  288MOL0     H38014  10.604  10.880   0.542 -0.6118  0.4619 -0.6073
  288MOL0     H38015  10.023  10.772   1.054 -0.5276  2.8804 -0.1786
  288MOL0     H38016   9.853  10.665   1.192  0.0524  0.2833  0.5557
  289MOL0     O38017  11.197   6.595   8.894 -0.2785  0.2414  0.0357
  289MOL0     C38018  11.225   6.688   8.810  0.4735 -0.0353 -0.1517
  289MOL0     O38019  11.133   6.781   8.776 -0.5108 -0.1834 -0.3974
  289MOL0     C38020  11.003   6.748   8.805 -0.3097 -0.3395  0.0565
  289MOL0     C38021  10.959   6.811   8.916  0.4192  0.2620  0.1412
  289MOL0     C38022  10.823   6.793   8.963  0.0001 -0.8505 -0.6247
  289MOL0     C38023  10.743   6.712   8.885 -0.5183 -0.2827 -1.7754
  289MOL0     O38024  10.607   6.695   8.900 -0.3609 -0.0656 -0.0397
  289MOL0     C38025  10.552   6.710   9.037 -0.8726 -0.0583 -0.2916
  289MOL0     C38026  10.426   6.624   9.037  0.8533 -0.0436 -0.9415
  289MOL0     C38027  10.331   6.646   8.914 -0.5774 -0.5497 -0.7439
  289MOL0     C38028  10.204   6.562   8.925  0.5641 -0.2136  0.1456
  289MOL0     C38029  10.112   6.596   9.031 -0.2709  0.0134 -0.6786
  289MOL0     C38030   9.978   6.520   9.024 -0.2266 -0.1722 -0.5710
  289MOL0     C38031   9.878   6.587   9.125 -0.7344  0.4191  0.2042
  289MOL0     C38032   9.767   6.490   9.114  0.1169 -0.2062 -0.6862
  289MOL0     N38033   9.643   6.558   9.153 -0.1755 -0.0527 -0.3949
  289MOL0     C38034   9.557   6.616   9.069  0.5018 -0.1187  0.5893
  289MOL0     C38035   9.443   6.628   9.138  0.1580  0.6319 -0.3104
  289MOL0     C38036   9.311   6.685   9.098  0.0473  0.1924  0.6012
  289MOL0     C38037   9.243   6.590   9.008  0.7801  0.4823  0.5085
  289MOL0     C38038   9.112   6.636   8.955  0.6768  0.7394 -0.2997
  289MOL0     C38039   9.002   6.605   9.056  0.1813  0.6408  0.8979
  289MOL0     O38040   8.879   6.651   8.999  0.0255 -0.3790  0.1045
  289MOL0     C38041   8.762   6.608   9.054 -0.3464 -0.0133  0.1789
  289MOL0     C38042   8.646   6.619   8.975  0.7322  0.3640  0.5585
  289MOL0     C38043   8.515   6.582   9.020  0.1053  0.1968  0.1816
  289MOL0     C38044   8.505   6.530   9.148 -0.0631 -0.5348  0.3714
  289MOL0     C38045   8.370   6.490   9.209  0.0038  0.3913  0.0508
  289MOL0     O38046   8.367   6.455   9.345  0.2401  0.2638  0.0082
  289MOL0     C38047   8.249   6.400   9.401  0.0790 -0.4755 -0.0349
  289MOL0     C38048   8.237   6.263   9.430 -0.9789 -0.0984 -0.5452
  289MOL0     C38049   8.113   6.215   9.487 -0.3557  0.2865 -0.3127
  289MOL0     C38050   8.003   6.299   9.512 -0.4338 -0.9218 -0.4921
  289MOL0     O38051   7.889   6.245   9.562  0.7243  0.4483 -0.8633
  289MOL0     C38052   7.777   6.326   9.610 -0.3225 -1.1033  0.1729
  289MOL0     C38053   7.701   6.233   9.712 -0.5764 -0.4684  0.7855
  289MOL0     C38054   7.637   6.124   9.628 -0.2058 -0.4131  0.1502
  289MOL0     C38055   7.518   6.068   9.700  0.8751 -0.0595 -1.1797
  289MOL0     C38056   7.384   6.139   9.671  0.1442 -0.7466 -0.2520
  289MOL0     C38057   7.272   6.059   9.727  0.7546  0.1087 -0.3577
  289MOL0     C38058   7.132   6.081   9.662 -0.1034  0.4679  0.8888
  289MOL0     C38059   7.122   6.011   9.525  0.3538  0.1879  0.6675
  289MOL0    Cl38060   7.175   5.837   9.519 -0.2023  0.1973 -0.4297
  289MOL0     C38061   8.018   6.440   9.477 -0.8268 -0.7108 -0.2044
  289MOL0     C38062   8.144   6.491   9.435  0.4503  0.2115  0.3520
  289MOL0     O38063   8.276   6.478   9.128 -0.0137  0.6102 -0.0546
  289MOL0     C38064   8.624   6.499   9.221 -0.2387 -0.9190 -0.0719
  289MOL0     C38065   8.749   6.534   9.174 -0.0507  0.1412 -0.5672
  289MOL0     N38066   9.464   6.572   9.261 -0.0828 -0.1301  0.0194
  289MOL0     N38067   9.578   6.527   9.265 -0.6382  0.1220  0.6932
  289MOL0     C38068  10.796   6.636   8.780 -0.5486 -0.7296 -0.1284
  289MOL0     C38069  10.924   6.652   8.734 -0.2547  0.2875 -0.1185
  289MOL0     C38070  11.358   6.696   8.758  0.0372 -0.6014  0.2878
  289MOL0     C38071  11.446   6.590   8.747  0.1356 -0.4461 -0.1166
  289MOL0     C38072  11.571   6.610   8.701  0.3090  0.0532  0.5585
  289MOL0     C38073  11.619   6.732   8.662  0.3146 -0.1472 -0.6190
  289MOL0     O38074  11.751   6.724   8.623  0.1040 -0.5861  0.5548
  289MOL0     C38075  11.798   6.849   8.555  0.5511  1.2021  0.9260
  289MOL0     C38076  11.939   6.818   8.510 -0.2888 -0.3156 -0.3960
  289MOL0     C38077  12.038   6.752   8.611  0.3870  0.1470  0.0113
  289MOL0     C38078  12.051   6.843   8.733 -0.3410 -0.4056  0.2638
  289MOL0     C38079  12.141   6.774   8.829 -0.1122  1.0754  0.1161
  289MOL0     C38080  12.192   6.696   8.905  0.2323 -0.1081  0.6079
  289MOL0     C38081  11.531   6.847   8.676 -1.4354  0.7692 -0.9680
  289MOL0     C38082  11.403   6.828   8.715 -0.0081  0.0844 -0.0790
  289MOL0     H38083  11.023   6.874   8.977 -1.2980  1.1471  1.1375
  289MOL0     H38084  10.798   6.831   9.061  2.6621  1.1984 -0.6177
  289MOL0     H38085  10.526   6.814   9.060  0.8189 -0.3548  3.8290
  289MOL0     H38086  10.626   6.680   9.111 -2.1216 -0.9960  0.6292
  289MOL0     H38087  10.378   6.633   9.134  2.6596  0.6034 -0.0628
  289MOL0     H38088  10.466   6.522   9.033  1.1803 -0.1488  2.3938
  289MOL0     H38089  10.392   6.613   8.829  2.6030 -2.1603  1.9365
  289MOL0     H38090  10.314   6.753   8.899  3.3120  0.0829 -1.7129
  289MOL0     H38091  10.161   6.575   8.825 -1.5203 -1.1196  0.8641
  289MOL0     H38092  10.231   6.457   8.935  1.1290  0.1178  2.4968
  289MOL0     H38093  10.100   6.705   9.031 -2.7925 -0.1818 -1.3884
  289MOL0     H38094  10.154   6.580   9.131 -2.2344 -1.3511 -0.0055
  289MOL0     H38095   9.996   6.414   9.042  2.1743  0.6734  2.7803
  289MOL0     H38096   9.925   6.525   8.928 -2.9243 -1.2654  0.7671
  289MOL0     H38097   9.918   6.592   9.226  0.4083 -2.4971 -0.0075
  289MOL0     H38098   9.842   6.684   9.090  0.1328  0.0449 -1.8686
  289MOL0     H38099   9.774   6.411   9.190 -2.5935  0.1162  0.0013
  289MOL0     H38100   9.765   6.442   9.015  0.8473 -0.1159 -0.7464
  289MOL0     H38101   9.578   6.643   8.966 -2.4714  0.8052  0.1369
  289MOL0     H38102   9.329   6.768   9.030 -1.2888 -0.4604 -0.5961
  289MOL0     H38103   9.241   6.698   9.182 -1.4074 -1.8119 -0.2076
  289MOL0     H38104   9.229   6.491   9.052 -0.1774  0.3644 -0.0386
  289MOL0     H38105   9.313   6.577   8.924 -0.6596  2.3265 -1.0871
  289MOL0     H38106   9.092   6.744   8.946 -1.5938  0.4071  0.1464
  289MOL0     H38107   9.092   6.584   8.861 -2.0913  2.0221 -0.5256
  289MOL0     H38108   9.014   6.658   9.151 -2.8969  1.0839  1.1417
  289MOL0     H38109   9.001   6.497   9.074 -0.7415  1.0570  3.9384
  289MOL0     H38110   8.652   6.657   8.874 -3.3896 -1.0626 -0.4197
  289MOL0     H38111   8.432   6.590   8.950  1.3295  1.7551 -1.1586
  289MOL0     H38112   8.328   6.207   9.412 -0.4347  1.2200 -2.0794
  289MOL0     H38113   8.097   6.114   9.523 -3.8260  1.2592  1.2649
  289MOL0     H38114   7.712   6.368   9.534 -3.2461  1.1270  3.5826
  289MOL0     H38115   7.811   6.408   9.674  0.6902 -2.5362  1.5740
  289MOL0     H38116   7.620   6.297   9.747  0.3594  1.6055 -0.6403
  289MOL0     H38117   7.757   6.198   9.799  0.0211  2.7113  1.8175
  289MOL0     H38118   7.711   6.046   9.605 -1.2246 -0.3195 -4.2348
  289MOL0     H38119   7.608   6.155   9.527 -0.1716 -2.6782 -0.6094
  289MOL0     H38120   7.520   5.961   9.677 -2.1770  0.0074 -2.2109
  289MOL0     H38121   7.548   6.086   9.803  1.5060  3.6849 -1.8770
  289MOL0     H38122   7.373   6.141   9.562  1.1605  1.4764 -0.3760
  289MOL0     H38123   7.382   6.242   9.707 -1.3149 -1.1009  0.7748
  289MOL0     H38124   7.255   6.076   9.834 -1.6221 -0.6894 -0.5433
  289MOL0     H38125   7.301   5.956   9.702 -0.3816  0.1591 -2.1048
  289MOL0     H38126   7.057   6.032   9.724  0.1108  0.7227  1.3523
  289MOL0     H38127   7.107   6.185   9.643  1.5130  0.8017  0.4213
  289MOL0     H38128   7.174   6.074   9.452  1.1803 -0.4325  0.7122
  289MOL0     H38129   7.020   6.015   9.486  0.2533 -0.7826  0.8090
  289MOL0     H38130   7.941   6.512   9.500  1.3815  1.3968  1.0506
  289MOL0     H38131   8.159   6.595   9.409  0.2788  0.2944  0.5798
  289MOL0     H38132   8.620   6.448   9.317  2.4054  0.7364  1.0340
  289MOL0     H38133   8.830   6.499   9.237 -2.1075  0.7185  2.6754
  289MOL0     H38134  10.735   6.568   8.722 -1.2620 -0.1656 -0.0594
  289MOL0     H38135  10.964   6.582   8.661 -4.2792 -2.3523 -0.1197
  289MOL0     H38136  11.412   6.490   8.770 -0.5285 -0.5375 -1.4128
  289MOL0     H38137  11.637   6.525   8.689  0.6041  0.2110  1.0651
  289MOL0     H38138  11.815   6.932   8.624  1.4540  0.5189  1.5508
  289MOL0     H38139  11.730   6.872   8.473  0.9435  1.0303  0.5531
  289MOL0     H38140  11.939   6.764   8.415  1.5318  1.5725 -1.5292
  289MOL0     H38141  11.982   6.915   8.488 -2.2805  0.7987  0.3268
  289MOL0     H38142  12.130   6.735   8.556  0.6999  1.5467  0.0553
  289MOL0     H38143  12.002   6.653   8.641  0.0201 -0.0558 -1.0768
  289MOL0     H38144  12.093   6.938   8.700  0.5746 -1.3533 -1.4698
  289MOL0     H38145  11.957   6.873   8.779  0.8025  0.8149  1.9779
  289MOL0     H38146  12.261   6.642   8.967  3.3163  3.0282  0.1902
  289MOL0     H38147  11.564   6.945   8.644  0.6607  0.6536  0.6194
  289MOL0     H38148  11.331   6.910   8.720 -1.6793 -1.1851 -1.7343
  290MOL0     O38149  10.366   9.615   1.722 -0.3053  0.6878 -0.0536
  290MOL0     C38150  10.428   9.618   1.615  0.3677  0.0551  0.3825
  290MOL0     O38151  10.408   9.533   1.512 -0.4664  0.4119 -0.0141
  290MOL0     C38152  10.296   9.447   1.515 -0.0614 -0.6584 -0.0755
  290MOL0     C38153  10.318   9.308   1.522  1.0119 -0.4957  0.0366
  290MOL0     C38154  10.201   9.226   1.549  0.5574 -0.0135  0.4305
  290MOL0     C38155  10.072   9.278   1.547  0.1169 -0.5841  0.5243
  290MOL0     O38156   9.969   9.190   1.570  0.2228 -0.7323 -0.7103
  290MOL0     C38157   9.860   9.242   1.649  0.1180 -0.1525  0.2084
  290MOL0     C38158   9.797   9.132   1.728  0.1794 -0.1192 -0.4500
  290MOL0     C38159   9.671   9.189   1.790  0.0664  0.1063  0.2742
  290MOL0     C38160   9.611   9.097   1.896  0.1565 -0.5675  0.6529
  290MOL0     C38161   9.492   9.158   1.967  0.2192 -0.1808 -0.4988
  290MOL0     C38162   9.447   9.075   2.100  0.7305 -0.8263 -0.0891
  290MOL0     C38163   9.297   9.065   2.090 -0.2528  0.5833 -0.5238
  290MOL0     C38164   9.256   8.949   1.997 -0.1519 -0.3643  0.5456
  290MOL0     N38165   9.116   8.953   1.956 -0.3691  0.2318  0.6402
  290MOL0     C38166   9.003   8.949   2.032  0.2750 -0.1356 -0.1630
  290MOL0     C38167   8.899   8.929   1.943 -0.3334 -0.8299 -0.7176
  290MOL0     C38168   8.757   8.897   1.981 -0.1363  0.0015 -0.5597
  290MOL0     C38169   8.652   8.961   1.891  0.1522  0.3483  0.3189
  290MOL0     C38170   8.652   9.116   1.901  0.3638 -0.2437  0.5723
  290MOL0     C38171   8.524   9.174   1.836 -0.2837 -0.1561  0.3498
  290MOL0     O38172   8.548   9.156   1.693  0.0277  0.3896 -0.4391
  290MOL0     C38173   8.450   9.192   1.613 -0.4260  0.6395  0.2792
  290MOL0     C38174   8.338   9.269   1.649 -0.3262  0.5784  0.3691
  290MOL0     C38175   8.240   9.301   1.563 -0.1130  0.3728  0.1502
  290MOL0     C38176   8.245   9.259   1.428  0.5675 -0.4411 -0.8449
  290MOL0     C38177   8.139   9.285   1.327  0.6205 -0.4113  0.5411
  290MOL0     O38178   8.146   9.222   1.208  0.4270  0.2175 -0.0948
  290MOL0     C38179   8.050   9.245   1.110 -0.7104 -0.5325  1.3175
  290MOL0     C38180   8.047   9.362   1.041 -0.4917  0.0607 -0.3625
  290MOL0     C38181   7.957   9.385   0.937 -0.0270  0.5488  0.6649
  290MOL0     C38182   7.867   9.282   0.911 -0.1690  0.2714 -0.3484
  290MOL0     O38183   7.765   9.312   0.823 -0.1413 -0.7130 -0.9054
  290MOL0     C38184   7.647   9.236   0.823 -0.3336  0.1129 -0.3581
  290MOL0     C38185   7.554   9.287   0.717  0.5894  0.4481  0.6649
  290MOL0     C38186   7.617   9.271   0.580  0.2402  0.1605  0.0592
  290MOL0     C38187   7.507   9.294   0.480  0.4963  1.0147 -0.8338
  290MOL0     C38188   7.538   9.257   0.337  0.2740 -0.4615  0.6607
  290MOL0     C38189   7.580   9.107   0.312 -0.0944  0.1581  0.7637
  290MOL0     C38190   7.471   9.008   0.340  0.3417 -0.1302  0.1489
  290MOL0     C38191   7.508   8.869   0.288  0.2135  0.3661  0.2779
  290MOL0    Cl38192   7.362   8.764   0.268 -0.0356 -0.4315 -0.1901
  290MOL0     C38193   7.880   9.161   0.972  0.3638  0.0969  0.0222
  290MOL0     C38194   7.980   9.136   1.062 -0.2620 -0.2190 -0.7583
  290MOL0     O38195   8.051   9.366   1.360 -0.3498 -0.2030  0.6805
  290MOL0     C38196   8.360   9.189   1.387 -0.4356  0.0189 -0.4316
  290MOL0     C38197   8.464   9.153   1.483 -0.4174 -0.5709  0.1048
  290MOL0     N38198   8.952   8.927   1.816  0.1160  0.6377  0.2816
  290MOL0     N38199   9.073   8.941   1.819 -0.1155 -0.5018 -0.4552
  290MOL0     C38200  10.058   9.422   1.540 -0.1319  0.3742  0.1032
  290MOL0     C38201  10.174   9.497   1.532  0.4139 -0.9791  0.1206
  290MOL0     C38202  10.548   9.701   1.596 -0.3764  0.1320 -0.0852
  290MOL0     C38203  10.655   9.650   1.527 -0.4333  0.4454  0.8526
  290MOL0     C38204  10.756   9.734   1.494  0.2607  0.2892  0.4292
  290MOL0     C38205  10.767   9.865   1.546 -0.2372  0.5734 -0.0493
  290MOL0     O38206  10.864   9.962   1.519  0.1049 -0.7511  0.7319
  290MOL0     C38207  10.979   9.925   1.443  0.2433 -0.1911  0.4576
  290MOL0     C38208  11.072   9.860   1.539  0.6770 -0.3657 -0.3608
  290MOL0     C38209  11.186   9.787   1.455 -0.3571 -0.4403 -0.2167
  290MOL0     C38210  11.266   9.700   1.547 -0.7136  0.4399 -0.0020
  290MOL0     C38211  11.186   9.578   1.580  0.3452  0.0441 -0.8252
  290MOL0     C38212  11.114   9.494   1.630  0.3477 -0.1966 -0.5305
  290MOL0     C38213  10.660   9.913   1.621 -0.3654 -0.6596  0.2103
  290MOL0     C38214  10.554   9.832   1.643 -0.7121 -0.0745 -0.4275
  290MOL0     H38215  10.411   9.253   1.509  1.6273 -0.5173  3.5936
  290MOL0     H38216  10.215   9.119   1.560  0.9718  0.1765  1.9147
  290MOL0     H38217   9.810   9.298   1.570  3.7060  3.0695 -0.0844
  290MOL0     H38218   9.890   9.322   1.718 -0.0571 -0.0858  0.2075
  290MOL0     H38219   9.862   9.087   1.804  0.6165  2.7662  1.0276
  290MOL0     H38220   9.767   9.055   1.656 -0.3530  1.5136 -2.0428
  290MOL0     H38221   9.598   9.219   1.715 -1.6301  1.1736  2.2419
  290MOL0     H38222   9.697   9.282   1.842  1.2534  0.9930 -1.7727
  290MOL0     H38223   9.576   9.004   1.850  0.3625  0.0709 -0.8499
  290MOL0     H38224   9.687   9.081   1.972  1.9302  0.2728 -0.8550
  290MOL0     H38225   9.411   9.176   1.895  0.3760  0.5158 -0.5042
  290MOL0     H38226   9.522   9.255   2.006  1.5517 -1.1941  1.1404
  290MOL0     H38227   9.465   9.125   2.196  1.1260 -0.8335 -0.1578
  290MOL0     H38228   9.504   8.982   2.099  3.1118  0.5104  1.1780
  290MOL0     H38229   9.257   9.051   2.191  3.3193  2.1948  1.2934
  290MOL0     H38230   9.250   9.154   2.046  3.1086  2.9628  0.2543
  290MOL0     H38231   9.278   8.863   2.062 -0.0918 -1.5007 -0.9141
  290MOL0     H38232   9.318   8.930   1.909  0.5509 -2.2641  1.3781
  290MOL0     H38233   8.993   8.955   2.140  2.0329  1.8724 -0.0434
  290MOL0     H38234   8.752   8.935   2.084 -1.6427  0.2729 -0.7157
  290MOL0     H38235   8.743   8.789   1.987  2.6040 -0.4989 -1.7666
  290MOL0     H38236   8.559   8.910   1.916  0.4932  0.7207  2.5626
  290MOL0     H38237   8.675   8.935   1.787  1.8009 -1.0277  0.9933
  290MOL0     H38238   8.649   9.147   2.006  0.9192  1.8006  0.0295
  290MOL0     H38239   8.738   9.162   1.852  0.9210  0.1567  1.9018
  290MOL0     H38240   8.518   9.281   1.856  2.2809  0.0441  0.4626
  290MOL0     H38241   8.442   9.111   1.870 -1.9220  1.0772 -1.1612
  290MOL0     H38242   8.331   9.311   1.749 -0.2480  1.1752  0.1266
  290MOL0     H38243   8.156   9.366   1.584  0.8016  1.7836 -0.4363
  290MOL0     H38244   8.121   9.438   1.063  3.4678 -2.2491 -4.0386
  290MOL0     H38245   7.945   9.482   0.891 -1.2156  0.7628  1.3824
  290MOL0     H38246   7.598   9.229   0.921  0.9521 -0.4022  0.2677
  290MOL0     H38247   7.669   9.130   0.807 -0.4453  0.0426 -0.0646
  290MOL0     H38248   7.516   9.388   0.730 -1.9274 -0.2302 -0.7273
  290MOL0     H38249   7.467   9.222   0.714  0.2888  0.8675 -1.1637
  290MOL0     H38250   7.644   9.165   0.571  1.7216  0.5588 -0.5525
  290MOL0     H38251   7.706   9.332   0.562  0.5777  0.6560  2.8855
  290MOL0     H38252   7.421   9.236   0.515  1.9320 -1.3041 -0.9543
  290MOL0     H38253   7.472   9.398   0.488 -0.2985  0.9815 -3.2115
  290MOL0     H38254   7.614   9.321   0.292 -1.6995  0.5529 -1.3837
  290MOL0     H38255   7.448   9.278   0.279  0.0652 -2.1102  0.3352
  290MOL0     H38256   7.663   9.081   0.379  0.4165  2.3864  1.0769
  290MOL0     H38257   7.609   9.098   0.208 -3.7427 -3.4991 -0.2261
  290MOL0     H38258   7.439   8.996   0.444 -0.9445 -1.7610 -0.3853
  290MOL0     H38259   7.386   9.052   0.288  0.5447 -0.3295 -0.3612
  290MOL0     H38260   7.579   8.830   0.362 -2.3679 -0.5611  2.4317
  290MOL0     H38261   7.564   8.884   0.195  2.3438  0.2741  1.4883
  290MOL0     H38262   7.807   9.084   0.950  1.8774 -0.4683 -3.6786
  290MOL0     H38263   7.985   9.033   1.097 -1.8074 -1.0931 -2.8992
  290MOL0     H38264   8.369   9.144   1.288  0.6983 -1.5089  0.3192
  290MOL0     H38265   8.550   9.091   1.459 -0.1112 -0.6543  1.3511
  290MOL0     H38266   9.961   9.466   1.558 -0.7520 -0.7951 -0.2957
  290MOL0     H38267  10.152   9.603   1.546 -4.1452 -1.6184 -0.9507
  290MOL0     H38268  10.653   9.549   1.486  0.1890  0.6802  0.2057
  290MOL0     H38269  10.836   9.703   1.427  0.0072 -0.2350  0.3676
  290MOL0     H38270  11.012  10.021   1.403 -3.2108  0.5844 -0.9042
  290MOL0     H38271  10.963   9.850   1.365 -1.1257 -0.4634  0.9726
  290MOL0     H38272  11.118   9.936   1.603 -0.2720  1.9477 -2.3106
  290MOL0     H38273  11.013   9.790   1.599  0.0933  0.4709  0.0577
  290MOL0     H38274  11.235   9.876   1.414 -1.5470  1.1062  1.5561
  290MOL0     H38275  11.142   9.728   1.374  0.0049 -0.6918 -0.2340
  290MOL0     H38276  11.362   9.668   1.507 -0.4646 -0.3930  1.1994
  290MOL0     H38277  11.281   9.754   1.640 -0.8195 -0.5003  0.5800
  290MOL0     H38278  11.058   9.411   1.668 -0.6643 -0.5903 -2.7276
  290MOL0     H38279  10.656  10.017   1.650 -1.7641 -0.4325 -0.6529
  290MOL0     H38280  10.472   9.881   1.694  0.0273  2.8357 -1.8361
  291MOL0     O38281  10.181   2.659   6.662 -0.3841 -0.0588  0.1306
  291MOL0     C38282  10.265   2.575   6.688 -0.2801  0.8901 -0.4267
  291MOL0     O38283  10.240   2.446   6.720 -0.3222 -0.0066 -0.4780
  291MOL0     C38284  10.108   2.390   6.719 -0.2577 -0.2146 -0.0056
  291MOL0     C38285  10.064   2.307   6.819 -0.0046 -0.9836 -0.2535
  291MOL0     C38286   9.934   2.260   6.828  0.0425 -0.1711  0.9545
  291MOL0     C38287   9.841   2.287   6.728 -0.7566  0.3091 -0.1367
  291MOL0     O38288   9.720   2.218   6.748 -0.0726 -0.0519 -0.3897
  291MOL0     C38289   9.616   2.225   6.642 -0.2369  0.1003 -0.1030
  291MOL0     C38290   9.492   2.141   6.680  0.4305 -0.3165 -0.0269
  291MOL0     C38291   9.410   2.194   6.804 -0.4977 -0.0451 -0.8062
  291MOL0     C38292   9.392   2.347   6.805  0.1197 -0.7484  0.0529
  291MOL0     C38293   9.267   2.394   6.731  0.4399 -0.2463 -0.1348
  291MOL0     C38294   9.238   2.546   6.752 -0.1427  0.1488  0.7135
  291MOL0     C38295   9.223   2.596   6.901  1.3448  0.7764  0.6422
  291MOL0     C38296   9.149   2.732   6.900 -0.4011  0.5213  0.4235
  291MOL0     N38297   9.155   2.789   7.034 -0.1594  0.4438  0.1273
  291MOL0     C38298   9.072   2.750   7.137  1.1143  0.2832  0.8600
  291MOL0     C38299   9.100   2.826   7.239  0.0725  0.0340 -0.4658
  291MOL0     C38300   9.054   2.795   7.384  0.4192  0.2050  0.1426
  291MOL0     C38301   8.932   2.878   7.411 -0.1666 -0.1128 -0.2601
  291MOL0     C38302   8.898   2.876   7.564  0.5710 -1.3069 -0.1972
  291MOL0     C38303   8.812   2.996   7.608 -0.6787 -0.0473  0.2381
  291MOL0     O38304   8.708   3.040   7.523  0.1059 -0.7865  0.0080
  291MOL0     C38305   8.585   2.986   7.551 -0.0439 -0.5568  0.8993
  291MOL0     C38306   8.557   2.854   7.603  0.1978  0.3404  0.5048
  291MOL0     C38307   8.428   2.809   7.615 -0.6510  0.3726 -0.5903
  291MOL0     C38308   8.319   2.895   7.592 -0.0178  0.1322  0.8104
  291MOL0     C38309   8.180   2.859   7.619  0.2232  0.3423  0.3685
  291MOL0     O38310   8.154   2.734   7.665 -0.8484  0.9761  0.6432
  291MOL0     C38311   8.026   2.682   7.686 -0.2673  1.1337 -0.0512
  291MOL0     C38312   7.921   2.698   7.592  0.0839  0.5030 -0.7061
  291MOL0     C38313   7.798   2.636   7.614 -0.2913  0.5160  0.2484
  291MOL0     C38314   7.786   2.550   7.727  0.3605  0.8563  0.4913
  291MOL0     O38315   7.673   2.473   7.753 -0.0439 -0.4016 -0.5230
  291MOL0     C38316   7.597   2.433   7.641  0.1672 -0.1697  0.7545
  291MOL0     C38317   7.496   2.331   7.699  1.3082 -0.3203 -0.0543
  291MOL0     C38318   7.377   2.311   7.603  0.3540 -0.2554  0.3514
  291MOL0     C38319   7.273   2.227   7.665  0.2037  0.0020 -0.1784
  291MOL0     C38320   7.155   2.220   7.570 -0.0172  0.6438 -0.2831
  291MOL0     C38321   7.023   2.162   7.636 -0.0134  0.3725  0.5897
  291MOL0     C38322   6.917   2.135   7.518  0.5567 -0.9856  0.7287
  291MOL0     C38323   6.769   2.129   7.559 -0.1459  0.0602 -0.3161
  291MOL0    Cl38324   6.750   1.986   7.675 -0.3146  0.0448 -0.2953
  291MOL0     C38325   7.882   2.536   7.824  1.2965 -0.2917 -0.5025
  291MOL0     C38326   8.011   2.596   7.799  0.5767  0.0240 -0.1850
  291MOL0     O38327   8.090   2.946   7.607 -0.1835 -0.1251  0.2332
  291MOL0     C38328   8.343   3.021   7.527 -0.0146 -0.0974 -0.8952
  291MOL0     C38329   8.481   3.066   7.507  0.6126  0.7339 -0.3933
  291MOL0     N38330   9.203   2.913   7.199 -0.3420  0.1797  0.1399
  291MOL0     N38331   9.241   2.884   7.083  0.3537 -0.1451 -0.1948
  291MOL0     C38332   9.886   2.361   6.615 -0.3039  0.7113 -0.3470
  291MOL0     C38333  10.019   2.417   6.611 -0.3359  0.2107  0.0452
  291MOL0     C38334  10.407   2.618   6.704 -0.4170 -0.1211  1.0594
  291MOL0     C38335  10.501   2.531   6.752 -0.3153  0.5414  0.8712
  291MOL0     C38336  10.634   2.579   6.789  0.8555  0.3538 -0.4279
  291MOL0     C38337  10.669   2.708   6.759 -0.3338  0.0916  0.0844
  291MOL0     O38338  10.796   2.743   6.790  0.0630 -0.0510  0.3574
  291MOL0     C38339  10.848   2.867   6.748  0.4137 -0.1139  0.2813
  291MOL0     C38340  10.994   2.872   6.774 -0.1199  0.0565  0.2107
  291MOL0     C38341  11.071   2.759   6.709  0.5712 -0.2970 -0.7063
  291MOL0     C38342  11.224   2.788   6.705 -0.3063  1.3431 -0.1973
  291MOL0     C38343  11.272   2.892   6.612 -0.3843  0.7829 -0.6434
  291MOL0     C38344  11.324   2.972   6.544 -0.6270 -0.1895  0.2001
  291MOL0     C38345  10.569   2.792   6.698 -0.1158 -0.1408  0.0315
  291MOL0     C38346  10.442   2.752   6.680 -0.0988  0.2939  0.1984
  291MOL0     H38347  10.134   2.260   6.887  0.4595 -2.0588 -1.4544
  291MOL0     H38348   9.915   2.184   6.903 -0.8792 -0.2263  0.6820
  291MOL0     H38349   9.666   2.175   6.559 -0.7305 -0.9371  0.2085
  291MOL0     H38350   9.587   2.329   6.622  1.4037  0.7094  0.4572
  291MOL0     H38351   9.527   2.038   6.694  2.3515 -0.1167 -2.6481
  291MOL0     H38352   9.426   2.136   6.592 -1.7152 -1.7235  1.5462
  291MOL0     H38353   9.470   2.166   6.891 -2.8942 -1.5323  0.4525
  291MOL0     H38354   9.311   2.150   6.818 -2.5988  3.4157 -3.2233
  291MOL0     H38355   9.379   2.378   6.909  0.5960  0.0160 -0.1071
  291MOL0     H38356   9.477   2.402   6.764  0.3378 -0.3548  0.9944
  291MOL0     H38357   9.172   2.349   6.760 -0.4242  0.8450 -1.1645
  291MOL0     H38358   9.281   2.378   6.624  0.8468  2.7910 -0.6460
  291MOL0     H38359   9.154   2.569   6.685  0.2105  0.6436  0.4282
  291MOL0     H38360   9.317   2.608   6.707 -1.0332  1.9979  1.6019
  291MOL0     H38361   9.164   2.524   6.959  0.7575 -0.2212 -1.0991
  291MOL0     H38362   9.325   2.608   6.938  0.9969  0.9330  1.5751
  291MOL0     H38363   9.049   2.738   6.857  0.0930  0.8372 -0.7293
  291MOL0     H38364   9.215   2.795   6.838  1.0390  0.6817  2.0334
  291MOL0     H38365   9.008   2.662   7.141  1.1339  0.1632 -0.6001
  291MOL0     H38366   9.132   2.827   7.453 -1.2800  3.6058  0.7213
  291MOL0     H38367   9.035   2.689   7.406 -1.6540  0.4089 -0.4456
  291MOL0     H38368   8.848   2.843   7.350 -0.0559 -2.4511  0.8283
  291MOL0     H38369   8.945   2.981   7.378  0.3179 -0.0510  0.1160
  291MOL0     H38370   8.850   2.778   7.572 -0.8086 -0.9941 -3.2788
  291MOL0     H38371   8.987   2.873   7.628  1.5317  4.9728 -0.5684
  291MOL0     H38372   8.874   3.086   7.613 -0.9174  0.0612  2.8028
  291MOL0     H38373   8.780   2.981   7.712 -0.2886 -2.7010  0.0482
  291MOL0     H38374   8.648   2.796   7.604  0.7288  0.9355 -2.7596
  291MOL0     H38375   8.411   2.712   7.660  1.1342  0.5709  0.5926
  291MOL0     H38376   7.946   2.755   7.504  0.6941  2.5105  0.6938
  291MOL0     H38377   7.725   2.650   7.536  2.2672  2.5202 -1.9653
  291MOL0     H38378   7.657   2.381   7.567 -1.9109 -0.6361 -0.6745
  291MOL0     H38379   7.548   2.511   7.582  0.1230 -2.6300 -2.7235
  291MOL0     H38380   7.457   2.370   7.794 -1.1767  0.4075 -1.2662
  291MOL0     H38381   7.543   2.235   7.719  0.7028  0.1001  4.5203
  291MOL0     H38382   7.413   2.256   7.516  0.9718  3.6060 -2.0195
  291MOL0     H38383   7.337   2.405   7.564 -0.9929  0.7321  3.6935
  291MOL0     H38384   7.306   2.127   7.693 -2.1101 -0.6083  0.5543
  291MOL0     H38385   7.247   2.280   7.757 -0.3931  0.6714 -0.7228
  291MOL0     H38386   7.189   2.153   7.491  1.4147  0.1859  0.6767
  291MOL0     H38387   7.136   2.320   7.531  0.2027  1.2044  0.9770
  291MOL0     H38388   6.978   2.231   7.709 -1.7858  0.3197 -0.3883
  291MOL0     H38389   7.048   2.068   7.686  0.2222  1.0152  1.7310
  291MOL0     H38390   6.941   2.205   7.437  1.0161 -0.5576  1.2203
  291MOL0     H38391   6.941   2.037   7.476  1.3804 -0.7775  0.6857
  291MOL0     H38392   6.708   2.121   7.469 -1.6801  1.6383  0.5237
  291MOL0     H38393   6.735   2.223   7.603  0.6399  1.3637 -2.3081
  291MOL0     H38394   7.851   2.475   7.908 -1.6878 -0.0898 -1.3220
  291MOL0     H38395   8.099   2.568   7.857  0.7118 -1.1933 -0.9416
  291MOL0     H38396   8.257   3.080   7.493 -0.6338 -1.0954 -1.1096
  291MOL0     H38397   8.503   3.159   7.455 -0.0578  0.7709 -0.6167
  291MOL0     H38398   9.811   2.384   6.540 -0.4840 -0.9182 -0.7060
  291MOL0     H38399  10.046   2.491   6.537 -0.3636  0.5630  0.3825
  291MOL0     H38400  10.475   2.426   6.764 -0.0102  0.3435 -0.1014
  291MOL0     H38401  10.699   2.510   6.841  1.5995  1.4033  0.0685
  291MOL0     H38402  10.786   2.940   6.801  0.5006 -0.5000  0.9316
  291MOL0     H38403  10.832   2.870   6.640  0.5705 -1.4668  0.2041
  291MOL0     H38404  11.025   2.967   6.730 -0.0584 -0.2056 -0.3155
  291MOL0     H38405  11.014   2.869   6.881 -1.4816 -0.4948  0.4728
  291MOL0     H38406  11.023   2.757   6.611  0.5731  3.3201 -0.9246
  291MOL0     H38407  11.059   2.668   6.768 -0.2887  0.8785  1.0252
  291MOL0     H38408  11.268   2.793   6.805  0.1093  0.3446 -0.3227
  291MOL0     H38409  11.266   2.694   6.669 -2.1534 -1.0040  3.1953
  291MOL0     H38410  11.369   3.048   6.483 -2.1910 -0.5194 -1.4534
  291MOL0     H38411  10.595   2.891   6.664  1.2365  0.6043  2.9468
  291MOL0     H38412  10.365   2.826   6.661 -0.0806  0.5038  0.8993
  292MOL0     O38413   4.668   2.097   7.980 -0.8178 -0.1828  0.1851
  292MOL0     C38414   4.736   2.197   8.012 -0.4957 -0.1934  0.1699
  292MOL0     O38415   4.701   2.334   7.999  0.4539 -0.1361  0.4896
  292MOL0     C38416   4.575   2.357   7.949  0.2043  0.0835 -0.0928
  292MOL0     C38417   4.560   2.429   7.829 -0.4609 -0.1339 -0.5343
  292MOL0     C38418   4.436   2.459   7.768 -0.2300  0.2217  0.2000
  292MOL0     C38419   4.321   2.433   7.838 -0.2925 -1.3589 -0.9013
  292MOL0     O38420   4.204   2.471   7.789 -0.0177  0.1293  0.6722
  292MOL0     C38421   4.076   2.461   7.866  0.1340  0.4772 -0.8362
  292MOL0     C38422   3.966   2.517   7.775 -0.4393 -0.1923  0.2034
  292MOL0     C38423   3.832   2.471   7.813  0.5692  0.2491 -0.2078
  292MOL0     C38424   3.727   2.534   7.707  0.0518 -0.2577  0.1632
  292MOL0     C38425   3.592   2.460   7.702 -0.0328 -0.1224  0.3251
  292MOL0     C38426   3.500   2.530   7.603 -0.2581  0.0175  0.5050
  292MOL0     C38427   3.355   2.482   7.614 -0.3862 -0.5337 -0.1596
  292MOL0     C38428   3.285   2.504   7.750  0.2261  0.5619 -0.6057
  292MOL0     N38429   3.155   2.447   7.771 -0.5501  0.1026  0.0599
  292MOL0     C38430   3.141   2.305   7.780 -0.9916  0.8339  0.6689
  292MOL0     C38431   3.013   2.273   7.777 -0.2437 -0.2793  0.4033
  292MOL0     C38432   2.940   2.144   7.798  0.3212  0.9711  0.4350
  292MOL0     C38433   2.870   2.108   7.677  0.5261 -0.5370  0.0734
  292MOL0     C38434   2.770   1.994   7.691  0.0075  0.7929 -0.3944
  292MOL0     C38435   2.654   2.029   7.599  0.4932  0.0047 -0.2061
  292MOL0     O38436   2.557   1.928   7.580 -0.1339  0.2564 -1.0540
  292MOL0     C38437   2.475   1.871   7.673 -0.0331  0.2815 -0.1390
  292MOL0     C38438   2.534   1.791   7.774  0.0103 -0.3690  0.7641
  292MOL0     C38439   2.458   1.739   7.868  0.5952  0.0786 -0.0076
  292MOL0     C38440   2.316   1.744   7.852  0.1324 -0.1713  0.1797
  292MOL0     C38441   2.242   1.676   7.963  0.4409 -0.0065 -1.0130
  292MOL0     O38442   2.116   1.630   7.925  0.2279 -0.3376 -0.3400
  292MOL0     C38443   2.032   1.553   8.007 -0.0743  0.0541  0.7730
  292MOL0     C38444   1.902   1.563   7.961 -0.5617  0.6676 -0.1290
  292MOL0     C38445   1.790   1.523   8.033  0.0402  0.9241 -0.3220
  292MOL0     C38446   1.817   1.465   8.154  0.7552  0.2823  0.7708
  292MOL0     O38447   1.707   1.422   8.221 -0.0152 -0.1469 -0.7264
  292MOL0     C38448   1.728   1.319   8.328 -0.1439  0.2567  0.7719
  292MOL0     C38449   1.584   1.282   8.368  0.5935  0.6769  0.6308
  292MOL0     C38450   1.518   1.402   8.432 -0.5004 -0.2839 -0.3767
  292MOL0     C38451   1.400   1.376   8.524  0.0494 -0.2021 -0.0415
  292MOL0     C38452   1.365   1.501   8.610 -0.0946 -0.4219 -0.1195
  292MOL0     C38453   1.245   1.506   8.701  0.6319  0.7124  0.1952
  292MOL0     C38454   1.231   1.642   8.769  1.2321 -0.0615 -0.4069
  292MOL0     C38455   1.088   1.642   8.825 -0.7288  0.3296  0.8012
  292MOL0    Cl38456   1.061   1.509   8.936  0.1821  0.3165 -0.3917
  292MOL0     C38457   1.950   1.451   8.206  0.3548  0.0065 -0.1060
  292MOL0     C38458   2.055   1.492   8.124 -0.2210  0.5061 -0.2257
  292MOL0     O38459   2.302   1.659   8.068 -0.2673 -0.0427 -0.3130
  292MOL0     C38460   2.256   1.812   7.752 -0.0013  0.4024  0.3426
  292MOL0     C38461   2.337   1.874   7.659  0.6028 -0.1129  0.0959
  292MOL0     N38462   2.945   2.392   7.759 -0.7448  0.7724  0.7326
  292MOL0     N38463   3.028   2.493   7.762 -0.2001  0.1816 -0.1561
  292MOL0     C38464   4.331   2.364   7.957 -0.3442 -0.0272 -0.8139
  292MOL0     C38465   4.451   2.331   8.015 -0.2280  0.7978  0.6605
  292MOL0     C38466   4.886   2.164   8.044  0.0392  0.0838  0.0332
  292MOL0     C38467   4.936   2.031   8.054 -1.0687 -0.2111 -0.2569
  292MOL0     C38468   5.065   2.008   8.082  0.1532  0.3658 -0.4575
  292MOL0     C38469   5.158   2.117   8.104 -0.4305  0.6587  0.3300
  292MOL0     O38470   5.285   2.071   8.119 -0.9289 -0.4027 -0.4065
  292MOL0     C38471   5.386   2.162   8.096 -1.1089  0.4113 -0.1174
  292MOL0     C38472   5.504   2.076   8.057 -0.4091  0.1239 -0.2453
  292MOL0     C38473   5.636   2.162   8.074 -0.4091 -0.2363  0.4032
  292MOL0     C38474   5.763   2.089   8.033  0.5216 -0.2117  0.5072
  292MOL0     C38475   5.893   2.155   8.053  0.0663  0.6886  0.0196
  292MOL0     C38476   6.001   2.201   8.074 -0.0379 -0.4521  0.2303
  292MOL0     C38477   5.112   2.245   8.090  0.3033  0.5272  0.3244
  292MOL0     C38478   4.979   2.269   8.056  0.2440 -0.0734  0.2384
  292MOL0     H38479   4.649   2.449   7.772 -1.8341 -0.2859 -2.8474
  292MOL0     H38480   4.419   2.493   7.666  0.6710 -0.8864 -0.3447
  292MOL0     H38481   4.076   2.507   7.965  1.0368  1.0361 -1.0844
  292MOL0     H38482   4.068   2.353   7.884  3.0541  0.5471  1.7575
  292MOL0     H38483   3.971   2.488   7.670 -0.1785  0.4995  0.0220
  292MOL0     H38484   3.965   2.626   7.788 -1.8904 -0.0530 -0.7906
  292MOL0     H38485   3.807   2.497   7.916  4.1838  1.9628  0.3849
  292MOL0     H38486   3.822   2.363   7.816 -0.8070  0.3694  2.5237
  292MOL0     H38487   3.728   2.643   7.717 -0.3878  0.0986 -2.8338
  292MOL0     H38488   3.772   2.522   7.608  0.3250  2.7515 -0.1502
  292MOL0     H38489   3.536   2.458   7.796 -2.6594  2.7191 -1.0032
  292MOL0     H38490   3.612   2.357   7.669 -3.0006 -0.6983  0.0790
  292MOL0     H38491   3.517   2.517   7.496 -1.0414  1.6174  0.1495
  292MOL0     H38492   3.503   2.636   7.630  0.0061 -0.3982  2.2260
  292MOL0     H38493   3.307   2.547   7.541  1.4002  0.2548 -0.6836
  292MOL0     H38494   3.339   2.377   7.585 -1.6145 -0.8439  1.4888
  292MOL0     H38495   3.284   2.613   7.764  1.7672  0.8499 -2.3527
  292MOL0     H38496   3.344   2.459   7.830 -0.4596  2.3931  1.0195
  292MOL0     H38497   3.227   2.239   7.777  0.2336  2.3947  0.0088
  292MOL0     H38498   2.867   2.153   7.880 -0.6972 -0.0183 -0.3262
  292MOL0     H38499   3.005   2.063   7.829 -0.3392  0.1344 -0.3129
  292MOL0     H38500   2.949   2.080   7.606  2.2452  1.6946  0.9906
  292MOL0     H38501   2.816   2.197   7.645  0.1025  0.5205  3.3771
  292MOL0     H38502   2.817   1.900   7.660 -2.3864 -0.2901 -0.9569
  292MOL0     H38503   2.724   1.983   7.790  0.6919 -0.7404 -0.2093
  292MOL0     H38504   2.691   2.068   7.504  1.6620 -1.2363 -0.2846
  292MOL0     H38505   2.604   2.116   7.641 -1.3206 -0.1518 -1.9402
  292MOL0     H38506   2.642   1.785   7.776 -0.0285 -0.8518  2.3105
  292MOL0     H38507   2.507   1.680   7.944  1.0947 -0.3933 -0.6912
  292MOL0     H38508   1.894   1.595   7.857  2.3710 -1.7921 -1.2702
  292MOL0     H38509   1.693   1.547   7.990 -0.0069  0.0392 -0.7216
  292MOL0     H38510   1.775   1.358   8.419 -0.0662 -0.3258  0.9809
  292MOL0     H38511   1.788   1.234   8.294  1.5094  2.1368 -1.4285
  292MOL0     H38512   1.592   1.198   8.438 -0.6972  0.9752  1.1810
  292MOL0     H38513   1.529   1.253   8.278  0.0644  2.4625  0.3452
  292MOL0     H38514   1.469   1.460   8.353  1.7567  0.8765 -1.0156
  292MOL0     H38515   1.593   1.469   8.476 -1.5413  0.9898 -0.4747
  292MOL0     H38516   1.317   1.343   8.461  0.6921 -3.1519  0.4800
  292MOL0     H38517   1.417   1.292   8.592  3.2030 -0.2914 -0.8082
  292MOL0     H38518   1.344   1.581   8.539  0.4865 -0.1348  0.0288
  292MOL0     H38519   1.447   1.536   8.674 -0.1546  1.1775 -0.8636
  292MOL0     H38520   1.257   1.433   8.782 -1.9147 -2.8755 -2.3355
  292MOL0     H38521   1.156   1.475   8.646  0.7733 -0.5324  0.6168
  292MOL0     H38522   1.303   1.648   8.852 -0.0650  0.2452  0.7308
  292MOL0     H38523   1.244   1.736   8.715  2.4483  1.0260  1.6408
  292MOL0     H38524   1.022   1.636   8.738  2.1393  4.8708 -2.1069
  292MOL0     H38525   1.079   1.735   8.882  0.2606  0.4603  0.7589
  292MOL0     H38526   1.955   1.434   8.313  0.0722  2.6897  0.3968
  292MOL0     H38527   2.158   1.486   8.158  0.1749  0.9904 -1.2938
  292MOL0     H38528   2.149   1.805   7.735 -0.4082  2.6366  1.6247
  292MOL0     H38529   2.283   1.914   7.574 -3.6027 -4.6863  0.2084
  292MOL0     H38530   4.243   2.337   8.014  1.6112  1.3328  3.2545
  292MOL0     H38531   4.458   2.279   8.110  1.0763  1.6592  1.0592
  292MOL0     H38532   4.873   1.944   8.039  0.2735 -0.9439 -1.9652
  292MOL0     H38533   5.106   1.908   8.072 -0.1174  0.2412 -0.3262
  292MOL0     H38534   5.416   2.216   8.186  1.1290 -1.9886  0.7066
  292MOL0     H38535   5.371   2.231   8.012  1.1498 -0.9093 -1.7410
  292MOL0     H38536   5.498   1.986   8.119  2.0993 -1.5423 -2.2254
  292MOL0     H38537   5.491   2.033   7.957 -1.3412 -2.1202  0.7664
  292MOL0     H38538   5.641   2.198   8.177  1.8290  3.6825 -0.8686
  292MOL0     H38539   5.631   2.241   7.999  0.2198  0.5024  1.1097
  292MOL0     H38540   5.767   1.999   8.096 -0.0981 -1.3633 -1.0277
  292MOL0     H38541   5.753   2.045   7.933 -3.2616 -1.0607  1.1089
  292MOL0     H38542   6.098   2.241   8.098  0.8159 -0.9842 -2.1407
  292MOL0     H38543   5.178   2.326   8.120  4.1435 -1.7824 -1.1506
  292MOL0     H38544   4.947   2.373   8.054  2.9119  0.8218 -0.6269
  293MOL0     O38545   6.301   5.590   8.356 -0.8881  0.0662 -0.5259
  293MOL0     C38546   6.352   5.618   8.249  0.0205  0.2019  0.5270
  293MOL0     O38547   6.282   5.646   8.131  0.0613  0.1899  0.0421
  293MOL0     C38548   6.151   5.676   8.119 -0.5807  0.5570  0.2483
  293MOL0     C38549   6.052   5.603   8.177  0.6609  0.5761  0.8588
  293MOL0     C38550   5.921   5.622   8.142  0.8235 -1.0958  0.1214
  293MOL0     C38551   5.889   5.714   8.039 -0.4902 -0.2162 -0.3930
  293MOL0     O38552   5.760   5.710   7.997 -0.2470  0.2532 -0.0563
  293MOL0     C38553   5.720   5.743   7.863  0.9977 -0.0860 -0.2551
  293MOL0     C38554   5.756   5.622   7.775  0.3414 -0.7621  1.3794
  293MOL0     C38555   5.665   5.598   7.655  0.1947  0.2963  0.6236
  293MOL0     C38556   5.688   5.450   7.589  0.6448  0.7994  0.4002
  293MOL0     C38557   5.598   5.412   7.468  0.1699 -0.2703  0.5414
  293MOL0     C38558   5.601   5.525   7.361 -1.3496  0.5147  0.3382
  293MOL0     C38559   5.543   5.490   7.225 -0.3445 -0.1991 -0.4734
  293MOL0     C38560   5.576   5.590   7.113 -0.1431 -0.0480  0.4079
  293MOL0     N38561   5.558   5.532   6.971 -0.4884 -0.0461 -0.6063
  293MOL0     C38562   5.645   5.474   6.885  0.3885 -0.0795 -0.1486
  293MOL0     C38563   5.563   5.450   6.779  0.2538  0.6245 -0.0153
  293MOL0     C38564   5.603   5.397   6.641  0.3675 -0.8746  0.6117
  293MOL0     C38565   5.504   5.437   6.531 -0.3526 -0.0136 -1.0945
  293MOL0     C38566   5.512   5.582   6.493  0.3526 -0.8058  0.6257
  293MOL0     C38567   5.391   5.628   6.405 -0.2791  0.4020 -0.5592
  293MOL0     O38568   5.407   5.756   6.346  0.5756  0.2923 -0.4310
  293MOL0     C38569   5.312   5.804   6.254  0.5404  0.0730  0.3568
  293MOL0     C38570   5.188   5.743   6.229  0.2978 -0.0661  0.1778
  293MOL0     C38571   5.092   5.802   6.134  0.2571  0.5082 -0.5346
  293MOL0     C38572   5.115   5.929   6.081  0.0374  0.3782 -0.1545
  293MOL0     C38573   5.020   5.986   5.991  0.6193  0.1816 -0.2409
  293MOL0     O38574   4.919   5.905   5.945 -1.0904  0.3293 -0.0053
  293MOL0     C38575   4.824   5.961   5.864 -0.2857  0.8717  0.1766
  293MOL0     C38576   4.861   5.997   5.737  0.4195 -0.0500 -0.7194
  293MOL0     C38577   4.765   6.052   5.650 -0.4403 -0.6618 -0.4684
  293MOL0     C38578   4.637   6.076   5.699  0.8018 -0.6357  0.0180
  293MOL0     O38579   4.554   6.131   5.611 -0.1734  0.0024 -0.2804
  293MOL0     C38580   4.438   6.206   5.648 -0.0530  0.5503  0.0141
  293MOL0     C38581   4.358   6.234   5.519 -1.0106 -0.0832  0.0510
  293MOL0     C38582   4.221   6.297   5.550  0.3563  0.2471 -0.3620
  293MOL0     C38583   4.152   6.320   5.417  0.1498 -0.4454 -0.6543
  293MOL0     C38584   4.026   6.409   5.441 -0.7978 -0.1264  1.0484
  293MOL0     C38585   3.930   6.384   5.316  0.2899 -0.5448 -0.1416
  293MOL0     C38586   3.794   6.473   5.304  0.4557 -0.1013  0.0705
  293MOL0     C38587   3.726   6.505   5.439  0.0015 -0.0817 -0.1557
  293MOL0    Cl38588   3.805   6.635   5.524 -0.0459  0.0905 -0.0216
  293MOL0     C38589   4.591   6.034   5.822  0.5558  0.2827 -0.1546
  293MOL0     C38590   4.688   5.976   5.904  0.2812  0.2629  1.0229
  293MOL0     O38591   5.045   6.097   5.959  0.0328  0.2834  0.3952
  293MOL0     C38592   5.246   5.979   6.091 -0.3201  0.0065  0.1088
  293MOL0     C38593   5.340   5.911   6.171  0.3689  0.5909 -0.0719
  293MOL0     N38594   5.436   5.487   6.801 -0.3419 -0.6319  0.1193
  293MOL0     N38595   5.437   5.543   6.918 -0.0537  0.3229 -0.5595
  293MOL0     C38596   5.985   5.790   7.972 -0.3934 -0.0920 -0.0284
  293MOL0     C38597   6.121   5.769   8.018 -0.0975  0.2150 -0.3461
  293MOL0     C38598   6.499   5.601   8.241  0.2966 -0.4156  0.0131
  293MOL0     C38599   6.573   5.661   8.142 -0.3165 -0.3105 -0.4794
  293MOL0     C38600   6.712   5.633   8.143 -0.3402 -0.1563 -0.5868
  293MOL0     C38601   6.772   5.556   8.246  0.0734  0.0266  0.7837
  293MOL0     O38602   6.903   5.531   8.259 -0.6031  0.8144  0.5102
  293MOL0     C38603   6.994   5.581   8.157 -1.3201 -0.0642 -0.5316
  293MOL0     C38604   7.142   5.557   8.202  0.7005 -0.5610 -0.2585
  293MOL0     C38605   7.243   5.532   8.090 -0.0932 -0.0318 -0.0007
  293MOL0     C38606   7.380   5.508   8.145 -0.3437 -1.0483 -0.1356
  293MOL0     C38607   7.490   5.491   8.043 -1.0819 -0.0687  0.7192
  293MOL0     C38608   7.581   5.463   7.967 -0.4089  0.2896  0.8243
  293MOL0     C38609   6.691   5.490   8.333 -0.5417 -0.0851  0.5014
  293MOL0     C38610   6.559   5.520   8.339 -0.5640 -0.1982  0.3795
  293MOL0     H38611   6.055   5.536   8.262 -0.1558  0.9685  1.2117
  293MOL0     H38612   5.838   5.568   8.187 -0.7335  1.5720  0.6538
  293MOL0     H38613   5.756   5.836   7.819 -1.7444 -0.3365 -3.4141
  293MOL0     H38614   5.611   5.754   7.861  1.0729  0.6344 -2.5150
  293MOL0     H38615   5.752   5.534   7.839 -0.7026 -1.1131  0.8554
  293MOL0     H38616   5.852   5.629   7.722 -1.9646 -0.4851 -3.3524
  293MOL0     H38617   5.682   5.672   7.577 -2.3877  1.6082  1.2154
  293MOL0     H38618   5.564   5.602   7.697  0.2528  2.4558  0.6272
  293MOL0     H38619   5.794   5.446   7.559  0.3285 -1.9901 -0.6424
  293MOL0     H38620   5.677   5.372   7.664  3.3424 -1.5882 -1.4528
  293MOL0     H38621   5.495   5.394   7.498  0.5117 -2.2871  0.6934
  293MOL0     H38622   5.630   5.324   7.411  1.3058  1.5108 -1.7234
  293MOL0     H38623   5.706   5.557   7.359 -1.1730 -0.0270  0.7205
  293MOL0     H38624   5.544   5.612   7.396 -1.3039  1.5925 -2.0368
  293MOL0     H38625   5.589   5.396   7.193  0.6826  0.4119 -0.8609
  293MOL0     H38626   5.436   5.487   7.242  0.0414 -0.7584  2.2489
  293MOL0     H38627   5.680   5.622   7.125 -0.7891  2.0982  0.6023
  293MOL0     H38628   5.514   5.678   7.128 -1.3734 -1.0725  1.5976
  293MOL0     H38629   5.752   5.458   6.893  0.6742 -0.0988 -2.8647
  293MOL0     H38630   5.619   5.289   6.648  0.6288 -0.7513  5.1497
  293MOL0     H38631   5.704   5.431   6.617  0.3752 -0.6816  0.9083
  293MOL0     H38632   5.401   5.420   6.565  0.0544 -1.7299 -0.6403
  293MOL0     H38633   5.509   5.372   6.443 -2.5886 -1.9613  0.0966
  293MOL0     H38634   5.510   5.633   6.590 -0.8551 -1.4391  0.9544
  293MOL0     H38635   5.613   5.595   6.452  0.9558 -3.0956  1.2109
  293MOL0     H38636   5.303   5.635   6.469  0.9689 -0.9668  1.4269
  293MOL0     H38637   5.371   5.553   6.327  1.2942 -0.3474 -0.2845
  293MOL0     H38638   5.161   5.647   6.272  2.9107 -1.0111 -0.0763
  293MOL0     H38639   4.998   5.748   6.125  1.1616 -1.8445  2.5172
  293MOL0     H38640   4.965   5.981   5.710  0.1473 -2.3490 -0.5628
  293MOL0     H38641   4.800   6.070   5.549  0.0765 -2.5626 -0.6783
  293MOL0     H38642   4.451   6.304   5.696 -0.4167  0.2211  0.8043
  293MOL0     H38643   4.384   6.141   5.718  0.2421  0.9761  0.6465
  293MOL0     H38644   4.353   6.147   5.453  0.5145 -1.4416  1.6085
  293MOL0     H38645   4.421   6.304   5.463  1.7886 -2.1333  0.4295
  293MOL0     H38646   4.252   6.395   5.588 -0.0721  1.6608 -3.3824
  293MOL0     H38647   4.158   6.242   5.621  1.4167 -1.5907 -0.7901
  293MOL0     H38648   4.220   6.359   5.340  0.1984  0.5686 -0.1255
  293MOL0     H38649   4.109   6.226   5.383 -2.7905 -0.8050  3.3693
  293MOL0     H38650   4.060   6.513   5.446 -0.9270 -0.0939  1.2454
  293MOL0     H38651   3.969   6.376   5.528  2.1887 -1.8802  2.4669
  293MOL0     H38652   3.906   6.278   5.308 -3.3646  0.2490 -1.3691
  293MOL0     H38653   3.989   6.425   5.233  0.5144 -0.5057  0.0343
  293MOL0     H38654   3.809   6.570   5.256  2.7958  0.8467  2.4616
  293MOL0     H38655   3.720   6.414   5.249  0.2972  0.8061 -0.7142
  293MOL0     H38656   3.726   6.429   5.518  0.4771  1.4596  1.3888
  293MOL0     H38657   3.621   6.523   5.416 -0.1823 -2.1755 -1.2654
  293MOL0     H38658   4.496   6.057   5.869 -0.8305  1.1571 -3.1626
  293MOL0     H38659   4.662   5.930   5.999 -0.7623 -0.5247  0.3829
  293MOL0     H38660   5.277   6.072   6.043  0.0768  2.1138  4.0111
  293MOL0     H38661   5.443   5.944   6.180  0.2060  1.0902  0.0222
  293MOL0     H38662   5.975   5.844   7.879 -1.6401 -0.4762 -0.1397
  293MOL0     H38663   6.205   5.823   7.975  1.4501 -1.5027  0.3954
  293MOL0     H38664   6.529   5.725   8.067 -0.9982 -0.0841  0.1069
  293MOL0     H38665   6.770   5.683   8.065 -0.3900 -1.7777 -1.7223
  293MOL0     H38666   6.974   5.688   8.143 -2.1114  0.2393  2.2808
  293MOL0     H38667   6.971   5.534   8.061 -4.4730 -0.0678  0.1030
  293MOL0     H38668   7.151   5.645   8.267  0.3853 -0.3367 -0.5138
  293MOL0     H38669   7.137   5.474   8.273 -2.8305  1.6595  2.4976
  293MOL0     H38670   7.243   5.624   8.031 -0.4029 -0.6473 -0.9987
  293MOL0     H38671   7.203   5.448   8.031 -3.4709 -0.1796  2.2226
  293MOL0     H38672   7.406   5.585   8.218 -1.9456 -2.2354  1.7905
  293MOL0     H38673   7.381   5.412   8.197  1.2219 -0.3387  1.2386
  293MOL0     H38674   7.659   5.428   7.902  0.0896 -0.1696  1.6447
  293MOL0     H38675   6.742   5.425   8.403  3.7136  2.6617  0.2748
  293MOL0     H38676   6.506   5.465   8.415 -0.4654 -1.5885 -0.5272
  294MOL0     O38677   6.664   7.681   8.768  0.3208  0.0958  1.0972
  294MOL0     C38678   6.699   7.641   8.656  0.2316  0.3353  0.0254
  294MOL0     O38679   6.616   7.575   8.570 -0.2226 -0.4285 -0.6971
  294MOL0     C38680   6.485   7.554   8.601  0.2510  0.1099  0.0788
  294MOL0     C38681   6.417   7.527   8.725  0.0280  0.8598  0.5380
  294MOL0     C38682   6.276   7.509   8.728 -0.6452 -0.1829 -0.7128
  294MOL0     C38683   6.196   7.512   8.620 -0.5920  0.4946  0.2713
  294MOL0     O38684   6.060   7.506   8.616 -0.0610 -0.5642 -0.5103
  294MOL0     C38685   5.999   7.468   8.492  0.5617 -0.4868 -1.3218
  294MOL0     C38686   5.853   7.422   8.504 -0.2887 -0.4741  0.4083
  294MOL0     C38687   5.789   7.383   8.377  0.0007 -0.2215  0.4860
  294MOL0     C38688   5.662   7.295   8.411  0.5798 -0.4651  0.6877
  294MOL0     C38689   5.555   7.286   8.300  0.0152  1.1473 -0.3033
  294MOL0     C38690   5.437   7.196   8.345 -0.0326 -0.8589 -0.5706
  294MOL0     C38691   5.319   7.210   8.243  0.9601  0.2132  0.2474
  294MOL0     C38692   5.199   7.131   8.308 -0.2151 -0.6079 -0.0736
  294MOL0     N38693   5.080   7.122   8.220  0.2491  0.1975  0.6136
  294MOL0     C38694   4.994   7.016   8.218 -0.2339  0.2228 -0.4038
  294MOL0     C38695   4.923   7.034   8.107  0.2586  0.5790  0.8386
  294MOL0     C38696   4.817   6.932   8.061 -0.7713 -0.2904 -0.0424
  294MOL0     C38697   4.683   6.986   8.021  0.3851 -0.3743  0.7962
  294MOL0     C38698   4.588   6.875   7.956  1.2369 -1.5841  0.6033
  294MOL0     C38699   4.450   6.932   7.910  0.2249  0.0621 -0.9663
  294MOL0     O38700   4.359   6.831   7.863 -0.3275 -0.0685 -0.1329
  294MOL0     C38701   4.225   6.857   7.839  0.0124 -0.5792  0.3250
  294MOL0     C38702   4.156   6.763   7.763  0.2480  0.1977 -0.0887
  294MOL0     C38703   4.021   6.775   7.738  0.3221  0.0520  0.1547
  294MOL0     C38704   3.951   6.883   7.791 -0.0861  0.3765 -0.1871
  294MOL0     C38705   3.803   6.908   7.777 -0.5609 -0.8099  0.1278
  294MOL0     O38706   3.738   6.819   7.692  0.1116 -0.7131 -0.4963
  294MOL0     C38707   3.599   6.851   7.690  0.1530  0.4426  0.6384
  294MOL0     C38708   3.522   6.825   7.805  0.1509  0.5584 -0.4146
  294MOL0     C38709   3.384   6.855   7.800  0.1209 -0.8408 -0.2079
  294MOL0     C38710   3.325   6.904   7.678 -0.0128  0.3658 -0.3428
  294MOL0     O38711   3.186   6.933   7.660  0.1277 -0.4336 -0.3374
  294MOL0     C38712   3.092   6.907   7.765 -0.0782  0.9244 -0.5713
  294MOL0     C38713   2.949   6.915   7.722 -0.8136 -0.1287 -0.3102
  294MOL0     C38714   2.865   6.899   7.859  0.0512 -0.0101 -0.4823
  294MOL0     C38715   2.735   6.982   7.873  0.4650  0.0032  0.9697
  294MOL0     C38716   2.603   6.915   7.817 -0.2549 -0.7949 -0.0642
  294MOL0     C38717   2.599   6.884   7.667  0.0762 -0.3075  0.4540
  294MOL0     C38718   2.457   6.829   7.623 -0.5323 -0.4333  0.0422
  294MOL0     C38719   2.352   6.931   7.592 -0.3679 -0.1095  0.3194
  294MOL0    Cl38720   2.398   7.025   7.454  0.2097 -0.1228  0.8972
  294MOL0     C38721   3.406   6.938   7.575  0.3828  1.0624  0.0220
  294MOL0     C38722   3.543   6.913   7.576  0.1069 -0.1686 -0.0712
  294MOL0     O38723   3.744   6.982   7.855 -0.7322  0.1040 -0.2976
  294MOL0     C38724   4.022   6.977   7.868  0.6860  0.4011  0.7126
  294MOL0     C38725   4.158   6.966   7.893  0.7487  0.1450 -1.0333
  294MOL0     N38726   4.970   7.142   8.027 -0.2920 -0.0661 -0.6137
  294MOL0     N38727   5.062   7.188   8.106 -0.6520  0.2897 -0.0918
  294MOL0     C38728   6.273   7.536   8.501 -0.5911  0.0940 -0.2603
  294MOL0     C38729   6.401   7.566   8.495  0.4621  0.0359  0.4024
  294MOL0     C38730   6.844   7.637   8.635  0.0272  0.7629  0.2224
  294MOL0     C38731   6.887   7.599   8.510  0.4321  0.0961 -0.0215
  294MOL0     C38732   7.028   7.581   8.496  0.2870 -0.9716 -0.1750
  294MOL0     C38733   7.116   7.614   8.602 -0.3693  0.4818 -0.5346
  294MOL0     O38734   7.252   7.619   8.573 -0.0463  0.0018 -0.0853
  294MOL0     C38735   7.340   7.693   8.659  0.1952 -0.3946 -0.6094
  294MOL0     C38736   7.458   7.740   8.568  0.5081  0.3284 -0.6507
  294MOL0     C38737   7.548   7.625   8.521 -0.2002 -0.2766  0.0812
  294MOL0     C38738   7.560   7.518   8.629 -0.2892 -0.4965  0.1356
  294MOL0     C38739   7.649   7.412   8.583 -0.4043  0.4387  0.4426
  294MOL0     C38740   7.711   7.321   8.528 -0.6208  0.9714  0.1199
  294MOL0     C38741   7.061   7.643   8.730 -0.0268  0.1414 -0.4684
  294MOL0     C38742   6.932   7.645   8.742  0.4223  0.9002 -0.1976
  294MOL0     H38743   6.472   7.523   8.818  1.3524 -1.2767 -0.2592
  294MOL0     H38744   6.228   7.499   8.825  0.7060  1.8281  0.2463
  294MOL0     H38745   6.056   7.392   8.437  0.1190  0.1462 -2.7032
  294MOL0     H38746   6.002   7.557   8.428  0.9800 -0.3390 -1.1008
  294MOL0     H38747   5.786   7.499   8.543  0.7483 -0.1402  1.5901
  294MOL0     H38748   5.847   7.338   8.574 -0.9492 -3.1695 -2.5825
  294MOL0     H38749   5.860   7.327   8.314  0.4474 -1.6673  2.1917
  294MOL0     H38750   5.770   7.471   8.315  2.1493 -0.3542 -0.4802
  294MOL0     H38751   5.692   7.194   8.441 -0.6842 -1.1686 -0.3071
  294MOL0     H38752   5.617   7.334   8.502 -1.7717 -2.5077  0.5088
  294MOL0     H38753   5.607   7.257   8.209  0.1849  5.4617 -1.8035
  294MOL0     H38754   5.522   7.390   8.290  0.1959  1.4086  1.4659
  294MOL0     H38755   5.400   7.231   8.442 -2.4733  2.2369 -2.4131
  294MOL0     H38756   5.465   7.090   8.353 -4.4714 -2.2364 -0.5928
  294MOL0     H38757   5.307   7.315   8.214 -2.0457 -0.0133  0.3342
  294MOL0     H38758   5.352   7.162   8.151 -2.0083  2.1484 -2.0379
  294MOL0     H38759   5.183   7.174   8.407  2.2366  2.2347 -0.7689
  294MOL0     H38760   5.232   7.029   8.330  1.0196  0.2212  2.1854
  294MOL0     H38761   4.984   6.934   8.287 -0.4212  0.0291 -0.6597
  294MOL0     H38762   4.809   6.848   8.130  2.4717 -0.0191  0.8164
  294MOL0     H38763   4.858   6.893   7.968  1.8915  3.3936 -0.6062
  294MOL0     H38764   4.695   7.065   7.946  0.4478 -0.5430  0.6291
  294MOL0     H38765   4.634   7.014   8.115 -1.0803 -0.3711  0.0616
  294MOL0     H38766   4.635   6.819   7.874 -1.6368 -2.1561 -0.7640
  294MOL0     H38767   4.558   6.813   8.040  2.0247  1.0993  3.0155
  294MOL0     H38768   4.470   7.010   7.837  0.2108 -0.1642 -1.2147
  294MOL0     H38769   4.401   6.976   7.998 -0.3353 -1.5479 -0.4319
  294MOL0     H38770   4.218   6.678   7.734  1.6767 -0.3865  4.0227
  294MOL0     H38771   3.975   6.696   7.680 -0.9415 -2.7172  4.5024
  294MOL0     H38772   3.570   6.791   7.897  1.2836  3.5708  0.2091
  294MOL0     H38773   3.309   6.831   7.875 -2.0229  0.8260 -1.6994
  294MOL0     H38774   3.120   6.972   7.849 -1.9492  2.3580 -0.9774
  294MOL0     H38775   3.098   6.805   7.803  2.1534  0.6201 -1.6146
  294MOL0     H38776   2.916   6.842   7.647 -0.1105 -0.9780  0.1889
  294MOL0     H38777   2.941   7.011   7.670  1.8790 -0.4956 -1.5500
  294MOL0     H38778   2.930   6.930   7.942 -0.0992  0.1304 -0.4171
  294MOL0     H38779   2.847   6.795   7.886  3.5495 -0.2612  1.4943
  294MOL0     H38780   2.717   6.993   7.980 -3.7992 -0.8123  0.5173
  294MOL0     H38781   2.746   7.076   7.819  0.9214 -1.1490 -1.0876
  294MOL0     H38782   2.525   6.987   7.845  1.0196  0.2086  1.0163
  294MOL0     H38783   2.585   6.820   7.868  0.8721 -0.5606  0.7838
  294MOL0     H38784   2.671   6.801   7.658  1.1323  0.2696  2.9044
  294MOL0     H38785   2.631   6.972   7.611  0.5390  0.4535  1.8698
  294MOL0     H38786   2.472   6.770   7.532 -1.1124  0.5593 -0.7063
  294MOL0     H38787   2.414   6.767   7.703 -0.6828  0.9257  1.0384
  294MOL0     H38788   2.329   7.000   7.673 -1.1305  0.1149 -0.0794
  294MOL0     H38789   2.257   6.884   7.563 -1.5364  1.0573  2.0671
  294MOL0     H38790   3.366   6.993   7.490  1.4983  2.3879  0.3059
  294MOL0     H38791   3.605   6.952   7.496  1.6267 -0.4279  0.9380
  294MOL0     H38792   3.967   7.062   7.906 -0.1014 -0.2420  1.0422
  294MOL0     H38793   4.210   7.042   7.951 -3.0272  1.9359  0.3679
  294MOL0     H38794   6.225   7.533   8.404 -0.7059 -0.3860 -0.1926
  294MOL0     H38795   6.454   7.588   8.402 -1.3687  3.2911 -0.0173
  294MOL0     H38796   6.820   7.576   8.428  0.8966  0.5656 -0.5446
  294MOL0     H38797   7.067   7.545   8.401  0.9380 -1.0762  0.1226
  294MOL0     H38798   7.368   7.630   8.743  1.0412  1.4847  0.5765
  294MOL0     H38799   7.282   7.778   8.697 -2.7284 -2.5666  0.1459
  294MOL0     H38800   7.429   7.790   8.475  1.4003 -0.7076 -1.5045
  294MOL0     H38801   7.513   7.803   8.638  0.1821  0.2732 -0.3387
  294MOL0     H38802   7.649   7.667   8.513 -0.7804  1.3149  0.6987
  294MOL0     H38803   7.517   7.594   8.421 -1.0462  3.2927 -0.9275
  294MOL0     H38804   7.607   7.559   8.719 -0.4855  3.1628 -1.2807
  294MOL0     H38805   7.459   7.477   8.638 -0.2237 -0.7937 -0.4338
  294MOL0     H38806   7.773   7.250   8.478 -0.4433  1.2965 -0.1231
  294MOL0     H38807   7.120   7.671   8.817 -0.8011 -0.6809  0.3472
  294MOL0     H38808   6.903   7.666   8.845  0.5446 -0.9529  0.2549
  295MOL0     O38809   9.992   1.782   5.538  0.3505 -0.3408 -0.1378
  295MOL0     C38810  10.077   1.857   5.586  0.6909 -0.0972  0.2321
  295MOL0     O38811  10.063   1.990   5.601 -0.2270 -0.2762  0.5848
  295MOL0     C38812   9.943   2.047   5.582  0.7492 -0.5673 -0.8116
  295MOL0     C38813   9.893   2.076   5.457 -1.0144  0.0949 -0.4580
  295MOL0     C38814   9.767   2.132   5.446 -0.4536 -0.9308  0.7675
  295MOL0     C38815   9.688   2.154   5.551 -0.6302 -0.4000 -0.4285
  295MOL0     O38816   9.563   2.217   5.528 -0.9216  0.1859 -0.1380
  295MOL0     C38817   9.481   2.264   5.636  0.1516 -0.6593 -0.1719
  295MOL0     C38818   9.361   2.348   5.582 -0.9325 -0.0313 -0.3012
  295MOL0     C38819   9.259   2.378   5.695  0.6134 -0.2042  0.3095
  295MOL0     C38820   9.222   2.284   5.810 -0.4194 -0.8908  0.4782
  295MOL0     C38821   9.093   2.321   5.878  0.9281  0.3220 -1.0938
  295MOL0     C38822   8.968   2.330   5.787 -1.1506  0.6388 -0.1648
  295MOL0     C38823   8.842   2.354   5.870  0.3655 -0.4127  0.0978
  295MOL0     C38824   8.715   2.390   5.793 -0.8911 -0.6649  0.0223
  295MOL0     N38825   8.685   2.317   5.670 -0.4493 -0.6391 -0.0462
  295MOL0     C38826   8.661   2.185   5.671 -0.6644 -0.1050  0.0187
  295MOL0     C38827   8.631   2.152   5.543  0.0341 -0.3501  0.2869
  295MOL0     C38828   8.605   2.026   5.485  1.3212  0.8864  1.0509
  295MOL0     C38829   8.478   2.018   5.394 -0.2952 -0.6197  0.4698
  295MOL0     C38830   8.360   2.074   5.478  0.2083 -0.3321  0.9831
  295MOL0     C38831   8.218   2.027   5.430  0.0005 -0.1573 -0.1054
  295MOL0     O38832   8.200   2.065   5.290  0.2598  0.4657  0.4433
  295MOL0     C38833   8.097   2.000   5.225 -0.3764 -0.2350 -0.4608
  295MOL0     C38834   7.967   2.037   5.248  0.1306  0.1757  0.1475
  295MOL0     C38835   7.861   1.980   5.176  0.8031  0.4471 -0.7697
  295MOL0     C38836   7.884   1.868   5.090 -0.4769 -1.1276  0.6077
  295MOL0     C38837   7.777   1.812   5.005  0.3087 -1.4105 -0.8790
  295MOL0     O38838   7.649   1.868   5.021 -0.0566 -0.2844  0.7581
  295MOL0     C38839   7.540   1.800   4.961  0.8442 -0.2413  0.3686
  295MOL0     C38840   7.416   1.871   4.957 -0.6571  0.1731 -0.8324
  295MOL0     C38841   7.308   1.820   4.896 -0.1263 -0.2978  0.4980
  295MOL0     C38842   7.301   1.690   4.848 -0.2912  0.4299 -0.0653
  295MOL0     O38843   7.187   1.666   4.781 -0.5070  0.2005 -0.0569
  295MOL0     C38844   7.155   1.534   4.751 -1.1502 -0.0519 -0.5764
  295MOL0     C38845   7.024   1.525   4.668 -0.2624  0.6561 -0.8575
  295MOL0     C38846   6.917   1.611   4.741 -0.0284 -0.8915 -0.7123
  295MOL0     C38847   6.779   1.561   4.686  1.0135 -0.6434  0.1389
  295MOL0     C38848   6.661   1.651   4.746 -0.0808 -0.0380  0.5779
  295MOL0     C38849   6.525   1.617   4.685  0.7549  0.0969  0.5418
  295MOL0     C38850   6.467   1.486   4.724  0.2262  0.0548 -0.2886
  295MOL0     C38851   6.332   1.451   4.657  0.1835  0.2442  0.2451
  295MOL0    Cl38852   6.264   1.289   4.742  0.1000 -0.2812 -0.0500
  295MOL0     C38853   7.421   1.611   4.865  0.8958 -0.8075  0.0896
  295MOL0     C38854   7.538   1.666   4.924  0.1950 -0.1093 -0.8667
  295MOL0     O38855   7.814   1.742   4.910 -0.7260  0.0284  0.5007
  295MOL0     C38856   8.023   1.826   5.073 -0.7085 -0.5560  0.1792
  295MOL0     C38857   8.127   1.894   5.140  0.2635 -0.0553 -0.2565
  295MOL0     N38858   8.644   2.266   5.470 -0.5648 -0.6721  0.6236
  295MOL0     N38859   8.677   2.365   5.544  0.1073 -0.0680 -0.2278
  295MOL0     C38860   9.728   2.109   5.681  0.0834  0.5387  0.3905
  295MOL0     C38861   9.860   2.060   5.697  0.8314  0.0640 -0.0712
  295MOL0     C38862  10.205   1.790   5.614 -0.0973 -0.4455  0.5143
  295MOL0     C38863  10.248   1.668   5.556 -0.2298 -0.7066  0.3405
  295MOL0     C38864  10.374   1.619   5.603 -0.3242 -0.3470  0.4041
  295MOL0     C38865  10.455   1.693   5.689  0.0864  0.0774 -1.1382
  295MOL0     O38866  10.580   1.651   5.731  0.1302 -0.1844 -0.0532
  295MOL0     C38867  10.677   1.663   5.622  0.6151 -1.3791 -0.7616
  295MOL0     C38868  10.781   1.550   5.627 -0.7637  0.6015  0.4045
  295MOL0     C38869  10.897   1.576   5.546 -0.0543 -0.3434  0.6174
  295MOL0     C38870  10.896   1.527   5.401 -0.1650 -0.5297 -0.7956
  295MOL0     C38871  10.799   1.601   5.318 -0.8223  0.5303  0.9593
  295MOL0     C38872  10.727   1.668   5.247 -0.0252 -0.1668  0.5836
  295MOL0     C38873  10.406   1.811   5.735  0.2081 -0.1457  0.1925
  295MOL0     C38874  10.280   1.862   5.710  0.5027 -0.5195 -0.0664
  295MOL0     H38875   9.953   2.057   5.369  1.5359 -1.5359  1.4619
  295MOL0     H38876   9.727   2.167   5.352  0.0479 -0.7259  0.6263
  295MOL0     H38877   9.541   2.331   5.697 -2.8896  0.6416  1.6238
  295MOL0     H38878   9.444   2.186   5.703  1.9669 -0.5201  1.0544
  295MOL0     H38879   9.306   2.296   5.502 -1.4852 -0.0352  0.0774
  295MOL0     H38880   9.391   2.445   5.541 -0.9466  1.1644  2.3410
  295MOL0     H38881   9.173   2.400   5.631 -1.5133  0.1307  3.0595
  295MOL0     H38882   9.295   2.467   5.747  1.2653 -1.3577  1.9236
  295MOL0     H38883   9.211   2.188   5.757  1.7837 -1.5453  1.1038
  295MOL0     H38884   9.307   2.280   5.878 -0.3483  1.1872  0.5500
  295MOL0     H38885   9.103   2.421   5.920 -0.2598 -0.3700  0.9502
  295MOL0     H38886   9.074   2.254   5.962 -0.4299  3.7795  1.5838
  295MOL0     H38887   8.969   2.235   5.734 -0.8478  0.5299  0.0372
  295MOL0     H38888   8.980   2.410   5.713  0.2397 -0.8576 -1.6124
  295MOL0     H38889   8.821   2.266   5.932 -2.0959  1.2558  1.8399
  295MOL0     H38890   8.865   2.437   5.938 -1.5898 -0.9084  1.4742
  295MOL0     H38891   8.728   2.498   5.781 -0.8962 -0.7612 -0.9181
  295MOL0     H38892   8.632   2.373   5.863  0.9537 -2.4253  1.9131
  295MOL0     H38893   8.678   2.111   5.748  1.0087 -2.2604 -2.2538
  295MOL0     H38894   8.576   1.957   5.564 -0.7822  1.3959  0.7829
  295MOL0     H38895   8.698   1.988   5.441 -1.8413 -3.7762 -2.6364
  295MOL0     H38896   8.458   1.916   5.359 -1.7029  0.1144 -1.0130
  295MOL0     H38897   8.495   2.068   5.298 -0.5490 -1.8797 -0.2517
  295MOL0     H38898   8.375   2.047   5.582  0.1919  0.4703  1.1999
  295MOL0     H38899   8.369   2.182   5.463  1.2769 -0.1009  3.0056
  295MOL0     H38900   8.139   2.074   5.490 -0.5708  0.1648 -1.0751
  295MOL0     H38901   8.218   1.918   5.434  0.5204 -0.1686 -0.4250
  295MOL0     H38902   7.938   2.124   5.306 -0.3330  1.4055 -1.8339
  295MOL0     H38903   7.763   2.025   5.190 -0.5308 -2.1056 -1.0928
  295MOL0     H38904   7.411   1.967   5.009  1.9863 -0.0010 -0.1330
  295MOL0     H38905   7.215   1.876   4.891 -1.4915 -2.5036 -0.9086
  295MOL0     H38906   7.140   1.480   4.845 -2.0504  2.5234  0.8653
  295MOL0     H38907   7.240   1.493   4.695  1.6311  1.2266  2.4111
  295MOL0     H38908   6.987   1.422   4.669 -0.1100  0.5659  1.1809
  295MOL0     H38909   7.045   1.573   4.572  4.5469  1.3385  0.2798
  295MOL0     H38910   6.949   1.714   4.723  0.9854 -0.7415  1.6385
  295MOL0     H38911   6.928   1.579   4.845 -0.2825  2.8651  0.6080
  295MOL0     H38912   6.777   1.563   4.577 -1.7074  1.4783  0.1132
  295MOL0     H38913   6.769   1.455   4.707  1.6652 -1.4493 -3.1333
  295MOL0     H38914   6.687   1.756   4.733  0.0323 -0.2436 -1.0411
  295MOL0     H38915   6.649   1.631   4.853  0.1918  2.6675  1.1836
  295MOL0     H38916   6.532   1.622   4.576  0.1203  1.0646  0.5385
  295MOL0     H38917   6.454   1.695   4.715 -1.4095 -0.2249 -3.0699
  295MOL0     H38918   6.540   1.407   4.705 -0.2353 -0.3263 -0.5029
  295MOL0     H38919   6.452   1.495   4.832  0.0107  1.9716 -0.4396
  295MOL0     H38920   6.348   1.432   4.551  1.6465 -1.7018  0.7501
  295MOL0     H38921   6.256   1.529   4.665  0.9668  1.0536 -0.1348
  295MOL0     H38922   7.422   1.508   4.829 -0.1428 -1.6761  2.3896
  295MOL0     H38923   7.616   1.591   4.931  0.2807  0.0234 -0.3502
  295MOL0     H38924   8.049   1.758   4.992  0.6497  2.0845 -1.7905
  295MOL0     H38925   8.233   1.870   5.129  0.5219  0.6557  0.5986
  295MOL0     H38926   9.658   2.119   5.763 -0.0734 -0.4832  0.3964
  295MOL0     H38927   9.896   2.028   5.794  3.5495 -1.0791 -1.3312
  295MOL0     H38928  10.195   1.616   5.477 -1.9010 -2.4713  2.4467
  295MOL0     H38929  10.424   1.528   5.573  0.1094  0.5628 -1.7677
  295MOL0     H38930  10.722   1.761   5.639 -2.9361  0.0719  1.3309
  295MOL0     H38931  10.620   1.671   5.529 -1.1944  1.3904  0.4383
  295MOL0     H38932  10.814   1.546   5.731 -2.0540 -0.7365  0.8020
  295MOL0     H38933  10.727   1.460   5.596 -1.9594  1.2936  0.4062
  295MOL0     H38934  10.982   1.533   5.599  0.7556  1.2447  0.6841
  295MOL0     H38935  10.922   1.683   5.541 -1.9632  0.1696  1.1536
  295MOL0     H38936  11.000   1.531   5.369  0.4819 -0.2450  1.2017
  295MOL0     H38937  10.868   1.421   5.402  1.2459 -0.9716 -2.6268
  295MOL0     H38938  10.664   1.738   5.196  2.4055  3.5516  2.2294
  295MOL0     H38939  10.468   1.839   5.819 -0.8293 -1.9830  1.6524
  295MOL0     H38940  10.252   1.958   5.753 -0.1891 -0.2763 -1.0275
  296MOL0     O38941  10.925   4.748  10.485 -0.0541  0.2321 -0.1642
  296MOL0     C38942  10.844   4.766  10.392 -0.1848  0.5664  0.1166
  296MOL0     O38943  10.870   4.835  10.272  0.1534  0.2903  0.7478
  296MOL0     C38944  11.000   4.854  10.231 -0.5534 -0.3063 -0.5048
  296MOL0     C38945  11.009   4.951  10.130  0.9570 -0.2291  0.5701
  296MOL0     C38946  11.129   4.988  10.072 -0.1156 -0.0995  0.3336
  296MOL0     C38947  11.254   4.934  10.116 -0.6044 -0.0369  0.1518
  296MOL0     O38948  11.375   4.950  10.056 -0.7470 -0.5542 -0.7688
  296MOL0     C38949  11.413   5.050   9.964  0.0963  0.0827 -0.4435
  296MOL0     C38950  11.563   5.079   9.964  0.0782 -0.0641  0.4964
  296MOL0     C38951  11.605   5.193   9.863  0.5771 -0.2617 -0.3298
  296MOL0     C38952  11.561   5.160   9.719 -0.1021  0.4766 -0.0880
  296MOL0     C38953  11.587   5.283   9.628  0.3698  0.2889 -0.1674
  296MOL0     C38954  11.528   5.267   9.483 -0.4029  0.2923  0.2612
  296MOL0     C38955  11.529   5.402   9.412  0.6591  0.1057 -0.2686
  296MOL0     C38956  11.538   5.393   9.256  0.5297 -0.4413 -0.7812
  296MOL0     N38957  11.407   5.358   9.192  0.1243 -0.2753  0.1465
  296MOL0     C38958  11.344   5.434   9.093 -0.1749 -0.0840  0.4020
  296MOL0     C38959  11.238   5.360   9.061 -1.0714  0.0709  0.5018
  296MOL0     C38960  11.129   5.384   8.960  0.3233  0.3253  0.0389
  296MOL0     C38961  11.016   5.453   9.034  0.8698  0.0486  0.7866
  296MOL0     C38962  10.891   5.448   8.945 -0.3285  0.1247 -1.2684
  296MOL0     C38963  10.775   5.525   9.012  0.9804  0.3800 -0.1216
  296MOL0     O38964  10.672   5.558   8.915 -0.5223  0.1071  0.0207
  296MOL0     C38965  10.542   5.539   8.958  0.0717 -0.3188  0.1314
  296MOL0     C38966  10.460   5.449   8.892 -0.0648  0.2635  0.4939
  296MOL0     C38967  10.324   5.442   8.915 -0.0579 -0.0112  0.7066
  296MOL0     C38968  10.261   5.526   9.011  0.4766 -0.5306 -0.0470
  296MOL0     C38969  10.118   5.508   9.053  0.5036  0.2150 -0.1547
  296MOL0     O38970  10.075   5.599   9.151 -0.3060  0.5365  0.2010
  296MOL0     C38971   9.947   5.612   9.179 -0.4288  0.7536 -0.3158
  296MOL0     C38972   9.881   5.530   9.266  0.4163 -0.4740 -0.2261
  296MOL0     C38973   9.741   5.544   9.288  0.9561  0.1287 -0.9611
  296MOL0     C38974   9.674   5.648   9.224 -0.8056 -0.0468 -0.3338
  296MOL0     O38975   9.538   5.663   9.252 -0.4674 -0.4321 -0.2249
  296MOL0     C38976   9.472   5.778   9.200 -0.2531  0.0490  0.1618
  296MOL0     C38977   9.323   5.765   9.243 -0.2087  0.2185 -0.7564
  296MOL0     C38978   9.229   5.871   9.193  0.4385 -1.0427 -0.1447
  296MOL0     C38979   9.077   5.868   9.226  0.1386 -0.0821 -0.1103
  296MOL0     C38980   9.010   5.997   9.173  0.0586  0.0421  0.7473
  296MOL0     C38981   8.863   5.997   9.218  0.0241  0.1668 -0.0362
  296MOL0     C38982   8.788   6.110   9.153  0.4500 -0.1261 -0.3421
  296MOL0     C38983   8.639   6.110   9.180 -0.1499  0.2357  0.7438
  296MOL0    Cl38984   8.619   6.159   9.349  0.2452  0.0138  0.5906
  296MOL0     C38985   9.745   5.738   9.142 -1.1508 -0.1109 -0.2810
  296MOL0     C38986   9.877   5.717   9.118 -1.2479 -0.0438  0.1061
  296MOL0     O38987  10.051   5.421   9.002  0.4105  0.0778 -0.3156
  296MOL0     C38988  10.347   5.615   9.075 -0.2895  0.1248  0.0269
  296MOL0     C38989  10.482   5.627   9.051  0.2548  0.1042  0.1707
  296MOL0     N38990  11.237   5.240   9.129 -0.3196 -0.0949 -0.6063
  296MOL0     N38991  11.337   5.241   9.213 -0.1701  0.1196 -0.3080
  296MOL0     C38992  11.243   4.833  10.218  0.8767 -0.1233 -1.7121
  296MOL0     C38993  11.116   4.794  10.271  0.6676 -0.2910 -0.1222
  296MOL0     C38994  10.718   4.705  10.428 -0.3028  0.4084 -0.2590
  296MOL0     C38995  10.709   4.619  10.545 -0.0962 -0.0554  0.2846
  296MOL0     C38996  10.586   4.568  10.583 -0.6738  0.0859 -0.0619
  296MOL0     C38997  10.467   4.602  10.520  1.0479  0.1527  0.1094
  296MOL0     O38998  10.363   4.537  10.579 -0.1492  0.1123  0.3004
  296MOL0     C38999  10.234   4.573  10.528  0.1085  0.2438 -0.7734
  296MOL0     C39000  10.117   4.514  10.613 -0.3625 -1.4165 -0.8232
  296MOL0     C39001   9.986   4.569  10.565 -0.9121 -0.3702 -0.0816
  296MOL0     C39002   9.866   4.539  10.658  0.3308 -0.3977 -0.7569
  296MOL0     C39003   9.741   4.597  10.594 -0.8320  0.0100  0.0948
  296MOL0     C39004   9.640   4.655  10.562  0.4154 -1.0185 -0.4667
  296MOL0     C39005  10.473   4.698  10.415  0.9494  0.5108  0.1266
  296MOL0     C39006  10.599   4.749  10.376  0.0924 -0.3702  1.4002
  296MOL0     H39007  10.920   5.010  10.110 -0.1692 -1.2641  2.2407
  296MOL0     H39008  11.128   5.070  10.001  1.1228 -0.5061 -0.1848
  296MOL0     H39009  11.364   5.143   9.998 -0.2940 -0.0936 -0.5198
  296MOL0     H39010  11.374   5.034   9.863 -0.0793 -0.2099 -0.3314
  296MOL0     H39011  11.612   4.991   9.920  0.4168  0.8159 -0.9556
  296MOL0     H39012  11.599   5.103  10.064  1.7055 -0.1373 -0.0258
  296MOL0     H39013  11.715   5.188   9.865  0.5743 -1.4651 -1.4683
  296MOL0     H39014  11.572   5.287   9.908  2.3628 -1.2589  3.5902
  296MOL0     H39015  11.603   5.064   9.686  0.8693  0.2768  1.6017
  296MOL0     H39016  11.455   5.137   9.711 -0.0068  0.5047 -1.7251
  296MOL0     H39017  11.695   5.292   9.614  0.4380 -0.9316 -0.5669
  296MOL0     H39018  11.550   5.370   9.683  0.6789 -0.9373  2.1320
  296MOL0     H39019  11.429   5.220   9.479  0.1038 -0.9347  1.4727
  296MOL0     H39020  11.602   5.197   9.443 -1.7895 -1.5314  0.7717
  296MOL0     H39021  11.441   5.458   9.443  0.9237 -0.5902  1.9189
  296MOL0     H39022  11.621   5.449   9.448  1.2409  0.5754 -2.2158
  296MOL0     H39023  11.621   5.329   9.227  2.6900  1.5506  0.6429
  296MOL0     H39024  11.566   5.487   9.208 -1.6998  1.7829  1.9074
  296MOL0     H39025  11.365   5.536   9.063 -3.2846  2.1627  4.7339
  296MOL0     H39026  11.101   5.285   8.923  1.3998 -1.2953  3.2085
  296MOL0     H39027  11.181   5.441   8.882 -0.6961 -0.2472 -1.0904
  296MOL0     H39028  11.050   5.555   9.051 -0.1005  0.6488 -0.6676
  296MOL0     H39029  10.990   5.404   9.128  0.3877  2.0470  1.7386
  296MOL0     H39030  10.916   5.483   8.844  1.7267  2.7269  0.0096
  296MOL0     H39031  10.858   5.344   8.940  2.0277 -0.7142 -0.4002
  296MOL0     H39032  10.816   5.620   9.047 -0.1957  0.3575  1.3950
  296MOL0     H39033  10.740   5.471   9.100  3.6984  1.0658  1.4833
  296MOL0     H39034  10.500   5.378   8.820 -1.4588 -1.3661  1.2539
  296MOL0     H39035  10.262   5.366   8.867  1.2468  1.7319 -4.3235
  296MOL0     H39036   9.930   5.445   9.312  1.1046  0.4129  0.6950
  296MOL0     H39037   9.681   5.480   9.352  3.3974 -1.4401 -0.1071
  296MOL0     H39038   9.473   5.783   9.091 -0.5570  0.8776  0.1909
  296MOL0     H39039   9.521   5.868   9.238 -0.9194  0.3907  0.2216
  296MOL0     H39040   9.317   5.756   9.351  0.1355  0.2911 -0.7301
  296MOL0     H39041   9.290   5.667   9.208  1.6159  0.3027 -3.0080
  296MOL0     H39042   9.248   5.878   9.085  0.5014  0.9047 -0.0383
  296MOL0     H39043   9.274   5.959   9.239  0.4044 -1.1062  0.0089
  296MOL0     H39044   9.032   5.778   9.183  2.2820 -1.8629  1.1848
  296MOL0     H39045   9.051   5.857   9.331 -2.0933  1.2439 -0.4553
  296MOL0     H39046   9.011   5.986   9.064 -0.4507 -3.0874  0.9607
  296MOL0     H39047   9.073   6.081   9.201  0.7472  0.3491 -1.5566
  296MOL0     H39048   8.869   6.000   9.327  1.2547 -2.2998  0.0368
  296MOL0     H39049   8.825   5.899   9.191  2.3504 -0.5082 -1.1434
  296MOL0     H39050   8.829   6.206   9.185  0.6134  0.0455 -1.0350
  296MOL0     H39051   8.798   6.096   9.044 -0.1484 -3.0621 -0.0972
  296MOL0     H39052   8.596   6.014   9.151 -1.5074  1.1143 -0.2394
  296MOL0     H39053   8.606   6.190   9.114 -2.3074  0.4790  2.0251
  296MOL0     H39054   9.692   5.824   9.102 -0.2416 -0.1395 -1.6343
  296MOL0     H39055   9.933   5.794   9.065 -0.2931  0.0894  1.2736
  296MOL0     H39056  10.302   5.668   9.158  2.6389 -1.0919  2.5725
  296MOL0     H39057  10.539   5.696   9.113 -1.4699  1.7470  0.0470
  296MOL0     H39058  11.336   4.790  10.251  0.0780 -0.2764  0.5233
  296MOL0     H39059  11.108   4.720  10.350 -0.4317  0.5094  0.5294
  296MOL0     H39060  10.796   4.593  10.604 -1.1475  1.0143  2.4061
  296MOL0     H39061  10.585   4.493  10.661  2.6740  0.2393  0.2894
  296MOL0     H39062  10.233   4.532  10.427  0.2744  0.6673 -0.9516
  296MOL0     H39063  10.234   4.682  10.540 -2.0385  0.2055 -0.0448
  296MOL0     H39064  10.127   4.405  10.608 -1.1998 -1.5090 -0.5324
  296MOL0     H39065  10.138   4.550  10.714 -3.5894 -1.6356  0.0283
  296MOL0     H39066   9.963   4.527  10.466  1.4426 -2.0237 -0.0288
  296MOL0     H39067  10.003   4.676  10.553  1.7946 -0.6762  0.3938
  296MOL0     H39068   9.866   4.430  10.655  3.5760 -0.5796  1.2470
  296MOL0     H39069   9.879   4.571  10.761 -0.3614 -0.7222 -0.5643
  296MOL0     H39070   9.552   4.714  10.543  0.6322 -0.7438 -0.6252
  296MOL0     H39071  10.383   4.735  10.368  0.8487  2.4951  1.7495
  296MOL0     H39072  10.598   4.813  10.287  1.2488 -2.3720 -0.1258
  297MOL0     O39073   2.227  10.641   7.990  0.1523 -0.0886 -0.0347
  297MOL0     C39074   2.168  10.533   7.970  0.0105  0.1680 -0.8643
  297MOL0     O39075   2.036  10.512   7.970  0.2469  0.1606  0.3402
  297MOL0     C39076   1.936  10.607   8.000  1.1434  0.8245  0.2352
  297MOL0     C39077   1.941  10.732   8.067 -0.7056  0.6885 -0.4732
  297MOL0     C39078   1.832  10.798   8.106  0.6071 -0.0884  0.4100
  297MOL0     C39079   1.696  10.744   8.085  0.6890 -0.9937  0.4017
  297MOL0     O39080   1.570  10.795   8.115 -0.4222  0.4551 -0.8012
  297MOL0     C39081   1.576  10.924   8.181  0.5436 -0.9589  0.2485
  297MOL0     C39082   1.438  11.001   8.172  0.0127  0.5265 -0.3454
  297MOL0     C39083   1.332  10.944   8.272 -0.8988 -0.5125  0.2817
  297MOL0     C39084   1.199  11.016   8.239 -0.0897 -0.7223  0.9632
  297MOL0     C39085   1.078  10.958   8.320  0.1676 -1.1322 -0.0996
  297MOL0     C39086   0.943  11.004   8.262  0.1659 -0.3754 -0.2175
  297MOL0     C39087   0.849  11.007   8.377 -0.1506 -0.1987 -0.1376
  297MOL0     C39088   0.803  10.868   8.421 -0.3038 -0.2498  0.5414
  297MOL0     N39089   0.696  10.879   8.520  0.0696 -0.6221  0.4852
  297MOL0     C39090   0.695  10.828   8.646 -1.0385 -0.0294 -0.1568
  297MOL0     C39091   0.573  10.860   8.697  0.4215  0.6424  0.3038
  297MOL0     C39092   0.528  10.810   8.830  0.7514  0.3378 -1.6113
  297MOL0     C39093   0.376  10.837   8.870  0.5428 -0.5875  0.2283
  297MOL0     C39094   0.352  10.986   8.883 -0.6231  0.2710  0.1271
  297MOL0     C39095   0.223  11.020   8.950  0.3193  0.2181  0.3804
  297MOL0     O39096   0.199  11.158   8.934 -0.2228  0.1920 -0.3560
  297MOL0     C39097   0.069  11.198   8.956 -0.0330 -0.6158  0.7100
  297MOL0     C39098  -0.037  11.124   9.008  0.9221  0.0603  0.7493
  297MOL0     C39099  -0.165  11.167   9.026  0.2473 -0.3172 -0.2155
  297MOL0     C39100  -0.202  11.303   8.993 -0.6680  0.5884  0.9442
  297MOL0     C39101  -0.340  11.360   9.006 -0.0659 -0.8066 -0.0484
  297MOL0     O39102  -0.436  11.277   9.066 -0.3759 -0.3597 -0.1491
  297MOL0     C39103  -0.563  11.326   9.079  0.1136  0.0656  0.3411
  297MOL0     C39104  -0.674  11.249   9.054  0.6906  0.6751 -0.1154
  297MOL0     C39105  -0.799  11.293   9.085  0.6658  0.4987 -0.0983
  297MOL0     C39106  -0.826  11.417   9.150  0.4539 -0.1550 -1.5567
  297MOL0     O39107  -0.949  11.461   9.173 -0.2538  0.7840  0.3669
  297MOL0     C39108  -1.059  11.376   9.150 -0.8605 -1.0548  0.1897
  297MOL0     C39109  -1.180  11.455   9.191 -0.0007 -0.1514  0.3392
  297MOL0     C39110  -1.308  11.386   9.146 -0.0579  0.7018  0.0522
  297MOL0     C39111  -1.421  11.397   9.255 -0.6913 -0.4947  0.6461
  297MOL0     C39112  -1.536  11.314   9.214 -0.3774 -0.4107  0.6434
  297MOL0     C39113  -1.643  11.297   9.321  0.0095 -0.4168  0.1952
  297MOL0     C39114  -1.701  11.438   9.376 -0.1838 -0.2933 -0.0449
  297MOL0     C39115  -1.823  11.468   9.291 -0.7490  0.5583  0.7660
  297MOL0    Cl39116  -1.933  11.601   9.358  0.0086 -0.5601 -0.6991
  297MOL0     C39117  -0.715  11.489   9.186  0.0920 -0.1202  0.3508
  297MOL0     C39118  -0.582  11.449   9.147 -0.2090 -0.1692 -0.0401
  297MOL0     O39119  -0.355  11.471   8.962  0.2890 -0.1282 -0.8042
  297MOL0     C39120  -0.095  11.387   8.952 -0.3536  0.0350  0.5758
  297MOL0     C39121   0.031  11.335   8.926 -0.7078 -0.5073 -0.3169
  297MOL0     N39122   0.509  10.930   8.599  0.2103 -0.6051 -0.2159
  297MOL0     N39123   0.578  10.938   8.494  0.1564 -0.1552 -0.0913
  297MOL0     C39124   1.686  10.615   8.022 -0.3117  0.6103  0.2742
  297MOL0     C39125   1.809  10.550   7.985 -0.5372 -0.6870  0.4675
  297MOL0     C39126   2.255  10.424   7.938 -0.1753 -0.1442 -0.0848
  297MOL0     C39127   2.392  10.433   7.936  0.2766 -0.1465 -0.5081
  297MOL0     C39128   2.469  10.324   7.931  0.5544  0.5445 -0.6974
  297MOL0     C39129   2.401  10.194   7.921 -0.0818 -0.1771  0.4286
  297MOL0     O39130   2.467  10.076   7.911  0.2520 -0.7287 -0.0610
  297MOL0     C39131   2.596  10.071   7.860  0.5272  0.1923  1.1506
  297MOL0     C39132   2.587  10.050   7.708  0.4060  0.3296  0.2966
  297MOL0     C39133   2.713  10.021   7.626  1.0063 -0.8980 -0.2707
  297MOL0     C39134   2.708   9.995   7.470  0.6474 -0.0167 -0.1844
  297MOL0     C39135   2.683  10.123   7.397 -0.3724  0.1293 -0.1154
  297MOL0     C39136   2.680  10.226   7.339 -0.2305 -0.1903 -0.2166
  297MOL0     C39137   2.270  10.190   7.911 -0.4178 -0.0195 -0.4294
  297MOL0     C39138   2.193  10.298   7.915 -0.1546 -0.0652  0.9183
  297MOL0     H39139   2.041  10.771   8.081  1.0791 -2.5735 -2.6261
  297MOL0     H39140   1.846  10.895   8.151 -1.4307  0.9675 -1.0147
  297MOL0     H39141   1.648  10.985   8.126  1.1115 -0.0965  1.8972
  297MOL0     H39142   1.602  10.913   8.286  1.1423 -0.5257  0.1465
  297MOL0     H39143   1.400  10.995   8.070  1.0936  0.4183 -0.7541
  297MOL0     H39144   1.454  11.108   8.185  0.3305  0.2748  1.6859
  297MOL0     H39145   1.362  10.966   8.374 -0.8214  0.3386  0.0871
  297MOL0     H39146   1.318  10.836   8.269 -3.0492 -0.2860 -2.1471
  297MOL0     H39147   1.207  11.122   8.262 -1.5324 -0.0768 -1.2309
  297MOL0     H39148   1.167  11.011   8.134 -1.1796  0.7857  1.1889
  297MOL0     H39149   1.092  11.009   8.415 -0.7922 -0.9062 -0.0649
  297MOL0     H39150   1.082  10.852   8.346 -0.8681 -1.5181 -1.3679
  297MOL0     H39151   0.904  10.952   8.175  1.8599 -0.3738 -1.0302
  297MOL0     H39152   0.944  11.108   8.226 -0.1017 -0.5972 -0.8740
  297MOL0     H39153   0.892  11.063   8.460 -3.0199  1.5766  0.2728
  297MOL0     H39154   0.758  11.061   8.349  1.3165  2.0071 -0.8108
  297MOL0     H39155   0.887  10.810   8.461 -0.2664 -0.4117  0.2357
  297MOL0     H39156   0.775  10.817   8.328  1.1050  2.1632 -1.2962
  297MOL0     H39157   0.767  10.764   8.696 -0.6890 -0.8041 -1.5960
  297MOL0     H39158   0.598  10.842   8.907  1.6385 -0.1649 -2.1905
  297MOL0     H39159   0.539  10.701   8.823 -0.6992 -0.1088  1.5232
  297MOL0     H39160   0.347  10.797   8.968 -2.5205  4.3490  1.6653
  297MOL0     H39161   0.311  10.803   8.788 -0.7536  3.0101 -0.4099
  297MOL0     H39162   0.441  11.013   8.939  0.9309 -4.2314  0.2447
  297MOL0     H39163   0.360  11.029   8.783 -0.4288 -1.5606 -0.6935
  297MOL0     H39164   0.227  10.988   9.054 -2.0562 -1.0725  0.1472
  297MOL0     H39165   0.142  10.965   8.901  0.9454  0.6036 -1.1481
  297MOL0     H39166  -0.038  11.016   9.024 -0.6343 -0.3554 -1.6524
  297MOL0     H39167  -0.237  11.101   9.072 -0.5825  2.2994  2.6086
  297MOL0     H39168  -0.662  11.150   9.010 -1.7835  0.3306 -0.1255
  297MOL0     H39169  -0.876  11.217   9.078  2.4434 -1.6166  1.7253
  297MOL0     H39170  -1.046  11.293   9.220  1.2572 -0.6496  0.3493
  297MOL0     H39171  -1.075  11.337   9.049  0.3620  0.8301 -0.7944
  297MOL0     H39172  -1.174  11.552   9.141 -0.5262 -0.3566 -0.1341
  297MOL0     H39173  -1.180  11.469   9.300  3.4352 -0.6113  0.5035
  297MOL0     H39174  -1.296  11.277   9.144  0.8750  0.8041 -0.0365
  297MOL0     H39175  -1.343  11.419   9.048 -1.2572 -2.4555 -0.7346
  297MOL0     H39176  -1.391  11.357   9.352  0.9612 -2.7667 -0.7073
  297MOL0     H39177  -1.446  11.502   9.276  0.7307 -0.0873  0.4100
  297MOL0     H39178  -1.493  11.218   9.185 -1.4724 -0.3094 -1.4985
  297MOL0     H39179  -1.580  11.357   9.123 -1.2266 -0.1871  1.1475
  297MOL0     H39180  -1.609  11.246   9.411  0.2984 -2.0505 -0.7981
  297MOL0     H39181  -1.720  11.238   9.271  1.3818 -2.5990  0.5117
  297MOL0     H39182  -1.727  11.429   9.482 -0.0833  1.2217  0.1293
  297MOL0     H39183  -1.630  11.519   9.360 -0.8094 -0.0837 -2.0873
  297MOL0     H39184  -1.881  11.376   9.279 -0.5342  0.7960 -3.4600
  297MOL0     H39185  -1.780  11.496   9.195  1.7347  0.3866  1.7708
  297MOL0     H39186  -0.744  11.584   9.231 -3.2855 -1.5973  1.6378
  297MOL0     H39187  -0.505  11.519   9.175  0.2261  0.4418 -2.5547
  297MOL0     H39188  -0.108  11.493   8.932  0.6310 -0.1177 -1.0269
  297MOL0     H39189   0.111  11.401   8.893  0.0595 -0.9383  0.6194
  297MOL0     H39190   1.596  10.557   8.006  0.5605 -0.2321 -2.0280
  297MOL0     H39191   1.798  10.449   7.947 -0.3362  0.4307 -2.8719
  297MOL0     H39192   2.445  10.526   7.955  3.2475 -1.7681 -0.3140
  297MOL0     H39193   2.577  10.333   7.928  0.5857  0.9863  0.7965
  297MOL0     H39194   2.648   9.982   7.897 -1.8441 -0.7951  2.3128
  297MOL0     H39195   2.666  10.155   7.869  2.3827 -0.9047 -1.6095
  297MOL0     H39196   2.522   9.965   7.685  1.5231 -0.8953  1.4996
  297MOL0     H39197   2.540  10.142   7.672  3.6978  1.8264 -0.5675
  297MOL0     H39198   2.765   9.934   7.665  1.2920 -0.7551 -0.3277
  297MOL0     H39199   2.775  10.109   7.645  1.4019 -1.5751  1.8216
  297MOL0     H39200   2.806   9.955   7.442 -0.0756 -3.3417  1.5307
  297MOL0     H39201   2.630   9.921   7.449 -1.4048  1.5259  1.4887
  297MOL0     H39202   2.676  10.325   7.297 -0.0878 -0.3420 -0.5830
  297MOL0     H39203   2.220  10.098   7.882 -2.3688  1.3627 -1.6591
  297MOL0     H39204   2.085  10.286   7.926 -0.3549 -0.0292 -0.7478
  298MOL0     O39205   9.208   9.607   1.828  0.3481  0.2946 -0.2365
  298MOL0     C39206   9.285   9.529   1.886 -0.4457 -0.9169 -0.2706
  298MOL0     O39207   9.255   9.445   1.989  0.1178 -0.2336  0.9860
  298MOL0     C39208   9.126   9.447   2.047  0.1259 -0.0441  0.7863
  298MOL0     C39209   9.016   9.425   1.961  0.0983  0.5365  0.2697
  298MOL0     C39210   8.885   9.428   2.013 -0.1117  0.5548  0.0183
  298MOL0     C39211   8.871   9.449   2.149 -0.0367 -0.4672 -0.6717
  298MOL0     O39212   8.745   9.454   2.211 -0.0112  0.1255 -0.0811
  298MOL0     C39213   8.626   9.447   2.125 -0.3086 -0.3564 -0.5866
  298MOL0     C39214   8.503   9.430   2.216 -0.2947  0.4761 -0.0502
  298MOL0     C39215   8.474   9.274   2.244  0.6933  0.4134 -0.9679
  298MOL0     C39216   8.594   9.210   2.317 -0.2303  0.8375  0.0153
  298MOL0     C39217   8.581   9.056   2.308 -0.2741  0.3481 -0.2316
  298MOL0     C39218   8.453   8.992   2.348 -0.2104  0.1720  0.7607
  298MOL0     C39219   8.459   8.836   2.374 -0.5923 -0.0683  0.0320
  298MOL0     C39220   8.521   8.790   2.510  0.1278 -0.4757 -0.3387
  298MOL0     N39221   8.508   8.641   2.513  0.2983  0.3602 -0.1782
  298MOL0     C39222   8.387   8.574   2.537 -0.1633 -0.8705 -1.3740
  298MOL0     C39223   8.435   8.451   2.567  0.1205  0.1850  0.0321
  298MOL0     C39224   8.340   8.341   2.604 -0.2968  0.4029 -0.2535
  298MOL0     C39225   8.406   8.209   2.588 -0.3124  0.0079 -0.4049
  298MOL0     C39226   8.309   8.100   2.620  0.1312 -0.0048  0.4352
  298MOL0     C39227   8.390   7.968   2.610  0.8062  0.4158 -0.3122
  298MOL0     O39228   8.313   7.859   2.662 -0.0196  0.6779  0.3335
  298MOL0     C39229   8.215   7.813   2.579 -0.9195 -0.3446 -0.5719
  298MOL0     C39230   8.220   7.812   2.440 -0.2319 -0.2467  0.2165
  298MOL0     C39231   8.119   7.747   2.363  0.6218  0.1568 -0.3205
  298MOL0     C39232   8.021   7.673   2.424  1.5473 -0.6665 -0.9131
  298MOL0     C39233   7.916   7.598   2.358  0.5289 -0.7532  0.6667
  298MOL0     O39234   7.881   7.479   2.410 -0.0594 -0.2856 -0.0805
  298MOL0     C39235   7.809   7.382   2.348 -0.1557 -0.3501 -0.3079
  298MOL0     C39236   7.717   7.393   2.243 -0.4784  0.0733  0.3326
  298MOL0     C39237   7.643   7.280   2.206  0.2163  0.0865 -0.2916
  298MOL0     C39238   7.650   7.161   2.283 -0.7034  0.1817  0.1607
  298MOL0     O39239   7.594   7.041   2.243 -0.2593  0.3662 -0.1843
  298MOL0     C39240   7.596   7.005   2.105 -0.0145 -0.9256  0.1274
  298MOL0     C39241   7.624   6.860   2.078  0.1344  0.2824 -0.0047
  298MOL0     C39242   7.746   6.812   2.149  0.6810  0.4106  0.3591
  298MOL0     C39243   7.758   6.662   2.124  0.5201 -0.5280  0.5075
  298MOL0     C39244   7.888   6.596   2.170  0.0348  0.1260 -0.4606
  298MOL0     C39245   7.857   6.437   2.191  0.5551 -0.3176  0.4493
  298MOL0     C39246   7.986   6.351   2.207  0.2885 -0.0267  0.4357
  298MOL0     C39247   8.056   6.315   2.074 -0.2030 -0.3311 -0.7593
  298MOL0    Cl39248   8.183   6.443   2.036  0.4143 -0.0488  0.2959
  298MOL0     C39249   7.737   7.161   2.400  0.0151 -0.2305  0.7011
  298MOL0     C39250   7.818   7.270   2.430  0.1987  0.5248 -0.3330
  298MOL0     O39251   7.856   7.658   2.266  0.0727 -0.1979  0.0787
  298MOL0     C39252   8.021   7.670   2.560  1.1537 -0.4193 -0.0789
  298MOL0     C39253   8.115   7.740   2.647 -0.3646 -0.3092  0.0076
  298MOL0     N39254   8.577   8.448   2.573  0.3991  0.1801 -0.8441
  298MOL0     N39255   8.619   8.561   2.533 -0.2482  0.7410 -0.2515
  298MOL0     C39256   8.981   9.453   2.236 -0.0750 -0.9747 -0.0296
  298MOL0     C39257   9.111   9.455   2.185 -0.6477  0.0267  0.5613
  298MOL0     C39258   9.431   9.537   1.856  0.3846  0.0097  0.9728
  298MOL0     C39259   9.482   9.548   1.721 -0.4999 -0.4958 -0.1992
  298MOL0     C39260   9.622   9.568   1.701 -0.8189  0.0563 -0.2854
  298MOL0     C39261   9.713   9.563   1.811  0.1045 -0.0468  0.1132
  298MOL0     O39262   9.842   9.579   1.765 -0.2902  0.3900  0.2627
  298MOL0     C39263   9.946   9.644   1.840 -0.2423  0.4253  0.3163
  298MOL0     C39264   9.937   9.794   1.802  0.1817  0.0147 -0.0699
  298MOL0     C39265  10.016   9.882   1.894 -0.2281 -0.5168  0.7227
  298MOL0     C39266  10.174   9.870   1.885 -1.2583 -0.3284 -0.3971
  298MOL0     C39267  10.240   9.912   2.008  0.3677  0.2705  0.7361
  298MOL0     C39268  10.281   9.961   2.108 -0.3411  0.3754 -0.1964
  298MOL0     C39269   9.671   9.551   1.941  0.7695  0.6047 -0.0409
  298MOL0     C39270   9.530   9.534   1.964 -0.1910  0.2108 -0.1701
  298MOL0     H39271   9.023   9.392   1.858  2.8471  1.8278 -0.0376
  298MOL0     H39272   8.801   9.415   1.946 -0.1594  0.0052  0.1779
  298MOL0     H39273   8.639   9.356   2.065  0.1852 -2.2333  2.1463
  298MOL0     H39274   8.612   9.536   2.063 -2.9425 -0.4463 -0.2348
  298MOL0     H39275   8.418   9.477   2.166 -0.0677 -0.5439 -1.4736
  298MOL0     H39276   8.502   9.487   2.309  1.8606  0.4195  0.0579
  298MOL0     H39277   8.464   9.218   2.150  2.4875 -0.6440 -0.5689
  298MOL0     H39278   8.383   9.265   2.305  1.7002  0.0212  0.5112
  298MOL0     H39279   8.693   9.251   2.295  0.3749 -1.7877 -2.6758
  298MOL0     H39280   8.576   9.233   2.423 -0.2029 -0.3688  0.2958
  298MOL0     H39281   8.669   9.007   2.351  1.2117  3.4336  0.5644
  298MOL0     H39282   8.583   9.034   2.201 -2.9242  3.3783 -1.0435
  298MOL0     H39283   8.382   9.011   2.266 -0.7451 -2.9636  0.3520
  298MOL0     H39284   8.413   9.033   2.441 -0.2096 -1.5629  1.5741
  298MOL0     H39285   8.355   8.805   2.362 -0.7214  0.1955  0.4630
  298MOL0     H39286   8.511   8.788   2.290  2.2286  2.6151  0.0407
  298MOL0     H39287   8.465   8.834   2.593 -0.5096 -1.9298  0.0246
  298MOL0     H39288   8.625   8.823   2.524  0.2191  0.0208 -1.9539
  298MOL0     H39289   8.281   8.594   2.539 -0.0316 -0.0162  1.6432
  298MOL0     H39290   8.249   8.356   2.546  0.0849 -0.5251 -1.1232
  298MOL0     H39291   8.326   8.354   2.712 -2.2590  3.3711 -0.7398
  298MOL0     H39292   8.492   8.199   2.655  1.5953 -1.0783 -2.8604
  298MOL0     H39293   8.443   8.190   2.487 -2.4601 -2.3732 -0.8603
  298MOL0     H39294   8.260   8.113   2.717  1.5320  1.5594  0.9782
  298MOL0     H39295   8.234   8.091   2.541  0.1358 -3.0229  0.6542
  298MOL0     H39296   8.479   7.986   2.671 -0.3657  0.1462  1.5485
  298MOL0     H39297   8.424   7.948   2.508 -1.8772 -1.3134 -0.9529
  298MOL0     H39298   8.293   7.867   2.381 -0.5524 -0.2125 -0.1561
  298MOL0     H39299   8.138   7.751   2.256  0.0823 -0.2626 -0.4356
  298MOL0     H39300   7.715   7.490   2.193  2.2845  0.2345  0.3608
  298MOL0     H39301   7.578   7.281   2.120 -2.2897 -0.1878  1.4807
  298MOL0     H39302   7.672   7.061   2.050 -3.0732  3.9837  0.3173
  298MOL0     H39303   7.505   7.043   2.058  0.5527  1.9677  1.1476
  298MOL0     H39304   7.641   6.853   1.970  1.2407  0.2815  0.1563
  298MOL0     H39305   7.537   6.799   2.103  0.2157  0.5687  1.0036
  298MOL0     H39306   7.740   6.854   2.250  1.6506  2.1917 -0.2685
  298MOL0     H39307   7.837   6.860   2.111  0.6109  1.8442  1.8788
  298MOL0     H39308   7.676   6.609   2.173  0.6363 -0.8859  0.3151
  298MOL0     H39309   7.741   6.649   2.017 -0.0881 -0.2034  0.5567
  298MOL0     H39310   7.912   6.646   2.265 -1.6196 -0.6679  0.4189
  298MOL0     H39311   7.968   6.610   2.097  0.1391 -0.3760 -0.4461
  298MOL0     H39312   7.810   6.392   2.103  1.4552  2.8247 -1.8567
  298MOL0     H39313   7.776   6.421   2.262  0.1023 -0.1757 -0.0283
  298MOL0     H39314   8.060   6.409   2.263  1.7373 -1.6751  0.3187
  298MOL0     H39315   7.959   6.259   2.259 -1.9366 -0.8675 -1.9909
  298MOL0     H39316   7.983   6.316   1.991 -0.2728  0.9720 -0.7025
  298MOL0     H39317   8.092   6.212   2.083 -0.2831 -0.5120 -2.2217
  298MOL0     H39318   7.746   7.062   2.444  0.6063 -0.9187 -0.8721
  298MOL0     H39319   7.877   7.272   2.521  1.2774  1.6722 -1.0228
  298MOL0     H39320   7.942   7.616   2.611 -0.0112  0.9657 -0.3503
  298MOL0     H39321   8.121   7.743   2.756  3.7155  0.1128 -0.0744
  298MOL0     H39322   8.956   9.472   2.340  2.7799  0.6044  0.4724
  298MOL0     H39323   9.191   9.473   2.256  0.8698 -3.2019 -0.1620
  298MOL0     H39324   9.421   9.543   1.631  0.6033  1.9084 -1.1680
  298MOL0     H39325   9.659   9.587   1.601  0.3681 -0.4154  0.0517
  298MOL0     H39326  10.043   9.603   1.812 -0.4992  0.9319 -1.3997
  298MOL0     H39327   9.951   9.638   1.949 -3.4448 -2.8304  0.4746
  298MOL0     H39328   9.971   9.797   1.698 -1.4118 -0.1345 -0.6266
  298MOL0     H39329   9.829   9.815   1.798  0.2388  0.2880 -0.2126
  298MOL0     H39330   9.985   9.859   1.996 -0.1528  1.9105  1.3753
  298MOL0     H39331   9.987   9.987   1.876 -3.1036 -1.4019 -0.4063
  298MOL0     H39332  10.207   9.770   1.855 -1.2202 -0.3472 -0.2955
  298MOL0     H39333  10.213   9.945   1.816  0.1982 -1.0978 -0.4519
  298MOL0     H39334  10.306  10.004   2.203 -2.0557 -0.9170  0.9106
  298MOL0     H39335   9.743   9.539   2.021 -1.8283 -0.0945  2.3964
  298MOL0     H39336   9.494   9.534   2.066  2.7010  1.1771  0.9506
  299MOL0     O39337   2.461   4.152   5.828 -0.2958  0.2838 -0.1162
  299MOL0     C39338   2.546   4.186   5.915 -0.3353  0.6410 -0.0396
  299MOL0     O39339   2.531   4.290   6.006 -0.3085 -0.0375 -0.1286
  299MOL0     C39340   2.413   4.347   6.030  0.4576  1.0907  0.1538
  299MOL0     C39341   2.416   4.475   6.084  0.2992 -1.4964  0.1340
  299MOL0     C39342   2.294   4.539   6.114  0.3607 -0.7314 -0.4954
  299MOL0     C39343   2.167   4.478   6.098  0.2977  0.2203 -0.4638
  299MOL0     O39344   2.050   4.539   6.129 -0.0356 -0.2870  0.5876
  299MOL0     C39345   1.937   4.531   6.036 -0.6107 -0.8027  0.4516
  299MOL0     C39346   1.822   4.603   6.106 -0.3041  0.4075 -0.4422
  299MOL0     C39347   1.851   4.753   6.119  0.0237 -0.0192  0.3834
  299MOL0     C39348   1.724   4.818   6.171  0.4462 -0.2263 -0.6843
  299MOL0     C39349   1.748   4.969   6.188  0.7412  0.9495 -0.3103
  299MOL0     C39350   1.636   5.037   6.263 -0.3746 -0.1236 -0.0685
  299MOL0     C39351   1.533   5.110   6.172 -0.3241  0.6640  0.1589
  299MOL0     C39352   1.434   5.183   6.261 -0.0282 -0.7838  0.2867
  299MOL0     N39353   1.329   5.236   6.170 -0.3140  0.0874  0.0787
  299MOL0     C39354   1.346   5.355   6.111  0.3894  0.0054  0.1789
  299MOL0     C39355   1.228   5.372   6.045 -0.6341 -0.9408  0.9932
  299MOL0     C39356   1.214   5.504   5.972 -0.6606 -0.3388 -0.8299
  299MOL0     C39357   1.073   5.554   5.993 -0.0812  0.3338  0.3571
  299MOL0     C39358   1.062   5.596   6.136 -0.0113  0.3079 -1.1058
  299MOL0     C39359   0.924   5.667   6.158 -0.8984 -0.8678  0.2812
  299MOL0     O39360   0.934   5.694   6.297 -0.6421 -0.3759  0.2053
  299MOL0     C39361   0.825   5.747   6.366 -0.3011  0.7144  1.0898
  299MOL0     C39362   0.711   5.796   6.304  0.5620  0.7001  1.0325
  299MOL0     C39363   0.604   5.854   6.370 -0.5274 -0.4500 -0.1983
  299MOL0     C39364   0.626   5.878   6.510 -0.3532 -0.2858  0.2401
  299MOL0     C39365   0.521   5.948   6.577 -0.8899 -0.3593 -0.5411
  299MOL0     O39366   0.489   5.903   6.699 -0.1973 -0.2701  0.5651
  299MOL0     C39367   0.381   5.955   6.748  0.5683  0.2048 -0.0698
  299MOL0     C39368   0.398   6.027   6.856 -0.0420 -0.2038  0.7173
  299MOL0     C39369   0.284   6.085   6.910 -0.4068 -0.3709  0.7019
  299MOL0     C39370   0.157   6.067   6.857  0.4183 -0.5425 -0.8373
  299MOL0     O39371   0.056   6.130   6.927 -0.0407  0.6332 -0.0853
  299MOL0     C39372  -0.079   6.109   6.881  0.4272  0.4044 -0.7202
  299MOL0     C39373  -0.171   6.205   6.952 -0.0080 -0.2664  0.3184
  299MOL0     C39374  -0.298   6.236   6.869 -0.2782 -0.4467 -0.2354
  299MOL0     C39375  -0.394   6.312   6.956  0.0980  0.0871  0.0893
  299MOL0     C39376  -0.523   6.322   6.875 -0.0707 -0.5110  0.5137
  299MOL0     C39377  -0.594   6.453   6.922 -0.0636 -0.0756 -0.2438
  299MOL0     C39378  -0.730   6.466   6.847 -0.2687 -1.1264  0.4245
  299MOL0     C39379  -0.809   6.590   6.894  0.5148 -0.0486 -0.7618
  299MOL0    Cl39380  -0.877   6.571   7.068 -0.0570 -0.0734 -0.0044
  299MOL0     C39381   0.144   5.995   6.740  0.4951  0.3023 -0.0238
  299MOL0     C39382   0.255   5.936   6.688  0.3453  0.3286  0.3419
  299MOL0     O39383   0.467   6.040   6.516 -0.7150 -0.2831 -0.1779
  299MOL0     C39384   0.735   5.816   6.576 -0.3741  0.5290 -0.3289
  299MOL0     C39385   0.836   5.752   6.501  0.5927 -0.5374 -0.8442
  299MOL0     N39386   1.138   5.263   6.069  0.5535  0.0509  0.1032
  299MOL0     N39387   1.208   5.184   6.141 -0.2280 -0.1146  0.5023
  299MOL0     C39388   2.172   4.345   6.063  0.4834  0.6347  0.4060
  299MOL0     C39389   2.290   4.275   6.030 -0.1677 -0.4325  0.8727
  299MOL0     C39390   2.669   4.108   5.931 -0.8369  0.1723  0.9200
  299MOL0     C39391   2.760   4.141   6.036  0.4515  0.3257 -1.0853
  299MOL0     C39392   2.883   4.076   6.040  0.2219 -0.1093 -0.2914
  299MOL0     C39393   2.916   3.977   5.948  0.4380  0.0198 -0.6399
  299MOL0     O39394   3.036   3.928   5.973  0.0007  0.0456  0.1355
  299MOL0     C39395   3.074   3.815   5.893 -0.4491  0.1808  0.7932
  299MOL0     C39396   3.169   3.752   5.986 -0.3103 -0.5761  0.4016
  299MOL0     C39397   3.303   3.826   5.997 -0.0419 -0.4215  0.1882
  299MOL0     C39398   3.424   3.744   6.051 -0.1875 -0.6746  0.6123
  299MOL0     C39399   3.522   3.834   6.068 -0.2496 -0.5398 -0.0673
  299MOL0     C39400   3.618   3.908   6.090  0.0138  0.3226  0.4887
  299MOL0     C39401   2.826   3.940   5.852  0.7077 -0.1461  1.2006
  299MOL0     C39402   2.701   4.006   5.841 -0.0759  0.1646 -0.4013
  299MOL0     H39403   2.508   4.531   6.080 -1.2382  1.3191 -4.9043
  299MOL0     H39404   2.303   4.644   6.138  0.5955 -0.6399 -0.9606
  299MOL0     H39405   1.929   4.424   6.016 -0.4195 -0.5669 -0.9851
  299MOL0     H39406   1.954   4.590   5.946 -2.2731  0.4116  0.8793
  299MOL0     H39407   1.802   4.555   6.203 -0.2391 -4.2866 -2.4737
  299MOL0     H39408   1.733   4.583   6.047  0.9150 -3.5572 -1.2515
  299MOL0     H39409   1.871   4.793   6.019 -0.6397 -1.0835 -0.1904
  299MOL0     H39410   1.937   4.771   6.184 -3.1457  1.9424  4.4855
  299MOL0     H39411   1.651   4.825   6.090  1.0080  0.8749 -1.1041
  299MOL0     H39412   1.689   4.758   6.256 -1.4833  0.3534 -1.0150
  299MOL0     H39413   1.757   5.016   6.089 -1.6739 -0.7130 -1.4039
  299MOL0     H39414   1.837   4.975   6.252  0.1333  0.5183  0.5954
  299MOL0     H39415   1.682   5.113   6.325  2.1888 -0.0770 -1.8988
  299MOL0     H39416   1.582   4.974   6.334 -2.5081  1.5403 -0.1107
  299MOL0     H39417   1.590   5.178   6.108 -1.0326  0.6842 -0.4741
  299MOL0     H39418   1.478   5.041   6.107  1.2267  0.9906 -1.5641
  299MOL0     H39419   1.489   5.270   6.298 -0.5110  0.3133 -1.4161
  299MOL0     H39420   1.389   5.120   6.338 -2.0700 -1.2074 -1.1686
  299MOL0     H39421   1.432   5.421   6.119  0.0740  0.6851 -1.5427
  299MOL0     H39422   1.237   5.507   5.865 -1.1231  0.0079 -0.9222
  299MOL0     H39423   1.275   5.582   6.020 -3.6069  1.9675 -0.5860
  299MOL0     H39424   1.002   5.474   5.970 -0.6923  0.3622  2.0150
  299MOL0     H39425   1.059   5.636   5.923  1.6787 -0.5130 -1.0695
  299MOL0     H39426   1.068   5.504   6.196 -1.5744 -0.5906 -2.2744
  299MOL0     H39427   1.143   5.664   6.164  1.0875 -0.5602 -2.0464
  299MOL0     H39428   0.841   5.597   6.159 -0.2919 -1.6026  2.2627
  299MOL0     H39429   0.901   5.743   6.083 -0.1067 -0.1373  0.7538
  299MOL0     H39430   0.703   5.815   6.198  0.5174 -0.9960  0.6986
  299MOL0     H39431   0.511   5.885   6.323 -0.1739  0.3774 -0.3718
  299MOL0     H39432   0.498   6.036   6.897 -0.3426 -0.7495  1.6050
  299MOL0     H39433   0.296   6.160   6.988 -0.1962  0.8530 -0.4624
  299MOL0     H39434  -0.118   6.007   6.896 -0.2319  0.8902  1.2931
  299MOL0     H39435  -0.084   6.132   6.775  0.1564 -0.0336 -0.8034
  299MOL0     H39436  -0.125   6.303   6.969 -1.9213  0.9062 -0.9452
  299MOL0     H39437  -0.204   6.159   7.045 -2.5913 -0.2009 -0.4858
  299MOL0     H39438  -0.342   6.143   6.832  1.7359 -1.2636 -0.7173
  299MOL0     H39439  -0.265   6.295   6.783  1.2045 -2.7200 -1.3326
  299MOL0     H39440  -0.412   6.268   7.054 -0.6513 -3.0273 -1.3280
  299MOL0     H39441  -0.333   6.403   6.959  0.5324  0.0539 -3.3439
  299MOL0     H39442  -0.586   6.234   6.882  0.6585 -1.2054 -1.2075
  299MOL0     H39443  -0.506   6.344   6.769 -0.8388  0.4344  0.5754
  299MOL0     H39444  -0.533   6.542   6.905 -3.1336  2.1747 -0.4422
  299MOL0     H39445  -0.609   6.447   7.031  2.0563 -1.8891  0.0076
  299MOL0     H39446  -0.711   6.494   6.743 -3.7471 -1.4075 -0.4418
  299MOL0     H39447  -0.795   6.377   6.843 -0.6102 -1.2481  4.3218
  299MOL0     H39448  -0.899   6.615   6.837 -0.4300  1.7591  1.3607
  299MOL0     H39449  -0.739   6.674   6.898 -0.2085  0.5236  0.7615
  299MOL0     H39450   0.055   5.985   6.678 -0.6763 -1.7836  1.8643
  299MOL0     H39451   0.231   5.879   6.599 -3.4230 -0.9489  1.9759
  299MOL0     H39452   0.743   5.814   6.684 -1.7164 -2.9290 -0.1507
  299MOL0     H39453   0.918   5.710   6.558 -0.7780 -0.4924  1.3294
  299MOL0     H39454   2.087   4.278   6.053  1.6168 -0.7776 -0.1951
  299MOL0     H39455   2.287   4.167   6.018 -0.0941 -0.2779 -0.7774
  299MOL0     H39456   2.742   4.218   6.110  1.1552 -1.3224  0.9216
  299MOL0     H39457   2.950   4.125   6.110  0.1413  2.8036 -2.0907
  299MOL0     H39458   3.118   3.839   5.796 -0.4811 -0.7351  0.5360
  299MOL0     H39459   3.002   3.734   5.873  1.2800 -1.6133  1.4765
  299MOL0     H39460   3.133   3.742   6.089  0.3226 -0.8554  0.5975
  299MOL0     H39461   3.186   3.646   5.966  1.0183 -0.2987  0.0050
  299MOL0     H39462   3.287   3.912   6.064  0.4557  0.5585 -0.9202
  299MOL0     H39463   3.324   3.869   5.899  1.2748  0.2458  0.7400
  299MOL0     H39464   3.403   3.685   6.140 -0.3319 -1.0826  0.3122
  299MOL0     H39465   3.453   3.678   5.969 -0.6331 -0.0566 -0.0527
  299MOL0     H39466   3.702   3.959   6.131 -1.0115  2.1017  0.4947
  299MOL0     H39467   2.846   3.859   5.782 -0.7062 -0.8541  1.5676
  299MOL0     H39468   2.631   3.983   5.762 -0.3692  0.5999 -0.2714
  300MOL0     O39469   4.655   6.708  11.091  0.3764 -0.0039 -0.2018
  300MOL0     C39470   4.736   6.620  11.113  0.4765 -0.0822  1.0161
  300MOL0     O39471   4.715   6.491  11.164  0.2606 -0.6960 -0.2950
  300MOL0     C39472   4.590   6.474  11.206  0.8595  1.7270 -0.8446
  300MOL0     C39473   4.533   6.545  11.312 -0.4227  1.0678 -0.9855
  300MOL0     C39474   4.403   6.536  11.348  1.5351 -0.6914  0.6100
  300MOL0     C39475   4.320   6.440  11.286 -0.5536  0.5180 -0.3250
  300MOL0     O39476   4.197   6.408  11.329 -0.1692  0.0994  0.9892
  300MOL0     C39477   4.104   6.517  11.364  0.3409 -0.0168  0.2770
  300MOL0     C39478   3.968   6.450  11.379 -0.1480  0.0767  0.7389
  300MOL0     C39479   3.873   6.552  11.448  0.3681  0.2194  0.4034
  300MOL0     C39480   3.724   6.491  11.430 -0.2152 -0.3091  0.8450
  300MOL0     C39481   3.621   6.590  11.468  0.2439  0.2318  0.2180
  300MOL0     C39482   3.479   6.558  11.417  0.9906 -0.2647 -0.1991
  300MOL0     C39483   3.387   6.679  11.402  0.7911  0.1051  0.0953
  300MOL0     C39484   3.439   6.802  11.335 -0.4771 -0.4114  0.0967
  300MOL0     N39485   3.343   6.899  11.280 -0.1773  0.9776 -0.3822
  300MOL0     C39486   3.277   6.868  11.162  0.1147 -0.4749  0.3759
  300MOL0     C39487   3.160   6.945  11.177  0.8929  0.2683 -0.2783
  300MOL0     C39488   3.041   6.957  11.082  0.7672  0.5359  0.5758
  300MOL0     C39489   2.901   6.948  11.146  0.1320  0.1465  0.6421
  300MOL0     C39490   2.871   6.796  11.163  0.0467  0.1721  0.0332
  300MOL0     C39491   2.739   6.766  11.244  0.7776  0.2262 -0.1685
  300MOL0     O39492   2.632   6.758  11.151  0.2762  0.6526  0.3301
  300MOL0     C39493   2.502   6.733  11.195 -1.0090 -0.1392  0.2952
  300MOL0     C39494   2.407   6.718  11.097  0.2230 -0.4595 -0.3015
  300MOL0     C39495   2.274   6.706  11.126 -0.0744 -0.8282 -0.3511
  300MOL0     C39496   2.229   6.739  11.260  0.1856  0.0992 -0.9344
  300MOL0     C39497   2.091   6.743  11.299  0.5775 -0.0179  0.5192
  300MOL0     O39498   2.059   6.757  11.433  0.0339  0.1910 -0.0829
  300MOL0     C39499   1.936   6.797  11.471 -0.1869  0.2829  0.3101
  300MOL0     C39500   1.867   6.722  11.561 -0.1154 -0.4555  1.0144
  300MOL0     C39501   1.761   6.779  11.628  0.3424  0.9340 -0.3515
  300MOL0     C39502   1.713   6.907  11.597  0.0071  0.6493  0.1685
  300MOL0     O39503   1.594   6.944  11.653 -0.2552  0.1973 -0.3796
  300MOL0     C39504   1.494   7.001  11.573 -0.2223 -0.1174 -0.0775
  300MOL0     C39505   1.361   7.014  11.655 -0.9745  0.0490  0.4670
  300MOL0     C39506   1.256   7.101  11.592 -0.0526 -0.1068 -0.1367
  300MOL0     C39507   1.119   7.070  11.663  0.9697 -0.2873  0.1008
  300MOL0     C39508   1.030   7.195  11.653  0.6636 -0.1673 -0.3350
  300MOL0     C39509   0.953   7.192  11.518 -0.1405 -0.2995  0.5611
  300MOL0     C39510   0.844   7.306  11.523 -0.2189 -0.0097  0.9740
  300MOL0     C39511   0.827   7.350  11.377 -0.4453 -0.4231 -0.1932
  300MOL0    Cl39512   0.763   7.228  11.271  0.2412  0.5298 -0.2095
  300MOL0     C39513   1.780   6.972  11.494 -0.7000  0.7919  0.8778
  300MOL0     C39514   1.890   6.922  11.437  0.0145 -0.6646  0.2533
  300MOL0     O39515   2.010   6.750  11.208  0.2996  0.6431 -0.3416
  300MOL0     C39516   2.323   6.760  11.362  1.0122  0.1917 -0.4111
  300MOL0     C39517   2.458   6.758  11.326 -0.1652 -0.4209 -0.2046
  300MOL0     N39518   3.151   6.987  11.304 -0.5512 -0.1765 -0.0120
  300MOL0     N39519   3.265   6.959  11.366 -0.1342 -0.4168  0.2841
  300MOL0     C39520   4.378   6.351  11.189 -0.0930  0.4703 -0.4306
  300MOL0     C39521   4.507   6.370  11.144  0.3761 -0.0588 -0.9595
  300MOL0     C39522   4.875   6.659  11.097  0.5531 -0.3037  0.5401
  300MOL0     C39523   4.916   6.779  11.039  0.4551  0.6710  0.2770
  300MOL0     C39524   5.049   6.820  11.043  0.6055 -0.6233 -0.7780
  300MOL0     C39525   5.151   6.748  11.111 -0.5152 -0.2816  0.3500
  300MOL0     O39526   5.269   6.822  11.117  0.3151  1.1226  0.6789
  300MOL0     C39527   5.389   6.756  11.099  0.5663  1.0902 -1.0832
  300MOL0     C39528   5.412   6.740  10.953 -0.1958 -0.0804  0.4545
  300MOL0     C39529   5.436   6.877  10.874  0.0444  0.7590  0.1525
  300MOL0     C39530   5.428   6.856  10.721  0.9299 -0.3279 -0.3476
  300MOL0     C39531   5.300   6.790  10.689 -0.5690 -0.5298 -0.5647
  300MOL0     C39532   5.190   6.747  10.660 -0.4093 -0.2444 -0.4553
  300MOL0     C39533   5.108   6.627  11.174  0.5682 -0.6979 -0.7391
  300MOL0     C39534   4.975   6.582  11.162 -0.2654 -0.3203  0.2400
  300MOL0     H39535   4.599   6.611  11.368  1.5546 -0.9496 -0.7618
  300MOL0     H39536   4.348   6.593  11.422 -2.3275 -2.6848 -0.4891
  300MOL0     H39537   4.094   6.591  11.283 -1.5333  0.0603  0.5344
  300MOL0     H39538   4.136   6.561  11.459 -2.9146  1.0500  1.0274
  300MOL0     H39539   3.982   6.359  11.437 -0.8791 -0.1485  0.5727
  300MOL0     H39540   3.918   6.430  11.284 -2.3232  2.4564  1.2678
  300MOL0     H39541   3.882   6.646  11.392 -0.6462 -0.0176 -0.1680
  300MOL0     H39542   3.903   6.585  11.549  1.4812  2.1785 -0.5003
  300MOL0     H39543   3.701   6.440  11.336  0.9680 -1.8206  1.3332
  300MOL0     H39544   3.730   6.408  11.502  0.3316  1.3563  2.8046
  300MOL0     H39545   3.661   6.688  11.438 -0.7682  1.3076  2.1662
  300MOL0     H39546   3.622   6.600  11.577  2.0043  2.4346  0.0718
  300MOL0     H39547   3.422   6.502  11.492 -1.2776 -0.8919 -2.2393
  300MOL0     H39548   3.476   6.499  11.324  2.6256  2.3045 -2.0037
  300MOL0     H39549   3.291   6.641  11.366  1.1852 -1.5696  0.6776
  300MOL0     H39550   3.366   6.706  11.506 -0.8328 -0.2391 -0.1309
  300MOL0     H39551   3.510   6.767  11.259  0.6446 -1.7423  1.6962
  300MOL0     H39552   3.490   6.850  11.418 -0.5482 -0.8505  0.3977
  300MOL0     H39553   3.314   6.811  11.078  0.3398  2.9640 -2.0765
  300MOL0     H39554   3.044   6.882  11.002 -1.1762  2.8736 -1.8496
  300MOL0     H39555   3.048   7.058  11.042  3.1273 -0.3311 -1.4221
  300MOL0     H39556   2.819   7.002  11.097  2.6388  2.4419 -1.2967
  300MOL0     H39557   2.904   6.991  11.247 -0.3925  3.0277 -0.4482
  300MOL0     H39558   2.857   6.753  11.064 -0.9400 -2.8243  1.3250
  300MOL0     H39559   2.957   6.748  11.212  1.5381  2.6436 -0.0095
  300MOL0     H39560   2.721   6.845  11.318  1.8980  1.2522 -0.9454
  300MOL0     H39561   2.752   6.672  11.299 -0.9411 -0.8626 -1.5153
  300MOL0     H39562   2.443   6.719  10.995  0.9612  0.5332 -0.0506
  300MOL0     H39563   2.208   6.685  11.042 -0.6005  0.5763 -0.3181
  300MOL0     H39564   1.913   6.625  11.580 -0.1818 -0.7506 -0.2545
  300MOL0     H39565   1.720   6.721  11.709  3.9097 -1.8788 -0.3054
  300MOL0     H39566   1.480   6.936  11.486 -2.5770  0.0829  0.0936
  300MOL0     H39567   1.526   7.103  11.552  1.2050 -0.4611  0.3184
  300MOL0     H39568   1.402   7.047  11.751  2.5453  0.1311 -0.9245
  300MOL0     H39569   1.312   6.921  11.687 -2.1604  0.6385  0.4331
  300MOL0     H39570   1.236   7.072  11.489  1.5367 -1.5805 -0.0712
  300MOL0     H39571   1.285   7.206  11.596  1.8350 -0.5279 -1.4593
  300MOL0     H39572   1.064   6.993  11.609  1.9290 -0.2846 -0.9257
  300MOL0     H39573   1.118   7.049  11.770  1.7863 -0.9763 -0.0078
  300MOL0     H39574   1.082   7.290  11.666  0.7682 -0.4958  2.1017
  300MOL0     H39575   0.958   7.190  11.736  2.3006 -2.0002  1.0636
  300MOL0     H39576   0.912   7.093  11.495  2.5061 -1.2695 -0.3624
  300MOL0     H39577   1.026   7.206  11.437 -0.9924  1.7992  0.0726
  300MOL0     H39578   0.749   7.272  11.566 -1.3661  0.6594 -0.9409
  300MOL0     H39579   0.882   7.394  11.576  0.5426 -0.1831  0.7316
  300MOL0     H39580   0.928   7.389  11.358  0.5027 -1.0978  2.8577
  300MOL0     H39581   0.755   7.432  11.385 -1.2389 -1.1726  0.4244
  300MOL0     H39582   1.749   7.071  11.463  1.9302  0.9833 -1.5004
  300MOL0     H39583   1.946   6.990  11.374 -1.1909  0.6390  0.5525
  300MOL0     H39584   2.293   6.784  11.464  1.9620  0.2839 -0.1400
  300MOL0     H39585   2.533   6.773  11.403 -0.9994 -1.6196  0.8928
  300MOL0     H39586   4.319   6.264  11.160 -0.9938  0.3719  1.5400
  300MOL0     H39587   4.560   6.315  11.067  1.3846 -0.6961  0.1563
  300MOL0     H39588   4.834   6.838  10.999  0.1446 -0.4024 -0.7117
  300MOL0     H39589   5.063   6.915  10.993 -2.0164 -0.3054 -1.0503
  300MOL0     H39590   5.386   6.656  11.145 -0.2950  1.8854  0.6901
  300MOL0     H39591   5.468   6.809  11.153  0.4944  0.3014 -0.1745
  300MOL0     H39592   5.509   6.690  10.943  0.3306  1.0443 -0.1866
  300MOL0     H39593   5.326   6.684  10.913  1.2109 -1.4570 -0.7989
  300MOL0     H39594   5.537   6.915  10.892  0.4020  0.4351 -1.0673
  300MOL0     H39595   5.365   6.951  10.912 -2.3006 -2.6691  2.9966
  300MOL0     H39596   5.431   6.951  10.667 -1.5389  1.4540  2.3064
  300MOL0     H39597   5.509   6.789  10.694 -0.9862 -2.7315 -0.4638
  300MOL0     H39598   5.099   6.704  10.624 -1.7821  0.9013  1.4913
  300MOL0     H39599   5.189   6.576  11.226  1.1689  0.2898 -0.6896
  300MOL0     H39600   4.952   6.487  11.209 -0.1809 -0.9504 -0.9398
  301MOL0     O39601  10.778   9.645   3.839  0.1101 -0.4912 -0.0278
  301MOL0     C39602  10.861   9.598   3.917  0.4664  0.1498  0.2391
  301MOL0     O39603  10.833   9.514   4.026 -0.3092  0.0949  0.2886
  301MOL0     C39604  10.703   9.502   4.070  0.0351  0.0099 -0.9798
  301MOL0     C39605  10.611   9.417   4.012  0.6002 -0.6908  1.5936
  301MOL0     C39606  10.485   9.416   4.053  1.1574 -0.5422 -0.2790
  301MOL0     C39607  10.439   9.496   4.158  0.7898  0.3046 -0.7567
  301MOL0     O39608  10.300   9.497   4.183 -0.7893 -0.4163  0.9091
  301MOL0     C39609  10.273   9.533   4.321 -0.1931  0.1034 -0.8316
  301MOL0     C39610  10.138   9.468   4.349  0.0168  0.4171 -0.2988
  301MOL0     C39611  10.014   9.567   4.307 -0.1293  0.4014 -0.0457
  301MOL0     C39612   9.891   9.499   4.351  0.8436 -0.3651 -0.5833
  301MOL0     C39613   9.762   9.584   4.348  0.2319  0.1217  0.2193
  301MOL0     C39614   9.644   9.519   4.420 -0.4536  0.3338  0.0376
  301MOL0     C39615   9.508   9.591   4.409 -0.5139 -0.2047  0.2234
  301MOL0     C39616   9.410   9.494   4.463  0.5288  0.1334  0.0314
  301MOL0     N39617   9.268   9.541   4.465  0.1577  0.4944 -1.0197
  301MOL0     C39618   9.220   9.659   4.528  0.4092 -0.1949  0.5588
  301MOL0     C39619   9.079   9.636   4.539  0.0927 -0.5909  0.0605
  301MOL0     C39620   8.981   9.747   4.580  0.2636  0.4350  0.3241
  301MOL0     C39621   8.900   9.787   4.454 -0.5935 -1.0054 -0.6303
  301MOL0     C39622   8.828   9.917   4.470  0.7087 -1.0166  0.2215
  301MOL0     C39623   8.733   9.945   4.354 -0.2365 -0.1949 -0.2974
  301MOL0     O39624   8.688  10.083   4.355 -0.4682 -0.4360 -0.7659
  301MOL0     C39625   8.607  10.130   4.259 -0.2754  0.1497  0.6976
  301MOL0     C39626   8.619  10.262   4.223 -0.0983 -0.3088  0.4625
  301MOL0     C39627   8.541  10.309   4.118 -0.1525 -0.1093  0.0856
  301MOL0     C39628   8.446  10.232   4.048 -0.6441 -0.4864 -0.1459
  301MOL0     C39629   8.375  10.287   3.933  0.0887 -1.2307  0.3143
  301MOL0     O39630   8.429  10.392   3.860  0.1497  0.1642  0.1772
  301MOL0     C39631   8.372  10.450   3.749 -0.0707 -0.0479 -0.6287
  301MOL0     C39632   8.241  10.454   3.724 -0.3539 -0.4825  0.2124
  301MOL0     C39633   8.194  10.516   3.608  0.3406 -0.0945  0.6017
  301MOL0     C39634   8.290  10.584   3.521  1.3793 -0.0495  0.2511
  301MOL0     O39635   8.236  10.646   3.404  0.7446 -0.0831  0.8202
  301MOL0     C39636   8.322  10.622   3.286  0.1073  0.9059  0.7650
  301MOL0     C39637   8.229  10.620   3.164 -0.6082 -0.0583 -0.4490
  301MOL0     C39638   8.283  10.527   3.047  0.3686  0.1074  0.3349
  301MOL0     C39639   8.186  10.530   2.938  0.2469  0.2282  0.0484
  301MOL0     C39640   8.225  10.442   2.818 -0.5033 -0.1047  0.0422
  301MOL0     C39641   8.235  10.291   2.858  0.0787  0.2011 -0.2304
  301MOL0     C39642   8.249  10.223   2.718 -0.2272 -0.2191  0.6244
  301MOL0     C39643   8.305  10.082   2.733 -0.7840 -0.2253 -0.2021
  301MOL0    Cl39644   8.286  10.004   2.577  0.1684  0.3326  0.0699
  301MOL0     C39645   8.424  10.591   3.549  0.1470 -0.1982 -0.5149
  301MOL0     C39646   8.462  10.514   3.666  1.1907 -0.8772 -0.0844
  301MOL0     O39647   8.272  10.225   3.899 -0.2730 -0.0654 -0.7034
  301MOL0     C39648   8.430  10.100   4.098  0.5967 -0.2044  0.1962
  301MOL0     C39649   8.512  10.048   4.195  0.7038  0.2971 -0.1141
  301MOL0     N39650   9.051   9.514   4.480 -1.1054 -0.1186  0.5292
  301MOL0     N39651   9.162   9.455   4.442  0.0785 -0.0863 -0.6129
  301MOL0     C39652  10.535   9.570   4.229  0.0277 -0.0020 -0.3781
  301MOL0     C39653  10.668   9.580   4.181  0.4409 -0.3542  0.1786
  301MOL0     C39654  10.996   9.653   3.904  0.4353  0.2512 -0.3870
  301MOL0     C39655  11.088   9.648   4.011 -0.1524  0.7328 -0.3926
  301MOL0     C39656  11.209   9.719   4.000  0.1091 -0.1082  0.2743
  301MOL0     C39657  11.248   9.786   3.881 -0.1732 -0.0264  0.6548
  301MOL0     O39658  11.372   9.838   3.855  0.1655 -0.0788  0.4948
  301MOL0     C39659  11.475   9.816   3.945  0.1604  0.4301 -0.0801
  301MOL0     C39660  11.599   9.872   3.883 -0.2758  0.3029 -0.8374
  301MOL0     C39661  11.726   9.840   3.967 -0.1847 -0.0468  0.5024
  301MOL0     C39662  11.856   9.901   3.913 -0.0536  0.0060  0.4608
  301MOL0     C39663  11.840  10.050   3.883  0.0229 -0.0495 -1.3626
  301MOL0     C39664  11.832  10.170   3.889  0.4175  0.1701 -0.7324
  301MOL0     C39665  11.155   9.782   3.770  0.7881 -0.7054 -0.4607
  301MOL0     C39666  11.035   9.711   3.786  0.0460  0.7079  1.2869
  301MOL0     H39667  10.647   9.349   3.935  1.3885  0.3574  1.0119
  301MOL0     H39668  10.406   9.359   4.004 -1.3593  1.0462  1.6926
  301MOL0     H39669  10.270   9.642   4.329  1.1341  0.2523 -1.8958
  301MOL0     H39670  10.346   9.496   4.393 -0.9724  0.3889  0.1151
  301MOL0     H39671  10.128   9.436   4.454 -0.3348  1.7311  0.0873
  301MOL0     H39672  10.123   9.372   4.299  1.6283  1.1103 -2.2379
  301MOL0     H39673  10.011   9.592   4.201 -0.3905  0.5427 -0.0055
  301MOL0     H39674  10.018   9.660   4.365 -0.9050  0.9271 -0.8027
  301MOL0     H39675   9.880   9.411   4.287  3.7922 -1.5607  0.4068
  301MOL0     H39676   9.902   9.464   4.454  1.4725 -1.3808 -0.9780
  301MOL0     H39677   9.743   9.590   4.240  2.0000  0.3624 -0.1108
  301MOL0     H39678   9.774   9.685   4.387 -0.0983 -0.4906  1.9873
  301MOL0     H39679   9.657   9.520   4.528 -3.7853 -0.0016  0.5523
  301MOL0     H39680   9.625   9.416   4.386 -1.2981  0.9739 -1.5061
  301MOL0     H39681   9.514   9.682   4.469 -3.1510 -1.6593  2.9980
  301MOL0     H39682   9.486   9.613   4.305  0.1392 -2.6420 -0.4904
  301MOL0     H39683   9.424   9.481   4.570 -1.0427  1.0347  0.3746
  301MOL0     H39684   9.412   9.401   4.405  0.0059  0.5955 -0.7541
  301MOL0     H39685   9.271   9.748   4.562  1.9973 -0.0983 -1.8202
  301MOL0     H39686   9.040   9.824   4.630  2.5502 -2.3314  2.2366
  301MOL0     H39687   8.909   9.710   4.655 -3.1703  1.9746 -1.9602
  301MOL0     H39688   8.831   9.707   4.428 -0.8370 -1.2133  0.5868
  301MOL0     H39689   8.962   9.801   4.365 -1.6872 -0.4478 -1.3316
  301MOL0     H39690   8.758   9.916   4.554 -1.8101  2.1580 -1.6136
  301MOL0     H39691   8.896  10.003   4.477 -0.0059 -0.1550 -2.3737
  301MOL0     H39692   8.645   9.881   4.368  1.0508 -1.6204  1.6974
  301MOL0     H39693   8.777   9.917   4.257 -3.1152 -0.1222 -1.7475
  301MOL0     H39694   8.691  10.330   4.268 -0.4420  0.8058 -0.6038
  301MOL0     H39695   8.548  10.417   4.107  1.1315  0.2624  3.5823
  301MOL0     H39696   8.168  10.419   3.797  2.8308 -3.0557  2.4493
  301MOL0     H39697   8.091  10.529   3.576  0.3906 -0.7210  0.1530
  301MOL0     H39698   8.383  10.532   3.296  1.2148  1.8234  3.2071
  301MOL0     H39699   8.395  10.702   3.294  0.3168  0.5571  3.3351
  301MOL0     H39700   8.212  10.722   3.128  0.7517 -0.0766 -1.2331
  301MOL0     H39701   8.134  10.577   3.198  0.3716 -2.2601 -0.2619
  301MOL0     H39702   8.271  10.424   3.082  1.5901 -0.7682 -1.6206
  301MOL0     H39703   8.387  10.549   3.019 -0.4002  0.2105 -2.8049
  301MOL0     H39704   8.086  10.498   2.971  0.6125 -2.4114 -1.1378
  301MOL0     H39705   8.189  10.634   2.903  0.9222  0.1784 -0.0497
  301MOL0     H39706   8.327  10.468   2.789 -0.2087  0.1561  1.2477
  301MOL0     H39707   8.163  10.467   2.732  2.5273  4.9320 -1.0448
  301MOL0     H39708   8.141  10.263   2.907  1.5854 -2.4783  1.3990
  301MOL0     H39709   8.314  10.258   2.926 -1.7613 -0.6432  1.6132
  301MOL0     H39710   8.149  10.222   2.674 -0.2665 -0.0040  0.7084
  301MOL0     H39711   8.313  10.267   2.641 -1.2048 -1.8909 -1.2314
  301MOL0     H39712   8.254  10.025   2.811 -0.8965  1.9247  1.3969
  301MOL0     H39713   8.410  10.092   2.760 -0.7333 -1.3631  0.0491
  301MOL0     H39714   8.503  10.636   3.491  2.4616 -3.0916  0.1531
  301MOL0     H39715   8.568  10.511   3.685  1.2074  0.3856  0.0444
  301MOL0     H39716   8.357  10.033   4.056  0.7959 -1.8069  2.2432
  301MOL0     H39717   8.506   9.944   4.225 -0.7771  0.1142 -0.9806
  301MOL0     H39718  10.508   9.627   4.318 -2.9594 -1.0022 -0.5162
  301MOL0     H39719  10.737   9.642   4.238 -2.1897  1.0836  2.0135
  301MOL0     H39720  11.063   9.592   4.100 -0.6442 -0.0032 -0.9805
  301MOL0     H39721  11.281   9.711   4.081  0.2976  1.0044  0.2272
  301MOL0     H39722  11.485   9.711   3.971 -2.8311  0.7337  3.0820
  301MOL0     H39723  11.446   9.854   4.044 -3.5110 -2.2067  0.0386
  301MOL0     H39724  11.631   9.833   3.785  0.2158  1.5731 -1.1965
  301MOL0     H39725  11.591   9.980   3.874  0.6596  0.6296  1.5279
  301MOL0     H39726  11.744   9.732   3.963  1.0712  0.1558 -2.6996
  301MOL0     H39727  11.711   9.864   4.073 -2.4451 -0.8059  0.3958
  301MOL0     H39728  11.932   9.884   3.990 -0.8900  1.2641  1.6118
  301MOL0     H39729  11.890   9.849   3.824 -2.0828 -0.0538 -0.3255
  301MOL0     H39730  11.849  10.275   3.878  1.5155  0.3183  1.7852
  301MOL0     H39731  11.179   9.839   3.680  0.4465  0.6929  0.3078
  301MOL0     H39732  10.970   9.714   3.699  2.3206  4.6862 -0.5521
  302MOL0     O39733  10.212   4.318   8.651  0.0567 -0.2245  0.2497
  302MOL0     C39734  10.228   4.423   8.578  0.5905  0.5712 -0.3310
  302MOL0     O39735  10.128   4.514   8.543 -0.9129 -0.7978  0.4378
  302MOL0     C39736  10.016   4.504   8.609  0.6691 -0.6595  0.5375
  302MOL0     C39737  10.004   4.512   8.746 -0.2966  0.7442 -0.5932
  302MOL0     C39738   9.877   4.508   8.811  0.9899  0.7686  0.1846
  302MOL0     C39739   9.761   4.473   8.729 -0.2256  0.6416 -0.3682
  302MOL0     O39740   9.646   4.432   8.781  0.2158 -0.2080 -0.5388
  302MOL0     C39741   9.554   4.548   8.782 -0.1432 -0.1838 -0.2563
  302MOL0     C39742   9.427   4.519   8.862 -0.3449 -0.0725 -0.3282
  302MOL0     C39743   9.310   4.614   8.844  0.6751  0.4919 -0.3474
  302MOL0     C39744   9.328   4.754   8.901  0.3138 -0.3788 -0.2718
  302MOL0     C39745   9.198   4.839   8.881 -0.0461  0.3293 -0.4007
  302MOL0     C39746   9.070   4.793   8.942  0.2092  0.1763  0.3131
  302MOL0     C39747   9.073   4.762   9.088  0.0505  0.1419 -0.6762
  302MOL0     C39748   9.110   4.893   9.174  0.2951  0.4228  0.0524
  302MOL0     N39749   8.998   4.988   9.194  0.8838  0.9039 -0.0163
  302MOL0     C39750   9.017   5.121   9.210  0.2102 -0.4883 -0.7826
  302MOL0     C39751   8.889   5.178   9.224 -0.3116 -0.6781 -1.3349
  302MOL0     C39752   8.867   5.322   9.267  0.7471 -0.2261 -0.4095
  302MOL0     C39753   8.852   5.411   9.142  0.5571 -0.5277 -0.3338
  302MOL0     C39754   8.806   5.546   9.182 -0.5557 -1.0156 -0.4002
  302MOL0     C39755   8.655   5.553   9.199 -0.1699 -0.1849 -0.8262
  302MOL0     O39756   8.620   5.672   9.259 -0.6287 -0.8455  0.5713
  302MOL0     C39757   8.504   5.688   9.338  0.6449 -0.2480 -0.1133
  302MOL0     C39758   8.401   5.593   9.363 -0.7717 -0.3783 -0.4192
  302MOL0     C39759   8.291   5.608   9.457  0.0243  0.1730 -0.3633
  302MOL0     C39760   8.281   5.727   9.528  0.4134 -0.4129  0.8702
  302MOL0     C39761   8.172   5.746   9.634  0.5917  0.0950  0.0865
  302MOL0     O39762   8.073   5.646   9.650 -0.6875  0.2936 -0.7473
  302MOL0     C39763   7.971   5.667   9.737 -0.4432 -0.2488 -0.3515
  302MOL0     C39764   7.948   5.594   9.858 -0.5937 -1.0423  0.3562
  302MOL0     C39765   7.846   5.631   9.947 -0.6343 -0.9297 -0.4865
  302MOL0     C39766   7.775   5.747   9.926  0.3441 -0.9816 -0.5012
  302MOL0     O39767   7.684   5.810  10.015 -0.7090  0.1857  0.5607
  302MOL0     C39768   7.719   5.815  10.150  0.9371  1.3140 -0.0265
  302MOL0     C39769   7.660   5.934  10.228  0.3922 -0.1420  0.1222
  302MOL0     C39770   7.525   5.973  10.171  0.1593 -0.4430  0.2739
  302MOL0     C39771   7.477   6.111  10.214 -0.7403 -0.0701 -0.4085
  302MOL0     C39772   7.344   6.148  10.160 -0.8037  0.4484 -0.1275
  302MOL0     C39773   7.222   6.069  10.208 -1.6184 -0.5494 -0.3666
  302MOL0     C39774   7.090   6.113  10.120  0.2492 -0.6257 -0.2161
  302MOL0     C39775   7.000   5.995  10.107 -0.1234  0.1047  0.6378
  302MOL0    Cl39776   6.848   6.050  10.014  0.2590 -0.4003  0.1264
  302MOL0     C39777   7.802   5.821   9.808 -0.5584  0.5920 -0.0059
  302MOL0     C39778   7.894   5.781   9.708 -0.6674 -0.2023 -0.9619
  302MOL0     O39779   8.173   5.855   9.693 -0.3309 -0.1222  0.1730
  302MOL0     C39780   8.384   5.826   9.502  0.4708  0.2517 -1.1176
  302MOL0     C39781   8.489   5.806   9.417 -0.1433  0.0819  0.3537
  302MOL0     N39782   8.802   5.076   9.212  0.2840 -0.5830 -0.5665
  302MOL0     N39783   8.860   4.961   9.200 -1.0990 -0.3977  0.6861
  302MOL0     C39784   9.782   4.468   8.592  0.4217 -0.9553  0.3094
  302MOL0     C39785   9.907   4.489   8.535 -0.7780  0.3123 -0.4666
  302MOL0     C39786  10.357   4.413   8.496 -0.0111 -0.4036  0.4219
  302MOL0     C39787  10.434   4.296   8.490 -0.5422 -0.5503  0.1746
  302MOL0     C39788  10.562   4.293   8.425  0.4040  0.2244 -0.3912
  302MOL0     C39789  10.610   4.399   8.361  1.0172 -0.5907  0.8111
  302MOL0     O39790  10.727   4.400   8.291 -0.4040 -0.7540 -0.0141
  302MOL0     C39791  10.813   4.280   8.279  0.2162  0.1587 -0.2221
  302MOL0     C39792  10.960   4.315   8.250  0.2998 -0.1423  0.0444
  302MOL0     C39793  11.047   4.342   8.383  0.3246  0.6332  0.1934
  302MOL0     C39794  11.186   4.401   8.346 -0.3891  0.6371  0.5056
  302MOL0     C39795  11.289   4.299   8.334  0.4686  0.5444  0.9800
  302MOL0     C39796  11.365   4.213   8.328 -0.3303  0.3487 -0.8146
  302MOL0     C39797  10.528   4.517   8.354  0.2124 -0.4169 -0.5959
  302MOL0     C39798  10.402   4.528   8.422 -0.0941  0.6077 -0.7754
  302MOL0     H39799  10.095   4.518   8.804  0.5010  0.1229 -1.7362
  302MOL0     H39800   9.861   4.503   8.918 -2.8092  1.0324 -0.2516
  302MOL0     H39801   9.527   4.568   8.678  1.4057 -0.9946 -0.8546
  302MOL0     H39802   9.597   4.638   8.826  0.6106 -0.3114 -0.7199
  302MOL0     H39803   9.453   4.512   8.968  0.5598  3.2859 -0.2001
  302MOL0     H39804   9.395   4.418   8.837  2.1407 -1.0020  0.0213
  302MOL0     H39805   9.225   4.571   8.897  1.3623 -1.0364 -0.3962
  302MOL0     H39806   9.290   4.628   8.737  2.1820  2.8331 -0.4090
  302MOL0     H39807   9.344   4.743   9.009  0.1291 -2.4551 -0.4093
  302MOL0     H39808   9.419   4.805   8.868  0.8579  0.2705  2.0209
  302MOL0     H39809   9.189   4.855   8.774 -0.5837 -0.2610 -0.4490
  302MOL0     H39810   9.222   4.936   8.926 -3.3350  0.8966  0.3869
  302MOL0     H39811   9.035   4.699   8.898  1.9843 -0.1396 -0.5159
  302MOL0     H39812   8.987   4.862   8.926 -1.1986 -0.5477  3.5448
  302MOL0     H39813   8.973   4.735   9.125 -0.7711 -0.0930 -2.8915
  302MOL0     H39814   9.145   4.682   9.106 -0.8018 -0.4412  0.2875
  302MOL0     H39815   9.200   4.945   9.139 -0.1637 -1.3777 -4.5443
  302MOL0     H39816   9.132   4.857   9.275  2.7140  3.2309  0.6677
  302MOL0     H39817   9.108   5.178   9.227 -1.2518  1.4852  0.9801
  302MOL0     H39818   8.942   5.356   9.339  0.2943 -1.2304  0.5672
  302MOL0     H39819   8.776   5.320   9.328 -0.5648  1.7244 -2.1731
  302MOL0     H39820   8.784   5.373   9.065  0.5989  1.0309 -1.1978
  302MOL0     H39821   8.950   5.410   9.091 -0.9247 -0.9179 -3.4199
  302MOL0     H39822   8.847   5.573   9.279 -1.4310 -1.3207  0.0684
  302MOL0     H39823   8.839   5.621   9.110 -1.0032  1.4859  1.8364
  302MOL0     H39824   8.624   5.472   9.266  1.8442  1.3908  2.2954
  302MOL0     H39825   8.611   5.551   9.099 -0.0778 -0.3877 -0.8618
  302MOL0     H39826   8.405   5.496   9.314 -2.9003 -0.4181 -0.6249
  302MOL0     H39827   8.222   5.524   9.461  0.9917 -0.7085 -1.3938
  302MOL0     H39828   8.011   5.509   9.878  2.3596  0.8477 -0.3350
  302MOL0     H39829   7.822   5.571  10.034 -1.0379  1.5983  1.2590
  302MOL0     H39830   7.827   5.820  10.162  0.9653  0.0380  0.3221
  302MOL0     H39831   7.688   5.720  10.195  2.2244  1.2076  0.6643
  302MOL0     H39832   7.725   6.021  10.220  0.3229 -0.1122 -0.1242
  302MOL0     H39833   7.653   5.912  10.335  0.5480  2.2875  0.6958
  302MOL0     H39834   7.444   5.900  10.183 -0.2352 -0.1984 -0.7762
  302MOL0     H39835   7.532   5.994  10.064 -1.5745  1.8534  0.5384
  302MOL0     H39836   7.478   6.116  10.323 -0.0915  0.4992 -0.4358
  302MOL0     H39837   7.552   6.185  10.188 -0.7332  0.2657  0.5307
  302MOL0     H39838   7.349   6.122  10.053 -0.3346 -3.0180  0.6374
  302MOL0     H39839   7.339   6.257  10.173 -2.9959  0.5288 -1.1237
  302MOL0     H39840   7.216   6.097  10.314  2.7851 -3.5540  0.9734
  302MOL0     H39841   7.249   5.963  10.203  1.8954 -0.2858  4.8030
  302MOL0     H39842   7.033   6.193  10.168  1.2333 -0.7752  1.2916
  302MOL0     H39843   7.122   6.142  10.019  2.3881 -1.8369  0.0441
  302MOL0     H39844   6.976   5.963  10.209  2.2675  1.2547  1.6432
  302MOL0     H39845   7.057   5.924  10.046  1.2002  1.3248  0.3862
  302MOL0     H39846   7.722   5.893   9.792  0.0510  1.0696 -1.0280
  302MOL0     H39847   7.907   5.840   9.618 -0.8550 -1.2159 -1.6754
  302MOL0     H39848   8.380   5.921   9.555 -3.0338  0.5112 -1.6191
  302MOL0     H39849   8.557   5.889   9.403  0.2524 -0.4607 -1.1339
  302MOL0     H39850   9.693   4.448   8.533 -1.0021  1.1102  1.5637
  302MOL0     H39851   9.919   4.477   8.428 -0.2356  0.0767 -0.3839
  302MOL0     H39852  10.409   4.208   8.549  0.3117 -0.8512  0.1001
  302MOL0     H39853  10.621   4.205   8.444  0.2040  0.8430  3.9876
  302MOL0     H39854  10.778   4.204   8.208  0.6726 -0.1243 -0.1464
  302MOL0     H39855  10.824   4.231   8.376  1.6630  2.3357  0.7912
  302MOL0     H39856  11.005   4.234   8.192 -0.0752  0.1934 -0.7240
  302MOL0     H39857  10.963   4.399   8.181  1.0940 -1.7320 -1.9452
  302MOL0     H39858  11.066   4.248   8.436 -0.6416 -0.6039 -1.5686
  302MOL0     H39859  11.004   4.423   8.443 -1.2191 -0.9124  1.2574
  302MOL0     H39860  11.173   4.464   8.258 -4.2188  0.6194  0.8920
  302MOL0     H39861  11.233   4.460   8.426 -1.9142 -0.2586  2.1447
  302MOL0     H39862  11.453   4.152   8.337  0.6641  1.9439  1.6484
  302MOL0     H39863  10.565   4.611   8.315  0.1465 -1.5976 -3.8455
  302MOL0     H39864  10.344   4.620   8.420 -0.4557  0.5440  2.1489
  303MOL0     O39865   3.440   5.990   2.507  0.3477 -0.0378 -0.2109
  303MOL0     C39866   3.405   5.901   2.578  0.3997  0.9734 -0.0403
  303MOL0     O39867   3.467   5.867   2.697  0.3179 -0.3944 -0.0221
  303MOL0     C39868   3.569   5.949   2.743 -0.3484  0.0040 -0.1579
  303MOL0     C39869   3.541   6.058   2.819  0.3601 -0.5706  0.2500
  303MOL0     C39870   3.655   6.126   2.875 -0.3055 -0.2880  0.3262
  303MOL0     C39871   3.785   6.070   2.868 -0.1101  1.0071 -0.0066
  303MOL0     O39872   3.897   6.119   2.928 -0.0425  1.2926  0.5494
  303MOL0     C39873   3.869   6.173   3.056 -0.6715 -0.1604  1.1291
  303MOL0     C39874   4.002   6.175   3.141  0.0202 -0.9465 -0.1225
  303MOL0     C39875   4.023   6.035   3.199 -0.2608  0.3663 -0.2048
  303MOL0     C39876   4.114   6.041   3.328  0.2058 -2.4546  1.5979
  303MOL0     C39877   4.146   5.901   3.384  0.9350 -0.2631 -0.6092
  303MOL0     C39878   4.182   5.919   3.537  0.0548  0.2196  0.0113
  303MOL0     C39879   4.181   5.778   3.603 -0.4988 -0.8039  0.1520
  303MOL0     C39880   4.297   5.685   3.554  0.4015  0.2019 -0.1081
  303MOL0     N39881   4.433   5.740   3.559 -0.5597 -0.7313  0.4265
  303MOL0     C39882   4.532   5.705   3.652 -0.3593  0.3995  0.6576
  303MOL0     C39883   4.649   5.763   3.611 -0.1222 -0.0204 -0.2466
  303MOL0     C39884   4.772   5.778   3.694  0.5445  0.2557  0.8958
  303MOL0     C39885   4.798   5.659   3.786  0.0404  0.3935  0.2945
  303MOL0     C39886   4.928   5.685   3.874  0.2872 -0.5286  0.7548
  303MOL0     C39887   4.964   5.568   3.955 -0.3798 -0.5299 -0.1883
  303MOL0     O39888   5.050   5.611   4.058  0.2637  0.1295 -0.0093
  303MOL0     C39889   5.182   5.581   4.049  1.3368  0.1397 -0.1280
  303MOL0     C39890   5.237   5.524   4.166 -0.4562  0.3401 -0.0659
  303MOL0     C39891   5.370   5.487   4.168  0.3008 -0.2734 -1.0081
  303MOL0     C39892   5.455   5.507   4.053 -0.0067 -0.1132  0.0543
  303MOL0     C39893   5.586   5.459   4.044  0.2723  0.2339 -0.7702
  303MOL0     O39894   5.633   5.371   4.139 -0.3515  0.5180  0.4476
  303MOL0     C39895   5.771   5.352   4.145  0.2664 -0.0923 -0.0055
  303MOL0     C39896   5.827   5.226   4.125 -0.0045  0.3994 -0.3893
  303MOL0     C39897   5.964   5.212   4.128 -0.1792  0.1162  0.8983
  303MOL0     C39898   6.057   5.314   4.158 -0.3612  0.3767  0.1786
  303MOL0     O39899   6.194   5.282   4.160  0.1294  0.5355 -0.6545
  303MOL0     C39900   6.274   5.358   4.069  0.0157  0.8364  0.6799
  303MOL0     C39901   6.358   5.257   3.987  0.5205 -0.0529  0.1031
  303MOL0     C39902   6.462   5.318   3.889 -0.1310  0.0103 -0.7674
  303MOL0     C39903   6.536   5.212   3.813 -0.5282 -0.2982  0.7381
  303MOL0     C39904   6.658   5.242   3.722 -0.0920  0.0842 -0.6399
  303MOL0     C39905   6.623   5.339   3.608 -0.2729 -0.1689 -0.3965
  303MOL0     C39906   6.757   5.388   3.542  0.4345 -0.1836 -0.0942
  303MOL0     C39907   6.765   5.544   3.527  0.0554  0.6959 -0.2077
  303MOL0    Cl39908   6.930   5.575   3.470 -0.0095 -0.5861 -0.5843
  303MOL0     C39909   6.000   5.438   4.172  0.6060 -0.3299 -0.2201
  303MOL0     C39910   5.856   5.457   4.172 -0.7425  0.6720  0.1432
  303MOL0     O39911   5.653   5.500   3.952 -0.2613  0.0794  0.4088
  303MOL0     C39912   5.391   5.574   3.945 -0.0728 -0.1966  0.6062
  303MOL0     C39913   5.259   5.618   3.945  0.3967  0.8879 -0.1910
  303MOL0     N39914   4.609   5.847   3.508 -0.1698  0.4827 -0.2167
  303MOL0     N39915   4.484   5.840   3.477 -0.4831  0.1479  0.4316
  303MOL0     C39916   3.800   5.946   2.800 -0.1231 -0.2693 -0.4298
  303MOL0     C39917   3.693   5.897   2.732 -0.7635 -0.0822 -0.1569
  303MOL0     C39918   3.276   5.831   2.546  0.1187  1.0066 -0.9184
  303MOL0     C39919   3.233   5.731   2.638 -0.0022 -0.9284  0.9046
  303MOL0     C39920   3.105   5.666   2.627  0.2803 -0.6220  1.2961
  303MOL0     C39921   3.022   5.689   2.518  1.0459 -0.9292 -0.1681
  303MOL0     O39922   2.916   5.608   2.498 -0.1622 -0.2845 -0.2724
  303MOL0     C39923   2.828   5.620   2.388  0.1537  0.3901  0.3587
  303MOL0     C39924   2.729   5.737   2.418 -0.0447  1.0564  0.3792
  303MOL0     C39925   2.579   5.708   2.450  0.6700  0.2899  0.8880
  303MOL0     C39926   2.507   5.825   2.525 -0.0236  0.6760 -0.3440
  303MOL0     C39927   2.487   5.944   2.444 -0.3540  0.6210  0.1314
  303MOL0     C39928   2.473   6.042   2.374 -0.9861  0.4258 -0.2885
  303MOL0     C39929   3.058   5.797   2.435 -0.9209 -0.7853  0.2289
  303MOL0     C39930   3.185   5.854   2.448 -0.2980 -0.5692  0.4384
  303MOL0     H39931   3.439   6.092   2.837  0.6905 -0.0085  1.1144
  303MOL0     H39932   3.629   6.218   2.926 -0.0570  0.1268 -0.2932
  303MOL0     H39933   3.800   6.106   3.108 -2.2914 -0.7210 -1.5613
  303MOL0     H39934   3.818   6.268   3.041 -3.2514 -1.6563 -0.2588
  303MOL0     H39935   3.988   6.251   3.218 -0.2412  1.2661 -2.2713
  303MOL0     H39936   4.087   6.212   3.082 -0.2001  1.5276  1.0024
  303MOL0     H39937   4.090   5.975   3.136 -1.0444  1.1781 -1.8606
  303MOL0     H39938   3.932   5.984   3.230  1.0585 -2.3694 -0.5569
  303MOL0     H39939   4.201   6.103   3.307 -0.0290 -2.6465 -0.0603
  303MOL0     H39940   4.047   6.101   3.391  2.4010  2.2745 -0.1591
  303MOL0     H39941   4.233   5.856   3.334  1.4010  0.2648 -0.2755
  303MOL0     H39942   4.056   5.841   3.367 -0.2081  0.7080  1.6457
  303MOL0     H39943   4.105   5.980   3.584  1.9740  3.0478 -0.3073
  303MOL0     H39944   4.277   5.967   3.560  0.9915 -1.3408 -0.3908
  303MOL0     H39945   4.206   5.795   3.708  0.3050 -0.0138 -0.1516
  303MOL0     H39946   4.086   5.725   3.592 -2.1827  2.0794 -0.1019
  303MOL0     H39947   4.275   5.665   3.449 -0.2105  0.3466 -0.0122
  303MOL0     H39948   4.301   5.582   3.593  1.5894 -0.4152 -1.7354
  303MOL0     H39949   4.516   5.644   3.740 -0.2594  2.1599  1.9529
  303MOL0     H39950   4.767   5.873   3.749 -2.3360  1.2002 -0.7949
  303MOL0     H39951   4.846   5.789   3.614  0.4961  4.7574  1.2084
  303MOL0     H39952   4.806   5.568   3.726 -1.6780 -0.5043  1.3606
  303MOL0     H39953   4.716   5.631   3.852 -1.0035 -1.0664 -1.5251
  303MOL0     H39954   5.013   5.711   3.810  1.5903  0.7773  2.8904
  303MOL0     H39955   4.898   5.771   3.935  0.5905 -0.3071  0.5947
  303MOL0     H39956   5.008   5.491   3.891  0.0419 -1.8410  1.5889
  303MOL0     H39957   4.875   5.524   4.001 -0.4667 -1.0940 -0.8754
  303MOL0     H39958   5.173   5.474   4.238  1.0633  0.2343  1.2607
  303MOL0     H39959   5.398   5.436   4.259  1.1268 -1.2881 -1.7984
  303MOL0     H39960   5.760   5.141   4.130 -0.0483  0.3479 -1.5467
  303MOL0     H39961   6.012   5.114   4.131 -2.0996 -0.8329  2.6264
  303MOL0     H39962   6.344   5.416   4.131  0.5398  1.3425 -0.3659
  303MOL0     H39963   6.223   5.431   4.006  0.5546 -0.2877 -1.1200
  303MOL0     H39964   6.286   5.192   3.937 -1.3049  1.0966  1.1209
  303MOL0     H39965   6.418   5.195   4.055  2.4706 -1.5441 -2.7945
  303MOL0     H39966   6.536   5.365   3.955  0.1883 -1.4715  0.0011
  303MOL0     H39967   6.419   5.391   3.820 -1.0723 -0.2827 -0.5053
  303MOL0     H39968   6.577   5.137   3.881 -0.7630 -1.2560 -0.1466
  303MOL0     H39969   6.464   5.163   3.746  0.3607 -2.0990  1.0255
  303MOL0     H39970   6.687   5.140   3.695 -1.7235 -0.7704  0.6568
  303MOL0     H39971   6.738   5.285   3.783 -1.0927  0.6865  0.2838
  303MOL0     H39972   6.553   5.418   3.634 -0.8820 -0.9142  0.3034
  303MOL0     H39973   6.569   5.284   3.530 -0.0177 -1.7872  0.5080
  303MOL0     H39974   6.849   5.362   3.595  1.5954  0.4025 -1.7293
  303MOL0     H39975   6.766   5.349   3.441  1.8706  1.6938 -0.7613
  303MOL0     H39976   6.736   5.595   3.620 -0.8238 -0.0171 -0.0656
  303MOL0     H39977   6.702   5.581   3.446  1.5422  0.7094 -1.3835
  303MOL0     H39978   6.073   5.514   4.195 -0.1440  0.4778 -0.4362
  303MOL0     H39979   5.812   5.555   4.180  0.5689  1.8495 -4.2116
  303MOL0     H39980   5.453   5.602   3.860 -1.1530  0.2519 -0.0530
  303MOL0     H39981   5.216   5.669   3.859  0.7350 -0.0686 -0.9458
  303MOL0     H39982   3.894   5.891   2.800 -0.8513 -1.8562  3.2330
  303MOL0     H39983   3.725   5.825   2.658  0.9641  1.2208 -0.7344
  303MOL0     H39984   3.295   5.691   2.718  0.8868 -0.0017  0.6919
  303MOL0     H39985   3.074   5.590   2.698 -2.8424  0.5451  1.3543
  303MOL0     H39986   2.771   5.532   2.357 -0.2569  1.0036 -0.6764
  303MOL0     H39987   2.885   5.650   2.299  0.3187  0.7711  0.5903
  303MOL0     H39988   2.768   5.806   2.493  0.7019 -0.5591  1.5444
  303MOL0     H39989   2.728   5.778   2.316  1.2126 -1.5519 -0.7918
  303MOL0     H39990   2.551   5.610   2.488  0.1054  0.0028 -0.2069
  303MOL0     H39991   2.535   5.699   2.350  2.8021  0.4494 -0.1160
  303MOL0     H39992   2.403   5.800   2.545 -0.9710  3.6430 -1.0094
  303MOL0     H39993   2.548   5.851   2.623 -0.5182 -2.2399  0.7181
  303MOL0     H39994   2.464   6.134   2.319  1.4549  1.3222  0.6768
  303MOL0     H39995   3.009   5.821   2.341 -2.1782  0.0906  1.0762
  303MOL0     H39996   3.205   5.930   2.373  0.2931 -2.6762 -1.6763
  304MOL0     O39997   6.576   2.320   4.467 -0.3597  0.0826  0.1071
  304MOL0     C39998   6.514   2.414   4.497 -0.2325 -0.3873  0.6721
  304MOL0     O39999   6.566   2.525   4.561 -0.1391  0.1038 -0.2800
  304MOL0     C40000   6.702   2.550   4.550  0.5976  0.4509 -0.2443
  304MOL0     C40001   6.742   2.654   4.470  0.0699  0.0073 -0.8980
  304MOL0     C40002   6.883   2.672   4.453  0.7941 -0.5790 -0.5184
  304MOL0     C40003   6.976   2.595   4.523  0.0602  0.3307  0.3184
  304MOL0     O40004   7.117   2.594   4.494  0.4621 -0.5359 -0.0132
  304MOL0     C40005   7.185   2.711   4.433 -1.0252  0.1236  0.1364
  304MOL0     C40006   7.181   2.833   4.528  0.2278  1.2667  0.4762
  304MOL0     C40007   7.275   2.939   4.475  0.6105 -0.5335 -0.1698
  304MOL0     C40008   7.261   3.073   4.558 -0.8692 -0.0614 -0.5570
  304MOL0     C40009   7.367   3.178   4.538 -0.4744 -0.5763 -0.0809
  304MOL0     C40010   7.311   3.323   4.570 -0.9601 -0.2667  0.3717
  304MOL0     C40011   7.408   3.432   4.513 -0.3647  0.6182  0.2057
  304MOL0     C40012   7.421   3.549   4.606 -0.8511 -0.5595  0.5234
  304MOL0     N40013   7.528   3.626   4.542  0.1828 -0.2537 -0.0790
  304MOL0     C40014   7.515   3.705   4.430  0.4072 -0.1490 -0.1148
  304MOL0     C40015   7.642   3.752   4.415  0.2020 -0.7373  0.6067
  304MOL0     C40016   7.703   3.841   4.309 -0.3195 -1.2605  0.7018
  304MOL0     C40017   7.599   3.909   4.215 -0.5264 -0.1787  0.8527
  304MOL0     C40018   7.539   3.812   4.116 -0.5664 -0.1172 -0.0074
  304MOL0     C40019   7.433   3.877   4.030  0.0595 -0.2783  0.8735
  304MOL0     O40020   7.307   3.897   4.101  0.6844  0.7045  0.4178
  304MOL0     C40021   7.189   3.902   4.023  0.2365  0.3829 -0.5528
  304MOL0     C40022   7.068   3.863   4.083 -0.5266  0.5971  0.3726
  304MOL0     C40023   6.946   3.852   4.021 -0.6188  0.7924  0.3029
  304MOL0     C40024   6.949   3.885   3.883  0.5064  0.3509  0.1993
  304MOL0     C40025   6.822   3.884   3.798 -0.2606  0.3468 -0.6100
  304MOL0     O40026   6.812   3.962   3.689 -0.2442 -0.5754  0.0267
  304MOL0     C40027   6.713   3.937   3.602  0.8796  0.5090  0.7401
  304MOL0     C40028   6.711   3.820   3.528  0.4687  0.3170 -0.1349
  304MOL0     C40029   6.588   3.785   3.451 -0.0968  0.3052  0.3713
  304MOL0     C40030   6.480   3.873   3.451 -0.1388 -0.2978 -0.4395
  304MOL0     O40031   6.367   3.843   3.390 -0.0269 -0.5686  0.5110
  304MOL0     C40032   6.372   3.876   3.249  0.4335 -0.5512 -0.3557
  304MOL0     C40033   6.254   3.957   3.194  0.5263  1.2642  0.1419
  304MOL0     C40034   6.108   3.880   3.197  0.3148 -0.5970 -0.0628
  304MOL0     C40035   5.994   3.983   3.194 -0.3758 -0.1312  0.1578
  304MOL0     C40036   5.854   3.917   3.180  0.2821 -0.4954 -0.6160
  304MOL0     C40037   5.744   4.026   3.164  0.5552 -0.0404 -0.0133
  304MOL0     C40038   5.612   3.958   3.159  0.2659 -0.5593  0.0856
  304MOL0     C40039   5.506   4.061   3.133  0.6720  0.4615 -0.2497
  304MOL0    Cl40040   5.346   3.996   3.109  0.4459 -0.1647  0.4822
  304MOL0     C40041   6.491   3.998   3.516  0.0186  0.4941  0.5270
  304MOL0     C40042   6.606   4.025   3.589 -0.5405 -0.6276 -0.7083
  304MOL0     O40043   6.739   3.804   3.833 -0.0860  0.3825 -0.0218
  304MOL0     C40044   7.066   3.917   3.816  0.3365 -0.6104  0.4388
  304MOL0     C40045   7.187   3.932   3.884  0.3383 -0.1482 -0.4762
  304MOL0     N40046   7.720   3.698   4.517  0.0311  0.4693  0.1039
  304MOL0     N40047   7.652   3.621   4.593  0.1610  0.2758 -0.6992
  304MOL0     C40048   6.931   2.487   4.603 -0.0946  0.6275 -0.5877
  304MOL0     C40049   6.792   2.465   4.619 -0.5298 -0.1747 -0.1999
  304MOL0     C40050   6.377   2.424   4.455 -0.2842  0.4416  0.7454
  304MOL0     C40051   6.289   2.306   4.460 -0.8451  0.0775  0.0556
  304MOL0     C40052   6.160   2.320   4.412  0.4853  0.5000 -0.5018
  304MOL0     C40053   6.119   2.441   4.357  1.0118  0.0666  0.3585
  304MOL0     O40054   5.993   2.460   4.303 -0.3203  0.6174  0.0514
  304MOL0     C40055   5.887   2.370   4.351  1.1095 -0.6134  1.0966
  304MOL0     C40056   5.747   2.428   4.311  0.2354  0.2260 -0.1585
  304MOL0     C40057   5.637   2.326   4.356  0.0328  0.5486 -0.2571
  304MOL0     C40058   5.502   2.369   4.303  0.0752  0.0198 -1.1660
  304MOL0     C40059   5.465   2.335   4.162  0.3861 -0.3192 -0.2338
  304MOL0     C40060   5.422   2.302   4.045 -0.7903  0.4121 -0.2512
  304MOL0     C40061   6.198   2.553   4.369 -0.7290  0.1116  0.5515
  304MOL0     C40062   6.322   2.544   4.419 -1.1505  0.0379  0.2778
  304MOL0     H40063   6.671   2.725   4.429  1.0710  1.9273  0.5769
  304MOL0     H40064   6.914   2.749   4.383  2.2728 -0.6077  0.0643
  304MOL0     H40065   7.145   2.728   4.333 -0.7320 -0.5937 -0.1169
  304MOL0     H40066   7.290   2.688   4.413 -0.5830 -0.6259  2.8262
  304MOL0     H40067   7.203   2.792   4.627 -0.1712 -1.1893 -0.3800
  304MOL0     H40068   7.078   2.870   4.516 -0.5058 -0.8013  0.0931
  304MOL0     H40069   7.262   2.979   4.375 -2.3750  0.7107  0.6049
  304MOL0     H40070   7.374   2.898   4.495  1.3871  0.4171 -1.8758
  304MOL0     H40071   7.165   3.125   4.553 -0.2448  1.3152  0.7922
  304MOL0     H40072   7.259   3.045   4.664 -3.5447 -1.3662 -0.8717
  304MOL0     H40073   7.390   3.184   4.431 -2.1685  0.6326 -0.4171
  304MOL0     H40074   7.457   3.148   4.593 -0.2463  1.6708  0.8715
  304MOL0     H40075   7.299   3.333   4.678  2.3732  2.3597  0.6807
  304MOL0     H40076   7.218   3.343   4.516 -0.1756 -1.5439 -1.5553
  304MOL0     H40077   7.507   3.390   4.492 -0.5394  0.5794 -0.5905
  304MOL0     H40078   7.367   3.471   4.419 -1.7204 -2.5388 -0.6477
  304MOL0     H40079   7.444   3.525   4.710 -2.0148  1.9666  1.4488
  304MOL0     H40080   7.326   3.603   4.608 -1.2604 -1.2883  1.1865
  304MOL0     H40081   7.423   3.719   4.375 -0.1837 -3.1537 -0.0608
  304MOL0     H40082   7.770   3.777   4.250  0.2321 -1.1688  1.2196
  304MOL0     H40083   7.769   3.912   4.359  1.4532 -2.1497 -0.2808
  304MOL0     H40084   7.631   3.996   4.157  1.5262 -2.4400 -1.6331
  304MOL0     H40085   7.522   3.955   4.277 -1.0114  2.0557 -1.2628
  304MOL0     H40086   7.612   3.772   4.045 -0.2828  2.5288 -1.2938
  304MOL0     H40087   7.488   3.731   4.170 -2.9021  0.8507 -0.6359
  304MOL0     H40088   7.415   3.800   3.955 -0.3771 -1.2216  1.9024
  304MOL0     H40089   7.471   3.968   3.985  0.0695 -0.3396  0.7586
  304MOL0     H40090   7.069   3.837   4.188 -1.5966 -1.2705 -0.0206
  304MOL0     H40091   6.854   3.817   4.065 -0.6537  1.0090  0.4029
  304MOL0     H40092   6.788   3.743   3.522  0.9539  0.8291 -0.6332
  304MOL0     H40093   6.577   3.694   3.393  0.1702 -0.1408  1.0110
  304MOL0     H40094   6.385   3.782   3.195  4.2640 -0.4577  0.1165
  304MOL0     H40095   6.465   3.931   3.232  1.4697 -1.9389  0.4956
  304MOL0     H40096   6.272   3.971   3.088 -0.2523 -0.5142 -0.2684
  304MOL0     H40097   6.248   4.050   3.251  1.3639  0.0963  2.3033
  304MOL0     H40098   6.100   3.805   3.276 -1.5005 -3.4878 -2.7106
  304MOL0     H40099   6.100   3.824   3.103  1.7823  2.3003 -2.0710
  304MOL0     H40100   5.997   4.047   3.283 -0.8153  3.8925 -2.4164
  304MOL0     H40101   6.021   4.050   3.111  3.4755 -0.5801  0.8619
  304MOL0     H40102   5.832   3.859   3.270  0.4510  3.7963  2.4891
  304MOL0     H40103   5.844   3.846   3.097 -2.9399 -0.8375 -0.0370
  304MOL0     H40104   5.766   4.080   3.072 -2.2729  1.6376  0.2012
  304MOL0     H40105   5.752   4.098   3.246  1.3679  0.8762 -0.8729
  304MOL0     H40106   5.598   3.881   3.083 -2.3361 -0.4141  0.3351
  304MOL0     H40107   5.577   3.921   3.256  0.3059  0.4444  0.4951
  304MOL0     H40108   5.540   4.121   3.048  1.9568  1.0809  0.6746
  304MOL0     H40109   5.492   4.140   3.207  0.4952  0.7104 -0.5429
  304MOL0     H40110   6.413   4.073   3.508 -0.7210 -0.3438 -0.4217
  304MOL0     H40111   6.617   4.109   3.657  0.8160 -0.5930 -0.9416
  304MOL0     H40112   7.046   3.944   3.713 -0.3230  3.2779  1.4430
  304MOL0     H40113   7.281   3.964   3.838  0.7623 -2.0684 -1.0540
  304MOL0     H40114   7.000   2.414   4.646 -1.1727 -1.0849 -1.6344
  304MOL0     H40115   6.742   2.384   4.672 -0.4761 -0.6020 -0.7878
  304MOL0     H40116   6.319   2.205   4.488 -0.4430  0.0428 -0.4919
  304MOL0     H40117   6.098   2.230   4.410  1.1215  0.0186  0.6015
  304MOL0     H40118   5.891   2.343   4.457 -0.1544 -2.4285  0.7349
  304MOL0     H40119   5.895   2.275   4.296  1.4700 -0.0226  0.1008
  304MOL0     H40120   5.745   2.525   4.362 -0.1826 -0.8044  1.8937
  304MOL0     H40121   5.754   2.448   4.204  0.4576 -1.8946 -0.5684
  304MOL0     H40122   5.625   2.317   4.464  0.9502  1.0411 -0.1147
  304MOL0     H40123   5.658   2.226   4.315 -2.0423 -0.2128  0.4051
  304MOL0     H40124   5.420   2.327   4.362 -0.4391 -1.2184 -2.6891
  304MOL0     H40125   5.497   2.476   4.325  2.7872 -0.0855  0.4013
  304MOL0     H40126   5.379   2.283   3.949 -1.1947 -0.3450  0.0712
  304MOL0     H40127   6.165   2.643   4.319  2.6714  0.4300 -1.4527
  304MOL0     H40128   6.379   2.636   4.424 -1.5355  0.2514  1.0576
  305MOL0     O40129   3.320  10.552   9.750 -0.4097 -1.0588 -0.3335
  305MOL0     C40130   3.366  10.634   9.826 -0.6063  0.5249 -0.6224
  305MOL0     O40131   3.288  10.700   9.917  0.3468 -0.6936  0.9575
  305MOL0     C40132   3.148  10.702   9.895  0.2086  0.8018 -0.3955
  305MOL0     C40133   3.069  10.651   9.997 -0.4169  0.1329 -0.2970
  305MOL0     C40134   2.929  10.654   9.993  0.9429  0.4305  0.7014
  305MOL0     C40135   2.868  10.718   9.878  0.8129  0.5140 -0.7024
  305MOL0     O40136   2.730  10.728   9.898  0.0747  0.1006 -0.5512
  305MOL0     C40137   2.667  10.844   9.855 -0.0251  0.2076 -2.1259
  305MOL0     C40138   2.527  10.846   9.912 -0.4659 -0.6479  0.0047
  305MOL0     C40139   2.433  10.772   9.816 -0.2981 -0.6566 -0.1595
  305MOL0     C40140   2.286  10.795   9.854 -0.6508 -0.2538  0.1139
  305MOL0     C40141   2.171  10.811   9.747 -0.4054  0.6140  0.0795
  305MOL0     C40142   2.036  10.778   9.805  1.2663 -0.6145 -0.5356
  305MOL0     C40143   1.940  10.726   9.698 -0.5440 -0.5371  0.0575
  305MOL0     C40144   1.968  10.576   9.672  0.3213  0.8276  0.1393
  305MOL0     N40145   1.867  10.517   9.579 -0.4651 -0.3124  0.7745
  305MOL0     C40146   1.735  10.509   9.628 -0.2323  0.4395 -0.5189
  305MOL0     C40147   1.676  10.450   9.520  0.3933  0.3766 -0.2641
  305MOL0     C40148   1.535  10.412   9.493 -0.0931 -0.2840 -0.2615
  305MOL0     C40149   1.442  10.533   9.519  1.2891  0.3105  1.0168
  305MOL0     C40150   1.302  10.494   9.459  0.4049 -0.0400 -0.3786
  305MOL0     C40151   1.173  10.538   9.531 -0.7708 -1.2501 -0.8657
  305MOL0     O40152   1.157  10.456   9.642  0.1483  0.5082 -0.3388
  305MOL0     C40153   1.021  10.456   9.681  0.6157 -0.4329  0.8212
  305MOL0     C40154   0.980  10.331   9.724  0.1039 -0.5246 -0.5022
  305MOL0     C40155   0.844  10.307   9.754 -0.2628 -0.2037 -0.3685
  305MOL0     C40156   0.755  10.415   9.763  0.2524 -0.0239 -0.8474
  305MOL0     C40157   0.614  10.392   9.804 -0.0670 -0.1690 -0.4709
  305MOL0     O40158   0.538  10.499   9.795 -0.9648 -0.7552  1.0084
  305MOL0     C40159   0.403  10.482   9.800  0.3844 -0.2175 -0.0158
  305MOL0     C40160   0.334  10.487   9.679  0.8531  0.7387 -0.5456
  305MOL0     C40161   0.195  10.489   9.680  0.3293 -0.2177  0.2387
  305MOL0     C40162   0.120  10.476   9.793  0.5263 -0.0320 -0.3288
  305MOL0     O40163  -0.020  10.482   9.793 -0.8529  1.0376  0.3932
  305MOL0     C40164  -0.106  10.465   9.906  0.2569  0.8324 -0.3396
  305MOL0     C40165  -0.256  10.499   9.880 -0.8165  0.4951 -0.2653
  305MOL0     C40166  -0.285  10.642   9.924 -0.7916 -0.9280  0.2218
  305MOL0     C40167  -0.428  10.688   9.903 -0.6062  0.2184 -0.9081
  305MOL0     C40168  -0.516  10.605   9.996 -0.1360 -0.2369 -0.1737
  305MOL0     C40169  -0.649  10.667  10.030  0.3940  0.4428 -0.5849
  305MOL0     C40170  -0.741  10.679   9.912 -0.6418  0.1407 -0.1256
  305MOL0     C40171  -0.881  10.731   9.960 -0.3295  0.7132  0.2670
  305MOL0    Cl40172  -0.980  10.766   9.812  0.3764 -0.0311  0.2289
  305MOL0     C40173   0.194  10.465   9.914  0.2671 -0.5873  0.4129
  305MOL0     C40174   0.336  10.474   9.911  1.3359  0.2074 -0.6736
  305MOL0     O40175   0.583  10.285   9.849 -0.4823  0.3350  0.0457
  305MOL0     C40176   0.793  10.542   9.715  0.1599  0.1128 -0.4173
  305MOL0     C40177   0.923  10.563   9.665 -0.3377 -0.1078 -0.8328
  305MOL0     N40178   1.773  10.421   9.423  0.5621  0.1239 -0.5673
  305MOL0     N40179   1.894  10.451   9.466  1.8124 -0.0207 -0.3769
  305MOL0     C40180   2.948  10.773   9.778 -1.2157 -0.7396  0.4547
  305MOL0     C40181   3.088  10.771   9.787  0.2381  1.1175  0.0847
  305MOL0     C40182   3.504  10.671   9.817  0.1167 -0.1405 -0.0181
  305MOL0     C40183   3.566  10.771   9.895 -0.0911 -0.2359  1.4261
  305MOL0     C40184   3.700  10.809   9.875  0.7509 -0.2874 -0.5032
  305MOL0     C40185   3.780  10.746   9.785 -0.1687 -0.1349 -0.0521
  305MOL0     O40186   3.908  10.776   9.759 -0.6673 -0.1396 -0.2359
  305MOL0     C40187   4.002  10.766   9.863 -0.0715  0.3387  0.4003
  305MOL0     C40188   4.061  10.622   9.859  0.2136  0.2297  0.3832
  305MOL0     C40189   4.178  10.594   9.763  0.9465 -0.0620  0.0562
  305MOL0     C40190   4.203  10.446   9.751 -0.1338 -1.6987 -0.2316
  305MOL0     C40191   4.255  10.379   9.867 -0.6558 -0.2569  0.5797
  305MOL0     C40192   4.277  10.324   9.974  0.3650  0.1711  0.2995
  305MOL0     C40193   3.714  10.650   9.709 -0.1364  0.1012 -0.6276
  305MOL0     C40194   3.580  10.610   9.721 -0.6565 -0.0641  0.5439
  305MOL0     H40195   3.107  10.602  10.086  1.0990  0.0811 -0.9545
  305MOL0     H40196   2.868  10.625  10.078  0.3912 -2.0606 -0.4394
  305MOL0     H40197   2.673  10.855   9.746 -1.1782  0.4978 -2.1778
  305MOL0     H40198   2.725  10.922   9.906 -1.5504 -0.5583  1.0078
  305MOL0     H40199   2.501  10.952   9.928  0.3379  0.0216 -2.6303
  305MOL0     H40200   2.519  10.796  10.009 -0.5135 -2.6085 -0.9783
  305MOL0     H40201   2.435  10.663   9.818 -2.0106 -0.7932 -2.1999
  305MOL0     H40202   2.453  10.804   9.714 -0.0757 -2.1114 -0.5841
  305MOL0     H40203   2.260  10.722   9.930  0.5960 -1.5707 -0.6822
  305MOL0     H40204   2.297  10.890   9.908 -0.9903 -1.3726  2.2240
  305MOL0     H40205   2.210  10.754   9.662  1.9900  2.2475 -0.0214
  305MOL0     H40206   2.174  10.914   9.709 -0.8799  0.3707 -0.6292
  305MOL0     H40207   1.993  10.858   9.865  0.0735 -1.7304  0.1387
  305MOL0     H40208   2.047  10.699   9.879 -0.2259  1.4331  2.0215
  305MOL0     H40209   1.835  10.743   9.724 -0.4718  0.2073 -0.1102
  305MOL0     H40210   1.960  10.776   9.603 -0.3307  1.0081  0.8882
  305MOL0     H40211   1.968  10.533   9.772  3.1219  1.6645  0.5813
  305MOL0     H40212   2.064  10.552   9.627 -1.2041  1.9014 -4.1937
  305MOL0     H40213   1.688  10.551   9.717 -1.7238  1.4339 -1.7103
  305MOL0     H40214   1.507  10.332   9.562 -3.8013 -0.5571 -1.8975
  305MOL0     H40215   1.534  10.379   9.389  3.7469  1.7185 -1.1441
  305MOL0     H40216   1.479  10.629   9.482 -1.0752  1.1609  0.6942
  305MOL0     H40217   1.432  10.532   9.628  3.1403 -1.6400  1.2356
  305MOL0     H40218   1.289  10.519   9.353  1.0210 -0.6222 -0.6034
  305MOL0     H40219   1.299  10.384   9.454  1.4151 -0.0435 -1.6679
  305MOL0     H40220   1.087  10.537   9.463  0.0711  3.0115 -2.2585
  305MOL0     H40221   1.190  10.644   9.549  1.0951 -0.9109 -3.8659
  305MOL0     H40222   1.049  10.248   9.735  1.3746  0.6105  0.3712
  305MOL0     H40223   0.815  10.206   9.783 -2.3688  0.8686  1.5892
  305MOL0     H40224   0.388  10.492   9.585  3.5244  0.0597  0.8208
  305MOL0     H40225   0.142  10.486   9.586 -0.4264 -1.4745  0.6677
  305MOL0     H40226  -0.064  10.523   9.989  1.9655  0.2993 -0.8043
  305MOL0     H40227  -0.105  10.358   9.930 -3.7385  0.7330 -0.0319
  305MOL0     H40228  -0.324  10.430   9.931 -2.1471  1.4524 -0.6780
  305MOL0     H40229  -0.266  10.482   9.773  1.2103 -0.4150 -0.3613
  305MOL0     H40230  -0.215  10.707   9.870 -0.9617 -0.3712  0.6651
  305MOL0     H40231  -0.260  10.659  10.029  1.1399  0.9876 -0.4876
  305MOL0     H40232  -0.447  10.794   9.923 -3.6734 -0.6170  1.3032
  305MOL0     H40233  -0.454  10.681   9.797 -0.2941  2.2990 -1.1562
  305MOL0     H40234  -0.470  10.595  10.094 -0.3621  0.6536  0.0371
  305MOL0     H40235  -0.525  10.502   9.961  1.9487 -0.6766  0.4756
  305MOL0     H40236  -0.649  10.761  10.085  1.6575 -0.1224  0.4399
  305MOL0     H40237  -0.704  10.600  10.097  0.4284 -1.5710 -2.4238
  305MOL0     H40238  -0.702  10.747   9.835  0.5097 -2.0106 -1.5331
  305MOL0     H40239  -0.736  10.581   9.865 -2.1220  0.6653 -1.4556
  305MOL0     H40240  -0.857  10.820  10.019  1.6516  0.7947 -0.5968
  305MOL0     H40241  -0.927  10.649  10.015  1.3844 -1.7756 -1.7716
  305MOL0     H40242   0.144  10.452  10.009  0.0466 -1.1862  0.2184
  305MOL0     H40243   0.378  10.457  10.010  1.3639 -0.7805 -0.8544
  305MOL0     H40244   0.748  10.640   9.732  2.9368  1.2205  1.1791
  305MOL0     H40245   0.930  10.668   9.641 -2.0068  0.1459 -0.3264
  305MOL0     H40246   2.911  10.824   9.689  0.0928 -1.0183 -0.2623
  305MOL0     H40247   3.146  10.805   9.701 -2.6674  0.4145 -2.3167
  305MOL0     H40248   3.511  10.798   9.984 -0.4810 -0.2007  1.1797
  305MOL0     H40249   3.739  10.869   9.957 -1.3282  1.7069 -0.8633
  305MOL0     H40250   3.953  10.788   9.958 -1.1006  3.8986 -0.8124
  305MOL0     H40251   4.084  10.838   9.861  2.3435 -2.1102 -3.3086
  305MOL0     H40252   4.111  10.612   9.955 -1.6625  1.1149  1.5157
  305MOL0     H40253   3.984  10.545   9.847  1.2865 -0.6233 -1.4632
  305MOL0     H40254   4.260  10.650   9.808 -0.6336  0.5611  2.3400
  305MOL0     H40255   4.151  10.640   9.667 -1.9713 -0.3584  0.6381
  305MOL0     H40256   4.106  10.402   9.724 -2.2356  1.6767  1.2243
  305MOL0     H40257   4.259  10.426   9.659 -0.8776 -1.0543 -0.8375
  305MOL0     H40258   4.281  10.295  10.077  0.2906  2.6542  1.0810
  305MOL0     H40259   3.769  10.589   9.637 -0.2496  1.4333 -1.8831
  305MOL0     H40260   3.541  10.529   9.660 -0.3246 -1.9941  2.7262
  306MOL0     O40261   1.138  10.452   2.042 -0.0791  0.0053 -0.4697
  306MOL0     C40262   1.233  10.421   2.120 -0.6229 -0.4092  0.3188
  306MOL0     O40263   1.231  10.431   2.257 -0.2547  0.3813  0.1229
  306MOL0     C40264   1.121  10.492   2.318  0.1367  0.3240  0.4986
  306MOL0     C40265   1.001  10.416   2.312  0.3421 -0.4719  0.6178
  306MOL0     C40266   0.887  10.463   2.383  0.0365 -1.0145  0.2846
  306MOL0     C40267   0.883  10.590   2.443  0.0356 -0.3782 -0.1808
  306MOL0     O40268   0.768  10.637   2.495 -0.5840  0.3398 -0.0212
  306MOL0     C40269   0.773  10.738   2.592  0.8023  0.6833 -0.1679
  306MOL0     C40270   0.632  10.759   2.659 -0.1793  1.1595 -0.0250
  306MOL0     C40271   0.523  10.796   2.560 -0.5927  0.0627 -0.4529
  306MOL0     C40272   0.389  10.844   2.631 -0.8598  0.2938  0.6259
  306MOL0     C40273   0.290  10.890   2.526 -0.2140  0.6464 -0.4086
  306MOL0     C40274   0.155  10.943   2.579 -0.5826  0.5289  0.1453
  306MOL0     C40275   0.070  11.023   2.484  0.0982  0.0118  0.2933
  306MOL0     C40276  -0.009  10.938   2.387  0.1916 -0.1409 -0.5286
  306MOL0     N40277  -0.076  11.015   2.284 -0.1810 -0.2475  0.1689
  306MOL0     C40278  -0.076  10.986   2.143  0.3943  0.4995 -0.4306
  306MOL0     C40279  -0.150  11.087   2.092  0.0742  0.1871  0.4789
  306MOL0     C40280  -0.178  11.115   1.937  0.4090  0.1586 -0.0720
  306MOL0     C40281  -0.324  11.159   1.919 -0.1594  1.0592 -0.8022
  306MOL0     C40282  -0.364  11.190   1.779  0.2626 -0.4514 -0.2381
  306MOL0     C40283  -0.521  11.220   1.768 -0.5700  0.0350 -0.1087
  306MOL0     O40284  -0.560  11.324   1.870  0.1990 -0.7762  0.6777
  306MOL0     C40285  -0.683  11.386   1.862 -1.3273  0.7569  0.5639
  306MOL0     C40286  -0.703  11.503   1.948  0.8214 -0.6867  0.6369
  306MOL0     C40287  -0.831  11.559   1.954 -0.5213 -0.2002  0.4104
  306MOL0     C40288  -0.933  11.504   1.880 -0.3931  0.4184 -0.3571
  306MOL0     C40289  -1.069  11.558   1.872 -0.6514 -0.6645 -1.0132
  306MOL0     O40290  -1.164  11.501   1.793  0.0143 -0.1706  1.0761
  306MOL0     C40291  -1.297  11.552   1.806 -0.3603  0.5326  0.3961
  306MOL0     C40292  -1.340  11.679   1.804  0.7002 -0.7494 -0.2700
  306MOL0     C40293  -1.481  11.712   1.812  0.0738 -0.1658 -0.5920
  306MOL0     C40294  -1.576  11.609   1.821  0.0394 -0.9251  0.5839
  306MOL0     O40295  -1.709  11.648   1.833  0.0498  1.3667 -1.0310
  306MOL0     C40296  -1.763  11.774   1.810 -0.1303 -0.0424  0.6266
  306MOL0     C40297  -1.917  11.768   1.846  0.5901  0.4035 -0.6737
  306MOL0     C40298  -1.996  11.663   1.758  0.5338 -0.3703 -1.7142
  306MOL0     C40299  -2.154  11.661   1.772 -0.1968 -0.2931 -0.5244
  306MOL0     C40300  -2.221  11.587   1.659 -0.1926  0.2491 -0.5424
  306MOL0     C40301  -2.384  11.589   1.659 -0.6159 -0.2065 -0.5234
  306MOL0     C40302  -2.448  11.640   1.785  0.4688 -0.1840 -0.8915
  306MOL0     C40303  -2.573  11.719   1.758  0.5208  0.0738  0.9626
  306MOL0    Cl40304  -2.527  11.860   1.644  0.1449 -0.1065 -0.0055
  306MOL0     C40305  -1.534  11.479   1.837  0.0124 -0.5812  0.6219
  306MOL0     C40306  -1.401  11.457   1.817  0.2395  0.3526 -0.0136
  306MOL0     O40307  -1.090  11.653   1.943  0.3776 -0.1567 -0.3412
  306MOL0     C40308  -0.920  11.382   1.803  0.5448 -0.4229 -0.0543
  306MOL0     C40309  -0.791  11.320   1.799  0.2084  0.5154  0.2220
  306MOL0     N40310  -0.203  11.161   2.203 -0.2004  0.0061  0.1934
  306MOL0     N40311  -0.146  11.125   2.312  0.8279  0.4919 -0.5403
  306MOL0     C40312   1.005  10.661   2.444  0.3367 -0.5783  0.5417
  306MOL0     C40313   1.119  10.611   2.388 -0.6360 -0.6302 -0.3898
  306MOL0     C40314   1.360  10.373   2.055  0.6748 -0.9350 -0.6492
  306MOL0     C40315   1.373  10.377   1.911  0.0354 -0.2728 -0.0216
  306MOL0     C40316   1.491  10.345   1.847 -0.9947 -0.3202  0.2050
  306MOL0     C40317   1.609  10.307   1.923  0.6790  0.4305  0.7232
  306MOL0     O40318   1.721  10.285   1.841  0.6114  0.4192  0.1382
  306MOL0     C40319   1.842  10.258   1.911 -0.4292 -0.3586  0.3642
  306MOL0     C40320   1.952  10.211   1.807 -0.2854  0.0578  0.1660
  306MOL0     C40321   1.907  10.074   1.751 -0.4907  0.2976 -0.3567
  306MOL0     C40322   2.006  10.028   1.639 -0.1213  0.5954  0.5871
  306MOL0     C40323   2.126   9.960   1.694 -1.2159  0.8628 -0.7302
  306MOL0     C40324   2.229   9.917   1.754 -0.8210 -0.2971 -0.0315
  306MOL0     C40325   1.592  10.299   2.060 -0.0683 -0.6696 -0.0602
  306MOL0     C40326   1.474  10.338   2.123 -0.2659 -0.3660 -0.3958
  306MOL0     H40327   0.994  10.330   2.246 -0.9911 -1.6171  2.1416
  306MOL0     H40328   0.787  10.419   2.388  0.0120 -1.0727 -0.5584
  306MOL0     H40329   0.806  10.832   2.547 -0.3849  1.0804 -0.2342
  306MOL0     H40330   0.856  10.712   2.659  1.6580  0.2949 -1.3304
  306MOL0     H40331   0.636  10.838   2.734 -1.1704  0.3306  0.9419
  306MOL0     H40332   0.596  10.673   2.717  1.2021  1.7932  1.8529
  306MOL0     H40333   0.508  10.703   2.504 -1.1211  0.8610 -1.6908
  306MOL0     H40334   0.575  10.866   2.493  2.5849 -0.9877  0.7362
  306MOL0     H40335   0.340  10.756   2.673 -1.0668 -1.1762 -2.3995
  306MOL0     H40336   0.401  10.913   2.715  1.2486 -1.2942  1.6961
  306MOL0     H40337   0.281  10.812   2.450  0.2575  1.9222 -1.8138
  306MOL0     H40338   0.332  10.980   2.480 -2.3373  1.6580 -0.4561
  306MOL0     H40339   0.190  11.003   2.664  4.8380 -1.2282 -0.4020
  306MOL0     H40340   0.109  10.847   2.603  2.8814 -1.3586 -0.0197
  306MOL0     H40341   0.004  11.087   2.544  0.6886  0.2266  0.7138
  306MOL0     H40342   0.130  11.098   2.432 -0.7975  1.2741  1.0333
  306MOL0     H40343  -0.080  10.894   2.458  0.2811 -0.4253 -0.6122
  306MOL0     H40344   0.056  10.869   2.333  1.0072  0.3927 -0.2392
  306MOL0     H40345  -0.028  10.907   2.087  0.7858  1.6756 -1.8281
  306MOL0     H40346  -0.149  11.024   1.884  0.4637  1.2041 -1.9629
  306MOL0     H40347  -0.110  11.195   1.905  1.8849 -0.5351  1.2274
  306MOL0     H40348  -0.336  11.249   1.981 -1.1072 -0.5527  1.4708
  306MOL0     H40349  -0.374  11.072   1.961  4.2367 -1.1974  0.3409
  306MOL0     H40350  -0.287  11.252   1.733  0.9657 -0.7653  0.4962
  306MOL0     H40351  -0.347  11.097   1.724  0.7893  0.1770 -1.1783
  306MOL0     H40352  -0.568  11.123   1.783 -1.2477  0.3629 -0.0975
  306MOL0     H40353  -0.551  11.250   1.667  1.7536  2.0823 -0.2929
  306MOL0     H40354  -0.617  11.537   2.004  0.1030 -1.3853  2.2361
  306MOL0     H40355  -0.834  11.653   2.010  0.0870  3.2430 -4.6631
  306MOL0     H40356  -1.268  11.760   1.795  0.8214 -0.2809  3.3898
  306MOL0     H40357  -1.505  11.818   1.809  2.2822  0.3982  0.0714
  306MOL0     H40358  -1.753  11.804   1.705  2.7223  0.3415  0.9433
  306MOL0     H40359  -1.707  11.846   1.870  1.2275 -2.4459  2.4424
  306MOL0     H40360  -1.958  11.868   1.832  0.2552  0.1171 -1.8279
  306MOL0     H40361  -1.917  11.730   1.949  0.5699 -0.5053 -0.9974
  306MOL0     H40362  -1.959  11.563   1.782 -3.4896 -1.6993 -0.1988
  306MOL0     H40363  -1.971  11.684   1.653  2.3750  5.4668 -0.5051
  306MOL0     H40364  -2.170  11.632   1.876  1.1976  1.5222  0.2470
  306MOL0     H40365  -2.183  11.766   1.764  5.4538  1.4806 -2.7611
  306MOL0     H40366  -2.200  11.483   1.684 -2.6365 -0.0181  0.7408
  306MOL0     H40367  -2.172  11.619   1.566  0.0128 -1.2693 -0.9750
  306MOL0     H40368  -2.418  11.485   1.652  0.5420 -0.6442  0.1138
  306MOL0     H40369  -2.416  11.640   1.568  0.0740  0.4890 -0.3877
  306MOL0     H40370  -2.473  11.551   1.844  3.0890 -1.8369 -2.0982
  306MOL0     H40371  -2.381  11.697   1.849 -3.4079  0.2019  3.3424
  306MOL0     H40372  -2.628  11.751   1.847 -0.0543  0.0276  0.6296
  306MOL0     H40373  -2.642  11.652   1.704  0.6716 -0.1028  0.9906
  306MOL0     H40374  -1.599  11.395   1.859 -0.4612  0.1231  2.0280
  306MOL0     H40375  -1.359  11.357   1.825  0.1775  0.1522 -1.8122
  306MOL0     H40376  -0.989  11.341   1.730  0.0326 -0.3262  0.3691
  306MOL0     H40377  -0.790  11.226   1.746  2.1919  0.4180  0.3683
  306MOL0     H40378   1.020  10.754   2.497  3.3308  0.3912 -1.7188
  306MOL0     H40379   1.212  10.663   2.406 -1.4184  0.0699  1.9413
  306MOL0     H40380   1.289  10.401   1.846  2.1403  1.0452 -2.4165
  306MOL0     H40381   1.500  10.352   1.739  1.8132  3.9797  0.4458
  306MOL0     H40382   1.828  10.176   1.983  0.2098 -2.7284 -2.0676
  306MOL0     H40383   1.880  10.343   1.968  2.4889 -1.8543  0.8506
  306MOL0     H40384   1.960  10.283   1.726 -2.5370 -1.9704 -2.0186
  306MOL0     H40385   2.047  10.196   1.859 -1.5628  0.0452  2.6578
  306MOL0     H40386   1.806  10.071   1.708 -0.4209  1.4308 -0.6476
  306MOL0     H40387   1.908  10.005   1.836 -1.8311 -0.0892 -0.6368
  306MOL0     H40388   1.943   9.955   1.589 -1.6810  0.7432  2.2122
  306MOL0     H40389   2.034  10.105   1.567  1.0147 -0.3891 -0.0573
  306MOL0     H40390   2.314   9.895   1.815 -1.6168  1.2928  1.7680
  306MOL0     H40391   1.677  10.266   2.120  0.7092  0.6648 -0.3773
  306MOL0     H40392   1.479  10.333   2.232  1.8189 -1.9990 -0.5013
  307MOL0     O40393   4.576   1.965   3.620 -0.6932 -1.1699  0.6592
  307MOL0     C40394   4.662   2.062   3.614  0.4166  0.1558  0.5362
  307MOL0     O40395   4.634   2.189   3.652  0.9317 -0.1062  0.3278
  307MOL0     C40396   4.508   2.227   3.678  0.3055 -0.5395  0.1606
  307MOL0     C40397   4.480   2.304   3.782 -0.3845 -0.6540 -0.3404
  307MOL0     C40398   4.350   2.366   3.801  0.4627  0.4586  0.7044
  307MOL0     C40399   4.250   2.347   3.716  0.6907 -0.0083 -0.0748
  307MOL0     O40400   4.133   2.416   3.739  0.1141  0.6488  0.5303
  307MOL0     C40401   4.034   2.399   3.626 -0.1461 -1.0838 -0.8089
  307MOL0     C40402   3.921   2.498   3.635  0.4016 -0.7432 -0.3420
  307MOL0     C40403   3.813   2.474   3.745 -0.8398 -0.7462 -0.7900
  307MOL0     C40404   3.693   2.560   3.717  0.6491 -0.3445  0.0648
  307MOL0     C40405   3.563   2.495   3.770 -0.5708  0.0742 -0.0355
  307MOL0     C40406   3.444   2.583   3.725 -0.6473  0.4646 -1.4987
  307MOL0     C40407   3.402   2.563   3.579  1.3835 -0.8570  0.6771
  307MOL0     C40408   3.285   2.664   3.532 -0.1568 -0.8865  0.0800
  307MOL0     N40409   3.158   2.659   3.608  0.5153  0.1802  0.0379
  307MOL0     C40410   3.043   2.614   3.546 -0.0684  0.4934 -0.3801
  307MOL0     C40411   2.959   2.612   3.648  0.1378  0.2003  0.7049
  307MOL0     C40412   2.814   2.578   3.624 -0.0945 -0.0902  0.0030
  307MOL0     C40413   2.797   2.431   3.580 -0.1776  0.3241  0.4679
  307MOL0     C40414   2.792   2.336   3.700  0.6031  0.2139 -0.4541
  307MOL0     C40415   2.918   2.338   3.796  0.2699  0.0067  0.4036
  307MOL0     O40416   2.941   2.215   3.869 -0.0095  0.3746 -0.5399
  307MOL0     C40417   2.840   2.172   3.951  0.6441 -0.5223  0.1279
  307MOL0     C40418   2.799   2.039   3.932  0.6220 -0.7203  0.4852
  307MOL0     C40419   2.684   1.987   3.996 -0.5059  0.0520  0.7102
  307MOL0     C40420   2.609   2.066   4.077  0.1644 -0.7839 -0.1652
  307MOL0     C40421   2.505   2.015   4.169  0.1417 -0.1558 -0.0723
  307MOL0     O40422   2.411   2.107   4.215 -0.1287  0.5676 -0.4190
  307MOL0     C40423   2.299   2.054   4.273  0.6731 -0.5508 -1.4492
  307MOL0     C40424   2.180   2.047   4.192 -0.5680 -0.1903  0.4290
  307MOL0     C40425   2.063   2.006   4.246  0.6446 -0.3998  0.1694
  307MOL0     C40426   2.064   1.948   4.375  0.1998 -0.0520  0.4315
  307MOL0     O40427   1.948   1.884   4.414 -0.2249 -0.8612 -0.9556
  307MOL0     C40428   1.958   1.771   4.500  0.1634 -0.2134 -0.7149
  307MOL0     C40429   1.809   1.722   4.519 -0.4602  0.3395  0.0451
  307MOL0     C40430   1.800   1.623   4.626 -0.0186  0.3916 -0.7957
  307MOL0     C40431   1.652   1.606   4.663 -0.4212 -0.0698 -0.4224
  307MOL0     C40432   1.619   1.478   4.733 -0.1028  0.0755 -1.0546
  307MOL0     C40433   1.471   1.468   4.783 -0.7961  0.3515 -0.3170
  307MOL0     C40434   1.437   1.325   4.846  0.1174  0.0051  0.2139
  307MOL0     C40435   1.497   1.309   4.991 -0.9292  0.7361  1.2812
  307MOL0    Cl40436   1.423   1.431   5.096 -0.3016 -0.0350  0.2211
  307MOL0     C40437   2.179   1.946   4.452 -0.5475 -0.3869 -0.2664
  307MOL0     C40438   2.300   2.008   4.405  0.1293 -0.1866 -0.7150
  307MOL0     O40439   2.492   1.892   4.180 -0.7701  0.0541 -0.2929
  307MOL0     C40440   2.649   2.200   4.089  0.2462 -0.4005 -0.1427
  307MOL0     C40441   2.764   2.256   4.031 -0.6302 -0.5746  0.6932
  307MOL0     N40442   3.018   2.686   3.753  0.0308  0.6037 -0.6761
  307MOL0     N40443   3.136   2.717   3.725  0.0466  0.8854  0.1534
  307MOL0     C40444   4.270   2.251   3.619 -0.2609  0.7663 -0.5045
  307MOL0     C40445   4.397   2.192   3.600 -0.9536 -0.5164  0.0645
  307MOL0     C40446   4.800   2.027   3.560  0.3138 -0.0763  0.3057
  307MOL0     C40447   4.900   2.117   3.558 -0.5650  0.5434  0.1091
  307MOL0     C40448   5.017   2.094   3.496  0.0604  0.5642 -0.7832
  307MOL0     C40449   5.054   1.966   3.443  0.5038  0.0387 -0.2687
  307MOL0     O40450   5.182   1.934   3.394 -0.2802  0.2770 -0.4209
  307MOL0     C40451   5.278   2.040   3.385  0.5510  0.1715 -1.0080
  307MOL0     C40452   5.414   1.983   3.341 -0.4425  0.0577 -0.6017
  307MOL0     C40453   5.475   1.888   3.446 -1.0788  0.1732  0.2134
  307MOL0     C40454   5.593   1.819   3.373 -0.5790  0.6120 -0.3342
  307MOL0     C40455   5.719   1.902   3.379  0.1997 -0.2263 -1.0397
  307MOL0     C40456   5.822   1.969   3.382 -0.0608  0.3979  0.0317
  307MOL0     C40457   4.955   1.864   3.456 -1.1064  0.6117 -0.1363
  307MOL0     C40458   4.829   1.897   3.506  0.4359  0.1458  0.3145
  307MOL0     H40459   4.552   2.325   3.860 -2.0004  0.7537  0.8373
  307MOL0     H40460   4.340   2.435   3.884  1.9807  1.0296  0.4375
  307MOL0     H40461   3.999   2.295   3.626  0.5683 -1.3502 -2.1189
  307MOL0     H40462   4.089   2.419   3.533  0.5767  0.9321 -0.0084
  307MOL0     H40463   3.865   2.508   3.541 -1.6010 -2.6674  0.5566
  307MOL0     H40464   3.964   2.599   3.634  1.9719 -1.3999 -1.5335
  307MOL0     H40465   3.860   2.503   3.839 -0.3153 -0.1095 -1.2425
  307MOL0     H40466   3.781   2.370   3.745  0.3881 -1.1980  1.8956
  307MOL0     H40467   3.686   2.661   3.759  0.5108 -0.4621  0.3321
  307MOL0     H40468   3.693   2.582   3.610  1.4383 -1.0516 -0.0892
  307MOL0     H40469   3.568   2.485   3.879 -0.6744  3.8900  0.4506
  307MOL0     H40470   3.551   2.391   3.739 -0.3962  0.4711 -1.5069
  307MOL0     H40471   3.460   2.686   3.756 -2.8634  0.4211  0.0163
  307MOL0     H40472   3.357   2.549   3.782  1.3152 -1.2998  0.6662
  307MOL0     H40473   3.491   2.574   3.517  0.5756  1.4882 -0.1789
  307MOL0     H40474   3.364   2.463   3.556  0.0404  0.3912 -3.3290
  307MOL0     H40475   3.277   2.635   3.427  3.2009 -0.8297 -0.3270
  307MOL0     H40476   3.316   2.769   3.532 -0.9585 -0.6409  0.6052
  307MOL0     H40477   3.022   2.569   3.449  1.1290 -3.5910  1.0630
  307MOL0     H40478   2.773   2.638   3.542 -1.6536 -2.6355 -1.2056
  307MOL0     H40479   2.765   2.597   3.720  0.8697  0.1197  0.4579
  307MOL0     H40480   2.884   2.411   3.517 -1.0909 -2.5899 -0.0048
  307MOL0     H40481   2.707   2.418   3.521  0.5785  1.0658 -0.9089
  307MOL0     H40482   2.700   2.360   3.753  1.0528 -0.5667  0.7470
  307MOL0     H40483   2.775   2.239   3.652 -0.0073  0.8886 -1.6471
  307MOL0     H40484   2.904   2.419   3.868  0.8900 -0.4082  0.9995
  307MOL0     H40485   3.007   2.361   3.736  1.1914 -1.7552  1.0177
  307MOL0     H40486   2.861   1.984   3.862  3.9732  0.9962  1.8804
  307MOL0     H40487   2.673   1.884   3.965  0.6986 -0.0230  0.4936
  307MOL0     H40488   2.183   2.087   4.091 -1.2666  0.2154  0.5580
  307MOL0     H40489   1.971   2.006   4.189  1.1849  2.8733 -0.8648
  307MOL0     H40490   1.978   1.804   4.602 -0.3303 -1.4715 -0.1986
  307MOL0     H40491   2.025   1.693   4.463  0.7188  0.5678 -1.3943
  307MOL0     H40492   1.783   1.674   4.424  2.1225  0.4077 -0.7555
  307MOL0     H40493   1.747   1.810   4.539 -0.0593 -0.0060  3.4486
  307MOL0     H40494   1.859   1.671   4.705  2.4954 -0.8865 -1.7901
  307MOL0     H40495   1.846   1.528   4.600  2.2601  0.9345  0.9146
  307MOL0     H40496   1.611   1.692   4.718 -2.0412 -0.8172 -0.3959
  307MOL0     H40497   1.594   1.605   4.570  0.6373  1.3507 -1.1395
  307MOL0     H40498   1.691   1.470   4.815 -0.5556  3.7035 -0.1117
  307MOL0     H40499   1.627   1.395   4.662 -1.6401 -0.1217 -1.0454
  307MOL0     H40500   1.399   1.503   4.708  0.5336  1.8127 -0.9666
  307MOL0     H40501   1.458   1.541   4.863 -1.0536 -1.0075  0.9257
  307MOL0     H40502   1.329   1.313   4.856  0.2599 -1.2442  0.3400
  307MOL0     H40503   1.468   1.248   4.776  0.2474 -2.2641  2.5997
  307MOL0     H40504   1.606   1.316   4.997 -0.6074 -2.8273  1.3991
  307MOL0     H40505   1.479   1.208   5.028 -0.0729  0.3559  0.6994
  307MOL0     H40506   2.172   1.894   4.547  0.1268  0.2727  0.1581
  307MOL0     H40507   2.386   2.023   4.469 -1.0618  0.1926  0.8707
  307MOL0     H40508   2.584   2.269   4.142  0.8953  1.0893 -1.2287
  307MOL0     H40509   2.797   2.359   4.038 -1.5248  0.1536 -3.2904
  307MOL0     H40510   4.190   2.217   3.555 -0.3175 -1.2704  0.5335
  307MOL0     H40511   4.406   2.117   3.522 -2.8551 -1.0421  0.3019
  307MOL0     H40512   4.880   2.207   3.615 -0.0235 -0.6235  2.2645
  307MOL0     H40513   5.092   2.172   3.501  1.3470 -0.7182  2.1208
  307MOL0     H40514   5.278   2.083   3.485  0.2380 -1.9313 -0.0550
  307MOL0     H40515   5.244   2.110   3.307  0.2351  0.4313 -0.6389
  307MOL0     H40516   5.388   1.922   3.253 -0.8949 -1.5971  0.6235
  307MOL0     H40517   5.488   2.062   3.324 -0.6458  0.2454 -0.6156
  307MOL0     H40518   5.405   1.813   3.485  0.6252 -2.4094 -1.3507
  307MOL0     H40519   5.512   1.948   3.529 -1.3969  0.3496  0.2271
  307MOL0     H40520   5.609   1.723   3.422  0.2803  0.8391 -0.1540
  307MOL0     H40521   5.574   1.785   3.271  1.6193  2.2035 -1.3597
  307MOL0     H40522   5.915   2.021   3.371 -0.7244  3.2179  4.8271
  307MOL0     H40523   4.983   1.769   3.411  0.5153  1.7684 -1.7196
  307MOL0     H40524   4.752   1.822   3.494  0.4451  0.3707 -1.4789
  308MOL0     O40525   8.239   3.840   9.663  0.1306 -0.0701 -0.0248
  308MOL0     C40526   8.343   3.771   9.662 -0.2148  0.6681  0.0326
  308MOL0     O40527   8.382   3.665   9.752  0.4230  0.3339 -0.4521
  308MOL0     C40528   8.325   3.668   9.874  0.6515  0.1138 -0.4336
  308MOL0     C40529   8.187   3.662   9.899 -0.4159  0.0298  0.5287
  308MOL0     C40530   8.131   3.670  10.024 -0.3211  0.8438  0.4917
  308MOL0     C40531   8.222   3.684  10.136 -0.4251  0.2069  0.2236
  308MOL0     O40532   8.161   3.686  10.259  0.0057  0.2111  0.1382
  308MOL0     C40533   8.231   3.653  10.374  0.5062 -0.0317 -0.1855
  308MOL0     C40534   8.133   3.648  10.492  0.1193 -0.5123  0.1422
  308MOL0     C40535   8.013   3.561  10.479  0.1689  0.3904 -0.3173
  308MOL0     C40536   7.932   3.556  10.612 -0.1937  0.6646 -0.0894
  308MOL0     C40537   7.786   3.508  10.591  0.4589  0.0688  0.1896
  308MOL0     C40538   7.771   3.361  10.572  0.8599  0.8089 -0.2740
  308MOL0     C40539   7.626   3.313  10.535  0.5371 -0.1625 -0.5699
  308MOL0     C40540   7.627   3.168  10.489  0.3600 -0.1565 -0.4983
  308MOL0     N40541   7.506   3.121  10.427  0.8249  0.0925  0.8674
  308MOL0     C40542   7.452   3.173  10.311  0.1933  0.4557 -0.6130
  308MOL0     C40543   7.350   3.094  10.273  0.2079  0.0098 -0.1406
  308MOL0     C40544   7.254   3.097  10.158  0.0857  0.0313 -0.1642
  308MOL0     C40545   7.189   3.229  10.153  0.3027 -0.1555 -0.6293
  308MOL0     C40546   7.101   3.243  10.278  1.0713 -0.0907  0.5487
  308MOL0     C40547   7.007   3.363  10.250  0.0193  0.3219 -0.2002
  308MOL0     O40548   6.944   3.409  10.367  0.0034  0.4871 -0.2365
  308MOL0     C40549   6.836   3.496  10.364  1.1494 -0.4552  0.2210
  308MOL0     C40550   6.762   3.505  10.482 -0.6338  0.5348 -0.2547
  308MOL0     C40551   6.652   3.598  10.490 -0.3550 -0.0350 -1.0841
  308MOL0     C40552   6.610   3.666  10.374 -0.4507  0.2750  0.4301
  308MOL0     C40553   6.495   3.762  10.387  0.2664 -0.6986 -0.1551
  308MOL0     O40554   6.416   3.774  10.503  0.3058  0.3631  0.6360
  308MOL0     C40555   6.299   3.846  10.518 -0.1014  0.0523  0.7077
  308MOL0     C40556   6.277   3.900  10.642 -0.1076 -0.4467 -0.1414
  308MOL0     C40557   6.159   3.964  10.677 -0.0604 -0.5274  0.7286
  308MOL0     C40558   6.066   3.982  10.571  0.7162 -0.5164 -0.0838
  308MOL0     O40559   5.959   4.058  10.591  1.0167 -0.7343 -0.0941
  308MOL0     C40560   5.839   3.982  10.577  0.7203  0.7926 -0.6119
  308MOL0     C40561   5.765   3.987  10.714  0.4632 -0.7591  0.4946
  308MOL0     C40562   5.616   4.037  10.700 -0.4425 -0.4722 -0.4280
  308MOL0     C40563   5.528   4.034  10.835 -0.8900 -0.0314 -0.0148
  308MOL0     C40564   5.376   4.047  10.806 -1.4157  0.6255 -0.0750
  308MOL0     C40565   5.310   3.937  10.730  0.3843  0.4528  0.6133
  308MOL0     C40566   5.156   3.931  10.739  0.2061 -0.5085  0.2921
  308MOL0     C40567   5.095   3.885  10.869 -0.6018  0.0766  0.0735
  308MOL0    Cl40568   4.912   3.869  10.876  0.1922 -0.3421  0.1383
  308MOL0     C40569   6.092   3.945  10.437 -0.5954 -0.5049  0.1083
  308MOL0     C40570   6.202   3.858  10.415 -0.0393 -0.1374 -0.9279
  308MOL0     O40571   6.478   3.827  10.286 -0.3996 -0.4411 -0.0174
  308MOL0     C40572   6.696   3.660  10.259 -0.2876  0.4479 -0.6916
  308MOL0     C40573   6.800   3.570  10.251  0.1620  0.2520 -0.1186
  308MOL0     N40574   7.333   3.000  10.377  0.3978 -0.0826 -0.1987
  308MOL0     N40575   7.417   3.021  10.464 -0.7365 -0.7926  0.5745
  308MOL0     C40576   8.361   3.686  10.112 -0.4365  0.6660 -0.0165
  308MOL0     C40577   8.411   3.685   9.983  0.3968  0.3721 -0.2417
  308MOL0     C40578   8.430   3.779   9.543  0.3860 -0.4165  0.4648
  308MOL0     C40579   8.501   3.664   9.498  0.4804  0.6352  0.3083
  308MOL0     C40580   8.585   3.664   9.391 -0.1407  0.9484  0.1329
  308MOL0     C40581   8.609   3.789   9.334  0.0045 -0.4085 -0.4703
  308MOL0     O40582   8.690   3.796   9.228 -0.0596  0.3693  0.3989
  308MOL0     C40583   8.810   3.880   9.261  0.4217  0.3528 -0.4202
  308MOL0     C40584   8.859   3.949   9.126 -0.0270  0.0285  0.1831
  308MOL0     C40585   8.964   3.865   9.041  0.9934 -0.3643 -0.3167
  308MOL0     C40586   8.913   3.735   8.984 -0.6563 -0.2440 -0.3955
  308MOL0     C40587   9.026   3.656   8.925 -0.5688 -1.1151 -0.2475
  308MOL0     C40588   9.107   3.583   8.878 -0.6605 -0.4692  0.1889
  308MOL0     C40589   8.534   3.900   9.366  0.0202  0.5588  0.0535
  308MOL0     C40590   8.445   3.892   9.467 -0.4535  0.1451 -0.7445
  308MOL0     H40591   8.119   3.646   9.816 -3.0183 -0.1954  2.5954
  308MOL0     H40592   8.024   3.661  10.040 -0.4750  1.5602 -0.0645
  308MOL0     H40593   8.302   3.731  10.402 -2.2815  1.7669  2.6709
  308MOL0     H40594   8.275   3.554  10.368  0.2384 -0.0905 -1.7488
  308MOL0     H40595   8.096   3.749  10.511 -3.0823 -1.1884 -1.7924
  308MOL0     H40596   8.190   3.599  10.572  1.8120  0.7875 -0.1958
  308MOL0     H40597   8.052   3.469  10.435 -1.7538  0.5145 -2.4554
  308MOL0     H40598   7.942   3.594  10.402 -0.9592 -0.9934  0.1012
  308MOL0     H40599   7.994   3.492  10.677  1.0311 -1.0881 -2.8033
  308MOL0     H40600   7.919   3.657  10.651 -0.8144  0.8764 -0.8445
  308MOL0     H40601   7.740   3.558  10.505 -2.7677 -0.8079  1.2489
  308MOL0     H40602   7.735   3.536  10.683  1.0535  2.4754 -0.1646
  308MOL0     H40603   7.788   3.310  10.667  4.5485 -0.0279 -1.2051
  308MOL0     H40604   7.843   3.316  10.503  2.1826 -1.1474  2.2246
  308MOL0     H40605   7.558   3.316  10.621  2.9730  2.4909  1.4503
  308MOL0     H40606   7.592   3.377  10.453  1.5033 -3.0177 -3.3629
  308MOL0     H40607   7.649   3.099  10.570  2.5360 -0.3651 -1.1873
  308MOL0     H40608   7.711   3.143  10.423 -0.4293 -1.3145 -1.1034
  308MOL0     H40609   7.485   3.251  10.243 -2.0108  1.7782 -0.2865
  308MOL0     H40610   7.193   3.007  10.171  2.5861 -1.7098  0.3099
  308MOL0     H40611   7.324   3.093  10.074  0.4421  2.6526 -0.0807
  308MOL0     H40612   7.124   3.229  10.065  1.9368 -3.1964 -1.9747
  308MOL0     H40613   7.259   3.312  10.142 -1.0020  1.5105  2.4375
  308MOL0     H40614   7.047   3.154  10.312  0.3870  0.6286  1.3802
  308MOL0     H40615   7.173   3.269  10.357  1.1291  0.8841  0.1928
  308MOL0     H40616   6.930   3.318  10.187  0.3963  1.3789 -1.4835
  308MOL0     H40617   7.062   3.441  10.196  0.0440  0.4135 -0.0439
  308MOL0     H40618   6.778   3.445  10.571 -0.8186  1.4202  0.3909
  308MOL0     H40619   6.597   3.613  10.582  1.1779  0.3306 -0.2078
  308MOL0     H40620   6.351   3.877  10.718 -3.0390 -2.9892  2.2443
  308MOL0     H40621   6.137   3.994  10.778  1.1213 -0.0193  0.8553
  308MOL0     H40622   5.839   3.874  10.560 -0.4388  0.5444  0.7705
  308MOL0     H40623   5.787   4.030  10.495  0.7473 -0.6370 -1.5016
  308MOL0     H40624   5.806   4.075  10.765 -1.4959  2.3297 -2.7546
  308MOL0     H40625   5.776   3.890  10.764  1.9950 -2.2280 -2.4621
  308MOL0     H40626   5.573   3.968  10.627  0.6034 -0.8889 -0.6730
  308MOL0     H40627   5.618   4.140  10.662  3.5857  0.5686  1.9823
  308MOL0     H40628   5.553   3.948  10.896  0.6470  0.5845  0.2700
  308MOL0     H40629   5.560   4.118  10.898 -0.9313 -1.0709  1.4333
  308MOL0     H40630   5.355   4.135  10.745 -1.8683 -0.9798 -2.3820
  308MOL0     H40631   5.335   4.051  10.907  0.0227 -0.8670  0.6310
  308MOL0     H40632   5.359   3.847  10.768  1.0310 -1.1367 -3.5420
  308MOL0     H40633   5.342   3.939  10.626  3.9082  0.7708  1.5971
  308MOL0     H40634   5.108   4.024  10.705 -1.6907 -1.3906  0.4085
  308MOL0     H40635   5.108   3.862  10.669 -2.3206 -2.0126  3.2563
  308MOL0     H40636   5.117   3.958  10.947 -0.6422  0.6490 -0.4451
  308MOL0     H40637   5.143   3.792  10.902  1.1004 -0.1106 -2.6294
  308MOL0     H40638   6.022   3.979  10.362 -0.0123  2.2042  0.6818
  308MOL0     H40639   6.215   3.815  10.316  0.8174 -0.4776 -0.6814
  308MOL0     H40640   6.668   3.716  10.170 -2.1393  0.6056 -0.0594
  308MOL0     H40641   6.868   3.557  10.167 -1.0813 -0.1652 -1.0895
  308MOL0     H40642   8.432   3.696  10.193 -3.1149  1.9701  2.3494
  308MOL0     H40643   8.520   3.684   9.978  0.5203 -0.8332  1.5779
  308MOL0     H40644   8.485   3.568   9.546 -1.4613  0.9725  0.4428
  308MOL0     H40645   8.637   3.578   9.349  1.4610  1.8199  0.2686
  308MOL0     H40646   8.895   3.835   9.312 -0.0308 -0.5387 -0.4381
  308MOL0     H40647   8.783   3.961   9.331 -0.5937 -0.0450 -0.3369
  308MOL0     H40648   8.779   3.993   9.065  0.5400 -0.7574 -1.1974
  308MOL0     H40649   8.919   4.031   9.165  1.1178  0.3589 -2.0629
  308MOL0     H40650   9.032   3.827   9.117 -2.4560  1.3855  4.1231
  308MOL0     H40651   9.008   3.929   8.964  1.0408  1.5406  1.2343
  308MOL0     H40652   8.862   3.690   9.070 -0.5707  2.5213  1.2267
  308MOL0     H40653   8.841   3.744   8.902 -0.7844  0.8633 -0.1763
  308MOL0     H40654   9.190   3.531   8.834  0.6932  2.2450 -0.7475
  308MOL0     H40655   8.536   3.996   9.316 -1.8321  1.0082  0.7856
  308MOL0     H40656   8.389   3.981   9.495 -0.4890  0.2383 -1.0984
  309MOL0     O40657   5.371   0.584   4.824 -0.0133 -0.5106 -0.2730
  309MOL0     C40658   5.389   0.527   4.719 -0.4549  0.5344 -0.5749
  309MOL0     O40659   5.495   0.533   4.639  0.0615 -0.3156 -0.0641
  309MOL0     C40660   5.586   0.634   4.664  0.3776 -0.5371 -0.4304
  309MOL0     C40661   5.699   0.602   4.735 -0.7397 -0.3021  0.0616
  309MOL0     C40662   5.803   0.693   4.742 -0.3084 -0.8727  1.1956
  309MOL0     C40663   5.798   0.818   4.674 -0.5393 -0.0026 -0.4171
  309MOL0     O40664   5.901   0.907   4.672 -0.1895  0.2059  0.1636
  309MOL0     C40665   5.926   0.955   4.811 -0.2447  0.5839 -0.1971
  309MOL0     C40666   5.990   1.092   4.798  1.1743  0.3489  0.8578
  309MOL0     C40667   5.868   1.197   4.779 -0.2772 -0.2414  0.2543
  309MOL0     C40668   5.905   1.333   4.735 -0.5784  0.5846 -0.0831
  309MOL0     C40669   5.786   1.422   4.719 -0.1567 -0.7496  0.0653
  309MOL0     C40670   5.805   1.566   4.755 -0.9402 -0.6200  0.3818
  309MOL0     C40671   5.688   1.663   4.729 -1.4256 -0.1331  0.0375
  309MOL0     C40672   5.580   1.649   4.842  0.0079 -0.0294 -0.4248
  309MOL0     N40673   5.514   1.777   4.864  0.1806 -0.0960  0.0094
  309MOL0     C40674   5.455   1.853   4.764  0.3270  0.4212 -0.1522
  309MOL0     C40675   5.427   1.967   4.822 -0.3924 -0.1383  0.9512
  309MOL0     C40676   5.343   2.083   4.769 -0.0712 -0.1029  0.0981
  309MOL0     C40677   5.190   2.053   4.794  0.3241 -0.0270 -0.6335
  309MOL0     C40678   5.150   2.073   4.935  0.0698 -1.0577 -0.0126
  309MOL0     C40679   5.017   2.020   4.954 -0.6047  0.6427 -0.0174
  309MOL0     O40680   4.930   2.071   4.857  0.4177  0.1949  0.7446
  309MOL0     C40681   4.791   2.062   4.878  0.4334  0.6632  0.1151
  309MOL0     C40682   4.708   2.148   4.808 -0.9847 -0.5909 -0.3068
  309MOL0     C40683   4.572   2.146   4.815  0.7488 -0.6337  0.2788
  309MOL0     C40684   4.510   2.048   4.895 -0.5633 -0.3877 -0.1315
  309MOL0     C40685   4.363   2.039   4.899  0.4339  0.3345  0.6598
  309MOL0     O40686   4.300   1.933   4.968  0.3315 -0.0586  0.5300
  309MOL0     C40687   4.161   1.921   4.958 -0.0659 -0.1308 -0.1717
  309MOL0     C40688   4.086   1.937   5.076 -0.2183  0.5425 -0.5112
  309MOL0     C40689   3.954   1.935   5.065  0.7568 -0.9280  0.1804
  309MOL0     C40690   3.883   1.903   4.936  0.2866  0.0441  0.0166
  309MOL0     O40691   3.745   1.894   4.931  0.4606 -0.0618 -0.3159
  309MOL0     C40692   3.676   1.826   4.834  0.4815  0.2134 -0.2347
  309MOL0     C40693   3.536   1.832   4.877  0.1063 -0.3488 -0.5778
  309MOL0     C40694   3.439   1.777   4.769  0.4352  0.4191  0.2558
  309MOL0     C40695   3.290   1.827   4.803  0.5716  0.3601  0.3120
  309MOL0     C40696   3.195   1.720   4.746 -0.2939  0.4471 -0.5438
  309MOL0     C40697   3.052   1.764   4.804 -0.2625  0.5882 -1.0063
  309MOL0     C40698   2.951   1.646   4.780 -0.5601  1.0877  0.1900
  309MOL0     C40699   2.811   1.682   4.828  0.0757 -0.4693 -0.5209
  309MOL0    Cl40700   2.800   1.728   4.997 -0.1015 -0.1680  0.1611
  309MOL0     C40701   3.960   1.879   4.823 -1.0158  0.4605  0.4626
  309MOL0     C40702   4.100   1.893   4.834  0.4405  0.2888  0.1065
  309MOL0     O40703   4.301   2.120   4.826  0.0225 -0.1771 -0.4812
  309MOL0     C40704   4.590   1.955   4.972 -0.3259  0.8301  0.1022
  309MOL0     C40705   4.734   1.964   4.961  0.6230  0.3462  0.0138
  309MOL0     N40706   5.486   1.961   4.949  0.4926  0.5458 -1.2632
  309MOL0     N40707   5.531   1.850   4.979 -0.0374  0.4931  0.3429
  309MOL0     C40708   5.680   0.843   4.607 -0.7488  0.8561  0.2672
  309MOL0     C40709   5.574   0.758   4.606  1.0458  0.2466 -0.3467
  309MOL0     C40710   5.283   0.434   4.681 -0.8924  0.4059  0.0673
  309MOL0     C40711   5.264   0.401   4.548 -0.3964 -0.1747 -0.0639
  309MOL0     C40712   5.145   0.343   4.502 -0.4414 -0.0229  0.3900
  309MOL0     C40713   5.039   0.314   4.589 -0.6784 -0.1015 -0.9349
  309MOL0     O40714   4.924   0.248   4.555 -0.3350  0.2626 -0.0317
  309MOL0     C40715   4.940   0.161   4.441  0.1510 -1.2856 -0.5284
  309MOL0     C40716   4.834   0.055   4.432 -0.2683 -0.4562  0.0529
  309MOL0     C40717   4.694   0.099   4.395 -0.2301 -0.4170 -0.3613
  309MOL0     C40718   4.675   0.138   4.239  0.5295 -0.0414 -0.8306
  309MOL0     C40719   4.551   0.204   4.200  0.3657 -0.6584 -0.3183
  309MOL0     C40720   4.462   0.275   4.161  0.3788  0.2866 -0.6202
  309MOL0     C40721   5.071   0.339   4.723  0.2762  0.5108 -0.2964
  309MOL0     C40722   5.186   0.395   4.769 -0.1227  0.9455 -0.2836
  309MOL0     H40723   5.709   0.501   4.773  0.6210  0.2846  1.3296
  309MOL0     H40724   5.892   0.669   4.800 -0.2213 -0.0718  1.4073
  309MOL0     H40725   5.993   0.884   4.860 -2.4696 -1.3268  0.2760
  309MOL0     H40726   5.837   0.963   4.875  2.4617  1.3314  3.8453
  309MOL0     H40727   6.065   1.092   4.718  2.1971 -2.7116  1.6835
  309MOL0     H40728   6.038   1.126   4.890  1.0869  1.2714  0.5709
  309MOL0     H40729   5.821   1.197   4.878  1.1306  1.2324  0.9669
  309MOL0     H40730   5.795   1.157   4.708  1.2528  0.1112 -1.5918
  309MOL0     H40731   5.954   1.370   4.825  2.3537 -0.7699 -0.9712
  309MOL0     H40732   5.981   1.340   4.656  3.0205 -0.3431  2.9801
  309MOL0     H40733   5.710   1.389   4.790  0.7779 -0.5544  1.1831
  309MOL0     H40734   5.745   1.419   4.618  0.0618  0.1264 -0.0648
  309MOL0     H40735   5.895   1.592   4.697 -0.6246 -2.3302  0.0478
  309MOL0     H40736   5.833   1.578   4.860 -1.6664 -0.7724  0.5966
  309MOL0     H40737   5.722   1.766   4.729 -1.3695 -0.1472  0.4366
  309MOL0     H40738   5.647   1.643   4.630 -2.0277 -2.1532  0.6266
  309MOL0     H40739   5.628   1.610   4.933 -0.4888 -1.9432 -0.9285
  309MOL0     H40740   5.493   1.586   4.820 -1.4571  0.4802  3.2472
  309MOL0     H40741   5.446   1.833   4.658  2.9830  2.6541 -0.9489
  309MOL0     H40742   5.359   2.103   4.663  1.7444 -2.6322 -0.2029
  309MOL0     H40743   5.374   2.173   4.822 -1.0706 -0.1175  0.7261
  309MOL0     H40744   5.164   1.952   4.763 -0.6530 -0.2236  0.6966
  309MOL0     H40745   5.133   2.121   4.730 -0.0608 -1.8957 -2.3609
  309MOL0     H40746   5.221   2.014   4.995 -0.6870  0.8683  3.0412
  309MOL0     H40747   5.164   2.178   4.964  0.3976 -1.5976  1.9289
  309MOL0     H40748   4.978   2.049   5.052 -3.2208  1.5670 -1.2342
  309MOL0     H40749   5.012   1.911   4.947 -2.7212  0.7883 -2.2251
  309MOL0     H40750   4.750   2.230   4.750  1.1563 -0.8875  0.7123
  309MOL0     H40751   4.512   2.209   4.751  0.8847 -1.3293 -0.5573
  309MOL0     H40752   4.143   1.978   5.159  0.7187 -1.2824 -0.1806
  309MOL0     H40753   3.881   1.948   5.144 -0.9000 -1.2302 -1.2314
  309MOL0     H40754   3.710   1.723   4.824  0.3808  0.0958  0.6045
  309MOL0     H40755   3.690   1.890   4.746 -3.1309  0.8870 -0.4883
  309MOL0     H40756   3.517   1.938   4.899  3.3154  0.4873 -1.2874
  309MOL0     H40757   3.525   1.773   4.968 -3.0073  2.6456  1.2562
  309MOL0     H40758   3.438   1.668   4.770  0.3843  0.4186  0.1229
  309MOL0     H40759   3.469   1.824   4.674  3.8662  0.3706  1.1780
  309MOL0     H40760   3.263   1.833   4.909 -0.5693  1.1634 -0.0054
  309MOL0     H40761   3.275   1.925   4.758  0.4966  0.1662 -0.0911
  309MOL0     H40762   3.225   1.623   4.785  0.3600  0.9312  0.1821
  309MOL0     H40763   3.198   1.727   4.637 -1.9287 -1.6611 -0.8002
  309MOL0     H40764   3.012   1.852   4.753 -2.2298  0.6182  0.4532
  309MOL0     H40765   3.058   1.788   4.911  0.0315  0.3788 -0.9752
  309MOL0     H40766   2.951   1.615   4.675  2.0793 -1.3214  0.7939
  309MOL0     H40767   2.974   1.554   4.835 -1.2500  0.8564  0.1124
  309MOL0     H40768   2.747   1.595   4.813 -1.0354 -0.5848  3.7090
  309MOL0     H40769   2.780   1.766   4.765 -0.6265  0.1630  0.6277
  309MOL0     H40770   3.914   1.847   4.730 -0.2148 -0.8438  0.4870
  309MOL0     H40771   4.147   1.876   4.738 -2.9635 -2.8503 -1.2130
  309MOL0     H40772   4.559   1.867   5.026  2.2408 -0.1681  0.1139
  309MOL0     H40773   4.803   1.894   5.008  0.3983 -0.3262 -0.6343
  309MOL0     H40774   5.663   0.934   4.550 -1.3661  2.8472  3.3902
  309MOL0     H40775   5.476   0.787   4.570  0.1711 -2.9661 -0.9197
  309MOL0     H40776   5.331   0.438   4.471 -0.0853  3.1419  1.6186
  309MOL0     H40777   5.136   0.322   4.396  2.5849 -3.6041  0.6138
  309MOL0     H40778   5.032   0.103   4.455  0.4043 -0.3672  2.4820
  309MOL0     H40779   4.938   0.215   4.346 -4.3590 -1.2928 -0.6721
  309MOL0     H40780   4.868  -0.023   4.363  0.0391 -0.8203  0.6033
  309MOL0     H40781   4.830   0.006   4.530  0.4801 -1.2373 -0.2890
  309MOL0     H40782   4.671   0.184   4.460 -2.9168 -1.2870 -0.0565
  309MOL0     H40783   4.620   0.021   4.416 -3.8910  3.2573  1.8874
  309MOL0     H40784   4.749   0.217   4.225 -1.0271  2.2471  2.4612
  309MOL0     H40785   4.691   0.052   4.174  0.6784 -0.8665  0.2528
  309MOL0     H40786   4.384   0.346   4.144  0.0731  0.3038  0.7446
  309MOL0     H40787   4.989   0.309   4.787  2.2212  1.1561  2.7200
  309MOL0     H40788   5.208   0.416   4.873  2.9772  3.1089 -1.2541
  310MOL0     O40789  10.182   8.859   5.967  0.6034  0.1695 -0.6877
  310MOL0     C40790  10.267   8.773   5.944  0.0971 -0.2235 -0.0077
  310MOL0     O40791  10.235   8.643   5.933 -0.5027  0.8477 -0.1004
  310MOL0     C40792  10.107   8.597   5.943 -0.5464  0.4862  0.3522
  310MOL0     C40793  10.042   8.567   5.824  0.2676 -0.5419 -0.1923
  310MOL0     C40794   9.905   8.528   5.822  0.3461  0.3410 -0.8532
  310MOL0     C40795   9.833   8.510   5.943  0.3295 -0.5574 -0.5757
  310MOL0     O40796   9.703   8.472   5.936  0.1032  0.4511  0.2540
  310MOL0     C40797   9.608   8.501   6.046 -0.6072  0.1909 -0.1671
  310MOL0     C40798   9.475   8.431   6.003  0.8663  0.5349  0.1118
  310MOL0     C40799   9.395   8.510   5.903  0.1940  0.6356  0.5794
  310MOL0     C40800   9.271   8.429   5.866 -0.1068  0.4214  0.7763
  310MOL0     C40801   9.194   8.493   5.754 -0.0472 -0.3957 -0.4610
  310MOL0     C40802   9.084   8.404   5.706  0.1391  0.6881 -0.1228
  310MOL0     C40803   9.009   8.477   5.582 -0.1820  0.1016 -0.0420
  310MOL0     C40804   8.865   8.427   5.565 -0.2965  0.6226 -0.0761
  310MOL0     N40805   8.863   8.300   5.491 -0.2142  0.4588  0.1639
  310MOL0     C40806   8.808   8.184   5.533 -0.1350  0.2959 -0.7172
  310MOL0     C40807   8.822   8.101   5.427 -0.3266  0.8687  0.1376
  310MOL0     C40808   8.790   7.950   5.419 -0.3361 -0.3188 -0.5642
  310MOL0     C40809   8.851   7.874   5.535  0.1471 -0.4079 -0.1474
  310MOL0     C40810   8.998   7.829   5.517 -0.3033  0.0872 -0.6166
  310MOL0     C40811   9.016   7.713   5.420 -0.1193 -0.1783  0.9880
  310MOL0     O40812   9.148   7.651   5.432  0.4264  0.0528  0.3309
  310MOL0     C40813   9.263   7.705   5.377  0.2186 -0.1791 -0.6334
  310MOL0     C40814   9.377   7.640   5.414  0.5477 -0.3177 -0.3219
  310MOL0     C40815   9.502   7.680   5.386 -0.7956 -0.6101  0.7390
  310MOL0     C40816   9.522   7.787   5.296  0.5104 -0.6384 -0.4289
  310MOL0     C40817   9.643   7.857   5.270  0.3724 -0.1895  0.6165
  310MOL0     O40818   9.656   7.954   5.175  0.5294  0.4603 -0.1116
  310MOL0     C40819   9.786   8.007   5.171  0.9164 -0.3122  0.2583
  310MOL0     C40820   9.897   7.955   5.107 -1.2147 -0.3338  0.1734
  310MOL0     C40821  10.012   8.031   5.110 -0.0960 -0.5561 -0.1013
  310MOL0     C40822  10.011   8.162   5.170 -0.1339  0.6229 -0.3341
  310MOL0     O40823  10.117   8.241   5.159 -0.9789  0.5010  0.3724
  310MOL0     C40824  10.224   8.207   5.246 -0.2582  0.4410  0.8221
  310MOL0     C40825  10.348   8.144   5.167 -0.4511 -0.4315 -0.4401
  310MOL0     C40826  10.419   8.253   5.083 -1.0680  0.4258  0.5585
  310MOL0     C40827  10.536   8.201   5.007  0.0914  0.2396  1.1423
  310MOL0     C40828  10.624   8.323   4.952  0.1144 -0.2629  0.7079
  310MOL0     C40829  10.746   8.280   4.871 -0.2401  0.2527 -0.4771
  310MOL0     C40830  10.853   8.208   4.960 -1.1918 -0.4871  0.1492
  310MOL0     C40831  10.990   8.189   4.894 -0.0162 -0.7914 -0.7274
  310MOL0    Cl40832  10.977   8.071   4.760 -0.4143 -0.2654  0.4982
  310MOL0     C40833   9.900   8.205   5.236  0.3288  0.3013  0.3085
  310MOL0     C40834   9.783   8.132   5.226 -0.1952 -0.3801  0.2037
  310MOL0     O40835   9.734   7.820   5.338 -0.0802  0.7802  0.5736
  310MOL0     C40836   9.402   7.846   5.235  0.1690 -0.8335 -0.0865
  310MOL0     C40837   9.275   7.797   5.271 -0.7413 -0.5967 -0.3860
  310MOL0     N40838   8.886   8.172   5.323  0.6651 -0.1518  0.1105
  310MOL0     N40839   8.906   8.297   5.365  0.0721 -0.3150  0.2011
  310MOL0     C40840   9.898   8.540   6.063 -0.3700  0.2289 -0.5052
  310MOL0     C40841  10.040   8.585   6.065  0.4350 -0.5148 -0.4807
  310MOL0     C40842  10.411   8.807   5.966 -0.2894 -0.3209  0.7092
  310MOL0     C40843  10.509   8.710   5.948 -0.9520  0.6071  0.0740
  310MOL0     C40844  10.649   8.750   5.939  0.2784 -0.3925 -0.1426
  310MOL0     C40845  10.691   8.886   5.962  0.5859 -0.1110  0.2342
  310MOL0     O40846  10.821   8.911   5.984 -0.0799 -0.9055  0.6135
  310MOL0     C40847  10.869   9.048   5.990  0.8302 -0.1853 -0.5866
  310MOL0     C40848  11.016   9.056   6.008  0.3272 -0.1511  0.1485
  310MOL0     C40849  11.073   9.202   6.014 -0.2776  0.1113  0.0831
  310MOL0     C40850  11.216   9.215   6.050  0.9120  0.2842 -0.4392
  310MOL0     C40851  11.246   9.167   6.184  0.0070  1.0528  0.4517
  310MOL0     C40852  11.296   9.140   6.291  0.2497  0.9722 -0.4775
  310MOL0     C40853  10.590   8.974   5.974  0.1479 -0.5143 -0.2454
  310MOL0     C40854  10.453   8.940   5.972 -0.4072 -0.3137 -0.7653
  310MOL0     H40855  10.095   8.574   5.729 -1.9996  2.0906 -1.4201
  310MOL0     H40856   9.855   8.513   5.727  0.8171 -1.5509 -0.8362
  310MOL0     H40857   9.605   8.610   6.063 -0.4687 -0.2393  3.3762
  310MOL0     H40858   9.649   8.453   6.135  2.4255 -0.3088 -1.7061
  310MOL0     H40859   9.421   8.420   6.097  1.4380 -0.0610  0.3786
  310MOL0     H40860   9.487   8.329   5.966 -1.2409 -0.9395  3.0739
  310MOL0     H40861   9.453   8.522   5.811 -0.8303  0.4889 -0.0968
  310MOL0     H40862   9.371   8.608   5.947 -0.2077  0.6729  0.2882
  310MOL0     H40863   9.313   8.334   5.832 -0.0775  0.1713  1.5079
  310MOL0     H40864   9.217   8.400   5.956  2.4851 -0.8101  2.0414
  310MOL0     H40865   9.253   8.539   5.674 -0.1233 -1.6093 -1.2371
  310MOL0     H40866   9.137   8.574   5.800  0.8533  0.5494 -0.9576
  310MOL0     H40867   9.017   8.374   5.787  0.1527  1.0466  0.0216
  310MOL0     H40868   9.125   8.306   5.676 -0.4629  0.9114 -1.7981
  310MOL0     H40869   9.018   8.586   5.586 -1.2216  0.1914  0.2020
  310MOL0     H40870   9.072   8.449   5.498 -0.9516 -2.2923  0.1242
  310MOL0     H40871   8.803   8.496   5.507 -1.7997 -0.5186  0.1044
  310MOL0     H40872   8.822   8.418   5.666  0.7853 -0.9329  0.2821
  310MOL0     H40873   8.772   8.177   5.636 -0.8993  1.3208 -0.9043
  310MOL0     H40874   8.832   7.909   5.326  0.3469 -0.2925 -0.2749
  310MOL0     H40875   8.682   7.936   5.419 -0.4356  0.3652 -1.4559
  310MOL0     H40876   8.796   7.779   5.542 -0.6820  0.1172  0.6200
  310MOL0     H40877   8.838   7.931   5.628 -1.9985 -1.1372  0.0569
  310MOL0     H40878   9.058   7.915   5.484 -0.3896  0.5072  0.2837
  310MOL0     H40879   9.035   7.814   5.619  0.9242  3.4241 -0.4602
  310MOL0     H40880   9.005   7.735   5.313  0.5564  4.0729  1.6453
  310MOL0     H40881   8.938   7.639   5.440  1.5384 -2.2833  0.0930
  310MOL0     H40882   9.358   7.561   5.486  0.1072 -0.5382 -0.6749
  310MOL0     H40883   9.591   7.625   5.416 -0.2859 -0.6485 -0.7622
  310MOL0     H40884   9.893   7.855   5.064  0.6875 -0.3992  0.0661
  310MOL0     H40885  10.096   7.998   5.050  1.5686 -1.3102  2.4897
  310MOL0     H40886  10.186   8.151   5.332  1.5047 -0.1278  1.2703
  310MOL0     H40887  10.261   8.302   5.286  2.7721  0.6768 -2.0309
  310MOL0     H40888  10.320   8.066   5.096  1.5506 -0.6029 -1.1295
  310MOL0     H40889  10.425   8.108   5.237  0.6035  1.4409 -0.5545
  310MOL0     H40890  10.467   8.322   5.154  0.6268 -1.4103  1.3217
  310MOL0     H40891  10.347   8.301   5.017 -0.1397 -0.3364 -1.0670
  310MOL0     H40892  10.602   8.142   5.072  0.2842 -2.6520 -1.4203
  310MOL0     H40893  10.505   8.135   4.925  2.4642  1.5939 -1.0093
  310MOL0     H40894  10.657   8.383   5.036 -1.9876 -0.1800  1.5373
  310MOL0     H40895  10.564   8.386   4.886  0.4063  0.5998  1.2575
  310MOL0     H40896  10.787   8.363   4.813  0.1376 -1.6952 -3.1931
  310MOL0     H40897  10.717   8.208   4.794  4.0485 -0.1065 -2.0081
  310MOL0     H40898  10.863   8.270   5.050 -2.4143  0.8109 -0.5714
  310MOL0     H40899  10.807   8.111   4.979 -0.6296 -1.3103 -2.4238
  310MOL0     H40900  11.044   8.148   4.980  0.5981 -1.6161 -1.4927
  310MOL0     H40901  11.030   8.288   4.870 -3.0894  0.6867 -0.2426
  310MOL0     H40902   9.909   8.307   5.274  2.0720  1.4930 -2.9006
  310MOL0     H40903   9.691   8.178   5.262  0.5490  1.2664  0.0580
  310MOL0     H40904   9.392   7.910   5.148  0.3063  0.3988  0.7792
  310MOL0     H40905   9.187   7.812   5.209  0.0631  0.1715 -1.3713
  310MOL0     H40906   9.844   8.532   6.157  1.5515  2.1991  0.8776
  310MOL0     H40907  10.088   8.615   6.157  1.7937 -0.4833 -1.1708
  310MOL0     H40908  10.484   8.604   5.959 -0.2434  0.4657  0.3727
  310MOL0     H40909  10.722   8.671   5.921 -2.2350 -3.2162  1.1198
  310MOL0     H40910  10.824   9.112   6.067  0.6899 -0.9392 -0.0284
  310MOL0     H40911  10.838   9.101   5.899  1.3221  1.4651  0.1510
  310MOL0     H40912  11.032   9.011   6.107 -2.1648 -0.8857  0.2896
  310MOL0     H40913  11.060   8.995   5.929 -1.1397 -1.9880  0.6978
  310MOL0     H40914  11.011   9.262   6.081  0.8934 -0.2539  1.5351
  310MOL0     H40915  11.052   9.245   5.915 -1.7639  0.6028  0.5839
  310MOL0     H40916  11.294   9.171   5.987  2.4627  2.6912 -0.3364
  310MOL0     H40917  11.245   9.320   6.049  3.2789 -0.2476  1.9830
  310MOL0     H40918  11.322   9.114   6.392 -2.7173  0.7388  0.3236
  310MOL0     H40919  10.612   9.075   6.006 -2.2268  0.7308 -2.1508
  310MOL0     H40920  10.380   9.018   5.988  0.8469  1.3389 -2.6583
  311MOL0     O40921   2.199   3.882   1.783  0.2662 -0.3367 -0.1406
  311MOL0     C40922   2.142   3.775   1.804 -0.5620  0.4690 -0.4297
  311MOL0     O40923   2.188   3.651   1.766 -0.3251 -0.2681  0.3486
  311MOL0     C40924   2.312   3.638   1.707 -0.7173  0.3265 -0.2638
  311MOL0     C40925   2.422   3.587   1.782 -0.5160 -0.3397  0.4963
  311MOL0     C40926   2.560   3.584   1.735  0.3306 -0.5833  0.0346
  311MOL0     C40927   2.583   3.616   1.609 -0.3206 -0.2422  0.2346
  311MOL0     O40928   2.714   3.639   1.580  0.6302 -0.3169 -0.9025
  311MOL0     C40929   2.757   3.650   1.441 -0.1931 -0.6552 -0.4216
  311MOL0     C40930   2.726   3.513   1.379  0.8110  0.1172  1.2813
  311MOL0     C40931   2.774   3.494   1.234 -0.4107 -0.1985 -0.8885
  311MOL0     C40932   2.737   3.607   1.139  0.3298 -0.1545 -0.4863
  311MOL0     C40933   2.792   3.596   1.000 -0.0955 -0.1032 -0.7859
  311MOL0     C40934   2.753   3.698   0.897 -1.5151  0.0133 -0.7222
  311MOL0     C40935   2.603   3.715   0.866 -0.6079  0.0423  0.2412
  311MOL0     C40936   2.529   3.600   0.804  0.0626  0.3070 -0.7993
  311MOL0     N40937   2.402   3.640   0.741 -0.2320 -0.1912  0.3475
  311MOL0     C40938   2.368   3.668   0.611 -0.6806 -0.3752  0.1489
  311MOL0     C40939   2.229   3.671   0.613 -0.5288 -0.3197 -0.4885
  311MOL0     C40940   2.149   3.724   0.504  0.1503  0.0267  0.8283
  311MOL0     C40941   2.023   3.802   0.551 -0.2189 -0.7626  0.7304
  311MOL0     C40942   1.950   3.868   0.437 -0.4509  0.2661  0.2909
  311MOL0     C40943   1.830   3.935   0.499 -1.0158  0.2844  0.2398
  311MOL0     O40944   1.743   3.963   0.386  0.5597 -0.0542 -0.5249
  311MOL0     C40945   1.616   3.995   0.427 -0.1653 -0.2788  0.2681
  311MOL0     C40946   1.577   4.022   0.555  0.0811 -1.1849  0.0894
  311MOL0     C40947   1.452   4.070   0.582  0.5480 -0.2599  1.2251
  311MOL0     C40948   1.354   4.081   0.481 -0.0672 -0.5777  0.6141
  311MOL0     C40949   1.215   4.126   0.508 -0.9118  1.6323  0.6809
  311MOL0     O40950   1.173   4.147   0.637 -0.7528 -0.6368 -0.1382
  311MOL0     C40951   1.045   4.200   0.647 -0.3421  0.2665  0.2918
  311MOL0     C40952   0.933   4.119   0.623 -0.8292  0.2183  0.1454
  311MOL0     C40953   0.801   4.167   0.660  0.0504  0.1521  0.0496
  311MOL0     C40954   0.786   4.287   0.728  0.2365 -0.0353  0.0146
  311MOL0     O40955   0.657   4.318   0.767 -0.7042 -0.1116 -0.0656
  311MOL0     C40956   0.652   4.395   0.891 -0.0346  0.3407  0.4465
  311MOL0     C40957   0.512   4.402   0.953 -0.5592 -0.3902  0.2358
  311MOL0     C40958   0.409   4.294   0.924 -0.2751 -0.5460  0.4459
  311MOL0     C40959   0.452   4.143   0.943  0.5676  0.4368 -0.1532
  311MOL0     C40960   0.316   4.066   0.943 -0.2686  0.1834 -0.2516
  311MOL0     C40961   0.256   4.044   1.077 -0.4787 -0.4360  0.7601
  311MOL0     C40962   0.137   3.947   1.078 -0.0828 -0.4898  0.3174
  311MOL0     C40963   0.051   3.954   1.200  0.0187  0.2182 -1.1254
  311MOL0    Cl40964   0.128   3.901   1.356  0.0051  0.8287  0.4234
  311MOL0     C40965   0.900   4.361   0.753 -0.1586 -0.0364 -0.4640
  311MOL0     C40966   1.023   4.324   0.721 -0.3863  0.4076  0.1664
  311MOL0     O40967   1.144   4.133   0.406 -0.7108  0.3946  0.3907
  311MOL0     C40968   1.388   4.040   0.354 -0.4017  0.9149 -0.5578
  311MOL0     C40969   1.518   4.001   0.332 -1.1482 -0.0484  0.8822
  311MOL0     N40970   2.178   3.647   0.744  0.1317  0.3751  0.2343
  311MOL0     N40971   2.288   3.625   0.802 -0.0470 -0.1109  0.3493
  311MOL0     C40972   2.478   3.659   1.520 -0.0616  0.4235  0.2415
  311MOL0     C40973   2.345   3.673   1.572  0.5819  0.4811  0.2937
  311MOL0     C40974   2.008   3.779   1.855 -0.2048  0.5811 -0.7001
  311MOL0     C40975   1.948   3.898   1.888 -0.0177 -0.0317 -0.0132
  311MOL0     C40976   1.821   3.892   1.951 -0.2772 -0.7794  0.2979
  311MOL0     C40977   1.755   3.771   1.969 -0.1259 -0.2663 -0.6249
  311MOL0     O40978   1.630   3.755   2.020  0.4275 -0.6495 -0.0485
  311MOL0     C40979   1.528   3.861   2.015  0.0975 -0.0139  0.3685
  311MOL0     C40980   1.525   3.916   2.154  0.6651 -0.4650 -1.6170
  311MOL0     C40981   1.446   3.831   2.254  0.7662  0.1940 -0.2231
  311MOL0     C40982   1.303   3.792   2.204 -0.5154 -0.2480 -0.6801
  311MOL0     C40983   1.197   3.773   2.310 -0.1156 -0.7407 -0.0612
  311MOL0     C40984   1.103   3.768   2.384  0.0080  0.1428 -0.5244
  311MOL0     C40985   1.820   3.654   1.939  0.2260  0.5540  0.9389
  311MOL0     C40986   1.948   3.651   1.890  0.2852  0.7134  0.7646
  311MOL0     H40987   2.407   3.543   1.880 -0.8570 -1.8048 -0.1841
  311MOL0     H40988   2.630   3.547   1.808 -0.0552 -0.7643  0.3182
  311MOL0     H40989   2.861   3.683   1.434 -0.9676  2.0072 -0.6736
  311MOL0     H40990   2.710   3.733   1.387  2.2978  0.4319 -1.0577
  311MOL0     H40991   2.618   3.500   1.376  0.6457  1.4407  0.3567
  311MOL0     H40992   2.770   3.430   1.434  0.4955 -2.2461 -1.7406
  311MOL0     H40993   2.730   3.403   1.194 -1.5784  1.3153 -3.2393
  311MOL0     H40994   2.882   3.478   1.231 -0.5820 -1.9271  0.5163
  311MOL0     H40995   2.628   3.607   1.128  0.3530 -0.5421 -0.7393
  311MOL0     H40996   2.753   3.708   1.180  0.3397 -0.3279 -0.0558
  311MOL0     H40997   2.775   3.496   0.960  1.7438 -1.4074  1.4549
  311MOL0     H40998   2.901   3.610   1.007 -0.0478 -1.1763  1.8349
  311MOL0     H40999   2.803   3.678   0.802 -1.9121 -3.2957 -0.3287
  311MOL0     H41000   2.785   3.790   0.948 -2.9960  0.4584 -0.5447
  311MOL0     H41001   2.557   3.725   0.965  1.0978 -2.3735  1.3815
  311MOL0     H41002   2.587   3.809   0.812 -0.0550  0.4319  0.7417
  311MOL0     H41003   2.513   3.528   0.885  1.0478  0.2161 -0.6769
  311MOL0     H41004   2.591   3.545   0.732  1.2130 -0.9713  1.0846
  311MOL0     H41005   2.429   3.682   0.522 -0.7087  2.7701  0.5243
  311MOL0     H41006   2.127   3.645   0.431 -1.4291  0.3264  0.9434
  311MOL0     H41007   2.213   3.792   0.447 -1.7435  0.1226 -1.3529
  311MOL0     H41008   2.061   3.859   0.636  1.0273 -1.6537  0.8053
  311MOL0     H41009   1.950   3.740   0.605 -1.0099  1.2356  2.0984
  311MOL0     H41010   2.022   3.936   0.389  1.5589 -1.0547  1.2983
  311MOL0     H41011   1.921   3.786   0.372 -0.9279  0.3579  0.3848
  311MOL0     H41012   1.870   4.020   0.554 -1.2201  0.3954  0.2205
  311MOL0     H41013   1.783   3.870   0.573 -0.1562  0.1269  0.6501
  311MOL0     H41014   1.643   4.034   0.640  0.4309  4.0865 -0.6261
  311MOL0     H41015   1.413   4.088   0.682 -1.7783 -2.8380  0.9022
  311MOL0     H41016   0.954   4.022   0.581  1.0329  0.4819  0.3860
  311MOL0     H41017   0.713   4.109   0.636 -0.6015  0.8556  0.6772
  311MOL0     H41018   0.691   4.497   0.878 -2.3772  1.1036 -1.1508
  311MOL0     H41019   0.717   4.353   0.968  0.0610  0.4803  0.4434
  311MOL0     H41020   0.477   4.500   0.918 -0.9749 -0.8498 -0.6706
  311MOL0     H41021   0.528   4.420   1.060  0.9646  0.3619 -0.0909
  311MOL0     H41022   0.364   4.315   0.827  1.8460  0.1167 -0.4677
  311MOL0     H41023   0.328   4.306   0.996 -1.2271 -0.1761 -0.6627
  311MOL0     H41024   0.518   4.097   0.870  1.9000 -0.6376  1.6625
  311MOL0     H41025   0.501   4.123   1.039 -0.4775 -0.3628  0.2387
  311MOL0     H41026   0.342   3.972   0.893  2.0441 -0.3422  1.7822
  311MOL0     H41027   0.239   4.117   0.885 -0.9010  1.6906  1.8013
  311MOL0     H41028   0.219   4.141   1.110  1.8238  1.2668 -1.2923
  311MOL0     H41029   0.335   4.018   1.147  0.1251  1.4689  0.8363
  311MOL0     H41030   0.064   3.962   0.998 -0.5707  1.5083  1.0846
  311MOL0     H41031   0.178   3.845   1.071  1.6803  0.2559 -0.9760
  311MOL0     H41032  -0.038   3.892   1.186 -0.0078 -0.2552  0.8152
  311MOL0     H41033   0.008   4.054   1.214 -0.2125  0.0088 -0.2753
  311MOL0     H41034   0.895   4.455   0.808 -1.6465  1.1596 -2.4878
  311MOL0     H41035   1.105   4.388   0.754 -0.4458  1.2372 -1.2232
  311MOL0     H41036   1.327   4.051   0.265 -1.3929  2.5129  0.2840
  311MOL0     H41037   1.537   3.987   0.226  0.4333 -0.8293  1.2310
  311MOL0     H41038   2.492   3.692   1.418  1.8711  1.0366  0.6700
  311MOL0     H41039   2.272   3.700   1.497 -0.6040 -0.8768  0.8928
  311MOL0     H41040   2.002   3.992   1.887 -1.7008  1.0279  1.7476
  311MOL0     H41041   1.774   3.981   1.991  2.9770 -0.1192  3.2104
  311MOL0     H41042   1.434   3.816   1.981 -0.5617  1.7119 -0.1934
  311MOL0     H41043   1.554   3.936   1.939  0.4284 -1.4994 -1.0516
  311MOL0     H41044   1.626   3.925   2.197  0.4935 -4.0815 -0.0640
  311MOL0     H41045   1.483   4.017   2.150 -0.9672 -1.0109  0.1115
  311MOL0     H41046   1.440   3.890   2.346  1.2365  0.5029 -0.3864
  311MOL0     H41047   1.504   3.741   2.277  1.7371  1.0342  0.7667
  311MOL0     H41048   1.259   3.851   2.123  1.1710  3.0873  0.6480
  311MOL0     H41049   1.324   3.694   2.160  0.8479 -0.0603 -0.4876
  311MOL0     H41050   1.029   3.763   2.462  1.6993  2.9389  1.4224
  311MOL0     H41051   1.777   3.555   1.948 -0.0156  0.6276  0.6243
  311MOL0     H41052   1.995   3.557   1.863  0.7598  1.3769 -0.9128
  312MOL0     O41053   5.506   0.190   4.044  0.7777  0.0151  0.5683
  312MOL0     C41054   5.501   0.238   4.155  0.3392 -0.3089  0.6059
  312MOL0     O41055   5.394   0.241   4.231 -0.0447 -0.4990 -0.2885
  312MOL0     C41056   5.277   0.193   4.181 -0.2846  0.2133  0.9358
  312MOL0     C41057   5.244   0.059   4.175  0.8589  0.3570  0.0759
  312MOL0     C41058   5.118   0.009   4.125 -0.3032  0.0535  0.3511
  312MOL0     C41059   5.023   0.102   4.073  0.0557 -0.4257 -0.2085
  312MOL0     O41060   4.907   0.053   4.024  0.3560 -0.3055 -0.7020
  312MOL0     C41061   4.829   0.137   3.940  0.0845 -0.2368 -0.2146
  312MOL0     C41062   4.742   0.041   3.856  0.3124 -0.0442 -0.1669
  312MOL0     C41063   4.594   0.077   3.856 -0.3087 -0.6019  0.3798
  312MOL0     C41064   4.514  -0.029   3.775 -0.2907  0.0673 -0.3539
  312MOL0     C41065   4.358   0.007   3.774  0.0693 -0.2216 -0.1842
  312MOL0     C41066   4.286  -0.039   3.906 -0.1728  0.1502 -0.4859
  312MOL0     C41067   4.136  -0.005   3.895  0.1007 -0.2385 -0.1614
  312MOL0     C41068   4.059  -0.037   4.029 -0.4598 -0.4680  1.3212
  312MOL0     N41069   3.915  -0.002   4.019  0.3727 -0.0404 -0.2394
  312MOL0     C41070   3.859   0.121   3.978 -0.2374 -0.0226 -0.4289
  312MOL0     C41071   3.741   0.084   3.919 -0.0825 -0.9810  1.1299
  312MOL0     C41072   3.641   0.175   3.843 -0.1575  1.1097 -1.3801
  312MOL0     C41073   3.690   0.316   3.804 -0.3716 -0.1954  0.0772
  312MOL0     C41074   3.579   0.401   3.740  0.1580 -0.6490 -0.0970
  312MOL0     C41075   3.447   0.413   3.819 -0.7781 -0.6124  0.6022
  312MOL0     O41076   3.386   0.537   3.782 -0.4224  0.1727 -0.3794
  312MOL0     C41077   3.260   0.547   3.826  0.1800 -0.0992 -0.0474
  312MOL0     C41078   3.141   0.539   3.738 -0.5171  0.1411  0.0931
  312MOL0     C41079   3.015   0.560   3.785  0.6188 -0.1129  0.1611
  312MOL0     C41080   2.993   0.589   3.922 -1.5001 -0.2280 -0.1329
  312MOL0     C41081   2.860   0.612   3.983  0.7449  0.6938  1.4398
  312MOL0     O41082   2.753   0.582   3.908  0.6831  0.2452 -0.3455
  312MOL0     C41083   2.624   0.608   3.961 -0.1094 -0.1087 -0.1529
  312MOL0     C41084   2.584   0.736   3.984 -0.3905 -0.8281 -0.6400
  312MOL0     C41085   2.460   0.757   4.055 -0.7098  0.0781 -0.0415
  312MOL0     C41086   2.380   0.651   4.089  0.3589 -0.1612  0.3584
  312MOL0     O41087   2.256   0.673   4.141  0.4288 -0.4009 -0.0449
  312MOL0     C41088   2.249   0.728   4.273  1.1831 -0.1613  0.3208
  312MOL0     C41089   2.202   0.879   4.274  0.1134 -0.0183  1.1442
  312MOL0     C41090   2.053   0.897   4.282  0.1760  0.8082  0.1610
  312MOL0     C41091   1.970   0.840   4.159  1.2919 -0.4176 -0.2020
  312MOL0     C41092   1.818   0.854   4.196 -0.2440  0.0031  0.4896
  312MOL0     C41093   1.726   0.816   4.080 -0.7164  0.7458  0.1254
  312MOL0     C41094   1.578   0.820   4.130  0.3333  0.0614  0.2401
  312MOL0     C41095   1.531   0.960   4.147 -0.2143 -0.8772 -0.0474
  312MOL0    Cl41096   1.361   0.952   4.168  0.2643  0.1620  0.2235
  312MOL0     C41097   2.420   0.521   4.050 -0.7119 -0.5992  0.6415
  312MOL0     C41098   2.543   0.494   3.987  1.1617 -0.5306 -0.2961
  312MOL0     O41099   2.858   0.640   4.104 -0.3248  0.4784  0.1402
  312MOL0     C41100   3.105   0.606   4.008  1.8337  0.7818  0.5691
  312MOL0     C41101   3.237   0.576   3.961  0.2009  0.3413 -0.1093
  312MOL0     N41102   3.721  -0.055   3.941  0.2272  0.1117  0.4677
  312MOL0     N41103   3.829  -0.104   3.997  0.7671  0.3686 -0.3132
  312MOL0     C41104   5.066   0.241   4.082 -0.4906 -0.5642  0.4380
  312MOL0     C41105   5.188   0.286   4.128  0.3479  0.8607 -0.3990
  312MOL0     C41106   5.626   0.293   4.211 -0.3442  0.2118 -0.1910
  312MOL0     C41107   5.626   0.359   4.334 -0.1025 -0.0840 -0.1204
  312MOL0     C41108   5.735   0.427   4.378 -0.2279  0.1644  0.5707
  312MOL0     C41109   5.853   0.433   4.300 -0.3288 -0.7524 -0.1131
  312MOL0     O41110   5.968   0.491   4.348 -0.2693 -0.0385 -0.1702
  312MOL0     C41111   5.974   0.545   4.483  0.0711  0.7049 -0.1358
  312MOL0     C41112   6.097   0.628   4.511  0.0957  0.3871 -0.4706
  312MOL0     C41113   6.106   0.749   4.406 -0.3544  0.0161  0.4725
  312MOL0     C41114   6.255   0.798   4.421 -0.4670  0.1935  0.4108
  312MOL0     C41115   6.288   0.837   4.554  0.0566 -0.6489 -0.4653
  312MOL0     C41116   6.312   0.884   4.667  0.1412 -0.6037  1.2796
  312MOL0     C41117   5.856   0.374   4.175 -0.4755 -0.0484  0.2223
  312MOL0     C41118   5.742   0.299   4.133  0.2669  0.3218 -0.9702
  312MOL0     H41119   5.312  -0.000   4.236  0.6349  2.4677  2.5135
  312MOL0     H41120   5.102  -0.096   4.101  3.8665 -0.7370  0.2955
  312MOL0     H41121   4.900   0.177   3.868  0.5607  0.8714  0.8324
  312MOL0     H41122   4.777   0.221   3.988 -1.4271 -0.8033 -0.7898
  312MOL0     H41123   4.753  -0.066   3.877 -0.4271 -0.1593 -0.3206
  312MOL0     H41124   4.772   0.049   3.751 -0.1126  0.4211 -0.2578
  312MOL0     H41125   4.577   0.176   3.812  3.1056 -0.9046 -2.0979
  312MOL0     H41126   4.553   0.089   3.956 -3.3289 -1.0768 -0.7041
  312MOL0     H41127   4.550  -0.025   3.672  0.7714 -2.9761 -0.1821
  312MOL0     H41128   4.533  -0.134   3.797 -0.8775 -0.0916 -0.5847
  312MOL0     H41129   4.316  -0.040   3.684  2.6956 -2.1917 -0.5010
  312MOL0     H41130   4.351   0.115   3.766 -0.4114 -0.2050  0.3802
  312MOL0     H41131   4.333   0.002   3.996 -2.1614 -0.8098  1.0744
  312MOL0     H41132   4.296  -0.148   3.916  0.8851 -0.0631 -3.0763
  312MOL0     H41133   4.140   0.104   3.884  4.5609 -0.0391  1.4501
  312MOL0     H41134   4.076  -0.051   3.816 -0.9471  1.5587 -0.4810
  312MOL0     H41135   4.103   0.019   4.111  1.8536 -0.3261  0.0719
  312MOL0     H41136   4.075  -0.145   4.040  3.8961 -0.1874 -0.1962
  312MOL0     H41137   3.899   0.222   3.982 -0.3771  0.1338 -2.2667
  312MOL0     H41138   3.557   0.176   3.913  1.5659 -1.0991  0.9141
  312MOL0     H41139   3.615   0.112   3.758  1.0032 -0.5276 -0.5915
  312MOL0     H41140   3.772   0.302   3.733  0.0301 -0.8638  0.6599
  312MOL0     H41141   3.728   0.372   3.890  0.1442  0.9246 -0.8448
  312MOL0     H41142   3.614   0.505   3.741 -1.8989  0.1506 -2.2141
  312MOL0     H41143   3.560   0.371   3.637 -1.5571  0.8100 -0.2547
  312MOL0     H41144   3.470   0.409   3.926 -1.0080 -1.7266  0.6172
  312MOL0     H41145   3.389   0.322   3.801 -2.4793 -0.1804  3.2943
  312MOL0     H41146   3.145   0.522   3.631  0.0437 -1.5283  0.3581
  312MOL0     H41147   2.926   0.568   3.724  2.0639  0.0739 -2.0496
  312MOL0     H41148   2.635   0.828   3.954 -2.1395  0.3724 -0.0614
  312MOL0     H41149   2.423   0.853   4.090 -2.9081 -1.2127  1.4721
  312MOL0     H41150   2.344   0.721   4.325  0.8472 -3.4439  0.7369
  312MOL0     H41151   2.182   0.669   4.337 -0.3569 -0.8646 -1.8010
  312MOL0     H41152   2.231   0.918   4.176 -0.4838  0.9668  1.3446
  312MOL0     H41153   2.257   0.933   4.352  0.6867 -0.7538  1.2554
  312MOL0     H41154   2.043   1.006   4.283 -0.9331  0.7228 -0.6522
  312MOL0     H41155   2.011   0.863   4.377 -0.2482  1.4468  0.2075
  312MOL0     H41156   1.997   0.908   4.078  0.6923 -2.2518 -2.0355
  312MOL0     H41157   1.996   0.735   4.144  0.3680 -0.8035  0.8025
  312MOL0     H41158   1.804   0.961   4.217 -1.5725 -0.2246  0.8915
  312MOL0     H41159   1.809   0.797   4.289  0.4125  0.7544  1.0278
  312MOL0     H41160   1.749   0.713   4.051 -2.8139 -0.2817  1.7950
  312MOL0     H41161   1.737   0.881   3.993  0.6768  2.4269  1.5004
  312MOL0     H41162   1.523   0.780   4.044 -0.8909  0.4638  0.8113
  312MOL0     H41163   1.553   0.753   4.213  1.1185 -0.3711  0.1339
  312MOL0     H41164   1.551   1.020   4.058 -1.2167 -1.1516 -0.4712
  312MOL0     H41165   1.571   1.009   4.237 -0.8142 -1.2573  0.4380
  312MOL0     H41166   2.345   0.453   4.087 -1.8360  0.3487  0.1608
  312MOL0     H41167   2.590   0.401   3.958 -0.1897 -0.5467 -2.6635
  312MOL0     H41168   3.101   0.620   4.116  2.3208 -0.0943  0.7102
  312MOL0     H41169   3.320   0.594   4.029 -1.3116 -2.9148  2.8829
  312MOL0     H41170   5.004   0.316   4.032  0.8368  1.2989  1.4432
  312MOL0     H41171   5.212   0.387   4.158 -2.3949  0.9165  2.0574
  312MOL0     H41172   5.531   0.347   4.386 -1.3754 -2.5520 -2.7304
  312MOL0     H41173   5.735   0.466   4.479  1.4163 -0.7158  0.9411
  312MOL0     H41174   5.966   0.462   4.553 -0.5908 -0.0740 -1.1018
  312MOL0     H41175   5.886   0.609   4.494  1.5806  3.3690 -2.3728
  312MOL0     H41176   6.080   0.671   4.610 -0.8747 -1.7909  0.3560
  312MOL0     H41177   6.179   0.556   4.515  0.7415  1.1460  1.2938
  312MOL0     H41178   6.034   0.824   4.440 -0.2264  0.5804 -0.4608
  312MOL0     H41179   6.086   0.709   4.307  0.4013 -2.6736  1.3167
  312MOL0     H41180   6.320   0.715   4.392 -1.7269  0.0060 -2.1044
  312MOL0     H41181   6.271   0.879   4.349 -1.0860  0.8048  0.9474
  312MOL0     H41182   6.325   0.930   4.762  2.7554 -1.7031  1.5207
  312MOL0     H41183   5.942   0.395   4.112 -1.2165 -1.0793 -1.1895
  312MOL0     H41184   5.741   0.271   4.028  1.9220 -2.9358 -0.2614
  313MOL0     O41185   4.864   6.208   8.734  0.7236 -0.4161  0.1261
  313MOL0     C41186   4.952   6.134   8.782  0.7006 -0.0606 -0.1850
  313MOL0     O41187   4.928   6.012   8.824  0.0186 -0.3350  0.4838
  313MOL0     C41188   4.830   5.935   8.766  0.7988  0.5279  0.2484
  313MOL0     C41189   4.787   5.826   8.841  0.0185 -0.4919  0.5626
  313MOL0     C41190   4.686   5.743   8.796  0.0801  0.0897  0.7178
  313MOL0     C41191   4.633   5.749   8.664 -1.2669 -0.0609  0.5446
  313MOL0     O41192   4.540   5.672   8.601 -0.2768 -0.2986  0.0393
  313MOL0     C41193   4.514   5.548   8.662  0.1083  0.1257 -0.3723
  313MOL0     C41194   4.454   5.437   8.577 -0.4012 -0.8673  0.3448
  313MOL0     C41195   4.331   5.484   8.504 -1.2645 -0.4339 -0.0252
  313MOL0     C41196   4.294   5.361   8.414 -0.2863 -0.2252 -0.6658
  313MOL0     C41197   4.175   5.405   8.330 -0.2304 -0.1080  0.7217
  313MOL0     C41198   4.218   5.495   8.211  0.1963  0.2848  0.0339
  313MOL0     C41199   4.093   5.527   8.114 -0.3506 -0.4344 -0.4325
  313MOL0     C41200   4.038   5.399   8.056 -0.3437 -0.5077 -0.2731
  313MOL0     N41201   4.138   5.324   7.982  0.0241 -0.5151 -0.5021
  313MOL0     C41202   4.198   5.370   7.867  0.1543 -0.5058 -0.4561
  313MOL0     C41203   4.250   5.260   7.814 -0.4656  0.2757  0.2650
  313MOL0     C41204   4.344   5.249   7.690  0.6718  0.2755 -0.5229
  313MOL0     C41205   4.268   5.242   7.556  0.1722  0.0583 -0.4742
  313MOL0     C41206   4.348   5.175   7.444 -0.6960  0.2586 -0.6096
  313MOL0     C41207   4.286   5.183   7.299  0.0610 -0.8619 -1.0664
  313MOL0     O41208   4.272   5.325   7.254 -0.0735 -0.6960 -1.1339
  313MOL0     C41209   4.157   5.368   7.199 -0.7748 -0.5785 -0.2016
  313MOL0     C41210   4.080   5.291   7.111 -0.2146  0.0652 -0.0484
  313MOL0     C41211   3.959   5.344   7.063  1.3765 -0.5605 -0.6692
  313MOL0     C41212   3.918   5.478   7.091 -0.4237  0.8031  0.4141
  313MOL0     C41213   3.783   5.525   7.040 -0.7697  0.2730 -0.1795
  313MOL0     O41214   3.736   5.645   7.081  0.3061  0.3037 -0.0198
  313MOL0     C41215   3.620   5.700   7.029  0.1656  0.1143 -0.0662
  313MOL0     C41216   3.536   5.766   7.122 -0.2172 -0.4201  0.9903
  313MOL0     C41217   3.411   5.818   7.081 -0.3020  0.3340 -1.0632
  313MOL0     C41218   3.367   5.804   6.945 -0.0486 -0.8369  0.6423
  313MOL0     O41219   3.252   5.841   6.886  0.0910  0.0808 -0.4728
  313MOL0     C41220   3.147   5.891   6.972  0.2310 -0.8063 -0.5702
  313MOL0     C41221   3.021   5.931   6.897  0.3844 -0.9046 -0.7809
  313MOL0     C41222   3.048   6.041   6.793 -0.1173  0.1340 -0.0290
  313MOL0     C41223   2.920   6.093   6.725 -0.3303  0.0298 -0.6432
  313MOL0     C41224   2.853   5.994   6.632  0.2119  1.0459  0.5669
  313MOL0     C41225   2.720   6.046   6.592 -0.1824 -0.2062  0.3294
  313MOL0     C41226   2.659   5.961   6.482 -0.2175  0.0374  1.1288
  313MOL0     C41227   2.502   5.946   6.487  0.1672  0.6874 -0.8405
  313MOL0    Cl41228   2.430   6.103   6.481 -0.1385  0.0567 -0.0034
  313MOL0     C41229   3.451   5.741   6.859  0.1681  1.2978 -0.2197
  313MOL0     C41230   3.569   5.679   6.903 -0.5882 -0.1528 -0.1523
  313MOL0     O41231   3.725   5.444   6.973  0.0244  0.1060  0.2638
  313MOL0     C41232   3.998   5.556   7.174  0.0368  0.0541  0.9316
  313MOL0     C41233   4.118   5.500   7.219  0.1767  0.6299 -0.0952
  313MOL0     N41234   4.227   5.147   7.897  0.0599 -0.3401 -0.9318
  313MOL0     N41235   4.168   5.188   7.996  0.4774  0.4193  0.1522
  313MOL0     C41236   4.682   5.859   8.587 -0.8219  0.8416 -0.2564
  313MOL0     C41237   4.774   5.948   8.643  0.3477 -0.2914  0.2063
  313MOL0     C41238   5.090   6.165   8.772  0.5773  0.0099  0.3107
  313MOL0     C41239   5.191   6.064   8.781 -0.7918 -0.9212  0.8748
  313MOL0     C41240   5.324   6.099   8.755 -0.0681  0.2586 -0.4564
  313MOL0     C41241   5.355   6.228   8.717 -0.2814 -0.4793 -0.1192
  313MOL0     O41242   5.481   6.263   8.673 -0.5404  0.0749 -0.6221
  313MOL0     C41243   5.579   6.163   8.645 -0.3639 -0.9439 -0.6786
  313MOL0     C41244   5.674   6.130   8.762 -0.2399  0.2824  0.1709
  313MOL0     C41245   5.734   6.261   8.834  0.0784 -0.6513 -1.0955
  313MOL0     C41246   5.803   6.206   8.963  0.3148  0.2415 -0.5063
  313MOL0     C41247   5.919   6.127   8.931 -0.7401  1.1178 -0.8517
  313MOL0     C41248   6.015   6.058   8.899  0.1345  0.5072 -0.5039
  313MOL0     C41249   5.263   6.336   8.735 -0.1273  0.3015  0.4112
  313MOL0     C41250   5.133   6.297   8.764 -0.5290  0.2808  0.0945
  313MOL0     H41251   4.818   5.818   8.944  0.6151 -3.1911  0.2452
  313MOL0     H41252   4.643   5.668   8.861 -1.4220 -0.7435 -1.1469
  313MOL0     H41253   4.450   5.555   8.750 -2.9675 -1.9471 -2.2310
  313MOL0     H41254   4.610   5.504   8.687 -0.4318 -0.2921  1.0744
  313MOL0     H41255   4.427   5.360   8.649 -1.4068 -1.9363 -1.1218
  313MOL0     H41256   4.533   5.396   8.513 -0.6393  0.9503 -1.2133
  313MOL0     H41257   4.354   5.569   8.440 -0.2358 -0.7230 -0.0464
  313MOL0     H41258   4.266   5.517   8.587  1.7805  2.5352  1.4228
  313MOL0     H41259   4.377   5.318   8.357 -0.1527 -3.8448  1.9178
  313MOL0     H41260   4.268   5.284   8.488  0.9291 -1.3784 -1.3955
  313MOL0     H41261   4.094   5.445   8.391 -1.6407 -1.5105 -0.1457
  313MOL0     H41262   4.136   5.309   8.294  0.6999 -0.2355 -0.0010
  313MOL0     H41263   4.304   5.465   8.151  1.8847  2.9267  0.9356
  313MOL0     H41264   4.256   5.591   8.248  0.4760  0.4714 -0.7210
  313MOL0     H41265   4.017   5.582   8.170 -0.6990  0.9206 -2.1541
  313MOL0     H41266   4.125   5.597   8.037  0.8772  2.7492  2.6749
  313MOL0     H41267   3.952   5.419   7.992 -1.0002 -1.8707  0.1598
  313MOL0     H41268   4.002   5.354   8.149 -1.0683  2.5909  1.0873
  313MOL0     H41269   4.189   5.472   7.832 -0.3438 -0.2527  0.3916
  313MOL0     H41270   4.393   5.151   7.700 -0.2707 -0.0983  0.6299
  313MOL0     H41271   4.408   5.337   7.686 -0.9076  1.4682 -0.5158
  313MOL0     H41272   4.246   5.341   7.516 -4.7797  0.1389  1.7118
  313MOL0     H41273   4.173   5.190   7.569 -0.0534  0.2568 -1.2885
  313MOL0     H41274   4.449   5.217   7.442 -0.1783 -0.6072  2.3175
  313MOL0     H41275   4.363   5.071   7.474 -1.5715  0.0593 -0.8358
  313MOL0     H41276   4.189   5.132   7.298 -1.2435  1.4965 -1.9658
  313MOL0     H41277   4.359   5.134   7.233  0.6130  0.6177 -1.5840
  313MOL0     H41278   4.122   5.191   7.100  1.1900  0.2554  2.7769
  313MOL0     H41279   3.904   5.273   7.002  2.5542 -1.1514 -1.0810
  313MOL0     H41280   3.580   5.782   7.220  2.9615  2.0130 -0.6683
  313MOL0     H41281   3.351   5.866   7.157 -0.3686 -0.4578 -0.6051
  313MOL0     H41282   3.184   5.983   7.018  2.1930 -2.7929  2.1124
  313MOL0     H41283   3.119   5.818   7.048 -1.4698 -0.6482 -0.9970
  313MOL0     H41284   2.951   5.959   6.976  1.5086  0.6736 -0.3004
  313MOL0     H41285   2.973   5.850   6.840 -0.0573  0.9103 -3.1393
  313MOL0     H41286   3.102   5.983   6.717 -0.0133 -1.8409  1.4774
  313MOL0     H41287   3.118   6.112   6.840  0.5902 -0.7848  0.3387
  313MOL0     H41288   2.854   6.120   6.808  2.3902  1.5253  1.1922
  313MOL0     H41289   2.939   6.185   6.670 -1.7075 -0.3782 -1.8725
  313MOL0     H41290   2.836   5.899   6.685  0.1585  0.9750  0.4255
  313MOL0     H41291   2.916   5.975   6.545 -2.0669 -1.4123 -0.7178
  313MOL0     H41292   2.726   6.151   6.562 -0.4094  0.2274  1.7268
  313MOL0     H41293   2.650   6.049   6.677 -0.7192 -3.1257  0.1242
  313MOL0     H41294   2.681   6.005   6.384 -1.4633 -0.3916  0.6383
  313MOL0     H41295   2.706   5.862   6.474  0.5811  0.5769 -3.3232
  313MOL0     H41296   2.470   5.907   6.584  1.4252  2.2532  0.2690
  313MOL0     H41297   2.462   5.889   6.403 -2.1036 -1.0621  1.2787
  313MOL0     H41298   3.428   5.735   6.753  1.3751  0.1252 -0.4543
  313MOL0     H41299   3.621   5.615   6.833  1.3738  1.2456 -0.0529
  313MOL0     H41300   3.968   5.658   7.198  0.1937  0.0647  1.0741
  313MOL0     H41301   4.180   5.568   7.275 -0.4238  0.2334  1.0834
  313MOL0     H41302   4.653   5.860   8.482 -0.8451 -0.2045 -0.2796
  313MOL0     H41303   4.790   6.029   8.572 -1.7703  0.7788  0.8323
  313MOL0     H41304   5.167   5.959   8.794  0.1413 -1.4850 -1.4256
  313MOL0     H41305   5.396   6.018   8.746  3.2722  2.9688 -0.4576
  313MOL0     H41306   5.641   6.224   8.578 -0.0238  0.0753  0.5337
  313MOL0     H41307   5.529   6.086   8.585 -0.6176 -0.5852 -0.9326
  313MOL0     H41308   5.620   6.072   8.837 -1.1998 -0.5402 -1.1202
  313MOL0     H41309   5.762   6.082   8.719 -0.8813 -0.6106 -0.1919
  313MOL0     H41310   5.661   6.336   8.862  1.8243  1.4404 -1.8465
  313MOL0     H41311   5.805   6.308   8.765  1.4220 -3.7379 -1.9909
  313MOL0     H41312   5.846   6.293   9.012  0.8178 -1.8688  3.1255
  313MOL0     H41313   5.741   6.172   9.047  0.0893  0.4956 -0.5677
  313MOL0     H41314   6.102   6.002   8.868 -0.7391 -0.0138 -2.1709
  313MOL0     H41315   5.300   6.437   8.742  2.8490 -0.2103 -4.1105
  313MOL0     H41316   5.057   6.372   8.745  0.3090  0.5243 -2.7567
  314MOL0     O41317   9.563   0.934   8.295  0.7010  0.1415 -0.1096
  314MOL0     C41318   9.547   1.025   8.372  0.2334 -0.2673 -0.4895
  314MOL0     O41319   9.424   1.092   8.393  0.0109 -1.0820  0.6137
  314MOL0     C41320   9.314   1.056   8.328 -0.5231 -0.0239  0.8177
  314MOL0     C41321   9.297   1.087   8.192  0.9247 -0.5397 -0.0900
  314MOL0     C41322   9.181   1.046   8.125 -0.9714  0.0178 -0.2940
  314MOL0     C41323   9.075   0.983   8.194  0.2530 -0.7237  0.6055
  314MOL0     O41324   8.971   0.947   8.112  0.6728  0.0491  0.3084
  314MOL0     C41325   8.846   0.984   8.175 -0.1460 -0.4422 -0.7624
  314MOL0     C41326   8.761   1.062   8.073 -0.3507  0.2296 -0.6660
  314MOL0     C41327   8.824   1.194   8.036  0.4439 -0.0244 -0.4248
  314MOL0     C41328   8.803   1.297   8.156 -0.5901 -0.8008  0.0436
  314MOL0     C41329   8.861   1.431   8.119 -0.4621 -0.6259  0.0783
  314MOL0     C41330   9.017   1.441   8.126  0.5813 -0.3333  0.7590
  314MOL0     C41331   9.073   1.430   8.269 -1.4070  0.1495 -0.1762
  314MOL0     C41332   9.225   1.455   8.298  0.5910  0.0630 -0.6099
  314MOL0     N41333   9.258   1.594   8.275  0.4366 -0.5398 -0.0194
  314MOL0     C41334   9.248   1.682   8.375 -0.0950 -0.1524 -0.2845
  314MOL0     C41335   9.294   1.795   8.329  0.2651  0.8279  0.2037
  314MOL0     C41336   9.313   1.928   8.393 -0.9798 -0.2656 -0.4446
  314MOL0     C41337   9.183   1.982   8.450 -0.0767  0.0573 -0.4520
  314MOL0     C41338   9.210   2.130   8.479  0.3953  0.8242  0.1632
  314MOL0     C41339   9.081   2.196   8.532  0.1682  0.0827  0.2793
  314MOL0     O41340   8.974   2.187   8.435 -0.8966 -0.1844  0.4258
  314MOL0     C41341   8.842   2.209   8.478 -1.1636 -0.0361 -0.1983
  314MOL0     C41342   8.739   2.182   8.395  0.3917 -0.0205 -0.4886
  314MOL0     C41343   8.614   2.226   8.438  0.7521  0.9663 -0.3119
  314MOL0     C41344   8.595   2.299   8.559 -0.9154  0.0348  0.9814
  314MOL0     C41345   8.463   2.325   8.613 -0.2697  0.2375  0.9189
  314MOL0     O41346   8.361   2.290   8.532 -0.7445 -0.0187  0.4768
  314MOL0     C41347   8.243   2.335   8.564  0.3119 -0.2917 -0.4592
  314MOL0     C41348   8.192   2.436   8.483  0.1743  0.4499  0.1471
  314MOL0     C41349   8.053   2.470   8.490  0.4109 -0.3926 -1.1273
  314MOL0     C41350   7.967   2.414   8.582 -0.3283  0.2266 -0.5356
  314MOL0     O41351   7.844   2.468   8.586  0.2666 -1.1002  0.2592
  314MOL0     C41352   7.753   2.413   8.679  0.0012  0.2672 -0.3029
  314MOL0     C41353   7.612   2.457   8.645  0.0533  0.0206  0.7686
  314MOL0     C41354   7.507   2.386   8.723 -0.0987 -0.3779  0.7264
  314MOL0     C41355   7.366   2.433   8.698  0.5044 -0.2386  0.3155
  314MOL0     C41356   7.293   2.424   8.827 -0.6565  0.6238  0.4494
  314MOL0     C41357   7.141   2.418   8.799  0.3560 -0.6262 -0.3107
  314MOL0     C41358   7.062   2.399   8.930 -0.1419  0.0590 -0.6825
  314MOL0     C41359   6.946   2.301   8.905 -0.1826 -0.3706  0.1313
  314MOL0    Cl41360   6.847   2.294   9.053  0.3525 -0.2935  0.1228
  314MOL0     C41361   8.020   2.310   8.657  0.9141 -0.6192 -0.4250
  314MOL0     C41362   8.151   2.264   8.643  0.8537 -0.0759 -0.9855
  314MOL0     O41363   8.449   2.368   8.724  0.2034 -1.3777 -0.2068
  314MOL0     C41364   8.705   2.330   8.642 -0.2190  0.1733 -0.4362
  314MOL0     C41365   8.828   2.285   8.599  0.0340 -0.9792 -0.0134
  314MOL0     N41366   9.330   1.775   8.200 -0.4748 -0.0975  0.2722
  314MOL0     N41367   9.296   1.657   8.170 -0.1947 -0.0567 -0.3141
  314MOL0     C41368   9.096   0.961   8.328  0.2514 -0.1166 -0.0297
  314MOL0     C41369   9.217   0.984   8.388  0.5962 -1.1092 -1.1789
  314MOL0     C41370   9.661   1.081   8.443  0.7955  0.3637 -0.0847
  314MOL0     C41371   9.642   1.178   8.540 -0.3984 -0.0036 -0.2379
  314MOL0     C41372   9.746   1.235   8.611 -0.0561  0.0443 -0.3125
  314MOL0     C41373   9.877   1.199   8.592  0.5879 -0.6070  0.0541
  314MOL0     O41374   9.963   1.250   8.677  0.1670 -0.6328 -0.1038
  314MOL0     C41375  10.100   1.265   8.642  0.2169  0.2539  0.1303
  314MOL0     C41376  10.127   1.363   8.537 -0.8899 -0.3356  0.1005
  314MOL0     C41377  10.278   1.360   8.490  0.8073  0.1649 -0.4281
  314MOL0     C41378  10.310   1.493   8.412 -0.5315 -0.4014  0.2910
  314MOL0     C41379  10.247   1.493   8.273 -0.4399 -0.5550  0.5113
  314MOL0     C41380  10.194   1.495   8.163  0.3953  0.0644 -0.4006
  314MOL0     C41381   9.901   1.104   8.492 -0.7391 -0.5533 -0.0046
  314MOL0     C41382   9.797   1.044   8.415  0.4311  0.2587 -0.4212
  314MOL0     H41383   9.375   1.137   8.135  0.1050 -0.5102 -1.2222
  314MOL0     H41384   9.173   1.068   8.019 -0.7301  0.1671 -0.2804
  314MOL0     H41385   8.865   1.056   8.255  2.7182 -0.1358 -1.6038
  314MOL0     H41386   8.803   0.893   8.217 -1.5095  0.5702  0.0992
  314MOL0     H41387   8.664   1.087   8.117  0.9717  0.9605  2.0245
  314MOL0     H41388   8.754   1.001   7.983  2.8256 -0.3936 -0.5999
  314MOL0     H41389   8.772   1.223   7.944 -0.3363 -0.3561 -0.0882
  314MOL0     H41390   8.929   1.180   8.009 -0.4063 -1.2850 -3.5377
  314MOL0     H41391   8.697   1.313   8.174  0.0096  1.7807  1.8504
  314MOL0     H41392   8.849   1.254   8.245  2.2222  0.5700 -0.6259
  314MOL0     H41393   8.814   1.506   8.183  2.8450 -1.0143  3.3358
  314MOL0     H41394   8.825   1.450   8.018 -4.9183 -1.1085  1.3680
  314MOL0     H41395   9.063   1.528   8.080  0.7012 -1.1194 -0.6548
  314MOL0     H41396   9.045   1.354   8.066  0.2924  0.4024 -0.4857
  314MOL0     H41397   9.014   1.506   8.323 -3.2756  0.0683 -1.9734
  314MOL0     H41398   9.054   1.329   8.307  1.7523 -1.6610 -2.8848
  314MOL0     H41399   9.279   1.382   8.236 -0.3840 -2.2101  1.1026
  314MOL0     H41400   9.240   1.427   8.402  0.3816 -1.4855 -0.9792
  314MOL0     H41401   9.217   1.657   8.476  0.6780 -0.0451 -0.0148
  314MOL0     H41402   9.350   1.999   8.319  4.7148  0.3013  2.3589
  314MOL0     H41403   9.390   1.927   8.471 -0.0476 -2.2278 -1.3072
  314MOL0     H41404   9.153   1.923   8.537  0.6781 -2.2283 -1.6424
  314MOL0     H41405   9.102   1.976   8.376  1.6191  0.4908 -2.4365
  314MOL0     H41406   9.280   2.140   8.563 -0.9222 -1.6209  1.6586
  314MOL0     H41407   9.241   2.169   8.381 -0.4457 -1.6545 -1.1569
  314MOL0     H41408   9.114   2.299   8.550 -0.9870  0.5312 -0.0575
  314MOL0     H41409   9.057   2.140   8.623 -0.1201 -1.6382 -0.8126
  314MOL0     H41410   8.757   2.123   8.305 -0.4610 -0.2023 -0.5493
  314MOL0     H41411   8.529   2.204   8.374  0.0245  5.2233 -1.1199
  314MOL0     H41412   8.254   2.498   8.418  0.5886  1.3943  1.4108
  314MOL0     H41413   8.010   2.551   8.432 -0.0338 -0.1803 -0.5100
  314MOL0     H41414   7.768   2.428   8.786 -2.9880 -0.3358  0.2986
  314MOL0     H41415   7.754   2.305   8.659 -2.7874 -0.2149  1.6152
  314MOL0     H41416   7.604   2.451   8.536 -1.7875 -2.1637  0.9679
  314MOL0     H41417   7.603   2.561   8.677  3.0010  0.6651 -0.1856
  314MOL0     H41418   7.543   2.404   8.824  2.9692 -4.2018  0.5556
  314MOL0     H41419   7.509   2.281   8.693  1.2626 -0.2626  0.3369
  314MOL0     H41420   7.362   2.535   8.661 -2.4319 -0.1860  0.5494
  314MOL0     H41421   7.320   2.370   8.621  2.3042 -1.2393  0.0051
  314MOL0     H41422   7.333   2.512   8.878  0.2841 -1.3521  3.3931
  314MOL0     H41423   7.328   2.341   8.889  0.0629  0.5072 -0.1001
  314MOL0     H41424   7.122   2.346   8.718  2.9295  1.8911 -3.3974
  314MOL0     H41425   7.113   2.513   8.753  0.0707  0.0013  1.1016
  314MOL0     H41426   7.131   2.364   9.007 -1.8863 -1.5832  0.2346
  314MOL0     H41427   7.019   2.486   8.981 -0.1718 -2.1470  3.5281
  314MOL0     H41428   6.992   2.204   8.882  2.4655  1.6025 -4.0950
  314MOL0     H41429   6.881   2.343   8.828 -1.9122  0.5223  2.0086
  314MOL0     H41430   7.951   2.256   8.721 -0.2230  0.2563 -0.8692
  314MOL0     H41431   8.190   2.176   8.694 -0.1653 -0.2742 -0.5258
  314MOL0     H41432   8.685   2.378   8.737 -5.4521 -1.1331 -0.5288
  314MOL0     H41433   8.916   2.312   8.657  0.0229 -0.0338 -0.4130
  314MOL0     H41434   9.018   0.919   8.390 -0.4549  2.9784  1.3615
  314MOL0     H41435   9.224   0.964   8.494  0.4318  1.8182 -0.5412
  314MOL0     H41436   9.540   1.203   8.568 -0.9942 -3.4247  1.0535
  314MOL0     H41437   9.727   1.306   8.691  1.2209 -0.0386  0.1000
  314MOL0     H41438  10.141   1.164   8.629  2.8757  0.8979  2.5556
  314MOL0     H41439  10.143   1.308   8.733 -2.1269  0.3511  1.2887
  314MOL0     H41440  10.059   1.333   8.456 -0.7627  0.7243 -0.4282
  314MOL0     H41441  10.091   1.465   8.551 -1.4844  0.0407 -3.1721
  314MOL0     H41442  10.300   1.275   8.424 -1.4605 -0.6736 -0.1690
  314MOL0     H41443  10.340   1.343   8.579  1.9455 -0.4469 -1.3034
  314MOL0     H41444  10.259   1.572   8.468 -1.0574  0.9068 -1.9323
  314MOL0     H41445  10.418   1.511   8.407 -0.5253 -0.7973 -2.1285
  314MOL0     H41446  10.146   1.487   8.067 -1.2383 -1.2473  0.4713
  314MOL0     H41447  10.003   1.069   8.478  0.2293  1.5779  1.1531
  314MOL0     H41448   9.821   0.968   8.341  2.2761  0.8790 -0.5328
  315MOL0     O41449   2.882   0.166   2.875  0.1174  0.1429 -0.3209
  315MOL0     C41450   2.900   0.227   2.975  0.0001  0.0263 -0.3972
  315MOL0     O41451   2.804   0.277   3.058  0.4314 -0.1274  0.0060
  315MOL0     C41452   2.674   0.237   3.042 -0.7220  0.2941  0.0143
  315MOL0     C41453   2.577   0.328   3.015  0.4823  0.5077 -0.4176
  315MOL0     C41454   2.441   0.295   2.999 -0.7873 -0.4830  0.4285
  315MOL0     C41455   2.403   0.162   2.996  0.9554  0.6760 -0.1697
  315MOL0     O41456   2.284   0.123   2.947 -0.2824  0.3753  0.9599
  315MOL0     C41457   2.163   0.163   3.012  0.1413 -0.4938 -0.0205
  315MOL0     C41458   2.139   0.087   3.144 -0.9904  0.3386  1.0316
  315MOL0     C41459   2.027   0.151   3.222 -0.4397 -0.0941 -0.1458
  315MOL0     C41460   1.883   0.122   3.170  0.3538  0.4633  0.3902
  315MOL0     C41461   1.780   0.156   3.268 -0.4397  1.2946 -0.8116
  315MOL0     C41462   1.634   0.155   3.215  0.5233  0.5547  0.3834
  315MOL0     C41463   1.587   0.043   3.114  0.0470 -0.6710  0.3888
  315MOL0     C41464   1.487   0.095   3.010 -0.7311 -1.1417 -0.1507
  315MOL0     N41465   1.353   0.095   3.067  1.2525  0.0709  0.0072
  315MOL0     C41466   1.291   0.211   3.093 -0.4252 -0.0601  0.2481
  315MOL0     C41467   1.161   0.178   3.127 -0.0455 -1.9588 -0.1585
  315MOL0     C41468   1.031   0.257   3.170  0.5904  0.3543 -0.0063
  315MOL0     C41469   0.908   0.242   3.069 -0.5279  0.5982 -0.2888
  315MOL0     C41470   0.804   0.344   3.112  0.0587  0.4699  0.5018
  315MOL0     C41471   0.689   0.356   3.013 -0.3489  0.0975  0.4042
  315MOL0     O41472   0.602   0.467   3.052  0.0288  0.1285  0.5298
  315MOL0     C41473   0.465   0.470   3.021  0.0214 -0.4145 -0.1919
  315MOL0     C41474   0.404   0.385   2.926 -0.0026  0.3380  0.5054
  315MOL0     C41475   0.274   0.410   2.896  0.2165  1.0084  0.4053
  315MOL0     C41476   0.197   0.519   2.937  0.0183 -0.4098 -0.1242
  315MOL0     C41477   0.053   0.535   2.895  0.6417  0.0782 -0.3136
  315MOL0     O41478  -0.018   0.630   2.962  0.1867  0.4016  0.5456
  315MOL0     C41479  -0.154   0.648   2.922 -0.3578  0.5300 -0.2959
  315MOL0     C41480  -0.249   0.700   3.006  0.5584  0.1985  0.0640
  315MOL0     C41481  -0.386   0.722   2.975  0.2672  0.1147  0.3961
  315MOL0     C41482  -0.432   0.675   2.850  0.3443 -0.0628 -0.3494
  315MOL0     O41483  -0.563   0.692   2.836  0.0992 -0.2440  0.0223
  315MOL0     C41484  -0.640   0.578   2.874  0.1059 -1.2976 -0.1108
  315MOL0     C41485  -0.668   0.482   2.756 -0.4961 -0.7158 -0.0911
  315MOL0     C41486  -0.746   0.572   2.650 -0.2287 -0.1736  0.1859
  315MOL0     C41487  -0.791   0.506   2.523  0.3913  0.5362  0.0248
  315MOL0     C41488  -0.896   0.580   2.434  0.0886 -0.1556  0.6466
  315MOL0     C41489  -0.931   0.512   2.299  0.7003  0.6099 -0.2632
  315MOL0     C41490  -1.057   0.572   2.231 -0.0797  0.3519  0.5131
  315MOL0     C41491  -1.036   0.669   2.124 -0.2476  0.3555 -0.4050
  315MOL0    Cl41492  -0.970   0.818   2.212  0.5463  0.1986  0.1763
  315MOL0     C41493  -0.340   0.627   2.759  0.2576  0.0675 -0.0381
  315MOL0     C41494  -0.202   0.612   2.792  0.0144  0.7037 -0.6848
  315MOL0     O41495   0.004   0.442   2.824  0.1257 -0.5779 -0.2845
  315MOL0     C41496   0.263   0.608   3.032  0.2005  0.0367  0.0219
  315MOL0     C41497   0.394   0.582   3.076  0.1272  0.6295  0.2280
  315MOL0     N41498   1.156   0.043   3.127  0.3747  1.0329  0.1294
  315MOL0     N41499   1.269  -0.007   3.087 -0.0262  0.4230  1.2511
  315MOL0     C41500   2.495   0.070   3.039 -0.1797  0.7907 -0.3152
  315MOL0     C41501   2.628   0.109   3.061  0.4599 -0.5024 -0.2442
  315MOL0     C41502   3.042   0.257   3.015  0.6048  0.0864  0.4147
  315MOL0     C41503   3.147   0.231   2.928 -0.0139 -0.0999 -0.8525
  315MOL0     C41504   3.285   0.241   2.966  1.1519  0.2613 -0.3038
  315MOL0     C41505   3.322   0.285   3.096  0.8594  0.6323 -0.2167
  315MOL0     O41506   3.456   0.285   3.128  0.0690  0.9921  0.1371
  315MOL0     C41507   3.499   0.309   3.260 -0.0332 -0.1841  0.0526
  315MOL0     C41508   3.650   0.282   3.275 -0.2926 -0.6626  0.0318
  315MOL0     C41509   3.697   0.143   3.262 -0.8534  0.1708 -0.5900
  315MOL0     C41510   3.847   0.141   3.266 -0.6733 -0.1890  0.2208
  315MOL0     C41511   3.890   0.174   3.399 -0.0458 -0.7630  0.3863
  315MOL0     C41512   3.936   0.181   3.512 -0.2376  0.5069 -0.9452
  315MOL0     C41513   3.217   0.326   3.179  0.9017  0.0112 -0.0622
  315MOL0     C41514   3.078   0.309   3.143  0.3828  0.0484  0.1525
  315MOL0     H41515   2.616   0.430   3.018  0.0340  0.6512  1.5809
  315MOL0     H41516   2.375   0.373   2.962  0.9082  0.1405 -1.4872
  315MOL0     H41517   2.069   0.152   2.958 -0.7771  0.3414  1.3335
  315MOL0     H41518   2.175   0.268   3.043 -0.9186 -1.0071  2.3679
  315MOL0     H41519   2.230   0.095   3.205 -0.8070  0.3700  0.7584
  315MOL0     H41520   2.110  -0.017   3.125  2.0438 -0.1897 -1.7570
  315MOL0     H41521   2.039   0.259   3.231 -2.1389  0.0258  1.2171
  315MOL0     H41522   2.034   0.108   3.323 -0.4276 -0.6732 -0.3907
  315MOL0     H41523   1.869   0.171   3.073 -1.0064  1.4264  1.0284
  315MOL0     H41524   1.884   0.016   3.141  4.3276  1.1452 -2.8905
  315MOL0     H41525   1.808   0.256   3.303  3.6247 -0.3317  1.1719
  315MOL0     H41526   1.793   0.081   3.346  1.9218  1.3999 -1.0512
  315MOL0     H41527   1.602   0.251   3.174 -2.0978 -0.9923 -1.5248
  315MOL0     H41528   1.568   0.145   3.302  2.0710  1.1516  1.6904
  315MOL0     H41529   1.674   0.011   3.056  0.4969 -0.6092  1.0176
  315MOL0     H41530   1.539  -0.039   3.168 -2.4184 -1.1329 -2.2396
  315MOL0     H41531   1.488   0.026   2.926  0.0824  0.3871 -1.4629
  315MOL0     H41532   1.520   0.192   2.972 -0.7354 -0.7309  0.8537
  315MOL0     H41533   1.322   0.313   3.071 -1.4808  0.5175  1.2830
  315MOL0     H41534   1.048   0.363   3.188 -0.6321  0.8830 -1.7245
  315MOL0     H41535   0.994   0.213   3.263 -1.0118 -1.9028 -1.5901
  315MOL0     H41536   0.863   0.143   3.075  1.7593 -0.4416  2.1136
  315MOL0     H41537   0.946   0.260   2.968 -2.1320 -1.7447 -1.4005
  315MOL0     H41538   0.761   0.303   3.204  1.0650 -0.0029  0.7785
  315MOL0     H41539   0.839   0.445   3.131 -0.7230  0.6109  1.2460
  315MOL0     H41540   0.634   0.262   3.002  0.5962 -0.7783  2.6412
  315MOL0     H41541   0.731   0.382   2.915  0.8158 -0.8147  0.6424
  315MOL0     H41542   0.459   0.305   2.878  1.1122  1.3084  0.1116
  315MOL0     H41543   0.211   0.337   2.845 -0.6635  0.6826  1.8976
  315MOL0     H41544  -0.222   0.731   3.106 -1.0512 -0.5797  0.7605
  315MOL0     H41545  -0.452   0.755   3.055 -3.0888 -0.8495 -1.7294
  315MOL0     H41546  -0.733   0.631   2.897  2.4592  3.3691 -0.2637
  315MOL0     H41547  -0.599   0.526   2.961 -0.1344 -0.3124  0.6146
  315MOL0     H41548  -0.729   0.398   2.789 -0.1454 -1.8739 -2.2292
  315MOL0     H41549  -0.572   0.448   2.715 -0.7927 -1.2766 -0.3221
  315MOL0     H41550  -0.682   0.657   2.626 -1.0634  0.4362  0.0615
  315MOL0     H41551  -0.833   0.619   2.698  0.2403 -1.2071  2.1675
  315MOL0     H41552  -0.710   0.471   2.458 -0.6810 -0.9183 -0.5741
  315MOL0     H41553  -0.845   0.415   2.552  1.4492  0.9948  4.0381
  315MOL0     H41554  -0.861   0.681   2.414 -3.3895  1.0000 -0.4047
  315MOL0     H41555  -0.989   0.583   2.492  0.8226 -2.2346  2.0554
  315MOL0     H41556  -0.936   0.404   2.316  0.2662  0.9059  1.7891
  315MOL0     H41557  -0.850   0.524   2.226  1.2882 -0.2358  0.2397
  315MOL0     H41558  -1.108   0.487   2.184 -1.1736  0.9413  0.5860
  315MOL0     H41559  -1.124   0.612   2.308  0.9200  1.7923  0.6677
  315MOL0     H41560  -1.129   0.701   2.076  0.7341  2.0311 -1.2980
  315MOL0     H41561  -0.962   0.639   2.050 -0.2699  0.0857 -0.3175
  315MOL0     H41562  -0.368   0.625   2.655 -0.3170 -0.3129  0.1230
  315MOL0     H41563  -0.143   0.579   2.707 -3.1349 -3.9950 -1.4387
  315MOL0     H41564   0.208   0.695   3.067  0.1065 -0.0172  0.0088
  315MOL0     H41565   0.454   0.639   3.146  2.2567 -1.0580 -0.0790
  315MOL0     H41566   2.460  -0.033   3.040 -2.1510  1.4134 -0.7193
  315MOL0     H41567   2.707   0.034   3.070  0.9721  0.0782  0.1776
  315MOL0     H41568   3.134   0.176   2.835 -0.2659  0.4259 -1.1320
  315MOL0     H41569   3.353   0.206   2.889 -0.3501 -2.9187 -0.3568
  315MOL0     H41570   3.451   0.244   3.333  2.4803 -0.6382  1.4393
  315MOL0     H41571   3.470   0.409   3.290 -1.3032 -1.3959  3.2547
  315MOL0     H41572   3.697   0.334   3.191  1.9917 -4.0711 -1.0378
  315MOL0     H41573   3.677   0.320   3.374  0.1695 -0.2429 -0.2521
  315MOL0     H41574   3.664   0.112   3.163  1.4935 -2.7063 -0.6018
  315MOL0     H41575   3.654   0.076   3.337 -1.3367  1.3349  0.2090
  315MOL0     H41576   3.887   0.042   3.245  1.9075  0.9489 -0.6544
  315MOL0     H41577   3.893   0.205   3.190 -0.5777  0.3414  0.7172
  315MOL0     H41578   3.971   0.169   3.613 -0.6100 -0.0951 -0.8792
  315MOL0     H41579   3.236   0.369   3.277  1.2709  1.7555 -0.8544
  315MOL0     H41580   3.008   0.320   3.225 -0.9370 -1.6674 -0.6931
  316MOL0     O41581   9.548   3.390   5.462 -0.1431  0.3956 -0.3302
  316MOL0     C41582   9.575   3.447   5.363 -0.2444  0.2806  0.0361
  316MOL0     O41583   9.487   3.479   5.267 -0.3439 -0.4599 -0.4101
  316MOL0     C41584   9.351   3.465   5.302 -0.7026  0.9637  0.0666
  316MOL0     C41585   9.288   3.526   5.410  1.0878 -0.3695  0.2013
  316MOL0     C41586   9.152   3.494   5.447 -0.3494  0.6882 -0.3757
  316MOL0     C41587   9.081   3.400   5.374  0.8185  0.0156  0.0800
  316MOL0     O41588   8.951   3.378   5.416  0.1110  0.0399  0.0612
  316MOL0     C41589   8.865   3.287   5.338 -0.1542  0.5936 -0.3180
  316MOL0     C41590   8.728   3.283   5.388 -0.0963 -1.1822  0.4506
  316MOL0     C41591   8.632   3.236   5.280  0.4232  0.4427 -0.0020
  316MOL0     C41592   8.484   3.229   5.331  0.5430  0.1062  0.6362
  316MOL0     C41593   8.385   3.187   5.221 -0.3476 -0.2174  0.2499
  316MOL0     C41594   8.242   3.172   5.283 -0.5136  1.0791 -0.6821
  316MOL0     C41595   8.143   3.076   5.206 -0.2902  0.5554  0.0816
  316MOL0     C41596   7.999   3.057   5.251  0.2771  0.3969  0.4323
  316MOL0     N41597   7.931   3.183   5.285 -0.2331  0.2807  1.0301
  316MOL0     C41598   7.934   3.258   5.408  0.5325 -0.1702  0.1606
  316MOL0     C41599   7.870   3.376   5.382  0.3403 -0.1959  0.0842
  316MOL0     C41600   7.871   3.500   5.470  0.5164 -0.5385 -1.1488
  316MOL0     C41601   7.967   3.604   5.426 -1.1750 -0.3211 -0.0197
  316MOL0     C41602   8.100   3.556   5.499  0.1064 -0.0555 -0.6703
  316MOL0     C41603   8.221   3.643   5.474  0.0764  0.3987 -0.0426
  316MOL0     O41604   8.335   3.593   5.545 -0.7259 -0.1847 -0.0840
  316MOL0     C41605   8.455   3.656   5.518  0.0645 -0.4424 -0.2953
  316MOL0     C41606   8.469   3.782   5.451  0.6226 -0.0062  0.6844
  316MOL0     C41607   8.600   3.836   5.441 -0.1979  0.6946 -0.6673
  316MOL0     C41608   8.708   3.773   5.509  0.3541 -0.2658  0.1366
  316MOL0     C41609   8.842   3.823   5.493 -0.0127 -0.0715  0.2990
  316MOL0     O41610   8.866   3.932   5.414  0.2900 -0.1847 -0.3831
  316MOL0     C41611   8.995   3.969   5.368 -0.4094 -0.2822 -0.5810
  316MOL0     C41612   9.118   3.902   5.375 -0.0162  0.6281 -0.2983
  316MOL0     C41613   9.231   3.969   5.327 -1.5472 -0.8624  0.5036
  316MOL0     C41614   9.217   4.099   5.268  0.5393  0.0265  0.3087
  316MOL0     O41615   9.316   4.188   5.224  0.1307  0.2745  0.4755
  316MOL0     C41616   9.444   4.135   5.201 -0.8233  0.0065  0.6520
  316MOL0     C41617   9.550   4.234   5.133  0.0731  0.0983 -0.2653
  316MOL0     C41618   9.501   4.313   5.010 -1.1831  0.7861 -0.2558
  316MOL0     C41619   9.633   4.377   4.957 -0.6320  0.3400 -0.3026
  316MOL0     C41620   9.587   4.485   4.863  0.2855  0.4787  0.3359
  316MOL0     C41621   9.691   4.539   4.768 -0.7145 -0.1531 -0.8505
  316MOL0     C41622   9.649   4.603   4.633 -0.0084 -0.0916  0.6755
  316MOL0     C41623   9.774   4.621   4.548  0.1800  0.0527 -0.7226
  316MOL0    Cl41624   9.896   4.711   4.648  0.5678 -0.1020  0.0733
  316MOL0     C41625   9.095   4.166   5.269 -0.3769 -0.2894 -0.1332
  316MOL0     C41626   8.983   4.094   5.313  0.1276  0.9230 -0.4098
  316MOL0     O41627   8.930   3.763   5.552  0.0248 -0.0825 -0.2130
  316MOL0     C41628   8.685   3.657   5.583 -0.3618  0.8966  0.4598
  316MOL0     C41629   8.564   3.599   5.583 -0.4667 -0.2112 -0.4462
  316MOL0     N41630   7.821   3.361   5.251  0.0463 -0.4224 -0.5023
  316MOL0     N41631   7.862   3.259   5.197 -0.1166  0.6641 -0.0397
  316MOL0     C41632   9.144   3.340   5.263 -0.6162 -0.5790  0.4971
  316MOL0     C41633   9.279   3.377   5.223  0.3687  0.2417  0.1134
  316MOL0     C41634   9.721   3.481   5.346 -0.0523  0.8570 -1.0504
  316MOL0     C41635   9.759   3.584   5.251  0.9152  0.2500  0.3148
  316MOL0     C41636   9.895   3.618   5.231  0.2423 -0.2430 -0.2358
  316MOL0     C41637   9.994   3.545   5.307  0.0178 -0.5635 -0.3716
  316MOL0     O41638  10.127   3.559   5.279  0.1800  0.2768  0.2539
  316MOL0     C41639  10.164   3.671   5.197  0.6057 -1.3343 -0.3290
  316MOL0     C41640  10.314   3.691   5.206  0.5209 -0.5084 -0.2153
  316MOL0     C41641  10.396   3.570   5.161  0.1801  1.1174  0.1566
  316MOL0     C41642  10.486   3.587   5.043 -0.6926  0.1933 -0.3066
  316MOL0     C41643  10.587   3.685   5.075 -0.1364  0.2867  0.2517
  316MOL0     C41644  10.676   3.758   5.104 -0.2259  0.3280 -0.0961
  316MOL0     C41645   9.957   3.445   5.392  0.3161 -0.5660 -0.0441
  316MOL0     C41646   9.823   3.408   5.411 -0.6871  1.1740 -0.7549
  316MOL0     H41647   9.343   3.605   5.459  1.6025 -0.1972 -0.6383
  316MOL0     H41648   9.110   3.550   5.530 -0.3011 -1.2086  0.9806
  316MOL0     H41649   8.900   3.183   5.334  0.6051  0.8273  0.1159
  316MOL0     H41650   8.866   3.315   5.232 -0.5191  0.5151 -0.3441
  316MOL0     H41651   8.706   3.387   5.413  0.2514 -1.1787  0.7419
  316MOL0     H41652   8.715   3.228   5.481  0.2590 -0.4950  0.9124
  316MOL0     H41653   8.668   3.138   5.248  1.1212  1.6507 -3.3558
  316MOL0     H41654   8.645   3.308   5.199 -1.1900 -0.0070 -0.7080
  316MOL0     H41655   8.476   3.149   5.404  0.9178 -1.8574 -1.3423
  316MOL0     H41656   8.462   3.325   5.379  0.0112  1.2214 -1.6757
  316MOL0     H41657   8.416   3.087   5.188  0.1555  0.3373 -1.0003
  316MOL0     H41658   8.389   3.250   5.132  1.6034 -2.0524 -1.0807
  316MOL0     H41659   8.199   3.272   5.273 -1.0803  0.6967 -2.3175
  316MOL0     H41660   8.244   3.135   5.386  4.4132 -1.4615 -1.3569
  316MOL0     H41661   8.136   3.099   5.100 -0.2583 -1.9613 -0.5308
  316MOL0     H41662   8.189   2.977   5.203 -2.0313 -0.3666  1.6844
  316MOL0     H41663   8.003   2.998   5.343  0.8422  1.0016  0.7980
  316MOL0     H41664   7.947   3.001   5.173  0.8412  4.1970 -3.0413
  316MOL0     H41665   7.985   3.218   5.495  1.7253  0.0501 -0.4123
  316MOL0     H41666   7.890   3.472   5.574 -0.6755  0.5081 -0.6130
  316MOL0     H41667   7.771   3.545   5.464  1.2661  1.2617 -0.6957
  316MOL0     H41668   7.939   3.700   5.469  0.9457  1.3291 -2.0785
  316MOL0     H41669   7.979   3.607   5.317 -1.1720 -1.0898 -0.0471
  316MOL0     H41670   8.086   3.566   5.607  0.6771  0.8517 -0.6730
  316MOL0     H41671   8.125   3.453   5.471 -0.8383 -0.3208 -0.5967
  316MOL0     H41672   8.191   3.743   5.503 -2.0583 -0.2633  0.2115
  316MOL0     H41673   8.250   3.643   5.368  2.1777  0.4298  0.4873
  316MOL0     H41674   8.393   3.846   5.407  2.0462  1.5631  0.3551
  316MOL0     H41675   8.623   3.923   5.380  0.5268  0.7660 -0.3055
  316MOL0     H41676   9.120   3.807   5.428 -1.3760  1.6663  1.7444
  316MOL0     H41677   9.329   3.929   5.353 -0.8434  0.3538 -0.1361
  316MOL0     H41678   9.433   4.047   5.137 -1.1265  1.4391 -1.3621
  316MOL0     H41679   9.488   4.108   5.298  0.9051  1.0711  0.2117
  316MOL0     H41680   9.641   4.179   5.105 -0.0487 -1.5199  2.2141
  316MOL0     H41681   9.584   4.293   5.218 -1.9376 -3.2502  3.1836
  316MOL0     H41682   9.425   4.383   5.046 -1.2108  0.8962 -0.5233
  316MOL0     H41683   9.457   4.244   4.937 -0.7648  2.0846 -1.7998
  316MOL0     H41684   9.694   4.411   5.041  1.3566  2.4138 -2.4272
  316MOL0     H41685   9.691   4.300   4.905  1.7120  0.1198  2.4264
  316MOL0     H41686   9.536   4.562   4.923 -0.0866 -0.1096  0.7904
  316MOL0     H41687   9.510   4.436   4.803  1.8015  1.1509 -2.2900
  316MOL0     H41688   9.756   4.457   4.737  0.0103  0.6403 -1.4868
  316MOL0     H41689   9.754   4.610   4.824 -1.1516  0.1796 -0.7790
  316MOL0     H41690   9.580   4.541   4.575  3.5169 -1.7657 -2.0467
  316MOL0     H41691   9.601   4.700   4.651  2.2652  0.8801  1.9403
  316MOL0     H41692   9.744   4.676   4.459 -0.8800  2.1526  0.8380
  316MOL0     H41693   9.814   4.522   4.525 -2.5440 -0.8673 -1.9304
  316MOL0     H41694   9.088   4.263   5.221 -3.0193 -1.9716 -3.6473
  316MOL0     H41695   8.888   4.146   5.320 -1.3341 -1.7383  2.9000
  316MOL0     H41696   8.772   3.609   5.625  1.0480  1.4534 -1.6738
  316MOL0     H41697   8.550   3.502   5.630  0.3926  0.2971  0.9105
  316MOL0     H41698   9.086   3.265   5.212  1.1765 -2.1103  0.6054
  316MOL0     H41699   9.321   3.343   5.129  0.8790 -1.4854  0.9293
  316MOL0     H41700   9.685   3.646   5.200  1.0971  0.9954  0.9411
  316MOL0     H41701   9.905   3.697   5.158  1.9859 -0.2735 -0.0608
  316MOL0     H41702  10.110   3.762   5.222 -1.5149 -2.0452 -1.9909
  316MOL0     H41703  10.137   3.655   5.092  1.0670  0.4657 -0.7658
  316MOL0     H41704  10.339   3.774   5.139 -0.9706 -0.0182 -0.1930
  316MOL0     H41705  10.347   3.720   5.307  1.9846  2.1646 -1.3393
  316MOL0     H41706  10.327   3.490   5.134 -1.4771  1.3990  3.1819
  316MOL0     H41707  10.451   3.540   5.250 -1.0661 -0.8074  0.3265
  316MOL0     H41708  10.527   3.492   5.005  2.3801  0.1290  2.6335
  316MOL0     H41709  10.425   3.631   4.964 -0.2004  4.8285  1.6077
  316MOL0     H41710  10.756   3.829   5.119 -1.4258  3.1445 -4.8759
  316MOL0     H41711  10.037   3.401   5.452  1.0073  1.0452  0.2779
  316MOL0     H41712   9.800   3.335   5.489  2.3207  0.6289 -0.2169
  317MOL0     O41713  11.124   9.775   0.372 -0.0076 -0.4196  0.5604
  317MOL0     C41714  11.047   9.734   0.284  0.5667 -0.2418 -0.3438
  317MOL0     O41715  11.087   9.648   0.185 -0.8936  0.0672 -0.0882
  317MOL0     C41716  11.217   9.602   0.189 -0.3192 -0.1385 -0.2668
  317MOL0     C41717  11.235   9.493   0.275  0.4519 -0.0415 -0.5151
  317MOL0     C41718  11.357   9.438   0.293 -0.5780  0.8553  0.2920
  317MOL0     C41719  11.468   9.493   0.231  0.4837  0.4977  0.1992
  317MOL0     O41720  11.585   9.436   0.276  0.1266  0.1336  0.4104
  317MOL0     C41721  11.709   9.482   0.225 -0.4529  0.0770 -0.5811
  317MOL0     C41722  11.748   9.419   0.091  0.3704  0.0572 -0.4959
  317MOL0     C41723  11.789   9.271   0.095 -0.2205  0.1234  0.3322
  317MOL0     C41724  11.843   9.214  -0.036  0.1573 -0.0690 -0.2636
  317MOL0     C41725  11.734   9.141  -0.119  0.1327 -0.4161 -0.6498
  317MOL0     C41726  11.609   9.228  -0.155 -0.7460 -0.1555  0.2792
  317MOL0     C41727  11.501   9.158  -0.243  0.6458 -0.4162 -0.2121
  317MOL0     C41728  11.414   9.051  -0.167  0.5566  0.1003 -0.1680
  317MOL0     N41729  11.337   9.091  -0.046 -0.2499 -0.3090 -0.7148
  317MOL0     C41730  11.223   9.162  -0.040 -0.1236 -0.5550  0.8677
  317MOL0     C41731  11.193   9.174   0.093  0.0441  0.7199  0.9201
  317MOL0     C41732  11.075   9.259   0.135 -0.0497 -0.4185 -0.3764
  317MOL0     C41733  10.938   9.198   0.084  0.2726 -0.8542 -0.4723
  317MOL0     C41734  10.827   9.301   0.116 -0.2804 -0.3539  0.9661
  317MOL0     C41735  10.697   9.237   0.111 -0.0767 -0.5671 -0.0661
  317MOL0     O41736  10.603   9.346   0.159 -0.0700 -0.2230 -0.0021
  317MOL0     C41737  10.469   9.321   0.143 -0.4786  0.0333  0.0794
  317MOL0     C41738  10.372   9.406   0.186 -0.6005  0.4679 -0.2548
  317MOL0     C41739  10.242   9.380   0.158  0.1695 -0.7787 -0.1117
  317MOL0     C41740  10.195   9.263   0.097  0.8643 -0.2232  0.9431
  317MOL0     C41741  10.049   9.229   0.089  0.1475 -0.1021  0.3308
  317MOL0     O41742  10.000   9.113   0.024 -0.1072  0.6236  0.5508
  317MOL0     C41743   9.859   9.105   0.018  0.1046  0.8101 -0.4675
  317MOL0     C41744   9.788   9.135  -0.095  0.1433 -0.3511 -0.8139
  317MOL0     C41745   9.652   9.101  -0.100  0.5781 -0.0765  0.4086
  317MOL0     C41746   9.588   9.032   0.001  0.0567  0.4647 -0.4627
  317MOL0     O41747   9.460   8.989  -0.002 -0.4129 -0.3323 -0.5082
  317MOL0     C41748   9.365   9.082  -0.039  0.7419 -0.3875 -0.6141
  317MOL0     C41749   9.220   9.022  -0.022 -0.4556  0.8103  0.1792
  317MOL0     C41750   9.201   8.898  -0.112  0.8103  0.5201  0.0392
  317MOL0     C41751   9.075   8.816  -0.090  0.0352  0.0524 -0.0245
  317MOL0     C41752   8.943   8.879  -0.149 -0.2653 -1.1122 -0.0450
  317MOL0     C41753   8.949   8.910  -0.298  0.0258  0.1587 -0.5855
  317MOL0     C41754   8.966   8.776  -0.379 -0.1789  0.2695  0.0366
  317MOL0     C41755   9.000   8.824  -0.520 -0.0790  0.9122 -0.1298
  317MOL0    Cl41756   9.013   8.668  -0.622  0.0888  0.2207  0.3747
  317MOL0     C41757   9.669   8.988   0.104  0.2346  0.0383 -0.0009
  317MOL0     C41758   9.800   9.021   0.109  0.0809  0.2628 -0.4971
  317MOL0     O41759   9.975   9.300   0.161  0.3108  0.2253  0.3867
  317MOL0     C41760  10.288   9.179   0.037  0.1102 -0.1465  0.0096
  317MOL0     C41761  10.423   9.215   0.058 -0.3805 -0.4134  0.9355
  317MOL0     N41762  11.293   9.120   0.167 -0.3536 -0.3955  0.0487
  317MOL0     N41763  11.381   9.070   0.085  0.1323 -0.6246  0.6463
  317MOL0     C41764  11.451   9.599   0.140 -0.5704  0.2364  0.5592
  317MOL0     C41765  11.319   9.652   0.122  0.1320  1.0306 -0.5138
  317MOL0     C41766  10.895   9.759   0.281 -1.2282  0.3946 -0.3163
  317MOL0     C41767  10.841   9.856   0.367  0.0808 -0.0622 -0.7314
  317MOL0     C41768  10.703   9.879   0.369 -0.1900 -0.3136  0.7024
  317MOL0     C41769  10.619   9.798   0.290  0.0175  0.5766 -0.4132
  317MOL0     O41770  10.482   9.811   0.283 -0.1595  0.7546  0.8572
  317MOL0     C41771  10.418   9.861   0.393  0.1609  0.3368 -0.1496
  317MOL0     C41772  10.269   9.883   0.358  0.7641 -0.3357 -0.0472
  317MOL0     C41773  10.181   9.765   0.345 -0.0791  0.2918  0.0951
  317MOL0     C41774  10.039   9.819   0.353  0.1027 -0.7296 -1.0503
  317MOL0     C41775   9.948   9.708   0.325 -0.4129  0.2059 -1.0940
  317MOL0     C41776   9.867   9.623   0.285 -0.4095  0.3341  0.0620
  317MOL0     C41777  10.671   9.697   0.204 -0.3870  0.2505  0.8225
  317MOL0     C41778  10.816   9.688   0.203  0.3197  0.9075  0.7790
  317MOL0     H41779  11.152   9.444   0.325  1.0449 -1.3499 -0.7543
  317MOL0     H41780  11.359   9.357   0.366  2.4870  1.7088  1.3013
  317MOL0     H41781  11.787   9.464   0.299 -1.6785  0.1916  0.7990
  317MOL0     H41782  11.704   9.591   0.218 -0.3127  0.1679  0.4989
  317MOL0     H41783  11.827   9.488   0.065  1.3235 -0.2646  1.3762
  317MOL0     H41784  11.664   9.434   0.022 -0.9330  1.8296  1.3432
  317MOL0     H41785  11.700   9.220   0.131 -0.9041  0.0292 -1.4176
  317MOL0     H41786  11.868   9.253   0.169 -0.5440  2.1020  1.2213
  317MOL0     H41787  11.900   9.285  -0.096  3.6266 -2.1244  0.3017
  317MOL0     H41788  11.923   9.143  -0.010  0.2873  0.8879  2.2427
  317MOL0     H41789  11.718   9.052  -0.057  0.2082  1.1117  1.6712
  317MOL0     H41790  11.788   9.105  -0.208 -1.0621 -1.6280 -0.9114
  317MOL0     H41791  11.643   9.318  -0.206  0.0775 -0.7733 -0.2830
  317MOL0     H41792  11.562   9.260  -0.061 -0.1789  2.2926 -0.2188
  317MOL0     H41793  11.437   9.234  -0.289  2.5236  2.9083  2.2654
  317MOL0     H41794  11.556   9.105  -0.322  0.4259  0.9893 -1.3532
  317MOL0     H41795  11.481   8.973  -0.129 -1.8499 -2.9004 -1.6151
  317MOL0     H41796  11.337   9.004  -0.228 -0.4240 -2.1994  2.5919
  317MOL0     H41797  11.160   9.187  -0.124  2.2631 -3.6962 -2.1432
  317MOL0     H41798  11.077   9.362   0.100 -1.5184 -0.0369  0.5714
  317MOL0     H41799  11.075   9.270   0.244 -1.5524  1.9809 -0.5431
  317MOL0     H41800  10.926   9.103   0.137  0.0475 -0.6455 -0.1492
  317MOL0     H41801  10.942   9.171  -0.022  4.3503 -3.3798  0.0834
  317MOL0     H41802  10.844   9.350   0.213  1.3733  3.0022 -0.8194
  317MOL0     H41803  10.830   9.384   0.044  0.9184 -2.1533 -1.1892
  317MOL0     H41804  10.685   9.149   0.174  0.0280 -0.5074  0.0369
  317MOL0     H41805  10.689   9.212   0.004  0.0937  2.2485 -0.8234
  317MOL0     H41806  10.398   9.492   0.247  0.5059 -0.4270  0.5662
  317MOL0     H41807  10.169   9.450   0.196 -0.0489 -2.1446  2.1570
  317MOL0     H41808   9.832   9.191  -0.177  0.3603 -1.7428 -1.6853
  317MOL0     H41809   9.592   9.127  -0.187 -0.3848  2.7041  1.7586
  317MOL0     H41810   9.379   9.116  -0.142 -0.8882 -1.8972 -1.3979
  317MOL0     H41811   9.379   9.165   0.031  0.1049 -0.9503  0.1980
  317MOL0     H41812   9.142   9.094  -0.049  1.4883  2.3172 -1.7704
  317MOL0     H41813   9.220   8.989   0.083  2.0988 -0.9315 -0.2863
  317MOL0     H41814   9.292   8.842  -0.088  2.2932  1.1003 -3.5767
  317MOL0     H41815   9.219   8.928  -0.216  2.7230  0.9542  0.4620
  317MOL0     H41816   9.074   8.712  -0.124 -1.1216 -0.8593  2.5113
  317MOL0     H41817   9.064   8.808   0.019 -0.4878  0.7553 -0.0163
  317MOL0     H41818   8.935   8.976  -0.099  2.7422 -0.4466 -0.6891
  317MOL0     H41819   8.852   8.821  -0.131 -1.3404  0.5032 -0.0300
  317MOL0     H41820   9.023   8.988  -0.318 -0.8100  0.8414 -1.0343
  317MOL0     H41821   8.855   8.957  -0.326 -0.6726  0.9109  2.6290
  317MOL0     H41822   9.047   8.707  -0.354  0.3655  1.1534  0.7788
  317MOL0     H41823   8.873   8.723  -0.400 -0.3991  1.0784 -1.1383
  317MOL0     H41824   9.102   8.864  -0.516  0.2811  0.4728 -3.0435
  317MOL0     H41825   8.921   8.896  -0.543  1.5974  2.1189 -2.5152
  317MOL0     H41826   9.628   8.930   0.187  2.1302  0.8207  1.5519
  317MOL0     H41827   9.842   8.979   0.200 -0.0768  1.7137  0.2901
  317MOL0     H41828  10.252   9.099  -0.027  0.9551  2.1274 -3.6494
  317MOL0     H41829  10.494   9.156   0.000 -1.9235  0.8636 -2.5476
  317MOL0     H41830  11.535   9.645   0.089 -1.6132  1.4937 -0.0823
  317MOL0     H41831  11.296   9.726   0.046 -1.3021 -0.0702 -1.2100
  317MOL0     H41832  10.913   9.905   0.433 -0.2136  1.3648 -1.4239
  317MOL0     H41833  10.671   9.949   0.444  0.0692  0.9051 -0.2947
  317MOL0     H41834  10.457   9.963   0.405 -1.3020  0.8950  0.1078
  317MOL0     H41835  10.428   9.789   0.475 -0.9355 -1.6704 -1.6922
  317MOL0     H41836  10.230   9.950   0.435 -1.5927 -1.0376 -0.5501
  317MOL0     H41837  10.264   9.938   0.263 -1.7445  1.0662  0.7928
  317MOL0     H41838  10.197   9.688   0.421  1.7557 -0.7801 -1.2915
  317MOL0     H41839  10.208   9.721   0.249 -0.3766  2.2498 -0.9482
  317MOL0     H41840  10.029   9.867   0.450  3.3715 -1.1820 -0.3694
  317MOL0     H41841  10.019   9.898   0.279 -0.2131  0.5684  0.3817
  317MOL0     H41842   9.805   9.537   0.266 -1.0562  0.7499  0.2389
  317MOL0     H41843  10.624   9.632   0.131 -1.5515  0.6053  1.2462
  317MOL0     H41844  10.852   9.602   0.148 -3.0273 -0.8100  1.0159
  318MOL0     O41845  10.024   4.835   8.304 -0.4507  0.5186 -0.6099
  318MOL0     C41846  10.059   4.873   8.420 -0.4614 -0.1245 -0.1102
  318MOL0     O41847   9.977   4.885   8.529  0.0415 -0.0113 -0.5991
  318MOL0     C41848   9.840   4.867   8.522  1.0947 -0.2747 -1.1104
  318MOL0     C41849   9.760   4.792   8.429 -0.7514 -0.2010 -1.2880
  318MOL0     C41850   9.620   4.782   8.439  0.1964  0.6930  0.1707
  318MOL0     C41851   9.552   4.839   8.543 -0.2925 -0.1528 -0.2374
  318MOL0     O41852   9.415   4.828   8.553 -0.2170 -0.4083  0.3693
  318MOL0     C41853   9.347   4.919   8.450 -0.8571  0.1101 -0.6260
  318MOL0     C41854   9.231   4.856   8.382 -0.0679  0.2062  0.3053
  318MOL0     C41855   9.139   4.775   8.484  0.0288  0.5391 -0.2573
  318MOL0     C41856   9.032   4.694   8.409  0.0995  0.3411 -0.2698
  318MOL0     C41857   8.965   4.591   8.502  1.0100 -0.2843  0.2585
  318MOL0     C41858   8.827   4.547   8.438 -0.1269  1.0815 -0.1180
  318MOL0     C41859   8.748   4.450   8.523 -0.4159 -0.3276  0.8985
  318MOL0     C41860   8.638   4.381   8.447 -0.3020 -0.8254 -0.1987
  318MOL0     N41861   8.571   4.281   8.534  0.0545  0.4456 -0.1259
  318MOL0     C41862   8.476   4.195   8.479 -0.1161 -1.2438  0.4239
  318MOL0     C41863   8.438   4.118   8.577 -0.1473 -0.5353 -0.0646
  318MOL0     C41864   8.324   4.026   8.580  0.0590  0.6252  1.0442
  318MOL0     C41865   8.200   4.100   8.644 -0.5579 -0.6791  0.2346
  318MOL0     C41866   8.067   4.040   8.617  1.3062 -0.2920  0.0808
  318MOL0     C41867   7.942   4.092   8.706 -0.0361 -0.2150  0.7577
  318MOL0     O41868   7.861   3.979   8.750 -0.5406 -0.4421  0.0856
  318MOL0     C41869   7.743   4.014   8.805 -0.4878 -0.3515 -0.0968
  318MOL0     C41870   7.700   4.138   8.830 -1.0088 -0.3065 -0.6573
  318MOL0     C41871   7.577   4.165   8.874  0.3664 -0.0758  0.4143
  318MOL0     C41872   7.476   4.069   8.901 -0.4872  0.7538 -0.9423
  318MOL0     C41873   7.356   4.101   8.962  1.1841  0.6023  0.3860
  318MOL0     O41874   7.330   4.226   8.994  0.8663  0.4970 -0.4217
  318MOL0     C41875   7.213   4.250   9.052  0.3862 -0.4025 -0.3804
  318MOL0     C41876   7.087   4.253   8.988  0.2768 -0.9313 -0.1298
  318MOL0     C41877   6.966   4.297   9.045 -0.2922  0.2220 -0.2888
  318MOL0     C41878   6.962   4.339   9.181  0.8351 -0.5829  0.2125
  318MOL0     O41879   6.841   4.382   9.234  0.3633  0.2750  0.2435
  318MOL0     C41880   6.845   4.424   9.375  0.5318 -0.4348 -0.3991
  318MOL0     C41881   6.706   4.499   9.411 -0.7947 -0.3952  0.1845
  318MOL0     C41882   6.586   4.403   9.414 -0.2707  0.3711 -0.3412
  318MOL0     C41883   6.459   4.494   9.437  0.0011 -0.4390 -0.6811
  318MOL0     C41884   6.331   4.427   9.409 -0.3286 -0.3475  0.5821
  318MOL0     C41885   6.217   4.521   9.409  0.1965 -0.2142 -0.3858
  318MOL0     C41886   6.079   4.448   9.398  0.0398 -0.0791  0.5837
  318MOL0     C41887   6.031   4.362   9.522 -0.2731 -0.4831 -0.5009
  318MOL0    Cl41888   5.962   4.464   9.643  0.0101 -0.1748 -0.1140
  318MOL0     C41889   7.090   4.341   9.242 -0.0046  0.3055  1.1807
  318MOL0     C41890   7.215   4.307   9.184 -0.3868  0.5339  0.3422
  318MOL0     O41891   7.275   4.011   8.964 -0.0166  0.4446  0.2183
  318MOL0     C41892   7.514   3.941   8.871 -0.1023 -0.1151  0.4501
  318MOL0     C41893   7.648   3.910   8.828 -0.6229  0.0718  0.5521
  318MOL0     N41894   8.515   4.143   8.695 -0.5737  0.0080  0.1401
  318MOL0     N41895   8.598   4.247   8.663 -0.3105  0.0742  0.4616
  318MOL0     C41896   9.625   4.912   8.639 -0.7907  0.8360 -0.3833
  318MOL0     C41897   9.767   4.916   8.638 -0.0767 -0.2894  0.5621
  318MOL0     C41898  10.202   4.889   8.441  0.1586 -0.6324 -0.1600
  318MOL0     C41899  10.261   4.865   8.569 -0.5432 -0.7792  0.4142
  318MOL0     C41900  10.404   4.859   8.576 -0.4970  0.1151  0.0037
  318MOL0     C41901  10.493   4.888   8.470  0.8650 -0.3022  0.1585
  318MOL0     O41902  10.627   4.869   8.499  0.0844  0.3512  0.5435
  318MOL0     C41903  10.725   4.875   8.389 -0.2281 -0.3585  0.0163
  318MOL0     C41904  10.866   4.882   8.453 -0.4603  0.4495  0.7591
  318MOL0     C41905  10.973   4.831   8.349 -0.1277  0.2402 -0.2226
  318MOL0     C41906  11.119   4.843   8.404  0.3093 -0.4535  0.1717
  318MOL0     C41907  11.138   4.773   8.529 -0.4050 -0.5079  0.1470
  318MOL0     C41908  11.137   4.699   8.626 -0.3859  0.6877  0.3354
  318MOL0     C41909  10.429   4.927   8.352 -0.1381 -0.3956  0.2441
  318MOL0     C41910  10.287   4.927   8.339 -0.3920  0.3593  0.1702
  318MOL0     H41911   9.802   4.733   8.347 -0.9807  0.9832 -2.2806
  318MOL0     H41912   9.570   4.728   8.360  0.3277 -0.5343  0.9047
  318MOL0     H41913   9.419   4.959   8.378 -0.8017 -1.2822 -1.3676
  318MOL0     H41914   9.316   5.006   8.510 -2.1534 -1.0177  0.4023
  318MOL0     H41915   9.259   4.792   8.297 -2.0640  1.1489 -1.1209
  318MOL0     H41916   9.174   4.940   8.344 -2.4310  0.1825  3.3625
  318MOL0     H41917   9.092   4.848   8.551 -1.7812  0.0372 -0.9172
  318MOL0     H41918   9.206   4.713   8.544 -1.4327 -0.3087  0.5344
  318MOL0     H41919   8.962   4.764   8.363 -0.8198  0.8202  1.7572
  318MOL0     H41920   9.064   4.643   8.318 -0.8949  0.1186 -0.5072
  318MOL0     H41921   8.954   4.657   8.588 -0.0811  1.7080 -1.2964
  318MOL0     H41922   9.022   4.499   8.515  0.7298 -0.6054 -0.7060
  318MOL0     H41923   8.845   4.494   8.344 -2.9001 -1.2900  0.5577
  318MOL0     H41924   8.766   4.636   8.423  0.3469  1.7098  1.4652
  318MOL0     H41925   8.809   4.374   8.572 -1.4779 -1.4412  0.5623
  318MOL0     H41926   8.699   4.501   8.606 -1.8704 -0.9342  0.4477
  318MOL0     H41927   8.665   4.335   8.351 -2.7264  1.8882 -2.3696
  318MOL0     H41928   8.565   4.457   8.418  2.1245  1.4014 -0.8414
  318MOL0     H41929   8.440   4.199   8.376  2.6678  1.0631 -0.5787
  318MOL0     H41930   8.348   3.939   8.641  0.0509  0.3747  0.6898
  318MOL0     H41931   8.286   3.994   8.483 -0.5518  0.3167  1.3781
  318MOL0     H41932   8.196   4.200   8.598  3.3012 -0.6328 -0.2767
  318MOL0     H41933   8.223   4.123   8.748  1.5581  3.2503 -0.9100
  318MOL0     H41934   8.046   4.052   8.510  2.4784  0.8922 -0.0525
  318MOL0     H41935   8.083   3.934   8.637  1.3676 -0.8052 -2.3614
  318MOL0     H41936   7.886   4.156   8.638  0.2414  0.3129  1.0144
  318MOL0     H41937   7.985   4.151   8.788  2.9005  1.3649 -1.7045
  318MOL0     H41938   7.767   4.224   8.828 -1.0356 -0.1817  1.7509
  318MOL0     H41939   7.563   4.272   8.890  1.7950  0.6163 -2.2996
  318MOL0     H41940   7.085   4.210   8.888  0.1162 -1.2532  0.0099
  318MOL0     H41941   6.875   4.292   8.986 -0.1970  1.0524 -0.5076
  318MOL0     H41942   6.924   4.498   9.390  0.1322 -0.4206  2.0383
  318MOL0     H41943   6.867   4.340   9.441  2.3993  1.5962  1.7513
  318MOL0     H41944   6.693   4.569   9.328 -1.8771 -1.0027 -0.1798
  318MOL0     H41945   6.712   4.555   9.504  0.0588  0.0429 -0.1170
  318MOL0     H41946   6.593   4.339   9.503  0.0598  0.9702  0.0784
  318MOL0     H41947   6.580   4.352   9.318  1.1075  0.2705 -0.4019
  318MOL0     H41948   6.443   4.522   9.542 -3.0802  0.0653 -1.2197
  318MOL0     H41949   6.474   4.587   9.382 -1.5875  1.8759  2.5009
  318MOL0     H41950   6.311   4.348   9.482 -0.0680 -1.0682 -0.1171
  318MOL0     H41951   6.343   4.384   9.309  0.6621 -2.4576  1.5591
  318MOL0     H41952   6.224   4.590   9.324 -1.3769 -2.2547 -2.3014
  318MOL0     H41953   6.221   4.573   9.505 -0.1384 -1.3245  0.2590
  318MOL0     H41954   6.005   4.527   9.382 -0.1454 -0.1555  1.0489
  318MOL0     H41955   6.089   4.381   9.313 -1.8817 -1.7169  1.5763
  318MOL0     H41956   6.123   4.321   9.565 -0.9662 -0.2439  1.2807
  318MOL0     H41957   5.967   4.277   9.496 -0.1901 -0.3424 -1.2072
  318MOL0     H41958   7.095   4.380   9.343  0.1067  1.6647  0.6664
  318MOL0     H41959   7.307   4.304   9.241  0.0709 -0.7263 -0.4273
  318MOL0     H41960   7.451   3.854   8.882 -3.0482  1.6784 -0.8573
  318MOL0     H41961   7.666   3.804   8.817 -2.9655 -0.2444 -1.0469
  318MOL0     H41962   9.579   4.952   8.729  0.5383  2.7684 -0.5229
  318MOL0     H41963   9.816   4.970   8.718  0.6931 -0.7331  0.4007
  318MOL0     H41964  10.201   4.847   8.658 -2.6190  2.8213 -0.0695
  318MOL0     H41965  10.443   4.818   8.668 -0.1994 -0.5003 -0.3943
  318MOL0     H41966  10.708   4.968   8.334 -1.5297 -0.3597  0.3897
  318MOL0     H41967  10.712   4.787   8.327  0.0167 -0.1296 -0.3656
  318MOL0     H41968  10.897   4.981   8.486 -0.1833  0.9393 -0.8776
  318MOL0     H41969  10.861   4.818   8.542 -0.2067  2.7832  2.5617
  318MOL0     H41970  10.964   4.891   8.258 -1.0769 -0.1370 -0.3927
  318MOL0     H41971  10.961   4.728   8.314  1.4307  0.6111 -1.9848
  318MOL0     H41972  11.189   4.794   8.335 -3.3091 -6.0528 -0.1562
  318MOL0     H41973  11.143   4.949   8.416 -3.8535  0.8156 -1.1362
  318MOL0     H41974  11.132   4.613   8.690  1.0525 -0.5646 -1.1478
  318MOL0     H41975  10.486   4.946   8.262 -2.2818 -0.5707 -1.2438
  318MOL0     H41976  10.237   4.944   8.244  0.4102  1.2501 -0.1004
  319MOL0     O41977  10.939   0.710   8.099 -0.3516  0.1910 -0.1066
  319MOL0     C41978  10.944   0.799   8.184  0.5570  0.0829  0.3704
  319MOL0     O41979  10.845   0.824   8.275 -0.4300 -0.2604 -0.5214
  319MOL0     C41980  10.742   0.739   8.279  0.3404 -0.5149  0.7641
  319MOL0     C41981  10.643   0.727   8.171 -0.9171 -0.5946 -0.4757
  319MOL0     C41982  10.529   0.657   8.185 -0.0903 -0.1582 -0.3353
  319MOL0     C41983  10.489   0.604   8.313 -0.1964 -0.3712  0.6457
  319MOL0     O41984  10.378   0.523   8.333 -0.0601  0.6432  0.6187
  319MOL0     C41985  10.270   0.530   8.236 -0.2904  0.7099  0.4361
  319MOL0     C41986  10.137   0.465   8.294  0.6624 -0.3012 -0.2299
  319MOL0     C41987  10.013   0.465   8.203  0.1236  0.1931 -0.2286
  319MOL0     C41988   9.910   0.367   8.261  0.8141 -0.1812  0.3598
  319MOL0     C41989   9.850   0.424   8.400 -0.8928 -0.3797  0.2143
  319MOL0     C41990   9.789   0.561   8.382  0.1583 -0.0855 -0.8631
  319MOL0     C41991   9.710   0.606   8.508  0.4240  0.1502  0.1106
  319MOL0     C41992   9.595   0.520   8.547 -0.4150  0.4286 -0.3884
  319MOL0     N41993   9.483   0.518   8.447 -0.4336  0.6278  1.1121
  319MOL0     C41994   9.439   0.629   8.379  0.3423 -0.0915 -0.2439
  319MOL0     C41995   9.335   0.582   8.305 -0.4872 -0.0709 -0.5755
  319MOL0     C41996   9.243   0.662   8.222 -0.4771  0.0392  0.3593
  319MOL0     C41997   9.268   0.636   8.075  0.7446 -0.1521  0.2429
  319MOL0     C41998   9.142   0.664   7.983  0.4306 -0.0647  0.0073
  319MOL0     C41999   9.115   0.560   7.871 -1.4203  0.1372 -0.2856
  319MOL0     O42000   9.012   0.611   7.789 -0.4937  0.2688  0.6341
  319MOL0     C42001   8.882   0.580   7.826  0.5995 -0.2917  0.4002
  319MOL0     C42002   8.813   0.683   7.892 -0.0626  0.3055 -0.4006
  319MOL0     C42003   8.683   0.672   7.929  0.5446  1.3769 -0.1711
  319MOL0     C42004   8.620   0.545   7.915 -0.3585  0.3655 -0.9314
  319MOL0     C42005   8.475   0.526   7.952 -0.4467  0.4425 -1.1899
  319MOL0     O42006   8.420   0.416   7.900 -0.5079 -0.2759  0.0228
  319MOL0     C42007   8.290   0.390   7.924  0.5447  0.5273 -0.1690
  319MOL0     C42008   8.194   0.449   7.847  0.7647 -0.7709  0.4480
  319MOL0     C42009   8.055   0.443   7.872  0.3088 -0.8821 -0.1100
  319MOL0     C42010   8.015   0.366   7.980  0.7816  0.6830  0.4999
  319MOL0     O42011   7.888   0.338   8.028 -0.3461 -0.4367  0.0157
  319MOL0     C42012   7.775   0.390   7.948  0.0285 -0.0319 -0.1128
  319MOL0     C42013   7.645   0.362   8.028 -0.0833 -0.2955 -0.2931
  319MOL0     C42014   7.532   0.411   7.939  0.2540  0.4280  0.2406
  319MOL0     C42015   7.401   0.352   7.980  0.5473 -0.4345  0.1889
  319MOL0     C42016   7.275   0.383   7.898  0.1895  0.1782  0.5730
  319MOL0     C42017   7.149   0.370   7.990 -0.3891 -0.5978  0.4909
  319MOL0     C42018   7.020   0.391   7.903 -0.0253 -0.2454  0.5171
  319MOL0     C42019   6.890   0.401   7.972 -0.0541 -0.2246 -0.6356
  319MOL0    Cl42020   6.787   0.474   7.840  0.3764 -0.7425 -0.1723
  319MOL0     C42021   8.113   0.297   8.057 -0.2319  1.0122 -0.3180
  319MOL0     C42022   8.247   0.312   8.026 -0.1076 -0.1198  0.0201
  319MOL0     O42023   8.426   0.609   8.026  0.0735 -0.1444  0.5394
  319MOL0     C42024   8.692   0.439   7.866  0.3028  0.2983  0.4044
  319MOL0     C42025   8.821   0.456   7.810 -0.2193  0.3887 -0.3098
  319MOL0     N42026   9.310   0.449   8.341  0.3660 -0.6548  0.5143
  319MOL0     N42027   9.396   0.410   8.417 -0.7218 -0.6081 -0.4005
  319MOL0     C42028  10.586   0.606   8.410 -0.9980  0.6580 -0.7150
  319MOL0     C42029  10.708   0.675   8.405 -0.8404 -0.3884  0.2936
  319MOL0     C42030  11.073   0.881   8.196  0.2562  0.6907 -0.0286
  319MOL0     C42031  11.075   1.000   8.265  0.1233  0.0728 -0.2757
  319MOL0     C42032  11.199   1.060   8.284  0.2708  0.4066 -0.2731
  319MOL0     C42033  11.321   1.003   8.238 -0.2004  0.2095  0.1427
  319MOL0     O42034  11.444   1.059   8.241  0.3188  0.4374 -0.8967
  319MOL0     C42035  11.462   1.190   8.303 -0.2605 -0.1780  0.7053
  319MOL0     C42036  11.509   1.166   8.441  0.6282  0.7780 -0.5860
  319MOL0     C42037  11.636   1.079   8.451 -0.2748 -0.1778  0.6294
  319MOL0     C42038  11.717   1.126   8.568 -0.6874 -0.5208  0.0661
  319MOL0     C42039  11.829   1.028   8.594 -0.0692  0.3633  0.1968
  319MOL0     C42040  11.924   0.962   8.602 -0.6597  0.2087 -0.9343
  319MOL0     C42041  11.318   0.888   8.159  0.4826  0.6776  0.2311
  319MOL0     C42042  11.194   0.824   8.141 -0.0223  0.1065  0.0011
  319MOL0     H42043  10.681   0.770   8.078  0.3481 -0.2698  0.1675
  319MOL0     H42044  10.459   0.647   8.102 -2.3988 -0.0411  1.5144
  319MOL0     H42045  10.311   0.472   8.152 -0.2056  1.1712  0.1550
  319MOL0     H42046  10.261   0.634   8.205  1.9263  1.1213  0.9798
  319MOL0     H42047  10.113   0.526   8.383 -0.2662 -0.2153 -0.5303
  319MOL0     H42048  10.153   0.366   8.338 -0.2408 -0.7731 -0.9462
  319MOL0     H42049  10.036   0.427   8.103 -0.8778 -4.0618  0.9474
  319MOL0     H42050   9.974   0.566   8.192  3.7161  1.7760  0.1454
  319MOL0     H42051   9.832   0.366   8.184  0.1383  0.3791  1.0163
  319MOL0     H42052   9.948   0.266   8.276  0.6848 -0.4738 -1.0899
  319MOL0     H42053   9.934   0.428   8.470 -1.3097  2.7130  0.6878
  319MOL0     H42054   9.767   0.358   8.430  0.4613 -0.9286  3.1454
  319MOL0     H42055   9.726   0.568   8.293  0.3197  0.4160 -0.9366
  319MOL0     H42056   9.875   0.628   8.373  0.1960 -0.4165 -3.6755
  319MOL0     H42057   9.779   0.616   8.592 -0.1920  0.5584  0.5705
  319MOL0     H42058   9.671   0.705   8.482 -1.2741 -0.7463 -0.8651
  319MOL0     H42059   9.555   0.565   8.639  1.7210  0.7827  0.4283
  319MOL0     H42060   9.620   0.417   8.570  0.1972  0.3571 -1.3358
  319MOL0     H42061   9.469   0.732   8.397 -2.0408  0.8246 -1.0834
  319MOL0     H42062   9.255   0.769   8.239  1.8492  0.2289 -1.8089
  319MOL0     H42063   9.141   0.636   8.251  0.3180 -1.3439  2.0965
  319MOL0     H42064   9.278   0.528   8.064  0.0255 -0.2593  0.5386
  319MOL0     H42065   9.360   0.675   8.031  0.9203  2.6899  2.7939
  319MOL0     H42066   9.051   0.680   8.041 -0.6744  1.3684 -1.9825
  319MOL0     H42067   9.157   0.760   7.934 -1.6264  0.7204  0.7837
  319MOL0     H42068   9.095   0.464   7.919 -1.3065 -0.1296 -0.7633
  319MOL0     H42069   9.209   0.553   7.816 -0.6801 -2.4223  1.1663
  319MOL0     H42070   8.856   0.783   7.898  0.1440  0.1954 -0.0148
  319MOL0     H42071   8.631   0.766   7.949  1.6150  2.0698 -0.5397
  319MOL0     H42072   8.230   0.520   7.772  1.1178 -0.2158  1.1326
  319MOL0     H42073   7.986   0.495   7.806  0.7034 -0.8772 -0.5243
  319MOL0     H42074   7.775   0.346   7.848  0.3630 -0.7231  0.1849
  319MOL0     H42075   7.783   0.497   7.930  0.3491  0.5096  2.8120
  319MOL0     H42076   7.647   0.432   8.112  1.0913  1.4874 -1.7162
  319MOL0     H42077   7.633   0.256   8.051 -1.9059 -0.1093 -0.2676
  319MOL0     H42078   7.551   0.376   7.837  2.4426 -0.0583  0.7514
  319MOL0     H42079   7.524   0.520   7.947 -2.7895  0.1674  2.0357
  319MOL0     H42080   7.414   0.243   7.972  0.6241 -0.2914 -2.7188
  319MOL0     H42081   7.388   0.388   8.082  4.3312  0.5976  0.4494
  319MOL0     H42082   7.270   0.318   7.811  0.5252  1.3420 -0.3442
  319MOL0     H42083   7.284   0.485   7.860 -0.9514 -0.1606 -0.6805
  319MOL0     H42084   7.149   0.451   8.063  0.1235  0.3651 -0.5384
  319MOL0     H42085   7.140   0.276   8.044 -1.9508 -0.2392  0.8935
  319MOL0     H42086   7.036   0.480   7.841 -1.4511 -2.1874 -2.9043
  319MOL0     H42087   7.013   0.310   7.831 -3.1682  2.0749 -2.0806
  319MOL0     H42088   6.902   0.474   8.053  0.8816 -0.4567 -0.5493
  319MOL0     H42089   6.860   0.306   8.017  2.3199 -1.2133 -1.0106
  319MOL0     H42090   8.086   0.237   8.143  4.0941  0.8482  1.1589
  319MOL0     H42091   8.315   0.258   8.092 -2.1387  0.2829  2.5952
  319MOL0     H42092   8.647   0.341   7.855 -0.9016  1.0836 -2.6932
  319MOL0     H42093   8.876   0.385   7.750  0.3483 -0.4144  1.1172
  319MOL0     H42094  10.571   0.544   8.498 -1.2642 -1.8105 -2.4169
  319MOL0     H42095  10.786   0.679   8.480 -1.1167  1.8477  0.5502
  319MOL0     H42096  10.987   1.045   8.311  1.1831 -1.1285  3.3169
  319MOL0     H42097  11.205   1.144   8.352  1.0095 -1.9646  2.8596
  319MOL0     H42098  11.376   1.258   8.294  0.0179 -0.0304 -1.4862
  319MOL0     H42099  11.548   1.235   8.251 -0.9539  1.8845  1.2388
  319MOL0     H42100  11.536   1.261   8.489 -1.4463  1.9271 -1.5649
  319MOL0     H42101  11.432   1.114   8.498 -0.6644  0.3994 -2.6135
  319MOL0     H42102  11.694   1.080   8.359  2.6977 -3.1913  2.2480
  319MOL0     H42103  11.603   0.974   8.448  0.7842 -0.4910 -1.0208
  319MOL0     H42104  11.758   1.227   8.556 -0.1621 -0.0840  4.1278
  319MOL0     H42105  11.645   1.138   8.650  0.2951  1.1862  0.7336
  319MOL0     H42106  12.013   0.903   8.614 -1.4659 -1.1214 -1.2898
  319MOL0     H42107  11.405   0.830   8.129  0.3722  0.4055  0.4327
  319MOL0     H42108  11.196   0.741   8.071 -2.0156  0.9157 -1.0857
  320MOL0     O42109   5.708   1.373   4.297  0.1401 -0.3096 -0.6306
  320MOL0     C42110   5.760   1.284   4.360  0.2108  0.0568 -0.5973
  320MOL0     O42111   5.690   1.212   4.451  0.2734  0.0361 -0.5574
  320MOL0     C42112   5.550   1.216   4.460 -0.6920  0.1127  0.2113
  320MOL0     C42113   5.461   1.223   4.354  0.7492  0.4489 -0.1217
  320MOL0     C42114   5.325   1.237   4.377  0.3174  0.9265 -1.3755
  320MOL0     C42115   5.271   1.227   4.506  0.2730  0.7801  0.4819
  320MOL0     O42116   5.134   1.241   4.518 -0.6334  0.0108  0.5488
  320MOL0     C42117   5.081   1.269   4.649 -0.1588  0.4834 -0.2358
  320MOL0     C42118   4.932   1.315   4.649 -0.3742  0.8141 -0.5068
  320MOL0     C42119   4.855   1.183   4.641 -0.4964 -0.4222  0.1331
  320MOL0     C42120   4.704   1.201   4.616  0.0874 -0.0561 -0.8282
  320MOL0     C42121   4.627   1.075   4.673 -0.4310  0.8604  0.4595
  320MOL0     C42122   4.481   1.108   4.706  0.0440  0.6397 -0.4500
  320MOL0     C42123   4.392   0.990   4.732  0.3159  0.0932  0.4753
  320MOL0     C42124   4.356   0.922   4.602 -0.2552  0.5166  0.3585
  320MOL0     N42125   4.236   0.842   4.625 -0.5922  0.6194 -0.3719
  320MOL0     C42126   4.109   0.857   4.570 -0.3041  0.0589  0.1123
  320MOL0     C42127   4.042   0.754   4.622 -0.6373  0.2526  0.2643
  320MOL0     C42128   3.901   0.721   4.586 -0.0669 -0.3845 -0.2071
  320MOL0     C42129   3.803   0.742   4.705 -0.9653  0.4184  0.1879
  320MOL0     C42130   3.799   0.638   4.818 -0.4547  0.2872 -0.1515
  320MOL0     C42131   3.763   0.498   4.772  0.2287  0.7803  0.6159
  320MOL0     O42132   3.635   0.487   4.708  0.3497 -0.3822 -0.0729
  320MOL0     C42133   3.591   0.369   4.651 -0.7498 -0.1985 -0.8348
  320MOL0     C42134   3.668   0.243   4.655  0.4796 -0.9154  0.6110
  320MOL0     C42135   3.617   0.135   4.598  0.7015 -0.2689 -0.2815
  320MOL0     C42136   3.494   0.132   4.536  0.3453 -0.0361 -0.2867
  320MOL0     C42137   3.449   0.005   4.476 -0.9756 -0.1047  0.7506
  320MOL0     O42138   3.537  -0.102   4.467  0.0043  0.9127 -0.6467
  320MOL0     C42139   3.482  -0.209   4.417  0.7643  0.3280  0.0772
  320MOL0     C42140   3.408  -0.289   4.504  0.4666 -0.4519  0.0165
  320MOL0     C42141   3.338  -0.398   4.455  0.1360  1.1767  0.6235
  320MOL0     C42142   3.361  -0.438   4.324 -0.0703  0.5674 -0.0776
  320MOL0     O42143   3.298  -0.560   4.287 -0.2733 -0.6300  0.2396
  320MOL0     C42144   3.322  -0.634   4.164  0.1256  0.7769 -0.4140
  320MOL0     C42145   3.253  -0.769   4.152  0.1377  0.2543  0.5275
  320MOL0     C42146   3.103  -0.757   4.182 -0.2869  0.6612 -0.0553
  320MOL0     C42147   3.018  -0.885   4.164  0.4232 -0.2938 -0.6510
  320MOL0     C42148   2.878  -0.842   4.198  1.0352  0.2648  0.5284
  320MOL0     C42149   2.781  -0.964   4.207  0.6893 -0.4193  0.2831
  320MOL0     C42150   2.639  -0.920   4.204  0.2521 -0.5765 -0.4649
  320MOL0     C42151   2.544  -1.018   4.277 -0.2200 -0.0789 -0.3135
  320MOL0    Cl42152   2.475  -1.115   4.147  0.3545 -0.2699 -0.2132
  320MOL0     C42153   3.439  -0.363   4.236 -0.9832  1.0185 -0.3767
  320MOL0     C42154   3.497  -0.247   4.282  0.5620 -0.1736 -0.7937
  320MOL0     O42155   3.334  -0.002   4.435 -0.2160 -0.4984  0.0602
  320MOL0     C42156   3.414   0.250   4.535 -0.0740  0.1672  0.4708
  320MOL0     C42157   3.465   0.369   4.591 -0.2508  0.3075 -0.3845
  320MOL0     N42158   4.115   0.679   4.709  0.0551 -0.2990  0.3562
  320MOL0     N42159   4.235   0.731   4.708  0.8911  0.8656  0.3735
  320MOL0     C42160   5.360   1.218   4.614 -0.1904 -0.0061  0.1574
  320MOL0     C42161   5.496   1.204   4.591  0.1397 -0.3485  0.3376
  320MOL0     C42162   5.907   1.273   4.359 -0.9182 -0.3527 -0.6406
  320MOL0     C42163   5.987   1.375   4.316 -0.3132 -0.4299  0.1847
  320MOL0     C42164   6.124   1.356   4.310 -0.0653  0.0162 -0.2733
  320MOL0     C42165   6.186   1.242   4.358  0.0378  0.7708 -0.2269
  320MOL0     O42166   6.326   1.255   4.369  0.3564  0.6984  0.5327
  320MOL0     C42167   6.397   1.134   4.406 -0.2051 -0.0775  0.0875
  320MOL0     C42168   6.547   1.151   4.387  0.0333 -0.3407  0.5451
  320MOL0     C42169   6.616   1.013   4.427  0.3538 -0.0291  0.0017
  320MOL0     C42170   6.769   1.018   4.387 -0.3013  0.4780 -0.1304
  320MOL0     C42171   6.844   1.131   4.436  1.2705 -0.5229 -0.0516
  320MOL0     C42172   6.905   1.230   4.452  0.6853  0.1886  0.2324
  320MOL0     C42173   6.100   1.132   4.394 -0.3880  0.2218  0.0646
  320MOL0     C42174   5.960   1.151   4.399  0.3056  0.7021 -0.3698
  320MOL0     H42175   5.498   1.222   4.252  1.4435 -2.5697  0.0519
  320MOL0     H42176   5.249   1.231   4.299  0.2231  0.3038 -1.2383
  320MOL0     H42177   5.136   1.355   4.690 -0.3326  0.7221 -0.4956
  320MOL0     H42178   5.085   1.192   4.726  0.8443  3.0050  2.4557
  320MOL0     H42179   4.904   1.374   4.561  0.8729 -0.1295 -1.5625
  320MOL0     H42180   4.901   1.372   4.738 -0.6153 -1.0318  0.6382
  320MOL0     H42181   4.864   1.138   4.741 -1.1033 -0.6900  0.0782
  320MOL0     H42182   4.905   1.127   4.562 -0.3571  0.9222 -0.7533
  320MOL0     H42183   4.671   1.278   4.687 -1.5196 -1.6215  0.2165
  320MOL0     H42184   4.681   1.233   4.514  1.5203  3.6188 -0.1758
  320MOL0     H42185   4.672   1.028   4.761  1.4772  0.1786 -0.8106
  320MOL0     H42186   4.619   1.006   4.587  2.9995  2.8438 -1.7096
  320MOL0     H42187   4.429   1.164   4.627 -1.2749  0.3913  0.2100
  320MOL0     H42188   4.483   1.176   4.792  2.0886  2.0554 -1.5406
  320MOL0     H42189   4.438   0.934   4.814  0.0481  2.2355  2.2023
  320MOL0     H42190   4.302   1.035   4.776  1.9081  2.3372  1.6069
  320MOL0     H42191   4.433   0.851   4.572 -2.1720 -1.2211 -0.7081
  320MOL0     H42192   4.336   0.998   4.526  0.5283  0.0408 -0.3310
  320MOL0     H42193   4.065   0.930   4.502 -1.2244 -1.8414 -1.4154
  320MOL0     H42194   3.907   0.618   4.550  1.2774 -0.6124  0.5880
  320MOL0     H42195   3.877   0.790   4.505  1.8087  0.2109 -0.3143
  320MOL0     H42196   3.701   0.735   4.664 -0.4882 -1.3090 -0.8255
  320MOL0     H42197   3.822   0.842   4.745  1.8905 -0.2707  0.7309
  320MOL0     H42198   3.890   0.640   4.879 -0.7327 -1.2107  0.3706
  320MOL0     H42199   3.715   0.666   4.882 -0.0249 -0.7219  0.9004
  320MOL0     H42200   3.758   0.440   4.865 -2.5231  0.0620  0.0856
  320MOL0     H42201   3.842   0.459   4.707 -0.3518 -0.9766  0.9382
  320MOL0     H42202   3.768   0.233   4.695  1.3564  0.8570 -0.9650
  320MOL0     H42203   3.686   0.052   4.593  3.4308  1.9165 -1.1108
  320MOL0     H42204   3.383  -0.263   4.606 -3.2853  1.2764 -1.1339
  320MOL0     H42205   3.260  -0.448   4.511  1.7622 -0.3345  1.6436
  320MOL0     H42206   3.430  -0.652   4.164 -0.2234 -1.6521  0.3821
  320MOL0     H42207   3.300  -0.572   4.077  0.0460  0.5213 -0.5776
  320MOL0     H42208   3.295  -0.831   4.232  0.4642 -1.2152 -0.7357
  320MOL0     H42209   3.268  -0.822   4.057 -1.5158  0.5280  0.0782
  320MOL0     H42210   3.054  -0.684   4.117 -2.7266  0.0448  0.9620
  320MOL0     H42211   3.082  -0.722   4.284 -1.5910 -0.2676  0.0164
  320MOL0     H42212   3.036  -0.923   4.064  1.5282 -1.0687 -0.1681
  320MOL0     H42213   3.059  -0.962   4.229  3.0930  0.0093 -1.8706
  320MOL0     H42214   2.834  -0.775   4.123  0.0816 -2.2071 -1.2628
  320MOL0     H42215   2.875  -0.784   4.291 -0.4141  1.2769 -0.0983
  320MOL0     H42216   2.820  -1.036   4.280  1.4508  0.2219  0.5328
  320MOL0     H42217   2.802  -1.019   4.115  2.9368  0.6759  0.0604
  320MOL0     H42218   2.625  -0.819   4.242  1.2639  0.2067 -2.0909
  320MOL0     H42219   2.605  -0.922   4.100 -3.2508 -2.9591  0.5458
  320MOL0     H42220   2.459  -0.974   4.330 -1.2134  0.0801 -1.9622
  320MOL0     H42221   2.601  -1.090   4.336 -2.6416 -2.0582 -0.1975
  320MOL0     H42222   3.448  -0.400   4.134 -0.6515 -3.3816  1.0257
  320MOL0     H42223   3.554  -0.187   4.211 -2.0929  3.7453  0.0134
  320MOL0     H42224   3.310   0.243   4.505  0.0702 -1.9916  0.2563
  320MOL0     H42225   3.399   0.454   4.606 -1.7672 -0.8522 -0.2455
  320MOL0     H42226   5.324   1.208   4.716  0.4025  0.7266  0.4500
  320MOL0     H42227   5.561   1.186   4.676 -1.6031 -1.7712  1.4160
  320MOL0     H42228   5.944   1.468   4.279  0.4702 -0.6466 -1.3746
  320MOL0     H42229   6.191   1.429   4.266  0.0979  0.8050  1.2017
  320MOL0     H42230   6.359   1.059   4.336  0.3538  1.5826 -2.0900
  320MOL0     H42231   6.377   1.124   4.513  3.7176  1.2701  1.1548
  320MOL0     H42232   6.560   1.158   4.279  0.3415 -0.2251  0.5893
  320MOL0     H42233   6.593   1.235   4.440  1.2612  0.1798 -1.2522
  320MOL0     H42234   6.569   0.934   4.367 -1.2864  0.3160  0.7958
  320MOL0     H42235   6.612   0.990   4.533 -0.0288  1.8886  0.4408
  320MOL0     H42236   6.819   0.925   4.414 -1.1732 -0.7915 -2.5801
  320MOL0     H42237   6.769   1.021   4.278 -1.4553 -1.2290 -0.2193
  320MOL0     H42238   6.973   1.313   4.458  0.3455  0.6820 -1.9422
  320MOL0     H42239   6.145   1.035   4.411  0.0639 -0.0556 -2.3872
  320MOL0     H42240   5.893   1.067   4.416 -1.0626  1.9434  0.6236
  321MOL0     O42241   7.286   4.391  10.570  0.3974  0.4799  0.4355
  321MOL0     C42242   7.349   4.446  10.484 -0.5037  0.1355 -0.4145
  321MOL0     O42243   7.295   4.533  10.394  0.5662 -0.3631  0.0547
  321MOL0     C42244   7.159   4.562  10.391 -0.4317  0.0001 -0.0443
  321MOL0     C42245   7.058   4.461  10.409 -0.4210 -0.4251  0.4879
  321MOL0     C42246   6.929   4.495  10.398 -1.2544  0.6044  0.0327
  321MOL0     C42247   6.885   4.627  10.395 -0.2051  0.5220  1.1275
  321MOL0     O42248   6.754   4.657  10.400  0.2136  0.3591 -0.2424
  321MOL0     C42249   6.666   4.600  10.304  0.8735  0.1836  0.3578
  321MOL0     C42250   6.614   4.709  10.219 -0.2484 -0.0723 -0.4179
  321MOL0     C42251   6.475   4.757  10.255 -0.4866  0.8226 -0.5075
  321MOL0     C42252   6.423   4.854  10.153 -0.3364 -0.5220  0.4179
  321MOL0     C42253   6.310   4.937  10.214  0.0575  0.4260 -0.2294
  321MOL0     C42254   6.286   5.071  10.133 -0.2012  1.0608  0.4890
  321MOL0     C42255   6.207   5.157  10.224 -0.9344  0.1027 -0.0263
  321MOL0     C42256   6.170   5.280  10.139  0.5929  0.3386 -0.4356
  321MOL0     N42257   6.026   5.281  10.104  0.3185  0.0045  0.4752
  321MOL0     C42258   5.959   5.191  10.023 -0.5832 -0.6391  0.2538
  321MOL0     C42259   5.822   5.209  10.049 -0.1139 -0.8881  0.4449
  321MOL0     C42260   5.719   5.110  10.004  1.0305  0.6141  0.1214
  321MOL0     C42261   5.617   5.176   9.898 -0.3014  0.3654 -0.2024
  321MOL0     C42262   5.477   5.216   9.949  1.1119  0.3727 -0.4203
  321MOL0     C42263   5.391   5.306   9.851 -0.1883  0.1029 -0.3745
  321MOL0     O42264   5.359   5.244   9.725  0.8047 -0.8450 -0.2549
  321MOL0     C42265   5.232   5.276   9.684 -0.7366  0.1844 -0.2226
  321MOL0     C42266   5.189   5.410   9.645  0.3639  0.0600 -0.2996
  321MOL0     C42267   5.060   5.430   9.600  0.0899 -0.1513 -0.0267
  321MOL0     C42268   4.958   5.332   9.615  1.0414 -1.0762  0.1371
  321MOL0     C42269   4.810   5.360   9.583  0.1375 -0.2198 -0.8883
  321MOL0     O42270   4.721   5.285   9.651 -0.2446  0.5641  0.0485
  321MOL0     C42271   4.580   5.295   9.634 -0.7503 -0.7347 -0.0354
  321MOL0     C42272   4.503   5.186   9.672 -0.8255 -0.1809 -0.8210
  321MOL0     C42273   4.367   5.195   9.683 -0.0224 -0.2663 -0.1376
  321MOL0     C42274   4.303   5.316   9.648 -0.2466  0.4009  0.2432
  321MOL0     O42275   4.164   5.335   9.648  0.0453  0.0596  0.1941
  321MOL0     C42276   4.080   5.256   9.727 -0.1289  0.6783 -0.7323
  321MOL0     C42277   3.944   5.326   9.745 -0.3039 -0.5321 -0.0665
  321MOL0     C42278   3.879   5.288   9.876  0.4202 -0.4276 -0.6283
  321MOL0     C42279   3.748   5.372   9.902 -0.3422  1.3170 -0.0681
  321MOL0     C42280   3.668   5.301  10.018 -0.1193  0.6153 -0.3221
  321MOL0     C42281   3.537   5.377  10.065 -0.2139  0.8032  0.3008
  321MOL0     C42282   3.426   5.280  10.081 -0.5002 -0.3612 -0.3967
  321MOL0     C42283   3.291   5.336  10.136 -0.4973 -0.0014 -0.1914
  321MOL0    Cl42284   3.322   5.447  10.277 -0.2501  0.1695  0.1279
  321MOL0     C42285   4.375   5.422   9.598  0.9454  0.3901 -0.6053
  321MOL0     C42286   4.511   5.412   9.599 -0.0205  0.1008  0.2158
  321MOL0     O42287   4.789   5.463   9.526  0.4951 -0.4363 -0.0148
  321MOL0     C42288   4.997   5.210   9.661  0.3544 -0.4952  1.0988
  321MOL0     C42289   5.130   5.181   9.692  0.0634 -0.7736  0.0909
  321MOL0     N42290   5.814   5.318  10.133 -0.0144  0.9324  0.2948
  321MOL0     N42291   5.929   5.363  10.162  0.2428  0.3504 -0.3033
  321MOL0     C42292   6.984   4.726  10.374  0.2911  0.7052 -0.0020
  321MOL0     C42293   7.119   4.693  10.368 -0.8860 -0.0762 -1.2270
  321MOL0     C42294   7.498   4.433  10.468 -0.3322 -0.4580 -1.2065
  321MOL0     C42295   7.563   4.527  10.395  0.0533  0.5325 -0.0899
  321MOL0     C42296   7.700   4.511  10.364 -0.3714 -0.0533  0.3335
  321MOL0     C42297   7.780   4.414  10.425  0.2466 -0.4495 -0.1650
  321MOL0     O42298   7.921   4.406  10.416 -0.0380  0.0050  0.3923
  321MOL0     C42299   7.994   4.473  10.308  0.0722 -0.0887  0.6362
  321MOL0     C42300   8.140   4.468  10.346  1.0344 -0.4016 -0.3071
  321MOL0     C42301   8.234   4.545  10.253 -0.2034  0.2631  0.0587
  321MOL0     C42302   8.386   4.560  10.294  0.2479 -0.3949 -0.0574
  321MOL0     C42303   8.471   4.449  10.260 -0.1475 -1.0022  0.2600
  321MOL0     C42304   8.543   4.368  10.216 -0.2806  0.5692  0.8453
  321MOL0     C42305   7.714   4.329  10.517  0.1215 -0.8212  0.2230
  321MOL0     C42306   7.574   4.332  10.535 -0.5308 -0.0046 -0.3809
  321MOL0     H42307   7.091   4.358  10.421  0.1566 -0.5622 -1.7186
  321MOL0     H42308   6.860   4.413  10.414  1.5254 -1.4423  2.7131
  321MOL0     H42309   6.580   4.548  10.348  0.0587  1.9410  0.8927
  321MOL0     H42310   6.722   4.527  10.244  1.7723  2.3630 -1.5641
  321MOL0     H42311   6.619   4.666  10.118  1.0167 -0.9191 -0.0229
  321MOL0     H42312   6.676   4.799  10.210 -1.6751  0.7021 -4.4296
  321MOL0     H42313   6.472   4.796  10.357 -0.6099  0.5502 -0.4091
  321MOL0     H42314   6.406   4.673  10.254  0.2574  0.1938 -2.1982
  321MOL0     H42315   6.506   4.919  10.125 -0.2812 -0.2449  1.2085
  321MOL0     H42316   6.389   4.810  10.059  1.5855 -0.5789 -0.3081
  321MOL0     H42317   6.328   4.955  10.320 -1.4083 -0.2064  0.1577
  321MOL0     H42318   6.214   4.887  10.198  0.2754  0.0374 -0.3285
  321MOL0     H42319   6.237   5.047  10.038  3.0905 -1.5480 -0.7594
  321MOL0     H42320   6.385   5.118  10.123  0.3044  0.1147  0.9054
  321MOL0     H42321   6.118   5.100  10.255 -0.3687 -1.4181 -1.0636
  321MOL0     H42322   6.277   5.182  10.304  1.7252 -2.9683 -1.1573
  321MOL0     H42323   6.237   5.292  10.053  2.5019 -1.3460  0.7360
  321MOL0     H42324   6.196   5.367  10.200 -0.6767  1.1097 -0.9576
  321MOL0     H42325   5.997   5.097   9.983 -0.4063 -0.1522 -0.7449
  321MOL0     H42326   5.664   5.078  10.093 -3.7650  2.7058 -1.7484
  321MOL0     H42327   5.758   5.018   9.959 -1.1715  0.4710 -1.7002
  321MOL0     H42328   5.614   5.115   9.807 -1.4467  2.1182 -1.4162
  321MOL0     H42329   5.670   5.264   9.860  0.6512  0.4600  1.2714
  321MOL0     H42330   5.423   5.126   9.982  0.3516  0.4853 -1.3141
  321MOL0     H42331   5.481   5.269  10.045 -0.8879  1.9631 -1.1470
  321MOL0     H42332   5.437   5.404   9.838  1.0100 -0.0090  2.3544
  321MOL0     H42333   5.300   5.333   9.906  0.4692 -0.2673  0.9370
  321MOL0     H42334   5.242   5.505   9.645 -3.2061  2.2823  0.5365
  321MOL0     H42335   5.019   5.524   9.563  1.4841  0.2375 -0.6674
  321MOL0     H42336   4.573   5.110   9.703  2.8226  3.4529  0.7350
  321MOL0     H42337   4.314   5.108   9.717  1.6020 -1.7970 -1.3261
  321MOL0     H42338   4.125   5.234   9.824 -0.4666  4.7564  0.5195
  321MOL0     H42339   4.055   5.165   9.670  0.1733  0.9456 -1.3037
  321MOL0     H42340   3.872   5.310   9.664 -0.7169 -0.2313  0.2337
  321MOL0     H42341   3.965   5.433   9.741  1.3786 -0.8654 -0.6002
  321MOL0     H42342   3.952   5.294   9.958  0.5510 -3.2205 -0.4666
  321MOL0     H42343   3.855   5.182   9.884 -0.9755 -0.1636 -1.0757
  321MOL0     H42344   3.778   5.473   9.932  0.4734  0.4439  2.3102
  321MOL0     H42345   3.690   5.365   9.810  0.1319  2.0408 -0.4376
  321MOL0     H42346   3.729   5.290  10.107 -1.4595  1.5172  0.7604
  321MOL0     H42347   3.636   5.203   9.980 -0.5285  0.2883  0.8293
  321MOL0     H42348   3.513   5.462  10.000  2.1615  0.9066 -0.5317
  321MOL0     H42349   3.567   5.417  10.162  0.1905 -0.2444  0.6112
  321MOL0     H42350   3.409   5.221   9.991  1.5124  1.3468 -1.9879
  321MOL0     H42351   3.465   5.206  10.152  0.9863 -0.0028 -0.7932
  321MOL0     H42352   3.234   5.250  10.173 -3.4104  2.1844  0.7436
  321MOL0     H42353   3.238   5.390  10.057  1.1371 -0.3849 -1.6144
  321MOL0     H42354   4.328   5.518   9.583 -1.8838 -1.0929 -1.9029
  321MOL0     H42355   4.572   5.498   9.575  2.7979 -0.7847  3.4329
  321MOL0     H42356   4.924   5.130   9.662 -0.6939  0.3038 -1.7352
  321MOL0     H42357   5.156   5.086   9.737  4.5250  0.6112  0.8638
  321MOL0     H42358   6.945   4.826  10.357  3.2701  2.5683  2.9488
  321MOL0     H42359   7.191   4.774  10.370  0.6120 -1.3691  0.1900
  321MOL0     H42360   7.511   4.618  10.364 -1.9039 -0.2875  0.5959
  321MOL0     H42361   7.743   4.581  10.293 -1.5118  0.5591  0.2153
  321MOL0     H42362   7.965   4.578  10.297  2.1581  0.4370 -0.3929
  321MOL0     H42363   7.969   4.430  10.211 -2.0915  0.7009  0.8049
  321MOL0     H42364   8.151   4.510  10.446  2.1127 -1.0182 -0.1533
  321MOL0     H42365   8.162   4.362  10.357 -1.2127 -0.7156  2.4009
  321MOL0     H42366   8.196   4.647  10.241  0.7878  0.6439  0.0927
  321MOL0     H42367   8.221   4.491  10.159  2.4376  2.1867 -1.5509
  321MOL0     H42368   8.424   4.649  10.242 -0.2090 -0.5201 -0.6196
  321MOL0     H42369   8.390   4.573  10.402 -2.0144  0.5697 -0.0361
  321MOL0     H42370   8.609   4.295  10.175 -1.0708  0.3974 -0.1585
  321MOL0     H42371   7.763   4.262  10.586 -0.0231 -2.5507 -1.2864
  321MOL0     H42372   7.520   4.258  10.594 -1.6207  0.8558 -0.2617
  322MOL0     O42373   0.259   4.736   4.310 -0.2307 -0.0695 -0.0297
  322MOL0     C42374   0.261   4.622   4.264  0.9049  0.2770 -0.3524
  322MOL0     O42375   0.154   4.538   4.265 -0.9104 -0.2948  0.0628
  322MOL0     C42376   0.031   4.574   4.305 -0.5399  0.6224 -0.2166
  322MOL0     C42377  -0.033   4.694   4.258 -0.9990  0.3595 -0.2585
  322MOL0     C42378  -0.165   4.724   4.301  0.8389  0.2111  0.5898
  322MOL0     C42379  -0.242   4.634   4.379 -0.0234 -0.2049 -0.1861
  322MOL0     O42380  -0.373   4.668   4.407  0.2694 -0.2223 -1.0195
  322MOL0     C42381  -0.426   4.631   4.538  0.3175 -0.3128  0.0927
  322MOL0     C42382  -0.565   4.688   4.550  0.3826  0.8560  0.3221
  322MOL0     C42383  -0.627   4.699   4.691 -0.0461  0.5632  0.1535
  322MOL0     C42384  -0.708   4.577   4.751 -0.0241  0.0598  0.3171
  322MOL0     C42385  -0.698   4.556   4.907  0.0683  0.2289  0.0830
  322MOL0     C42386  -0.722   4.688   4.986  0.3733 -0.3614 -0.3530
  322MOL0     C42387  -0.834   4.678   5.086  0.3371 -0.0347  0.4226
  322MOL0     C42388  -0.781   4.585   5.197  0.3948 -0.5848 -1.1645
  322MOL0     N42389  -0.879   4.586   5.308 -0.0624  0.7405 -0.1144
  322MOL0     C42390  -0.982   4.490   5.318 -0.0491  0.8037 -0.6706
  322MOL0     C42391  -1.021   4.507   5.453  0.4910  0.1962  0.3506
  322MOL0     C42392  -1.119   4.412   5.527 -0.4111  0.0510  0.6622
  322MOL0     C42393  -1.256   4.474   5.560 -0.2779  0.0743  0.1366
  322MOL0     C42394  -1.332   4.406   5.670 -0.4417  0.5541  0.4796
  322MOL0     C42395  -1.471   4.474   5.676  0.2861  0.1036 -0.4786
  322MOL0     O42396  -1.544   4.417   5.784 -0.3629  0.0225  0.0244
  322MOL0     C42397  -1.674   4.464   5.810 -0.3103 -0.4280  0.0365
  322MOL0     C42398  -1.735   4.568   5.740  0.3890 -0.4058 -0.4374
  322MOL0     C42399  -1.866   4.610   5.773  1.1546  0.1922  0.6083
  322MOL0     C42400  -1.935   4.563   5.887 -0.1411 -0.7193  0.3539
  322MOL0     C42401  -2.059   4.624   5.929  0.0409 -0.1260 -0.3858
  322MOL0     O42402  -2.112   4.575   6.044 -0.2866 -0.2274  1.0074
  322MOL0     C42403  -2.219   4.649   6.092 -0.1062 -0.0801  0.6101
  322MOL0     C42404  -2.208   4.784   6.127 -0.4480 -0.1512 -0.1496
  322MOL0     C42405  -2.320   4.861   6.168 -0.5977 -0.4730 -0.2689
  322MOL0     C42406  -2.449   4.801   6.166  0.0592 -0.0200  0.6049
  322MOL0     O42407  -2.572   4.862   6.195  0.2809  0.1311 -0.2598
  322MOL0     C42408  -2.590   5.002   6.175 -0.2322  0.2569 -0.4781
  322MOL0     C42409  -2.663   5.065   6.297 -0.3961 -0.3847  0.7561
  322MOL0     C42410  -2.565   5.077   6.412 -0.1911 -0.3553 -0.9754
  322MOL0     C42411  -2.453   5.176   6.378 -0.1330 -0.4660 -0.0133
  322MOL0     C42412  -2.381   5.249   6.505 -0.7433  0.4875 -0.6543
  322MOL0     C42413  -2.361   5.147   6.625  1.2231  0.6169 -0.1689
  322MOL0     C42414  -2.299   5.217   6.748 -0.4309  0.0234 -0.6634
  322MOL0     C42415  -2.155   5.265   6.727 -0.4198  0.2067  0.4160
  322MOL0    Cl42416  -2.054   5.121   6.669  0.3528  1.0320  0.5327
  322MOL0     C42417  -2.465   4.660   6.145 -0.4207  0.0728 -0.2851
  322MOL0     C42418  -2.344   4.587   6.105 -0.5587  0.4341  0.3035
  322MOL0     O42419  -2.107   4.709   5.857 -0.3266  0.5070  0.0440
  322MOL0     C42420  -1.871   4.458   5.955 -0.9542 -0.2584  0.4187
  322MOL0     C42421  -1.741   4.409   5.920  0.1733  0.9867 -0.0307
  322MOL0     N42422  -0.951   4.618   5.509  0.2986  0.5371  0.4277
  322MOL0     N42423  -0.862   4.653   5.432 -0.2982  0.6131  0.2454
  322MOL0     C42424  -0.177   4.519   4.422  0.3804 -0.1192  0.2882
  322MOL0     C42425  -0.050   4.490   4.382 -0.5212 -0.1057 -1.1219
  322MOL0     C42426   0.387   4.567   4.193  0.6224 -0.6856  0.4529
  322MOL0     C42427   0.392   4.441   4.136 -0.4450  0.2099  0.1491
  322MOL0     C42428   0.516   4.403   4.067  1.0606  0.5556 -0.5860
  322MOL0     C42429   0.627   4.482   4.062  0.6004  0.5924 -0.0664
  322MOL0     O42430   0.725   4.443   3.970  0.5930  0.3552  0.1760
  322MOL0     C42431   0.854   4.425   4.024  0.3066 -0.2227  0.4362
  322MOL0     C42432   0.924   4.296   3.984  1.0764  0.2493 -0.3712
  322MOL0     C42433   0.842   4.164   4.012 -0.3787  0.2500 -0.2459
  322MOL0     C42434   0.845   4.130   4.162 -0.1410  0.8546  0.3443
  322MOL0     C42435   0.978   4.090   4.195  0.5366 -0.2876  0.2584
  322MOL0     C42436   1.093   4.067   4.229  0.1467 -0.4760 -0.2428
  322MOL0     C42437   0.623   4.607   4.131 -0.0870 -0.4252 -0.3260
  322MOL0     C42438   0.500   4.652   4.184 -0.9910 -0.1852  0.3850
  322MOL0     H42439   0.025   4.757   4.191 -1.7743 -1.0033 -2.2950
  322MOL0     H42440  -0.219   4.814   4.273 -1.8627 -1.4739  0.1000
  322MOL0     H42441  -0.361   4.668   4.619 -0.5473  3.7780 -0.8336
  322MOL0     H42442  -0.430   4.523   4.547 -1.3789 -0.2516  0.3914
  322MOL0     H42443  -0.626   4.625   4.484  2.3393  0.4422 -1.1843
  322MOL0     H42444  -0.554   4.793   4.519  0.5169  1.2021  1.5108
  322MOL0     H42445  -0.687   4.791   4.681 -0.3627  0.2994 -0.3918
  322MOL0     H42446  -0.537   4.722   4.749  0.3018 -1.2813  0.3847
  322MOL0     H42447  -0.814   4.592   4.727  0.2955 -1.1928 -2.2682
  322MOL0     H42448  -0.685   4.484   4.699 -2.3996 -1.7159  2.2281
  322MOL0     H42449  -0.596   4.521   4.920  0.3957  1.5798  1.4230
  322MOL0     H42450  -0.765   4.475   4.939  0.1388  1.1261  2.7752
  322MOL0     H42451  -0.743   4.767   4.914 -0.7739  1.0471  1.4199
  322MOL0     H42452  -0.635   4.720   5.044  0.4469 -0.6055 -0.3257
  322MOL0     H42453  -0.853   4.777   5.128  0.5311 -0.5552  1.7887
  322MOL0     H42454  -0.916   4.632   5.031  1.2399 -0.3359 -0.6998
  322MOL0     H42455  -0.691   4.634   5.235  0.2989 -1.7745  0.7426
  322MOL0     H42456  -0.755   4.485   5.160 -0.4217 -0.9778 -0.7177
  322MOL0     H42457  -0.998   4.405   5.253  1.9434 -0.2648  0.1623
  322MOL0     H42458  -1.074   4.394   5.625  1.3730 -2.5437 -0.5405
  322MOL0     H42459  -1.119   4.315   5.477  0.9551 -1.6416  3.6628
  322MOL0     H42460  -1.315   4.462   5.469  1.1180  0.4508 -0.8453
  322MOL0     H42461  -1.250   4.579   5.593  1.0751  0.0933 -0.1292
  322MOL0     H42462  -1.338   4.299   5.653  3.7833  0.1096  0.7406
  322MOL0     H42463  -1.278   4.428   5.763  0.9961 -0.1452 -0.1594
  322MOL0     H42464  -1.523   4.473   5.580 -1.2212  0.6222  0.2815
  322MOL0     H42465  -1.464   4.583   5.688  2.3813  0.0472 -0.7732
  322MOL0     H42466  -1.682   4.625   5.664  0.9697  1.3576  1.1954
  322MOL0     H42467  -1.920   4.685   5.715  1.4468  2.1847  2.7611
  322MOL0     H42468  -2.111   4.830   6.114  0.1519 -1.7023 -1.5266
  322MOL0     H42469  -2.293   4.964   6.192  2.2319 -1.3913  0.9339
  322MOL0     H42470  -2.641   4.996   6.078  1.7408 -2.8173 -1.4994
  322MOL0     H42471  -2.496   5.053   6.155 -1.6698  2.5381 -1.9092
  322MOL0     H42472  -2.748   5.000   6.316 -1.3007 -0.1305 -1.9925
  322MOL0     H42473  -2.701   5.162   6.264  2.4079  0.2183 -1.1226
  322MOL0     H42474  -2.526   4.977   6.432 -0.7457 -0.1644  1.2611
  322MOL0     H42475  -2.616   5.100   6.505 -2.9546 -1.5335 -2.0835
  322MOL0     H42476  -2.371   5.117   6.337  0.5497 -0.2116  0.9554
  322MOL0     H42477  -2.483   5.249   6.302  2.4651 -0.1470 -0.8272
  322MOL0     H42478  -2.436   5.339   6.532  1.3185  1.8471 -0.6864
  322MOL0     H42479  -2.286   5.297   6.480 -0.5599  0.0522 -0.8109
  322MOL0     H42480  -2.300   5.062   6.595 -1.0677 -1.9361  1.8381
  322MOL0     H42481  -2.456   5.100   6.654  1.4673 -1.5547 -2.5205
  322MOL0     H42482  -2.350   5.309   6.777 -0.1646 -0.7300  2.5885
  322MOL0     H42483  -2.295   5.149   6.833 -0.0815  0.7955 -0.0528
  322MOL0     H42484  -2.116   5.307   6.820  2.5401  0.0568 -0.6513
  322MOL0     H42485  -2.159   5.348   6.656 -0.2938  1.5064  1.8978
  322MOL0     H42486  -2.556   4.602   6.158  0.5377 -2.7355 -4.1506
  322MOL0     H42487  -2.352   4.486   6.066  0.8985  0.0074  1.0668
  322MOL0     H42488  -1.906   4.411   6.046 -0.1113 -1.5642  0.0981
  322MOL0     H42489  -1.681   4.345   5.983  2.6008  1.3265 -1.8285
  322MOL0     H42490  -0.237   4.449   4.479  0.0814 -0.4799 -0.4519
  322MOL0     H42491   0.002   4.402   4.418  0.2294  0.9224  0.4283
  322MOL0     H42492   0.307   4.375   4.155 -1.2833  1.3865  0.6531
  322MOL0     H42493   0.518   4.308   4.014 -1.8226  0.9596 -1.6146
  322MOL0     H42494   0.848   4.415   4.133  2.4023  1.5216  0.7754
  322MOL0     H42495   0.914   4.512   3.998 -1.0732  0.9464  1.0299
  322MOL0     H42496   0.935   4.302   3.876 -0.0136  0.2322 -0.5026
  322MOL0     H42497   1.020   4.284   4.034  1.7360 -1.4469 -1.9474
  322MOL0     H42498   0.881   4.078   3.957  0.5973  1.2535 -1.1771
  322MOL0     H42499   0.735   4.173   3.992 -0.7406 -0.1104  1.3873
  322MOL0     H42500   0.827   4.220   4.221 -0.7437  0.1146  1.3231
  322MOL0     H42501   0.769   4.054   4.180  1.4702 -0.6819  1.0225
  322MOL0     H42502   1.194   4.034   4.244 -0.5805 -2.9576 -0.3472
  322MOL0     H42503   0.708   4.673   4.119 -1.0121  0.5587 -1.7626
  322MOL0     H42504   0.497   4.757   4.212  1.4012 -0.3094  1.3807
  323MOL0     O42505   5.096   8.704   4.189  0.0528 -0.0135 -0.0520
  323MOL0     C42506   5.063   8.665   4.297 -0.4902  0.2557  0.9617
  323MOL0     O42507   5.148   8.653   4.402 -1.0212 -0.2281  0.4181
  323MOL0     C42508   5.281   8.693   4.398  0.5163 -0.2903 -0.6196
  323MOL0     C42509   5.353   8.614   4.483 -0.5367 -0.2813 -0.1084
  323MOL0     C42510   5.492   8.636   4.498  0.3120  0.5157  0.5242
  323MOL0     C42511   5.562   8.744   4.432 -0.2847  0.5831 -0.2071
  323MOL0     O42512   5.701   8.771   4.435 -0.4804  0.2789  0.6753
  323MOL0     C42513   5.773   8.683   4.511 -0.5009 -0.0247  0.5024
  323MOL0     C42514   5.919   8.718   4.510  0.0312 -0.6095  0.1139
  323MOL0     C42515   5.999   8.620   4.586 -0.5426 -0.3755 -0.4393
  323MOL0     C42516   6.155   8.642   4.587  0.1183  0.8258  0.4797
  323MOL0     C42517   6.241   8.550   4.690  0.6277 -0.3653 -0.0101
  323MOL0     C42518   6.380   8.617   4.692 -0.4761  0.7412  0.4435
  323MOL0     C42519   6.476   8.541   4.788  0.2852  0.3182 -0.4826
  323MOL0     C42520   6.476   8.579   4.934  0.5267 -0.6112 -0.3622
  323MOL0     N42521   6.347   8.599   5.012  0.8349  1.0875  0.0379
  323MOL0     C42522   6.264   8.706   5.007 -0.0433 -0.0307 -0.0931
  323MOL0     C42523   6.146   8.668   5.053 -0.0833 -0.4204 -0.3992
  323MOL0     C42524   6.030   8.758   5.058  0.2226  0.2708  0.2155
  323MOL0     C42525   5.991   8.766   5.205  0.9211  0.1700  0.3140
  323MOL0     C42526   5.890   8.882   5.223 -0.6617 -1.1121  0.7492
  323MOL0     C42527   5.808   8.858   5.356  0.3580 -0.4051  0.6137
  323MOL0     O42528   5.760   8.988   5.398 -0.3616  0.7103 -0.3175
  323MOL0     C42529   5.641   9.026   5.336 -0.4291  0.8307 -1.2022
  323MOL0     C42530   5.645   9.132   5.240  0.0215  0.0291  0.4935
  323MOL0     C42531   5.534   9.172   5.174  0.5009 -0.5592  0.5927
  323MOL0     C42532   5.413   9.102   5.187  0.8876 -0.2513 -0.7341
  323MOL0     C42533   5.288   9.157   5.129  0.4128  0.5634 -0.6842
  323MOL0     O42534   5.172   9.095   5.184 -0.2015 -0.4822  0.7803
  323MOL0     C42535   5.050   9.149   5.143 -0.7100  0.7233  0.1907
  323MOL0     C42536   4.983   9.235   5.229  0.3597  0.1592 -0.5201
  323MOL0     C42537   4.847   9.275   5.206 -0.0628  0.4152 -0.1498
  323MOL0     C42538   4.787   9.240   5.087  0.0763  1.1315 -0.7416
  323MOL0     O42539   4.661   9.269   5.043 -0.2621 -0.0563 -0.0230
  323MOL0     C42540   4.574   9.319   5.141  0.7973 -0.1175 -0.2851
  323MOL0     C42541   4.433   9.322   5.081  0.2988  0.9450  0.1521
  323MOL0     C42542   4.385   9.184   5.034  0.6816 -0.2746  0.6393
  323MOL0     C42543   4.243   9.190   4.973 -0.0225 -0.2748 -0.5771
  323MOL0     C42544   4.188   9.052   4.932 -0.5022 -0.6909 -0.1007
  323MOL0     C42545   4.057   9.076   4.853 -0.0533 -0.1315 -0.0854
  323MOL0     C42546   3.995   8.942   4.843 -0.8908 -0.1786 -0.1215
  323MOL0     C42547   3.845   8.952   4.815 -0.5848  0.1637  0.4438
  323MOL0    Cl42548   3.781   8.790   4.783 -0.0778  0.2946 -0.0069
  323MOL0     C42549   4.864   9.167   4.995 -0.0741  0.6959  0.2143
  323MOL0     C42550   4.994   9.120   5.024  0.4675 -0.3808  0.1190
  323MOL0     O42551   5.286   9.240   5.040 -0.3712 -0.3473  0.3709
  323MOL0     C42552   5.407   9.007   5.291 -0.2854 -0.3264  0.0306
  323MOL0     C42553   5.521   8.965   5.360  0.1811  0.1297 -0.1024
  323MOL0     N42554   6.151   8.535   5.094  0.0488  0.2552 -0.1063
  323MOL0     N42555   6.270   8.498   5.053  0.7065  0.3679  0.2354
  323MOL0     C42556   5.481   8.822   4.341 -0.3719  0.5862  0.2066
  323MOL0     C42557   5.337   8.803   4.337 -0.8710  0.1146  0.9560
  323MOL0     C42558   4.927   8.627   4.311 -0.3728  0.2436  0.6617
  323MOL0     C42559   4.880   8.571   4.424  0.4517  0.6003 -0.7933
  323MOL0     C42560   4.749   8.533   4.443 -0.7107  0.9552  0.0137
  323MOL0     C42561   4.653   8.550   4.338 -0.3300 -0.5498 -0.7727
  323MOL0     O42562   4.527   8.517   4.328 -0.3043 -0.6769 -0.3331
  323MOL0     C42563   4.473   8.415   4.409  0.3784  0.2021 -1.8453
  323MOL0     C42564   4.330   8.379   4.353  0.4960  0.2813  0.4823
  323MOL0     C42565   4.336   8.368   4.190 -1.2713 -0.4906 -0.0843
  323MOL0     C42566   4.242   8.259   4.143  0.1264  0.1614  0.3550
  323MOL0     C42567   4.109   8.292   4.191 -0.8058 -0.1285  0.3472
  323MOL0     C42568   3.992   8.323   4.216 -0.5131  0.2940  0.6240
  323MOL0     C42569   4.704   8.611   4.230 -0.2755 -0.6000 -0.0629
  323MOL0     C42570   4.836   8.649   4.205  0.0712  0.3138 -0.7676
  323MOL0     H42571   5.306   8.528   4.530 -0.7021  0.5534  1.3041
  323MOL0     H42572   5.535   8.554   4.555 -4.2367 -2.8924 -0.3567
  323MOL0     H42573   5.764   8.576   4.488  2.9822 -0.3761  0.1156
  323MOL0     H42574   5.741   8.698   4.615 -1.2861  0.0248  0.2536
  323MOL0     H42575   5.935   8.814   4.561 -0.4958  0.1109 -1.0306
  323MOL0     H42576   5.955   8.737   4.409  0.3311 -1.5383  0.0461
  323MOL0     H42577   5.990   8.523   4.536  1.9632 -1.0450  0.2556
  323MOL0     H42578   5.961   8.607   4.687 -0.1157 -0.2646 -0.2648
  323MOL0     H42579   6.197   8.632   4.487 -2.4951 -1.3192 -0.5082
  323MOL0     H42580   6.175   8.745   4.619 -0.0221  0.3766  2.0908
  323MOL0     H42581   6.250   8.454   4.638  2.3363 -2.0858  3.1581
  323MOL0     H42582   6.197   8.537   4.789 -1.0035  3.0563 -0.1470
  323MOL0     H42583   6.371   8.722   4.722  1.7552  0.6611  1.5911
  323MOL0     H42584   6.412   8.609   4.587 -2.5708 -2.3501 -0.0826
  323MOL0     H42585   6.464   8.436   4.762 -1.5744  0.6302 -0.9892
  323MOL0     H42586   6.580   8.565   4.763  0.4560 -0.9349 -1.0116
  323MOL0     H42587   6.551   8.654   4.959 -0.8612  0.3754  1.1346
  323MOL0     H42588   6.521   8.494   4.986  2.3350  1.6742  2.0707
  323MOL0     H42589   6.295   8.807   4.979 -1.1763  0.0808 -1.0126
  323MOL0     H42590   5.951   8.721   4.993  2.0446 -0.7560 -1.5023
  323MOL0     H42591   6.055   8.860   5.026 -2.4741  0.6462 -0.9371
  323MOL0     H42592   6.080   8.784   5.266 -0.4455  0.7111  2.2301
  323MOL0     H42593   5.944   8.671   5.232 -0.5384  0.8626  0.2617
  323MOL0     H42594   5.953   8.971   5.230 -1.1915 -0.8088  1.9933
  323MOL0     H42595   5.826   8.879   5.134 -2.6354 -1.5585  2.1036
  323MOL0     H42596   5.883   8.814   5.423  0.1248 -0.0356  1.1227
  323MOL0     H42597   5.731   8.781   5.342  0.8382 -1.0465  1.3770
  323MOL0     H42598   5.735   9.187   5.213  0.2107 -0.1295  0.7961
  323MOL0     H42599   5.539   9.267   5.122  1.0865  0.5949  2.6480
  323MOL0     H42600   5.023   9.264   5.325  2.0178 -1.1184 -0.7738
  323MOL0     H42601   4.800   9.329   5.288  0.5905 -1.3460  1.4704
  323MOL0     H42602   4.588   9.425   5.165 -2.4028  0.8481 -2.0694
  323MOL0     H42603   4.573   9.247   5.223 -0.0267  0.8004  0.5274
  323MOL0     H42604   4.427   9.394   4.999  1.6012 -0.2514 -1.0457
  323MOL0     H42605   4.375   9.364   5.164  2.0564  3.6127  0.1707
  323MOL0     H42606   4.385   9.105   5.109  1.6138 -0.6653  0.2380
  323MOL0     H42607   4.454   9.152   4.955  1.1039  0.4328  0.7158
  323MOL0     H42608   4.191   9.238   5.056 -0.1242 -0.8193 -0.3257
  323MOL0     H42609   4.248   9.250   4.881  1.2237  0.5201 -0.0141
  323MOL0     H42610   4.159   9.009   5.028 -2.3555  1.8084  0.5781
  323MOL0     H42611   4.260   8.990   4.877  1.5638 -0.7757  2.5234
  323MOL0     H42612   4.077   9.115   4.753 -0.3873 -0.3726 -0.2460
  323MOL0     H42613   3.996   9.149   4.907  0.8294  1.4275 -1.1006
  323MOL0     H42614   4.049   8.889   4.764  1.7380  1.1403  0.6806
  323MOL0     H42615   4.015   8.888   4.936  0.3559 -1.8388 -1.2903
  323MOL0     H42616   3.832   9.001   4.718 -2.4435 -2.2667 -0.6285
  323MOL0     H42617   3.798   9.009   4.895 -0.7052 -3.8225  3.5011
  323MOL0     H42618   4.825   9.143   4.896 -0.1108 -0.6191  0.5222
  323MOL0     H42619   5.040   9.050   4.955 -1.9677 -1.2624 -0.6916
  323MOL0     H42620   5.314   8.972   5.333 -0.9254  0.0815 -1.0134
  323MOL0     H42621   5.513   8.893   5.440 -1.4384 -0.2784 -0.6025
  323MOL0     H42622   5.512   8.909   4.284 -1.2849  1.7050  1.3736
  323MOL0     H42623   5.273   8.864   4.274 -0.2598  0.8741  1.0388
  323MOL0     H42624   4.942   8.570   4.513  0.1707  0.3866 -0.5970
  323MOL0     H42625   4.730   8.492   4.542  0.1269 -0.3834 -0.3452
  323MOL0     H42626   4.453   8.460   4.506  0.6604 -1.2020 -1.1180
  323MOL0     H42627   4.537   8.327   4.422  0.6216  0.7237  1.1915
  323MOL0     H42628   4.308   8.283   4.401  3.0626 -0.9799 -0.6804
  323MOL0     H42629   4.269   8.463   4.386  1.4252  1.7701 -1.3485
  323MOL0     H42630   4.435   8.337   4.156 -0.6351 -0.6258  1.7574
  323MOL0     H42631   4.312   8.460   4.136  0.6169  0.3590  0.4223
  323MOL0     H42632   4.230   8.244   4.035 -0.2531 -2.9461  0.7241
  323MOL0     H42633   4.277   8.165   4.186  2.0577  0.2278 -0.9136
  323MOL0     H42634   3.889   8.334   4.242 -1.2769 -0.6731 -1.7560
  323MOL0     H42635   4.625   8.623   4.155  0.4945 -1.1561 -0.9753
  323MOL0     H42636   4.865   8.688   4.108 -3.1623  4.1906 -0.4227
  324MOL0     O42637   0.604   3.705   3.726  0.0373  0.5616  0.1795
  324MOL0     C42638   0.656   3.674   3.832  0.5248  0.2278 -0.0428
  324MOL0     O42639   0.629   3.724   3.953  0.7236  0.5000  0.4661
  324MOL0     C42640   0.542   3.827   3.954 -0.6903  0.4373 -0.2941
  324MOL0     C42641   0.575   3.948   3.893 -0.5099  0.6767  0.3202
  324MOL0     C42642   0.475   4.050   3.881 -0.0294  0.0332 -0.6426
  324MOL0     C42643   0.347   4.038   3.934  0.2441 -0.8025 -0.4256
  324MOL0     O42644   0.265   4.151   3.933  0.2254 -1.3754  0.6232
  324MOL0     C42645   0.129   4.122   3.969  0.3970  0.5982 -0.2221
  324MOL0     C42646   0.050   4.253   3.998  0.6535  0.9006 -0.4946
  324MOL0     C42647  -0.099   4.221   4.020  0.3189  0.1068  0.2158
  324MOL0     C42648  -0.175   4.356   4.022  0.2663 -0.1500  0.1738
  324MOL0     C42649  -0.320   4.337   4.070 -0.3300 -0.0742  0.5773
  324MOL0     C42650  -0.396   4.468   4.072 -0.4197  0.5591  0.2043
  324MOL0     C42651  -0.498   4.491   4.185 -0.5400  0.7966 -0.1073
  324MOL0     C42652  -0.618   4.404   4.148 -0.5079 -0.3548  0.5630
  324MOL0     N42653  -0.707   4.407   4.261 -0.1163  0.6467 -0.9511
  324MOL0     C42654  -0.842   4.420   4.255  0.3394 -0.6382 -0.1122
  324MOL0     C42655  -0.893   4.400   4.376  0.5348  0.4197 -0.4415
  324MOL0     C42656  -1.042   4.407   4.397 -0.3524  1.5386  0.3379
  324MOL0     C42657  -1.077   4.467   4.527 -0.2886  0.1785 -0.0948
  324MOL0     C42658  -1.042   4.377   4.637  0.2461 -0.7485 -0.1277
  324MOL0     C42659  -1.113   4.423   4.766 -0.5845  0.7645  0.2865
  324MOL0     O42660  -1.030   4.395   4.883 -0.0578  0.1542  0.3764
  324MOL0     C42661  -1.093   4.331   4.985 -0.0554 -1.0633 -0.7810
  324MOL0     C42662  -1.197   4.393   5.061  0.0513  0.7212  0.5826
  324MOL0     C42663  -1.261   4.318   5.156 -0.0808 -0.4385  0.0601
  324MOL0     C42664  -1.232   4.182   5.171 -0.5934  0.1643  0.2140
  324MOL0     C42665  -1.315   4.110   5.267 -0.0490  0.5360  0.2328
  324MOL0     O42666  -1.329   3.979   5.248 -0.6474 -0.1219  0.4575
  324MOL0     C42667  -1.414   3.927   5.337  0.7635 -0.5169 -0.2158
  324MOL0     C42668  -1.543   3.894   5.301 -0.2504 -0.3253 -0.0780
  324MOL0     C42669  -1.634   3.834   5.382  0.0545  0.7595 -0.1528
  324MOL0     C42670  -1.599   3.799   5.514  0.8137  0.1550 -0.9352
  324MOL0     O42671  -1.692   3.741   5.595  0.2971  0.4072  0.5707
  324MOL0     C42672  -1.636   3.668   5.711 -0.1187 -0.6377  0.3343
  324MOL0     C42673  -1.724   3.554   5.767 -0.0407  0.3140  1.3778
  324MOL0     C42674  -1.863   3.599   5.783  0.6358 -0.8324 -0.0188
  324MOL0     C42675  -1.963   3.477   5.786 -0.5826 -0.5068 -0.3794
  324MOL0     C42676  -2.106   3.523   5.817  0.1439  0.7070 -0.4243
  324MOL0     C42677  -2.119   3.566   5.965  0.3279 -0.3389 -0.0680
  324MOL0     C42678  -2.266   3.552   6.010  0.1490  0.0321 -0.0203
  324MOL0     C42679  -2.273   3.601   6.150  0.6927 -0.6626  0.2909
  324MOL0    Cl42680  -2.440   3.617   6.210  0.0917  0.0100 -0.0085
  324MOL0     C42681  -1.471   3.851   5.564  0.0367  0.0285  0.2184
  324MOL0     C42682  -1.381   3.904   5.466  0.9500  0.2667 -0.3778
  324MOL0     O42683  -1.380   4.183   5.341  0.3808  0.4928  0.4893
  324MOL0     C42684  -1.130   4.117   5.092  1.0754 -0.3248 -0.7644
  324MOL0     C42685  -1.057   4.200   5.006 -0.3500 -0.3136  0.0799
  324MOL0     N42686  -0.781   4.363   4.447  0.2633  0.4884 -0.6236
  324MOL0     N42687  -0.671   4.361   4.381  0.6529  0.0806  0.2208
  324MOL0     C42688   0.321   3.911   3.986  0.3569 -0.5657 -0.6222
  324MOL0     C42689   0.413   3.802   4.000 -0.1599 -0.2624  0.3326
  324MOL0     C42690   0.758   3.565   3.827 -0.1049 -0.1350  0.4081
  324MOL0     C42691   0.817   3.512   3.707  0.3220 -0.3953  0.5771
  324MOL0     C42692   0.904   3.405   3.704 -1.0760 -1.1924  0.4785
  324MOL0     C42693   0.942   3.347   3.823  0.2343 -0.5059 -0.1985
  324MOL0     O42694   1.033   3.249   3.814  0.3278  0.3124  0.0384
  324MOL0     C42695   1.091   3.190   3.943  0.0234 -0.9550 -0.1890
  324MOL0     C42696   1.228   3.265   3.991  0.8465 -0.0707  0.3548
  324MOL0     C42697   1.269   3.213   4.132  0.2757 -0.5520 -0.0552
  324MOL0     C42698   1.355   3.088   4.127 -0.0175 -0.4171 -0.4855
  324MOL0     C42699   1.282   2.981   4.187  0.0006  0.3085 -0.0803
  324MOL0     C42700   1.229   2.885   4.238  0.3148  1.3301 -0.1057
  324MOL0     C42701   0.896   3.400   3.949 -0.9559 -0.6431  0.8742
  324MOL0     C42702   0.801   3.507   3.952  0.3222 -0.0158  0.0766
  324MOL0     H42703   0.674   3.954   3.848 -0.7060 -2.8998 -0.8223
  324MOL0     H42704   0.496   4.148   3.839  0.7157 -1.2130 -3.4631
  324MOL0     H42705   0.132   4.065   4.062  1.0148 -1.2918 -1.3408
  324MOL0     H42706   0.070   4.060   3.901 -0.7931  0.5886  0.7804
  324MOL0     H42707   0.058   4.318   3.911 -1.4842  2.4450  0.3666
  324MOL0     H42708   0.087   4.307   4.086  0.4412 -1.4173  1.1123
  324MOL0     H42709  -0.104   4.168   4.116 -1.7156 -0.2672 -0.0450
  324MOL0     H42710  -0.148   4.146   3.956  2.4749 -2.1311  1.0068
  324MOL0     H42711  -0.127   4.436   4.078  1.2485  0.0136 -0.8550
  324MOL0     H42712  -0.186   4.387   3.917  1.1980  2.0035  0.6696
  324MOL0     H42713  -0.324   4.277   4.161 -0.5182 -0.7793  0.1193
  324MOL0     H42714  -0.378   4.284   3.993  1.2434  0.0884 -0.7816
  324MOL0     H42715  -0.438   4.496   3.976 -1.6404 -2.9522 -0.4470
  324MOL0     H42716  -0.318   4.543   4.088  0.9404 -0.5636 -0.8053
  324MOL0     H42717  -0.462   4.465   4.285  2.0044 -5.1949 -2.1262
  324MOL0     H42718  -0.529   4.596   4.184 -0.2178  0.9173  1.2084
  324MOL0     H42719  -0.595   4.299   4.129  1.5661  0.1786 -0.2161
  324MOL0     H42720  -0.673   4.441   4.061 -1.8213 -2.1796  0.5692
  324MOL0     H42721  -0.901   4.457   4.172  2.0192  0.5168 -0.8560
  324MOL0     H42722  -1.080   4.304   4.391  1.2770  0.9704 -0.6066
  324MOL0     H42723  -1.082   4.467   4.315  0.9652  3.5546  1.1111
  324MOL0     H42724  -1.184   4.489   4.527 -1.2156 -3.5938 -1.3199
  324MOL0     H42725  -1.033   4.567   4.531 -1.1840  0.5491  1.3597
  324MOL0     H42726  -1.055   4.270   4.617 -1.4904 -0.5645 -0.1417
  324MOL0     H42727  -0.934   4.390   4.648  0.2626 -0.9356 -0.0674
  324MOL0     H42728  -1.214   4.380   4.770 -0.3182  0.1364  0.4212
  324MOL0     H42729  -1.117   4.532   4.765  2.5458  0.9531 -0.8173
  324MOL0     H42730  -1.232   4.494   5.042 -2.0956 -0.0205  0.3042
  324MOL0     H42731  -1.330   4.377   5.216  0.9374  0.0205  0.7974
  324MOL0     H42732  -1.575   3.913   5.199 -2.9707  0.1988  0.7881
  324MOL0     H42733  -1.737   3.816   5.350  0.5032 -0.3174 -1.0750
  324MOL0     H42734  -1.620   3.738   5.793 -3.7627  0.5197  0.2472
  324MOL0     H42735  -1.550   3.608   5.681 -0.0468 -0.9707  1.1709
  324MOL0     H42736  -1.702   3.519   5.868 -0.2000  0.6089  1.5164
  324MOL0     H42737  -1.717   3.467   5.702 -1.1073  1.1979  0.0275
  324MOL0     H42738  -1.887   3.663   5.698  0.4963  1.3168  1.5611
  324MOL0     H42739  -1.881   3.667   5.866 -0.8081 -1.1349 -0.0491
  324MOL0     H42740  -1.958   3.423   5.691  0.5546  0.3386 -0.8152
  324MOL0     H42741  -1.926   3.401   5.856 -1.0980 -0.5894 -0.1926
  324MOL0     H42742  -2.166   3.433   5.805 -1.8093  1.7466  1.0927
  324MOL0     H42743  -2.136   3.601   5.747  1.3821 -0.2998 -2.1653
  324MOL0     H42744  -2.089   3.671   5.972  1.4494 -0.7102  1.3064
  324MOL0     H42745  -2.054   3.502   6.027  0.3083  0.4308  0.7797
  324MOL0     H42746  -2.332   3.608   5.944 -0.5103 -2.7059 -1.8459
  324MOL0     H42747  -2.289   3.446   6.000 -0.6107  0.2635 -0.7931
  324MOL0     H42748  -2.219   3.695   6.167  1.8777 -0.5037 -3.4800
  324MOL0     H42749  -2.229   3.520   6.208  1.9371 -0.0958  0.1845
  324MOL0     H42750  -1.438   3.850   5.667 -0.5594 -0.5336  0.4108
  324MOL0     H42751  -1.288   3.944   5.504  0.3109  1.1462  0.2617
  324MOL0     H42752  -1.116   4.010   5.104  1.8510 -0.1933 -0.4297
  324MOL0     H42753  -0.981   4.158   4.940  2.5299  5.2189 -0.7949
  324MOL0     H42754   0.223   3.894   4.029 -0.4103  2.2652 -1.0358
  324MOL0     H42755   0.385   3.707   4.044  0.6731 -0.5789  0.2011
  324MOL0     H42756   0.801   3.555   3.609 -2.3524  0.8642  1.4770
  324MOL0     H42757   0.954   3.368   3.615  1.5960  0.1747  1.3202
  324MOL0     H42758   1.118   3.086   3.925  2.5271 -0.2566 -0.8624
  324MOL0     H42759   1.012   3.190   4.019 -1.3575  1.8062 -1.4723
  324MOL0     H42760   1.309   3.242   3.922  1.5319 -0.0126  1.1245
  324MOL0     H42761   1.226   3.374   3.997 -0.4878  0.0306 -1.1674
  324MOL0     H42762   1.178   3.204   4.193  0.0117  0.2894 -0.2999
  324MOL0     H42763   1.342   3.288   4.165  1.2980 -2.4724  2.3741
  324MOL0     H42764   1.380   3.055   4.025 -1.4061 -2.8508 -0.1201
  324MOL0     H42765   1.447   3.092   4.187  0.3354 -6.0912 -0.0304
  324MOL0     H42766   1.214   2.789   4.285  2.7260  2.2802  2.9529
  324MOL0     H42767   0.931   3.375   4.049 -0.3371  0.9384  1.0820
  324MOL0     H42768   0.771   3.558   4.043  1.0773  0.6527 -0.0325
  325MOL0     O42769   1.658   9.180   3.721 -0.2396 -0.2934 -0.0649
  325MOL0     C42770   1.598   9.105   3.648  0.3181  0.6250 -0.1087
  325MOL0     O42771   1.510   9.015   3.697 -0.6120  0.4112 -0.3028
  325MOL0     C42772   1.502   9.002   3.833 -0.4423  0.0394 -1.0486
  325MOL0     C42773   1.603   8.955   3.912 -0.2259  0.2514 -0.6319
  325MOL0     C42774   1.597   8.942   4.054 -0.8015  0.2363 -0.0683
  325MOL0     C42775   1.483   8.999   4.120 -1.1618 -0.3453 -0.0276
  325MOL0     O42776   1.453   8.992   4.249  0.2465 -0.0596 -0.3990
  325MOL0     C42777   1.532   8.918   4.341  0.3949  0.1450  0.4505
  325MOL0     C42778   1.499   8.932   4.489 -0.3193 -0.3763 -0.1860
  325MOL0     C42779   1.356   8.883   4.524  0.1454 -0.3903  0.6394
  325MOL0     C42780   1.338   8.872   4.674  0.0239 -0.9979  0.7841
  325MOL0     C42781   1.199   8.825   4.725  0.3073  0.4540  0.8416
  325MOL0     C42782   1.094   8.935   4.679  0.4183 -0.1736 -0.8645
  325MOL0     C42783   0.955   8.914   4.731 -0.4044  0.5969 -0.6130
  325MOL0     C42784   0.899   8.778   4.693  0.6714 -0.1385 -0.4636
  325MOL0     N42785   0.870   8.768   4.553  0.4708  0.1840  0.1000
  325MOL0     C42786   0.745   8.796   4.492 -0.3482  0.5110 -0.3607
  325MOL0     C42787   0.756   8.736   4.371 -0.9641  0.3499 -0.1201
  325MOL0     C42788   0.655   8.734   4.261 -0.1837  0.1371  1.0584
  325MOL0     C42789   0.533   8.641   4.296 -0.0692 -0.1640  0.0692
  325MOL0     C42790   0.412   8.685   4.210  0.6293 -0.1683 -0.4068
  325MOL0     C42791   0.296   8.580   4.218 -0.1011 -0.9358 -0.1710
  325MOL0     O42792   0.201   8.596   4.114 -0.1905  0.1611 -0.3855
  325MOL0     C42793   0.072   8.574   4.156 -0.3835  0.7225  0.1122
  325MOL0     C42794   0.046   8.454   4.220  1.0711  0.1010  0.7141
  325MOL0     C42795  -0.092   8.426   4.252 -0.7242 -0.9047 -0.5810
  325MOL0     C42796  -0.196   8.511   4.210 -0.8688  0.0392  0.2163
  325MOL0     C42797  -0.330   8.471   4.250  0.8334  0.1800 -0.1526
  325MOL0     O42798  -0.359   8.334   4.262  0.4439  0.1628  0.3747
  325MOL0     C42799  -0.485   8.310   4.310  0.0100  0.1046  0.2027
  325MOL0     C42800  -0.607   8.297   4.236 -0.0329  1.1268 -0.3060
  325MOL0     C42801  -0.730   8.284   4.302  0.0017 -0.2172  1.2721
  325MOL0     C42802  -0.734   8.274   4.438 -0.0485 -0.1047 -0.1883
  325MOL0     O42803  -0.846   8.294   4.507  0.6004 -0.1168 -1.7960
  325MOL0     C42804  -0.962   8.216   4.472  0.4748  0.1727 -0.2455
  325MOL0     C42805  -1.053   8.180   4.596  0.3855  0.5856 -0.6726
  325MOL0     C42806  -1.174   8.095   4.561 -0.0848 -0.1843 -0.2093
  325MOL0     C42807  -1.273   8.105   4.676 -0.5836  0.1023 -0.9332
  325MOL0     C42808  -1.380   7.996   4.649  0.3251 -0.1769  0.0772
  325MOL0     C42809  -1.487   7.988   4.757 -0.3591  0.2875 -0.6525
  325MOL0     C42810  -1.555   8.125   4.785  0.1873  0.1773 -0.5662
  325MOL0     C42811  -1.676   8.082   4.879 -0.7760  0.3081  0.2523
  325MOL0    Cl42812  -1.810   8.189   4.858 -0.2017 -0.0954 -0.5592
  325MOL0     C42813  -0.610   8.261   4.510  0.3450 -0.0632 -0.6966
  325MOL0     C42814  -0.489   8.284   4.448 -0.3384 -0.4303  0.1271
  325MOL0     O42815  -0.415   8.556   4.260 -0.4372 -0.5831 -0.8787
  325MOL0     C42816  -0.167   8.638   4.150 -1.1575  0.2651 -0.5252
  325MOL0     C42817  -0.030   8.666   4.121  0.4279 -0.6804  0.1609
  325MOL0     N42818   0.881   8.682   4.360 -0.4081 -0.6748  0.4569
  325MOL0     N42819   0.950   8.706   4.464 -0.0930  0.1241  0.8043
  325MOL0     C42820   1.377   9.049   4.034  0.1465  0.2635  0.0389
  325MOL0     C42821   1.386   9.046   3.893  0.0652  0.0107 -0.9644
  325MOL0     C42822   1.633   9.105   3.506  0.0269  0.2785 -0.0157
  325MOL0     C42823   1.549   9.039   3.413 -0.0953 -0.5655 -0.3373
  325MOL0     C42824   1.600   9.028   3.279 -0.7016  0.2887 -0.3754
  325MOL0     C42825   1.720   9.083   3.241 -0.3168 -0.5632  0.5676
  325MOL0     O42826   1.752   9.070   3.107  0.8921 -0.2352 -0.8318
  325MOL0     C42827   1.873   9.126   3.057  0.9623  0.1227 -0.1218
  325MOL0     C42828   1.892   9.067   2.919  0.0677  0.4823  0.0156
  325MOL0     C42829   2.030   9.104   2.857  0.1973  0.2892  0.4501
  325MOL0     C42830   2.091   8.986   2.795  0.1434 -0.3401 -0.4135
  325MOL0     C42831   2.009   8.927   2.682 -0.1018  0.0145  0.0875
  325MOL0     C42832   1.946   8.860   2.603 -1.2379  0.8020 -0.1954
  325MOL0     C42833   1.793   9.163   3.331  0.0503  1.0353 -0.8496
  325MOL0     C42834   1.745   9.172   3.457  0.1630 -0.2985  0.5029
  325MOL0     H42835   1.692   8.928   3.857 -0.3782 -0.7103 -0.4152
  325MOL0     H42836   1.674   8.887   4.106 -2.2498 -2.3578 -0.4582
  325MOL0     H42837   1.636   8.949   4.350 -0.2803  1.9320  4.1731
  325MOL0     H42838   1.513   8.814   4.313  1.2545  0.2678 -0.6314
  325MOL0     H42839   1.530   9.030   4.528  2.1641 -0.5323 -1.5743
  325MOL0     H42840   1.568   8.865   4.540 -0.2729  0.1470  0.4660
  325MOL0     H42841   1.345   8.790   4.467 -3.0338 -0.4533  1.1739
  325MOL0     H42842   1.287   8.953   4.476  1.5446 -1.3446 -3.2198
  325MOL0     H42843   1.415   8.804   4.712  1.9330  0.6022 -0.0622
  325MOL0     H42844   1.354   8.970   4.718 -2.9796  1.6894 -3.3326
  325MOL0     H42845   1.189   8.817   4.834 -0.7728 -4.9151  0.6406
  325MOL0     H42846   1.174   8.728   4.681 -0.5031  0.8850  0.3362
  325MOL0     H42847   1.090   8.946   4.571 -3.6566  2.1182 -0.6632
  325MOL0     H42848   1.125   9.035   4.709  2.5247 -0.0333 -3.1890
  325MOL0     H42849   0.950   8.919   4.840  0.8734  0.9146 -0.5523
  325MOL0     H42850   0.879   8.981   4.689 -3.5108 -1.5019  1.2236
  325MOL0     H42851   0.804   8.776   4.748  0.6589  1.8488 -0.3466
  325MOL0     H42852   0.970   8.702   4.727 -1.1978 -1.3848  0.8615
  325MOL0     H42853   0.661   8.855   4.530  1.3828  2.4524  0.6697
  325MOL0     H42854   0.705   8.711   4.167  0.4669 -0.0491  1.4454
  325MOL0     H42855   0.619   8.837   4.257 -0.0843  0.1449  0.1714
  325MOL0     H42856   0.521   8.633   4.405  0.8257 -1.8386  0.0823
  325MOL0     H42857   0.574   8.546   4.262 -0.2011 -0.8320  1.6529
  325MOL0     H42858   0.374   8.784   4.239 -0.0302 -0.5930  0.2142
  325MOL0     H42859   0.435   8.683   4.103 -0.8208 -0.5031 -0.7381
  325MOL0     H42860   0.248   8.591   4.316  2.2556 -0.9847  1.0809
  325MOL0     H42861   0.342   8.481   4.220  0.4997 -0.6967  2.7378
  325MOL0     H42862   0.125   8.383   4.239  0.5297 -0.6589  0.2162
  325MOL0     H42863  -0.108   8.333   4.305 -2.7491 -0.1840  0.1632
  325MOL0     H42864  -0.603   8.305   4.128 -3.3329  1.9168 -0.4942
  325MOL0     H42865  -0.823   8.296   4.246  0.0748  3.0144  1.6446
  325MOL0     H42866  -0.946   8.122   4.419 -2.4604 -1.1827  1.0558
  325MOL0     H42867  -1.018   8.278   4.402  1.5783 -0.9905 -2.2450
  325MOL0     H42868  -1.088   8.274   4.640  0.9452  1.0694 -1.2467
  325MOL0     H42869  -0.995   8.131   4.675 -1.8881  1.4488  1.6986
  325MOL0     H42870  -1.143   7.993   4.539 -0.7908 -0.9272  2.0016
  325MOL0     H42871  -1.220   8.143   4.474  2.7583 -1.0621 -2.3634
  325MOL0     H42872  -1.235   8.075   4.774 -0.3876 -0.9456 -1.3090
  325MOL0     H42873  -1.320   8.203   4.676  2.2293  1.5580 -1.3284
  325MOL0     H42874  -1.324   7.902   4.650  3.2047  1.4164  1.7329
  325MOL0     H42875  -1.430   8.024   4.556 -0.7393  0.6162  0.8613
  325MOL0     H42876  -1.442   7.957   4.852 -1.6742  0.1129 -0.0757
  325MOL0     H42877  -1.558   7.912   4.722  0.2985 -1.3363  1.3218
  325MOL0     H42878  -1.495   8.197   4.841 -0.8633  1.0671 -0.5422
  325MOL0     H42879  -1.588   8.182   4.697 -0.4869  1.1618  0.2946
  325MOL0     H42880  -1.649   8.062   4.984  1.5139  1.2296 -0.1082
  325MOL0     H42881  -1.703   7.981   4.846 -1.3954  0.6875 -0.4265
  325MOL0     H42882  -0.615   8.235   4.615 -0.2094 -1.2360 -0.9982
  325MOL0     H42883  -0.394   8.288   4.500  0.2733 -1.9998 -0.7831
  325MOL0     H42884  -0.250   8.704   4.129 -0.6836  0.8998 -0.4285
  325MOL0     H42885   0.003   8.759   4.075 -1.1980  0.4000  1.0962
  325MOL0     H42886   1.292   9.092   4.086  0.1446 -0.4924  0.6710
  325MOL0     H42887   1.309   9.089   3.829 -0.7572  0.7018  0.4477
  325MOL0     H42888   1.451   9.002   3.438 -1.3845  0.9389 -2.7813
  325MOL0     H42889   1.530   8.987   3.207  0.4299  1.9475 -2.5480
  325MOL0     H42890   1.963   9.099   3.113  1.9751  0.6734 -1.4537
  325MOL0     H42891   1.868   9.234   3.045 -0.6663 -0.1473 -2.5255
  325MOL0     H42892   1.885   8.960   2.939  2.9939  0.7295  3.2319
  325MOL0     H42893   1.814   9.099   2.849  0.5067  0.2749 -0.5831
  325MOL0     H42894   2.098   9.142   2.934 -0.1108  1.3796  0.1973
  325MOL0     H42895   2.005   9.188   2.792  0.3820  0.5628  0.7319
  325MOL0     H42896   2.187   9.014   2.750  0.3126 -1.9232 -1.1015
  325MOL0     H42897   2.106   8.914   2.876  0.0749 -0.6303 -0.6542
  325MOL0     H42898   1.896   8.795   2.535  1.0427 -1.1343 -0.1402
  325MOL0     H42899   1.892   9.206   3.314  1.2091 -0.1712  2.2361
  325MOL0     H42900   1.808   9.222   3.531  0.2059 -1.5251  1.3192
  326MOL0     O42901   0.464   1.163   2.880 -0.3286 -0.3437  0.8943
  326MOL0     C42902   0.460   1.256   2.795 -0.1020  0.1795 -0.5435
  326MOL0     O42903   0.566   1.293   2.722 -0.2695 -1.2613  0.5707
  326MOL0     C42904   0.690   1.247   2.738  0.0543 -0.6962  0.0785
  326MOL0     C42905   0.748   1.184   2.852 -0.3931 -0.6241 -0.6660
  326MOL0     C42906   0.878   1.131   2.846  0.3614 -0.0778 -0.9276
  326MOL0     C42907   0.957   1.145   2.736 -0.2403  1.3020 -0.4859
  326MOL0     O42908   1.082   1.078   2.724  0.0166 -1.1974 -0.2906
  326MOL0     C42909   1.111   0.954   2.785 -0.6384  0.1866 -0.5377
  326MOL0     C42910   1.259   0.909   2.744  0.2865  0.1372  0.2285
  326MOL0     C42911   1.372   1.004   2.781  0.2625  0.4750  1.0552
  326MOL0     C42912   1.498   0.955   2.709 -0.1479  0.3138  0.5397
  326MOL0     C42913   1.607   1.072   2.710  1.3326  0.1516 -0.4358
  326MOL0     C42914   1.739   1.021   2.658 -0.4035 -0.0980  0.4248
  326MOL0     C42915   1.863   1.109   2.675  0.4177 -0.2275  0.2894
  326MOL0     C42916   1.951   1.052   2.789 -0.1747 -0.0026 -0.1466
  326MOL0     N42917   2.029   0.938   2.769  0.1632 -0.0123 -0.2334
  326MOL0     C42918   2.148   0.919   2.826  0.5893  0.2919 -1.6199
  326MOL0     C42919   2.189   0.793   2.805 -0.3161 -0.1780  0.1553
  326MOL0     C42920   2.318   0.720   2.858  0.0622 -0.2742 -0.3943
  326MOL0     C42921   2.449   0.808   2.879 -0.4854 -1.0464 -0.9283
  326MOL0     C42922   2.568   0.727   2.942  0.3189 -0.1445  0.8186
  326MOL0     C42923   2.665   0.677   2.831  0.7165 -0.9323 -0.5090
  326MOL0     O42924   2.789   0.637   2.891  0.2332  0.0565 -0.3043
  326MOL0     C42925   2.906   0.635   2.815 -0.2240  0.0848 -0.4805
  326MOL0     C42926   3.017   0.589   2.882  0.5818  0.7146 -0.0938
  326MOL0     C42927   3.146   0.586   2.820  0.1714  0.2541  0.3744
  326MOL0     C42928   3.171   0.640   2.696  0.4190 -0.0107  0.7267
  326MOL0     C42929   3.298   0.624   2.624 -0.3634 -0.0171  0.0089
  326MOL0     O42930   3.321   0.692   2.519 -0.0137 -0.3737  0.7408
  326MOL0     C42931   3.436   0.700   2.450 -0.8644 -0.1419 -1.0533
  326MOL0     C42932   3.466   0.815   2.378 -0.4570  0.4171  0.9601
  326MOL0     C42933   3.583   0.817   2.288 -0.2537  0.1572  0.1749
  326MOL0     C42934   3.672   0.707   2.284  0.0860 -0.0683 -1.2140
  326MOL0     O42935   3.783   0.731   2.203 -0.4716  0.3218 -0.3061
  326MOL0     C42936   3.898   0.656   2.239  0.0677  0.3845 -1.0106
  326MOL0     C42937   4.026   0.700   2.162  0.0810  1.1834  0.0363
  326MOL0     C42938   4.018   0.676   2.017  0.1107  0.3065 -0.5726
  326MOL0     C42939   4.160   0.692   1.950 -0.7237  0.3662  0.5080
  326MOL0     C42940   4.139   0.770   1.816 -0.4852 -0.1527  0.8893
  326MOL0     C42941   4.086   0.924   1.842 -0.8269  0.4492 -0.1144
  326MOL0     C42942   4.206   1.020   1.876  0.1438  0.5195 -0.1182
  326MOL0     C42943   4.152   1.159   1.907 -0.4451 -0.4137  0.2014
  326MOL0    Cl42944   4.081   1.230   1.763  0.0605 -0.5809  0.3872
  326MOL0     C42945   3.634   0.589   2.353 -0.3306 -0.9811 -0.4263
  326MOL0     C42946   3.526   0.585   2.440  0.3586  0.0084  0.9447
  326MOL0     O42947   3.383   0.562   2.683 -0.3677  0.1869  0.2331
  326MOL0     C42948   3.062   0.707   2.632  0.2801  0.1030  0.3741
  326MOL0     C42949   2.931   0.695   2.687  0.9155  0.1276  1.5125
  326MOL0     N42950   2.094   0.734   2.718  0.0354  0.6255  0.3416
  326MOL0     N42951   2.002   0.825   2.692 -0.6525  0.1238  0.0681
  326MOL0     C42952   0.914   1.226   2.636  0.8550  0.3792  0.4778
  326MOL0     C42953   0.782   1.274   2.632  0.4453  0.0659 -0.0506
  326MOL0     C42954   0.324   1.325   2.775 -0.6149  0.4331  0.8587
  326MOL0     C42955   0.218   1.314   2.869 -0.2206  0.8286  0.0696
  326MOL0     C42956   0.097   1.375   2.840  0.0039  0.0840 -0.1536
  326MOL0     C42957   0.078   1.449   2.720 -0.2635  0.3339  0.6183
  326MOL0     O42958  -0.042   1.503   2.695 -0.3863 -0.4073  0.8800
  326MOL0     C42959  -0.151   1.413   2.701 -0.9688 -0.5705  0.6807
  326MOL0     C42960  -0.285   1.494   2.717 -0.4901 -0.0403  0.0453
  326MOL0     C42961  -0.282   1.576   2.846 -0.3164 -0.0160  0.9907
  326MOL0     C42962  -0.405   1.663   2.858  0.0016  0.6569 -1.0043
  326MOL0     C42963  -0.530   1.587   2.854 -0.9347 -0.4347 -0.4216
  326MOL0     C42964  -0.623   1.509   2.845 -0.3944 -0.2679 -0.2995
  326MOL0     C42965   0.183   1.467   2.632 -0.2754  0.2601 -0.1606
  326MOL0     C42966   0.305   1.402   2.654 -0.2606  0.6288  0.0219
  326MOL0     H42967   0.688   1.165   2.940  0.4368 -0.4336 -0.0486
  326MOL0     H42968   0.906   1.079   2.938 -0.4956  1.6053  0.3449
  326MOL0     H42969   1.044   0.878   2.744 -2.3930  1.5407 -0.2842
  326MOL0     H42970   1.105   0.955   2.894  2.8715 -0.9980 -0.1974
  326MOL0     H42971   1.254   0.895   2.636 -0.7358 -1.0699  0.4146
  326MOL0     H42972   1.281   0.807   2.777 -1.4230 -0.5085 -0.5235
  326MOL0     H42973   1.376   1.012   2.890 -2.3144 -0.0901  1.2615
  326MOL0     H42974   1.338   1.099   2.739 -2.5605 -1.4298 -1.3621
  326MOL0     H42975   1.538   0.871   2.767 -0.7242 -1.3307 -1.3394
  326MOL0     H42976   1.491   0.908   2.610 -0.1448  0.4092  0.4937
  326MOL0     H42977   1.618   1.104   2.814 -0.1846  0.0595 -0.2200
  326MOL0     H42978   1.581   1.158   2.647  1.3239  0.6749  0.2573
  326MOL0     H42979   1.720   0.998   2.552 -0.7892 -0.0662  0.4836
  326MOL0     H42980   1.756   0.924   2.705 -0.6093 -0.7501 -0.8016
  326MOL0     H42981   1.918   1.111   2.580 -3.6706 -0.9211 -2.3723
  326MOL0     H42982   1.837   1.215   2.686  0.3338  0.1654 -2.7738
  326MOL0     H42983   1.890   1.030   2.878 -0.2263  1.9368  0.3516
  326MOL0     H42984   2.020   1.131   2.820  1.8251 -1.9037  0.4523
  326MOL0     H42985   2.205   0.992   2.882 -0.0299 -0.9112  0.7238
  326MOL0     H42986   2.332   0.641   2.784 -1.6679  0.3040 -1.3893
  326MOL0     H42987   2.280   0.670   2.948 -2.1179  0.3743 -0.8895
  326MOL0     H42988   2.413   0.882   2.951 -0.6159 -3.7001  1.9388
  326MOL0     H42989   2.478   0.850   2.783 -3.0748 -0.2444 -1.4158
  326MOL0     H42990   2.619   0.784   3.020  1.0632  0.2559  0.0623
  326MOL0     H42991   2.522   0.639   2.988 -1.8827  0.6696  0.2610
  326MOL0     H42992   2.684   0.748   2.749  0.2170  0.0007  0.1606
  326MOL0     H42993   2.607   0.593   2.792 -0.3752 -0.9387  1.0619
  326MOL0     H42994   2.994   0.549   2.980  0.9270 -1.2061 -0.7467
  326MOL0     H42995   3.226   0.524   2.861  2.1947  2.5196  0.0932
  326MOL0     H42996   3.410   0.908   2.380 -0.9139  0.1247  2.1704
  326MOL0     H42997   3.612   0.908   2.236 -1.8065  0.8917  0.5257
  326MOL0     H42998   3.875   0.552   2.216 -1.1546  0.3423  0.3028
  326MOL0     H42999   3.920   0.660   2.346  0.9754  1.8544 -1.2186
  326MOL0     H43000   4.107   0.635   2.197 -0.2117  1.8528  2.1228
  326MOL0     H43001   4.052   0.805   2.181  2.5519  0.4789  0.9858
  326MOL0     H43002   3.944   0.743   1.973 -0.7229  1.4119  2.2731
  326MOL0     H43003   3.981   0.573   2.007 -1.4564  0.4933  2.0989
  326MOL0     H43004   4.232   0.746   2.013 -0.5458  0.9435 -0.1630
  326MOL0     H43005   4.197   0.590   1.935 -0.9812  0.3103  0.2537
  326MOL0     H43006   4.057   0.709   1.779  0.0746 -0.6348  0.4435
  326MOL0     H43007   4.228   0.762   1.754  0.2922 -0.9007  2.0749
  326MOL0     H43008   4.021   0.937   1.929  2.1042  1.6100  2.0653
  326MOL0     H43009   4.048   0.957   1.745  0.8651  1.2602 -0.5527
  326MOL0     H43010   4.265   0.981   1.959  2.5368  0.0786 -1.9053
  326MOL0     H43011   4.280   1.026   1.795 -1.3653 -0.5303 -1.6551
  326MOL0     H43012   4.237   1.218   1.943  0.6241 -1.2390 -0.8945
  326MOL0     H43013   4.077   1.155   1.987  0.3851 -0.1399  1.0203
  326MOL0     H43014   3.696   0.501   2.341 -1.2217 -2.4138  3.7199
  326MOL0     H43015   3.492   0.491   2.482  3.2548 -2.8759 -2.4494
  326MOL0     H43016   3.062   0.757   2.536 -0.8571 -2.1056 -0.8647
  326MOL0     H43017   2.847   0.742   2.636  0.3966 -3.3393 -1.1927
  326MOL0     H43018   0.964   1.237   2.540 -0.4821  1.8438 -0.1003
  326MOL0     H43019   0.756   1.335   2.547  0.5332  0.0252 -0.1063
  326MOL0     H43020   0.233   1.252   2.956 -2.7949  3.3354  2.4975
  326MOL0     H43021   0.018   1.351   2.910 -0.3276 -1.2965 -0.9694
  326MOL0     H43022  -0.141   1.334   2.775  2.2918 -0.1148  0.8735
  326MOL0     H43023  -0.162   1.366   2.602 -0.0681  3.1192 -1.3872
  326MOL0     H43024  -0.298   1.564   2.634 -1.2021 -0.4179 -0.1694
  326MOL0     H43025  -0.372   1.431   2.736 -2.3642  2.4913  0.3963
  326MOL0     H43026  -0.187   1.630   2.852 -1.3147  2.1374 -1.1933
  326MOL0     H43027  -0.277   1.517   2.938  1.6485  1.5753  2.0002
  326MOL0     H43028  -0.412   1.708   2.958 -3.2649  0.4659 -1.0414
  326MOL0     H43029  -0.411   1.739   2.780 -1.5530  2.6304  0.8982
  326MOL0     H43030  -0.692   1.428   2.842 -0.6974 -0.0039 -0.4706
  326MOL0     H43031   0.171   1.520   2.538 -0.9027  1.6055  0.6430
  326MOL0     H43032   0.380   1.412   2.576 -0.8245 -0.9529 -0.7495
  327MOL0     O43033   5.778   2.480   9.320 -0.0983  0.3579  0.0212
  327MOL0     C43034   5.867   2.458   9.404  0.0551  0.2460  0.0474
  327MOL0     O43035   5.873   2.349   9.483  0.9832 -0.5150  0.1353
  327MOL0     C43036   5.768   2.258   9.479  0.1743  0.3675 -0.0573
  327MOL0     C43037   5.668   2.260   9.568  0.0831  0.5213 -0.0249
  327MOL0     C43038   5.546   2.191   9.544 -0.1786  0.2039 -0.0160
  327MOL0     C43039   5.535   2.101   9.433 -0.2240 -0.1809 -0.4695
  327MOL0     O43040   5.423   2.023   9.404  0.6334  0.4669 -0.5670
  327MOL0     C43041   5.317   1.995   9.503 -1.1323  0.1927  0.1936
  327MOL0     C43042   5.335   1.871   9.587  0.5864  0.2842 -0.4676
  327MOL0     C43043   5.230   1.830   9.686  0.5461  0.5459  0.1845
  327MOL0     C43044   5.101   1.782   9.617  0.7540 -0.7120  0.4057
  327MOL0     C43045   4.999   1.722   9.712  0.0527 -0.3552 -1.1968
  327MOL0     C43046   4.926   1.837   9.786 -0.0228  0.0200  0.1690
  327MOL0     C43047   4.897   1.808   9.929  0.2055  0.0009 -0.7740
  327MOL0     C43048   4.789   1.694   9.945 -0.2006  0.6571 -0.0923
  327MOL0     N43049   4.661   1.732   9.878 -0.2289  0.3212  0.3247
  327MOL0     C43050   4.563   1.645   9.839 -0.2894 -0.3222  0.4747
  327MOL0     C43051   4.448   1.721   9.833 -0.1301 -0.2563 -0.1608
  327MOL0     C43052   4.312   1.666   9.814  0.1015  0.1755  0.0985
  327MOL0     C43053   4.192   1.763   9.818 -1.0772  0.2378  0.5378
  327MOL0     C43054   4.054   1.722   9.850  0.9678 -0.0259 -0.2257
  327MOL0     C43055   3.986   1.642   9.741 -0.1798  0.4450 -0.5360
  327MOL0     O43056   3.853   1.602   9.789  0.0909  0.1367  0.0456
  327MOL0     C43057   3.746   1.689   9.776  0.5338  0.2412 -0.4397
  327MOL0     C43058   3.757   1.824   9.721 -0.2013  1.1657 -0.0564
  327MOL0     C43059   3.640   1.895   9.693 -1.6130  0.0462  0.2234
  327MOL0     C43060   3.512   1.852   9.738 -0.5813  1.0365  0.3410
  327MOL0     C43061   3.399   1.933   9.699  0.3199  0.2493  0.3481
  327MOL0     O43062   3.428   2.024   9.601  0.3977 -0.2672 -0.4447
  327MOL0     C43063   3.329   2.117   9.569 -0.6462  0.2167  0.4388
  327MOL0     C43064   3.196   2.078   9.540 -0.6251 -0.3219  1.3588
  327MOL0     C43065   3.094   2.173   9.503 -0.9222 -1.3025  0.0364
  327MOL0     C43066   3.129   2.313   9.510  0.3703 -0.1736  0.3520
  327MOL0     O43067   3.045   2.420   9.476  0.1416  0.4335 -0.0939
  327MOL0     C43068   2.918   2.396   9.407 -1.0457 -0.3292  0.3220
  327MOL0     C43069   2.854   2.529   9.429 -0.8090 -0.1003 -0.0503
  327MOL0     C43070   2.718   2.528   9.358 -0.1651 -0.4335  0.0941
  327MOL0     C43071   2.676   2.672   9.357  0.3213 -0.5479  0.0287
  327MOL0     C43072   2.530   2.677   9.312  0.6448 -0.7005  0.3980
  327MOL0     C43073   2.493   2.802   9.238  0.5381  0.1103  0.2007
  327MOL0     C43074   2.343   2.801   9.196  0.1852  0.4643  0.1827
  327MOL0     C43075   2.301   2.666   9.124  0.1222 -0.5169  0.6466
  327MOL0    Cl43076   2.168   2.699   9.012  0.2379 -0.0688 -0.1739
  327MOL0     C43077   3.263   2.351   9.526 -0.6204  0.1981 -0.3242
  327MOL0     C43078   3.361   2.254   9.554 -0.2079 -0.4919 -0.1589
  327MOL0     O43079   3.294   1.918   9.754  0.0220  0.3905  0.0420
  327MOL0     C43080   3.506   1.730   9.811 -0.1639 -1.0578  1.4275
  327MOL0     C43081   3.620   1.646   9.826  0.4264 -0.0136 -0.3915
  327MOL0     N43082   4.488   1.852   9.840  0.6719  0.1804 -0.1715
  327MOL0     N43083   4.610   1.854   9.875  0.1000  0.0051 -0.0524
  327MOL0     C43084   5.647   2.078   9.356 -0.0010 -0.7554 -0.2443
  327MOL0     C43085   5.754   2.168   9.370  0.0067  0.8722 -0.4759
  327MOL0     C43086   5.956   2.576   9.421  0.4897  0.2856  0.5664
  327MOL0     C43087   5.950   2.687   9.335 -0.1045  0.0103  0.4215
  327MOL0     C43088   6.039   2.788   9.349 -0.1718 -0.4597 -0.5104
  327MOL0     C43089   6.124   2.790   9.464 -0.2485  0.9613  0.7076
  327MOL0     O43090   6.205   2.901   9.496  0.0841  0.5806  0.2022
  327MOL0     C43091   6.311   2.928   9.403 -0.2256 -0.6705 -0.5128
  327MOL0     C43092   6.385   2.814   9.329  0.1446  0.1057 -0.3645
  327MOL0     C43093   6.493   2.874   9.240 -0.3505  0.0509  0.2613
  327MOL0     C43094   6.620   2.896   9.311  0.4117  0.5860 -0.5211
  327MOL0     C43095   6.724   2.957   9.227 -0.5887 -0.6128 -0.7991
  327MOL0     C43096   6.809   3.027   9.166  0.9096  0.3596 -0.0331
  327MOL0     C43097   6.122   2.686   9.554  0.2521 -0.1533  0.4152
  327MOL0     C43098   6.040   2.570   9.535  0.5993 -0.7217  0.1892
  327MOL0     H43099   5.671   2.323   9.656  0.2187 -2.5748  2.3467
  327MOL0     H43100   5.463   2.204   9.612  0.7169 -1.6866  1.5252
  327MOL0     H43101   5.230   1.960   9.446  0.3342 -1.4730 -1.1573
  327MOL0     H43102   5.294   2.093   9.545  1.8517  1.3656 -0.6394
  327MOL0     H43103   5.429   1.877   9.642  1.5873 -1.3943 -1.8939
  327MOL0     H43104   5.336   1.789   9.515 -2.3667  0.8712 -1.3054
  327MOL0     H43105   5.202   1.918   9.745 -2.7168 -0.0946 -0.2053
  327MOL0     H43106   5.271   1.758   9.757 -1.9862 -0.3501  0.8191
  327MOL0     H43107   5.060   1.869   9.565  0.2004 -2.5751 -2.5135
  327MOL0     H43108   5.134   1.703   9.548 -1.8672 -1.9716  0.4794
  327MOL0     H43109   5.059   1.660   9.778 -0.5571 -0.0686 -0.3579
  327MOL0     H43110   4.926   1.661   9.657 -1.0284  0.0814 -0.2951
  327MOL0     H43111   4.833   1.849   9.730  0.6763 -3.5443 -2.0751
  327MOL0     H43112   4.987   1.928   9.788  0.0230  0.1088 -2.3867
  327MOL0     H43113   4.991   1.798   9.984  0.0547 -0.9841 -0.6749
  327MOL0     H43114   4.852   1.900   9.966  1.6839  0.0232  1.1234
  327MOL0     H43115   4.760   1.672  10.048 -0.5219 -2.6532 -0.7713
  327MOL0     H43116   4.826   1.601   9.901  2.3114  3.1228 -3.7320
  327MOL0     H43117   4.572   1.538   9.829  0.6268 -0.1476 -1.0127
  327MOL0     H43118   4.302   1.578   9.878  2.4566 -1.1609 -1.2083
  327MOL0     H43119   4.309   1.633   9.709 -2.0760  4.9863 -1.6334
  327MOL0     H43120   4.194   1.812   9.720  0.3840 -3.1006 -1.2695
  327MOL0     H43121   4.219   1.837   9.894  0.2851 -0.1837  0.4970
  327MOL0     H43122   4.057   1.661   9.941 -0.8671 -1.7681 -1.2659
  327MOL0     H43123   3.985   1.805   9.867 -0.4119 -0.8054 -1.7408
  327MOL0     H43124   4.048   1.552   9.728 -0.4127  0.1028  0.6207
  327MOL0     H43125   3.991   1.690   9.643  0.0612  1.4758 -0.0236
  327MOL0     H43126   3.855   1.856   9.688  0.4690 -0.8822 -0.1569
  327MOL0     H43127   3.653   1.990   9.642 -1.7691  0.0066  0.1107
  327MOL0     H43128   3.166   1.975   9.527  0.1309 -0.5052  0.9878
  327MOL0     H43129   2.998   2.126   9.486 -2.8352  1.2586  2.6580
  327MOL0     H43130   2.859   2.318   9.457  1.3347 -0.3044  3.4749
  327MOL0     H43131   2.930   2.370   9.302  1.7875 -1.6521  0.8755
  327MOL0     H43132   2.906   2.618   9.392 -2.3384  0.8082 -0.1045
  327MOL0     H43133   2.844   2.546   9.536 -2.8113 -1.0575 -0.0358
  327MOL0     H43134   2.644   2.469   9.412 -0.2048 -1.8763 -1.4598
  327MOL0     H43135   2.722   2.486   9.257 -1.6694 -1.7572  0.5621
  327MOL0     H43136   2.683   2.719   9.455  0.1689  0.7723 -0.5786
  327MOL0     H43137   2.738   2.726   9.284  0.1857  1.7387  1.5468
  327MOL0     H43138   2.461   2.668   9.396  1.6575  0.5494  1.4208
  327MOL0     H43139   2.514   2.586   9.254  2.0308 -1.8448  1.7330
  327MOL0     H43140   2.559   2.806   9.150 -0.4361 -0.7665 -0.5949
  327MOL0     H43141   2.521   2.890   9.297  0.8514 -0.9009  1.5997
  327MOL0     H43142   2.278   2.811   9.283  0.8405  1.2943  0.5946
  327MOL0     H43143   2.322   2.887   9.131  0.6590  3.4007  3.6299
  327MOL0     H43144   2.278   2.594   9.202  1.1386  0.1154  1.5650
  327MOL0     H43145   2.388   2.629   9.069  0.9720 -0.5830  2.0025
  327MOL0     H43146   3.289   2.456   9.525 -1.9589  0.5811  0.8346
  327MOL0     H43147   3.463   2.286   9.573 -0.7120  1.4982 -0.4979
  327MOL0     H43148   3.408   1.701   9.849 -1.8493  2.7819  0.4757
  327MOL0     H43149   3.616   1.548   9.873  0.3050  0.7770  1.3409
  327MOL0     H43150   5.655   2.010   9.271 -0.9772  0.1554 -1.0978
  327MOL0     H43151   5.824   2.145   9.291 -2.5147 -4.6071 -1.5551
  327MOL0     H43152   5.891   2.696   9.244  0.0541  2.0433  0.4676
  327MOL0     H43153   6.045   2.873   9.282 -0.7352 -0.9424 -1.1858
  327MOL0     H43154   6.389   2.994   9.442  2.6068 -2.0452 -3.3547
  327MOL0     H43155   6.260   2.988   9.327 -0.1565 -0.0549 -0.0761
  327MOL0     H43156   6.430   2.745   9.401  2.4492  0.6570 -1.2185
  327MOL0     H43157   6.315   2.758   9.266 -1.2495  0.7623  0.5345
  327MOL0     H43158   6.462   2.975   9.211  2.1881  0.5167 -1.0797
  327MOL0     H43159   6.506   2.822   9.144  0.6863  1.7042 -0.5409
  327MOL0     H43160   6.596   2.958   9.398  0.2266  0.5490 -0.5455
  327MOL0     H43161   6.651   2.798   9.347 -2.5232 -0.6810 -1.1486
  327MOL0     H43162   6.875   3.101   9.127  0.0754  0.5554 -1.1171
  327MOL0     H43163   6.169   2.704   9.650 -0.0290  2.0778  0.1777
  327MOL0     H43164   6.047   2.485   9.602  0.7045  0.4159  1.6566
  328MOL0     O43165   1.091   0.456   4.904  0.3393 -0.4625 -0.4913
  328MOL0     C43166   1.041   0.348   4.928  0.0250  0.1655  0.6059
  328MOL0     O43167   1.108   0.248   5.003  0.4765 -0.1361  0.1897
  328MOL0     C43168   1.246   0.261   5.016 -0.3730  0.2960  0.7061
  328MOL0     C43169   1.325   0.244   4.906 -0.0632  0.0647  0.0328
  328MOL0     C43170   1.463   0.273   4.913  0.2691  0.4848  0.0832
  328MOL0     C43171   1.519   0.323   5.022 -0.3952  0.4488 -0.8194
  328MOL0     O43172   1.656   0.351   5.039  1.0181 -0.1606  0.2406
  328MOL0     C43173   1.742   0.361   4.922 -0.3746 -0.2014 -0.1767
  328MOL0     C43174   1.829   0.240   4.927 -0.1147  0.0965 -0.1266
  328MOL0     C43175   1.929   0.248   4.810  0.2723 -0.8407  0.3728
  328MOL0     C43176   2.030   0.369   4.813 -0.0914 -0.2154 -0.0097
  328MOL0     C43177   2.127   0.355   4.699 -0.0103 -0.2226  0.1204
  328MOL0     C43178   2.262   0.427   4.724 -0.2637  0.3105  0.2387
  328MOL0     C43179   2.257   0.577   4.748  0.6134 -0.3822  0.3041
  328MOL0     C43180   2.202   0.645   4.618  0.2356  0.0741  0.7463
  328MOL0     N43181   2.063   0.674   4.635  0.0400 -0.4105  0.4360
  328MOL0     C43182   2.019   0.799   4.664  0.9393 -0.3217  0.5837
  328MOL0     C43183   1.897   0.807   4.607  0.1579 -0.1212  0.1319
  328MOL0     C43184   1.800   0.922   4.614  0.0642  0.7922  0.8077
  328MOL0     C43185   1.655   0.886   4.636 -0.4867  0.3725  0.8446
  328MOL0     C43186   1.627   0.792   4.754 -0.1164 -0.7926 -1.0714
  328MOL0     C43187   1.483   0.778   4.798  0.0565  0.1831 -0.2018
  328MOL0     O43188   1.425   0.900   4.843 -0.2731  0.2991 -0.0308
  328MOL0     C43189   1.295   0.890   4.871 -0.2337  0.4653  0.5332
  328MOL0     C43190   1.208   0.771   4.880  0.2656  0.4888  0.2540
  328MOL0     C43191   1.070   0.788   4.908  0.0610 -0.1410 -0.8928
  328MOL0     C43192   1.012   0.918   4.932 -0.2695  0.0156  0.3528
  328MOL0     C43193   0.876   0.935   4.976 -0.4870 -0.0058  0.5664
  328MOL0     O43194   0.841   1.057   5.030  0.3424 -0.6225  0.1562
  328MOL0     C43195   0.713   1.085   5.041 -0.6834 -0.4654  0.4051
  328MOL0     C43196   0.642   1.068   5.163 -0.1104  1.0292  0.0974
  328MOL0     C43197   0.506   1.098   5.164 -0.0080  0.2401  0.2878
  328MOL0     C43198   0.440   1.151   5.054  0.1830 -0.2024 -0.0129
  328MOL0     O43199   0.307   1.178   5.041  0.4363  1.2258  0.4096
  328MOL0     C43200   0.217   1.200   5.152  0.0864  0.4259  0.3058
  328MOL0     C43201   0.269   1.314   5.247  0.2358 -0.4806 -0.0792
  328MOL0     C43202   0.156   1.377   5.328  0.6306  0.0573  0.3875
  328MOL0     C43203   0.200   1.508   5.395 -0.6140 -0.1185 -0.7916
  328MOL0     C43204   0.080   1.559   5.472 -0.1252  1.0559  0.2618
  328MOL0     C43205   0.120   1.682   5.555  0.3130 -0.4412 -0.8749
  328MOL0     C43206  -0.013   1.745   5.612  0.2938  0.5005 -0.1697
  328MOL0     C43207  -0.017   1.893   5.637  0.4197  0.0934  0.9197
  328MOL0    Cl43208  -0.179   1.935   5.706 -0.2281 -0.0128 -0.0023
  328MOL0     C43209   0.511   1.169   4.935 -0.1325 -0.5216 -0.0002
  328MOL0     C43210   0.645   1.123   4.926 -0.1108  0.0146  0.0710
  328MOL0     O43211   0.805   0.834   4.969  0.1902 -0.1997 -0.0538
  328MOL0     C43212   1.098   1.025   4.923  0.4746  0.2062  0.8923
  328MOL0     C43213   1.240   1.010   4.900  0.4850 -0.2239 -0.4173
  328MOL0     N43214   1.863   0.682   4.555  0.5798  0.3018 -0.2950
  328MOL0     N43215   1.966   0.607   4.568 -0.0189 -0.1588  0.0552
  328MOL0     C43216   1.448   0.330   5.140  0.2625  0.5319 -0.0226
  328MOL0     C43217   1.314   0.297   5.136  0.3810  0.1520 -0.1407
  328MOL0     C43218   0.896   0.313   4.893 -0.4052 -0.1299  0.2675
  328MOL0     C43219   0.826   0.393   4.798 -0.4337 -0.1249 -0.6602
  328MOL0     C43220   0.690   0.356   4.760 -0.2357  0.1027 -0.1336
  328MOL0     C43221   0.625   0.244   4.822 -0.3726 -0.5362 -0.3201
  328MOL0     O43222   0.499   0.196   4.804 -0.0339  0.3657  0.1435
  328MOL0     C43223   0.419   0.268   4.710 -0.7426  0.4478 -0.3914
  328MOL0     C43224   0.290   0.189   4.684 -0.2367 -0.0394 -0.2624
  328MOL0     C43225   0.178   0.283   4.659  1.1452  0.9848 -0.1941
  328MOL0     C43226   0.187   0.344   4.518  0.4540  0.7159  0.3746
  328MOL0     C43227   0.278   0.458   4.519 -0.4516  0.0732  0.1885
  328MOL0     C43228   0.352   0.552   4.514  0.7227  0.4949 -0.6355
  328MOL0     C43229   0.700   0.175   4.912  0.0274  0.4978  0.0049
  328MOL0     C43230   0.827   0.198   4.950  0.0976 -0.7229 -0.6929
  328MOL0     H43231   1.287   0.215   4.808 -0.9923 -0.3650  0.5071
  328MOL0     H43232   1.510   0.258   4.816 -1.6294 -2.0031 -0.5467
  328MOL0     H43233   1.803   0.448   4.949 -0.0483 -1.1995  2.6242
  328MOL0     H43234   1.689   0.368   4.827 -0.2662 -0.0858 -0.2270
  328MOL0     H43235   1.767   0.151   4.915 -0.2294  0.0790  0.5698
  328MOL0     H43236   1.881   0.227   5.022 -0.0437 -1.0233 -0.3041
  328MOL0     H43237   1.873   0.260   4.716 -0.7013  1.6522  1.1615
  328MOL0     H43238   1.986   0.155   4.817  0.7600 -0.4606  1.8161
  328MOL0     H43239   1.972   0.461   4.802 -0.1215  0.0187  1.8601
  328MOL0     H43240   2.090   0.365   4.904  2.7489  0.3314 -1.7287
  328MOL0     H43241   2.097   0.389   4.600  2.6387  1.5077 -0.1752
  328MOL0     H43242   2.154   0.249   4.698  1.5937  0.1644 -1.4892
  328MOL0     H43243   2.328   0.414   4.638  0.9000  1.7692  0.8544
  328MOL0     H43244   2.320   0.380   4.805  1.1796 -0.7972 -1.3597
  328MOL0     H43245   2.192   0.592   4.835  0.9247 -0.0785  0.4852
  328MOL0     H43246   2.356   0.622   4.759  0.5416 -0.1290 -0.0686
  328MOL0     H43247   2.208   0.574   4.534  2.9875 -0.2274  1.1094
  328MOL0     H43248   2.261   0.731   4.584  0.2102  0.7265  2.2754
  328MOL0     H43249   2.074   0.872   4.723 -0.8165  0.7200  1.0116
  328MOL0     H43250   1.808   0.979   4.521 -3.8142  0.7313  0.2626
  328MOL0     H43251   1.823   0.978   4.704  0.2293  0.4733  0.9671
  328MOL0     H43252   1.613   0.832   4.551  3.1180 -4.2050  1.5352
  328MOL0     H43253   1.608   0.982   4.657  1.3529  1.3356  0.7725
  328MOL0     H43254   1.672   0.697   4.727  1.8206 -0.0278 -0.6934
  328MOL0     H43255   1.663   0.832   4.849 -1.3636 -1.2260 -0.3916
  328MOL0     H43256   1.458   0.696   4.866 -1.3799 -0.9349 -1.9975
  328MOL0     H43257   1.431   0.752   4.705 -0.8991  1.7577 -0.1319
  328MOL0     H43258   1.256   0.677   4.853 -1.7467 -0.4591 -0.2218
  328MOL0     H43259   1.014   0.696   4.911  0.1123 -0.1704  1.8237
  328MOL0     H43260   0.704   1.033   5.245  0.9543  2.7102  0.0653
  328MOL0     H43261   0.460   1.056   5.253  0.6412 -2.0563 -0.4090
  328MOL0     H43262   0.212   1.107   5.210  1.6369  0.7879  1.0653
  328MOL0     H43263   0.117   1.224   5.114  0.1518 -0.7223 -0.6311
  328MOL0     H43264   0.317   1.390   5.185 -0.1290 -0.2419 -0.0718
  328MOL0     H43265   0.348   1.290   5.318 -0.0142  0.8076  0.6561
  328MOL0     H43266   0.130   1.305   5.406  1.6771  0.4401  1.1312
  328MOL0     H43267   0.069   1.399   5.267  0.5707  0.6418  0.6770
  328MOL0     H43268   0.281   1.478   5.462 -0.1831  0.6230 -0.9779
  328MOL0     H43269   0.238   1.583   5.326  1.0272 -0.9263 -0.7972
  328MOL0     H43270   0.040   1.487   5.543 -0.7045  3.5881  2.6562
  328MOL0     H43271  -0.006   1.573   5.405 -0.1543 -2.5579 -0.6756
  328MOL0     H43272   0.170   1.754   5.490  2.3444 -1.1218 -0.1431
  328MOL0     H43273   0.191   1.663   5.636  0.2962 -0.2188 -0.8068
  328MOL0     H43274  -0.086   1.716   5.535  0.7913 -1.2339 -0.0369
  328MOL0     H43275  -0.042   1.691   5.702 -2.0646  0.0704 -1.1009
  328MOL0     H43276  -0.009   1.952   5.546 -0.2392  0.6210  1.1999
  328MOL0     H43277   0.061   1.925   5.707  0.6782 -0.5218  0.9272
  328MOL0     H43278   0.465   1.207   4.844 -1.4385 -0.0449  0.8314
  328MOL0     H43279   0.712   1.133   4.841 -0.0577  0.2053  0.1346
  328MOL0     H43280   1.071   1.127   4.946  1.5279  0.5000  0.8787
  328MOL0     H43281   1.284   1.108   4.883  0.1788 -0.1612 -0.8895
  328MOL0     H43282   1.500   0.355   5.231  1.3948 -2.7766  0.3554
  328MOL0     H43283   1.255   0.294   5.227 -0.1298 -3.6588 -0.4195
  328MOL0     H43284   0.874   0.481   4.756 -1.9393  1.6095  1.0651
  328MOL0     H43285   0.634   0.424   4.696 -0.1470 -0.7655 -1.1604
  328MOL0     H43286   0.466   0.266   4.611 -2.9929 -0.4959 -1.5428
  328MOL0     H43287   0.399   0.372   4.738 -4.2399 -0.2976  0.3642
  328MOL0     H43288   0.303   0.119   4.600  0.6571  2.7557 -2.6295
  328MOL0     H43289   0.272   0.120   4.767 -0.3960  2.2824  1.7256
  328MOL0     H43290   0.180   0.355   4.741 -2.5355 -1.5165  2.4511
  328MOL0     H43291   0.092   0.220   4.684 -0.3969  3.2104  0.4096
  328MOL0     H43292   0.220   0.259   4.459 -1.4713  0.9704 -1.1632
  328MOL0     H43293   0.089   0.377   4.482  0.2000  2.0899  2.1616
  328MOL0     H43294   0.412   0.640   4.507  0.0127  0.9905 -0.6452
  328MOL0     H43295   0.647   0.093   4.961  0.3469  0.8725  0.9942
  328MOL0     H43296   0.869   0.137   5.030 -0.7626 -0.8074 -0.2909
  329MOL0     O43297   2.475   8.652   2.238  0.0373  0.4156 -0.1705
  329MOL0     C43298   2.459   8.673   2.359  0.4032 -0.7664  0.0204
  329MOL0     O43299   2.343   8.730   2.419 -1.0039  0.3883 -0.0941
  329MOL0     C43300   2.234   8.729   2.340 -0.2577 -0.4404 -0.4206
  329MOL0     C43301   2.117   8.686   2.395 -0.0961 -0.3594 -0.3357
  329MOL0     C43302   2.005   8.656   2.316 -0.1714 -0.8459 -0.2611
  329MOL0     C43303   1.998   8.684   2.177 -0.1146 -0.3130 -0.1399
  329MOL0     O43304   1.887   8.663   2.101 -0.5334 -0.2162  1.1193
  329MOL0     C43305   1.777   8.572   2.124  0.1199  0.8245 -0.0828
  329MOL0     C43306   1.816   8.426   2.117 -0.1871 -0.3897 -0.2851
  329MOL0     C43307   1.695   8.344   2.067 -0.1060  0.0675  0.4710
  329MOL0     C43308   1.591   8.303   2.162 -0.3221  0.0461 -0.1828
  329MOL0     C43309   1.619   8.185   2.260 -0.1990 -1.4617 -0.3094
  329MOL0     C43310   1.659   8.060   2.182  0.6063  0.2629 -0.8215
  329MOL0     C43311   1.678   7.941   2.277 -0.4348  0.4612 -0.4281
  329MOL0     C43312   1.682   7.821   2.195 -0.0925  0.4239  0.8820
  329MOL0     N43313   1.684   7.702   2.279 -0.2533 -0.6772 -0.8443
  329MOL0     C43314   1.597   7.657   2.369 -0.0558  0.2681  0.6274
  329MOL0     C43315   1.648   7.541   2.414  0.3048 -0.2472 -0.4596
  329MOL0     C43316   1.580   7.450   2.514  0.3007 -0.6913 -0.3746
  329MOL0     C43317   1.632   7.501   2.659 -0.0546  0.0464  0.0782
  329MOL0     C43318   1.583   7.409   2.773  0.0788 -0.7091  0.0448
  329MOL0     C43319   1.429   7.391   2.783 -1.0742  0.1670  0.0619
  329MOL0     O43320   1.365   7.521   2.786 -0.6639 -0.1374 -0.1612
  329MOL0     C43321   1.225   7.533   2.765  0.4448 -0.9841 -0.4385
  329MOL0     C43322   1.150   7.466   2.671 -0.1720 -0.0603 -0.3420
  329MOL0     C43323   1.017   7.496   2.646 -0.4796 -0.5388  0.2088
  329MOL0     C43324   0.957   7.597   2.727 -0.1038  0.3670 -0.1332
  329MOL0     C43325   0.813   7.632   2.710  0.0067  0.7495  0.6442
  329MOL0     O43326   0.735   7.547   2.634  0.0625 -0.3194 -0.0363
  329MOL0     C43327   0.599   7.579   2.638 -0.0216  0.5531  0.5292
  329MOL0     C43328   0.521   7.535   2.747 -0.1573 -0.1748  0.6936
  329MOL0     C43329   0.385   7.584   2.762  0.0700 -0.4857  0.6458
  329MOL0     C43330   0.333   7.670   2.659  0.2587 -0.5626 -1.3700
  329MOL0     O43331   0.209   7.723   2.661 -0.4150 -0.4039  0.1607
  329MOL0     C43332   0.122   7.687   2.769  0.6435 -0.3642 -0.3366
  329MOL0     C43333  -0.012   7.764   2.784 -0.3656  0.3628 -0.5665
  329MOL0     C43334  -0.108   7.690   2.876 -0.2545 -0.6943  0.2917
  329MOL0     C43335  -0.222   7.782   2.910  0.6319 -0.1993 -0.1618
  329MOL0     C43336  -0.333   7.711   2.980 -0.3649  1.1281  0.3074
  329MOL0     C43337  -0.440   7.798   3.032  0.0583 -0.5634 -0.2250
  329MOL0     C43338  -0.543   7.706   3.091 -0.6201  0.0584  0.2661
  329MOL0     C43339  -0.670   7.788   3.138 -0.7583 -0.3211 -0.6034
  329MOL0    Cl43340  -0.611   7.906   3.270 -0.2750 -0.5756  0.1304
  329MOL0     C43341   0.407   7.699   2.554 -0.3170  0.2532 -0.2498
  329MOL0     C43342   0.543   7.661   2.544 -0.2061  0.2471 -0.8491
  329MOL0     O43343   0.773   7.737   2.761  0.0981  0.4408 -0.2323
  329MOL0     C43344   1.032   7.661   2.829  0.1948  0.9312  0.3015
  329MOL0     C43345   1.167   7.635   2.841  0.3768  0.4057  0.5221
  329MOL0     N43346   1.762   7.517   2.350 -0.5702 -0.5142  0.5864
  329MOL0     N43347   1.792   7.616   2.277  0.4528 -0.3661  0.2681
  329MOL0     C43348   2.114   8.753   2.135 -0.0653 -0.0160 -0.3221
  329MOL0     C43349   2.231   8.779   2.211 -0.3499  0.5432 -0.2866
  329MOL0     C43350   2.572   8.658   2.453  0.2514 -0.3064 -0.9109
  329MOL0     C43351   2.550   8.674   2.597  0.9817  0.1437  0.5147
  329MOL0     C43352   2.660   8.658   2.679 -0.2201  0.2366 -0.3083
  329MOL0     C43353   2.788   8.626   2.634 -0.1227 -0.1809 -0.2115
  329MOL0     O43354   2.885   8.610   2.731 -0.4876 -0.3307  0.3111
  329MOL0     C43355   2.992   8.706   2.738 -0.1976  0.2414 -0.6443
  329MOL0     C43356   3.066   8.698   2.865  0.0990 -0.0935 -0.9272
  329MOL0     C43357   3.213   8.767   2.850  0.8182  0.3542  0.2178
  329MOL0     C43358   3.310   8.761   2.976 -0.1413  0.7804 -0.7126
  329MOL0     C43359   3.424   8.853   2.964 -0.4282 -1.3211 -0.4041
  329MOL0     C43360   3.521   8.934   2.977  0.5713 -0.1746  0.0853
  329MOL0     C43361   2.811   8.604   2.499  0.3800  1.4715  0.3104
  329MOL0     C43362   2.703   8.624   2.405  0.0701  0.3754  0.2747
  329MOL0     H43363   2.121   8.665   2.502 -1.6108 -0.0430 -0.2018
  329MOL0     H43364   1.922   8.611   2.369 -0.1395  0.1020  0.6409
  329MOL0     H43365   1.701   8.587   2.047  0.0765 -0.9957 -0.4469
  329MOL0     H43366   1.730   8.597   2.219  1.4842  1.8574  0.3487
  329MOL0     H43367   1.834   8.381   2.215 -0.1087  1.4843  0.6026
  329MOL0     H43368   1.905   8.420   2.054  0.1906 -1.8085  0.3287
  329MOL0     H43369   1.729   8.250   2.024 -3.2315 -0.5355 -0.9686
  329MOL0     H43370   1.656   8.403   1.983  2.2114  0.2011 -0.5951
  329MOL0     H43371   1.567   8.392   2.221  2.3513  1.4009 -0.9936
  329MOL0     H43372   1.500   8.284   2.104 -1.6822  0.6893  1.6454
  329MOL0     H43373   1.531   8.179   2.324 -0.5218 -0.0891 -0.6040
  329MOL0     H43374   1.697   8.226   2.325 -2.2233  0.5418  0.9729
  329MOL0     H43375   1.753   8.071   2.128  1.1357  0.3185  0.0832
  329MOL0     H43376   1.577   8.037   2.114  0.8647  0.6546 -1.2689
  329MOL0     H43377   1.765   7.940   2.343 -0.2850 -2.2796 -0.5444
  329MOL0     H43378   1.593   7.943   2.345 -0.3863 -0.6238 -0.3156
  329MOL0     H43379   1.770   7.832   2.132 -0.4777 -0.2532  0.2160
  329MOL0     H43380   1.602   7.813   2.122  0.0237  1.4978  0.6178
  329MOL0     H43381   1.510   7.718   2.391  1.0759  3.0505 -1.9222
  329MOL0     H43382   1.620   7.349   2.500  1.3659 -0.4764  0.8956
  329MOL0     H43383   1.471   7.449   2.513  0.2807  0.5588 -1.0127
  329MOL0     H43384   1.597   7.604   2.671  0.0621 -0.0925  1.8070
  329MOL0     H43385   1.741   7.503   2.652 -0.1211  1.5784 -1.0576
  329MOL0     H43386   1.633   7.313   2.761  2.9516  0.8129 -1.0315
  329MOL0     H43387   1.627   7.450   2.865  2.8564 -0.4522 -1.2930
  329MOL0     H43388   1.391   7.339   2.871 -2.2381  2.8140  1.2237
  329MOL0     H43389   1.386   7.332   2.701  1.3779 -2.4256  0.5177
  329MOL0     H43390   1.189   7.388   2.608 -1.4171  0.4871 -1.8503
  329MOL0     H43391   0.959   7.446   2.569  0.7871  1.6769 -2.3744
  329MOL0     H43392   0.568   7.466   2.815  0.1497  1.2515  1.9818
  329MOL0     H43393   0.335   7.545   2.851 -0.0002  1.0732  1.3227
  329MOL0     H43394   0.165   7.680   2.869  1.0393 -0.4022 -0.5045
  329MOL0     H43395   0.096   7.583   2.747 -0.3538 -1.0543  3.4148
  329MOL0     H43396  -0.062   7.779   2.688 -2.4561 -0.3576  0.3418
  329MOL0     H43397   0.017   7.857   2.833 -2.2167 -0.8234  3.2016
  329MOL0     H43398  -0.060   7.659   2.969  0.4617 -1.7815 -0.4143
  329MOL0     H43399  -0.135   7.592   2.834  1.4042  0.0179 -2.6865
  329MOL0     H43400  -0.181   7.867   2.965  1.6402  0.7628 -2.3165
  329MOL0     H43401  -0.274   7.814   2.819 -1.8603  0.2911  1.3285
  329MOL0     H43402  -0.279   7.658   3.059 -2.0860 -3.0417 -1.0678
  329MOL0     H43403  -0.385   7.635   2.922 -2.3120  0.6676  2.4944
  329MOL0     H43404  -0.490   7.858   2.956 -2.4799  1.9272  3.0921
  329MOL0     H43405  -0.407   7.870   3.108 -0.3202  2.3544 -2.6455
  329MOL0     H43406  -0.587   7.641   3.015  0.0752 -1.1738  0.8857
  329MOL0     H43407  -0.510   7.634   3.166 -0.2628 -2.9995 -2.5945
  329MOL0     H43408  -0.752   7.726   3.176 -1.0157 -0.3661 -1.2314
  329MOL0     H43409  -0.728   7.842   3.063 -0.1467 -0.6263 -1.3077
  329MOL0     H43410   0.353   7.760   2.482 -0.9315  1.4021  1.1299
  329MOL0     H43411   0.603   7.676   2.455  1.9440  0.0646  0.4983
  329MOL0     H43412   1.000   7.746   2.888  0.4551  0.7667  0.6806
  329MOL0     H43413   1.236   7.688   2.907  4.4619 -4.3230  0.7036
  329MOL0     H43414   2.132   8.788   2.034  0.2454 -3.6640 -1.6668
  329MOL0     H43415   2.312   8.836   2.166 -1.2951  1.2912 -1.0808
  329MOL0     H43416   2.453   8.703   2.636  0.4505 -0.7009 -0.1542
  329MOL0     H43417   2.649   8.658   2.787 -0.0589 -0.2574 -0.2907
  329MOL0     H43418   2.956   8.807   2.717 -0.4596 -0.4297 -4.0664
  329MOL0     H43419   3.054   8.677   2.652 -0.3767 -3.2897  0.2491
  329MOL0     H43420   3.016   8.752   2.946  0.7934 -0.7063 -0.0769
  329MOL0     H43421   3.087   8.596   2.897 -2.0856 -0.5449 -0.7748
  329MOL0     H43422   3.184   8.872   2.839 -2.1899 -0.4483 -0.2386
  329MOL0     H43423   3.259   8.727   2.759 -0.6592  0.6212 -0.6860
  329MOL0     H43424   3.256   8.767   3.072  3.6983 -2.5195  1.9988
  329MOL0     H43425   3.360   8.664   2.977  1.2150  1.3372  2.9725
  329MOL0     H43426   3.614   8.987   2.977 -1.3080  3.4973 -0.7167
  329MOL0     H43427   2.906   8.559   2.473  0.2782  0.9566  0.8012
  329MOL0     H43428   2.724   8.608   2.300 -1.9763  0.4036 -0.1967
  330MOL0     O43429   1.853   3.348  10.931  0.7060  0.3509  0.0312
  330MOL0     C43430   1.921   3.440  10.971 -0.6865 -0.0767  0.2588
  330MOL0     O43431   1.883   3.546  11.038 -0.3900 -0.1741  0.4953
  330MOL0     C43432   1.761   3.558  11.113 -0.4271 -0.0242  0.1732
  330MOL0     C43433   1.679   3.450  11.152 -0.2497  0.4309  0.0717
  330MOL0     C43434   1.589   3.473  11.261 -0.2550  0.3531  0.5781
  330MOL0     C43435   1.578   3.596  11.315 -0.4637  0.0550  0.3282
  330MOL0     O43436   1.477   3.623  11.399  0.0085  0.0396  0.0975
  330MOL0     C43437   1.364   3.680  11.337  0.2770  1.2950 -0.0791
  330MOL0     C43438   1.240   3.608  11.386  0.1840 -0.0867  0.1509
  330MOL0     C43439   1.108   3.667  11.338 -0.0242 -0.0943  0.1171
  330MOL0     C43440   1.058   3.779  11.431  0.3185  0.2880 -0.2878
  330MOL0     C43441   0.921   3.828  11.394  1.5381 -0.1013 -0.1488
  330MOL0     C43442   0.872   3.916  11.508  0.0416 -0.2329 -0.2195
  330MOL0     C43443   0.726   3.963  11.481  0.7521  0.3492 -0.9125
  330MOL0     C43444   0.644   3.845  11.536 -0.1680  0.5028  0.0212
  330MOL0     N43445   0.501   3.842  11.511 -0.3597 -0.2558 -0.6371
  330MOL0     C43446   0.421   3.958  11.495 -0.3806  0.3872  0.0778
  330MOL0     C43447   0.307   3.913  11.461 -0.1045  0.1292 -0.0434
  330MOL0     C43448   0.185   3.997  11.427 -0.4272  0.0348 -0.6735
  330MOL0     C43449   0.151   4.098  11.535  0.4637 -0.1189  0.4506
  330MOL0     C43450   0.131   4.037  11.670  0.9856  0.1272 -0.4330
  330MOL0     C43451   0.068   4.136  11.770  0.4002 -0.5462 -0.1721
  330MOL0     O43452  -0.068   4.165  11.739 -0.4467  0.0365  0.5484
  330MOL0     C43453  -0.151   4.209  11.839 -0.9494  0.1924  0.4105
  330MOL0     C43454  -0.290   4.190  11.826 -0.0423  0.0494 -0.1491
  330MOL0     C43455  -0.373   4.220  11.928  0.8324  0.1276 -0.8279
  330MOL0     C43456  -0.328   4.250  12.059 -0.2258 -0.0467  0.2283
  330MOL0     C43457  -0.425   4.258  12.172 -0.5574 -0.3653 -0.6700
  330MOL0     O43458  -0.378   4.313  12.292  0.3286 -0.0370 -0.7117
  330MOL0     C43459  -0.461   4.317  12.407  0.7661  1.2303  0.2160
  330MOL0     C43460  -0.589   4.378  12.397 -0.1984  0.3073 -0.4256
  330MOL0     C43461  -0.675   4.366  12.505  0.2915 -0.0907 -0.9614
  330MOL0     C43462  -0.648   4.300  12.620  0.3660  0.0502  0.0308
  330MOL0     O43463  -0.739   4.280  12.715  0.1753 -0.4698 -0.3295
  330MOL0     C43464  -0.842   4.189  12.687 -0.1663 -0.2939  0.8849
  330MOL0     C43465  -0.980   4.205  12.762  0.3779  0.0292  0.4865
  330MOL0     C43466  -0.965   4.183  12.917 -0.3242  0.0436  0.0859
  330MOL0     C43467  -1.097   4.199  12.987  0.1724 -0.1822 -0.0188
  330MOL0     C43468  -1.208   4.096  12.949 -0.5712 -0.6525 -0.3695
  330MOL0     C43469  -1.293   4.073  13.070  0.7573  0.1205  0.4822
  330MOL0     C43470  -1.413   3.999  13.017  0.5669 -0.2446  0.1673
  330MOL0     C43471  -1.488   3.912  13.127  0.1277  0.1156  0.0213
  330MOL0    Cl43472  -1.375   3.777  13.160 -0.4655  0.1539 -0.4354
  330MOL0     C43473  -0.523   4.252  12.635 -0.7586  0.5085 -0.1466
  330MOL0     C43474  -0.420   4.255  12.529  0.6733  0.1802 -0.2514
  330MOL0     O43475  -0.535   4.203  12.159 -0.1269  0.0576  0.4841
  330MOL0     C43476  -0.192   4.271  12.070  0.8365  0.2552  0.1132
  330MOL0     C43477  -0.102   4.258  11.963 -0.0368  0.3602  0.2829
  330MOL0     N43478   0.319   3.777  11.444 -0.6482  0.3052 -1.0582
  330MOL0     N43479   0.437   3.733  11.471 -0.7048  0.1903  0.4305
  330MOL0     C43480   1.649   3.701  11.273 -0.7532  0.0705 -0.2012
  330MOL0     C43481   1.751   3.681  11.174  0.2923 -0.0484 -0.7059
  330MOL0     C43482   2.059   3.440  10.948 -0.0430  0.3098  0.6013
  330MOL0     C43483   2.114   3.331  10.879 -0.2561 -0.8145  0.6253
  330MOL0     C43484   2.252   3.320  10.852  0.2388 -0.6877 -0.0552
  330MOL0     C43485   2.343   3.409  10.911 -0.4612  0.3462  0.3799
  330MOL0     O43486   2.477   3.386  10.914 -0.4845  0.0843  0.2254
  330MOL0     C43487   2.544   3.272  10.855  0.0752  0.8293  0.3200
  330MOL0     C43488   2.571   3.311  10.711 -0.4148  0.6787  0.4941
  330MOL0     C43489   2.665   3.204  10.642 -0.3223 -0.1907  0.0971
  330MOL0     C43490   2.755   3.268  10.537 -0.4211 -0.4178  0.9434
  330MOL0     C43491   2.854   3.362  10.586 -0.3201 -0.1917 -0.2129
  330MOL0     C43492   2.950   3.438  10.614  0.1229  0.3290  0.9096
  330MOL0     C43493   2.289   3.514  10.985  0.6454  0.0904 -0.4280
  330MOL0     C43494   2.146   3.536  10.998 -0.2926 -0.3167 -0.2568
  330MOL0     H43495   1.666   3.354  11.104  0.1975  0.4829 -0.1485
  330MOL0     H43496   1.525   3.396  11.304 -1.4621  0.4158 -1.0017
  330MOL0     H43497   1.375   3.686  11.228  1.3784  0.9355  0.0079
  330MOL0     H43498   1.329   3.774  11.379 -2.2149  0.5148 -0.2267
  330MOL0     H43499   1.243   3.600  11.495 -1.0493 -2.8047  0.0778
  330MOL0     H43500   1.250   3.506  11.347 -0.6365 -1.1784  2.5542
  330MOL0     H43501   1.027   3.594  11.326  0.6834 -0.6544 -1.4678
  330MOL0     H43502   1.123   3.706  11.237  0.3918 -0.8804 -0.1340
  330MOL0     H43503   1.059   3.755  11.538  0.8850  1.8298  0.0809
  330MOL0     H43504   1.123   3.864  11.407 -0.2301  1.4332  1.9790
  330MOL0     H43505   0.854   3.743  11.385  0.4072  0.6905  0.5085
  330MOL0     H43506   0.921   3.891  11.304  2.3314 -2.7393 -2.0982
  330MOL0     H43507   0.934   4.006  11.503  0.8060 -0.6456  1.3521
  330MOL0     H43508   0.879   3.873  11.608 -0.7207  0.6993  0.2490
  330MOL0     H43509   0.714   4.059  11.534 -1.3962 -0.8295  0.9217
  330MOL0     H43510   0.711   3.981  11.374 -0.0762  1.6906 -0.6118
  330MOL0     H43511   0.655   3.832  11.644 -0.3690  0.5665  0.0497
  330MOL0     H43512   0.678   3.753  11.489 -3.7116 -0.3416 -1.1345
  330MOL0     H43513   0.443   4.061  11.524  0.2851 -0.2849  2.1259
  330MOL0     H43514   0.104   3.928  11.404 -0.5444 -0.1344  0.1997
  330MOL0     H43515   0.211   4.055  11.337 -0.9019 -1.0352 -1.5161
  330MOL0     H43516   0.061   4.144  11.492  0.3224  0.6179  1.4846
  330MOL0     H43517   0.235   4.168  11.540  1.3540 -1.1807  0.7081
  330MOL0     H43518   0.065   3.950  11.671  1.2538 -0.0735 -0.1647
  330MOL0     H43519   0.221   3.994  11.714 -1.5342 -2.7475  2.4118
  330MOL0     H43520   0.132   4.224  11.777 -2.3462  1.6584 -0.9400
  330MOL0     H43521   0.078   4.079  11.863  1.4691 -0.8452 -0.4535
  330MOL0     H43522  -0.336   4.140  11.741 -0.3526 -1.4974  0.8757
  330MOL0     H43523  -0.480   4.214  11.913  0.9201 -1.2161 -1.0725
  330MOL0     H43524  -0.623   4.432  12.309  0.5641  2.4737  0.5364
  330MOL0     H43525  -0.778   4.396  12.488 -0.4182 -2.6224 -1.5307
  330MOL0     H43526  -0.807   4.087  12.707 -0.0840 -1.0229 -2.4149
  330MOL0     H43527  -0.870   4.192  12.581 -2.6703 -5.5592  1.0768
  330MOL0     H43528  -1.044   4.128  12.719  2.0494 -0.1188 -1.9500
  330MOL0     H43529  -1.036   4.297  12.743 -3.9232 -2.5039 -0.3477
  330MOL0     H43530  -0.892   4.252  12.959 -0.8092  1.0878 -0.7275
  330MOL0     H43531  -0.924   4.082  12.930  0.4517 -0.1321 -2.8990
  330MOL0     H43532  -1.065   4.181  13.090  3.4393  0.6217 -0.7749
  330MOL0     H43533  -1.133   4.301  12.978 -2.5207 -0.8712  1.8185
  330MOL0     H43534  -1.171   4.000  12.913 -1.2236 -0.6636 -1.0360
  330MOL0     H43535  -1.261   4.152  12.871 -1.9965 -0.8721  0.3974
  330MOL0     H43536  -1.322   4.168  13.114 -0.8773 -0.4284  0.6417
  330MOL0     H43537  -1.250   4.009  13.149  1.0275 -0.7186 -0.3237
  330MOL0     H43538  -1.481   4.077  12.982  0.1964  0.0648  1.5345
  330MOL0     H43539  -1.391   3.930  12.934  1.0959 -0.4537  0.4748
  330MOL0     H43540  -1.587   3.888  13.088  0.7820 -0.9756 -1.0586
  330MOL0     H43541  -1.497   3.978  13.214  0.6703 -0.5521  0.6006
  330MOL0     H43542  -0.510   4.203  12.731 -1.2200  0.5614 -0.0555
  330MOL0     H43543  -0.323   4.211  12.551  0.3039 -0.7470 -0.4391
  330MOL0     H43544  -0.156   4.272  12.173 -0.9594  3.4444  0.8503
  330MOL0     H43545   0.003   4.279  11.980  0.6993 -1.6139 -1.4540
  330MOL0     H43546   1.634   3.797  11.322 -1.2303 -0.0633 -0.0840
  330MOL0     H43547   1.819   3.757  11.135 -0.1561  1.1112  0.6753
  330MOL0     H43548   2.047   3.261  10.831 -0.9826 -1.1539  2.0799
  330MOL0     H43549   2.278   3.241  10.782 -1.5697  1.8564 -3.9737
  330MOL0     H43550   2.478   3.186  10.862 -0.9940  1.7061  1.5421
  330MOL0     H43551   2.626   3.243  10.921 -0.9976 -1.1726  0.8630
  330MOL0     H43552   2.491   3.295  10.638  1.4476 -1.1448 -1.3229
  330MOL0     H43553   2.605   3.414  10.694  1.4598  0.0562  0.1677
  330MOL0     H43554   2.612   3.124  10.589  1.1293 -0.8591 -0.4023
  330MOL0     H43555   2.734   3.169  10.719  0.7819 -0.7877 -1.1335
  330MOL0     H43556   2.807   3.190  10.482 -0.7998 -0.3236  0.4408
  330MOL0     H43557   2.694   3.320  10.462  0.2987 -0.1832  0.5178
  330MOL0     H43558   3.039   3.493  10.638  1.9319  0.4345 -4.5782
  330MOL0     H43559   2.351   3.586  11.036 -0.0285 -1.0918  2.2047
  330MOL0     H43560   2.121   3.625  11.055  0.3210 -0.0237 -0.4368
  331MOL0     O43561  11.201   9.215   1.118 -0.0702 -0.1440 -0.3669
  331MOL0     C43562  11.217   9.298   1.204 -0.5344  0.6536  0.0119
  331MOL0     O43563  11.124   9.377   1.248  0.0855 -0.7017  0.5627
  331MOL0     C43564  10.998   9.369   1.190  0.3925  0.3192  0.6549
  331MOL0     C43565  10.968   9.376   1.048 -0.2349 -0.2305  0.1977
  331MOL0     C43566  10.828   9.375   1.016 -0.3764  0.2579 -0.2158
  331MOL0     C43567  10.729   9.349   1.109 -0.6712 -0.4814  0.0853
  331MOL0     O43568  10.600   9.359   1.056 -0.0880  0.2538 -0.3353
  331MOL0     C43569  10.485   9.338   1.139  0.4815  0.0474  0.2342
  331MOL0     C43570  10.361   9.355   1.047  0.0116 -0.0523 -0.7108
  331MOL0     C43571  10.228   9.346   1.126  0.1148 -0.0397  0.3425
  331MOL0     C43572  10.109   9.381   1.030  0.1717  0.0579 -0.4927
  331MOL0     C43573   9.974   9.397   1.103 -0.1545 -0.3780  0.7849
  331MOL0     C43574   9.908   9.272   1.151  0.7199  0.4312  0.4064
  331MOL0     C43575   9.774   9.303   1.202  0.1251 -0.0398 -0.8764
  331MOL0     C43576   9.709   9.181   1.280  0.9275 -0.6946  0.5863
  331MOL0     N43577   9.583   9.220   1.342  0.1705  0.4707  0.3847
  331MOL0     C43578   9.480   9.139   1.385  0.5142  0.3255 -0.5271
  331MOL0     C43579   9.383   9.216   1.427 -0.4863 -0.3210  0.7256
  331MOL0     C43580   9.255   9.167   1.488  0.5320 -0.1444  0.2606
  331MOL0     C43581   9.178   9.072   1.393 -0.2439 -0.2862  0.0272
  331MOL0     C43582   9.054   8.986   1.451 -1.1974 -0.0583 -1.0418
  331MOL0     C43583   8.918   9.061   1.458 -0.3440 -0.1671 -0.0283
  331MOL0     O43584   8.808   8.984   1.412 -0.1957  0.2576  0.2303
  331MOL0     C43585   8.759   8.866   1.472  0.3597 -0.3914 -0.3865
  331MOL0     C43586   8.634   8.819   1.427 -1.0896 -0.0455  0.2615
  331MOL0     C43587   8.577   8.706   1.477 -0.5617 -0.4717  0.3851
  331MOL0     C43588   8.648   8.627   1.575 -0.9571 -0.4992  0.0999
  331MOL0     C43589   8.603   8.500   1.620  1.4303 -0.3601  0.0927
  331MOL0     O43590   8.511   8.439   1.534  0.6056 -0.5892 -0.0987
  331MOL0     C43591   8.457   8.325   1.575 -0.6953  0.2709 -0.9402
  331MOL0     C43592   8.380   8.309   1.689 -0.5910  0.0382  0.6380
  331MOL0     C43593   8.356   8.188   1.745  0.1759  1.0930 -0.2217
  331MOL0     C43594   8.380   8.071   1.671 -0.6271 -1.2578 -0.0057
  331MOL0     O43595   8.348   7.943   1.717 -0.4722 -0.2703  0.2388
  331MOL0     C43596   8.268   7.931   1.829 -0.3039  0.0350 -0.1857
  331MOL0     C43597   8.249   7.784   1.860 -0.2377  0.5037 -1.1997
  331MOL0     C43598   8.164   7.700   1.759  0.4263 -0.1743  1.4607
  331MOL0     C43599   8.099   7.572   1.823 -0.4133  0.7559 -1.2244
  331MOL0     C43600   7.997   7.502   1.733  0.0596 -0.0185  0.5993
  331MOL0     C43601   7.928   7.380   1.809 -0.6711  0.1831  0.1342
  331MOL0     C43602   7.819   7.308   1.727 -0.0564  0.4580 -0.6021
  331MOL0     C43603   7.745   7.220   1.831  0.1447 -0.3451 -0.2146
  331MOL0    Cl43604   7.590   7.179   1.757 -0.2371  0.8595  0.2856
  331MOL0     C43605   8.442   8.082   1.546 -0.3056 -0.7532 -0.0800
  331MOL0     C43606   8.477   8.208   1.503  0.1286 -0.3974 -0.0707
  331MOL0     O43607   8.642   8.448   1.723 -0.2909  0.0822 -0.5605
  331MOL0     C43608   8.761   8.686   1.635  1.4059  0.5788 -0.0454
  331MOL0     C43609   8.822   8.798   1.578  0.4421  0.0590 -0.8573
  331MOL0     N43610   9.432   9.345   1.443  0.2033 -0.6083 -0.0506
  331MOL0     N43611   9.547   9.349   1.388 -0.0199 -0.4133  0.7646
  331MOL0     C43612  10.760   9.326   1.247 -0.2435 -0.7070  0.1519
  331MOL0     C43613  10.898   9.343   1.284  0.7000 -0.1074  0.4953
  331MOL0     C43614  11.356   9.327   1.241  0.0735  0.2317 -0.0610
  331MOL0     C43615  11.387   9.391   1.366  0.2495 -0.6216  0.2751
  331MOL0     C43616  11.519   9.427   1.400 -0.8403 -0.6011  0.4838
  331MOL0     C43617  11.625   9.395   1.314  0.1580  0.0884 -0.0222
  331MOL0     O43618  11.758   9.430   1.340 -0.0067  0.2932 -0.1393
  331MOL0     C43619  11.781   9.571   1.350 -0.1119 -0.8401 -0.0121
  331MOL0     C43620  11.932   9.585   1.343  0.1214  0.4893  0.0501
  331MOL0     C43621  11.983   9.531   1.210  0.4900 -0.1925  0.1860
  331MOL0     C43622  12.135   9.528   1.199  0.0200 -0.1925  0.1194
  331MOL0     C43623  12.192   9.666   1.178  0.0348  0.1136 -0.0110
  331MOL0     C43624  12.214   9.788   1.163  0.6755  0.0777 -0.2279
  331MOL0     C43625  11.590   9.328   1.197 -0.2870  0.0611  0.6513
  331MOL0     C43626  11.461   9.301   1.158 -0.6018  0.0706  0.0848
  331MOL0     H43627  11.046   9.390   0.974 -1.0746 -3.8292 -1.5398
  331MOL0     H43628  10.801   9.413   0.918 -0.0722 -1.0610 -0.8378
  331MOL0     H43629  10.475   9.413   1.218 -3.3876  0.0277 -0.0784
  331MOL0     H43630  10.490   9.241   1.189 -2.9848  0.7325  2.2468
  331MOL0     H43631  10.357   9.276   0.971 -1.4526  0.7032 -1.4446
  331MOL0     H43632  10.379   9.452   1.000 -2.2321  0.9295  0.3371
  331MOL0     H43633  10.222   9.422   1.204  0.0951 -0.7075  1.0064
  331MOL0     H43634  10.228   9.253   1.183  0.0863 -0.7037 -0.7134
  331MOL0     H43635  10.124   9.479   0.984  2.7136 -0.9869 -2.1520
  331MOL0     H43636  10.101   9.307   0.950 -0.5342  1.0465 -1.3623
  331MOL0     H43637   9.901   9.448   1.039  0.6142  1.7255  1.4747
  331MOL0     H43638   9.993   9.453   1.195  0.7287 -0.2160  0.5071
  331MOL0     H43639   9.969   9.231   1.232  0.8995  2.8703  1.5902
  331MOL0     H43640   9.898   9.199   1.069  2.2648  1.3568 -0.6584
  331MOL0     H43641   9.782   9.398   1.255  1.5626 -2.1541  3.0336
  331MOL0     H43642   9.709   9.321   1.115 -2.1583 -0.9554  0.5585
  331MOL0     H43643   9.783   9.157   1.357  0.6574 -2.2610  0.4056
  331MOL0     H43644   9.689   9.096   1.214  1.5389  0.0633 -0.5976
  331MOL0     H43645   9.480   9.031   1.371 -4.7009  0.0883 -0.5570
  331MOL0     H43646   9.194   9.252   1.519 -0.9573 -0.8361 -0.6775
  331MOL0     H43647   9.276   9.114   1.582  2.5745 -1.3529 -0.8044
  331MOL0     H43648   9.239   8.986   1.364 -1.1217 -0.7524 -0.4812
  331MOL0     H43649   9.152   9.128   1.303  0.3859  0.1822  0.1322
  331MOL0     H43650   9.048   8.885   1.410 -1.3674 -1.8843  3.0283
  331MOL0     H43651   9.080   8.958   1.553 -2.0672 -0.5219 -0.9369
  331MOL0     H43652   8.920   9.164   1.422 -0.7742  1.0805  3.2366
  331MOL0     H43653   8.892   9.071   1.563 -5.7899 -1.5750 -0.9598
  331MOL0     H43654   8.591   8.875   1.344  1.6843  3.2067  0.7727
  331MOL0     H43655   8.484   8.672   1.431  0.4688 -0.4075 -1.9135
  331MOL0     H43656   8.367   8.387   1.764 -0.8807 -0.8251  1.4993
  331MOL0     H43657   8.310   8.189   1.843 -2.0256  1.4148 -1.2020
  331MOL0     H43658   8.173   7.981   1.808  0.2199  1.8279  1.4030
  331MOL0     H43659   8.313   7.988   1.911  0.7953  1.0171 -1.4200
  331MOL0     H43660   8.220   7.768   1.964  2.4335  1.7922 -0.1876
  331MOL0     H43661   8.353   7.755   1.847 -0.1427  0.6957 -0.8624
  331MOL0     H43662   8.217   7.662   1.671  0.9147  1.5238  0.9706
  331MOL0     H43663   8.086   7.765   1.718 -1.7798 -2.4825  1.7635
  331MOL0     H43664   8.176   7.496   1.841 -0.5685  0.9381  0.3076
  331MOL0     H43665   8.053   7.605   1.916  0.1230 -3.2087  0.6402
  331MOL0     H43666   8.046   7.463   1.644 -1.5469 -1.1792  0.1817
  331MOL0     H43667   7.920   7.570   1.696 -0.3888 -0.7393  0.1871
  331MOL0     H43668   7.881   7.417   1.900 -5.1909 -1.6630 -1.1534
  331MOL0     H43669   8.005   7.305   1.834 -0.3695  0.4811  0.1057
  331MOL0     H43670   7.751   7.379   1.679 -1.7847 -1.5585 -1.2790
  331MOL0     H43671   7.868   7.251   1.648  1.8752  3.5547 -1.8178
  331MOL0     H43672   7.721   7.272   1.924 -0.5764 -0.4927 -0.3145
  331MOL0     H43673   7.801   7.128   1.851 -1.6369 -1.5107 -0.3933
  331MOL0     H43674   8.460   7.993   1.486 -0.0971 -0.5451 -0.3259
  331MOL0     H43675   8.512   8.213   1.400 -2.2276 -1.6130 -1.0149
  331MOL0     H43676   8.809   8.637   1.719  0.2666 -1.6759 -0.6459
  331MOL0     H43677   8.923   8.823   1.612  0.8268 -1.6054 -0.6845
  331MOL0     H43678  10.683   9.314   1.323 -0.5317 -0.4920 -0.1033
  331MOL0     H43679  10.932   9.350   1.387  2.9488  0.3054 -0.2119
  331MOL0     H43680  11.301   9.406   1.429  1.3214 -0.1189  1.6743
  331MOL0     H43681  11.541   9.502   1.476  2.4807  0.7753 -1.6035
  331MOL0     H43682  11.760   9.620   1.445 -0.7589  1.8421 -1.4272
  331MOL0     H43683  11.732   9.627   1.270 -2.5032  0.3434  2.1597
  331MOL0     H43684  11.959   9.690   1.357 -3.7199  1.3480  2.9189
  331MOL0     H43685  11.984   9.519   1.413 -0.9778 -0.1557  0.2829
  331MOL0     H43686  11.940   9.589   1.128  0.1055 -2.1811 -1.1063
  331MOL0     H43687  11.946   9.429   1.195 -2.1250  1.0566 -3.3834
  331MOL0     H43688  12.187   9.481   1.283 -1.3225  0.7445  1.5162
  331MOL0     H43689  12.153   9.476   1.105  1.5496  3.2780 -1.6953
  331MOL0     H43690  12.244   9.886   1.131 -3.7736  1.6146 -0.4086
  331MOL0     H43691  11.669   9.319   1.123  1.7797  3.8636  2.0992
  331MOL0     H43692  11.441   9.270   1.056 -0.9516 -1.0960  0.5002
  332MOL0     O43693   0.477   0.795   5.450 -0.2450 -0.3402  0.4322
  332MOL0     C43694   0.503   0.904   5.491  0.2676  0.8116 -0.2319
  332MOL0     O43695   0.415   1.006   5.533  0.2392 -0.2096 -0.5439
  332MOL0     C43696   0.274   1.002   5.509 -0.4075 -0.4200  0.4233
  332MOL0     C43697   0.206   0.938   5.405  0.7499  0.7043  0.1659
  332MOL0     C43698   0.069   0.952   5.381  0.9617 -0.3053 -0.7204
  332MOL0     C43699  -0.002   1.039   5.472  0.4315 -0.1991  0.0088
  332MOL0     O43700  -0.139   1.054   5.466  0.0045 -0.5079 -0.1373
  332MOL0     C43701  -0.218   1.001   5.354  0.6924 -0.1279  0.2814
  332MOL0     C43702  -0.352   1.076   5.354  0.0758  0.3954 -0.0117
  332MOL0     C43703  -0.424   1.044   5.229 -0.6231  0.3706  0.2856
  332MOL0     C43704  -0.559   1.130   5.224 -0.1674 -0.1850 -0.0104
  332MOL0     C43705  -0.648   1.103   5.104  0.0400  0.3108  0.6836
  332MOL0     C43706  -0.635   1.195   4.984 -0.1741  1.0196 -0.0666
  332MOL0     C43707  -0.663   1.345   5.023  0.0339  0.0019  0.1562
  332MOL0     C43708  -0.818   1.384   5.028 -0.4140 -0.0218  0.0374
  332MOL0     N43709  -0.846   1.505   5.095  0.4061 -0.4615 -0.1871
  332MOL0     C43710  -0.854   1.635   5.048  0.0733 -0.4391  0.3381
  332MOL0     C43711  -0.889   1.704   5.154 -0.0863 -0.3498 -1.2654
  332MOL0     C43712  -0.907   1.856   5.180  0.3201  0.0356  1.3330
  332MOL0     C43713  -1.057   1.884   5.181 -0.4754 -0.4833 -0.6076
  332MOL0     C43714  -1.125   1.886   5.042 -0.7098 -0.3311 -0.0153
  332MOL0     C43715  -1.269   1.920   5.052  1.0556  0.6966 -0.2779
  332MOL0     O43716  -1.325   1.790   5.080 -0.0116 -0.4672 -0.2774
  332MOL0     C43717  -1.431   1.795   5.164  0.8993  0.0675 -0.3902
  332MOL0     C43718  -1.550   1.869   5.154 -0.0935 -0.4536  0.4438
  332MOL0     C43719  -1.657   1.856   5.240  0.0114  0.6408  0.1330
  332MOL0     C43720  -1.648   1.777   5.354  0.2550 -0.7895 -0.3006
  332MOL0     C43721  -1.761   1.744   5.441 -0.4323 -0.8408  0.4347
  332MOL0     O43722  -1.759   1.613   5.493  0.2073 -0.8348  0.1248
  332MOL0     C43723  -1.834   1.586   5.609 -0.0724  0.2081  0.1528
  332MOL0     C43724  -1.766   1.593   5.731  0.8684 -0.5433 -0.0878
  332MOL0     C43725  -1.840   1.573   5.846  0.1593 -1.0283  0.6608
  332MOL0     C43726  -1.973   1.528   5.838  0.7236  0.3855  0.3218
  332MOL0     O43727  -2.038   1.499   5.959 -0.8009  0.0320 -0.5613
  332MOL0     C43728  -2.181   1.464   5.964 -0.9042  0.5687  0.5147
  332MOL0     C43729  -2.243   1.557   6.064  0.4221 -0.4839 -0.8203
  332MOL0     C43730  -2.376   1.513   6.133  0.4016 -1.1194  1.4739
  332MOL0     C43731  -2.489   1.499   6.035  0.2087 -0.1959  0.0496
  332MOL0     C43732  -2.615   1.434   6.096  0.2835 -0.3817 -0.4229
  332MOL0     C43733  -2.721   1.392   5.984 -0.3131 -0.1867 -0.5410
  332MOL0     C43734  -2.860   1.347   6.037  0.0450  0.8805 -0.1414
  332MOL0     C43735  -2.963   1.329   5.924 -0.4566 -0.4265  0.5342
  332MOL0    Cl43736  -3.123   1.293   6.004  0.5213 -0.3346  0.1161
  332MOL0     C43737  -2.025   1.506   5.707 -0.3967  0.0478 -0.9350
  332MOL0     C43738  -1.959   1.537   5.596  0.0609  0.3725 -0.1512
  332MOL0     O43739  -1.857   1.821   5.461  0.4500  0.0372  0.8997
  332MOL0     C43740  -1.527   1.703   5.370  0.7384  0.8055  0.3041
  332MOL0     C43741  -1.418   1.712   5.282  0.4719  1.1105  0.2497
  332MOL0     N43742  -0.918   1.622   5.259 -0.4884  0.2291  0.3160
  332MOL0     N43743  -0.882   1.503   5.222  0.9672  0.0158 -0.8214
  332MOL0     C43744   0.060   1.117   5.566  0.2393  0.2174 -0.4086
  332MOL0     C43745   0.206   1.101   5.583 -0.2886  0.2187  0.5943
  332MOL0     C43746   0.649   0.935   5.485  0.9518 -0.3376 -0.4076
  332MOL0     C43747   0.690   1.072   5.503 -0.1698  0.9913  0.5673
  332MOL0     C43748   0.826   1.100   5.487  0.4853  0.3162 -0.1823
  332MOL0     C43749   0.914   1.004   5.449 -0.2426 -0.1281 -1.2869
  332MOL0     O43750   1.051   1.030   5.445  1.1506 -0.2865  0.0509
  332MOL0     C43751   1.106   1.011   5.319 -0.8907 -0.6870  0.3314
  332MOL0     C43752   1.157   1.140   5.249 -0.5038 -0.2820  0.1442
  332MOL0     C43753   1.286   1.203   5.313 -0.5584 -0.5607  0.0459
  332MOL0     C43754   1.269   1.344   5.373  0.4862 -0.0351  0.4870
  332MOL0     C43755   1.173   1.347   5.477 -0.3219  0.2604  0.5759
  332MOL0     C43756   1.085   1.350   5.562 -0.1760 -0.0450 -0.6636
  332MOL0     C43757   0.875   0.872   5.431  0.2813 -0.8154 -0.5432
  332MOL0     C43758   0.740   0.839   5.448 -0.6572 -0.5519 -0.2185
  332MOL0     H43759   0.258   0.875   5.333 -2.0735  0.1401 -1.5569
  332MOL0     H43760   0.008   0.889   5.317 -0.0057  0.6521 -0.7764
  332MOL0     H43761  -0.234   0.894   5.365  1.3083 -0.2762 -0.1888
  332MOL0     H43762  -0.171   1.016   5.256  1.8124  2.8241  1.1474
  332MOL0     H43763  -0.334   1.184   5.351  0.8353  0.2566 -1.5811
  332MOL0     H43764  -0.414   1.038   5.435 -0.7136  0.7554 -0.4380
  332MOL0     H43765  -0.440   0.936   5.240 -2.4314  0.5766  0.0488
  332MOL0     H43766  -0.362   1.069   5.142  0.9387 -0.4211  1.1364
  332MOL0     H43767  -0.627   1.106   5.306 -2.3203 -2.0349 -2.1839
  332MOL0     H43768  -0.526   1.234   5.233  1.2858 -0.5516 -0.8193
  332MOL0     H43769  -0.754   1.123   5.125 -0.6518 -0.2521 -1.9450
  332MOL0     H43770  -0.635   0.998   5.074  2.3742  1.0316 -1.1467
  332MOL0     H43771  -0.706   1.164   4.907  1.6882 -0.4881 -1.2527
  332MOL0     H43772  -0.533   1.187   4.944 -0.0156 -0.2505  0.5501
  332MOL0     H43773  -0.606   1.381   5.109 -1.7487  0.1020  1.3540
  332MOL0     H43774  -0.618   1.401   4.941  0.8921  0.3792  0.8652
  332MOL0     H43775  -0.878   1.308   5.078 -0.9192  0.5187  0.2655
  332MOL0     H43776  -0.855   1.396   4.926 -0.2172  0.0243 -0.0288
  332MOL0     H43777  -0.821   1.677   4.953  0.8027 -0.3597  0.6230
  332MOL0     H43778  -0.860   1.926   5.111  1.3632 -0.0010  1.9765
  332MOL0     H43779  -0.859   1.879   5.276  2.6238  0.2350  0.1855
  332MOL0     H43780  -1.074   1.985   5.220 -1.7230  0.2197 -2.8431
  332MOL0     H43781  -1.111   1.804   5.232 -0.1940 -3.4600 -4.4875
  332MOL0     H43782  -1.077   1.961   4.979 -1.4450 -1.4164 -1.9619
  332MOL0     H43783  -1.109   1.787   4.998 -1.1796 -0.5027  0.1875
  332MOL0     H43784  -1.298   1.958   4.954  3.2092  0.1539 -1.1801
  332MOL0     H43785  -1.291   1.987   5.136 -2.4886 -1.4715  0.7119
  332MOL0     H43786  -1.573   1.944   5.079 -3.5780  0.5431  2.2530
  332MOL0     H43787  -1.752   1.909   5.232 -1.0433 -1.4142 -2.5971
  332MOL0     H43788  -1.665   1.632   5.732  0.3506  0.9296 -0.8305
  332MOL0     H43789  -1.815   1.604   5.947  0.0620  2.3765 -0.2237
  332MOL0     H43790  -2.189   1.359   5.994 -0.8378  0.1071 -1.0068
  332MOL0     H43791  -2.248   1.477   5.878 -1.0814  3.6187  1.0201
  332MOL0     H43792  -2.248   1.655   6.016  0.0237 -0.3522 -0.5191
  332MOL0     H43793  -2.172   1.589   6.142  0.4391  0.9267 -1.3748
  332MOL0     H43794  -2.404   1.593   6.203  0.2314  0.4569 -0.3274
  332MOL0     H43795  -2.346   1.420   6.182  2.7287 -1.2612 -0.0809
  332MOL0     H43796  -2.504   1.598   5.990  1.3897  0.7752  1.6700
  332MOL0     H43797  -2.473   1.430   5.952 -0.1268 -0.7203  0.4144
  332MOL0     H43798  -2.652   1.512   6.163  0.9096  0.1727 -0.7183
  332MOL0     H43799  -2.592   1.345   6.156  1.5086  0.4360  0.3719
  332MOL0     H43800  -2.676   1.310   5.928 -1.2606 -0.0676 -1.5108
  332MOL0     H43801  -2.737   1.473   5.912 -0.5765 -0.3825 -0.7042
  332MOL0     H43802  -2.841   1.257   6.095 -0.8529  0.1719 -0.9126
  332MOL0     H43803  -2.905   1.425   6.100 -2.9030 -2.1445  1.8310
  332MOL0     H43804  -2.930   1.242   5.867  1.2728  1.2754 -1.2073
  332MOL0     H43805  -2.956   1.415   5.856 -0.1855 -1.1622 -0.3931
  332MOL0     H43806  -2.121   1.457   5.699 -0.4992  0.4130 -2.0869
  332MOL0     H43807  -1.994   1.510   5.497  0.3320 -0.6770  0.0329
  332MOL0     H43808  -1.530   1.642   5.460 -0.1102 -0.7337 -0.7166
  332MOL0     H43809  -1.329   1.653   5.301 -0.6477 -0.5027  0.7222
  332MOL0     H43810   0.002   1.186   5.626  0.0767  0.2175 -0.5633
  332MOL0     H43811   0.263   1.148   5.662  2.6763 -1.0792 -0.6009
  332MOL0     H43812   0.621   1.151   5.531  1.3698  1.8103  2.2185
  332MOL0     H43813   0.866   1.200   5.501  0.1827  0.9029 -3.0000
  332MOL0     H43814   1.025   0.975   5.255 -1.1314 -0.7923  0.6930
  332MOL0     H43815   1.186   0.938   5.335 -0.1981  0.2379  1.2211
  332MOL0     H43816   1.194   1.115   5.149  1.6796  0.9447  0.5702
  332MOL0     H43817   1.087   1.223   5.236  1.1293  1.2418  0.7583
  332MOL0     H43818   1.366   1.206   5.239 -0.3382 -2.6684  0.1347
  332MOL0     H43819   1.328   1.137   5.390 -0.3403 -0.9780 -0.4252
  332MOL0     H43820   1.357   1.379   5.429 -0.5606 -1.5881  3.3311
  332MOL0     H43821   1.255   1.426   5.302  0.1364  2.2142  2.9820
  332MOL0     H43822   1.022   1.342   5.648 -0.5601 -0.0900 -0.9483
  332MOL0     H43823   0.951   0.799   5.408  2.2577  0.4293  1.6219
  332MOL0     H43824   0.710   0.735   5.439 -0.6292 -0.6231  0.4250
  333MOL0     O43825   6.416   3.570   8.590  0.4997 -0.6955 -1.3310
  333MOL0     C43826   6.487   3.603   8.493  0.4479 -0.0720 -0.6305
  333MOL0     O43827   6.448   3.612   8.360  0.5992 -0.1829 -0.8942
  333MOL0     C43828   6.325   3.566   8.335  0.3590 -0.6007 -0.4786
  333MOL0     C43829   6.219   3.648   8.371  0.0964  0.5243 -0.8392
  333MOL0     C43830   6.084   3.597   8.366 -0.6896  0.3919  0.1950
  333MOL0     C43831   6.055   3.477   8.302  0.1935  0.4399 -0.1689
  333MOL0     O43832   5.924   3.441   8.290  0.0020  0.3128 -0.3482
  333MOL0     C43833   5.879   3.317   8.242 -0.0025  0.1695 -0.5173
  333MOL0     C43834   5.934   3.206   8.336 -0.9029 -0.7515  0.1674
  333MOL0     C43835   5.901   3.065   8.283 -0.0016 -0.4894 -0.3589
  333MOL0     C43836   5.955   2.958   8.393  0.5440 -0.2505  0.6279
  333MOL0     C43837   5.883   2.830   8.359 -0.0962 -0.2944  0.1034
  333MOL0     C43838   5.927   2.731   8.465 -0.2686 -0.3764 -0.8627
  333MOL0     C43839   5.880   2.592   8.420 -0.1411  0.1101 -0.2842
  333MOL0     C43840   5.922   2.482   8.522  0.0314 -0.3475  0.2244
  333MOL0     N43841   5.892   2.342   8.457  0.5804 -0.1098 -0.0837
  333MOL0     C43842   5.775   2.283   8.458 -0.2271  0.2417 -0.2232
  333MOL0     C43843   5.788   2.162   8.409  1.1130  0.4033 -0.7649
  333MOL0     C43844   5.680   2.054   8.415  0.1542  0.2936 -0.3789
  333MOL0     C43845   5.691   1.972   8.545  0.1922 -0.2373 -0.2067
  333MOL0     C43846   5.579   1.878   8.584 -0.3450  0.6583  0.0301
  333MOL0     C43847   5.607   1.804   8.718 -0.1549  0.5784  0.5448
  333MOL0     O43848   5.491   1.725   8.764 -0.0569 -0.2442 -0.9033
  333MOL0     C43849   5.389   1.798   8.814  0.1061  0.0334 -0.0351
  333MOL0     C43850   5.278   1.717   8.842 -0.0945 -0.7733 -0.6459
  333MOL0     C43851   5.151   1.774   8.863  0.4349 -0.8382 -0.8301
  333MOL0     C43852   5.132   1.911   8.878 -0.2647 -0.2609  0.1632
  333MOL0     C43853   5.000   1.962   8.900  1.1583 -0.2886  0.3638
  333MOL0     O43854   4.887   1.880   8.891 -0.4995  0.2904 -0.4999
  333MOL0     C43855   4.764   1.929   8.911  0.1368  0.1940 -0.6271
  333MOL0     C43856   4.679   1.908   8.803 -1.0953 -0.1455  1.0421
  333MOL0     C43857   4.545   1.956   8.812  0.7259  0.4195 -0.6166
  333MOL0     C43858   4.491   2.018   8.934  0.4212 -0.1848  0.4261
  333MOL0     O43859   4.363   2.071   8.952 -0.4144  0.1671 -0.1484
  333MOL0     C43860   4.273   2.076   8.842  0.3457  0.2104 -0.0459
  333MOL0     C43861   4.130   2.090   8.894 -0.0322 -0.3606 -0.2058
  333MOL0     C43862   4.037   2.135   8.786  0.9296 -0.0467 -0.1476
  333MOL0     C43863   3.895   2.127   8.840  0.6864  0.5639  0.1077
  333MOL0     C43864   3.789   2.158   8.728 -0.7828  0.1140 -1.4024
  333MOL0     C43865   3.815   2.289   8.649  0.1481 -0.1215 -0.6879
  333MOL0     C43866   3.694   2.334   8.564 -0.0784 -0.1598  0.4008
  333MOL0     C43867   3.600   2.396   8.665  1.1406 -0.3213  0.7343
  333MOL0    Cl43868   3.452   2.425   8.573  0.1130 -0.2888  0.1854
  333MOL0     C43869   4.582   2.037   9.046 -0.2148 -0.4527  0.2644
  333MOL0     C43870   4.718   1.994   9.033 -0.0841 -0.4793  0.7042
  333MOL0     O43871   4.994   2.078   8.930  0.4061 -0.0622 -0.1776
  333MOL0     C43872   5.247   1.998   8.865 -0.6936  0.5055 -0.3509
  333MOL0     C43873   5.375   1.942   8.831  0.0515 -0.1373  1.0482
  333MOL0     N43874   5.911   2.152   8.370 -0.3727  0.1093 -0.5022
  333MOL0     N43875   5.971   2.259   8.389 -0.9096  0.2080  0.2694
  333MOL0     C43876   6.167   3.409   8.241 -0.4470  0.4427  0.4505
  333MOL0     C43877   6.293   3.459   8.259  0.1840 -0.5012 -0.1633
  333MOL0     C43878   6.636   3.621   8.518  0.7689  0.4092  0.5624
  333MOL0     C43879   6.686   3.612   8.652  0.0590  0.1556  0.4659
  333MOL0     C43880   6.821   3.635   8.674  0.0837  0.1952 -0.6459
  333MOL0     C43881   6.914   3.684   8.578  0.5505  1.1445  0.0216
  333MOL0     O43882   7.040   3.726   8.618  0.7690  0.0998  0.1853
  333MOL0     C43883   7.132   3.774   8.526  0.0337  0.3021  0.3506
  333MOL0     C43884   7.262   3.763   8.598 -0.6636  0.3271  0.0996
  333MOL0     C43885   7.391   3.784   8.499 -0.1940 -0.4641 -0.3755
  333MOL0     C43886   7.428   3.928   8.469  0.3950  0.1410 -0.2171
  333MOL0     C43887   7.565   3.959   8.452 -0.6816  0.4665 -0.2967
  333MOL0     C43888   7.678   4.005   8.450  1.0110  0.3374 -0.6347
  333MOL0     C43889   6.856   3.702   8.444 -0.1752  1.2223 -0.9312
  333MOL0     C43890   6.723   3.657   8.416  0.1999 -0.8238 -0.7581
  333MOL0     H43891   6.241   3.745   8.413  1.0540  0.4794 -1.2032
  333MOL0     H43892   5.999   3.648   8.410 -2.0715 -2.4315  1.0306
  333MOL0     H43893   5.911   3.302   8.139 -0.4928 -0.3439 -0.6067
  333MOL0     H43894   5.769   3.313   8.235 -0.0363 -2.2321  0.4801
  333MOL0     H43895   5.877   3.226   8.427 -0.3754 -0.4633  0.4424
  333MOL0     H43896   6.042   3.219   8.349 -1.2220  2.0567  0.6169
  333MOL0     H43897   5.953   3.056   8.187 -1.5702  1.6569 -1.4908
  333MOL0     H43898   5.793   3.056   8.270 -0.2839  1.8066  0.0611
  333MOL0     H43899   6.064   2.949   8.395  0.9455  2.9854 -0.6814
  333MOL0     H43900   5.929   2.985   8.496  0.4285  1.7984  0.1034
  333MOL0     H43901   5.919   2.804   8.259 -0.0982 -2.2944  0.5784
  333MOL0     H43902   5.774   2.838   8.363 -0.0430  1.5345  5.1456
  333MOL0     H43903   5.899   2.758   8.568  2.6622 -1.1585  0.2498
  333MOL0     H43904   6.036   2.732   8.481  0.3159  3.4286 -3.6784
  333MOL0     H43905   5.771   2.590   8.417 -0.3114 -2.9003  2.1635
  333MOL0     H43906   5.911   2.571   8.318 -2.8787 -0.1670 -1.1322
  333MOL0     H43907   5.861   2.500   8.611 -0.2476  2.5468 -0.4356
  333MOL0     H43908   6.029   2.479   8.545  0.0667 -3.6034  0.0325
  333MOL0     H43909   5.687   2.318   8.510 -0.6983  0.0254 -0.8587
  333MOL0     H43910   5.683   1.986   8.330 -0.4107 -0.6837  0.3619
  333MOL0     H43911   5.577   2.091   8.410 -0.7560 -2.2529 -1.8801
  333MOL0     H43912   5.700   2.042   8.629 -3.4550 -1.2764  1.2440
  333MOL0     H43913   5.779   1.908   8.537 -0.4782 -1.0363 -1.3928
  333MOL0     H43914   5.484   1.931   8.580 -2.5457 -3.0637 -1.4150
  333MOL0     H43915   5.561   1.797   8.513  1.7177  1.5694 -1.6445
  333MOL0     H43916   5.631   1.882   8.792 -0.4286  1.0765  0.1183
  333MOL0     H43917   5.689   1.733   8.706 -0.5671  0.1500  0.2382
  333MOL0     H43918   5.301   1.611   8.842  1.3485 -0.5181  1.3607
  333MOL0     H43919   5.072   1.700   8.872 -1.1671  0.9459  0.6413
  333MOL0     H43920   4.713   1.856   8.715  0.0096 -1.1145  2.0065
  333MOL0     H43921   4.482   1.947   8.724 -1.8022  2.5738  0.8265
  333MOL0     H43922   4.282   1.988   8.778  0.1982  1.3175 -1.6260
  333MOL0     H43923   4.299   2.163   8.781  0.4956 -1.1435 -2.0041
  333MOL0     H43924   4.134   2.160   8.979  1.4628 -1.6473  0.8354
  333MOL0     H43925   4.092   1.997   8.937 -3.0710  2.0893  3.0622
  333MOL0     H43926   4.057   2.080   8.694  1.8265  1.1541 -0.6974
  333MOL0     H43927   4.053   2.242   8.767 -1.6562  0.5717  0.6837
  333MOL0     H43928   3.875   2.023   8.867 -1.0777  0.5651 -1.0270
  333MOL0     H43929   3.883   2.183   8.933  2.2045  0.3457  0.4688
  333MOL0     H43930   3.693   2.167   8.780  0.5020  0.1422  1.1316
  333MOL0     H43931   3.776   2.076   8.658  1.0953 -0.9162 -0.5948
  333MOL0     H43932   3.909   2.275   8.595  0.7634 -1.3340  0.6194
  333MOL0     H43933   3.837   2.375   8.712 -0.0898  0.5979 -1.5717
  333MOL0     H43934   3.731   2.412   8.497  1.8834  0.1551  1.7510
  333MOL0     H43935   3.647   2.250   8.512  0.0015 -1.0395  1.7005
  333MOL0     H43936   3.637   2.484   8.720 -2.8393  0.2401  2.8792
  333MOL0     H43937   3.580   2.318   8.739  0.6806 -0.1633  0.7761
  333MOL0     H43938   4.556   2.081   9.141  2.0013 -0.7740  1.0687
  333MOL0     H43939   4.788   2.014   9.114 -0.3185 -3.3899  1.7358
  333MOL0     H43940   5.235   2.105   8.881  0.0387  0.6578 -0.7543
  333MOL0     H43941   5.457   2.008   8.805 -0.2038 -1.1503 -2.8843
  333MOL0     H43942   6.163   3.309   8.198  1.4491  0.5607 -0.0691
  333MOL0     H43943   6.369   3.391   8.221 -0.6756 -0.5390 -1.9217
  333MOL0     H43944   6.617   3.573   8.726  0.3840 -0.2011  0.5810
  333MOL0     H43945   6.843   3.625   8.780  1.6359  2.4792 -0.6719
  333MOL0     H43946   7.116   3.880   8.507 -0.6378  0.5322  2.0202
  333MOL0     H43947   7.128   3.708   8.439  1.0016 -1.1671  1.3707
  333MOL0     H43948   7.268   3.849   8.665  2.7301  2.4079 -2.5494
  333MOL0     H43949   7.277   3.671   8.656  1.8507 -0.5486 -1.7897
  333MOL0     H43950   7.376   3.730   8.405 -0.8623  0.9097 -1.0843
  333MOL0     H43951   7.474   3.730   8.545 -0.3810 -2.8275 -2.6176
  333MOL0     H43952   7.379   3.943   8.372  0.1854 -3.3874 -0.7996
  333MOL0     H43953   7.387   3.993   8.547  0.5546  0.5985 -0.5096
  333MOL0     H43954   7.779   4.040   8.439  0.7190  1.4075 -0.0518
  333MOL0     H43955   6.911   3.719   8.352 -1.4501  0.5987 -1.8338
  333MOL0     H43956   6.690   3.652   8.313  0.2648 -1.7207 -0.7465
  334MOL0     O43957   2.629  11.089   7.283 -0.0272  0.1918  0.3454
  334MOL0     C43958   2.663  11.001   7.201 -0.6886  0.4460  0.6684
  334MOL0     O43959   2.613  10.995   7.072  0.4093  0.3292 -1.0168
  334MOL0     C43960   2.492  11.059   7.054 -0.3708 -0.3338  0.1618
  334MOL0     C43961   2.479  11.145   6.948  0.3570  0.0368  0.0985
  334MOL0     C43962   2.358  11.216   6.931 -0.0571 -0.1906  0.7191
  334MOL0     C43963   2.254  11.207   7.021  1.1368  0.8612  0.1896
  334MOL0     O43964   2.135  11.272   7.009 -0.9241 -0.0691  0.5803
  334MOL0     C43965   2.081  11.275   6.877  0.0987  1.0706  0.0553
  334MOL0     C43966   1.944  11.338   6.898 -0.5938  0.1895 -0.2185
  334MOL0     C43967   1.831  11.243   6.915 -0.7270 -0.7028 -0.4938
  334MOL0     C43968   1.841  11.135   7.022  0.6434 -0.4308  1.1258
  334MOL0     C43969   1.840  11.187   7.159  0.5273 -0.2268 -0.7256
  334MOL0     C43970   1.831  11.081   7.265  0.3227 -0.2422 -0.2606
  334MOL0     C43971   1.829  11.130   7.407 -0.5767 -0.4090 -0.6355
  334MOL0     C43972   1.699  11.203   7.451  0.1417 -0.6016  0.0550
  334MOL0     N43973   1.574  11.142   7.405 -0.0035 -0.4622  0.6539
  334MOL0     C43974   1.540  11.018   7.446  0.6589 -0.0317  0.6204
  334MOL0     C43975   1.419  10.994   7.390  0.3197 -0.2675 -0.3859
  334MOL0     C43976   1.350  10.874   7.417  0.2950  0.7246 -0.1624
  334MOL0     C43977   1.234  10.848   7.306 -0.5089 -0.5992 -0.8764
  334MOL0     C43978   1.159  10.714   7.335  1.2566  0.2487  0.2442
  334MOL0     C43979   1.049  10.680   7.231  0.4129  0.1183 -0.3173
  334MOL0     O43980   0.998  10.548   7.266 -0.0758  0.3683 -0.3324
  334MOL0     C43981   0.874  10.514   7.226 -0.6593  0.0021 -0.4524
  334MOL0     C43982   0.817  10.559   7.108 -0.1727  0.1372  0.1939
  334MOL0     C43983   0.690  10.511   7.077  0.5781 -0.5613  0.3900
  334MOL0     C43984   0.616  10.423   7.156  0.2984 -0.4065 -0.1440
  334MOL0     C43985   0.479  10.377   7.131  0.8265 -0.1663  1.0968
  334MOL0     O43986   0.413  10.308   7.229  0.1062 -0.2900  0.1415
  334MOL0     C43987   0.311  10.226   7.199  0.0751  0.2886 -0.1593
  334MOL0     C43988   0.293  10.152   7.080 -0.1097  0.5458  0.2567
  334MOL0     C43989   0.178  10.069   7.056  0.0372 -0.0047 -0.1037
  334MOL0     C43990   0.085  10.052   7.162 -1.2404  0.3464  0.2387
  334MOL0     O43991  -0.026   9.971   7.168 -0.8392 -0.2131 -0.4654
  334MOL0     C43992  -0.087   9.913   7.050 -0.2716  0.2933  0.6294
  334MOL0     C43993  -0.174   9.801   7.105 -0.1944 -1.1005 -0.5004
  334MOL0     C43994  -0.255   9.742   6.984 -0.5164 -0.7725  0.0847
  334MOL0     C43995  -0.331   9.616   7.023 -0.7516 -0.2588  0.0771
  334MOL0     C43996  -0.434   9.589   6.914 -0.3706  0.2473  0.8156
  334MOL0     C43997  -0.537   9.489   6.960 -0.0929  0.3980 -0.1346
  334MOL0     C43998  -0.641   9.449   6.851 -0.4151 -0.3225 -0.4316
  334MOL0     C43999  -0.715   9.326   6.905 -0.5593 -0.9940 -0.2452
  334MOL0    Cl44000  -0.842   9.373   7.027 -0.3815 -0.1669  0.1943
  334MOL0     C44001   0.106  10.126   7.284 -0.0935  0.0919 -0.4265
  334MOL0     C44002   0.221  10.204   7.306 -0.1875  0.3139 -0.0517
  334MOL0     O44003   0.442  10.397   7.014  0.0554 -0.1432 -0.5181
  334MOL0     C44004   0.678  10.378   7.274 -0.3861 -0.0869  0.2083
  334MOL0     C44005   0.806  10.424   7.310  0.5391  0.8476 -0.1366
  334MOL0     N44006   1.375  11.116   7.326 -1.0747 -0.1057  0.9505
  334MOL0     N44007   1.474  11.199   7.337 -0.6499 -0.7062 -1.2642
  334MOL0     C44008   2.264  11.113   7.121 -0.6320  0.6619  1.0990
  334MOL0     C44009   2.377  11.038   7.141 -0.3231  0.4830 -0.4274
  334MOL0     C44010   2.754  10.893   7.251 -0.8500  0.3456 -0.2205
  334MOL0     C44011   2.754  10.760   7.194  0.0663 -1.2272  0.0978
  334MOL0     C44012   2.849  10.669   7.233 -0.5048  0.9449  0.0302
  334MOL0     C44013   2.943  10.696   7.326  0.5300  1.3382  0.0182
  334MOL0     O44014   3.028  10.591   7.361 -0.1147 -0.3113 -0.7574
  334MOL0     C44015   3.148  10.608   7.437 -0.3692 -0.0797  0.1012
  334MOL0     C44016   3.138  10.641   7.587  0.2390  0.6571  0.3669
  334MOL0     C44017   3.275  10.648   7.644 -0.4283 -0.3220 -1.0653
  334MOL0     C44018   3.334  10.777   7.597  0.6522  0.5738  0.1977
  334MOL0     C44019   3.441  10.812   7.686 -0.1371 -0.1804  0.6022
  334MOL0     C44020   3.534  10.867   7.744  0.0491  0.3934 -0.9786
  334MOL0     C44021   2.943  10.825   7.382  0.4437 -0.1430  0.0562
  334MOL0     C44022   2.848  10.918   7.350  0.8711  0.1918  0.1154
  334MOL0     H44023   2.566  11.162   6.886  0.9938 -0.1583  0.9150
  334MOL0     H44024   2.343  11.290   6.853  1.3574 -0.7983 -0.1834
  334MOL0     H44025   2.073  11.174   6.836 -2.2749  1.4965 -0.6865
  334MOL0     H44026   2.138  11.341   6.811  2.6349 -0.0198  1.0241
  334MOL0     H44027   1.916  11.407   6.817 -1.7402 -1.8678 -1.6599
  334MOL0     H44028   1.952  11.392   6.993 -1.6406  0.8918 -0.5176
  334MOL0     H44029   1.819  11.194   6.818 -1.0774 -0.9375 -0.3363
  334MOL0     H44030   1.732  11.283   6.939 -1.0883 -2.9408  2.4104
  334MOL0     H44031   1.760  11.065   7.001 -0.6799  0.8017  1.9767
  334MOL0     H44032   1.941  11.091   7.010  0.1447 -0.8467 -3.0700
  334MOL0     H44033   1.758  11.257   7.177  1.0042 -0.1940  1.6364
  334MOL0     H44034   1.931  11.247   7.166 -1.1957  2.4146  1.1009
  334MOL0     H44035   1.922  11.021   7.266  1.3754  1.2996 -0.4028
  334MOL0     H44036   1.746  11.012   7.263  2.1816 -2.7024  0.7542
  334MOL0     H44037   1.837  11.041   7.470 -0.7132 -0.2172 -0.3447
  334MOL0     H44038   1.915  11.195   7.427 -1.1887  0.0214  0.6944
  334MOL0     H44039   1.693  11.306   7.413 -0.0635 -0.5506  0.2246
  334MOL0     H44040   1.699  11.211   7.560  1.6546  0.7935 -0.0018
  334MOL0     H44041   1.585  10.950   7.518 -1.8932 -4.1964 -1.3354
  334MOL0     H44042   1.300  10.890   7.513 -0.6262  1.2398 -0.7239
  334MOL0     H44043   1.420  10.790   7.425  0.0976  0.4971 -0.8197
  334MOL0     H44044   1.287  10.833   7.211 -0.9897  0.9199 -1.4054
  334MOL0     H44045   1.170  10.936   7.295  2.2723  1.6976  0.1618
  334MOL0     H44046   1.227  10.630   7.319 -0.7348 -1.2410 -0.8212
  334MOL0     H44047   1.115  10.723   7.434 -2.8297  0.0887 -1.3634
  334MOL0     H44048   1.101  10.669   7.136  2.5467 -1.6350  0.9350
  334MOL0     H44049   0.968  10.753   7.223 -1.6781 -1.7994  1.7452
  334MOL0     H44050   0.874  10.623   7.040  1.4945 -1.9651 -0.5040
  334MOL0     H44051   0.644  10.546   6.986  0.0643 -0.7574  0.5724
  334MOL0     H44052   0.359  10.170   6.996 -0.1408 -1.1701 -0.1745
  334MOL0     H44053   0.166  10.016   6.962  1.4306 -1.0718  0.2835
  334MOL0     H44054  -0.008   9.871   6.987 -1.3067 -0.5743 -0.1383
  334MOL0     H44055  -0.153   9.985   7.001 -0.7401  1.3445  2.6891
  334MOL0     H44056  -0.231   9.844   7.188  3.3942  0.4943  1.3645
  334MOL0     H44057  -0.115   9.718   7.147  0.5626 -1.3570 -2.0110
  334MOL0     H44058  -0.177   9.724   6.909  1.1299  3.0133  0.6131
  334MOL0     H44059  -0.311   9.826   6.942  0.5935 -0.0665 -0.0237
  334MOL0     H44060  -0.255   9.537   7.022  0.4693  0.8759 -0.3264
  334MOL0     H44061  -0.372   9.612   7.124 -0.9252 -2.9098 -0.0397
  334MOL0     H44062  -0.393   9.568   6.815  0.5656  0.2470  1.1924
  334MOL0     H44063  -0.486   9.683   6.895  2.2392  1.5685 -0.2990
  334MOL0     H44064  -0.586   9.516   7.054  1.7931 -0.8977  1.3110
  334MOL0     H44065  -0.485   9.393   6.972  3.8212  2.0403 -2.1755
  334MOL0     H44066  -0.702   9.537   6.829 -1.9183 -0.9029  1.1616
  334MOL0     H44067  -0.585   9.414   6.764  0.8319 -2.5468  1.1502
  334MOL0     H44068  -0.652   9.241   6.930  0.6687 -1.4661 -4.2332
  334MOL0     H44069  -0.762   9.285   6.815  1.1961 -1.1320 -1.1292
  334MOL0     H44070   0.021  10.112   7.349 -1.8792  0.4263 -2.5935
  334MOL0     H44071   0.232  10.259   7.399  0.4423  1.1935 -0.6239
  334MOL0     H44072   0.620  10.320   7.345 -0.5571  1.6165  1.5187
  334MOL0     H44073   0.864  10.396   7.397 -1.8650 -1.0081  0.9695
  334MOL0     H44074   2.181  11.111   7.190 -0.8046  0.6805  0.8921
  334MOL0     H44075   2.382  10.977   7.230  0.3863  1.0931 -0.0325
  334MOL0     H44076   2.682  10.736   7.117 -1.6355  0.7723  0.9479
  334MOL0     H44077   2.848  10.564   7.206 -1.8073  1.4201 -1.9896
  334MOL0     H44078   3.215  10.684   7.395  1.0001 -0.0031  2.2196
  334MOL0     H44079   3.184  10.505   7.430 -0.4962 -0.0697 -0.7296
  334MOL0     H44080   3.085  10.732   7.617 -1.2000 -0.3255  0.9043
  334MOL0     H44081   3.084  10.553   7.625  1.7756 -0.9586 -1.0060
  334MOL0     H44082   3.339  10.564   7.615  0.5361 -0.1648  0.4726
  334MOL0     H44083   3.260  10.644   7.753  0.8695  0.0869 -0.8583
  334MOL0     H44084   3.369  10.757   7.495 -3.3763 -2.8481 -0.8152
  334MOL0     H44085   3.261  10.858   7.589  0.0944  0.0213 -0.5092
  334MOL0     H44086   3.616  10.920   7.787  1.2322 -1.9941 -0.0983
  334MOL0     H44087   3.008  10.860   7.460 -0.2580  1.7400 -0.1427
  334MOL0     H44088   2.850  11.016   7.397  0.2966  1.3604 -2.1317
  335MOL0     O44089   5.139   1.009   9.625  0.5509 -0.1333 -0.2654
  335MOL0     C44090   5.144   0.949   9.518 -0.4474 -0.3125 -0.0122
  335MOL0     O44091   5.044   0.859   9.466 -0.1298 -0.3230 -0.4556
  335MOL0     C44092   4.938   0.817   9.546  0.2778 -0.6293 -0.4591
  335MOL0     C44093   4.959   0.699   9.622 -0.2569  1.3327  0.3066
  335MOL0     C44094   4.856   0.642   9.703 -0.2846 -0.0041 -0.3048
  335MOL0     C44095   4.737   0.708   9.715 -0.4910 -0.1024  0.4799
  335MOL0     O44096   4.642   0.658   9.796 -0.1247 -0.2701  0.0297
  335MOL0     C44097   4.510   0.652   9.749 -0.3035  0.1514 -0.6119
  335MOL0     C44098   4.428   0.774   9.807 -0.3337 -0.2379  0.3544
  335MOL0     C44099   4.290   0.772   9.749  0.2724 -0.8290 -0.1306
  335MOL0     C44100   4.182   0.806   9.855  0.3649 -0.3037 -0.2497
  335MOL0     C44101   4.035   0.792   9.797  0.2811  0.0302  0.1367
  335MOL0     C44102   3.999   0.636   9.775  0.3043  0.3178  0.1084
  335MOL0     C44103   3.867   0.628   9.713  0.9604 -1.0608  0.0448
  335MOL0     C44104   3.816   0.478   9.701 -0.0861  0.1994 -0.1941
  335MOL0     N44105   3.682   0.467   9.656  1.3581 -0.4568 -0.2510
  335MOL0     C44106   3.575   0.494   9.742 -0.3735  0.4392 -0.6228
  335MOL0     C44107   3.462   0.474   9.660  0.2495  0.4354  0.9049
  335MOL0     C44108   3.308   0.505   9.689  0.4893  0.5547 -0.3648
  335MOL0     C44109   3.246   0.430   9.809  0.4991 -0.4925 -0.4112
  335MOL0     C44110   3.248   0.512   9.936  0.0481  0.3718 -0.0771
  335MOL0     C44111   3.228   0.432  10.061 -0.0361 -0.3250 -0.5239
  335MOL0     O44112   3.318   0.325  10.078  0.3619 -0.6994 -0.0636
  335MOL0     C44113   3.447   0.370  10.104 -0.1654  0.1153 -1.5934
  335MOL0     C44114   3.481   0.445  10.214 -0.2139 -0.3459  0.2608
  335MOL0     C44115   3.613   0.488  10.236 -0.8962 -0.2701  0.3772
  335MOL0     C44116   3.721   0.427  10.154 -0.3169 -0.7769  0.3417
  335MOL0     C44117   3.871   0.472  10.182 -0.0815  0.4037  0.3084
  335MOL0     O44118   3.976   0.404  10.112  0.1418 -0.1302  0.3361
  335MOL0     C44119   4.111   0.419  10.139  0.2118  0.4867 -1.0787
  335MOL0     C44120   4.183   0.525  10.210  0.6942 -0.2813 -0.1220
  335MOL0     C44121   4.321   0.530  10.222 -0.6006  0.8365  0.4336
  335MOL0     C44122   4.399   0.421  10.163 -0.9220  0.3003  0.0322
  335MOL0     O44123   4.535   0.414  10.159 -0.4642 -0.7811  0.0815
  335MOL0     C44124   4.623   0.531  10.173 -0.5405  0.5025 -0.0842
  335MOL0     C44125   4.763   0.488  10.120  0.4433 -0.9074  0.2695
  335MOL0     C44126   4.857   0.607  10.109 -0.2224 -0.0825 -1.0881
  335MOL0     C44127   4.991   0.555  10.071  0.5006  0.3561 -0.3001
  335MOL0     C44128   5.110   0.659  10.070 -1.0987  0.0663 -0.3518
  335MOL0     C44129   5.243   0.589  10.038  0.3923  0.0195  0.0024
  335MOL0     C44130   5.348   0.663   9.951  0.6576 -0.2494  0.1369
  335MOL0     C44131   5.305   0.672   9.804 -0.4742 -0.1894 -0.9164
  335MOL0    Cl44132   5.424   0.757   9.718 -0.4662 -0.2008  0.1406
  335MOL0     C44133   4.337   0.323  10.088 -1.0752 -0.1799  0.8762
  335MOL0     C44134   4.194   0.321  10.076  0.4777 -0.4479  0.4635
  335MOL0     O44135   3.885   0.556  10.269 -0.0580  0.0864  0.0379
  335MOL0     C44136   3.684   0.350  10.047  0.0802  0.5571 -0.3547
  335MOL0     C44137   3.547   0.323  10.023 -0.2364 -0.4134  0.2919
  335MOL0     N44138   3.509   0.436   9.532  0.3719 -0.2280 -0.4510
  335MOL0     N44139   3.638   0.440   9.533 -0.1106 -0.7634  0.0472
  335MOL0     C44140   4.710   0.824   9.632 -0.4350  0.0051  0.6662
  335MOL0     C44141   4.813   0.882   9.550  1.6715  0.2141  0.1143
  335MOL0     C44142   5.264   0.967   9.425  0.8815  0.8803  0.3747
  335MOL0     C44143   5.306   0.872   9.335 -0.5386  0.5902  0.9195
  335MOL0     C44144   5.418   0.892   9.257 -0.3018  0.4855  0.5222
  335MOL0     C44145   5.498   1.006   9.272  0.5830 -0.1043  0.8441
  335MOL0     O44146   5.612   1.030   9.206  0.2459 -0.3353  0.3498
  335MOL0     C44147   5.678   0.930   9.131 -0.5362 -0.0026 -0.8303
  335MOL0     C44148   5.788   0.863   9.212 -0.7959  0.7804 -0.2739
  335MOL0     C44149   5.892   0.954   9.274 -1.4065 -0.3609  0.1396
  335MOL0     C44150   6.028   0.880   9.311 -0.0618 -0.2938  0.7865
  335MOL0     C44151   6.114   0.864   9.186  0.1841 -0.7285 -0.1948
  335MOL0     C44152   6.167   0.859   9.078 -0.0831 -0.3484 -0.7331
  335MOL0     C44153   5.449   1.104   9.362  0.2054  0.9483  0.8217
  335MOL0     C44154   5.343   1.082   9.445 -0.0028  0.2168  0.1711
  335MOL0     H44155   5.057   0.652   9.624 -1.0548 -0.3919  0.4683
  335MOL0     H44156   4.890   0.563   9.770 -0.8846 -1.3004 -1.4729
  335MOL0     H44157   4.469   0.554   9.773  0.1097 -0.2997 -1.6876
  335MOL0     H44158   4.501   0.654   9.640 -0.7266 -2.8159 -0.7229
  335MOL0     H44159   4.472   0.869   9.777  0.5971 -0.6281  0.4499
  335MOL0     H44160   4.430   0.771   9.916 -0.8130  1.9330  0.4746
  335MOL0     H44161   4.262   0.675   9.707 -0.7445 -0.0730 -1.2429
  335MOL0     H44162   4.286   0.830   9.657  1.2230 -4.0835 -2.3891
  335MOL0     H44163   4.181   0.736   9.939 -1.1593 -0.0258 -0.0020
  335MOL0     H44164   4.197   0.907   9.893  2.8449 -0.7028  0.0123
  335MOL0     H44165   4.024   0.848   9.703  0.8861  0.3148  0.2293
  335MOL0     H44166   3.963   0.823   9.873 -1.8528 -1.2786 -1.2527
  335MOL0     H44167   4.002   0.596   9.877  2.2831  1.0876  0.4050
  335MOL0     H44168   4.079   0.585   9.721  1.3361  0.3206  1.5682
  335MOL0     H44169   3.799   0.688   9.775 -1.1336 -0.0041 -3.0324
  335MOL0     H44170   3.859   0.672   9.613 -1.3404  0.8850  0.9832
  335MOL0     H44171   3.827   0.423   9.795 -2.2082 -0.6873 -0.4240
  335MOL0     H44172   3.884   0.424   9.635 -0.1197 -0.3589  0.2246
  335MOL0     H44173   3.574   0.543   9.839 -1.1218  2.6743 -1.6917
  335MOL0     H44174   3.262   0.482   9.593 -2.4774  0.3569  0.9877
  335MOL0     H44175   3.298   0.612   9.707 -2.6074  0.3646 -0.3890
  335MOL0     H44176   3.309   0.346   9.837  1.5126  0.2719 -0.3291
  335MOL0     H44177   3.142   0.399   9.795  1.3188 -2.1670 -4.0194
  335MOL0     H44178   3.326   0.588   9.941 -1.4837  1.9360  2.1301
  335MOL0     H44179   3.159   0.576   9.935 -0.0278  0.2985  1.1023
  335MOL0     H44180   3.124   0.406  10.082 -0.1081 -0.9141 -1.5439
  335MOL0     H44181   3.242   0.508  10.139  0.0576 -0.1245 -0.7345
  335MOL0     H44182   3.403   0.479  10.281  0.1688  0.6867  0.2105
  335MOL0     H44183   3.635   0.563  10.311  0.6651  0.0807 -0.3861
  335MOL0     H44184   4.129   0.610  10.251  1.5028  0.2469 -0.1262
  335MOL0     H44185   4.376   0.616  10.261  0.7522  0.1732  0.0454
  335MOL0     H44186   4.642   0.568  10.274  0.6583 -1.2196  0.3734
  335MOL0     H44187   4.586   0.623  10.128 -0.3194  0.5302 -0.2105
  335MOL0     H44188   4.766   0.457  10.015  2.8808  1.4147 -0.4690
  335MOL0     H44189   4.796   0.415  10.194  1.7246  2.4598  3.3341
  335MOL0     H44190   4.865   0.665  10.202  1.9350  1.4890 -2.1627
  335MOL0     H44191   4.822   0.668  10.025  0.8154  0.2739 -1.2799
  335MOL0     H44192   5.016   0.473  10.140 -2.5901  0.0203  0.5820
  335MOL0     H44193   4.979   0.501   9.977 -1.9301 -2.6792  1.5658
  335MOL0     H44194   5.120   0.706  10.168  0.0146 -0.9949  0.0562
  335MOL0     H44195   5.096   0.740   9.997 -1.5608  1.3400  1.0966
  335MOL0     H44196   5.225   0.491   9.992 -1.3499  0.2420  0.1537
  335MOL0     H44197   5.278   0.567  10.139 -1.0971 -1.3015  0.2761
  335MOL0     H44198   5.357   0.760  10.001 -0.5419  0.3496 -0.7526
  335MOL0     H44199   5.440   0.604   9.949 -0.1191 -1.5689  1.5248
  335MOL0     H44200   5.212   0.729   9.800 -0.1652  0.3355 -0.8169
  335MOL0     H44201   5.297   0.571   9.764 -1.2664 -0.7584  0.6236
  335MOL0     H44202   4.390   0.258  10.020 -4.0738  1.4725 -3.5106
  335MOL0     H44203   4.151   0.251  10.005  1.0717  0.5252 -0.9105
  335MOL0     H44204   3.757   0.311   9.977 -1.0208  0.6035 -1.5568
  335MOL0     H44205   3.529   0.288   9.922 -1.7249  0.4466  0.2349
  335MOL0     H44206   4.615   0.875   9.634  0.6962  2.2051  0.8444
  335MOL0     H44207   4.789   0.973   9.496  0.4470  0.3081  0.7834
  335MOL0     H44208   5.244   0.784   9.317  0.5026 -0.4192  2.0470
  335MOL0     H44209   5.433   0.801   9.199 -0.6130  1.6507 -1.4882
  335MOL0     H44210   5.716   0.990   9.048 -1.7882  1.0079 -0.6954
  335MOL0     H44211   5.610   0.853   9.095 -0.5110  0.0772 -1.0509
  335MOL0     H44212   5.732   0.808   9.289 -4.5233  2.3693 -1.6556
  335MOL0     H44213   5.845   0.789   9.155 -2.5380  1.7233 -3.4685
  335MOL0     H44214   5.856   0.980   9.374 -0.7401 -3.4123  1.2741
  335MOL0     H44215   5.896   1.045   9.214 -6.4799 -1.4316 -2.3770
  335MOL0     H44216   6.092   0.939   9.377 -1.6221  0.7768  1.4162
  335MOL0     H44217   6.002   0.781   9.351 -0.5301 -1.3610 -1.9242
  335MOL0     H44218   6.213   0.865   8.981 -0.4388  1.8113 -0.8164
  335MOL0     H44219   5.508   1.195   9.361 -0.7083  1.6348 -2.8584
  335MOL0     H44220   5.323   1.164   9.514  1.2962  0.6019  0.1224
  336MOL0     O44221   0.416   0.307   6.558  0.0943 -0.2177  0.6126
  336MOL0     C44222   0.492   0.219   6.591 -0.4234 -1.2001  0.8588
  336MOL0     O44223   0.460   0.095   6.636  0.2560  0.1428  0.3384
  336MOL0     C44224   0.329   0.057   6.638 -0.1357 -0.5892 -0.1388
  336MOL0     C44225   0.293  -0.020   6.747  0.1771 -0.2391 -0.0662
  336MOL0     C44226   0.168  -0.074   6.765 -0.8409  0.6179  0.7435
  336MOL0     C44227   0.070  -0.049   6.670  1.1963 -0.5825 -0.1046
  336MOL0     O44228  -0.057  -0.096   6.679  0.5529  0.1897  0.5360
  336MOL0     C44229  -0.087  -0.216   6.602 -0.1294 -0.3421 -0.2835
  336MOL0     C44230  -0.230  -0.257   6.576 -0.6717  0.0461 -0.0412
  336MOL0     C44231  -0.273  -0.191   6.450 -0.1633  0.1129 -0.8464
  336MOL0     C44232  -0.421  -0.221   6.417 -0.6955 -0.1023 -0.4898
  336MOL0     C44233  -0.442  -0.296   6.286  0.0942 -0.1110 -0.4165
  336MOL0     C44234  -0.590  -0.271   6.241  0.9201  0.4277 -0.2166
  336MOL0     C44235  -0.635  -0.364   6.126  0.6626  0.5890 -0.4211
  336MOL0     C44236  -0.621  -0.517   6.156  1.2066  0.4624 -0.1044
  336MOL0     N44237  -0.672  -0.601   6.038 -1.0034  0.2537 -0.3361
  336MOL0     C44238  -0.689  -0.742   6.038  0.2560  0.2275  0.4453
  336MOL0     C44239  -0.737  -0.769   5.913  0.2650 -0.0452 -0.8220
  336MOL0     C44240  -0.760  -0.912   5.873 -0.4236  0.5335  0.1791
  336MOL0     C44241  -0.846  -0.971   5.984 -0.3896 -0.6237 -0.9555
  336MOL0     C44242  -0.875  -1.107   5.947 -0.7312  0.6018 -0.7602
  336MOL0     C44243  -0.940  -1.202   6.050 -0.2127  0.3727 -0.5404
  336MOL0     O44244  -0.905  -1.334   6.015  0.5456 -0.1224 -0.1621
  336MOL0     C44245  -0.778  -1.386   6.044 -0.4029  0.2485  0.3940
  336MOL0     C44246  -0.753  -1.517   5.991 -0.3555 -0.0351 -0.3432
  336MOL0     C44247  -0.631  -1.573   6.008 -0.1164  0.3878  0.6477
  336MOL0     C44248  -0.533  -1.517   6.093 -0.2443  0.6688  0.7161
  336MOL0     C44249  -0.396  -1.583   6.102 -0.1548 -0.8101  0.6717
  336MOL0     O44250  -0.306  -1.511   6.171  1.0086 -0.4784 -0.2855
  336MOL0     C44251  -0.172  -1.528   6.166  0.8070 -0.2952 -0.4883
  336MOL0     C44252  -0.096  -1.625   6.105 -0.2944 -1.0783 -0.4311
  336MOL0     C44253   0.049  -1.611   6.106  0.1654 -0.2234 -0.3050
  336MOL0     C44254   0.113  -1.509   6.181  0.3392  0.0863 -0.0998
  336MOL0     O44255   0.251  -1.526   6.194 -0.6500  0.1451  0.1872
  336MOL0     C44256   0.324  -1.421   6.270 -0.7512 -0.1168  0.1471
  336MOL0     C44257   0.464  -1.470   6.279  0.3745  0.7205  0.1414
  336MOL0     C44258   0.529  -1.483   6.149 -0.3164 -0.2290  0.0467
  336MOL0     C44259   0.663  -1.532   6.156 -0.0774  0.1192  0.3911
  336MOL0     C44260   0.719  -1.552   6.018 -0.3906  0.6718  0.7174
  336MOL0     C44261   0.846  -1.636   6.052 -0.3565 -1.0256  0.0698
  336MOL0     C44262   0.937  -1.652   5.930 -0.0117 -0.6415 -0.2230
  336MOL0     C44263   1.058  -1.745   5.948  0.9027  0.1070  0.0688
  336MOL0    Cl44264   1.124  -1.728   6.105  0.3816 -0.4464  0.0317
  336MOL0     C44265   0.032  -1.417   6.235  0.1405 -0.0571  0.8119
  336MOL0     C44266  -0.106  -1.423   6.227 -0.4470 -0.1885  0.2184
  336MOL0     O44267  -0.374  -1.681   6.034  0.8449  0.6611  0.2403
  336MOL0     C44268  -0.561  -1.392   6.147  0.2093 -0.3790 -0.4793
  336MOL0     C44269  -0.680  -1.325   6.117 -0.0576  0.1079  0.6186
  336MOL0     N44270  -0.755  -0.650   5.836 -0.1672  0.5822 -0.3700
  336MOL0     N44271  -0.721  -0.552   5.914  0.1766 -0.0494  0.0721
  336MOL0     C44272   0.104   0.027   6.556 -0.1459  0.4120 -0.1902
  336MOL0     C44273   0.233   0.065   6.528  1.1287  0.0993  0.0428
  336MOL0     C44274   0.631   0.247   6.589  0.4999 -1.1969 -0.0283
  336MOL0     C44275   0.674   0.377   6.572 -0.0162 -0.0565 -0.5535
  336MOL0     C44276   0.811   0.401   6.547 -0.3361 -0.2609 -0.6350
  336MOL0     C44277   0.907   0.307   6.578 -0.5504  0.7334 -0.6485
  336MOL0     O44278   1.034   0.350   6.568 -0.3349  0.0067  0.1496
  336MOL0     C44279   1.109   0.296   6.455 -1.6104  0.8308  0.2518
  336MOL0     C44280   1.149   0.146   6.468 -0.0931 -0.0279  0.4938
  336MOL0     C44281   1.239   0.121   6.581  1.1881  0.5543  0.1430
  336MOL0     C44282   1.279  -0.030   6.607  0.8078 -1.0931  0.2534
  336MOL0     C44283   1.346  -0.069   6.481 -0.7220 -0.2796  0.1411
  336MOL0     C44284   1.405  -0.093   6.374 -0.7256 -0.3322  0.1292
  336MOL0     C44285   0.860   0.180   6.613  1.1639  0.6886  0.9654
  336MOL0     C44286   0.728   0.146   6.614  0.5856 -0.9817  0.2025
  336MOL0     H44287   0.370  -0.036   6.821 -0.4343 -0.7611  0.4704
  336MOL0     H44288   0.153  -0.146   6.845 -0.0869 -2.3805 -1.5847
  336MOL0     H44289  -0.036  -0.302   6.647 -0.4890  0.0187  0.8431
  336MOL0     H44290  -0.036  -0.198   6.507 -1.1042 -1.5672 -1.0664
  336MOL0     H44291  -0.287  -0.221   6.662  0.7919  0.4891  0.7747
  336MOL0     H44292  -0.231  -0.365   6.561 -0.7929  0.1628 -0.9237
  336MOL0     H44293  -0.214  -0.227   6.365  3.2952 -1.6353  2.0209
  336MOL0     H44294  -0.260  -0.086   6.477  2.9382 -0.6167  0.9840
  336MOL0     H44295  -0.467  -0.272   6.502  0.6214 -0.1482  0.2300
  336MOL0     H44296  -0.465  -0.121   6.424  0.1857  0.2047  2.4389
  336MOL0     H44297  -0.405  -0.397   6.301  1.0992  0.1335 -1.1506
  336MOL0     H44298  -0.391  -0.250   6.201  0.4360 -0.2253 -0.2757
  336MOL0     H44299  -0.598  -0.166   6.212 -1.3932 -0.0561 -1.5398
  336MOL0     H44300  -0.648  -0.283   6.333  0.2984 -0.4212 -0.7073
  336MOL0     H44301  -0.736  -0.340   6.093  0.7085 -1.1212 -1.9946
  336MOL0     H44302  -0.563  -0.348   6.044  2.2394 -2.6313  0.1627
  336MOL0     H44303  -0.692  -0.542   6.235  0.7607 -2.1912 -1.2197
  336MOL0     H44304  -0.519  -0.538   6.186  1.1848  0.1967 -0.2129
  336MOL0     H44305  -0.661  -0.807   6.121  2.4382  1.1863  0.5217
  336MOL0     H44306  -0.663  -0.961   5.861  1.9331  4.6633  0.4684
  336MOL0     H44307  -0.819  -0.917   5.781  4.0049  0.1869 -2.9386
  336MOL0     H44308  -0.932  -0.910   6.012  1.8219  1.5266  1.7548
  336MOL0     H44309  -0.779  -0.970   6.070  2.2426  1.3421 -2.8463
  336MOL0     H44310  -0.948  -1.104   5.865  0.2280 -1.5350 -1.7666
  336MOL0     H44311  -0.779  -1.147   5.914 -1.5756 -0.7287 -1.7004
  336MOL0     H44312  -1.049  -1.194   6.048 -0.3454 -0.9917 -0.1587
  336MOL0     H44313  -0.902  -1.173   6.148  2.4406  1.9583 -1.8971
  336MOL0     H44314  -0.819  -1.586   5.940  1.3994 -2.6236  0.7198
  336MOL0     H44315  -0.614  -1.672   5.968  0.0229  0.3794  0.7262
  336MOL0     H44316  -0.143  -1.704   6.047  0.3216  0.4383 -3.1615
  336MOL0     H44317   0.124  -1.671   6.054  1.5759  2.3808 -1.5084
  336MOL0     H44318   0.282  -1.398   6.368 -0.6626 -1.4807  0.5149
  336MOL0     H44319   0.339  -1.340   6.198  4.3361 -0.0730  0.9449
  336MOL0     H44320   0.465  -1.566   6.331  2.0835  0.9119  0.5511
  336MOL0     H44321   0.523  -1.402   6.341  0.1381  1.5963 -0.5776
  336MOL0     H44322   0.542  -1.381   6.113 -1.6621  0.1494  0.5942
  336MOL0     H44323   0.463  -1.545   6.087  0.4071 -3.0961  1.9465
  336MOL0     H44324   0.724  -1.467   6.219  0.0592 -0.4769  0.8842
  336MOL0     H44325   0.657  -1.636   6.190  1.8574 -0.3833 -0.6555
  336MOL0     H44326   0.744  -1.466   5.955 -1.0031 -0.4393 -1.1346
  336MOL0     H44327   0.650  -1.611   5.957 -0.0910 -0.8810  1.8097
  336MOL0     H44328   0.812  -1.734   6.086 -0.1332 -1.2830 -0.4425
  336MOL0     H44329   0.905  -1.579   6.124  1.2635 -2.6040  0.0583
  336MOL0     H44330   0.875  -1.692   5.850  0.0319  1.0138 -1.1362
  336MOL0     H44331   0.972  -1.551   5.908  0.8131 -0.7084  0.6811
  336MOL0     H44332   1.137  -1.707   5.882  0.8963  1.2131  0.6869
  336MOL0     H44333   1.020  -1.844   5.922  1.2785  0.4984 -2.1910
  336MOL0     H44334   0.080  -1.338   6.291  0.2428 -0.7185  1.6815
  336MOL0     H44335  -0.168  -1.343   6.267  1.0284  1.5061 -0.7563
  336MOL0     H44336  -0.483  -1.333   6.192  1.0580  0.0454 -2.4029
  336MOL0     H44337  -0.688  -1.223   6.153  2.2206  0.6663 -0.2506
  336MOL0     H44338   0.037   0.053   6.474  1.4380 -0.0613 -1.6968
  336MOL0     H44339   0.254   0.086   6.424 -0.1459 -1.1961 -0.5249
  336MOL0     H44340   0.608   0.462   6.560  1.1126  0.8038 -0.7934
  336MOL0     H44341   0.846   0.499   6.513 -0.7833  1.2633  2.9087
  336MOL0     H44342   1.202   0.352   6.439  0.7177 -2.8950 -0.5094
  336MOL0     H44343   1.042   0.303   6.369 -3.2055 -0.0217  1.3811
  336MOL0     H44344   1.065   0.077   6.476  0.0305 -0.0653  1.8051
  336MOL0     H44345   1.193   0.139   6.368 -0.2329  3.3828  0.0577
  336MOL0     H44346   1.203   0.166   6.673  1.1411 -0.8344  0.8289
  336MOL0     H44347   1.328   0.181   6.557  0.8055  1.0827  0.0252
  336MOL0     H44348   1.343  -0.051   6.693  0.7108 -5.3584 -0.5069
  336MOL0     H44349   1.190  -0.094   6.610 -0.0800 -0.1600 -2.7920
  336MOL0     H44350   1.460  -0.125   6.288 -0.7201 -2.3854  0.8427
  336MOL0     H44351   0.931   0.098   6.621  1.0298  0.0956 -2.3847
  336MOL0     H44352   0.686   0.048   6.636 -0.4975 -0.0874  2.3330
  337MOL0     O44353   5.374   3.196   7.765 -0.2363 -0.4261  0.2957
  337MOL0     C44354   5.437   3.114   7.707 -0.0838  0.5820  1.3273
  337MOL0     O44355   5.384   3.040   7.604  0.2615  0.6461  0.5318
  337MOL0     C44356   5.247   3.044   7.584 -0.4361  0.4559 -0.5720
  337MOL0     C44357   5.146   2.995   7.666 -0.1458 -0.5863 -0.5401
  337MOL0     C44358   5.009   3.005   7.645 -0.3973 -0.3039  0.4620
  337MOL0     C44359   4.962   3.084   7.540  0.7981 -0.7385  1.1196
  337MOL0     O44360   4.828   3.083   7.511 -0.4125  0.0757  0.1150
  337MOL0     C44361   4.777   3.205   7.457  0.6905  0.0981 -0.5064
  337MOL0     C44362   4.636   3.179   7.433  0.2986  0.4504  0.1562
  337MOL0     C44363   4.559   3.301   7.408  0.4297  0.0856 -0.5069
  337MOL0     C44364   4.415   3.266   7.393 -0.3435  0.0500  0.4200
  337MOL0     C44365   4.325   3.382   7.356 -0.2239 -0.4379 -0.4256
  337MOL0     C44366   4.185   3.338   7.313 -0.4271  0.5809 -0.0111
  337MOL0     C44367   4.093   3.455   7.312 -0.2194  0.0277 -0.7953
  337MOL0     C44368   3.957   3.427   7.260 -0.2004  0.2178  1.0184
  337MOL0     N44369   3.890   3.321   7.329  0.3734  0.4504  1.0577
  337MOL0     C44370   3.791   3.346   7.423  0.1946 -1.0699 -0.6690
  337MOL0     C44371   3.717   3.235   7.439  0.2248  0.1246  0.5335
  337MOL0     C44372   3.605   3.220   7.544 -0.3465  0.9229 -0.0128
  337MOL0     C44373   3.472   3.184   7.470  0.5391  0.2223 -0.5580
  337MOL0     C44374   3.354   3.200   7.572 -0.1578  1.4379  0.3288
  337MOL0     C44375   3.225   3.136   7.520 -0.7170 -0.4290 -0.5978
  337MOL0     O44376   3.121   3.202   7.603 -0.3757 -0.1071  0.5992
  337MOL0     C44377   2.998   3.202   7.542  0.4605  0.3206 -0.3701
  337MOL0     C44378   2.958   3.112   7.443 -0.8667 -0.8494  0.1402
  337MOL0     C44379   2.835   3.125   7.373 -0.3460  0.3023 -0.6344
  337MOL0     C44380   2.747   3.226   7.416 -1.3050  0.2722 -1.2405
  337MOL0     C44381   2.616   3.239   7.356 -0.9039  0.2423 -0.3208
  337MOL0     O44382   2.523   3.332   7.410 -0.7590 -0.2318  0.0600
  337MOL0     C44383   2.396   3.335   7.365 -0.3515  0.3445  0.0887
  337MOL0     C44384   2.321   3.215   7.362 -0.2864  0.4754 -0.5396
  337MOL0     C44385   2.182   3.224   7.343 -0.2100  0.3017 -0.5773
  337MOL0     C44386   2.118   3.348   7.303 -0.5565  0.6188  0.1881
  337MOL0     O44387   1.987   3.343   7.267  0.1990 -0.2688 -0.1880
  337MOL0     C44388   1.902   3.464   7.263  1.0756  0.3631 -0.7732
  337MOL0     C44389   1.755   3.423   7.226 -0.8433  0.4907 -0.0776
  337MOL0     C44390   1.675   3.543   7.169  0.0536  0.1116  0.4311
  337MOL0     C44391   1.531   3.502   7.125 -0.2365  0.4815  0.5074
  337MOL0     C44392   1.495   3.564   6.989 -0.1852 -0.3121  0.1335
  337MOL0     C44393   1.343   3.533   6.957 -0.2630  0.4736 -0.2418
  337MOL0     C44394   1.302   3.604   6.823 -0.3511 -0.2021  0.2484
  337MOL0     C44395   1.160   3.573   6.793  0.6529 -0.1608 -0.5292
  337MOL0    Cl44396   1.051   3.641   6.919 -0.0936  0.1605  0.1644
  337MOL0     C44397   2.198   3.460   7.310 -0.0624  0.6597 -0.0787
  337MOL0     C44398   2.338   3.453   7.345  0.3606 -1.3805  0.7802
  337MOL0     O44399   2.597   3.171   7.255 -0.6605  0.2119 -0.4252
  337MOL0     C44400   2.785   3.308   7.530 -0.4084 -0.2946  0.0016
  337MOL0     C44401   2.910   3.293   7.585 -0.2773 -0.1555  0.5376
  337MOL0     N44402   3.763   3.138   7.344  0.1605 -0.5107  0.2705
  337MOL0     N44403   3.858   3.202   7.274 -0.5192  0.0394 -0.6358
  337MOL0     C44404   5.058   3.131   7.453 -0.0258  0.0001  0.4015
  337MOL0     C44405   5.199   3.118   7.481 -0.0064  0.0048 -0.2631
  337MOL0     C44406   5.572   3.102   7.741  0.3195 -0.2296  0.3390
  337MOL0     C44407   5.668   3.039   7.656  0.5667 -0.4002  0.3772
  337MOL0     C44408   5.800   3.012   7.693  0.2299 -0.6175  0.0510
  337MOL0     C44409   5.834   3.058   7.819 -0.1481 -0.9053  0.0126
  337MOL0     O44410   5.948   3.037   7.883  0.2779 -0.0512  0.1284
  337MOL0     C44411   6.044   2.964   7.812 -0.2490  0.4031 -0.1710
  337MOL0     C44412   6.178   2.956   7.887 -0.1703 -0.0992 -0.4170
  337MOL0     C44413   6.255   3.093   7.882  0.4951 -0.1438 -0.6590
  337MOL0     C44414   6.382   3.071   7.958 -0.5805 -0.5942  0.2489
  337MOL0     C44415   6.372   3.065   8.107  0.0664 -0.0684 -0.1649
  337MOL0     C44416   6.350   3.078   8.229 -0.5197  0.1539  0.3702
  337MOL0     C44417   5.750   3.141   7.894  0.0766  0.8668 -0.8005
  337MOL0     C44418   5.616   3.152   7.860 -0.4928 -0.3547  0.9446
  337MOL0     H44419   5.192   2.936   7.745 -1.0091  1.3227  1.4798
  337MOL0     H44420   4.939   2.957   7.712  0.0122 -1.9532 -0.2361
  337MOL0     H44421   4.821   3.229   7.360 -0.3884 -2.9353 -1.8492
  337MOL0     H44422   4.790   3.282   7.534 -0.0225 -0.3991  0.1280
  337MOL0     H44423   4.595   3.129   7.521 -0.7978  2.6333  0.9486
  337MOL0     H44424   4.625   3.104   7.354  0.7420 -1.2804  1.6658
  337MOL0     H44425   4.594   3.348   7.315 -1.6355  0.3821 -1.1750
  337MOL0     H44426   4.563   3.368   7.494 -2.7524 -0.9322  0.5717
  337MOL0     H44427   4.392   3.187   7.320 -0.5270 -0.1083  0.6473
  337MOL0     H44428   4.388   3.210   7.483  0.6082  1.1301  1.3980
  337MOL0     H44429   4.369   3.451   7.283  1.4766  0.7000  1.5682
  337MOL0     H44430   4.316   3.426   7.456  0.4014 -1.6575  0.1988
  337MOL0     H44431   4.145   3.263   7.382  0.7093 -2.7828 -2.7438
  337MOL0     H44432   4.197   3.279   7.222 -0.2358  1.2171 -0.4098
  337MOL0     H44433   4.086   3.489   7.416  5.5753 -0.1376 -0.0157
  337MOL0     H44434   4.127   3.547   7.264  1.7334  0.0094  0.4234
  337MOL0     H44435   3.967   3.405   7.153 -1.3052 -0.0047  0.9517
  337MOL0     H44436   3.895   3.517   7.267  1.3544  1.5066 -0.7270
  337MOL0     H44437   3.790   3.431   7.490  1.2383 -2.5176  1.3022
  337MOL0     H44438   3.609   3.316   7.596  4.2465  0.0651  1.6729
  337MOL0     H44439   3.637   3.142   7.614  2.7260  1.4962 -0.6580
  337MOL0     H44440   3.470   3.080   7.437 -3.1530 -1.2087  3.1463
  337MOL0     H44441   3.454   3.254   7.387 -1.9782  2.4489  1.6453
  337MOL0     H44442   3.381   3.155   7.668  2.5168  1.6864 -0.2333
  337MOL0     H44443   3.347   3.308   7.587 -2.5937  1.3934 -0.0474
  337MOL0     H44444   3.217   3.028   7.537  0.4315 -0.1816  1.9630
  337MOL0     H44445   3.218   3.149   7.412  0.9802 -1.2706 -0.8383
  337MOL0     H44446   3.018   3.025   7.419 -1.1239 -0.4918 -1.9143
  337MOL0     H44447   2.803   3.059   7.293 -2.2930 -0.6215  0.8145
  337MOL0     H44448   2.376   3.122   7.375  1.3062  1.5060  0.4081
  337MOL0     H44449   2.121   3.134   7.341  1.9538 -1.2969  0.9387
  337MOL0     H44450   1.942   3.525   7.181  1.1385  2.7638  0.9502
  337MOL0     H44451   1.895   3.523   7.355 -0.4257  0.0477 -0.6661
  337MOL0     H44452   1.700   3.376   7.308 -1.4024 -0.2895 -0.8817
  337MOL0     H44453   1.768   3.340   7.155  0.4602  0.0225  0.6856
  337MOL0     H44454   1.734   3.579   7.085 -1.8594  2.1513 -0.1389
  337MOL0     H44455   1.666   3.620   7.246  0.5073 -0.9636  1.5847
  337MOL0     H44456   1.530   3.393   7.122  2.6104  0.3833 -2.4580
  337MOL0     H44457   1.462   3.533   7.205 -1.3324  1.4375 -0.7650
  337MOL0     H44458   1.545   3.521   6.902 -0.6425  2.0006 -1.3641
  337MOL0     H44459   1.523   3.670   6.986  3.2860 -1.1363  0.0554
  337MOL0     H44460   1.281   3.574   7.037 -0.4618  1.3678 -0.8382
  337MOL0     H44461   1.327   3.426   6.940  3.0287  0.1224 -1.9536
  337MOL0     H44462   1.324   3.711   6.828  0.7826 -0.3251 -1.2933
  337MOL0     H44463   1.356   3.563   6.737 -1.0911 -1.2463  0.2629
  337MOL0     H44464   1.135   3.467   6.786 -0.1462 -0.0238  0.1777
  337MOL0     H44465   1.130   3.614   6.696 -1.6800 -0.3750  0.0660
  337MOL0     H44466   2.169   3.562   7.286  3.1807  1.2623 -2.0754
  337MOL0     H44467   2.396   3.545   7.352 -2.1010  0.4190 -0.6433
  337MOL0     H44468   2.716   3.386   7.562  2.9206  3.2339 -0.7427
  337MOL0     H44469   2.939   3.359   7.665 -0.5160  1.2947 -0.5317
  337MOL0     H44470   5.026   3.185   7.365 -0.3672  0.3777  0.7532
  337MOL0     H44471   5.263   3.164   7.407 -0.8274 -0.0125 -0.9983
  337MOL0     H44472   5.637   3.011   7.556  3.8759  0.0035 -0.9061
  337MOL0     H44473   5.873   2.964   7.629  1.9935 -1.8284  2.7571
  337MOL0     H44474   6.067   3.010   7.716  1.4933  0.7488  0.3793
  337MOL0     H44475   6.009   2.861   7.802 -1.7162  0.9802 -1.4977
  337MOL0     H44476   6.166   2.941   7.995 -0.7639  0.2349 -0.4313
  337MOL0     H44477   6.233   2.878   7.834  0.3407  0.8966 -1.3741
  337MOL0     H44478   6.194   3.174   7.922 -0.4238 -0.6932 -0.9324
  337MOL0     H44479   6.285   3.118   7.780  1.1585  1.3299 -0.1386
  337MOL0     H44480   6.453   3.001   7.913  3.1811  2.7611  0.3250
  337MOL0     H44481   6.438   3.164   7.944 -2.4539  0.4955 -0.4145
  337MOL0     H44482   6.330   3.101   8.331 -0.6129  2.2606 -0.0920
  337MOL0     H44483   5.777   3.179   7.992 -2.1763  0.8781 -0.1138
  337MOL0     H44484   5.543   3.197   7.926  0.0380 -1.3546  2.2611
  338MOL0     O44485   5.446   4.876   9.990 -0.2792  0.1098  1.1330
  338MOL0     C44486   5.536   4.806   9.946 -0.4174  0.1130 -1.1806
  338MOL0     O44487   5.603   4.701  10.012  0.3079  0.0291  0.0255
  338MOL0     C44488   5.538   4.614  10.100 -0.4623 -0.4953 -0.2741
  338MOL0     C44489   5.402   4.617  10.122 -0.3902  0.1662  0.1332
  338MOL0     C44490   5.340   4.528  10.212  0.1114  0.1282 -0.6367
  338MOL0     C44491   5.412   4.431  10.287  0.2829 -0.6377  0.6516
  338MOL0     O44492   5.360   4.344  10.378  0.6645 -0.9810 -0.3333
  338MOL0     C44493   5.214   4.345  10.389 -1.6778  0.8343  0.5980
  338MOL0     C44494   5.168   4.254  10.502  0.2234  0.0013 -0.6504
  338MOL0     C44495   5.016   4.249  10.516  0.4500  0.6441  0.2087
  338MOL0     C44496   4.937   4.168  10.411 -0.7364 -0.3725 -0.4677
  338MOL0     C44497   4.789   4.169  10.451  0.1421 -0.2732 -0.1383
  338MOL0     C44498   4.699   4.108  10.348 -0.8395 -0.7796 -0.3344
  338MOL0     C44499   4.553   4.141  10.378  0.0231  0.1333  0.6306
  338MOL0     C44500   4.472   4.074  10.266  0.1522  0.8021 -0.0341
  338MOL0     N44501   4.440   3.941  10.307  0.7068 -0.3571  0.4875
  338MOL0     C44502   4.334   3.923  10.394 -0.0470 -0.5652  0.7350
  338MOL0     C44503   4.338   3.793  10.411 -0.4060  0.2596 -0.3563
  338MOL0     C44504   4.237   3.714  10.495  0.1795  0.3558  0.4898
  338MOL0     C44505   4.168   3.604  10.417 -0.3188  0.5623 -0.0892
  338MOL0     C44506   4.036   3.554  10.474  0.0543  0.7419  0.3710
  338MOL0     C44507   3.925   3.654  10.510 -0.1315 -0.4480 -0.0757
  338MOL0     O44508   3.798   3.586  10.523  0.2605  0.0360  0.6487
  338MOL0     C44509   3.690   3.657  10.566 -0.6675 -0.0043 -0.6417
  338MOL0     C44510   3.572   3.597  10.553 -0.9594 -0.0165 -0.1406
  338MOL0     C44511   3.453   3.663  10.574  0.6088  0.2645  0.3046
  338MOL0     C44512   3.448   3.793  10.631 -0.7644  1.1297 -0.1009
  338MOL0     C44513   3.327   3.862  10.665  0.1049  0.4627 -0.5151
  338MOL0     O44514   3.211   3.796  10.630  0.1051 -0.4779  0.3934
  338MOL0     C44515   3.086   3.851  10.627 -0.0348 -0.6282 -0.5867
  338MOL0     C44516   3.057   3.983  10.669 -0.6879  0.3053  0.2514
  338MOL0     C44517   2.928   4.035  10.654  0.9053 -0.6244  0.9620
  338MOL0     C44518   2.824   3.954  10.602  0.2500  0.1281  0.5927
  338MOL0     O44519   2.696   3.998  10.600  0.2585 -0.5202  0.4147
  338MOL0     C44520   2.670   4.141  10.617  0.0930 -1.2419  0.2645
  338MOL0     C44521   2.531   4.176  10.564 -0.2829  0.9277 -0.0910
  338MOL0     C44522   2.427   4.082  10.636 -0.0525 -0.2258 -0.0227
  338MOL0     C44523   2.283   4.122  10.606  0.5945  0.5685  0.2957
  338MOL0     C44524   2.190   4.010  10.628  0.1434  0.1848  0.5369
  338MOL0     C44525   2.170   3.985  10.773 -0.6698  0.0685 -0.7910
  338MOL0     C44526   2.102   3.846  10.798 -0.0531 -0.3163  0.5567
  338MOL0     C44527   1.961   3.821  10.756  0.0455 -0.1130 -0.4464
  338MOL0    Cl44528   1.865   3.925  10.852 -0.3021  0.0917  0.1004
  338MOL0     C44529   2.853   3.826  10.552  0.5946 -1.3853  0.1838
  338MOL0     C44530   2.984   3.776  10.569  0.2650 -0.2839 -0.6014
  338MOL0     O44531   3.332   3.963  10.737 -0.5267  0.4510 -0.4911
  338MOL0     C44532   3.570   3.852  10.652 -0.4515  0.9377 -0.0065
  338MOL0     C44533   3.689   3.795  10.608 -0.0226 -0.5284  0.4692
  338MOL0     N44534   4.428   3.736  10.324  0.3493  0.4655 -0.1242
  338MOL0     N44535   4.502   3.825  10.271  0.1740 -0.5860  0.8020
  338MOL0     C44536   5.547   4.424  10.260 -0.5804 -0.1586 -0.6637
  338MOL0     C44537   5.606   4.509  10.166 -1.1014  0.3222  0.6274
  338MOL0     C44538   5.575   4.843   9.806  1.0805  0.0450  0.4125
  338MOL0     C44539   5.693   4.788   9.747 -0.1067  0.0634  0.1110
  338MOL0     C44540   5.739   4.832   9.622 -0.0491 -0.5150  0.3144
  338MOL0     C44541   5.649   4.901   9.528  0.4224 -0.8447  0.6535
  338MOL0     O44542   5.686   4.909   9.388 -0.3460 -1.0043 -0.0636
  338MOL0     C44543   5.595   4.984   9.297  0.1143  0.6554  0.6789
  338MOL0     C44544   5.648   4.989   9.151  0.3681  0.7827 -1.6763
  338MOL0     C44545   5.602   5.109   9.082  0.8785 -0.5825 -0.2076
  338MOL0     C44546   5.656   5.092   8.935  0.7300 -0.1581  0.6764
  338MOL0     C44547   5.804   5.081   8.921  0.6700 -0.1536  0.4096
  338MOL0     C44548   5.929   5.089   8.919  1.0490 -0.0682  0.1409
  338MOL0     C44549   5.526   4.942   9.576 -0.5782 -0.4697 -0.8915
  338MOL0     C44550   5.494   4.921   9.717  1.0031  0.6878  0.6976
  338MOL0     H44551   5.337   4.677  10.059  0.2302 -1.7675 -2.5623
  338MOL0     H44552   5.233   4.516  10.224  0.1628 -0.3621 -0.6590
  338MOL0     H44553   5.167   4.315  10.295  2.2336  0.1583 -1.3178
  338MOL0     H44554   5.184   4.448  10.413 -1.8857  0.4856  1.9349
  338MOL0     H44555   5.208   4.290  10.597  0.9822 -1.9607 -0.1790
  338MOL0     H44556   5.208   4.153  10.486 -2.7549 -1.2932 -0.6786
  338MOL0     H44557   4.973   4.349  10.512 -0.1519  0.4514  1.4060
  338MOL0     H44558   4.983   4.222  10.617 -3.3042  2.2133 -0.4017
  338MOL0     H44559   4.955   4.206  10.310  2.5039 -1.8035 -0.5486
  338MOL0     H44560   4.989   4.072  10.414  2.9522  1.4530  0.8330
  338MOL0     H44561   4.758   4.272  10.466  0.6329 -0.2346  0.6840
  338MOL0     H44562   4.780   4.121  10.549  2.4768 -0.8508 -0.1384
  338MOL0     H44563   4.721   4.002  10.336  2.4411  0.1042 -4.3451
  338MOL0     H44564   4.723   4.147  10.249  1.9512 -1.5001 -0.0072
  338MOL0     H44565   4.516   4.113  10.477 -1.3632  1.1970  0.4435
  338MOL0     H44566   4.549   4.250  10.376  0.4313  0.2154  2.6203
  338MOL0     H44567   4.528   4.073  10.172 -2.1409  0.0849 -1.4786
  338MOL0     H44568   4.378   4.125  10.241 -2.5789 -2.4836  2.6012
  338MOL0     H44569   4.277   3.998  10.448  1.0489 -0.1527  1.3639
  338MOL0     H44570   4.160   3.783  10.529  0.9407  0.2531  2.6054
  338MOL0     H44571   4.292   3.681  10.584  2.4067 -1.3733 -1.4086
  338MOL0     H44572   4.242   3.529  10.389  0.7249  2.3871 -2.6258
  338MOL0     H44573   4.141   3.645  10.320  2.1786  1.7629 -0.3585
  338MOL0     H44574   3.990   3.493  10.397  0.7449 -0.7024  1.0582
  338MOL0     H44575   4.051   3.503  10.570  1.2313 -0.3718 -0.3777
  338MOL0     H44576   3.908   3.723  10.427  0.6357  3.1576  2.5147
  338MOL0     H44577   3.948   3.709  10.602  2.0781  1.8198 -1.8671
  338MOL0     H44578   3.561   3.494  10.522  0.0499  0.0539 -0.7783
  338MOL0     H44579   3.361   3.614  10.547  0.8524  0.3600 -0.7387
  338MOL0     H44580   3.126   4.048  10.722 -1.9654  2.0331 -0.1056
  338MOL0     H44581   2.921   4.135  10.694  3.8943  1.2009 -2.4210
  338MOL0     H44582   2.743   4.205  10.567 -0.8005  0.1415  0.6692
  338MOL0     H44583   2.667   4.162  10.724 -1.1040 -2.3045  0.4642
  338MOL0     H44584   2.530   4.158  10.456 -1.7687 -0.3605  0.1057
  338MOL0     H44585   2.508   4.283  10.570 -2.7262  0.4169  0.7484
  338MOL0     H44586   2.448   4.081  10.743  0.9293 -1.3293 -0.1996
  338MOL0     H44587   2.441   3.979  10.601  0.9864  0.6266 -2.3248
  338MOL0     H44588   2.264   4.215  10.659  1.4234  1.4165 -0.8413
  338MOL0     H44589   2.274   4.165  10.506 -2.0274 -3.1995 -1.3077
  338MOL0     H44590   2.220   3.922  10.570 -2.6032  0.2068 -1.1168
  338MOL0     H44591   2.094   4.038  10.582  1.1071  0.4166 -1.4585
  338MOL0     H44592   2.117   4.071  10.813  2.0537  3.0771 -3.1557
  338MOL0     H44593   2.259   3.981  10.837 -0.3499 -0.8777 -1.2769
  338MOL0     H44594   2.174   3.776  10.754  0.2637  0.2248  0.1967
  338MOL0     H44595   2.105   3.833  10.906  1.6146  0.4325  0.6348
  338MOL0     H44596   1.942   3.717  10.782 -3.0612  0.7818  1.4115
  338MOL0     H44597   1.952   3.838  10.649 -2.5021  3.8136  0.1756
  338MOL0     H44598   2.768   3.772  10.512 -0.3341 -0.4167  0.8158
  338MOL0     H44599   3.023   3.685  10.524  2.8022  0.4039  0.0667
  338MOL0     H44600   3.571   3.959  10.668 -0.4196  1.6061 -3.6065
  338MOL0     H44601   3.787   3.841  10.602  0.0996 -0.9223 -0.9481
  338MOL0     H44602   5.602   4.357  10.325  0.4742  0.6690 -0.6735
  338MOL0     H44603   5.714   4.509  10.154 -1.3845 -1.2752 -4.0073
  338MOL0     H44604   5.762   4.728   9.806 -0.6098  1.0829  1.8231
  338MOL0     H44605   5.835   4.792   9.592 -0.6565 -2.9345  1.3140
  338MOL0     H44606   5.590   5.087   9.331  1.1479  1.1017 -0.4338
  338MOL0     H44607   5.495   4.940   9.294  0.5731 -0.4326 -2.3990
  338MOL0     H44608   5.757   5.002   9.159 -0.0447  3.3691  1.4318
  338MOL0     H44609   5.628   4.893   9.102 -2.3209 -0.7303  1.9681
  338MOL0     H44610   5.640   5.196   9.136  1.1162 -1.9493  1.9394
  338MOL0     H44611   5.493   5.104   9.067  1.0868 -1.7515 -1.5206
  338MOL0     H44612   5.615   4.996   8.904 -2.6192  1.0108  1.0001
  338MOL0     H44613   5.612   5.177   8.881 -0.8845 -0.5141  1.3766
  338MOL0     H44614   6.033   5.112   8.933  0.2643  1.6937  5.2655
  338MOL0     H44615   5.453   4.991   9.513 -2.2259  1.9258  2.5605
  338MOL0     H44616   5.395   4.941   9.757  0.3057 -1.8095  0.4190
  339MOL0     O44617   5.631   4.787   2.716 -0.1115  0.6578  0.3915
  339MOL0     C44618   5.693   4.810   2.819  0.0712 -0.5053 -0.0525
  339MOL0     O44619   5.635   4.847   2.934 -0.0230 -0.3962  0.6404
  339MOL0     C44620   5.502   4.858   2.921  0.3210  0.1462  0.2179
  339MOL0     C44621   5.424   4.750   2.949 -1.1483 -0.1705 -0.5437
  339MOL0     C44622   5.287   4.756   2.943  0.3198 -0.0719 -0.9396
  339MOL0     C44623   5.225   4.878   2.905  0.1133  0.3544  0.9114
  339MOL0     O44624   5.089   4.902   2.899  0.3330  0.1767  0.1068
  339MOL0     C44625   5.015   4.782   2.868  0.0395  0.1136  0.1607
  339MOL0     C44626   4.873   4.826   2.827 -0.4279 -0.7232 -0.6674
  339MOL0     C44627   4.780   4.720   2.771 -0.4037  0.3002  0.9974
  339MOL0     C44628   4.825   4.664   2.633  0.5479  0.4773 -0.1282
  339MOL0     C44629   4.751   4.534   2.606  0.3843  0.9413 -0.0697
  339MOL0     C44630   4.800   4.462   2.483  0.7830  0.2547 -0.5241
  339MOL0     C44631   4.727   4.328   2.482 -0.8132  0.4892 -0.0930
  339MOL0     C44632   4.750   4.259   2.348 -0.4561  0.2376 -0.3142
  339MOL0     N44633   4.877   4.190   2.338  0.1511  0.1432 -0.0878
  339MOL0     C44634   4.995   4.243   2.297 -0.1523  0.3888 -0.1892
  339MOL0     C44635   5.069   4.137   2.263 -0.1761 -0.3122 -0.1526
  339MOL0     C44636   5.208   4.140   2.202 -0.4755 -0.3868 -0.0331
  339MOL0     C44637   5.322   4.209   2.279  1.1655 -0.0666  0.4608
  339MOL0     C44638   5.454   4.187   2.211 -0.1540 -0.3105  0.1111
  339MOL0     C44639   5.555   4.288   2.263  0.3184 -0.0946  0.1851
  339MOL0     O44640   5.686   4.235   2.258  0.2099  0.1450 -0.1129
  339MOL0     C44641   5.785   4.325   2.279 -0.4472 -0.7434 -0.3588
  339MOL0     C44642   5.911   4.294   2.239 -0.3131 -0.5257 -0.6191
  339MOL0     C44643   6.021   4.384   2.248  0.0889 -0.7764  0.4524
  339MOL0     C44644   6.010   4.510   2.300  0.0169 -0.0610  0.2348
  339MOL0     C44645   6.131   4.604   2.322 -0.4309  0.2273 -0.2618
  339MOL0     O44646   6.242   4.546   2.288 -0.1986  0.7118 -0.2552
  339MOL0     C44647   6.356   4.615   2.286 -0.4024 -0.0783 -0.1116
  339MOL0     C44648   6.458   4.593   2.381 -0.4455 -0.2779  1.1889
  339MOL0     C44649   6.575   4.668   2.376 -0.0833  0.3367 -0.4375
  339MOL0     C44650   6.593   4.766   2.277  1.7509  0.1881  0.0901
  339MOL0     O44651   6.703   4.848   2.253 -0.3353  0.0996 -0.0197
  339MOL0     C44652   6.831   4.786   2.275  0.4391 -0.2653  0.1588
  339MOL0     C44653   6.943   4.870   2.338  0.2340 -0.7602  0.1917
  339MOL0     C44654   6.913   4.872   2.487 -0.1628  0.5011 -0.3499
  339MOL0     C44655   7.026   4.938   2.551  0.5453  0.2360 -0.6700
  339MOL0     C44656   6.989   5.039   2.660  0.0643 -0.5459  0.4142
  339MOL0     C44657   7.122   5.094   2.730 -0.0893  0.5982  0.0679
  339MOL0     C44658   7.077   5.209   2.820 -0.4694  0.3739  0.8460
  339MOL0     C44659   7.198   5.301   2.833  0.3514  0.8492 -0.1398
  339MOL0    Cl44660   7.352   5.208   2.866 -0.3448 -0.0034  0.3373
  339MOL0     C44661   6.501   4.775   2.168  1.1151  0.1123  0.1792
  339MOL0     C44662   6.379   4.706   2.184 -0.2197 -0.5591  0.3775
  339MOL0     O44663   6.122   4.714   2.369  0.3438  0.4289 -0.1163
  339MOL0     C44664   5.874   4.544   2.343 -0.1347 -0.8620 -0.0608
  339MOL0     C44665   5.768   4.460   2.325  0.2784 -0.2540 -0.3019
  339MOL0     N44666   4.992   4.023   2.290 -0.7767 -0.5879  0.3680
  339MOL0     N44667   4.874   4.057   2.335  0.0073  0.6092  0.4480
  339MOL0     C44668   5.302   4.978   2.862 -0.1613  0.5686 -0.1525
  339MOL0     C44669   5.444   4.975   2.868 -0.2619  0.3246  0.9208
  339MOL0     C44670   5.842   4.784   2.827 -0.2596 -0.5785  0.0519
  339MOL0     C44671   5.919   4.803   2.942 -0.2419  0.2830 -0.3197
  339MOL0     C44672   6.055   4.770   2.948  0.8690  0.6381 -0.3886
  339MOL0     C44673   6.120   4.725   2.835 -0.0518 -0.4364 -0.9674
  339MOL0     O44674   6.259   4.724   2.821  0.3150 -0.0242 -0.4258
  339MOL0     C44675   6.343   4.766   2.933 -0.4773  0.3135  0.8683
  339MOL0     C44676   6.478   4.799   2.871 -0.3318 -0.3558 -0.4404
  339MOL0     C44677   6.571   4.846   2.982  0.1198  0.5413  0.0290
  339MOL0     C44678   6.709   4.900   2.923  0.6181  1.0039  0.2399
  339MOL0     C44679   6.804   4.948   3.024 -0.6740  1.2545 -0.5910
  339MOL0     C44680   6.875   4.997   3.112  0.0817 -0.5196 -0.2558
  339MOL0     C44681   6.048   4.719   2.713  0.0246  1.1540  0.3942
  339MOL0     C44682   5.910   4.743   2.710 -0.7945  0.9643  0.4196
  339MOL0     H44683   5.479   4.664   2.986  0.2253  1.2820  0.9493
  339MOL0     H44684   5.234   4.672   2.988  5.1894 -2.8844  0.3592
  339MOL0     H44685   5.020   4.706   2.947  2.2512 -0.6922 -0.6617
  339MOL0     H44686   5.065   4.728   2.787  0.4361 -1.9289  1.6874
  339MOL0     H44687   4.880   4.898   2.745  0.6502  0.0755  0.0979
  339MOL0     H44688   4.823   4.872   2.913  1.3068  1.4353 -0.7297
  339MOL0     H44689   4.676   4.754   2.776 -0.2892  0.5147  3.5529
  339MOL0     H44690   4.775   4.631   2.835  0.2327 -1.6528 -1.5475
  339MOL0     H44691   4.800   4.726   2.546 -1.2581  0.4572  0.3276
  339MOL0     H44692   4.932   4.645   2.641  0.5373  0.9930  1.9218
  339MOL0     H44693   4.644   4.543   2.587 -0.4268 -4.1465  0.7972
  339MOL0     H44694   4.758   4.474   2.697 -2.5457 -0.1832 -0.4945
  339MOL0     H44695   4.907   4.447   2.497  1.1638  2.8817  0.0384
  339MOL0     H44696   4.776   4.512   2.388 -0.3185 -0.1837 -0.4916
  339MOL0     H44697   4.766   4.265   2.562 -1.1041  2.0895  1.3608
  339MOL0     H44698   4.620   4.342   2.504 -0.8655 -1.1678  0.8247
  339MOL0     H44699   4.736   4.322   2.259 -2.4293  0.0315 -0.1810
  339MOL0     H44700   4.671   4.185   2.335 -1.4805  1.2537 -0.0094
  339MOL0     H44701   5.034   4.343   2.281  2.3138 -0.5973 -0.6303
  339MOL0     H44702   5.206   4.191   2.105 -2.0052  1.2348  0.7985
  339MOL0     H44703   5.239   4.038   2.180 -0.5835 -0.1484 -1.3839
  339MOL0     H44704   5.314   4.180   2.384 -4.1738 -1.3891 -0.0318
  339MOL0     H44705   5.316   4.318   2.267  4.0505 -0.0046 -1.4541
  339MOL0     H44706   5.490   4.084   2.221  1.5718  0.3232  0.8547
  339MOL0     H44707   5.454   4.197   2.102  1.7082 -0.9567  0.0062
  339MOL0     H44708   5.537   4.316   2.367  2.1256  1.1069  0.2328
  339MOL0     H44709   5.555   4.375   2.197  1.4331 -1.5234 -1.8263
  339MOL0     H44710   5.918   4.195   2.195 -0.4482 -1.1726  0.7609
  339MOL0     H44711   6.119   4.357   2.210  1.0412  2.0719  0.6804
  339MOL0     H44712   6.442   4.522   2.461 -0.0719 -1.7912 -0.0153
  339MOL0     H44713   6.641   4.647   2.459 -1.6871  0.0033  0.8013
  339MOL0     H44714   6.869   4.769   2.174 -1.9594  0.8183 -1.0080
  339MOL0     H44715   6.823   4.685   2.316 -0.5240 -0.6689 -0.9431
  339MOL0     H44716   6.941   4.972   2.299  0.8389  0.8266  3.9498
  339MOL0     H44717   7.044   4.837   2.310  0.6592 -1.9775  2.8566
  339MOL0     H44718   6.888   4.771   2.522 -2.6569 -0.1147 -3.4558
  339MOL0     H44719   6.828   4.934   2.514 -0.7998 -0.4724 -0.0730
  339MOL0     H44720   7.091   4.861   2.593  2.3195  0.1747 -3.3055
  339MOL0     H44721   7.091   4.995   2.484 -0.8378  2.1598 -0.4490
  339MOL0     H44722   6.913   5.004   2.730 -1.7031 -0.2740 -1.2874
  339MOL0     H44723   6.941   5.116   2.600 -2.8268  0.6648  3.8808
  339MOL0     H44724   7.197   5.121   2.656 -0.0139  1.0094  0.2955
  339MOL0     H44725   7.164   5.021   2.800  1.4729  0.2669 -1.1704
  339MOL0     H44726   6.996   5.263   2.771  0.1156  0.4369 -0.0825
  339MOL0     H44727   7.052   5.167   2.918 -0.0421  1.8359  1.6199
  339MOL0     H44728   7.189   5.374   2.914  0.3920  0.2458  0.4269
  339MOL0     H44729   7.201   5.351   2.736  3.5163  0.8137 -0.1611
  339MOL0     H44730   6.524   4.852   2.095 -0.7084  3.8580  3.2257
  339MOL0     H44731   6.305   4.721   2.107 -0.1463  2.3952  0.7623
  339MOL0     H44732   5.854   4.643   2.384  0.7012 -0.1786 -1.2316
  339MOL0     H44733   5.669   4.502   2.339  0.6865  1.7248 -2.7314
  339MOL0     H44734   5.236   5.058   2.828 -0.5892 -0.5664 -2.1044
  339MOL0     H44735   5.507   5.058   2.837  1.2322 -2.2556 -3.9024
  339MOL0     H44736   5.875   4.843   3.033  0.7376 -1.0394  0.7868
  339MOL0     H44737   6.107   4.787   3.041 -1.1367  2.1498  0.5277
  339MOL0     H44738   6.363   4.696   3.014 -1.7541 -1.6398 -0.4134
  339MOL0     H44739   6.301   4.857   2.976 -0.1454  0.2167  1.4080
  339MOL0     H44740   6.523   4.715   2.817 -0.6339  0.2800 -1.7144
  339MOL0     H44741   6.464   4.882   2.802  2.5183  2.8234  2.4648
  339MOL0     H44742   6.581   4.760   3.049 -0.3235 -0.8475 -1.6134
  339MOL0     H44743   6.517   4.925   3.035 -1.8265 -1.6884  1.6129
  339MOL0     H44744   6.754   4.814   2.872 -2.0830 -0.5302  0.2181
  339MOL0     H44745   6.688   4.976   2.847 -2.2692  0.2132  0.0887
  339MOL0     H44746   6.950   5.032   3.179  2.2235 -0.4289 -2.5541
  339MOL0     H44747   6.103   4.675   2.631 -3.8323 -0.9206 -1.3352
  339MOL0     H44748   5.857   4.714   2.620 -0.2336 -0.1428  0.4275
  340MOL0     O44749   1.194   2.678   1.752  0.4538  1.0917  0.2307
  340MOL0     C44750   1.194   2.800   1.726 -0.2780  0.1988 -0.2857
  340MOL0     O44751   1.089   2.885   1.707  0.6637  0.4886  0.3784
  340MOL0     C44752   0.961   2.823   1.707 -0.4098 -0.0556 -0.4356
  340MOL0     C44753   0.889   2.817   1.586 -0.1092  0.1718  0.7537
  340MOL0     C44754   0.759   2.760   1.585 -0.7761  0.5614 -0.8712
  340MOL0     C44755   0.708   2.695   1.705 -0.2697 -1.3401  0.7228
  340MOL0     O44756   0.576   2.648   1.686 -0.2201 -0.2092 -0.1020
  340MOL0     C44757   0.485   2.658   1.796 -0.2096 -0.6960 -0.4397
  340MOL0     C44758   0.393   2.527   1.783 -2.2361  0.3144 -0.4983
  340MOL0     C44759   0.306   2.553   1.658  0.0289 -0.6198  0.9731
  340MOL0     C44760   0.221   2.430   1.601 -0.6746  0.1543 -0.1230
  340MOL0     C44761   0.082   2.436   1.667  0.1842 -0.7835 -0.1591
  340MOL0     C44762   0.073   2.410   1.818 -0.7029 -0.8037  0.9532
  340MOL0     C44763  -0.069   2.396   1.856 -0.5597  0.0738  0.0279
  340MOL0     C44764  -0.094   2.390   2.008 -0.5249 -0.2244  0.2245
  340MOL0     N44765  -0.075   2.254   2.056 -0.4965  0.4031  0.3122
  340MOL0     C44766   0.020   2.203   2.145 -0.5749 -0.0913  1.1800
  340MOL0     C44767  -0.009   2.074   2.159 -0.4522 -0.3324  0.4791
  340MOL0     C44768   0.061   1.974   2.246  0.2909  0.9349 -0.2219
  340MOL0     C44769   0.202   1.933   2.201 -0.3221 -0.6963 -0.0188
  340MOL0     C44770   0.250   1.806   2.274 -0.7367  0.1234 -0.3059
  340MOL0     C44771   0.206   1.687   2.194 -0.8401 -0.3009 -0.6115
  340MOL0     O44772   0.251   1.562   2.250  0.0152  0.1703 -0.3442
  340MOL0     C44773   0.382   1.537   2.235 -0.1805  0.4611 -0.3893
  340MOL0     C44774   0.426   1.497   2.116 -0.6002 -0.1942  0.6926
  340MOL0     C44775   0.566   1.458   2.093  0.3887 -0.6136 -0.0686
  340MOL0     C44776   0.664   1.459   2.198  0.5876  0.2554  0.6862
  340MOL0     C44777   0.797   1.406   2.182 -0.3643  0.5561 -0.1496
  340MOL0     O44778   0.826   1.338   2.067 -0.5792  0.0825  0.0806
  340MOL0     C44779   0.952   1.285   2.051  0.6931 -0.8217  0.4448
  340MOL0     C44780   0.953   1.164   1.974  0.3597  0.2427 -0.4643
  340MOL0     C44781   1.068   1.101   1.943 -1.6754  0.1197 -0.0724
  340MOL0     C44782   1.196   1.156   1.997  0.4707 -0.6020  0.8441
  340MOL0     O44783   1.312   1.091   1.971 -0.3146  0.4127 -0.4105
  340MOL0     C44784   1.428   1.113   2.057 -0.7111  0.1424  0.7058
  340MOL0     C44785   1.419   1.086   2.197  0.2001 -0.8138  0.0672
  340MOL0     C44786   1.541   1.120   2.276  0.6989 -0.1499  0.8370
  340MOL0     C44787   1.646   1.006   2.257  1.0544  0.0977 -0.4683
  340MOL0     C44788   1.785   1.055   2.280 -0.3871  0.8830  0.0674
  340MOL0     C44789   1.891   0.952   2.276  0.4088  0.6274  0.0255
  340MOL0     C44790   2.028   1.011   2.273  0.1311 -0.0191  0.7551
  340MOL0     C44791   2.138   0.906   2.303  0.7722 -0.7469  0.6388
  340MOL0    Cl44792   2.133   0.792   2.165  0.0975 -0.1521  0.6092
  340MOL0     C44793   1.193   1.281   2.063 -0.2905  0.0166 -0.1353
  340MOL0     C44794   1.076   1.342   2.087 -0.0731 -0.8832 -0.5225
  340MOL0     O44795   0.878   1.431   2.270  0.2524  0.2598  0.1107
  340MOL0     C44796   0.611   1.496   2.322  0.7691  0.7693 -0.1418
  340MOL0     C44797   0.474   1.533   2.337 -1.0107 -0.4689 -0.0254
  340MOL0     N44798  -0.126   2.052   2.086  0.1813  0.0741 -0.5625
  340MOL0     N44799  -0.159   2.153   2.014 -0.1344 -0.4263  0.4338
  340MOL0     C44800   0.786   2.694   1.825  0.6303 -0.5688 -0.2558
  340MOL0     C44801   0.904   2.765   1.821 -0.4512 -0.1533  0.2732
  340MOL0     C44802   1.327   2.855   1.692  0.2442  0.1140  0.5485
  340MOL0     C44803   1.445   2.808   1.753 -0.0833  0.1639 -0.2790
  340MOL0     C44804   1.567   2.864   1.719 -0.1739 -0.7456 -0.5228
  340MOL0     C44805   1.573   2.957   1.614 -0.4658  0.6199  0.0351
  340MOL0     O44806   1.696   2.997   1.574 -0.4372  0.4896  0.1167
  340MOL0     C44807   1.709   3.100   1.477 -0.1831  0.5508  0.3665
  340MOL0     C44808   1.850   3.110   1.429 -0.0787  1.1043 -0.6947
  340MOL0     C44809   1.935   3.167   1.550 -0.6234  0.0951  0.6365
  340MOL0     C44810   2.084   3.194   1.505  0.5048 -0.2973  0.4009
  340MOL0     C44811   2.175   3.201   1.622  0.7831 -0.7117 -0.0056
  340MOL0     C44812   2.248   3.203   1.721 -0.4775  0.5545 -0.6120
  340MOL0     C44813   1.460   3.002   1.551  0.1406 -0.2547 -0.2256
  340MOL0     C44814   1.340   2.954   1.591 -0.0410  0.1514  0.2393
  340MOL0     H44815   0.932   2.858   1.495 -0.5572 -2.5179 -0.7943
  340MOL0     H44816   0.707   2.747   1.491  0.1196 -0.0677 -1.2973
  340MOL0     H44817   0.421   2.747   1.790 -0.1143 -0.7357 -4.2324
  340MOL0     H44818   0.537   2.662   1.892 -0.5133  2.0220 -0.3186
  340MOL0     H44819   0.341   2.513   1.878 -0.3833  0.0772  0.5307
  340MOL0     H44820   0.456   2.439   1.769 -1.1287  0.4513  2.7422
  340MOL0     H44821   0.367   2.597   1.578 -1.8780  0.0485 -0.1739
  340MOL0     H44822   0.236   2.630   1.691 -0.3389 -0.4009 -0.2717
  340MOL0     H44823   0.223   2.447   1.493  1.9792 -2.0516 -0.5180
  340MOL0     H44824   0.274   2.335   1.611 -1.5937 -0.4789 -1.1432
  340MOL0     H44825   0.025   2.353   1.625 -1.9747  1.0472 -1.0300
  340MOL0     H44826   0.033   2.530   1.641 -0.5281 -0.5856  1.7936
  340MOL0     H44827   0.120   2.495   1.869  2.0131 -1.9683  0.6028
  340MOL0     H44828   0.137   2.325   1.844  2.6452  1.3998  0.5601
  340MOL0     H44829  -0.123   2.487   1.828 -2.3126 -0.2126  2.1401
  340MOL0     H44830  -0.102   2.307   1.801 -1.2384 -0.0516  0.6255
  340MOL0     H44831  -0.197   2.413   2.038 -0.6714 -1.0918  0.3929
  340MOL0     H44832  -0.030   2.460   2.063 -1.5969  2.0950 -1.3071
  340MOL0     H44833   0.102   2.260   2.187 -0.8917  0.9245  0.4753
  340MOL0     H44834  -0.008   1.890   2.237 -1.3891  2.2419 -0.1296
  340MOL0     H44835   0.078   2.007   2.348 -0.9829 -1.7547  0.9577
  340MOL0     H44836   0.276   2.010   2.224 -0.0281 -0.7709 -0.6854
  340MOL0     H44837   0.200   1.921   2.092  1.0615  0.8866 -0.2617
  340MOL0     H44838   0.358   1.792   2.268 -0.6371  0.5818  0.3140
  340MOL0     H44839   0.211   1.799   2.377 -1.3945 -1.7067 -0.6359
  340MOL0     H44840   0.235   1.699   2.089  1.6396 -1.9023 -0.2054
  340MOL0     H44841   0.097   1.682   2.191 -0.8570  0.0353 -0.6064
  340MOL0     H44842   0.363   1.485   2.029 -0.0875  0.5309  0.2098
  340MOL0     H44843   0.591   1.428   1.992  2.3333 -1.7649  0.7011
  340MOL0     H44844   0.871   1.130   1.911  2.0330  1.5001 -3.5138
  340MOL0     H44845   1.086   1.017   1.876  0.7935  1.6117 -1.4588
  340MOL0     H44846   1.464   1.215   2.042 -1.3019  0.0548 -1.7344
  340MOL0     H44847   1.494   1.036   2.016  0.2165  0.4217  1.6286
  340MOL0     H44848   1.401   0.980   2.220 -0.0896 -1.0714 -1.2895
  340MOL0     H44849   1.334   1.142   2.238  0.4870 -2.1274  2.6583
  340MOL0     H44850   1.525   1.139   2.382  1.0016  1.9665  0.5465
  340MOL0     H44851   1.572   1.221   2.246 -0.4412 -0.3587 -1.2638
  340MOL0     H44852   1.624   0.933   2.336  1.4895 -0.0540 -0.4896
  340MOL0     H44853   1.640   0.953   2.162  0.2885  0.9775 -0.9357
  340MOL0     H44854   1.809   1.095   2.379  5.6784  0.1054 -0.7231
  340MOL0     H44855   1.817   1.128   2.205  1.3121 -0.4350 -0.5525
  340MOL0     H44856   1.878   0.879   2.195  1.9891  0.3788 -0.0377
  340MOL0     H44857   1.887   0.890   2.366 -2.6932  1.3523  0.4964
  340MOL0     H44858   2.047   1.046   2.171  0.2279  4.3950  2.1030
  340MOL0     H44859   2.035   1.094   2.343 -0.0645 -0.8263  1.7561
  340MOL0     H44860   2.112   0.853   2.394 -2.2165  1.3091  1.1239
  340MOL0     H44861   2.235   0.958   2.306  0.3009  0.7073 -3.3738
  340MOL0     H44862   1.285   1.319   2.105 -0.7915 -0.5891  1.6134
  340MOL0     H44863   1.069   1.444   2.122  0.1347 -0.3318 -2.0016
  340MOL0     H44864   0.675   1.480   2.408  0.5623 -0.4326 -0.2023
  340MOL0     H44865   0.447   1.562   2.438 -3.3129  0.5451 -0.8654
  340MOL0     H44866   0.753   2.651   1.920 -1.6356  1.5357 -0.0019
  340MOL0     H44867   0.974   2.759   1.904 -1.6833  2.0304  1.5866
  340MOL0     H44868   1.442   2.730   1.828  1.2950  0.1547 -0.2162
  340MOL0     H44869   1.659   2.831   1.766  0.4068  2.3960  0.8232
  340MOL0     H44870   1.673   3.194   1.519  1.0322  1.5947 -0.8025
  340MOL0     H44871   1.647   3.074   1.390  1.6870 -0.8357 -0.6330
  340MOL0     H44872   1.872   3.006   1.403 -2.1518  0.0699  1.3400
  340MOL0     H44873   1.858   3.183   1.347  4.2060  2.3361  0.5302
  340MOL0     H44874   1.933   3.089   1.627 -1.9351 -0.9340 -0.3982
  340MOL0     H44875   1.889   3.258   1.589 -1.7793 -0.9137  1.7337
  340MOL0     H44876   2.109   3.110   1.439  0.4925  1.5831 -2.1351
  340MOL0     H44877   2.087   3.292   1.458 -0.4986  1.2930  3.3777
  340MOL0     H44878   2.308   3.203   1.809  0.2152  0.3650 -1.0777
  340MOL0     H44879   1.454   3.081   1.476 -0.7961  1.6308  1.7376
  340MOL0     H44880   1.257   2.988   1.529  0.4523 -1.9478 -1.7170
  341MOL0     O44881   8.180   1.578   5.224 -0.0565  0.3705  0.0753
  341MOL0     C44882   8.250   1.505   5.146  0.9720 -0.5316 -0.2374
  341MOL0     O44883   8.211   1.389   5.092 -0.2432  1.3669 -0.5028
  341MOL0     C44884   8.082   1.340   5.090  0.0486 -0.6984  1.1431
  341MOL0     C44885   7.969   1.420   5.094 -0.0048 -0.1312 -0.4062
  341MOL0     C44886   7.850   1.370   5.069  0.3479  0.5019 -0.2792
  341MOL0     C44887   7.837   1.233   5.048  0.1104 -0.5749 -0.2556
  341MOL0     O44888   7.707   1.192   5.025 -0.1770 -0.3857 -0.4397
  341MOL0     C44889   7.662   1.207   4.891  0.2175  0.2046 -0.0169
  341MOL0     C44890   7.523   1.136   4.874  0.1867  0.1902 -0.3080
  341MOL0     C44891   7.424   1.196   4.977 -0.0404  0.1751  0.3688
  341MOL0     C44892   7.311   1.093   5.000 -0.8923 -0.4001  0.2751
  341MOL0     C44893   7.206   1.131   5.104  0.5811  0.7523 -0.0902
  341MOL0     C44894   7.118   0.999   5.136 -0.2472 -0.0928 -0.0377
  341MOL0     C44895   7.021   1.003   5.256 -0.5316  0.6347  0.0724
  341MOL0     C44896   6.888   1.065   5.214 -0.4445  0.8876 -0.2992
  341MOL0     N44897   6.791   1.075   5.324  0.3867 -0.1799  0.3816
  341MOL0     C44898   6.794   1.029   5.460 -0.1211 -0.9546  0.4513
  341MOL0     C44899   6.687   1.076   5.521  0.1177 -0.5441 -0.1480
  341MOL0     C44900   6.650   1.063   5.666  0.7925 -0.2311 -0.5703
  341MOL0     C44901   6.567   0.934   5.697 -0.0788 -0.0053 -0.8907
  341MOL0     C44902   6.487   0.935   5.824 -0.2220  0.1741 -0.5715
  341MOL0     C44903   6.370   1.037   5.815 -0.0987  0.2782 -0.7694
  341MOL0     O44904   6.266   0.972   5.740 -0.2033  0.9661  0.4046
  341MOL0     C44905   6.176   0.894   5.813  0.5598  0.4569 -1.0440
  341MOL0     C44906   6.187   0.845   5.950 -0.0683  0.5195 -0.2068
  341MOL0     C44907   6.069   0.782   6.005 -0.6581  0.1842  0.2450
  341MOL0     C44908   5.953   0.754   5.934 -0.6590  0.5977  0.6744
  341MOL0     C44909   5.847   0.668   5.997 -0.4854  0.6167  0.6651
  341MOL0     O44910   5.836   0.668   6.135 -0.6402 -0.3937 -0.0822
  341MOL0     C44911   5.767   0.568   6.196 -0.7704  0.4167 -0.2927
  341MOL0     C44912   5.629   0.586   6.225  0.8552 -0.4937  0.2812
  341MOL0     C44913   5.548   0.489   6.282 -0.1623  0.7985 -0.5257
  341MOL0     C44914   5.606   0.358   6.312  0.2129  0.1908  1.1527
  341MOL0     O44915   5.542   0.250   6.362  0.0573  0.0519  0.3808
  341MOL0     C44916   5.399   0.260   6.360 -0.5063 -0.3630  0.4589
  341MOL0     C44917   5.335   0.129   6.424  0.4651  0.1712  0.3203
  341MOL0     C44918   5.179   0.149   6.433 -0.5748 -0.0754 -0.4317
  341MOL0     C44919   5.108   0.017   6.413 -0.3013 -0.2147  0.0400
  341MOL0     C44920   4.952   0.021   6.418  0.1142 -0.0503 -0.6463
  341MOL0     C44921   4.892   0.085   6.542  0.7761 -0.3972  0.4386
  341MOL0     C44922   4.924   0.020   6.682  0.1980 -0.1592  1.0113
  341MOL0     C44923   4.852   0.099   6.785  0.1094 -0.0188  0.1023
  341MOL0    Cl44924   4.898   0.271   6.809  0.1157 -0.0658 -0.1570
  341MOL0     C44925   5.742   0.349   6.303 -0.6408  0.4904 -0.4710
  341MOL0     C44926   5.824   0.451   6.248  0.1302  0.2815  0.6654
  341MOL0     O44927   5.768   0.606   5.923  0.5363 -0.0003 -0.0628
  341MOL0     C44928   5.953   0.789   5.802  0.7299 -0.5042 -0.0626
  341MOL0     C44929   6.065   0.848   5.737  0.3303  0.2612  0.0537
  341MOL0     N44930   6.606   1.146   5.424 -0.5966  0.1597 -0.1591
  341MOL0     N44931   6.666   1.138   5.309  0.4726 -0.3147  0.1269
  341MOL0     C44932   7.943   1.143   5.046  0.6241 -0.0383 -0.1172
  341MOL0     C44933   8.070   1.199   5.054  0.3739 -0.1754 -0.2688
  341MOL0     C44934   8.385   1.539   5.125 -0.5349 -0.2419  0.1360
  341MOL0     C44935   8.460   1.609   5.224  0.7999 -0.1466  0.1770
  341MOL0     C44936   8.590   1.657   5.197  0.3606 -0.2580  0.7391
  341MOL0     C44937   8.654   1.604   5.080 -0.8186  0.7589 -0.5324
  341MOL0     O44938   8.797   1.628   5.076  0.3515 -1.1761 -0.5766
  341MOL0     C44939   8.873   1.579   4.960 -0.3672 -0.8480  0.3686
  341MOL0     C44940   9.016   1.631   4.990  0.8032  0.0350 -0.0415
  341MOL0     C44941   9.080   1.557   5.112 -0.1403 -0.1937  0.2149
  341MOL0     C44942   9.201   1.624   5.184  0.3653 -0.8764  0.2957
  341MOL0     C44943   9.332   1.556   5.169  0.8708  0.2757 -0.3619
  341MOL0     C44944   9.426   1.488   5.178 -0.6829 -0.1530 -0.2979
  341MOL0     C44945   8.587   1.519   4.990  0.0670 -0.1254  0.4382
  341MOL0     C44946   8.453   1.496   5.012 -0.1824  0.3388  0.3436
  341MOL0     H44947   7.984   1.527   5.109  1.8867 -0.3154 -0.7343
  341MOL0     H44948   7.765   1.436   5.059  0.5665  0.7052 -0.8177
  341MOL0     H44949   7.741   1.178   4.821 -0.9700  2.5580 -2.5184
  341MOL0     H44950   7.631   1.310   4.870 -3.4600 -0.7021  0.1742
  341MOL0     H44951   7.540   1.029   4.884  2.4756  0.7090  2.5478
  341MOL0     H44952   7.471   1.161   4.781  1.7228  1.2286 -0.9339
  341MOL0     H44953   7.378   1.293   4.955 -1.1614  0.0070  1.8381
  341MOL0     H44954   7.464   1.221   5.076 -0.3943  2.7092 -0.0514
  341MOL0     H44955   7.257   1.077   4.906  1.5425  0.9660 -1.4832
  341MOL0     H44956   7.361   0.998   5.024  0.8163 -0.4304 -2.8652
  341MOL0     H44957   7.138   1.211   5.071 -0.3257 -0.1748 -0.5385
  341MOL0     H44958   7.243   1.157   5.203 -1.4791 -1.4645  1.3511
  341MOL0     H44959   7.185   0.912   5.138 -1.5970 -1.1485  0.6435
  341MOL0     H44960   7.061   0.983   5.044 -0.2575  2.7435 -0.6177
  341MOL0     H44961   6.983   0.902   5.276 -0.6445 -0.2963 -4.0295
  341MOL0     H44962   7.073   1.046   5.343  0.7163 -3.0127  1.3752
  341MOL0     H44963   6.839   1.006   5.136  2.3773  0.5068 -1.9063
  341MOL0     H44964   6.899   1.168   5.178  3.2310  0.6213 -0.2653
  341MOL0     H44965   6.875   0.970   5.502  0.0186 -0.7559  0.4607
  341MOL0     H44966   6.594   1.152   5.694 -1.1446 -0.7600 -2.5270
  341MOL0     H44967   6.740   1.063   5.729 -0.1582  0.7700  0.8598
  341MOL0     H44968   6.641   0.853   5.692 -0.6528 -0.4512 -3.3527
  341MOL0     H44969   6.498   0.922   5.613 -0.5273  0.6959 -0.6319
  341MOL0     H44970   6.443   0.835   5.826 -1.6732  0.7580  2.9877
  341MOL0     H44971   6.550   0.959   5.909  0.5985 -1.9519 -0.5240
  341MOL0     H44972   6.404   1.129   5.768  0.8125  0.8523  0.9351
  341MOL0     H44973   6.334   1.068   5.914  0.4967  1.6070 -0.9510
  341MOL0     H44974   6.276   0.862   6.010 -0.0872  0.2597 -0.1047
  341MOL0     H44975   6.081   0.755   6.110  1.1452 -2.7361 -0.6238
  341MOL0     H44976   5.586   0.679   6.191  1.7138 -0.3281 -0.3969
  341MOL0     H44977   5.447   0.517   6.308  0.2538  0.3156  1.7978
  341MOL0     H44978   5.358   0.288   6.262  0.4563 -1.0055 -0.1372
  341MOL0     H44979   5.365   0.340   6.427 -0.0206 -0.0192  0.3012
  341MOL0     H44980   5.379   0.110   6.523 -0.9174 -0.8799  0.7644
  341MOL0     H44981   5.371   0.056   6.351  1.2332  1.3945 -0.5696
  341MOL0     H44982   5.145   0.220   6.356  0.8214  1.5381  0.3810
  341MOL0     H44983   5.153   0.184   6.533  1.0547  0.1100 -0.0395
  341MOL0     H44984   5.129  -0.027   6.315 -0.0863 -0.9062  0.3900
  341MOL0     H44985   5.151  -0.049   6.488 -2.4087 -0.7671  0.8472
  341MOL0     H44986   4.924  -0.084   6.406  0.8314 -0.3640  0.2403
  341MOL0     H44987   4.904   0.066   6.331 -2.4809  1.0587  1.2584
  341MOL0     H44988   4.783   0.079   6.533  0.6814  1.9002 -0.3486
  341MOL0     H44989   4.913   0.192   6.540  0.6855 -0.3605  1.1668
  341MOL0     H44990   4.885  -0.082   6.680  0.1228 -0.1596  2.0150
  341MOL0     H44991   5.033   0.027   6.694  0.3193 -0.6070  0.1891
  341MOL0     H44992   4.857   0.044   6.879 -0.1640 -1.5551 -0.7447
  341MOL0     H44993   4.745   0.098   6.760  0.2400  2.5501 -0.8245
  341MOL0     H44994   5.798   0.263   6.338 -0.9727  1.1930  2.0273
  341MOL0     H44995   5.931   0.433   6.256 -0.0446 -1.0349  0.3710
  341MOL0     H44996   5.861   0.768   5.747 -1.5598 -0.6656  3.5234
  341MOL0     H44997   6.058   0.876   5.632 -0.2768  1.5816  0.4188
  341MOL0     H44998   7.917   1.041   5.020 -0.1454  0.2488 -0.4918
  341MOL0     H44999   8.149   1.127   5.037  0.9671 -0.4179  2.8482
  341MOL0     H45000   8.431   1.643   5.323  0.3039  2.9985 -0.9393
  341MOL0     H45001   8.643   1.719   5.269  1.5357 -0.4253  0.0488
  341MOL0     H45002   8.840   1.626   4.867 -0.1555  0.7578  1.0783
  341MOL0     H45003   8.862   1.470   4.948 -2.5555 -0.7137  0.7123
  341MOL0     H45004   9.086   1.624   4.906  0.4995 -2.4227 -0.1442
  341MOL0     H45005   9.005   1.734   5.027 -0.2735 -0.8601  2.3042
  341MOL0     H45006   9.114   1.455   5.094  3.1608  0.7506  0.3796
  341MOL0     H45007   8.999   1.555   5.186  0.5341 -1.1326  0.9482
  341MOL0     H45008   9.208   1.726   5.145  1.0284 -0.9663  0.1705
  341MOL0     H45009   9.168   1.624   5.288  0.9957 -2.2150  0.5231
  341MOL0     H45010   9.518   1.434   5.191  0.1480  1.5492  1.4479
  341MOL0     H45011   8.638   1.471   4.907  0.6117 -0.4335  0.9395
  341MOL0     H45012   8.416   1.422   4.940  1.3787 -1.3590  1.1920
  342MOL0     O45013  10.840   2.789  10.612  0.2032 -0.5625  0.0775
  342MOL0     C45014  10.837   2.671  10.601 -0.4242  0.0246 -0.6664
  342MOL0     O45015  10.724   2.598  10.587  0.5613  0.3227  0.3875
  342MOL0     C45016  10.603   2.652  10.546 -0.6840  1.0505  0.4802
  342MOL0     C45017  10.561   2.784  10.568 -0.0208  0.1560  0.6311
  342MOL0     C45018  10.434   2.830  10.530  0.7250  0.9985 -0.5448
  342MOL0     C45019  10.344   2.742  10.468  0.4122  0.2050 -0.1198
  342MOL0     O45020  10.219   2.772  10.433  0.2989 -0.6401 -0.5475
  342MOL0     C45021  10.187   2.913  10.428  0.0621  0.4102 -0.0018
  342MOL0     C45022  10.037   2.926  10.423 -0.0181 -0.2806  0.1341
  342MOL0     C45023   9.958   2.866  10.545  0.0503  0.3654  0.5941
  342MOL0     C45024   9.902   2.972  10.631  0.8912  0.5426  0.0652
  342MOL0     C45025   9.833   2.909  10.763  0.8235  0.4035 -0.0485
  342MOL0     C45026   9.727   3.014  10.813 -0.2292 -0.3418 -1.1046
  342MOL0     C45027   9.604   2.938  10.874 -0.8423 -0.1025  0.3412
  342MOL0     C45028   9.526   3.022  10.965 -0.0438  0.5186 -0.2647
  342MOL0     N45029   9.383   2.972  10.981 -1.0187  0.1563  0.2359
  342MOL0     C45030   9.349   2.872  11.070 -0.0239 -0.0119  1.9686
  342MOL0     C45031   9.229   2.838  11.027  0.4128  0.3696 -0.5865
  342MOL0     C45032   9.152   2.719  11.078 -0.4718 -0.8046 -0.5837
  342MOL0     C45033   9.010   2.771  11.125  0.9694 -0.3821  0.5411
  342MOL0     C45034   8.898   2.804  11.016 -0.5789 -0.0612  0.0767
  342MOL0     C45035   8.764   2.845  11.071 -0.4903 -0.5145 -0.5561
  342MOL0     O45036   8.686   2.727  11.046 -0.0207 -0.3766  0.1123
  342MOL0     C45037   8.548   2.724  11.051  1.0245 -0.0017  0.1695
  342MOL0     C45038   8.495   2.607  11.001 -0.1742 -0.6020  0.2955
  342MOL0     C45039   8.360   2.589  10.971 -0.7294 -1.0809  0.3577
  342MOL0     C45040   8.271   2.686  10.996 -0.3122 -0.0784 -0.5512
  342MOL0     C45041   8.131   2.661  10.974  0.4494 -0.2963  1.1544
  342MOL0     O45042   8.099   2.536  10.930 -0.4120 -0.3543 -0.2308
  342MOL0     C45043   7.971   2.502  10.904  0.2517  0.2679 -0.2377
  342MOL0     C45044   7.928   2.477  10.766  0.4632 -0.3839 -0.1464
  342MOL0     C45045   7.794   2.452  10.738  0.2885 -0.0466  1.3619
  342MOL0     C45046   7.693   2.462  10.844  0.1344  0.1154 -0.0816
  342MOL0     O45047   7.557   2.447  10.828 -0.3269 -0.3474 -0.3169
  342MOL0     C45048   7.489   2.481  10.703 -0.5100 -0.1396  0.2043
  342MOL0     C45049   7.504   2.638  10.667  0.3885 -0.0062 -0.4735
  342MOL0     C45050   7.415   2.676  10.549 -0.5355  0.4476  0.4733
  342MOL0     C45051   7.476   2.613  10.419 -0.3685 -0.5314  0.9379
  342MOL0     C45052   7.403   2.672  10.291 -0.8436  0.4522  0.2771
  342MOL0     C45053   7.307   2.559  10.243  0.4908 -0.3043 -0.6760
  342MOL0     C45054   7.237   2.603  10.115 -0.4770  0.2468 -0.7854
  342MOL0     C45055   7.134   2.717  10.128 -0.0561 -0.6919  0.4043
  342MOL0    Cl45056   7.021   2.669  10.259  0.0109  0.1367  0.5808
  342MOL0     C45057   7.738   2.491  10.968 -0.5665  0.7082  0.2687
  342MOL0     C45058   7.874   2.505  10.997 -0.5709 -0.1604 -0.5945
  342MOL0     O45059   8.050   2.748  10.998  0.5080 -0.0520 -0.2632
  342MOL0     C45060   8.319   2.804  11.056 -0.0027 -0.2802 -0.3964
  342MOL0     C45061   8.457   2.832  11.083 -0.9050  0.0224 -0.0358
  342MOL0     N45062   9.191   2.923  10.925  1.0149  0.5500  0.5490
  342MOL0     N45063   9.283   3.000  10.892  0.2180 -0.1609 -0.5422
  342MOL0     C45064  10.382   2.606  10.445 -0.8741  0.5031 -0.3499
  342MOL0     C45065  10.515   2.567  10.480  0.3133 -0.2535 -1.0157
  342MOL0     C45066  10.967   2.597  10.618  0.1285 -0.0758 -0.1111
  342MOL0     C45067  11.089   2.668  10.609  0.1896  0.1427 -1.1917
  342MOL0     C45068  11.208   2.616  10.654 -0.1802 -0.3161 -0.9786
  342MOL0     C45069  11.216   2.481  10.692 -0.2621 -0.3611 -0.4972
  342MOL0     O45070  11.339   2.433  10.735  0.7597  0.4053 -1.0314
  342MOL0     C45071  11.331   2.341  10.840  0.2392 -0.4671  0.7923
  342MOL0     C45072  11.470   2.307  10.882  0.3506 -0.4237  0.1102
  342MOL0     C45073  11.553   2.204  10.792  0.0804 -0.0069  1.2495
  342MOL0     C45074  11.623   2.266  10.665  0.1400 -0.1130  0.2765
  342MOL0     C45075  11.739   2.344  10.715 -0.2832 -0.6609  0.0844
  342MOL0     C45076  11.837   2.392  10.780  1.1675 -0.5720  0.5405
  342MOL0     C45077  11.097   2.405  10.694 -0.0479 -0.3881 -0.8121
  342MOL0     C45078  10.974   2.463  10.653  0.1926 -0.3435 -0.3816
  342MOL0     H45079  10.614   2.858  10.626 -0.3092  0.0199  1.0693
  342MOL0     H45080  10.415   2.933  10.557  1.8045  1.4058 -1.2399
  342MOL0     H45081  10.227   2.968  10.343 -0.7529  2.1256  0.6745
  342MOL0     H45082  10.219   2.969  10.516 -2.4808  1.0924  0.5922
  342MOL0     H45083  10.017   2.861  10.337  4.8944  0.9100 -2.2163
  342MOL0     H45084   9.997   3.023  10.392 -2.1270 -1.6148 -1.6961
  342MOL0     H45085  10.026   2.799  10.598 -0.5964  0.6441  1.8085
  342MOL0     H45086   9.876   2.796  10.521  2.2683 -2.0451 -0.4811
  342MOL0     H45087   9.980   3.046  10.653  1.5524 -0.0956 -0.0886
  342MOL0     H45088   9.817   3.017  10.579 -1.3957 -1.0931  2.1791
  342MOL0     H45089   9.896   2.871  10.845 -1.9222 -1.8169  1.2217
  342MOL0     H45090   9.776   2.820  10.738 -0.3409  0.4983  2.0287
  342MOL0     H45091   9.687   3.087  10.742  0.8707 -0.3195 -1.7317
  342MOL0     H45092   9.776   3.085  10.881 -1.6425  1.0454 -1.4918
  342MOL0     H45093   9.538   2.906  10.793 -3.3869  1.4510  1.6560
  342MOL0     H45094   9.625   2.847  10.932 -1.8659 -1.7540 -1.7413
  342MOL0     H45095   9.520   3.126  10.932  3.5954  1.4994  1.6217
  342MOL0     H45096   9.574   3.024  11.064  0.0914 -3.6146 -0.0610
  342MOL0     H45097   9.414   2.837  11.150  0.6326 -1.1836  0.9596
  342MOL0     H45098   9.208   2.681  11.163  0.3741 -0.8256 -1.1399
  342MOL0     H45099   9.145   2.643  10.999  0.9650 -0.4354 -1.1019
  342MOL0     H45100   9.027   2.855  11.192  1.8059  1.1752 -1.5096
  342MOL0     H45101   8.969   2.691  11.187 -1.2780  0.3577  0.1037
  342MOL0     H45102   8.946   2.883  10.957  0.5819 -1.1216 -0.4549
  342MOL0     H45103   8.891   2.720  10.946  1.9735  0.1096 -0.4943
  342MOL0     H45104   8.725   2.936  11.024  0.0998  0.3841  0.6451
  342MOL0     H45105   8.767   2.860  11.179 -1.6489  0.7758 -0.6747
  342MOL0     H45106   8.571   2.534  10.978  3.2061  1.9138  2.5150
  342MOL0     H45107   8.325   2.494  10.934  0.2652 -1.1662 -0.3992
  342MOL0     H45108   7.997   2.482  10.683  1.8590  2.3579  1.0257
  342MOL0     H45109   7.761   2.431  10.637  0.0497  0.8719  1.2429
  342MOL0     H45110   7.381   2.464  10.716 -0.9934  3.2866  1.7529
  342MOL0     H45111   7.522   2.412  10.626 -2.1049 -1.0321  0.2761
  342MOL0     H45112   7.606   2.670  10.645  0.3775 -0.7821 -1.7068
  342MOL0     H45113   7.463   2.695  10.751  1.1068 -0.2060  0.0149
  342MOL0     H45114   7.416   2.785  10.545 -0.6250  0.4286 -1.6052
  342MOL0     H45115   7.312   2.640  10.561 -1.1823  1.3419 -1.8018
  342MOL0     H45116   7.584   2.629  10.417  0.0384 -2.8907 -0.9589
  342MOL0     H45117   7.460   2.505  10.412  0.7827 -0.5929 -2.6668
  342MOL0     H45118   7.485   2.673  10.219 -1.7707  2.2182 -0.8252
  342MOL0     H45119   7.358   2.772  10.302 -0.9641  0.3549  0.7023
  342MOL0     H45120   7.234   2.546  10.323 -0.6491  0.4584 -1.5611
  342MOL0     H45121   7.356   2.462  10.225 -0.1284 -0.6345 -0.6171
  342MOL0     H45122   7.316   2.622  10.041  0.3042  3.6624  0.7197
  342MOL0     H45123   7.177   2.514  10.092 -0.1852 -0.2896  0.4676
  342MOL0     H45124   7.078   2.729  10.036 -1.0363  0.4673  1.1356
  342MOL0     H45125   7.177   2.813  10.158 -1.4872  0.6619 -1.6622
  342MOL0     H45126   7.659   2.511  11.040 -3.0704 -0.4248 -2.0003
  342MOL0     H45127   7.889   2.535  11.100  2.2349 -0.8303 -0.7337
  342MOL0     H45128   8.246   2.881  11.074  1.6187  0.3729  5.4264
  342MOL0     H45129   8.498   2.925  11.119  1.3907 -0.3176 -1.5609
  342MOL0     H45130  10.312   2.533  10.407 -1.2238 -0.5269  2.0842
  342MOL0     H45131  10.535   2.461  10.469 -2.2822 -1.0942  1.0790
  342MOL0     H45132  11.086   2.773  10.580  2.3622  1.0549  1.4056
  342MOL0     H45133  11.292   2.686  10.660  0.1515 -0.8042  0.3591
  342MOL0     H45134  11.274   2.251  10.815  0.6666 -0.7798  0.9223
  342MOL0     H45135  11.285   2.388  10.927  2.0794  0.3118  1.3905
  342MOL0     H45136  11.525   2.398  10.904  0.6953 -0.0032 -2.1878
  342MOL0     H45137  11.454   2.254  10.976  0.5914  1.5183  1.2912
  342MOL0     H45138  11.493   2.122  10.752  0.5524 -0.5824  1.7019
  342MOL0     H45139  11.633   2.151  10.845  2.3773  0.9690 -1.0452
  342MOL0     H45140  11.665   2.202  10.587  0.1742  0.6511 -0.3383
  342MOL0     H45141  11.555   2.334  10.614  2.5129  2.5721  0.4478
  342MOL0     H45142  11.918   2.434  10.836 -0.4108 -0.7488  3.1776
  342MOL0     H45143  11.095   2.308  10.743  4.3052 -0.7085 -0.9371
  342MOL0     H45144  10.883   2.405  10.651  0.6045 -1.0309  0.3845
  343MOL0     O45145   7.261   3.325   9.869  0.0713  0.7147  0.0576
  343MOL0     C45146   7.259   3.397   9.770 -0.4054 -0.3332  0.6021
  343MOL0     O45147   7.155   3.467   9.724  0.9227  0.0851 -0.2831
  343MOL0     C45148   7.033   3.448   9.783  0.2475  0.1887  0.9315
  343MOL0     C45149   6.957   3.559   9.802  0.1802  0.4191  0.7475
  343MOL0     C45150   6.823   3.559   9.838  0.2225  0.2373  0.3959
  343MOL0     C45151   6.763   3.434   9.848 -0.6576  0.2915 -0.6512
  343MOL0     O45152   6.635   3.401   9.884 -0.6747 -0.5512 -0.1724
  343MOL0     C45153   6.548   3.511   9.915  0.3488 -0.0431 -0.4680
  343MOL0     C45154   6.411   3.460   9.953 -0.8780 -0.1398  0.4452
  343MOL0     C45155   6.304   3.569   9.944  0.0801 -0.7838 -0.0573
  343MOL0     C45156   6.173   3.530  10.008 -0.5658 -0.7265 -0.3358
  343MOL0     C45157   6.067   3.643  10.021  0.0567  0.0550 -0.2836
  343MOL0     C45158   5.927   3.584  10.013  0.4129 -0.5498  0.3185
  343MOL0     C45159   5.807   3.677  10.051 -0.1114  0.4679 -0.0327
  343MOL0     C45160   5.795   3.695  10.208 -0.1260  0.3855 -0.2259
  343MOL0     N45161   5.712   3.811  10.251 -0.4059 -0.9104 -0.1264
  343MOL0     C45162   5.590   3.817  10.312  0.1294  0.5090  0.2404
  343MOL0     C45163   5.549   3.945  10.303  0.6944  0.2500  0.2373
  343MOL0     C45164   5.411   3.992  10.343  0.8360  0.4860  0.5289
  343MOL0     C45165   5.327   4.040  10.222  0.2149  0.5071  0.7528
  343MOL0     C45166   5.307   3.931  10.111 -0.3441  0.2449  0.5756
  343MOL0     C45167   5.205   3.973  10.007 -0.3431 -0.3609 -0.1552
  343MOL0     O45168   5.072   3.970  10.056  0.0223 -0.3190  0.0788
  343MOL0     C45169   4.983   4.047   9.993  0.2251 -1.2517  0.5632
  343MOL0     C45170   4.850   4.029  10.031  1.0167  0.7523  0.1224
  343MOL0     C45171   4.746   4.098   9.971  0.3583 -0.0033 -0.7199
  343MOL0     C45172   4.763   4.180   9.857  0.3025 -0.4423 -0.5401
  343MOL0     C45173   4.655   4.246   9.777 -0.3861  0.6647  0.0806
  343MOL0     O45174   4.532   4.194   9.799 -0.7052 -0.5863 -0.3132
  343MOL0     C45175   4.433   4.239   9.718  0.2172 -0.2710  0.3444
  343MOL0     C45176   4.382   4.372   9.711  0.8646 -0.5558 -0.3520
  343MOL0     C45177   4.276   4.409   9.637  0.4217  0.1864  0.5518
  343MOL0     C45178   4.201   4.315   9.572  1.0917  0.2959 -0.4080
  343MOL0     O45179   4.090   4.362   9.503  0.5666  0.3065 -0.4263
  343MOL0     C45180   4.013   4.256   9.422 -0.3683  0.2405 -0.7058
  343MOL0     C45181   3.885   4.304   9.353  0.6118 -0.1823  0.0807
  343MOL0     C45182   3.783   4.363   9.458  0.1658 -0.0530 -0.0657
  343MOL0     C45183   3.672   4.441   9.386 -0.6905  0.0370  0.0522
  343MOL0     C45184   3.541   4.450   9.465 -0.1157  0.5266  0.4573
  343MOL0     C45185   3.448   4.561   9.398  0.5956  0.2362 -0.2457
  343MOL0     C45186   3.306   4.539   9.461 -1.3479 -0.5814  0.4214
  343MOL0     C45187   3.231   4.673   9.452  0.4724 -0.7738  0.8285
  343MOL0    Cl45188   3.197   4.721   9.282 -0.0885  0.1765 -0.1244
  343MOL0     C45189   4.245   4.180   9.561 -0.5095 -0.2509 -1.1350
  343MOL0     C45190   4.355   4.144   9.645  0.1428  0.7022  0.8577
  343MOL0     O45191   4.684   4.322   9.684 -0.1185 -0.7428 -0.0708
  343MOL0     C45192   4.903   4.210   9.824  0.3503  0.4994  0.8877
  343MOL0     C45193   5.003   4.143   9.891  0.0541  0.1709  0.7427
  343MOL0     N45194   5.642   4.022  10.236  0.1916 -0.4074 -0.2948
  343MOL0     N45195   5.745   3.938  10.213 -0.1733 -0.6507 -0.3904
  343MOL0     C45196   6.843   3.319   9.826  0.5191 -0.6593  0.0807
  343MOL0     C45197   6.977   3.326   9.798  0.4779  0.5914  0.5444
  343MOL0     C45198   7.387   3.410   9.697 -0.8358 -0.5980  0.9353
  343MOL0     C45199   7.406   3.528   9.619 -1.0443 -0.9061  0.2556
  343MOL0     C45200   7.530   3.543   9.552  0.7251  0.9427  0.5211
  343MOL0     C45201   7.625   3.438   9.552  0.7202  0.4075  0.5225
  343MOL0     O45202   7.742   3.466   9.491  0.6095 -0.2200  0.1389
  343MOL0     C45203   7.824   3.363   9.442  0.5999 -0.2835  0.1206
  343MOL0     C45204   7.973   3.411   9.468  0.7267 -0.9429 -0.5382
  343MOL0     C45205   8.011   3.537   9.374  0.2234 -0.2048  0.6842
  343MOL0     C45206   8.161   3.571   9.410  0.0973 -0.0014  0.5813
  343MOL0     C45207   8.260   3.468   9.376 -0.3031  0.3718  0.2425
  343MOL0     C45208   8.338   3.393   9.325  0.8632  0.5373 -0.7020
  343MOL0     C45209   7.595   3.319   9.614 -0.9771 -0.0975 -0.0519
  343MOL0     C45210   7.480   3.303   9.687 -0.1113 -0.4132  0.0939
  343MOL0     H45211   7.016   3.650   9.790  1.0906 -0.3880 -1.5101
  343MOL0     H45212   6.773   3.649   9.870 -0.5304  0.6452 -1.7738
  343MOL0     H45213   6.537   3.574   9.827 -0.1717 -1.6174 -1.5773
  343MOL0     H45214   6.588   3.565  10.001 -0.2829 -0.2951 -0.0065
  343MOL0     H45215   6.420   3.420  10.054 -0.9880 -0.5117  0.3104
  343MOL0     H45216   6.389   3.378   9.884 -1.0316 -0.1717  0.5342
  343MOL0     H45217   6.282   3.602   9.842 -1.3354 -1.2561  0.0817
  343MOL0     H45218   6.337   3.652  10.007 -0.9531 -0.9012  0.6574
  343MOL0     H45219   6.135   3.442   9.956  0.6332  0.1354 -2.8220
  343MOL0     H45220   6.197   3.498  10.110 -3.4133 -0.8455  0.3980
  343MOL0     H45221   6.074   3.712   9.937  0.2575  1.4455  0.8360
  343MOL0     H45222   6.082   3.697  10.115 -0.9504  0.8129 -0.5422
  343MOL0     H45223   5.923   3.503  10.086 -1.1476 -1.3933 -0.6493
  343MOL0     H45224   5.914   3.535   9.916  3.4197  0.1158 -0.5156
  343MOL0     H45225   5.804   3.769   9.992 -0.5101 -0.8597 -2.1959
  343MOL0     H45226   5.718   3.620  10.023  0.0091 -0.5715  1.5547
  343MOL0     H45227   5.892   3.716  10.252  1.5977 -0.6555 -3.2506
  343MOL0     H45228   5.749   3.603  10.243 -1.1611 -0.4718 -3.4416
  343MOL0     H45229   5.526   3.736  10.346  0.0687  0.3693 -0.1931
  343MOL0     H45230   5.417   4.082  10.406  0.7409 -0.1981  1.5267
  343MOL0     H45231   5.367   3.908  10.396 -1.0167  1.2497  0.2868
  343MOL0     H45232   5.378   4.129  10.184  2.1313 -0.5711  0.6245
  343MOL0     H45233   5.229   4.070  10.260 -0.2920 -0.3482  0.1505
  343MOL0     H45234   5.398   3.902  10.058  0.7269  1.4366  1.6889
  343MOL0     H45235   5.275   3.842  10.167 -4.0551 -0.0148 -1.6617
  343MOL0     H45236   5.206   3.906   9.921  0.1726  1.8295 -1.9426
  343MOL0     H45237   5.232   4.076   9.981 -1.3291  0.8338  3.0414
  343MOL0     H45238   4.821   3.958  10.107 -2.1069  0.4639 -1.1826
  343MOL0     H45239   4.649   4.084  10.016  0.8412  0.2255  0.4369
  343MOL0     H45240   4.426   4.452   9.770 -1.7283  3.0600 -2.8733
  343MOL0     H45241   4.241   4.512   9.636  0.2512  0.1414 -0.6929
  343MOL0     H45242   3.983   4.173   9.486  0.1596  0.0955 -0.6394
  343MOL0     H45243   4.073   4.216   9.339  0.2751 -0.1207 -0.0758
  343MOL0     H45244   3.834   4.218   9.308 -1.7130  0.5022  1.2504
  343MOL0     H45245   3.915   4.373   9.274  1.1416  1.6116  1.7742
  343MOL0     H45246   3.820   4.432   9.535  1.0615 -0.6026  0.0169
  343MOL0     H45247   3.734   4.275   9.502  1.3132  0.1600  1.7690
  343MOL0     H45248   3.712   4.542   9.375  0.2543 -0.3342  0.0170
  343MOL0     H45249   3.656   4.403   9.285  1.8440  1.9653 -1.1827
  343MOL0     H45250   3.545   4.468   9.573 -0.5070  0.4009  0.4939
  343MOL0     H45251   3.489   4.354   9.464  1.8164 -0.5804  0.6504
  343MOL0     H45252   3.434   4.548   9.290  0.0888  0.9179 -0.2675
  343MOL0     H45253   3.496   4.659   9.402  0.1893  0.4071  0.4992
  343MOL0     H45254   3.262   4.451   9.412  1.6536 -2.3080  0.5798
  343MOL0     H45255   3.312   4.507   9.566 -0.6907  1.0223  0.9023
  343MOL0     H45256   3.295   4.747   9.501  1.3767 -0.8304 -0.2278
  343MOL0     H45257   3.134   4.679   9.502  0.2129  0.3370  0.2253
  343MOL0     H45258   4.190   4.114   9.496 -1.1940  1.0878 -1.9676
  343MOL0     H45259   4.375   4.038   9.652 -0.6077  0.5591  0.8895
  343MOL0     H45260   4.932   4.282   9.748  2.2375 -1.6836 -0.6222
  343MOL0     H45261   5.104   4.169   9.860 -0.2135 -1.4332 -1.7707
  343MOL0     H45262   6.792   3.225   9.845 -2.0528  0.7142  0.2912
  343MOL0     H45263   7.044   3.241   9.786  1.3022  1.4816 -1.8684
  343MOL0     H45264   7.337   3.610   9.629 -1.0264 -0.7347 -0.9085
  343MOL0     H45265   7.554   3.633   9.496  1.3598  0.5004  0.0508
  343MOL0     H45266   7.799   3.347   9.336 -1.3092  3.8936 -0.2459
  343MOL0     H45267   7.809   3.267   9.493 -0.2118 -0.5016 -0.5064
  343MOL0     H45268   7.985   3.441   9.573  0.2406 -0.2949 -0.6642
  343MOL0     H45269   8.035   3.322   9.451 -1.3885 -2.3740 -1.1112
  343MOL0     H45270   7.942   3.622   9.388 -2.2902 -2.2224  1.4265
  343MOL0     H45271   7.992   3.509   9.270 -3.1092 -0.6671  1.2872
  343MOL0     H45272   8.197   3.659   9.355  1.7119  0.0527  1.6618
  343MOL0     H45273   8.170   3.589   9.517 -1.9326  1.1735  0.6048
  343MOL0     H45274   8.413   3.325   9.291  0.3373  0.0651 -0.9434
  343MOL0     H45275   7.653   3.227   9.606  0.1538  0.3834  1.9647
  343MOL0     H45276   7.456   3.211   9.737 -1.0014  1.1960  2.8300
  344MOL0     O45277   8.476   1.391   7.326 -0.5694  0.8389 -0.1539
  344MOL0     C45278   8.519   1.481   7.248 -0.6300  0.2705 -0.3097
  344MOL0     O45279   8.455   1.538   7.145  0.5629  0.1147 -0.5063
  344MOL0     C45280   8.323   1.503   7.115  0.2080 -0.2372 -0.8490
  344MOL0     C45281   8.214   1.580   7.159  0.6489  0.2622 -0.1389
  344MOL0     C45282   8.084   1.544   7.139 -0.3912  0.0884  0.6929
  344MOL0     C45283   8.061   1.423   7.067  0.2500 -0.2087 -0.0478
  344MOL0     O45284   7.930   1.398   7.052  0.5100  0.8417 -0.0289
  344MOL0     C45285   7.891   1.261   7.037  0.5186 -0.2604 -0.2584
  344MOL0     C45286   7.851   1.229   6.891  0.2721 -0.3373  0.5118
  344MOL0     C45287   7.710   1.287   6.867  0.2314 -0.3955 -0.6864
  344MOL0     C45288   7.657   1.237   6.736  0.0217  0.1004  0.7513
  344MOL0     C45289   7.515   1.299   6.715 -0.2536 -0.0144 -0.3661
  344MOL0     C45290   7.451   1.274   6.578  0.6005  0.1031 -0.9141
  344MOL0     C45291   7.514   1.341   6.462 -0.1968  0.8012 -0.5046
  344MOL0     C45292   7.407   1.371   6.357 -1.5174 -0.3115  0.1632
  344MOL0     N45293   7.458   1.445   6.239 -0.4925 -0.1003 -0.3094
  344MOL0     C45294   7.549   1.397   6.144  0.1552 -0.4998 -1.0369
  344MOL0     C45295   7.550   1.486   6.045  0.2410 -0.5301  0.7615
  344MOL0     C45296   7.645   1.467   5.933 -0.3601 -0.6049 -0.7978
  344MOL0     C45297   7.598   1.357   5.825 -0.7742  0.1998 -0.0261
  344MOL0     C45298   7.472   1.403   5.750 -0.1950 -1.5810 -0.3753
  344MOL0     C45299   7.422   1.309   5.639 -0.4272  0.0075 -0.2582
  344MOL0     O45300   7.343   1.207   5.701  0.8902  0.6375  0.3861
  344MOL0     C45301   7.287   1.096   5.635 -0.5032  0.1296 -0.1873
  344MOL0     C45302   7.169   1.041   5.690  0.4244  0.5035  0.4648
  344MOL0     C45303   7.107   0.927   5.629  0.4094 -0.8173  0.5189
  344MOL0     C45304   7.164   0.870   5.514  0.6344 -0.9289  0.4458
  344MOL0     C45305   7.110   0.746   5.468 -0.4031  0.3733  0.0076
  344MOL0     O45306   6.970   0.718   5.480  0.4051  0.1370 -0.3566
  344MOL0     C45307   6.914   0.613   5.404 -0.2550  0.1101 -0.7138
  344MOL0     C45308   6.822   0.522   5.456  0.5376  0.0010 -0.4146
  344MOL0     C45309   6.759   0.426   5.382 -0.5219 -0.2895  1.1809
  344MOL0     C45310   6.796   0.410   5.247  1.0910 -0.4057  0.6974
  344MOL0     O45311   6.747   0.313   5.157  0.7472 -0.2185 -0.5076
  344MOL0     C45312   6.665   0.212   5.213 -0.3899  0.2027  0.2323
  344MOL0     C45313   6.524   0.260   5.206  0.3978  0.0785 -0.4574
  344MOL0     C45314   6.460   0.247   5.069 -0.6211 -0.4764 -0.1031
  344MOL0     C45315   6.314   0.284   5.071 -0.7013  0.3657  0.1788
  344MOL0     C45316   6.235   0.301   4.931 -0.9766  0.6372 -0.0878
  344MOL0     C45317   6.094   0.245   4.947  0.5748  0.6770 -0.3558
  344MOL0     C45318   6.022   0.224   4.809  0.9610  0.0275  0.4575
  344MOL0     C45319   5.882   0.178   4.815  0.1164 -0.1067 -0.7038
  344MOL0    Cl45320   5.862   0.027   4.904  0.3834  0.7018  0.0478
  344MOL0     C45321   6.894   0.498   5.190  0.0635  0.1421 -0.2718
  344MOL0     C45322   6.948   0.594   5.273 -0.0079 -0.0324  0.7408
  344MOL0     O45323   7.192   0.673   5.420 -0.0605  1.1201  1.0580
  344MOL0     C45324   7.281   0.934   5.461  0.5272  0.4965  0.0151
  344MOL0     C45325   7.330   1.047   5.515 -0.1077 -0.1087  0.4504
  344MOL0     N45326   7.447   1.577   6.064  0.6504  0.1859  0.1789
  344MOL0     N45327   7.395   1.550   6.179 -0.0438 -0.2507  0.0879
  344MOL0     C45328   8.161   1.342   7.016  0.0577  0.1754  0.0044
  344MOL0     C45329   8.292   1.385   7.041  0.2473 -0.6716  0.7596
  344MOL0     C45330   8.656   1.526   7.278  0.0585 -0.3020  0.1997
  344MOL0     C45331   8.727   1.603   7.190 -0.5402  0.4796  0.1969
  344MOL0     C45332   8.859   1.644   7.219  0.6366 -0.4660  0.0381
  344MOL0     C45333   8.914   1.617   7.344  0.6238 -0.5484  0.1148
  344MOL0     O45334   9.049   1.650   7.351  1.0942 -0.0821  0.2830
  344MOL0     C45335   9.114   1.639   7.480  0.2324 -0.6035 -0.6209
  344MOL0     C45336   9.261   1.680   7.476  0.7746  1.0155 -0.2344
  344MOL0     C45337   9.321   1.760   7.356  0.2060 -0.2524  0.6865
  344MOL0     C45338   9.292   1.907   7.382  0.4961  0.2789  0.4920
  344MOL0     C45339   9.374   1.974   7.490  0.6805 -0.6312 -0.3665
  344MOL0     C45340   9.431   2.016   7.578 -0.5806  0.4400 -0.2592
  344MOL0     C45341   8.842   1.548   7.443 -0.4258 -0.7691 -0.2825
  344MOL0     C45342   8.714   1.503   7.412 -0.0133  0.0806  0.6528
  344MOL0     H45343   8.225   1.660   7.232 -0.2448 -0.5501  0.9171
  344MOL0     H45344   8.006   1.600   7.189 -0.3221  1.0806 -0.2631
  344MOL0     H45345   7.796   1.243   7.088 -0.1103 -2.7483 -2.1382
  344MOL0     H45346   7.963   1.187   7.073 -0.1588  0.0081  1.7435
  344MOL0     H45347   7.850   1.120   6.879  2.2418 -0.3994  0.5465
  344MOL0     H45348   7.917   1.269   6.813 -0.1170 -0.0130  0.3456
  344MOL0     H45349   7.719   1.396   6.870  4.0146 -0.5871 -0.3051
  344MOL0     H45350   7.640   1.261   6.948 -0.1285  1.4712 -0.3507
  344MOL0     H45351   7.722   1.279   6.659  1.6660 -2.0104  0.8969
  344MOL0     H45352   7.665   1.128   6.726  1.3270  0.2372  0.1515
  344MOL0     H45353   7.513   1.403   6.747 -1.7998 -0.4595  1.0971
  344MOL0     H45354   7.443   1.249   6.780 -0.2155 -1.5150 -1.4278
  344MOL0     H45355   7.354   1.321   6.594  0.0423 -1.0190 -0.9418
  344MOL0     H45356   7.429   1.169   6.561  3.0068 -0.7057  0.4004
  344MOL0     H45357   7.556   1.438   6.492  2.9322 -1.0659  1.8810
  344MOL0     H45358   7.589   1.275   6.417  0.0289 -0.1887  1.2296
  344MOL0     H45359   7.333   1.442   6.394  2.0413  3.2179  1.1983
  344MOL0     H45360   7.373   1.275   6.318  2.2052 -1.0694 -1.7602
  344MOL0     H45361   7.614   1.310   6.149  3.2539  1.5988 -1.9666
  344MOL0     H45362   7.736   1.427   5.977 -0.0503 -0.6110 -1.4356
  344MOL0     H45363   7.663   1.561   5.879  3.3338  0.5323  1.9526
  344MOL0     H45364   7.584   1.268   5.886  2.0679  1.8786  3.4653
  344MOL0     H45365   7.676   1.356   5.748 -0.4923  2.3906  0.1609
  344MOL0     H45366   7.393   1.434   5.820  1.0962  2.8265 -0.5465
  344MOL0     H45367   7.504   1.489   5.690 -0.7619 -1.2685 -0.2402
  344MOL0     H45368   7.511   1.275   5.585  1.6058  2.6074  1.2358
  344MOL0     H45369   7.349   1.365   5.580 -2.3545  0.0533  2.0038
  344MOL0     H45370   7.135   1.073   5.788  2.1650 -0.7698  1.5473
  344MOL0     H45371   7.015   0.894   5.676 -0.8196  1.7912  0.1003
  344MOL0     H45372   6.795   0.512   5.561  0.9477 -1.6761 -0.4366
  344MOL0     H45373   6.683   0.360   5.421 -0.5286 -0.4688  0.8704
  344MOL0     H45374   6.701   0.179   5.311 -0.2109 -0.9642 -0.2114
  344MOL0     H45375   6.671   0.122   5.151  0.2241 -2.2164  3.5106
  344MOL0     H45376   6.530   0.366   5.229 -1.6570 -0.4822  3.5985
  344MOL0     H45377   6.468   0.233   5.296  3.4778  0.2483  1.6516
  344MOL0     H45378   6.458   0.144   5.034 -2.6485 -0.8409  0.9239
  344MOL0     H45379   6.507   0.312   4.995  0.0074  1.9378  2.2541
  344MOL0     H45380   6.274   0.198   5.125 -0.4219  0.0576 -0.0969
  344MOL0     H45381   6.292   0.375   5.128  3.1353  1.4084  0.2867
  344MOL0     H45382   6.291   0.249   4.853 -3.9275  2.6003 -3.8033
  344MOL0     H45383   6.237   0.406   4.902 -1.1785  0.6183 -0.1721
  344MOL0     H45384   6.046   0.315   5.015  1.9462  2.4279 -1.1186
  344MOL0     H45385   6.109   0.148   4.997  2.8211  0.2763 -1.6311
  344MOL0     H45386   6.017   0.326   4.770  0.3703 -0.5762 -1.1178
  344MOL0     H45387   6.077   0.156   4.744 -2.8590 -1.7422 -1.2300
  344MOL0     H45388   5.845   0.177   4.712  0.2281  0.7825 -0.7633
  344MOL0     H45389   5.825   0.254   4.870 -0.6879  0.3865 -2.1884
  344MOL0     H45390   6.921   0.489   5.085  1.8013 -1.6676  0.2605
  344MOL0     H45391   7.022   0.654   5.221 -0.6044  0.3839  0.3554
  344MOL0     H45392   7.319   0.888   5.371 -2.5297 -1.1410 -0.5616
  344MOL0     H45393   7.404   1.097   5.453 -1.2019 -2.4811 -3.0558
  344MOL0     H45394   8.146   1.251   6.959  3.1542 -1.3324  1.3722
  344MOL0     H45395   8.387   1.342   7.013  0.2117 -0.1612 -0.2199
  344MOL0     H45396   8.683   1.631   7.094 -4.9226 -3.1496  0.8170
  344MOL0     H45397   8.914   1.692   7.138 -2.9381  1.5697 -1.4192
  344MOL0     H45398   9.113   1.532   7.503  1.5864 -1.1989 -2.9348
  344MOL0     H45399   9.065   1.693   7.562  1.0410 -2.3775  1.1005
  344MOL0     H45400   9.290   1.733   7.567  1.4969 -3.0836  2.2180
  344MOL0     H45401   9.324   1.592   7.497  1.0861  1.9369  3.5377
  344MOL0     H45402   9.271   1.722   7.266 -2.3412 -2.1834  2.7286
  344MOL0     H45403   9.426   1.732   7.345 -0.3790 -2.2657 -0.4198
  344MOL0     H45404   9.305   1.960   7.287  3.0223 -0.7597  0.1851
  344MOL0     H45405   9.194   1.919   7.430  0.9997  1.1796  1.3020
  344MOL0     H45406   9.480   2.045   7.669  0.6532 -0.8862 -0.4562
  344MOL0     H45407   8.877   1.535   7.545 -2.7807 -2.6201  0.3874
  344MOL0     H45408   8.667   1.447   7.491 -0.5797 -0.8063 -0.2955
  345MOL0     O45409   4.969   9.888   7.048  0.1882  0.7427  0.6844
  345MOL0     C45410   5.030   9.868   7.152 -0.1246 -0.0301 -0.0238
  345MOL0     O45411   4.969   9.864   7.274 -0.3037  0.8745  0.7390
  345MOL0     C45412   4.838   9.834   7.287 -0.0262 -0.4643  0.9640
  345MOL0     C45413   4.770   9.747   7.202  0.5311 -0.0806  0.2289
  345MOL0     C45414   4.628   9.722   7.221  0.3615 -1.0911  0.7599
  345MOL0     C45415   4.561   9.781   7.325 -0.6676 -0.2546  0.4924
  345MOL0     O45416   4.424   9.762   7.335  0.6477 -0.3098  0.1293
  345MOL0     C45417   4.393   9.692   7.460  0.7315 -0.4438 -0.4319
  345MOL0     C45418   4.240   9.668   7.446  0.3848 -0.7555 -0.3890
  345MOL0     C45419   4.214   9.548   7.353 -0.1944  0.2314  0.2815
  345MOL0     C45420   4.081   9.489   7.364 -0.6102  0.1658 -0.0384
  345MOL0     C45421   4.069   9.394   7.251  0.2137  0.3793  0.9096
  345MOL0     C45422   4.036   9.435   7.106 -0.4935  0.2955  0.4206
  345MOL0     C45423   4.025   9.323   7.006  0.4883  0.3336 -0.8475
  345MOL0     C45424   4.151   9.245   6.975 -0.9696  0.3341  0.0981
  345MOL0     N45425   4.132   9.149   6.860  0.4963 -0.0372 -0.6157
  345MOL0     C45426   4.089   9.177   6.736 -0.0315 -0.1143 -0.0050
  345MOL0     C45427   4.080   9.058   6.666  0.6398 -0.1826 -0.3672
  345MOL0     C45428   4.015   9.024   6.536  0.0251 -0.6882  0.8215
  345MOL0     C45429   3.863   8.988   6.563 -0.7681 -1.1050 -0.2224
  345MOL0     C45430   3.816   8.898   6.450  0.1156 -0.0124 -0.1043
  345MOL0     C45431   3.673   8.852   6.476 -0.3645 -0.5334 -0.7523
  345MOL0     O45432   3.623   8.820   6.346  0.1621  0.0516  0.0913
  345MOL0     C45433   3.489   8.793   6.351 -0.4888 -0.0073  0.6940
  345MOL0     C45434   3.420   8.699   6.432 -0.5016 -0.2294  0.2223
  345MOL0     C45435   3.290   8.679   6.414 -0.0062  0.4192  0.4594
  345MOL0     C45436   3.214   8.774   6.336  0.4133  0.5463  0.2211
  345MOL0     C45437   3.070   8.780   6.337  0.8715  0.3434 -0.5783
  345MOL0     O45438   3.005   8.820   6.215 -0.2680 -0.1840  0.4303
  345MOL0     C45439   2.867   8.790   6.222  0.1913 -0.3901 -0.8233
  345MOL0     C45440   2.817   8.692   6.141 -0.0049  0.0733 -0.0579
  345MOL0     C45441   2.686   8.658   6.147 -0.2638 -0.5236  0.4192
  345MOL0     C45442   2.598   8.726   6.238  0.0234 -0.8754 -0.0940
  345MOL0     O45443   2.465   8.709   6.229  0.4105 -0.2978  0.2656
  345MOL0     C45444   2.374   8.776   6.317 -0.8209 -0.3569  0.2919
  345MOL0     C45445   2.234   8.744   6.271 -0.4899  0.7405  0.1919
  345MOL0     C45446   2.134   8.772   6.389 -0.3631  0.5235 -0.5784
  345MOL0     C45447   2.109   8.923   6.404 -0.1871  0.9377  0.3306
  345MOL0     C45448   2.038   8.971   6.529 -0.4594 -0.2947 -0.0689
  345MOL0     C45449   1.901   8.916   6.536 -0.4922 -0.1713 -0.5581
  345MOL0     C45450   1.885   8.839   6.668  0.1709 -0.5721  0.3271
  345MOL0     C45451   1.765   8.744   6.657 -0.1640 -0.1048 -0.0413
  345MOL0    Cl45452   1.742   8.640   6.806  0.3661 -0.0816 -0.0340
  345MOL0     C45453   2.656   8.827   6.321  0.1645  0.0702  0.8828
  345MOL0     C45454   2.793   8.858   6.314  0.0786  0.8991 -0.0657
  345MOL0     O45455   3.025   8.737   6.440  0.1758 -0.5320 -1.0551
  345MOL0     C45456   3.282   8.862   6.247 -0.5328 -0.0224  0.1714
  345MOL0     C45457   3.420   8.869   6.256  0.4632 -0.2940 -0.4463
  345MOL0     N45458   4.126   8.963   6.751 -0.2403  0.5021 -0.4195
  345MOL0     N45459   4.172   9.021   6.868  0.4302  0.0915  0.5971
  345MOL0     C45460   4.634   9.856   7.422  0.1121 -0.5110  0.9232
  345MOL0     C45461   4.771   9.891   7.395  0.1912  0.4724  0.1765
  345MOL0     C45462   5.177   9.865   7.143  0.2359  0.1266  0.3070
  345MOL0     C45463   5.249   9.891   7.017  0.9913 -0.0211 -0.2422
  345MOL0     C45464   5.385   9.867   7.017  0.0330 -0.6150  0.8432
  345MOL0     C45465   5.452   9.820   7.134  0.8064 -0.6754 -0.1199
  345MOL0     O45466   5.586   9.792   7.155 -0.0071 -0.2744  0.3297
  345MOL0     C45467   5.670   9.795   7.039 -0.2823 -0.0391  0.2541
  345MOL0     C45468   5.818   9.803   7.099  0.5580 -0.2602 -0.2859
  345MOL0     C45469   5.918   9.804   6.992 -0.2700  1.1191 -0.5744
  345MOL0     C45470   6.064   9.774   7.038  0.6587  0.2944 -0.1761
  345MOL0     C45471   6.126   9.901   7.097  0.9218  0.2171 -0.1604
  345MOL0     C45472   6.177  10.007   7.139 -0.0392 -0.5953 -0.3877
  345MOL0     C45473   5.380   9.804   7.253 -0.3169  1.0075 -0.1933
  345MOL0     C45474   5.243   9.825   7.255  0.3920 -0.7201  0.2103
  345MOL0     H45475   4.820   9.683   7.130 -1.3834  0.0401 -1.2660
  345MOL0     H45476   4.576   9.654   7.154  1.1612 -2.6268  1.6345
  345MOL0     H45477   4.408   9.753   7.549 -0.9541  1.5813 -1.4442
  345MOL0     H45478   4.455   9.603   7.475 -0.2347 -0.9110  0.9682
  345MOL0     H45479   4.192   9.759   7.409 -2.5549 -1.7037  0.8281
  345MOL0     H45480   4.200   9.649   7.546  0.4626 -0.3983 -0.2902
  345MOL0     H45481   4.288   9.473   7.383 -0.0840  0.2252 -0.0055
  345MOL0     H45482   4.254   9.580   7.257  1.7673 -0.2554  0.8867
  345MOL0     H45483   4.079   9.431   7.457  3.1367  0.2474  0.2417
  345MOL0     H45484   4.009   9.570   7.351  3.7541  4.2405 -1.5281
  345MOL0     H45485   3.990   9.324   7.279  1.0960 -1.5206 -1.0662
  345MOL0     H45486   4.155   9.328   7.237 -1.7898 -2.2384  0.0172
  345MOL0     H45487   4.113   9.499   7.064  0.0652  0.6830  1.9575
  345MOL0     H45488   3.943   9.494   7.109  1.2558  3.4294 -1.7295
  345MOL0     H45489   3.949   9.259   7.051 -0.1623  2.0128  0.5434
  345MOL0     H45490   3.985   9.364   6.913  0.1781 -1.0717 -1.3600
  345MOL0     H45491   4.186   9.186   7.061 -1.0094  0.5093  0.2335
  345MOL0     H45492   4.222   9.322   6.943 -0.1979 -1.1757 -2.1248
  345MOL0     H45493   4.053   9.273   6.700  1.8234  1.3744  1.9365
  345MOL0     H45494   4.067   8.946   6.480 -1.3590 -0.2414 -1.2036
  345MOL0     H45495   4.012   9.113   6.472 -0.7731 -0.4759  1.1343
  345MOL0     H45496   3.806   9.081   6.560  1.4419  0.3979  1.0201
  345MOL0     H45497   3.852   8.943   6.662 -0.5536 -0.2761  0.1857
  345MOL0     H45498   3.829   8.957   6.359  0.3854 -0.8095 -0.5950
  345MOL0     H45499   3.879   8.809   6.445  0.6811  0.4265 -1.1742
  345MOL0     H45500   3.625   8.922   6.545  3.0324  0.2395  1.0565
  345MOL0     H45501   3.679   8.767   6.544 -3.2209 -0.0777  0.2072
  345MOL0     H45502   3.474   8.629   6.494  1.1294 -0.1641 -1.0587
  345MOL0     H45503   3.246   8.594   6.466  4.2032 -3.4585 -1.5372
  345MOL0     H45504   2.883   8.647   6.068 -2.3951 -0.1127 -2.2590
  345MOL0     H45505   2.655   8.570   6.091  1.4867 -1.8189  1.4101
  345MOL0     H45506   2.386   8.884   6.304  0.6890 -0.7453 -2.2300
  345MOL0     H45507   2.383   8.733   6.417  0.3252  1.4693  1.0140
  345MOL0     H45508   2.235   8.634   6.268 -1.2635  0.6479  1.7751
  345MOL0     H45509   2.208   8.792   6.176 -1.0506  1.3391  0.6378
  345MOL0     H45510   2.164   8.735   6.487 -0.0945  3.9568  0.7686
  345MOL0     H45511   2.037   8.728   6.365  1.2526 -2.3746 -2.4521
  345MOL0     H45512   2.199   8.982   6.385 -0.1822  0.7721 -0.1872
  345MOL0     H45513   2.043   8.930   6.316 -1.3930 -3.8089  0.6021
  345MOL0     H45514   2.035   9.081   6.524  2.4659 -0.2041 -1.9860
  345MOL0     H45515   2.105   8.951   6.613  0.4384  1.2350 -0.3639
  345MOL0     H45516   1.869   8.860   6.448  0.8893  0.0440 -1.2162
  345MOL0     H45517   1.831   8.999   6.547 -1.0395 -0.8052  1.1246
  345MOL0     H45518   1.973   8.782   6.700 -0.9610 -0.1811  4.8070
  345MOL0     H45519   1.855   8.909   6.746 -1.2026  1.4728 -1.8897
  345MOL0     H45520   1.784   8.682   6.568  2.2452 -0.4768  0.6657
  345MOL0     H45521   1.672   8.797   6.635 -0.5703 -0.0673  1.6282
  345MOL0     H45522   2.597   8.891   6.386 -0.5888  0.1428  0.1559
  345MOL0     H45523   2.826   8.945   6.370  0.8919  1.9824 -2.1413
  345MOL0     H45524   3.231   8.943   6.194 -0.0895  2.0593  2.7222
  345MOL0     H45525   3.473   8.943   6.198  0.7362 -0.6535 -0.6581
  345MOL0     H45526   4.579   9.889   7.509  3.6986  2.1611  2.4682
  345MOL0     H45527   4.819   9.964   7.458  1.3491 -2.2517  2.6777
  345MOL0     H45528   5.204   9.948   6.936 -1.7474  0.0570  1.2154
  345MOL0     H45529   5.440   9.898   6.928 -0.0039  0.6530  1.2424
  345MOL0     H45530   5.648   9.881   6.975 -0.5458 -1.2407 -1.3092
  345MOL0     H45531   5.649   9.707   6.979 -0.4093 -0.1705  0.4922
  345MOL0     H45532   5.834   9.897   7.152 -1.4040 -0.0589  0.0162
  345MOL0     H45533   5.847   9.713   7.154  2.2976  0.0627 -0.5883
  345MOL0     H45534   5.911   9.900   6.940  1.0193  0.2918 -2.3791
  345MOL0     H45535   5.883   9.731   6.919 -0.4024  1.7236 -1.1331
  345MOL0     H45536   6.068   9.692   7.109 -0.8614  0.4996  0.1908
  345MOL0     H45537   6.122   9.736   6.954  1.0941 -3.2979  1.5847
  345MOL0     H45538   6.205  10.104   7.175 -1.2093  0.2617 -1.6747
  345MOL0     H45539   5.430   9.762   7.340  1.6611  3.2158 -0.1454
  345MOL0     H45540   5.188   9.813   7.348  2.0091 -1.1308  1.1639
  346MOL0     O45541   4.579   9.287   4.554 -0.1156 -0.7666 -0.0852
  346MOL0     C45542   4.672   9.250   4.479  0.1678  0.6603  0.2025
  346MOL0     O45543   4.661   9.161   4.368  0.4467  0.6899 -0.3466
  346MOL0     C45544   4.534   9.105   4.349  0.4775  0.0864  0.3785
  346MOL0     C45545   4.519   8.962   4.366  0.3599 -0.7250 -0.3443
  346MOL0     C45546   4.397   8.900   4.346 -0.1377  0.2057 -0.5184
  346MOL0     C45547   4.292   8.975   4.296  0.3620 -0.5351  0.9597
  346MOL0     O45548   4.174   8.900   4.269 -0.5208  0.7380 -0.2584
  346MOL0     C45549   4.060   8.967   4.218  0.1923 -0.3202  1.0612
  346MOL0     C45550   3.956   9.015   4.319 -0.7569  0.3149  0.1294
  346MOL0     C45551   3.841   8.916   4.341  0.3082  0.3967 -0.2633
  346MOL0     C45552   3.758   8.952   4.468  0.2966  0.4203  0.3995
  346MOL0     C45553   3.628   8.888   4.479 -0.4973  0.6367  0.1995
  346MOL0     C45554   3.533   8.939   4.370 -0.4573 -0.0586 -0.0607
  346MOL0     C45555   3.387   8.917   4.424  0.1798 -0.1070  0.0211
  346MOL0     C45556   3.347   8.777   4.411  0.7595  0.1396 -0.1610
  346MOL0     N45557   3.208   8.755   4.464  0.1749  0.5263 -0.2861
  346MOL0     C45558   3.119   8.677   4.406  0.7958 -0.3790  0.7856
  346MOL0     C45559   3.007   8.684   4.486 -0.7657 -0.0714  0.0416
  346MOL0     C45560   2.874   8.617   4.481  0.1614 -0.1821  0.1200
  346MOL0     C45561   2.830   8.532   4.358  0.2035  0.1266 -0.2536
  346MOL0     C45562   2.888   8.387   4.342 -0.4087 -0.6431  0.0290
  346MOL0     C45563   2.874   8.283   4.453 -0.5051 -1.1333 -0.0835
  346MOL0     O45564   2.732   8.256   4.468  0.4366  0.0301  0.4430
  346MOL0     C45565   2.657   8.257   4.577 -0.0277 -0.1025 -0.0806
  346MOL0     C45566   2.710   8.265   4.704 -0.3774 -0.1115 -0.0762
  346MOL0     C45567   2.623   8.269   4.811  0.0626 -1.1143  0.4958
  346MOL0     C45568   2.485   8.247   4.805 -0.5193  1.0523  0.3571
  346MOL0     C45569   2.402   8.261   4.919 -0.1820  0.8028 -0.5386
  346MOL0     O45570   2.471   8.311   5.030 -0.2782 -0.3453 -0.2238
  346MOL0     C45571   2.412   8.342   5.147  0.0314 -0.1366 -0.2255
  346MOL0     C45572   2.503   8.370   5.250 -0.4703  0.0242 -0.2709
  346MOL0     C45573   2.462   8.407   5.381 -0.1625  0.4924 -0.5287
  346MOL0     C45574   2.324   8.428   5.405  0.4212 -0.9908 -0.6280
  346MOL0     O45575   2.267   8.482   5.516 -0.7601  0.0069  0.2734
  346MOL0     C45576   2.341   8.498   5.638  0.5143  0.4908 -0.3066
  346MOL0     C45577   2.273   8.600   5.736  0.7517 -0.0718 -0.1223
  346MOL0     C45578   2.122   8.557   5.768 -0.2818  0.0085  0.3861
  346MOL0     C45579   2.052   8.672   5.838  0.0995 -0.0187 -0.1133
  346MOL0     C45580   1.916   8.626   5.912 -1.1276 -0.2948 -1.0351
  346MOL0     C45581   1.844   8.751   5.961  0.2217  0.1385 -0.8637
  346MOL0     C45582   1.753   8.702   6.075  0.4633 -0.5564  0.6312
  346MOL0     C45583   1.657   8.818   6.088 -0.1207  0.5834  0.4757
  346MOL0    Cl45584   1.555   8.799   6.233  0.1429  0.1795 -0.0882
  346MOL0     C45585   2.234   8.391   5.306 -0.6397 -0.7051 -0.1344
  346MOL0     C45586   2.275   8.347   5.182 -0.2495  0.2722  0.1998
  346MOL0     O45587   2.288   8.217   4.917  0.3078  0.1013  0.1175
  346MOL0     C45588   2.437   8.220   4.677 -0.3533 -0.3309 -0.2644
  346MOL0     C45589   2.521   8.229   4.562 -1.2382 -0.1133 -0.2928
  346MOL0     N45590   3.040   8.757   4.600  0.5477 -0.9604  0.1363
  346MOL0     N45591   3.160   8.797   4.590 -0.0786 -0.0079 -0.6850
  346MOL0     C45592   4.308   9.114   4.276  0.2158 -0.3245  0.2087
  346MOL0     C45593   4.426   9.181   4.296  0.4623 -0.0044 -1.2133
  346MOL0     C45594   4.802   9.301   4.511 -0.5640 -0.9163  0.7617
  346MOL0     C45595   4.918   9.291   4.433  0.2599  0.6908 -0.0587
  346MOL0     C45596   5.040   9.343   4.460 -0.5818  0.6382 -0.7911
  346MOL0     C45597   5.056   9.413   4.584 -0.0867 -0.1313 -0.5161
  346MOL0     O45598   5.185   9.458   4.602 -0.0244 -0.1358 -0.1372
  346MOL0     C45599   5.245   9.466   4.735 -0.6671 -0.0061 -0.0461
  346MOL0     C45600   5.397   9.478   4.704 -0.1204  0.1979  0.0407
  346MOL0     C45601   5.432   9.607   4.638  0.1972 -0.1347  0.2710
  346MOL0     C45602   5.579   9.639   4.632 -0.2808 -0.9101 -0.5414
  346MOL0     C45603   5.599   9.778   4.576 -0.3834  0.0249  0.7306
  346MOL0     C45604   5.612   9.887   4.531  0.3404 -0.7398 -0.0089
  346MOL0     C45605   4.950   9.431   4.665  0.1571  0.6360  0.3827
  346MOL0     C45606   4.824   9.381   4.628 -0.0395  0.7436  0.3140
  346MOL0     H45607   4.603   8.900   4.397  0.8591 -0.2613 -0.7330
  346MOL0     H45608   4.392   8.798   4.382 -0.6324  0.1647 -0.7020
  346MOL0     H45609   4.014   8.893   4.151 -0.5148  1.1895 -0.1790
  346MOL0     H45610   4.093   9.048   4.153 -0.5778 -0.6240  0.2708
  346MOL0     H45611   3.913   9.104   4.272 -1.8167 -1.3916 -2.3680
  346MOL0     H45612   4.005   9.048   4.410  0.5956  1.0126 -0.8093
  346MOL0     H45613   3.877   8.813   4.349  1.1260  0.4429 -2.5587
  346MOL0     H45614   3.780   8.917   4.250 -1.5447  1.1955  0.9361
  346MOL0     H45615   3.823   8.914   4.548  1.0347  1.4869  0.3330
  346MOL0     H45616   3.743   9.058   4.487  2.3986  0.4954  2.0970
  346MOL0     H45617   3.595   8.921   4.578 -2.6835  1.7877 -0.8255
  346MOL0     H45618   3.624   8.779   4.477  0.2820  0.6036  0.3776
  346MOL0     H45619   3.550   8.885   4.276 -1.0122 -2.5707  1.1927
  346MOL0     H45620   3.545   9.047   4.358  0.4401 -0.2037 -0.5043
  346MOL0     H45621   3.372   8.960   4.523  0.6795 -2.4209  1.1494
  346MOL0     H45622   3.318   8.979   4.365 -1.1258 -1.5318 -0.0080
  346MOL0     H45623   3.423   8.724   4.470  0.7746 -0.8532 -1.0462
  346MOL0     H45624   3.341   8.743   4.307  1.9605  1.5095 -0.7043
  346MOL0     H45625   3.138   8.623   4.314 -1.1713 -1.3162  0.8942
  346MOL0     H45626   2.803   8.695   4.509  0.7642  0.1202  0.8820
  346MOL0     H45627   2.876   8.551   4.569  0.2134  1.6405  1.5353
  346MOL0     H45628   2.841   8.598   4.272  1.3861 -0.2047 -0.3710
  346MOL0     H45629   2.723   8.516   4.372  0.3620 -1.0295 -0.2580
  346MOL0     H45630   2.854   8.355   4.243 -1.2106 -0.0185  0.0949
  346MOL0     H45631   2.996   8.400   4.325 -0.7457  1.8396 -0.5134
  346MOL0     H45632   2.916   8.331   4.543  1.4796  0.4090 -1.7321
  346MOL0     H45633   2.929   8.192   4.428  0.1276 -1.6918  2.9280
  346MOL0     H45634   2.811   8.299   4.727  0.3717 -2.1185 -0.2125
  346MOL0     H45635   2.670   8.274   4.909  2.0467 -1.7386 -0.3515
  346MOL0     H45636   2.610   8.363   5.232 -0.7098 -0.1033 -1.7868
  346MOL0     H45637   2.540   8.432   5.451 -0.5551  2.0459 -0.6001
  346MOL0     H45638   2.442   8.538   5.627 -0.4374  3.3380  0.5630
  346MOL0     H45639   2.346   8.393   5.669 -1.4499  0.6594  0.7011
  346MOL0     H45640   2.282   8.697   5.686  1.5801  0.5205  1.1342
  346MOL0     H45641   2.329   8.607   5.829  2.0111 -3.3119 -0.4986
  346MOL0     H45642   2.115   8.469   5.832 -1.5274  0.8401  1.4547
  346MOL0     H45643   2.066   8.541   5.676 -0.9354 -0.6692  0.8882
  346MOL0     H45644   2.120   8.726   5.904 -2.0511  3.0828 -0.1935
  346MOL0     H45645   2.017   8.755   5.776 -1.9416  0.3802  1.4309
  346MOL0     H45646   1.940   8.558   5.993  2.5819  0.6542 -1.1632
  346MOL0     H45647   1.841   8.580   5.847 -1.7212  0.5051 -0.9482
  346MOL0     H45648   1.789   8.803   5.883  0.9519  1.1217 -0.7381
  346MOL0     H45649   1.919   8.818   6.003 -0.9807  2.0738 -1.6883
  346MOL0     H45650   1.701   8.610   6.047  0.7814 -0.3121 -0.8694
  346MOL0     H45651   1.806   8.684   6.169 -4.0988 -2.2536  3.1815
  346MOL0     H45652   1.588   8.827   6.003 -1.1650  1.1246  1.3583
  346MOL0     H45653   1.721   8.904   6.109  0.0881  0.4219  0.5102
  346MOL0     H45654   2.129   8.401   5.330 -0.6676  2.4911 -1.1861
  346MOL0     H45655   2.197   8.310   5.117 -0.4425 -0.1078  0.6394
  346MOL0     H45656   2.333   8.191   4.664 -0.3586 -0.0972 -0.7678
  346MOL0     H45657   2.469   8.228   4.466 -0.7011 -0.0889 -0.5848
  346MOL0     H45658   4.237   9.190   4.244  0.9379  1.4031  2.4668
  346MOL0     H45659   4.437   9.289   4.292  0.5646  0.0851  0.6170
  346MOL0     H45660   4.919   9.230   4.343 -1.0163  0.5756 -0.0071
  346MOL0     H45661   5.118   9.345   4.385 -0.6505 -2.3041 -1.0678
  346MOL0     H45662   5.215   9.381   4.798 -1.3594 -0.4332 -0.9403
  346MOL0     H45663   5.213   9.564   4.772  1.7188  1.2611 -1.1393
  346MOL0     H45664   5.443   9.473   4.803 -0.1863 -2.4662 -0.0113
  346MOL0     H45665   5.415   9.390   4.643 -4.3041  0.3211 -1.7419
  346MOL0     H45666   5.369   9.685   4.683  0.2958 -0.1411  0.4186
  346MOL0     H45667   5.400   9.598   4.534 -0.0872 -2.9546  0.5339
  346MOL0     H45668   5.623   9.631   4.732 -0.2001  0.6201 -0.4313
  346MOL0     H45669   5.629   9.562   4.573 -0.3735 -1.0809 -0.3993
  346MOL0     H45670   5.644   9.982   4.493 -1.6415 -0.8286 -2.1908
  346MOL0     H45671   4.945   9.481   4.761 -0.8675 -0.0498  0.7155
  346MOL0     H45672   4.736   9.394   4.690 -0.0705  0.5849  0.3020
  347MOL0     O45673   2.040   9.712  10.063  0.1106 -0.1993  0.5333
  347MOL0     C45674   2.112   9.635  10.011  0.2737  0.2157  0.6343
  347MOL0     O45675   2.075   9.512   9.961 -0.7208  0.6505 -0.1951
  347MOL0     C45676   1.942   9.462   9.989 -0.8016 -0.4114  0.1070
  347MOL0     C45677   1.901   9.409  10.118 -0.7069 -0.1252  0.2885
  347MOL0     C45678   1.776   9.367  10.141  0.6649 -0.4761  0.4398
  347MOL0     C45679   1.683   9.369  10.032  0.0935  0.3036  0.0479
  347MOL0     O45680   1.554   9.330  10.062  0.0144 -0.2143 -0.4516
  347MOL0     C45681   1.461   9.291   9.957  0.0610  0.2312 -0.3584
  347MOL0     C45682   1.334   9.221  10.016 -0.4771 -0.3220  0.2537
  347MOL0     C45683   1.229   9.189   9.907 -0.4583 -0.5064  0.4066
  347MOL0     C45684   1.107   9.117   9.970  0.3010  1.1110 -0.0005
  347MOL0     C45685   1.026   9.035   9.865  0.0350 -1.0426 -1.1807
  347MOL0     C45686   0.901   8.959   9.918  0.0916  0.3424 -0.4252
  347MOL0     C45687   0.791   8.950   9.809 -1.1000  0.3642 -0.5557
  347MOL0     C45688   0.721   9.083   9.757  0.5114 -0.6279 -0.2335
  347MOL0     N45689   0.577   9.085   9.742 -0.3274  0.2714  0.7375
  347MOL0     C45690   0.506   9.148   9.644 -0.6485  0.1395  0.4602
  347MOL0     C45691   0.379   9.110   9.645  0.4539  0.9823 -1.0670
  347MOL0     C45692   0.274   9.145   9.537 -0.2304  0.9465 -0.6915
  347MOL0     C45693   0.131   9.104   9.576  0.7925  0.0172 -0.0420
  347MOL0     C45694   0.072   9.183   9.698 -0.9629 -0.3936 -0.3601
  347MOL0     C45695  -0.068   9.151   9.711  0.0752  0.4961 -0.8389
  347MOL0     O45696  -0.134   9.210   9.593  0.4769  0.8638  0.1121
  347MOL0     C45697  -0.275   9.209   9.592  0.4587  0.0743 -0.9782
  347MOL0     C45698  -0.339   9.295   9.506 -0.6032 -0.2281 -0.1831
  347MOL0     C45699  -0.480   9.308   9.505  0.6579 -0.5740  0.1737
  347MOL0     C45700  -0.563   9.227   9.589  0.1035 -0.7042  0.7313
  347MOL0     C45701  -0.705   9.259   9.614 -0.6462 -1.0723 -0.1339
  347MOL0     O45702  -0.766   9.325   9.518  0.9407  0.0076 -0.2056
  347MOL0     C45703  -0.895   9.369   9.538  0.2342 -1.1800 -0.0855
  347MOL0     C45704  -1.007   9.291   9.567  0.3588  0.1081  0.3628
  347MOL0     C45705  -1.138   9.341   9.558 -0.8501 -0.4617  0.1808
  347MOL0     C45706  -1.161   9.477   9.530  0.2395 -0.3752  0.0399
  347MOL0     O45707  -1.283   9.531   9.511  0.4984 -0.2878  0.4029
  347MOL0     C45708  -1.390   9.441   9.498  0.2180 -0.4926  0.4446
  347MOL0     C45709  -1.507   9.510   9.431 -0.0261  0.0387  0.1257
  347MOL0     C45710  -1.622   9.407   9.416  0.0136 -0.3261  0.2293
  347MOL0     C45711  -1.738   9.470   9.343  0.2007  0.0145 -0.4062
  347MOL0     C45712  -1.852   9.366   9.322  0.4921  0.4830 -0.4454
  347MOL0     C45713  -1.968   9.428   9.229 -0.2891 -0.3496 -0.0859
  347MOL0     C45714  -2.001   9.584   9.244 -0.0279  0.9829 -0.2856
  347MOL0     C45715  -2.149   9.607   9.215  0.9119 -0.6580  0.3371
  347MOL0    Cl45716  -2.194   9.581   9.052  0.0304 -0.0765  0.3856
  347MOL0     C45717  -1.053   9.557   9.511 -0.1920 -0.0845  0.2575
  347MOL0     C45718  -0.921   9.501   9.500  0.1786  0.0671 -1.0292
  347MOL0     O45719  -0.761   9.220   9.713  0.6863  0.4125  0.0731
  347MOL0     C45720  -0.496   9.137   9.669 -0.0612  0.0661 -0.9054
  347MOL0     C45721  -0.355   9.136   9.676 -0.1898  0.5531 -0.4274
  347MOL0     N45722   0.371   9.014   9.748  0.1347 -0.0415  0.1897
  347MOL0     N45723   0.483   8.995   9.798 -0.5533 -0.3426  0.1765
  347MOL0     C45724   1.722   9.405   9.897  0.1771  0.5500 -0.3415
  347MOL0     C45725   1.856   9.447   9.879 -0.1249  0.1643  0.1507
  347MOL0     C45726   2.264   9.659  10.006  0.0372  0.5722 -0.7994
  347MOL0     C45727   2.355   9.556   9.964 -0.0983 -1.5349  0.7225
  347MOL0     C45728   2.490   9.580   9.956 -0.7993  0.4948 -0.7378
  347MOL0     C45729   2.540   9.704   9.982  0.5086  0.0413 -0.2608
  347MOL0     O45730   2.678   9.736   9.971 -0.4167  0.3227 -0.7379
  347MOL0     C45731   2.752   9.750  10.098 -0.8270  0.7395 -0.1002
  347MOL0     C45732   2.852   9.630  10.110  0.3204 -0.6423  1.2044
  347MOL0     C45733   2.954   9.642  10.223 -0.2245  0.6096  0.2052
  347MOL0     C45734   3.051   9.519  10.221  0.8595 -0.0940  0.7314
  347MOL0     C45735   3.191   9.551  10.268  0.7994 -0.4431 -0.2199
  347MOL0     C45736   3.312   9.565  10.285  0.6580 -0.4321 -0.7226
  347MOL0     C45737   2.456   9.810  10.027  0.3308  0.5794  0.4377
  347MOL0     C45738   2.316   9.786  10.039 -0.5175  0.2846 -0.8239
  347MOL0     H45739   1.963   9.419  10.206 -1.5877 -0.8820  1.0200
  347MOL0     H45740   1.740   9.354  10.243  0.5755 -1.5626  0.2823
  347MOL0     H45741   1.496   9.215   9.886 -2.3894 -1.2736 -0.1031
  347MOL0     H45742   1.435   9.376   9.893  1.7817 -1.1039 -3.0215
  347MOL0     H45743   1.294   9.268  10.106 -1.5400 -0.8918  0.0978
  347MOL0     H45744   1.373   9.128  10.060  0.0327 -0.0048  0.4866
  347MOL0     H45745   1.273   9.135   9.824  0.8225  0.9189  0.1128
  347MOL0     H45746   1.194   9.284   9.865  0.0319 -0.2454  0.5872
  347MOL0     H45747   1.158   9.039  10.026 -0.8258 -0.3110 -0.8660
  347MOL0     H45748   1.044   9.174  10.039 -0.0887  1.2706 -0.4777
  347MOL0     H45749   1.104   8.964   9.834  0.9739  0.1861 -1.6966
  347MOL0     H45750   1.001   9.111   9.790 -0.4938  2.5632  2.3427
  347MOL0     H45751   0.847   9.004  10.001 -2.8292 -2.0873 -0.8554
  347MOL0     H45752   0.924   8.855   9.943  2.9487  0.7586 -0.9459
  347MOL0     H45753   0.835   8.904   9.720 -2.0419  2.6923 -2.3525
  347MOL0     H45754   0.720   8.878   9.850 -0.4990 -1.5796 -2.7153
  347MOL0     H45755   0.768   9.114   9.663  2.7247 -0.5696  0.8190
  347MOL0     H45756   0.746   9.162   9.829  0.2387  0.5558 -1.4114
  347MOL0     H45757   0.540   9.217   9.567  1.7757  0.6255  1.8530
  347MOL0     H45758   0.303   9.098   9.443  0.7966  0.8307 -0.3252
  347MOL0     H45759   0.272   9.254   9.522  3.1983  1.6143  2.3414
  347MOL0     H45760   0.122   8.999   9.603  1.1025 -0.1448 -0.5505
  347MOL0     H45761   0.073   9.130   9.487 -0.0978  0.3753  0.6240
  347MOL0     H45762   0.118   9.141   9.788  2.6179 -0.1505 -1.8795
  347MOL0     H45763   0.081   9.291   9.711 -0.4992 -0.8150  4.3542
  347MOL0     H45764  -0.109   9.184   9.807  0.1991 -2.3310  0.2947
  347MOL0     H45765  -0.086   9.043   9.707 -2.8783  0.9182 -1.5867
  347MOL0     H45766  -0.273   9.359   9.449  0.0475 -0.6652  0.0650
  347MOL0     H45767  -0.529   9.384   9.444  1.1909 -1.8177 -1.9219
  347MOL0     H45768  -0.990   9.185   9.583  2.5036  0.3747  0.0918
  347MOL0     H45769  -1.215   9.273   9.590  0.6153 -2.7198 -0.8022
  347MOL0     H45770  -1.426   9.404   9.594  0.4580  1.6537  1.4163
  347MOL0     H45771  -1.360   9.373   9.418 -0.3834 -0.4800  0.2040
  347MOL0     H45772  -1.480   9.556   9.336 -1.7926  1.9499  0.4795
  347MOL0     H45773  -1.534   9.595   9.494  3.0668 -0.0042  1.6930
  347MOL0     H45774  -1.646   9.367   9.515  0.8186 -2.2351 -0.3030
  347MOL0     H45775  -1.579   9.326   9.357  0.6942 -1.8136  2.6077
  347MOL0     H45776  -1.766   9.565   9.390 -0.7610  0.2592 -1.4373
  347MOL0     H45777  -1.702   9.498   9.244 -0.2692 -1.7680 -1.1113
  347MOL0     H45778  -1.903   9.332   9.413 -3.0955  0.8053 -2.1497
  347MOL0     H45779  -1.808   9.276   9.279  0.3088  0.9074 -1.5540
  347MOL0     H45780  -2.051   9.360   9.252  0.7554 -2.7498 -2.7811
  347MOL0     H45781  -1.932   9.413   9.126 -2.1091 -3.7056 -0.3772
  347MOL0     H45782  -1.993   9.623   9.346 -0.0032  1.7562 -0.5764
  347MOL0     H45783  -1.945   9.650   9.177  0.2121  0.8167 -0.2500
  347MOL0     H45784  -2.170   9.712   9.235 -1.7947 -0.8718 -0.8341
  347MOL0     H45785  -2.208   9.535   9.272  1.2587 -1.4442 -0.2676
  347MOL0     H45786  -1.065   9.661   9.481  0.0413 -1.1822 -4.3181
  347MOL0     H45787  -0.840   9.559   9.456 -1.0661  2.1810 -0.6492
  347MOL0     H45788  -0.544   9.078   9.746  3.6353  1.7697  3.0773
  347MOL0     H45789  -0.309   9.072   9.751  1.1279  3.1000  1.0549
  347MOL0     H45790   1.655   9.419   9.813 -0.1867 -3.8479 -1.0406
  347MOL0     H45791   1.891   9.463   9.778 -0.2219  0.4647  0.1637
  347MOL0     H45792   2.311   9.465   9.924 -0.5062  0.2094 -3.2988
  347MOL0     H45793   2.550   9.494   9.925 -2.6493 -0.7912 -0.8742
  347MOL0     H45794   2.682   9.750  10.183 -1.2104  1.8842 -0.3911
  347MOL0     H45795   2.801   9.848  10.092  0.1580  0.2262 -0.6386
  347MOL0     H45796   2.802   9.534  10.120  0.0844 -0.4690  1.7386
  347MOL0     H45797   2.907   9.627  10.016 -2.0370 -1.7625 -0.2250
  347MOL0     H45798   2.898   9.659  10.315  0.7648 -0.9362  1.1456
  347MOL0     H45799   3.018   9.730  10.210  1.0336 -0.0576  1.5544
  347MOL0     H45800   3.004   9.447  10.289  2.7571 -2.1690 -0.0175
  347MOL0     H45801   3.045   9.470  10.123  0.0011 -2.7591  2.0156
  347MOL0     H45802   3.418   9.570  10.298  0.5950 -0.1241 -0.2949
  347MOL0     H45803   2.484   9.911  10.057 -0.8303 -0.4100  5.8741
  347MOL0     H45804   2.254   9.866  10.076 -1.1609  0.2230 -1.7366
  348MOL0     O45805   8.008   8.343   0.923  0.5359 -0.0305 -0.3162
  348MOL0     C45806   8.007   8.237   0.984  0.1659 -0.5713 -0.2933
  348MOL0     O45807   7.900   8.166   1.006  0.0718  0.3413 -0.4516
  348MOL0     C45808   7.771   8.180   0.965 -1.0338 -0.4583  0.1024
  348MOL0     C45809   7.729   8.278   0.868  0.9749  0.0289  0.5272
  348MOL0     C45810   7.589   8.290   0.833  0.5307  0.0740 -0.2401
  348MOL0     C45811   7.490   8.216   0.904 -0.1243  0.1313  0.1512
  348MOL0     O45812   7.352   8.227   0.883  0.1527 -0.4913  0.0198
  348MOL0     C45813   7.272   8.111   0.914  0.8582 -0.0932 -0.1151
  348MOL0     C45814   7.128   8.171   0.912  0.2561 -0.1693  0.2554
  348MOL0     C45815   7.023   8.064   0.925  0.1293  0.0672 -0.3241
  348MOL0     C45816   6.881   8.112   0.922 -0.3649 -0.7322  0.7913
  348MOL0     C45817   6.834   8.178   0.790 -0.4026 -0.1737 -0.7697
  348MOL0     C45818   6.686   8.151   0.771  0.1316  0.0592  0.3575
  348MOL0     C45819   6.603   8.247   0.863 -0.0895 -0.2695 -0.0493
  348MOL0     C45820   6.457   8.232   0.822  0.2669 -0.1055 -0.3896
  348MOL0     N45821   6.399   8.103   0.849  0.0714  0.4845  0.0952
  348MOL0     C45822   6.394   7.992   0.768 -0.4095 -0.1340 -0.1787
  348MOL0     C45823   6.322   7.895   0.832  0.0980 -0.0469  0.4691
  348MOL0     C45824   6.288   7.750   0.792 -0.2099  0.1901 -0.1076
  348MOL0     C45825   6.137   7.720   0.785 -0.0501  0.3354  0.6660
  348MOL0     C45826   6.080   7.775   0.662  1.2354 -0.3515 -0.3192
  348MOL0     C45827   5.934   7.742   0.648  0.0985 -0.1163 -0.3711
  348MOL0     O45828   5.864   7.830   0.734  0.0570 -0.0795 -0.2748
  348MOL0     C45829   5.725   7.817   0.757 -0.6244 -0.1866 -0.2247
  348MOL0     C45830   5.637   7.767   0.659 -0.3121  0.1152 -1.0148
  348MOL0     C45831   5.500   7.743   0.695 -0.4958 -0.2015 -0.8393
  348MOL0     C45832   5.446   7.790   0.814 -0.3871  0.2877 -0.3562
  348MOL0     C45833   5.296   7.783   0.834  0.4888  0.2326 -0.4933
  348MOL0     O45834   5.225   7.723   0.736  0.1554  0.0146 -0.2513
  348MOL0     C45835   5.094   7.697   0.741 -0.1995 -0.3192 -0.2973
  348MOL0     C45836   5.047   7.571   0.728  0.6291  0.0759  0.4177
  348MOL0     C45837   4.909   7.540   0.726  0.4134  0.2533 -0.3137
  348MOL0     C45838   4.819   7.646   0.746 -0.1319 -0.2513  0.4965
  348MOL0     O45839   4.688   7.617   0.740 -0.1408  0.4994  0.1634
  348MOL0     C45840   4.594   7.706   0.796  0.6692 -0.5578 -1.1002
  348MOL0     C45841   4.451   7.651   0.790 -1.0066  0.4959 -0.0616
  348MOL0     C45842   4.401   7.621   0.646  0.2035  0.3927 -0.4282
  348MOL0     C45843   4.257   7.558   0.663 -0.1909  0.8185  0.4030
  348MOL0     C45844   4.198   7.525   0.527 -0.1329  0.5030 -0.7708
  348MOL0     C45845   4.049   7.496   0.543 -0.0614 -0.1854  0.9412
  348MOL0     C45846   3.975   7.475   0.412 -0.6287 -0.5256 -0.8069
  348MOL0     C45847   3.833   7.450   0.451  0.0331 -0.5657  0.8508
  348MOL0    Cl45848   3.735   7.595   0.496  0.0256 -0.2096  0.4141
  348MOL0     C45849   4.868   7.774   0.775 -0.3984  0.0630  1.0109
  348MOL0     C45850   5.011   7.802   0.774  0.9680 -0.2841  0.7940
  348MOL0     O45851   5.248   7.820   0.941  0.0087 -0.5590 -0.1826
  348MOL0     C45852   5.537   7.846   0.909  0.5832  0.0373 -0.1191
  348MOL0     C45853   5.675   7.854   0.882  0.2551 -0.3960 -0.1647
  348MOL0     N45854   6.292   7.952   0.950  0.3139  0.3301  0.8120
  348MOL0     N45855   6.333   8.075   0.962  0.5990  0.7286  0.2873
  348MOL0     C45856   7.536   8.121   0.999 -0.6949  0.0783  0.0965
  348MOL0     C45857   7.669   8.106   1.022 -0.2127 -0.3812 -0.6459
  348MOL0     C45858   8.138   8.195   1.038 -0.6430 -0.8476  0.6940
  348MOL0     C45859   8.256   8.278   1.027  1.1167 -0.5966 -0.7551
  348MOL0     C45860   8.382   8.234   1.077  1.0451 -0.2850 -1.3417
  348MOL0     C45861   8.392   8.116   1.154 -0.6136 -0.3627  0.3669
  348MOL0     O45862   8.506   8.055   1.198 -0.8011 -0.1479 -0.3285
  348MOL0     C45863   8.634   8.118   1.169 -1.0627  0.6932 -0.2722
  348MOL0     C45864   8.746   8.022   1.213  0.9368  0.1322 -0.7227
  348MOL0     C45865   8.890   8.078   1.194  0.3358  0.0554 -0.4180
  348MOL0     C45866   8.989   8.037   1.295  0.8642 -0.1238 -0.2619
  348MOL0     C45867   9.017   7.893   1.291 -0.5815  0.1414  0.6744
  348MOL0     C45868   9.046   7.774   1.291  0.3185  0.7056 -0.1995
  348MOL0     C45869   8.273   8.042   1.175 -0.0804 -0.9456 -0.0196
  348MOL0     C45870   8.154   8.079   1.117 -1.0899 -0.4233  0.3113
  348MOL0     H45871   7.798   8.349   0.823 -0.2396  0.6394 -0.4337
  348MOL0     H45872   7.555   8.362   0.759 -1.5847 -1.3545 -0.7554
  348MOL0     H45873   7.288   8.063   1.011  1.7838  3.8361  1.8846
  348MOL0     H45874   7.296   8.052   0.825  3.3200  2.8048 -1.5522
  348MOL0     H45875   7.122   8.229   0.819 -0.5180  1.7242  1.4093
  348MOL0     H45876   7.120   8.254   0.984  3.2910  1.1949 -0.8342
  348MOL0     H45877   7.031   8.006   1.017 -1.6279 -2.1055 -1.4508
  348MOL0     H45878   7.036   7.980   0.856 -0.9434 -0.3084 -0.0956
  348MOL0     H45879   6.819   8.024   0.942  0.2122 -2.3756 -3.4472
  348MOL0     H45880   6.869   8.187   1.000  0.5816 -0.6836  0.9015
  348MOL0     H45881   6.890   8.137   0.706 -2.0073  0.9071 -2.4592
  348MOL0     H45882   6.857   8.285   0.791 -1.1066  0.0953 -3.7406
  348MOL0     H45883   6.662   8.046   0.788  0.3443  0.0428  0.5592
  348MOL0     H45884   6.667   8.158   0.664  3.7465 -1.2768 -0.5218
  348MOL0     H45885   6.604   8.217   0.968  0.8626 -0.2155 -0.0332
  348MOL0     H45886   6.629   8.352   0.848 -1.5666  0.3338  1.3800
  348MOL0     H45887   6.453   8.237   0.712 -0.1781 -0.2911 -0.3857
  348MOL0     H45888   6.385   8.305   0.861  1.3383  0.2562  0.9610
  348MOL0     H45889   6.442   7.991   0.671 -1.0354  2.2671 -0.5805
  348MOL0     H45890   6.336   7.685   0.866  0.1927  1.0745  0.4231
  348MOL0     H45891   6.338   7.720   0.700 -3.0581 -0.5913 -1.5265
  348MOL0     H45892   6.081   7.763   0.869 -2.0089  1.6108 -1.1949
  348MOL0     H45893   6.129   7.612   0.797  1.1815  0.1266 -0.1833
  348MOL0     H45894   6.100   7.882   0.653  1.4531 -0.3238  0.4800
  348MOL0     H45895   6.134   7.734   0.575  0.5437 -0.9148 -0.4915
  348MOL0     H45896   5.909   7.641   0.682 -1.1866  0.7239  1.3650
  348MOL0     H45897   5.898   7.753   0.546 -0.2782  0.6373 -0.1655
  348MOL0     H45898   5.673   7.739   0.561  0.0252  1.1643 -1.2039
  348MOL0     H45899   5.432   7.709   0.617  0.9416 -0.8200 -1.8698
  348MOL0     H45900   5.118   7.490   0.712 -0.1070 -0.0309 -3.3482
  348MOL0     H45901   4.863   7.443   0.711  1.2044 -0.4674  1.5648
  348MOL0     H45902   4.605   7.805   0.750  1.0591  2.7014  5.0518
  348MOL0     H45903   4.632   7.727   0.896  0.0843  0.6486 -1.1115
  348MOL0     H45904   4.387   7.729   0.833 -1.0118 -0.1568  1.1599
  348MOL0     H45905   4.420   7.564   0.849 -1.4641  1.8106  1.7532
  348MOL0     H45906   4.461   7.541   0.602  2.8746  1.4119  1.1596
  348MOL0     H45907   4.398   7.714   0.587 -1.3552  1.3645  1.0838
  348MOL0     H45908   4.257   7.468   0.725 -0.7716 -2.4616 -3.9227
  348MOL0     H45909   4.189   7.629   0.712 -2.3843 -0.4397 -0.6734
  348MOL0     H45910   4.255   7.437   0.493  0.2089  0.3338  0.2086
  348MOL0     H45911   4.216   7.611   0.462  2.1669  1.4801  0.9789
  348MOL0     H45912   4.009   7.586   0.591  0.0807  0.3146  0.1524
  348MOL0     H45913   4.035   7.420   0.620  0.3629  0.0819  1.2848
  348MOL0     H45914   3.972   7.551   0.334 -2.9905 -0.5597 -0.8332
  348MOL0     H45915   4.020   7.380   0.380  2.4138  0.0961  1.2681
  348MOL0     H45916   3.827   7.375   0.530  0.3106  0.1983  1.6135
  348MOL0     H45917   3.785   7.415   0.359  1.2570  1.3002 -0.5588
  348MOL0     H45918   4.801   7.859   0.786 -3.0367 -0.4496 -5.7641
  348MOL0     H45919   5.052   7.900   0.797  3.2557 -0.6028 -1.4978
  348MOL0     H45920   5.489   7.878   1.001 -1.1711 -0.2529 -0.8917
  348MOL0     H45921   5.743   7.900   0.954  0.8069 -3.0059  1.0858
  348MOL0     H45922   7.478   8.058   1.065  2.5342 -0.1247  3.0071
  348MOL0     H45923   7.713   8.037   1.093  0.3057  0.0881 -0.5028
  348MOL0     H45924   8.265   8.368   0.966  0.2476 -0.0800 -0.1456
  348MOL0     H45925   8.459   8.310   1.077 -1.0919  2.0265 -0.8153
  348MOL0     H45926   8.641   8.211   1.225 -1.9433  0.8033 -0.3343
  348MOL0     H45927   8.654   8.152   1.068  0.0499  0.5849 -0.0967
  348MOL0     H45928   8.724   8.002   1.319 -3.0943  1.0220 -1.2438
  348MOL0     H45929   8.748   7.929   1.155 -2.7505 -1.8153  1.8445
  348MOL0     H45930   8.894   8.185   1.172  2.0579  0.3045  0.9173
  348MOL0     H45931   8.917   8.029   1.100 -0.7057  0.9268 -1.2093
  348MOL0     H45932   9.086   8.084   1.278  1.0143 -0.6143 -0.8097
  348MOL0     H45933   8.949   8.065   1.393  1.8140 -1.0678  0.4293
  348MOL0     H45934   9.091   7.677   1.291 -1.1398 -0.1233  3.5343
  348MOL0     H45935   8.279   7.957   1.242 -0.3533 -1.5219 -0.7107
  348MOL0     H45936   8.071   8.015   1.144 -0.3787 -1.4733  0.0686
  349MOL0     O45937   6.103   4.706   7.364  0.1454 -0.3009  0.6246
  349MOL0     C45938   6.080   4.665   7.478  0.4060 -0.3945 -0.1794
  349MOL0     O45939   6.138   4.722   7.589  0.2657  0.2113 -0.3733
  349MOL0     C45940   6.225   4.823   7.572 -1.4643 -0.2310 -0.3183
  349MOL0     C45941   6.192   4.939   7.624  0.1832  0.2032  0.0257
  349MOL0     C45942   6.282   5.044   7.637 -0.1236  0.5548 -0.0413
  349MOL0     C45943   6.407   5.032   7.579 -1.0008  0.5936  0.0011
  349MOL0     O45944   6.476   5.148   7.584  0.0922  0.8962  0.5130
  349MOL0     C45945   6.610   5.150   7.530  0.3271 -1.0764  0.0070
  349MOL0     C45946   6.618   5.166   7.378 -0.4937 -0.4280  0.4131
  349MOL0     C45947   6.536   5.285   7.326 -0.1072  0.0482 -0.2917
  349MOL0     C45948   6.577   5.344   7.190 -0.6461 -0.8405  0.0322
  349MOL0     C45949   6.530   5.248   7.077 -0.1646 -0.2214  0.4618
  349MOL0     C45950   6.585   5.292   6.943  0.4654  0.6869  0.5452
  349MOL0     C45951   6.733   5.281   6.940 -0.1819 -0.6064 -0.0096
  349MOL0     C45952   6.788   5.345   6.811  0.2678  0.7965  0.5621
  349MOL0     N45953   6.769   5.490   6.799  0.1656 -0.5551  0.3737
  349MOL0     C45954   6.779   5.580   6.895 -0.4283 -0.6226  0.5801
  349MOL0     C45955   6.767   5.704   6.833  0.6965 -0.2632 -0.0224
  349MOL0     C45956   6.753   5.831   6.906  0.6293  1.3017  0.3880
  349MOL0     C45957   6.881   5.897   6.900 -0.5682  0.0652 -0.3838
  349MOL0     C45958   6.901   5.968   6.762 -0.4282 -0.1219  0.0373
  349MOL0     C45959   7.029   6.056   6.752  0.0574 -0.2421  0.5620
  349MOL0     O45960   7.011   6.190   6.812  0.9389  0.5960  0.0854
  349MOL0     C45961   7.114   6.286   6.803 -0.1041  1.0008  0.1450
  349MOL0     C45962   7.079   6.410   6.858 -0.8811 -0.6443  0.0905
  349MOL0     C45963   7.170   6.520   6.850 -0.1210  0.2807 -0.4011
  349MOL0     C45964   7.293   6.505   6.792 -0.5162 -0.8357  0.9965
  349MOL0     C45965   7.394   6.618   6.779  0.1027 -0.3596  0.0080
  349MOL0     O45966   7.493   6.604   6.690 -0.4223  0.0976  0.1459
  349MOL0     C45967   7.588   6.705   6.684 -0.1006 -0.1895  0.2958
  349MOL0     C45968   7.569   6.812   6.589 -0.4878  0.0385 -0.6363
  349MOL0     C45969   7.657   6.921   6.585  0.1842 -0.4813 -0.5687
  349MOL0     C45970   7.767   6.930   6.674 -0.0179  0.3814 -0.6529
  349MOL0     O45971   7.856   7.032   6.681  0.0058 -0.5101 -0.1696
  349MOL0     C45972   7.837   7.150   6.606  0.4284 -0.0703  0.6508
  349MOL0     C45973   7.717   7.230   6.634  0.9550 -0.3721 -0.1984
  349MOL0     C45974   7.720   7.372   6.576 -0.1099  0.4298  0.1963
  349MOL0     C45975   7.577   7.444   6.593 -0.5084 -0.4379 -0.8453
  349MOL0     C45976   7.595   7.595   6.544 -0.2046  0.4173 -0.2689
  349MOL0     C45977   7.683   7.681   6.628  0.5670 -0.2403  0.4222
  349MOL0     C45978   7.654   7.821   6.581  0.4695 -0.7843  0.5262
  349MOL0     C45979   7.766   7.929   6.606  0.3245  0.8484  0.6889
  349MOL0    Cl45980   7.799   7.937   6.775 -0.0453 -0.1101  0.1925
  349MOL0     C45981   7.776   6.832   6.772 -0.0883  0.6037  0.1344
  349MOL0     C45982   7.692   6.721   6.772  0.4680 -0.0723 -0.3109
  349MOL0     O45983   7.382   6.709   6.865 -0.6260 -0.5355 -0.5178
  349MOL0     C45984   7.327   6.378   6.742  0.9663  0.2588 -0.6934
  349MOL0     C45985   7.237   6.269   6.744  0.5802  0.9858 -0.3088
  349MOL0     N45986   6.754   5.673   6.700 -1.0701  0.1069 -0.5777
  349MOL0     N45987   6.748   5.546   6.677 -0.7100  0.1555  0.4056
  349MOL0     C45988   6.444   4.906   7.510  0.3116 -0.3787  0.4084
  349MOL0     C45989   6.353   4.799   7.512  0.4816 -1.6009  0.4555
  349MOL0     C45990   5.978   4.559   7.506 -0.2952  0.1017 -0.0908
  349MOL0     C45991   5.987   4.478   7.626  0.1111 -0.6670 -0.7786
  349MOL0     C45992   5.892   4.382   7.654  0.4731  0.0349  0.3580
  349MOL0     C45993   5.793   4.346   7.563  0.4341 -0.5694 -1.2938
  349MOL0     O45994   5.729   4.232   7.596  0.0326 -0.6024 -0.4707
  349MOL0     C45995   5.644   4.178   7.494  0.2371  0.1961  0.5022
  349MOL0     C45996   5.580   4.052   7.547  0.0090 -0.2297 -1.0294
  349MOL0     C45997   5.663   3.955   7.619 -0.5469 -0.2007 -0.1124
  349MOL0     C45998   5.777   3.904   7.535 -0.0996 -0.2193  0.1509
  349MOL0     C45999   5.724   3.835   7.418  0.4104 -0.2529 -0.5854
  349MOL0     C46000   5.690   3.779   7.319 -0.1656 -0.2258  0.2407
  349MOL0     C46001   5.779   4.430   7.443 -1.1119  0.2416 -0.1910
  349MOL0     C46002   5.873   4.529   7.417 -0.2512 -0.4543  1.2423
  349MOL0     H46003   6.100   4.946   7.682  1.3002  1.1029  1.7927
  349MOL0     H46004   6.258   5.139   7.683 -0.3303  1.4274 -1.8774
  349MOL0     H46005   6.663   5.057   7.552 -0.4981 -2.2478 -2.5031
  349MOL0     H46006   6.667   5.232   7.575  0.4715  0.2322 -2.4026
  349MOL0     H46007   6.586   5.073   7.329 -1.1253 -0.0602  0.1272
  349MOL0     H46008   6.724   5.183   7.357 -0.7601  1.3789  0.3907
  349MOL0     H46009   6.541   5.370   7.393 -0.3238  0.5398 -0.8901
  349MOL0     H46010   6.431   5.255   7.330  0.8892 -3.8275  2.5595
  349MOL0     H46011   6.543   5.448   7.180 -0.3572 -0.7507 -0.0188
  349MOL0     H46012   6.686   5.351   7.189 -0.4948 -2.4516  1.2709
  349MOL0     H46013   6.421   5.250   7.071 -0.1684  0.6290  0.6811
  349MOL0     H46014   6.573   5.150   7.101 -1.9424 -1.4537 -1.0851
  349MOL0     H46015   6.542   5.388   6.914  0.3037  0.4436 -0.0225
  349MOL0     H46016   6.542   5.227   6.867  1.5135 -0.3792  0.8304
  349MOL0     H46017   6.782   5.329   7.026  0.6644 -1.5883  0.0793
  349MOL0     H46018   6.760   5.175   6.940 -0.0326 -0.6474  2.6881
  349MOL0     H46019   6.734   5.289   6.735  1.3907 -0.9882  1.0119
  349MOL0     H46020   6.894   5.315   6.806  0.0562  0.0958  0.1354
  349MOL0     H46021   6.787   5.567   7.003  0.6160 -4.0165  0.2052
  349MOL0     H46022   6.746   5.790   7.007  2.8848 -0.1838  0.0022
  349MOL0     H46023   6.665   5.880   6.862 -1.6511 -0.6292  2.4713
  349MOL0     H46024   6.967   5.835   6.926  1.0228  1.7608 -1.2905
  349MOL0     H46025   6.885   5.972   6.980  1.8282 -0.4266  0.0456
  349MOL0     H46026   6.902   5.893   6.682 -1.9245 -3.1978  2.6874
  349MOL0     H46027   6.816   6.033   6.740  0.2084  2.1101  3.4549
  349MOL0     H46028   7.052   6.070   6.646 -3.3650  1.6123 -0.0664
  349MOL0     H46029   7.118   6.014   6.801  0.3296  3.2116  3.3975
  349MOL0     H46030   6.981   6.434   6.897 -1.0042 -0.8390 -0.0949
  349MOL0     H46031   7.141   6.618   6.888 -0.4823  0.0097  0.0375
  349MOL0     H46032   7.499   6.806   6.506  0.5006  0.6843 -1.5496
  349MOL0     H46033   7.643   7.006   6.520 -1.3250 -1.8715 -2.1637
  349MOL0     H46034   7.835   7.128   6.499 -0.0647 -3.4239  1.2611
  349MOL0     H46035   7.924   7.215   6.621  0.2846  0.8572 -1.9886
  349MOL0     H46036   7.691   7.239   6.740 -1.7081  0.4044 -0.8394
  349MOL0     H46037   7.620   7.196   6.596  0.8765  0.4418 -0.7585
  349MOL0     H46038   7.743   7.364   6.469 -2.0219  1.1644 -0.3160
  349MOL0     H46039   7.798   7.434   6.621 -0.5222  3.6038 -3.0152
  349MOL0     H46040   7.506   7.395   6.525 -0.0512 -1.0677 -0.8809
  349MOL0     H46041   7.540   7.449   6.696 -1.0001 -0.6272 -1.0104
  349MOL0     H46042   7.491   7.628   6.538 -1.5137 -2.7804  1.9622
  349MOL0     H46043   7.630   7.592   6.440 -3.1573 -0.1373 -1.3440
  349MOL0     H46044   7.788   7.657   6.607  0.6994  1.5510 -1.1968
  349MOL0     H46045   7.674   7.668   6.736  2.1065  2.5870  1.0086
  349MOL0     H46046   7.640   7.824   6.472 -0.0445  0.7420  0.6067
  349MOL0     H46047   7.559   7.845   6.630 -0.0045 -1.4686 -0.0314
  349MOL0     H46048   7.732   8.023   6.561 -1.9638  0.3427  1.2498
  349MOL0     H46049   7.860   7.903   6.556  0.1793  3.0847 -0.9481
  349MOL0     H46050   7.867   6.842   6.830  0.0534 -0.3949  0.0896
  349MOL0     H46051   7.705   6.650   6.853  0.2241 -0.3134 -0.4818
  349MOL0     H46052   7.424   6.366   6.694  0.7763 -1.3095 -0.7456
  349MOL0     H46053   7.256   6.173   6.696 -0.7413  0.9462 -0.7899
  349MOL0     H46054   6.544   4.905   7.469  0.6845  4.3818  0.5676
  349MOL0     H46055   6.380   4.709   7.458 -1.8647 -1.1774 -1.5818
  349MOL0     H46056   6.074   4.493   7.690  1.7994  3.6791 -3.6154
  349MOL0     H46057   5.893   4.326   7.748 -1.3006 -2.6684 -1.0946
  349MOL0     H46058   5.706   4.159   7.406 -3.3838 -2.5376 -1.7435
  349MOL0     H46059   5.559   4.241   7.466  2.0232  1.5992 -2.1308
  349MOL0     H46060   5.505   4.086   7.619  0.3375 -0.8207 -0.3846
  349MOL0     H46061   5.529   3.997   7.468  0.2937  0.0163 -1.3886
  349MOL0     H46062   5.606   3.865   7.642 -0.5101  0.1024  1.2559
  349MOL0     H46063   5.698   4.007   7.709  0.6383 -0.2754 -0.5108
  349MOL0     H46064   5.837   3.983   7.491 -0.9007 -1.8599 -4.3795
  349MOL0     H46065   5.831   3.828   7.593  0.2787  0.5703  0.8499
  349MOL0     H46066   5.651   3.725   7.235  1.8796 -1.7231  0.1758
  349MOL0     H46067   5.702   4.398   7.374 -0.7288 -2.4796  0.4960
  349MOL0     H46068   5.870   4.571   7.317  3.5844 -0.0169  1.1809
  350MOL0     O46069   5.098   3.654   0.517  0.8055 -0.2673  0.3953
  350MOL0     C46070   5.154   3.738   0.447 -0.4929 -0.1617  0.2817
  350MOL0     O46071   5.106   3.853   0.411 -0.0560 -0.5365  0.7645
  350MOL0     C46072   4.969   3.876   0.448  0.5123 -0.0731  0.5281
  350MOL0     C46073   4.948   3.969   0.548 -0.1685  0.8430 -0.6012
  350MOL0     C46074   4.821   3.986   0.604 -0.5020 -0.2004 -0.3058
  350MOL0     C46075   4.717   3.905   0.562  0.5388  0.4869 -0.8505
  350MOL0     O46076   4.583   3.908   0.607 -0.2117 -0.5452  0.1321
  350MOL0     C46077   4.556   3.968   0.728  0.0779  0.5170  0.1409
  350MOL0     C46078   4.509   4.106   0.713 -0.0731  0.5320 -0.1044
  350MOL0     C46079   4.411   4.124   0.603  0.4917 -0.5100 -0.1609
  350MOL0     C46080   4.280   4.046   0.623 -0.0432  0.4178 -1.1517
  350MOL0     C46081   4.164   4.067   0.525 -0.4583  0.4283 -0.6007
  350MOL0     C46082   4.122   4.216   0.534 -0.7557 -0.2921  0.5270
  350MOL0     C46083   4.027   4.242   0.428 -0.6757 -1.3400 -0.1768
  350MOL0     C46084   3.946   4.374   0.446  0.5175  0.1435 -0.4138
  350MOL0     N46085   3.842   4.372   0.345  0.0897 -0.2089 -0.3958
  350MOL0     C46086   3.726   4.305   0.345 -0.6457 -0.0983  0.1726
  350MOL0     C46087   3.677   4.311   0.218 -0.6796 -0.1550 -0.4807
  350MOL0     C46088   3.561   4.244   0.162 -0.0951  0.2645  0.1492
  350MOL0     C46089   3.435   4.339   0.175  0.5051 -0.3658 -0.7365
  350MOL0     C46090   3.297   4.264   0.140  0.4305  0.8970  0.2270
  350MOL0     C46091   3.189   4.380   0.138 -0.7452  0.0703  0.2964
  350MOL0     O46092   3.186   4.449   0.009 -0.8437 -0.2318  0.0242
  350MOL0     C46093   3.090   4.540  -0.010 -0.3347 -0.1996 -0.3464
  350MOL0     C46094   3.120   4.679  -0.030 -0.5375  0.1904 -0.8722
  350MOL0     C46095   3.024   4.769  -0.059 -0.0032 -0.0389  0.0153
  350MOL0     C46096   2.894   4.728  -0.067 -0.1774 -0.5532  0.9521
  350MOL0     C46097   2.786   4.825  -0.106 -0.5593  0.3653  0.6015
  350MOL0     O46098   2.658   4.762  -0.106  0.4006 -0.0323 -0.1811
  350MOL0     C46099   2.550   4.829  -0.157  0.3952  0.6647  0.2105
  350MOL0     C46100   2.547   4.898  -0.276  0.7042  0.2209  0.3835
  350MOL0     C46101   2.433   4.970  -0.320 -0.0893 -0.3100 -0.1342
  350MOL0     C46102   2.322   4.966  -0.231  0.0535  0.8283  0.1092
  350MOL0     O46103   2.217   5.028  -0.287  0.5685 -0.4087  0.4304
  350MOL0     C46104   2.098   5.033  -0.208 -0.0976 -0.4550 -0.3530
  350MOL0     C46105   1.981   5.092  -0.289 -0.0499  0.0282 -0.2843
  350MOL0     C46106   2.009   5.237  -0.329 -0.0491 -0.6267  0.3995
  350MOL0     C46107   1.888   5.296  -0.405 -0.0801  0.3488  0.0387
  350MOL0     C46108   1.893   5.444  -0.406  0.4792 -0.3119 -0.5620
  350MOL0     C46109   1.790   5.509  -0.497 -0.4456  0.6984 -0.4525
  350MOL0     C46110   1.841   5.647  -0.536 -0.0261 -0.1761 -0.3238
  350MOL0     C46111   1.854   5.742  -0.414 -0.5836 -0.5864 -0.0701
  350MOL0    Cl46112   1.709   5.742  -0.304  0.0701 -0.0274 -0.1207
  350MOL0     C46113   2.333   4.912  -0.101 -0.7000  0.1567  0.7380
  350MOL0     C46114   2.444   4.840  -0.072  0.4337 -0.9023 -0.4181
  350MOL0     O46115   2.814   4.943  -0.126 -0.0523  0.1734 -0.1046
  350MOL0     C46116   2.863   4.593  -0.053 -0.2334 -0.3957  0.2681
  350MOL0     C46117   2.962   4.499  -0.019  0.2937 -0.6156 -0.4259
  350MOL0     N46118   3.763   4.393   0.143 -0.1918 -0.8374  0.0095
  350MOL0     N46119   3.868   4.420   0.220  0.1787  0.3277  0.5201
  350MOL0     C46120   4.736   3.826   0.454 -0.1316 -0.0426 -0.1066
  350MOL0     C46121   4.862   3.804   0.394  0.0549 -0.5521 -0.0291
  350MOL0     C46122   5.300   3.714   0.417 -0.2610 -0.5123  0.1423
  350MOL0     C46123   5.372   3.800   0.335 -0.7377  0.2510  0.1285
  350MOL0     C46124   5.513   3.788   0.324  0.4716 -1.6805  0.6148
  350MOL0     C46125   5.582   3.683   0.387 -0.2379  0.0076 -0.3124
  350MOL0     O46126   5.715   3.679   0.361  0.3546 -0.0309 -0.2999
  350MOL0     C46127   5.801   3.574   0.421  0.9601 -0.0972  0.0016
  350MOL0     C46128   5.930   3.577   0.343  0.4961  0.1333  0.0447
  350MOL0     C46129   6.004   3.706   0.351 -0.3829  0.6774 -0.2575
  350MOL0     C46130   6.121   3.700   0.271  0.0879 -0.3770  0.1622
  350MOL0     C46131   6.235   3.635   0.347 -0.1428 -0.3122  0.5003
  350MOL0     C46132   6.337   3.596   0.398  0.3779 -0.2667  0.0756
  350MOL0     C46133   5.506   3.583   0.450  0.6105  1.4951 -0.3112
  350MOL0     C46134   5.370   3.609   0.481 -0.3843 -0.0793 -0.8840
  350MOL0     H46135   5.028   4.026   0.594 -0.0739 -0.8281  1.4760
  350MOL0     H46136   4.795   4.055   0.683  3.9022  0.0346  1.2384
  350MOL0     H46137   4.644   3.959   0.793  0.0748 -0.6957  0.0066
  350MOL0     H46138   4.480   3.908   0.779  0.8177 -0.4574  0.1403
  350MOL0     H46139   4.589   4.178   0.695 -0.5561  1.4748  1.3332
  350MOL0     H46140   4.463   4.133   0.808 -2.3348 -1.7855 -0.4053
  350MOL0     H46141   4.464   4.107   0.508  1.1744 -0.1976  0.1518
  350MOL0     H46142   4.392   4.232   0.601 -2.0483 -0.9061 -0.8759
  350MOL0     H46143   4.307   3.941   0.635 -0.3992  0.5320  1.2522
  350MOL0     H46144   4.240   4.080   0.720 -1.0705  3.7306 -2.5763
  350MOL0     H46145   4.076   4.004   0.540 -2.0634  2.6786  0.0665
  350MOL0     H46146   4.199   4.041   0.425 -2.2085  0.3755 -1.2284
  350MOL0     H46147   4.207   4.285   0.519 -0.5805 -0.7308 -0.5984
  350MOL0     H46148   4.082   4.250   0.630  0.0449 -0.1494  0.8242
  350MOL0     H46149   4.064   4.240   0.325 -1.9306  0.4123 -0.7234
  350MOL0     H46150   3.948   4.166   0.432 -1.8403 -0.2914 -1.7900
  350MOL0     H46151   4.021   4.453   0.436  0.8259 -0.3918 -2.9586
  350MOL0     H46152   3.903   4.366   0.546  3.1793 -0.9470  0.7366
  350MOL0     H46153   3.696   4.238   0.425  3.5541 -1.3165  0.9260
  350MOL0     H46154   3.538   4.162   0.230  1.8084  0.4425  1.0661
  350MOL0     H46155   3.584   4.206   0.063 -0.0484 -0.3629  0.3996
  350MOL0     H46156   3.440   4.421   0.103 -2.3577  0.0583 -0.5818
  350MOL0     H46157   3.427   4.375   0.278  0.2716  0.3786 -1.0050
  350MOL0     H46158   3.313   4.223   0.040  2.8576  2.0408  0.0576
  350MOL0     H46159   3.260   4.187   0.206  1.2998  0.3758  0.1282
  350MOL0     H46160   3.198   4.443   0.227 -0.7620 -2.0492  1.8802
  350MOL0     H46161   3.087   4.343   0.149 -1.5511  1.9689 -0.3853
  350MOL0     H46162   3.222   4.712  -0.009 -0.2647 -1.8695  1.6251
  350MOL0     H46163   3.042   4.876  -0.072  0.0321  0.1948  1.7521
  350MOL0     H46164   2.646   4.892  -0.321  1.4648 -3.3044  2.1597
  350MOL0     H46165   2.453   5.033  -0.406  1.8275  2.7801  2.3677
  350MOL0     H46166   2.110   5.103  -0.124 -0.2399  0.1594 -0.8404
  350MOL0     H46167   2.072   4.933  -0.173  0.6559 -0.9841 -1.2664
  350MOL0     H46168   1.886   5.068  -0.240  1.2417  0.0118  2.4118
  350MOL0     H46169   1.978   5.046  -0.388  2.6734  2.5021 -1.6581
  350MOL0     H46170   2.104   5.237  -0.384 -0.4697 -1.9127 -0.3646
  350MOL0     H46171   2.026   5.295  -0.238 -4.3668  2.5658 -0.5014
  350MOL0     H46172   1.888   5.264  -0.510 -0.3008  0.3410  0.0421
  350MOL0     H46173   1.795   5.263  -0.358  0.8634 -0.7820  1.1704
  350MOL0     H46174   1.996   5.467  -0.435  1.7558 -3.9634  0.4990
  350MOL0     H46175   1.878   5.475  -0.303  1.0685 -1.7264 -0.0238
  350MOL0     H46176   1.687   5.509  -0.458 -0.2940 -1.9270  0.1561
  350MOL0     H46177   1.784   5.452  -0.590 -0.5331 -1.5667  0.8815
  350MOL0     H46178   1.938   5.651  -0.586  0.9441 -1.0284  1.3966
  350MOL0     H46179   1.773   5.694  -0.608 -0.4056  1.6752  1.1392
  350MOL0     H46180   1.891   5.843  -0.433 -0.4702  0.0153  2.8755
  350MOL0     H46181   1.931   5.704  -0.346 -2.3303  0.8162  2.8502
  350MOL0     H46182   2.245   4.927  -0.038  0.1035  0.8638  1.7183
  350MOL0     H46183   2.455   4.794   0.026 -1.9389 -0.6989 -0.0025
  350MOL0     H46184   2.761   4.556  -0.055  0.4200 -2.6233  2.5883
  350MOL0     H46185   2.931   4.395  -0.023  2.1454 -1.1725 -0.8362
  350MOL0     H46186   4.645   3.771   0.433  0.7088 -1.5560  0.0113
  350MOL0     H46187   4.871   3.717   0.330  0.6869 -2.1497  2.1117
  350MOL0     H46188   5.336   3.896   0.301  0.6866  0.5235 -0.7124
  350MOL0     H46189   5.556   3.865   0.261 -1.3529 -1.6554 -0.7115
  350MOL0     H46190   5.755   3.476   0.410 -0.0271  0.1427  1.6717
  350MOL0     H46191   5.807   3.596   0.528 -0.3537  0.4950 -0.0152
  350MOL0     H46192   5.995   3.493   0.373  0.3449 -0.5483 -1.4420
  350MOL0     H46193   5.889   3.556   0.244 -2.1229 -0.7650  1.2317
  350MOL0     H46194   6.030   3.727   0.456  2.6632  1.1932 -1.0089
  350MOL0     H46195   5.937   3.785   0.317 -0.5235  0.3397 -0.7636
  350MOL0     H46196   6.094   3.653   0.176 -0.1425  0.5831 -0.2560
  350MOL0     H46197   6.147   3.805   0.256 -2.6974  0.4423  0.4472
  350MOL0     H46198   6.420   3.558   0.454  2.9818  5.3395  0.7259
  350MOL0     H46199   5.534   3.493   0.502  3.9053  1.3959 -1.9449
  350MOL0     H46200   5.315   3.535   0.539  0.1427  0.8526  0.8530
  351MOL0     O46201   9.261   0.778   7.576 -0.7236 -0.5289  0.3548
  351MOL0     C46202   9.185   0.845   7.508 -0.1406  0.0521  0.1984
  351MOL0     O46203   9.192   0.986   7.495 -1.4123  0.0002 -0.3257
  351MOL0     C46204   9.275   1.057   7.577  0.4829 -0.1854  0.0656
  351MOL0     C46205   9.273   1.027   7.711 -0.6883 -0.1867 -0.4757
  351MOL0     C46206   9.377   1.081   7.793  0.6584 -0.1574  0.1882
  351MOL0     C46207   9.469   1.170   7.736 -0.2132  0.5942  0.2653
  351MOL0     O46208   9.548   1.233   7.833 -0.1882  0.0154  0.0182
  351MOL0     C46209   9.666   1.302   7.788 -0.2108 -0.3887  0.1695
  351MOL0     C46210   9.736   1.371   7.900 -0.0516 -0.0173  0.0288
  351MOL0     C46211   9.775   1.289   8.020 -0.0688  0.5321 -0.2399
  351MOL0     C46212   9.806   1.367   8.155 -0.8013  0.4519  0.0215
  351MOL0     C46213   9.674   1.410   8.221  0.5056  0.5375 -0.0964
  351MOL0     C46214   9.715   1.491   8.337 -0.0634 -0.0004  0.4371
  351MOL0     C46215   9.589   1.557   8.390  0.0872  0.2240  0.0749
  351MOL0     C46216   9.612   1.653   8.502 -0.2257  0.2879 -0.0103
  351MOL0     N46217   9.704   1.759   8.460 -0.2648 -0.7022  1.1431
  351MOL0     C46218   9.836   1.774   8.488  0.7757  0.7738 -0.3286
  351MOL0     C46219   9.887   1.885   8.429  0.0591 -0.3455 -0.9585
  351MOL0     C46220  10.034   1.925   8.427  0.6694  0.8682 -0.2869
  351MOL0     C46221  10.109   1.836   8.318  1.4847  0.1752  0.5394
  351MOL0     C46222  10.031   1.831   8.177 -0.2497 -1.0778 -0.1342
  351MOL0     C46223   9.992   1.964   8.110  0.2251 -0.0008  0.8973
  351MOL0     O46224   9.958   1.943   7.969  0.7673 -0.1481  0.2696
  351MOL0     C46225   9.840   1.881   7.934 -0.0861 -0.5477 -0.1971
  351MOL0     C46226   9.743   1.837   8.026  0.4949  0.4398 -0.1364
  351MOL0     C46227   9.634   1.753   7.984  0.5661 -0.5600  0.0483
  351MOL0     C46228   9.609   1.741   7.843 -0.0868 -0.4498  0.6698
  351MOL0     C46229   9.492   1.672   7.793  0.3809 -0.9169  0.3201
  351MOL0     O46230   9.376   1.680   7.862  0.0908  0.4354 -0.5815
  351MOL0     C46231   9.271   1.601   7.819 -0.2349  0.5125  0.0549
  351MOL0     C46232   9.286   1.466   7.773  0.6452 -1.0003 -0.0007
  351MOL0     C46233   9.175   1.397   7.740 -0.0751  0.0871  0.6189
  351MOL0     C46234   9.047   1.449   7.750  0.3928  0.6194 -0.2198
  351MOL0     O46235   8.932   1.372   7.727 -0.6620 -0.0737 -0.0834
  351MOL0     C46236   8.937   1.254   7.644  0.1413  0.4709  0.3147
  351MOL0     C46237   8.794   1.187   7.632 -1.0658  0.2871 -0.0228
  351MOL0     C46238   8.828   1.033   7.602 -1.0028 -0.0047  0.1235
  351MOL0     C46239   8.703   0.951   7.625 -0.5674 -0.4899 -0.3941
  351MOL0     C46240   8.704   0.831   7.537  0.5444  0.1347  0.2033
  351MOL0     C46241   8.593   0.728   7.564 -0.6096  0.5395 -0.8635
  351MOL0     C46242   8.607   0.609   7.465 -0.1131 -0.4965 -0.4064
  351MOL0     C46243   8.489   0.503   7.477 -0.9293  1.0601  0.1039
  351MOL0    Cl46244   8.519   0.336   7.417  0.0188  0.4184  0.1035
  351MOL0     C46245   9.031   1.584   7.801  0.3235  0.1890  1.0957
  351MOL0     C46246   9.149   1.659   7.824 -0.1055 -0.0353  0.5836
  351MOL0     O46247   9.509   1.614   7.690  0.3525  0.5265  0.8839
  351MOL0     C46248   9.695   1.804   7.752  0.5031 -0.1867  0.2165
  351MOL0     C46249   9.811   1.868   7.804  0.5150 -0.3353 -0.9220
  351MOL0     N46250   9.778   1.951   8.374  0.8069 -0.5252  0.4319
  351MOL0     N46251   9.673   1.875   8.392  0.5055  0.3883  0.5223
  351MOL0     C46252   9.475   1.187   7.603 -0.2085 -0.0394  0.0437
  351MOL0     C46253   9.376   1.136   7.526 -0.3074  0.1070 -0.0047
  351MOL0     C46254   9.084   0.777   7.424  0.4724  0.5645  0.0996
  351MOL0     C46255   9.046   0.640   7.441  0.6810 -0.3611 -0.7622
  351MOL0     C46256   8.944   0.587   7.365 -0.5460  0.4662  0.2531
  351MOL0     C46257   8.885   0.656   7.259 -0.5755 -0.3246  0.3733
  351MOL0     O46258   8.806   0.592   7.169  1.2645 -0.1638 -0.8064
  351MOL0     C46259   8.825   0.449   7.155  0.0093  0.7268  0.6837
  351MOL0     C46260   8.804   0.400   7.008 -0.0051 -0.5451  0.6390
  351MOL0     C46261   8.671   0.463   6.959 -0.6229  0.0194  0.1438
  351MOL0     C46262   8.561   0.384   7.015 -0.0503  0.4226  0.3582
  351MOL0     C46263   8.436   0.454   6.964  0.1781  0.1397  0.6056
  351MOL0     C46264   8.335   0.497   6.909 -0.2963 -0.5005  0.4611
  351MOL0     C46265   8.922   0.793   7.235 -0.3151  0.0414 -0.9404
  351MOL0     C46266   9.020   0.852   7.319  0.8369 -0.3137 -0.8098
  351MOL0     H46267   9.198   0.971   7.767 -1.0392  3.2020  2.8643
  351MOL0     H46268   9.379   1.065   7.901  0.5788  1.7276  0.5147
  351MOL0     H46269   9.642   1.376   7.712  0.2123  0.3136  0.7126
  351MOL0     H46270   9.730   1.228   7.739  1.1306 -0.0483  1.3357
  351MOL0     H46271   9.669   1.448   7.941 -0.2457 -1.2271  2.1534
  351MOL0     H46272   9.819   1.430   7.861 -0.2054  0.7837  0.8652
  351MOL0     H46273   9.856   1.237   7.967 -0.1600  1.0168 -0.8680
  351MOL0     H46274   9.699   1.213   8.040  1.1950 -0.2062  2.1881
  351MOL0     H46275   9.861   1.294   8.214  2.5620  1.0895 -2.0216
  351MOL0     H46276   9.873   1.451   8.130 -2.1688  1.1575 -1.4387
  351MOL0     H46277   9.612   1.322   8.243 -0.1966  0.3389 -2.5146
  351MOL0     H46278   9.620   1.466   8.144 -1.8655 -0.1605  0.9638
  351MOL0     H46279   9.782   1.568   8.296 -0.0051 -0.3903 -0.2271
  351MOL0     H46280   9.773   1.436   8.411  1.6676  2.0873  0.7466
  351MOL0     H46281   9.539   1.611   8.309 -1.4214 -1.2947 -0.0638
  351MOL0     H46282   9.517   1.486   8.431 -1.8245  2.5338  0.9847
  351MOL0     H46283   9.668   1.603   8.581 -0.3046  0.7863  0.3725
  351MOL0     H46284   9.515   1.689   8.539  0.3703 -1.1815  3.3481
  351MOL0     H46285   9.896   1.700   8.541 -2.5072 -1.1893  0.9110
  351MOL0     H46286  10.080   1.916   8.526  0.6604  0.4497 -0.3163
  351MOL0     H46287  10.034   2.029   8.396  2.0541  1.0571  0.2954
  351MOL0     H46288  10.111   1.733   8.356 -1.5863 -0.2382 -0.1593
  351MOL0     H46289  10.206   1.886   8.306  0.6507  1.6195 -0.5536
  351MOL0     H46290  10.090   1.778   8.101  0.2244  0.1609 -0.6638
  351MOL0     H46291   9.938   1.778   8.199  0.8131 -2.6443  0.7464
  351MOL0     H46292  10.078   2.031   8.110 -1.0434  1.7121 -0.5951
  351MOL0     H46293   9.910   2.013   8.163 -1.4813 -1.7492  0.0026
  351MOL0     H46294   9.761   1.844   8.132  1.5609  0.1080 -0.2875
  351MOL0     H46295   9.575   1.684   8.044  1.6526 -2.2680 -0.7647
  351MOL0     H46296   9.383   1.419   7.769  0.2652 -1.8155  0.1502
  351MOL0     H46297   9.187   1.297   7.700  1.8656 -0.3487  2.1142
  351MOL0     H46298   9.007   1.178   7.680  0.6219  1.0466  0.6196
  351MOL0     H46299   8.971   1.270   7.541  0.2909  2.2790  0.6070
  351MOL0     H46300   8.735   1.233   7.551  1.9735  0.6978 -2.1623
  351MOL0     H46301   8.746   1.194   7.730  1.7707 -1.6357  1.6508
  351MOL0     H46302   8.900   0.996   7.676  1.1417 -0.6268 -2.1629
  351MOL0     H46303   8.859   1.020   7.498 -4.0108 -0.5618 -0.8171
  351MOL0     H46304   8.692   0.920   7.730  1.3730  0.6632  0.1901
  351MOL0     H46305   8.612   1.009   7.607 -0.4961  0.0331  0.8458
  351MOL0     H46306   8.802   0.785   7.546  2.4738  3.1686 -2.7218
  351MOL0     H46307   8.691   0.871   7.436  0.2158  4.2749  1.6965
  351MOL0     H46308   8.491   0.766   7.569 -1.2347 -1.1368 -0.1447
  351MOL0     H46309   8.619   0.689   7.663  1.1069  0.0657 -1.4509
  351MOL0     H46310   8.612   0.648   7.363 -3.0956 -0.8168 -0.7699
  351MOL0     H46311   8.704   0.560   7.470 -0.7444 -1.7985 -0.5897
  351MOL0     H46312   8.402   0.544   7.426 -0.7845  2.3244  0.8266
  351MOL0     H46313   8.467   0.491   7.584 -2.6110 -0.6169 -0.3827
  351MOL0     H46314   8.932   1.623   7.823  0.1056 -0.0563  0.5667
  351MOL0     H46315   9.131   1.757   7.867 -1.1428 -0.1852  0.5185
  351MOL0     H46316   9.682   1.788   7.646 -1.5932 -2.3428  0.6935
  351MOL0     H46317   9.881   1.905   7.730 -0.4965 -1.7029 -2.6566
  351MOL0     H46318   9.544   1.259   7.559 -2.2652  1.6048 -0.6821
  351MOL0     H46319   9.374   1.144   7.418 -2.0794  1.8064  0.0981
  351MOL0     H46320   9.078   0.596   7.534 -1.9656  1.2947  1.0792
  351MOL0     H46321   8.919   0.486   7.397 -1.0266  0.4130 -0.2772
  351MOL0     H46322   8.759   0.409   7.232 -0.5637 -0.6290 -0.4568
  351MOL0     H46323   8.927   0.418   7.178 -0.3629 -1.4097 -0.2358
  351MOL0     H46324   8.895   0.430   6.954  0.2093 -0.9511  0.7703
  351MOL0     H46325   8.800   0.292   6.991  0.4430 -0.3487 -0.8278
  351MOL0     H46326   8.669   0.460   6.849  0.1482 -0.7384  0.1378
  351MOL0     H46327   8.668   0.567   6.991 -1.6055  0.0047  0.1189
  351MOL0     H46328   8.559   0.282   6.975 -0.2254  0.9318 -1.0124
  351MOL0     H46329   8.552   0.377   7.123  2.3703  0.6029  0.6248
  351MOL0     H46330   8.268   0.549   6.844 -0.3500 -0.5696  0.4607
  351MOL0     H46331   8.870   0.855   7.162 -1.4712  1.3974  0.9417
  351MOL0     H46332   9.027   0.959   7.308  0.4485  0.1732  2.5643
  352MOL0     O46333   1.317   7.467   6.583 -0.3881  0.7271  0.0960
  352MOL0     C46334   1.301   7.358   6.634  0.4579 -0.6636  0.7221
  352MOL0     O46335   1.178   7.290   6.628  0.4943 -0.5299  0.1250
  352MOL0     C46336   1.067   7.371   6.610 -0.5843 -0.2634  0.5838
  352MOL0     C46337   1.048   7.411   6.481 -0.0026 -0.2244  0.2216
  352MOL0     C46338   0.940   7.498   6.444 -0.1547  0.4553 -0.3303
  352MOL0     C46339   0.848   7.539   6.537  0.4392  0.1997 -0.0567
  352MOL0     O46340   0.760   7.634   6.498  0.7754  0.1552 -0.0913
  352MOL0     C46341   0.641   7.649   6.569 -0.2750 -0.7274 -0.0999
  352MOL0     C46342   0.545   7.701   6.464 -0.0407 -0.7445  0.2124
  352MOL0     C46343   0.405   7.706   6.535  0.3541 -0.0332 -0.1831
  352MOL0     C46344   0.294   7.768   6.449 -0.1125  0.6321 -0.1391
  352MOL0     C46345   0.162   7.719   6.508 -0.0389 -0.7114 -0.0158
  352MOL0     C46346   0.051   7.761   6.408  0.3297 -0.1875  0.6481
  352MOL0     C46347  -0.088   7.708   6.462 -0.4589  0.6887 -0.0715
  352MOL0     C46348  -0.221   7.785   6.419 -0.2767 -0.4704  0.6716
  352MOL0     N46349  -0.336   7.700   6.434  0.0355 -0.2943 -0.1034
  352MOL0     C46350  -0.375   7.602   6.349 -0.3050  0.1001  0.1585
  352MOL0     C46351  -0.497   7.564   6.388 -0.4577  0.1122  0.6534
  352MOL0     C46352  -0.587   7.477   6.309  0.0430 -0.5147  1.0561
  352MOL0     C46353  -0.569   7.333   6.358 -0.1358 -0.2730 -0.4642
  352MOL0     C46354  -0.639   7.223   6.279 -0.3830  0.2287  0.4369
  352MOL0     C46355  -0.787   7.216   6.314  0.1320 -0.2761  0.6126
  352MOL0     O46356  -0.861   7.120   6.253 -0.4752  0.4118 -0.1992
  352MOL0     C46357  -0.993   7.116   6.292  0.2286  0.2247 -0.6477
  352MOL0     C46358  -1.056   7.215   6.376 -0.3620  0.8264  0.4121
  352MOL0     C46359  -1.194   7.218   6.386 -0.0177  0.0693 -1.0754
  352MOL0     C46360  -1.277   7.102   6.354 -0.9112 -0.0463  0.3480
  352MOL0     C46361  -1.427   7.090   6.381  0.5182 -0.2655  0.7954
  352MOL0     O46362  -1.491   6.975   6.369 -0.0321 -0.3395  0.3179
  352MOL0     C46363  -1.628   6.952   6.372  0.0803 -0.9095  0.6978
  352MOL0     C46364  -1.732   7.050   6.398 -0.8080  0.0805 -0.5390
  352MOL0     C46365  -1.868   7.008   6.397  0.0163  0.2786 -0.1956
  352MOL0     C46366  -1.896   6.874   6.390  0.2428 -0.2916 -0.6047
  352MOL0     O46367  -2.021   6.822   6.395  0.1692 -0.0187  0.2636
  352MOL0     C46368  -2.127   6.892   6.328  0.1420  0.5108  0.4146
  352MOL0     C46369  -2.245   6.793   6.287  0.2528  0.1443 -0.0645
  352MOL0     C46370  -2.354   6.803   6.390 -0.0425 -0.1899  0.2848
  352MOL0     C46371  -2.471   6.729   6.328 -0.1299  0.3965 -0.2210
  352MOL0     C46372  -2.561   6.661   6.437  0.6365 -0.7523 -0.0427
  352MOL0     C46373  -2.643   6.547   6.381 -0.3349 -0.4590 -1.3775
  352MOL0     C46374  -2.742   6.584   6.279  0.4818 -0.4404 -0.1889
  352MOL0     C46375  -2.842   6.693   6.321 -1.2692 -0.9986  0.3849
  352MOL0    Cl46376  -2.966   6.703   6.192  0.2415  0.1834 -0.3546
  352MOL0     C46377  -1.798   6.782   6.369  0.0008  0.6908 -0.9022
  352MOL0     C46378  -1.667   6.817   6.356  0.6073 -0.4530  0.3129
  352MOL0     O46379  -1.477   7.198   6.411  0.0164 -0.5180  0.0917
  352MOL0     C46380  -1.207   6.997   6.280  0.0161  1.5975  0.5748
  352MOL0     C46381  -1.072   7.011   6.244  0.6362 -0.2150 -0.1967
  352MOL0     N46382  -0.519   7.635   6.503  0.2062 -0.2433 -0.2208
  352MOL0     N46383  -0.421   7.716   6.536 -0.4542 -0.1152 -0.0951
  352MOL0     C46384   0.864   7.492   6.670  0.1641 -0.0451  0.5078
  352MOL0     C46385   0.970   7.410   6.702  0.5127  0.5086 -0.4061
  352MOL0     C46386   1.423   7.294   6.691 -0.4204 -0.1212 -0.1428
  352MOL0     C46387   1.406   7.168   6.747 -0.3309 -0.4672  0.4029
  352MOL0     C46388   1.516   7.109   6.805  0.0852 -0.2565 -0.1650
  352MOL0     C46389   1.638   7.173   6.809 -0.0732  0.0818  0.9814
  352MOL0     O46390   1.746   7.095   6.860  0.0455 -0.5309  0.1928
  352MOL0     C46391   1.881   7.137   6.891 -0.6490  0.1421 -0.0238
  352MOL0     C46392   1.984   7.109   6.786 -0.3139  0.5065 -1.4106
  352MOL0     C46393   2.126   7.160   6.816  0.6256 -0.6425 -0.1722
  352MOL0     C46394   2.235   7.133   6.707  0.7191 -0.2839  0.1464
  352MOL0     C46395   2.248   6.993   6.691 -0.6971  0.0252  0.3664
  352MOL0     C46396   2.251   6.879   6.657  0.1978 -0.8932  0.7316
  352MOL0     C46397   1.655   7.297   6.746  0.5706  0.3101 -0.3922
  352MOL0     C46398   1.548   7.358   6.691  0.1291 -0.4635 -0.1588
  352MOL0     H46399   1.127   7.386   6.411  0.6458 -1.1898  1.2651
  352MOL0     H46400   0.935   7.523   6.339  2.2820 -1.8212 -1.1062
  352MOL0     H46401   0.657   7.714   6.656  3.0476 -3.4436  1.5701
  352MOL0     H46402   0.599   7.555   6.607  1.2532 -1.1578  0.6078
  352MOL0     H46403   0.538   7.634   6.378  0.9283  1.3428 -1.5724
  352MOL0     H46404   0.572   7.799   6.425 -4.8878  0.4149 -0.8081
  352MOL0     H46405   0.399   7.757   6.631  0.5392 -0.8726  0.2883
  352MOL0     H46406   0.381   7.601   6.558  3.3985 -0.8432 -0.2371
  352MOL0     H46407   0.301   7.877   6.435 -1.1981  0.6883 -0.3494
  352MOL0     H46408   0.301   7.722   6.350 -1.2017 -0.8639  0.4375
  352MOL0     H46409   0.154   7.768   6.605  2.4909 -1.4004  0.6044
  352MOL0     H46410   0.165   7.610   6.515  0.5564 -0.6336  1.0466
  352MOL0     H46411   0.071   7.721   6.308 -0.2008 -0.9443  0.8378
  352MOL0     H46412   0.043   7.869   6.403  0.8085 -0.0877  1.7447
  352MOL0     H46413  -0.099   7.605   6.428  0.1939  1.1163 -1.6301
  352MOL0     H46414  -0.086   7.705   6.572 -0.3132 -1.7925 -0.0909
  352MOL0     H46415  -0.222   7.831   6.320 -0.2464  2.6887  2.0189
  352MOL0     H46416  -0.228   7.872   6.485 -1.1015  0.5790 -0.7244
  352MOL0     H46417  -0.316   7.568   6.264 -0.8523 -0.0028 -0.1820
  352MOL0     H46418  -0.564   7.489   6.203  1.5471  0.8026  1.5004
  352MOL0     H46419  -0.694   7.498   6.321  0.3960  1.3701  1.2878
  352MOL0     H46420  -0.599   7.318   6.463 -4.4778 -0.9795 -1.6117
  352MOL0     H46421  -0.461   7.315   6.354  0.0079  0.2050  0.6383
  352MOL0     H46422  -0.624   7.243   6.173  0.3050 -2.9535 -0.1517
  352MOL0     H46423  -0.591   7.125   6.292 -1.0936 -0.2088 -0.2153
  352MOL0     H46424  -0.832   7.310   6.281 -1.9525 -1.2057  0.6625
  352MOL0     H46425  -0.795   7.213   6.423 -0.1809  2.6031  0.7283
  352MOL0     H46426  -1.002   7.297   6.423 -0.5246  1.2609 -0.1579
  352MOL0     H46427  -1.248   7.300   6.432 -0.2057 -0.5592 -0.1406
  352MOL0     H46428  -1.721   7.158   6.387  2.0287 -0.3914 -3.6882
  352MOL0     H46429  -1.946   7.083   6.407  0.9112  1.1270  0.6910
  352MOL0     H46430  -2.096   6.951   6.241  1.3624  0.6925  0.9505
  352MOL0     H46431  -2.160   6.966   6.401  0.3440  3.0484 -1.9119
  352MOL0     H46432  -2.206   6.691   6.282  0.6670  0.3164 -0.4015
  352MOL0     H46433  -2.284   6.821   6.188 -0.1030  0.2571  0.1056
  352MOL0     H46434  -2.379   6.908   6.411 -1.1502 -0.5201  0.7001
  352MOL0     H46435  -2.312   6.756   6.479  2.9987  1.4391 -0.1553
  352MOL0     H46436  -2.526   6.796   6.261  0.8870  1.6051  0.1050
  352MOL0     H46437  -2.429   6.641   6.279  1.7671 -1.2432  3.8472
  352MOL0     H46438  -2.629   6.725   6.494  0.9180 -2.3102  2.1411
  352MOL0     H46439  -2.510   6.624   6.526  0.0398 -1.7750 -0.1122
  352MOL0     H46440  -2.690   6.494   6.465 -1.0974 -2.4464 -2.9874
  352MOL0     H46441  -2.576   6.475   6.334  0.7010 -0.4457  0.0204
  352MOL0     H46442  -2.699   6.610   6.183 -1.5395 -0.7137 -1.2240
  352MOL0     H46443  -2.798   6.491   6.263 -0.6945 -0.0041  1.1657
  352MOL0     H46444  -2.794   6.790   6.339 -0.6500 -0.8210 -1.8930
  352MOL0     H46445  -2.885   6.650   6.412  0.0541 -2.2837  0.4439
  352MOL0     H46446  -1.837   6.682   6.351 -3.9482  1.7653  0.4902
  352MOL0     H46447  -1.587   6.745   6.341  0.9658  0.0436 -0.2235
  352MOL0     H46448  -1.255   6.902   6.257 -1.0919  2.3806 -0.5079
  352MOL0     H46449  -1.021   6.928   6.195  0.2417 -0.2480 -0.5524
  352MOL0     H46450   0.793   7.537   6.740 -1.3948 -2.1792  0.4016
  352MOL0     H46451   0.986   7.380   6.805  0.6737  2.4007  0.1659
  352MOL0     H46452   1.305   7.129   6.735 -0.3525 -0.5902  0.9679
  352MOL0     H46453   1.511   7.008   6.846  3.1824 -1.9692 -3.4542
  352MOL0     H46454   1.915   7.071   6.971  0.7487 -0.9008 -1.4168
  352MOL0     H46455   1.883   7.241   6.926  2.7882  0.5078 -0.9596
  352MOL0     H46456   1.992   7.000   6.783 -0.8708  0.4384 -0.6891
  352MOL0     H46457   1.954   7.144   6.686 -1.7061 -0.4276 -1.3446
  352MOL0     H46458   2.159   7.119   6.912 -1.3397 -2.1395 -0.0947
  352MOL0     H46459   2.124   7.270   6.824 -0.5314 -0.6627 -0.0868
  352MOL0     H46460   2.194   7.177   6.616 -1.1139  2.7142  2.2438
  352MOL0     H46461   2.328   7.187   6.724 -0.2930  1.4808  0.3800
  352MOL0     H46462   2.253   6.776   6.630 -5.1058 -0.8334 -1.0997
  352MOL0     H46463   1.755   7.340   6.742 -0.1532  2.0821 -0.1878
  352MOL0     H46464   1.557   7.459   6.652  2.9790 -0.3165  0.6421
  353MOL0     O46465   6.854   9.627   0.048 -0.1006  0.0409 -0.4994
  353MOL0     C46466   6.924   9.634  -0.058 -0.3305  1.1288 -0.6262
  353MOL0     O46467   6.881   9.696  -0.171 -0.2764  0.2996 -0.2263
  353MOL0     C46468   6.765   9.775  -0.161  0.6776 -0.1163  0.8974
  353MOL0     C46469   6.638   9.711  -0.151 -1.2633  1.0297  0.1977
  353MOL0     C46470   6.523   9.788  -0.146 -1.0691 -0.1284 -0.6484
  353MOL0     C46471   6.535   9.933  -0.151 -0.4402  0.2680  0.3522
  353MOL0     O46472   6.422  10.014  -0.135  0.0142 -0.6076  0.2355
  353MOL0     C46473   6.439  10.156  -0.148 -0.1744 -0.4456  0.4031
  353MOL0     C46474   6.311  10.229  -0.087  0.5870 -0.0765  0.3518
  353MOL0     C46475   6.202  10.223  -0.189 -0.3881  0.1226  1.1080
  353MOL0     C46476   6.070  10.248  -0.131  0.9438  0.3812  0.4133
  353MOL0     C46477   6.011  10.129  -0.044  0.5462 -0.0890  0.4953
  353MOL0     C46478   5.872  10.172   0.004  0.4779 -0.6912 -0.2788
  353MOL0     C46479   5.800  10.055   0.086 -0.7596  0.3794 -0.6891
  353MOL0     C46480   5.666  10.105   0.133 -1.3068 -0.3730  0.3858
  353MOL0     N46481   5.596  10.196   0.041 -0.3094 -0.1432  1.0995
  353MOL0     C46482   5.560  10.168  -0.088 -0.2576 -0.3552 -1.0220
  353MOL0     C46483   5.512  10.288  -0.135 -0.2941  0.4238  0.4485
  353MOL0     C46484   5.471  10.333  -0.274  0.1586  0.5014 -0.5191
  353MOL0     C46485   5.600  10.338  -0.376  0.0105 -0.1289 -0.7969
  353MOL0     C46486   5.658  10.474  -0.399  0.0627  1.1326  0.0059
  353MOL0     C46487   5.747  10.510  -0.277  0.1285 -0.2523  0.8361
  353MOL0     O46488   5.803  10.647  -0.279  0.4525  0.5029 -0.2748
  353MOL0     C46489   5.714  10.744  -0.261  0.0003  0.2056  0.2476
  353MOL0     C46490   5.598  10.742  -0.183 -0.3181 -0.7924 -0.6116
  353MOL0     C46491   5.510  10.851  -0.179 -0.2053  0.5951 -0.9822
  353MOL0     C46492   5.536  10.973  -0.246 -0.4311  0.7778 -0.0373
  353MOL0     C46493   5.438  11.084  -0.251  0.7019  0.7053 -0.0857
  353MOL0     O46494   5.463  11.196  -0.319  0.1717 -0.7302  0.2202
  353MOL0     C46495   5.373  11.300  -0.311 -0.2200 -0.7432  0.1926
  353MOL0     C46496   5.239  11.295  -0.334  0.3709 -0.3433  0.1843
  353MOL0     C46497   5.165  11.414  -0.323  0.2421 -0.2076 -0.3419
  353MOL0     C46498   5.223  11.540  -0.300  0.4491  0.0371  0.0121
  353MOL0     O46499   5.139  11.644  -0.311  0.3455 -0.5750  0.6158
  353MOL0     C46500   5.186  11.779  -0.285  0.7797  0.4561  0.8349
  353MOL0     C46501   5.071  11.867  -0.316  0.3442 -0.1415 -0.3174
  353MOL0     C46502   5.057  11.920  -0.460  0.5409  0.1786  0.3342
  353MOL0     C46503   5.056  11.814  -0.571 -0.0533  0.1867  0.5274
  353MOL0     C46504   5.027  11.871  -0.708  0.3883 -0.1954  0.3152
  353MOL0     C46505   5.109  11.989  -0.751 -0.1975  0.0168 -0.1956
  353MOL0     C46506   5.251  11.936  -0.773 -0.0580 -0.1072 -0.1439
  353MOL0     C46507   5.340  12.035  -0.843  1.1223  0.7339 -0.7265
  353MOL0    Cl46508   5.516  11.993  -0.826  0.0097 -0.3325  0.0824
  353MOL0     C46509   5.360  11.540  -0.277 -0.5268 -0.3842  0.3932
  353MOL0     C46510   5.431  11.422  -0.285  0.9837 -0.0494  0.0199
  353MOL0     O46511   5.336  11.069  -0.177 -0.2151 -0.0635 -0.2860
  353MOL0     C46512   5.654  10.975  -0.321 -0.3010  0.7578 -0.7395
  353MOL0     C46513   5.738  10.864  -0.325  0.1592  0.7486 -0.5382
  353MOL0     N46514   5.526  10.381  -0.037 -0.2283  0.3319  0.1599
  353MOL0     N46515   5.572  10.325   0.067  0.4134 -0.1018  0.6400
  353MOL0     C46516   6.661   9.991  -0.178  0.6396 -0.5309 -0.5588
  353MOL0     C46517   6.777   9.915  -0.180 -0.7324 -0.5031 -0.0873
  353MOL0     C46518   7.061   9.566  -0.066  0.3966 -0.2498 -0.1155
  353MOL0     C46519   7.146   9.596  -0.172 -0.5953  0.8957 -0.5935
  353MOL0     C46520   7.271   9.525  -0.175 -0.1676 -0.2203 -0.5741
  353MOL0     C46521   7.299   9.422  -0.082 -0.6464  0.8822 -0.1138
  353MOL0     O46522   7.421   9.358  -0.066  0.0299 -0.0870 -0.3116
  353MOL0     C46523   7.520   9.370  -0.168 -0.1181  0.5797  0.3568
  353MOL0     C46524   7.638   9.301  -0.107  0.0658  0.0093  0.4760
  353MOL0     C46525   7.711   9.393  -0.020 -0.2513 -0.2242 -0.2468
  353MOL0     C46526   7.833   9.328   0.040  0.5521 -0.1535  0.2402
  353MOL0     C46527   7.906   9.414   0.132  0.1272 -0.2510  0.2336
  353MOL0     C46528   7.975   9.474   0.213 -0.4683  0.2866 -0.3461
  353MOL0     C46529   7.209   9.391   0.024 -0.1564 -0.2288 -0.2044
  353MOL0     C46530   7.090   9.470   0.032  0.4936  0.5893 -0.2333
  353MOL0     H46531   6.629   9.603  -0.150 -0.3301  0.8920 -1.9875
  353MOL0     H46532   6.425   9.741  -0.137 -1.4450  0.4450 -1.5764
  353MOL0     H46533   6.446  10.177  -0.255 -4.5136 -1.1124 -0.1863
  353MOL0     H46534   6.520  10.201  -0.090 -0.4997  1.9536 -0.9165
  353MOL0     H46535   6.327  10.336  -0.070  3.6483 -0.1889 -0.9738
  353MOL0     H46536   6.277  10.177   0.002 -1.3083 -0.4168 -0.5123
  353MOL0     H46537   6.190  10.125  -0.236 -1.2125 -0.3618  2.2964
  353MOL0     H46538   6.230  10.301  -0.261 -1.6130  0.0442  0.5350
  353MOL0     H46539   6.071  10.338  -0.069 -0.0805 -0.6261  1.9542
  353MOL0     H46540   5.995  10.268  -0.207 -2.2276  1.6049  3.5879
  353MOL0     H46541   6.082  10.110   0.038  2.3378  1.5899 -0.5983
  353MOL0     H46542   6.006  10.041  -0.109 -0.9074  0.6790 -0.4780
  353MOL0     H46543   5.821  10.196  -0.090  1.7755  0.6730 -0.6734
  353MOL0     H46544   5.873  10.258   0.071 -1.0018 -1.4669  0.8066
  353MOL0     H46545   5.796   9.974   0.012  1.2918 -0.1424 -0.2939
  353MOL0     H46546   5.863  10.021   0.169  1.3646  1.3359 -1.8614
  353MOL0     H46547   5.669  10.149   0.234  0.8038 -1.6485  0.9382
  353MOL0     H46548   5.598  10.020   0.128 -0.1587 -1.2634 -3.4610
  353MOL0     H46549   5.553  10.082  -0.154  0.3671 -1.5193  0.3725
  353MOL0     H46550   5.434  10.435  -0.257 -0.2122  0.2597  0.1507
  353MOL0     H46551   5.395  10.260  -0.305 -0.1241  0.3320  0.5513
  353MOL0     H46552   5.555  10.287  -0.462 -0.8708 -2.0742  0.7313
  353MOL0     H46553   5.673  10.263  -0.345 -1.9638 -0.5830  3.4201
  353MOL0     H46554   5.733  10.477  -0.479  0.5089 -1.1741  0.2903
  353MOL0     H46555   5.581  10.545  -0.431 -0.6851  1.2702  1.9699
  353MOL0     H46556   5.840  10.453  -0.277  0.4265  0.2133 -0.3450
  353MOL0     H46557   5.702  10.490  -0.179  1.5352 -1.5299  1.2475
  353MOL0     H46558   5.573  10.648  -0.136 -0.9641 -1.8500 -2.8898
  353MOL0     H46559   5.419  10.836  -0.122  1.9705  2.4924  3.4662
  353MOL0     H46560   5.196  11.196  -0.346  1.9171 -0.7314 -3.4908
  353MOL0     H46561   5.057  11.403  -0.332  0.3716 -1.9388 -0.1217
  353MOL0     H46562   5.267  11.821  -0.346 -1.9676  2.5472 -1.6154
  353MOL0     H46563   5.211  11.774  -0.178  0.4195  0.0883  0.9030
  353MOL0     H46564   5.075  11.954  -0.250  1.0790 -1.6910  1.7948
  353MOL0     H46565   4.975  11.817  -0.299 -0.0824  1.1313  1.2029
  353MOL0     H46566   5.143  11.984  -0.482 -0.6876  1.0271 -2.3575
  353MOL0     H46567   4.970  11.985  -0.465  0.9730  0.9481  2.2183
  353MOL0     H46568   5.154  11.764  -0.581  0.4357  1.3141 -0.5729
  353MOL0     H46569   4.983  11.733  -0.561  2.2559 -1.8922  1.6947
  353MOL0     H46570   4.920  11.895  -0.703 -0.9500 -5.1188  0.2639
  353MOL0     H46571   5.027  11.799  -0.791 -2.5072 -0.2955  0.3006
  353MOL0     H46572   5.107  12.063  -0.671 -0.1664 -1.4802  1.2418
  353MOL0     H46573   5.072  12.041  -0.840  0.1425 -0.3711 -0.5640
  353MOL0     H46574   5.291  11.904  -0.677 -0.5865  0.3380  0.2305
  353MOL0     H46575   5.236  11.842  -0.828 -3.0142 -0.8856  1.7454
  353MOL0     H46576   5.305  12.134  -0.813  0.2703  0.8373 -1.9830
  353MOL0     H46577   5.323  12.038  -0.951  0.3694  0.8674 -0.6044
  353MOL0     H46578   5.416  11.628  -0.248 -0.3951  0.5744 -2.4451
  353MOL0     H46579   5.535  11.423  -0.253  1.1962  1.8883 -0.6191
  353MOL0     H46580   5.684  11.069  -0.367 -2.0445  0.7175 -2.0270
  353MOL0     H46581   5.823  10.881  -0.390  1.0528 -1.6954 -0.1150
  353MOL0     H46582   6.666  10.098  -0.198 -2.0146  0.6118  3.4785
  353MOL0     H46583   6.875   9.957  -0.202  0.3212 -1.8038  1.8032
  353MOL0     H46584   7.112   9.667  -0.247  0.8595  2.3050  0.0200
  353MOL0     H46585   7.336   9.548  -0.259 -0.2845 -0.0391 -0.6163
  353MOL0     H46586   7.544   9.475  -0.187  2.2017 -0.2719 -2.2733
  353MOL0     H46587   7.501   9.322  -0.265  1.1298  3.0383 -1.2101
  353MOL0     H46588   7.598   9.229  -0.035 -0.2984  1.1712  1.4706
  353MOL0     H46589   7.709   9.259  -0.178  0.4824  2.6362 -0.7873
  353MOL0     H46590   7.650   9.436   0.060 -2.2805 -0.6044 -1.5139
  353MOL0     H46591   7.755   9.472  -0.082  0.1070 -0.9038 -0.8726
  353MOL0     H46592   7.804   9.238   0.096  0.8567 -1.2404 -1.2784
  353MOL0     H46593   7.902   9.291  -0.037  1.9893  0.6395  1.0967
  353MOL0     H46594   8.046   9.509   0.286 -0.6630 -1.1662  0.5928
  353MOL0     H46595   7.246   9.320   0.097 -0.2010  2.5751  2.7929
  353MOL0     H46596   7.020   9.446   0.112  2.0259  2.9031  1.9905
  354MOL0     O46597   4.259   5.452   5.191  0.5234 -0.7235  0.0341
  354MOL0     C46598   4.172   5.463   5.281 -0.4435 -0.0532 -0.2298
  354MOL0     O46599   4.037   5.480   5.265  0.8929  0.5903 -0.5437
  354MOL0     C46600   3.987   5.494   5.140 -0.1506  0.2908  0.8407
  354MOL0     C46601   3.867   5.435   5.110 -0.1218  0.0051  0.2822
  354MOL0     C46602   3.806   5.439   4.985  0.0682  0.5698 -0.2005
  354MOL0     C46603   3.867   5.519   4.882  0.5880  0.1625 -0.6619
  354MOL0     O46604   3.824   5.531   4.755 -0.4803 -0.1979 -0.5532
  354MOL0     C46605   3.702   5.469   4.716  0.1909 -0.3152  0.0874
  354MOL0     C46606   3.582   5.534   4.788  0.4317  0.0660  0.0327
  354MOL0     C46607   3.538   5.667   4.724  0.1342  0.3851  0.3557
  354MOL0     C46608   3.620   5.790   4.758 -0.7023 -0.0043 -0.7072
  354MOL0     C46609   3.562   5.914   4.679  0.2644 -0.3718  0.6483
  354MOL0     C46610   3.420   5.959   4.727 -0.5789 -0.2126  0.1297
  354MOL0     C46611   3.352   6.065   4.642  0.4756 -0.4471 -0.1264
  354MOL0     C46612   3.246   6.145   4.724 -0.0848 -0.3508  0.0855
  354MOL0     N46613   3.183   6.242   4.631  0.3229 -0.5381 -0.3163
  354MOL0     C46614   3.216   6.369   4.606 -0.5211  0.6127  0.3592
  354MOL0     C46615   3.129   6.419   4.519  1.1282 -0.9911  0.5129
  354MOL0     C46616   3.140   6.554   4.454  0.9112 -0.0750 -0.5700
  354MOL0     C46617   3.021   6.646   4.506 -0.2302  0.4319  0.3706
  354MOL0     C46618   3.018   6.765   4.404 -0.3791  0.0668 -0.5930
  354MOL0     C46619   2.895   6.857   4.448  0.0013 -0.4122 -0.6860
  354MOL0     O46620   2.933   6.947   4.552  0.5650 -0.3557 -1.0063
  354MOL0     C46621   2.834   7.004   4.634  0.6503 -0.6464  0.0218
  354MOL0     C46622   2.870   7.049   4.760  0.3194 -0.0910  0.2516
  354MOL0     C46623   2.770   7.087   4.851  0.5769 -1.0975 -0.2198
  354MOL0     C46624   2.637   7.087   4.807  0.0621 -0.2017  0.0712
  354MOL0     C46625   2.527   7.117   4.895  0.1050 -0.3370  0.4973
  354MOL0     O46626   2.400   7.062   4.862  0.0965 -0.4137 -0.6474
  354MOL0     C46627   2.282   7.109   4.918  0.6339 -0.1623 -0.3014
  354MOL0     C46628   2.278   7.246   4.948 -0.2625 -0.5136  0.1764
  354MOL0     C46629   2.158   7.292   5.010  0.0099 -0.0484  0.6713
  354MOL0     C46630   2.053   7.206   5.044 -0.6034 -0.8990 -0.3303
  354MOL0     O46631   1.938   7.231   5.110  0.2919  0.9348 -0.8664
  354MOL0     C46632   1.966   7.319   5.213 -0.4002 -0.2366  0.0231
  354MOL0     C46633   1.840   7.326   5.303 -0.1404  0.1976  0.6725
  354MOL0     C46634   1.864   7.398   5.428  0.9037 -0.0372  0.3427
  354MOL0     C46635   1.736   7.382   5.524 -0.5689 -0.0564  0.1432
  354MOL0     C46636   1.758   7.448   5.659  0.6603  0.1630 -0.1732
  354MOL0     C46637   1.642   7.419   5.751 -0.2227  0.1123 -0.7963
  354MOL0     C46638   1.508   7.480   5.718  0.1286  0.5624  0.1441
  354MOL0     C46639   1.439   7.518   5.836  0.6101  0.1404  0.0015
  354MOL0    Cl46640   1.277   7.563   5.781 -0.1947  0.1504  0.0843
  354MOL0     C46641   2.058   7.076   4.994  0.3560 -0.0835  0.0592
  354MOL0     C46642   2.168   7.024   4.941 -1.2568 -0.7639  0.9087
  354MOL0     O46643   2.548   7.183   4.997  0.1311 -0.9798  0.2671
  354MOL0     C46644   2.610   7.058   4.676  0.2903 -0.0116  0.1008
  354MOL0     C46645   2.699   7.012   4.588  0.0288  0.3993 -0.3576
  354MOL0     N46646   3.051   6.310   4.482 -0.1652  0.2668  0.2248
  354MOL0     N46647   3.074   6.207   4.553 -0.0657  0.0605  0.0132
  354MOL0     C46648   3.975   5.597   4.924 -0.0205  0.8958  0.4587
  354MOL0     C46649   4.041   5.580   5.040 -0.0842 -0.5073 -1.0747
  354MOL0     C46650   4.218   5.438   5.413 -0.5807 -0.0195  0.6281
  354MOL0     C46651   4.142   5.451   5.529  0.3955 -0.3649  1.3050
  354MOL0     C46652   4.188   5.414   5.656  0.1304 -0.1324  0.3495
  354MOL0     C46653   4.315   5.364   5.679  0.4980 -0.4975 -1.1635
  354MOL0     O46654   4.376   5.314   5.797 -0.0104  0.5030 -0.1128
  354MOL0     C46655   4.292   5.324   5.913  0.3284 -0.3879  0.0727
  354MOL0     C46656   4.367   5.230   6.007 -0.6374  0.3059  0.8783
  354MOL0     C46657   4.380   5.088   5.951 -0.2288 -0.0270 -0.1898
  354MOL0     C46658   4.461   4.971   6.013 -0.6474  0.0651  0.0496
  354MOL0     C46659   4.605   5.007   5.992  0.3847  0.7049  0.1146
  354MOL0     C46660   4.727   5.026   5.972 -1.0157  0.5303  0.5365
  354MOL0     C46661   4.398   5.363   5.563  0.2009 -0.0519 -1.0081
  354MOL0     C46662   4.352   5.396   5.434 -0.8479 -0.2452 -0.0276
  354MOL0     H46663   3.823   5.380   5.193  0.6377 -1.3231 -0.1607
  354MOL0     H46664   3.712   5.386   4.987  0.1104  0.4392 -1.1844
  354MOL0     H46665   3.696   5.360   4.732 -0.5270 -0.3970 -0.6848
  354MOL0     H46666   3.685   5.489   4.610 -3.8544  1.0029  0.8318
  354MOL0     H46667   3.608   5.550   4.893  0.8787  0.2373 -0.1012
  354MOL0     H46668   3.504   5.458   4.782  0.1617  0.2361  1.1279
  354MOL0     H46669   3.433   5.670   4.753 -0.5733 -2.3842 -1.5494
  354MOL0     H46670   3.548   5.654   4.616  4.0198 -0.1916  0.6204
  354MOL0     H46671   3.620   5.805   4.866  1.1440 -4.6039  0.1499
  354MOL0     H46672   3.724   5.784   4.728 -0.4186  1.5581 -0.1415
  354MOL0     H46673   3.559   5.887   4.573  1.7382 -1.7429  0.9023
  354MOL0     H46674   3.615   6.009   4.685  1.5273 -0.5354 -3.8748
  354MOL0     H46675   3.439   5.997   4.827 -0.1922  0.8425 -0.3255
  354MOL0     H46676   3.359   5.869   4.729  0.0764 -0.6536  2.6409
  354MOL0     H46677   3.431   6.127   4.598  1.5669 -0.6354  1.4714
  354MOL0     H46678   3.293   6.019   4.563  0.7735  0.4969 -0.9192
  354MOL0     H46679   3.292   6.202   4.806 -2.5131  2.5287 -0.3685
  354MOL0     H46680   3.171   6.079   4.769 -1.0325  1.6879  1.6526
  354MOL0     H46681   3.294   6.411   4.669  2.5234 -1.5664 -1.6252
  354MOL0     H46682   3.142   6.534   4.347  0.0315 -0.9888 -0.4236
  354MOL0     H46683   3.241   6.594   4.472  1.7544 -0.4257 -3.8589
  354MOL0     H46684   3.020   6.675   4.612 -1.0206 -1.6940  1.0056
  354MOL0     H46685   2.933   6.582   4.495  0.7773 -0.6715 -1.8186
  354MOL0     H46686   3.115   6.815   4.407  0.9892 -2.3720 -1.4083
  354MOL0     H46687   3.003   6.733   4.300  1.3350 -0.0252 -0.8385
  354MOL0     H46688   2.806   6.800   4.471  0.9198 -2.2754 -1.5174
  354MOL0     H46689   2.870   6.923   4.364  0.4101  1.3072  0.4914
  354MOL0     H46690   2.976   7.053   4.782  0.0020  0.8413  1.8048
  354MOL0     H46691   2.783   7.118   4.954 -0.3672  0.3811 -0.5108
  354MOL0     H46692   2.362   7.308   4.919 -0.8778 -0.2053 -1.0137
  354MOL0     H46693   2.157   7.392   5.053  0.2872 -0.4492  1.6532
  354MOL0     H46694   1.978   7.422   5.178 -1.2129  0.1661  0.8664
  354MOL0     H46695   2.052   7.296   5.276  0.2850  6.2011  2.2511
  354MOL0     H46696   1.815   7.223   5.328 -4.9959  1.6084  2.7950
  354MOL0     H46697   1.758   7.366   5.243 -0.5235 -1.3594  0.1111
  354MOL0     H46698   1.877   7.503   5.400 -0.2783 -0.5730 -2.5093
  354MOL0     H46699   1.957   7.371   5.480  0.0124 -0.1149  1.9632
  354MOL0     H46700   1.653   7.423   5.466 -0.7130  0.6944  0.8591
  354MOL0     H46701   1.716   7.279   5.555 -2.6213  0.4439  0.5927
  354MOL0     H46702   1.780   7.552   5.633 -0.7309  0.0583 -1.9906
  354MOL0     H46703   1.841   7.404   5.715 -0.9769 -0.5175  1.8544
  354MOL0     H46704   1.672   7.471   5.843  0.3352 -0.4398 -0.6609
  354MOL0     H46705   1.639   7.312   5.770 -0.0545 -0.7443 -4.7080
  354MOL0     H46706   1.512   7.557   5.642 -0.4425  0.8815  0.4298
  354MOL0     H46707   1.444   7.404   5.673  1.1444  0.1760 -0.6911
  354MOL0     H46708   1.485   7.607   5.879  0.6421 -1.1703  2.8945
  354MOL0     H46709   1.438   7.444   5.917 -0.7143  1.3299  1.1313
  354MOL0     H46710   1.974   7.012   5.016 -0.9540  1.1583 -1.1384
  354MOL0     H46711   2.188   6.920   4.920  3.0841  0.1606 -0.7457
  354MOL0     H46712   2.507   7.069   4.643  0.1647 -1.6307 -0.1309
  354MOL0     H46713   2.667   6.981   4.489  4.0988 -1.0188 -1.4189
  354MOL0     H46714   4.015   5.668   4.853 -1.7363  0.2164 -1.2586
  354MOL0     H46715   4.122   5.643   5.077 -2.9565  1.2399  2.9405
  354MOL0     H46716   4.050   5.507   5.516  1.9501  1.7771 -1.8518
  354MOL0     H46717   4.121   5.442   5.737  0.1171  1.6333 -0.2145
  354MOL0     H46718   4.192   5.283   5.899 -0.7552  2.3213 -0.6458
  354MOL0     H46719   4.282   5.422   5.960  3.0763 -0.3567  0.7990
  354MOL0     H46720   4.462   5.281   6.025 -0.7924  1.2153 -0.6343
  354MOL0     H46721   4.317   5.233   6.104 -0.2019  2.0141  1.0774
  354MOL0     H46722   4.438   5.100   5.858  1.0137 -0.8531  0.4553
  354MOL0     H46723   4.281   5.046   5.932  0.2708 -1.0365 -0.6220
  354MOL0     H46724   4.440   4.974   6.120 -2.2426  0.4893 -0.2507
  354MOL0     H46725   4.428   4.879   5.965  0.0242  1.1294 -2.6934
  354MOL0     H46726   4.828   5.056   5.953 -1.2676  1.0228 -0.0507
  354MOL0     H46727   4.501   5.332   5.571  0.8162  0.6234 -4.7647
  354MOL0     H46728   4.428   5.387   5.358 -0.7287  0.3364  0.0197
  355MOL0     O46729  10.854   5.742  11.151 -0.0865  0.0688  0.3414
  355MOL0     C46730  10.872   5.620  11.117 -0.0669 -0.3258  0.3830
  355MOL0     O46731  10.766   5.521  11.115  0.1501 -0.3562  0.3511
  355MOL0     C46732  10.640   5.541  11.168 -0.7537  0.6268  0.6553
  355MOL0     C46733  10.532   5.459  11.117 -0.7223  0.1770  0.3654
  355MOL0     C46734  10.403   5.491  11.156 -0.8513 -0.0666 -0.2816
  355MOL0     C46735  10.383   5.585  11.252  0.6799  0.3789 -1.4686
  355MOL0     O46736  10.252   5.605  11.292 -0.1226 -0.3339  0.0885
  355MOL0     C46737  10.215   5.726  11.357 -0.7884  0.2403 -0.4861
  355MOL0     C46738  10.061   5.741  11.367  0.5668 -0.1621 -0.4832
  355MOL0     C46739  10.002   5.614  11.448 -0.5122 -0.6237 -0.1394
  355MOL0     C46740   9.845   5.611  11.436 -1.3706  1.1697  0.4003
  355MOL0     C46741   9.768   5.497  11.500 -0.2070 -0.8504 -0.8370
  355MOL0     C46742   9.625   5.482  11.454 -0.1618 -0.2094  0.1677
  355MOL0     C46743   9.530   5.412  11.546  0.9573  0.9588 -0.7385
  355MOL0     C46744   9.407   5.377  11.464 -0.0430 -1.0099  0.0622
  355MOL0     N46745   9.299   5.320  11.549 -0.0341  0.8366 -0.1718
  355MOL0     C46746   9.309   5.241  11.663 -0.7418 -0.5356 -0.1423
  355MOL0     C46747   9.185   5.232  11.713  0.1792  0.2492 -0.5907
  355MOL0     C46748   9.149   5.148  11.833 -0.8799 -0.0820 -0.0669
  355MOL0     C46749   9.177   5.007  11.801 -0.0954 -0.2142  0.3123
  355MOL0     C46750   9.111   4.958  11.680  0.2281 -0.3600  0.5919
  355MOL0     C46751   9.109   4.803  11.667 -0.4798 -0.3419 -0.2140
  355MOL0     O46752   9.024   4.739  11.766 -0.3339 -0.3291  0.7805
  355MOL0     C46753   8.888   4.745  11.755 -0.0159  0.4794 -0.6383
  355MOL0     C46754   8.810   4.770  11.639  0.0648  0.8760  0.3256
  355MOL0     C46755   8.670   4.770  11.646  0.6448  0.6970  0.1906
  355MOL0     C46756   8.606   4.747  11.766  0.3257  0.5101  0.2827
  355MOL0     C46757   8.456   4.752  11.768  0.3155 -0.3535  0.7622
  355MOL0     O46758   8.409   4.776  11.884 -0.2363 -0.1109  0.1797
  355MOL0     C46759   8.279   4.779  11.912  0.4944 -0.2260  0.0124
  355MOL0     C46760   8.205   4.664  11.901  0.8107  0.6046  0.9113
  355MOL0     C46761   8.072   4.658  11.943 -0.1164  0.4149  0.4047
  355MOL0     C46762   8.005   4.773  11.969 -0.1613 -0.6506 -0.3658
  355MOL0     O46763   7.880   4.769  12.016  0.5536  0.0905  0.3676
  355MOL0     C46764   7.776   4.814  11.931  0.1275 -0.1530 -0.1360
  355MOL0     C46765   7.641   4.815  12.011 -0.4269  0.3095  0.6799
  355MOL0     C46766   7.583   4.670  12.032  0.1800  0.3904  0.1341
  355MOL0     C46767   7.493   4.656  12.150  0.3623 -0.0870 -0.4908
  355MOL0     C46768   7.364   4.743  12.154 -0.2065  0.0255  0.3052
  355MOL0     C46769   7.253   4.659  12.207  0.2198 -0.2392 -0.1094
  355MOL0     C46770   7.126   4.752  12.229  0.0294  0.1330  0.9294
  355MOL0     C46771   7.031   4.684  12.322  0.0444 -0.2498 -0.3749
  355MOL0    Cl46772   7.081   4.707  12.494  0.5239  0.3503  0.2562
  355MOL0     C46773   8.074   4.893  11.974 -0.0350  0.1267 -0.2415
  355MOL0     C46774   8.206   4.900  11.938 -0.4071  0.6912 -0.2873
  355MOL0     O46775   8.396   4.749  11.661  0.1744 -0.3857 -0.5742
  355MOL0     C46776   8.695   4.730  11.880  0.7999  0.7937 -0.3449
  355MOL0     C46777   8.824   4.731  11.877 -0.3318  0.1844  0.0779
  355MOL0     N46778   9.098   5.290  11.628  0.2689  0.2639  1.2136
  355MOL0     N46779   9.164   5.339  11.533 -0.2013 -0.6283 -0.0589
  355MOL0     C46780  10.497   5.644  11.327  0.3139  0.4197 -0.5861
  355MOL0     C46781  10.620   5.619  11.276  0.1749 -0.3811  0.4977
  355MOL0     C46782  10.998   5.574  11.071 -0.1661  1.0266 -0.6149
  355MOL0     C46783  11.094   5.668  11.051 -1.1910 -0.5376 -0.0908
  355MOL0     C46784  11.216   5.629  11.001 -0.0659 -0.3065  0.1608
  355MOL0     C46785  11.246   5.500  10.970 -0.7067  0.4419  0.4564
  355MOL0     O46786  11.375   5.474  10.932 -0.1623 -0.8387 -0.1012
  355MOL0     C46787  11.429   5.347  10.898  0.8271  0.0348 -0.3888
  355MOL0     C46788  11.578   5.354  10.822  0.5240 -0.5546 -0.6683
  355MOL0     C46789  11.691   5.343  10.930 -0.4432 -0.3029 -0.2266
  355MOL0     C46790  11.749   5.484  10.968  0.0022  0.0123  0.1404
  355MOL0     C46791  11.889   5.467  11.025 -0.1255  0.0568 -0.5535
  355MOL0     C46792  12.008   5.456  11.053 -0.6944 -0.0751 -0.4351
  355MOL0     C46793  11.148   5.403  10.990 -0.7916  0.7436 -0.3173
  355MOL0     C46794  11.018   5.436  11.034  0.0412 -0.6354 -0.3923
  355MOL0     H46795  10.549   5.385  11.039 -1.1302  0.5206 -0.0517
  355MOL0     H46796  10.313   5.451  11.112 -3.4281  0.1839  4.1971
  355MOL0     H46797  10.254   5.812  11.302  0.1349 -0.4465 -0.9305
  355MOL0     H46798  10.261   5.724  11.456 -5.0375 -0.0339  1.7000
  355MOL0     H46799  10.027   5.740  11.263 -1.7548  0.3323  0.2089
  355MOL0     H46800  10.029   5.833  11.417 -1.7961 -1.4474  0.5455
  355MOL0     H46801  10.017   5.627  11.555 -1.7146 -2.2325  0.2564
  355MOL0     H46802  10.046   5.520  11.413 -1.9877 -0.9303 -1.2576
  355MOL0     H46803   9.812   5.711  11.466 -0.1002  1.6171  0.3884
  355MOL0     H46804   9.814   5.599  11.332 -1.1396 -0.0709  0.4596
  355MOL0     H46805   9.755   5.513  11.607 -1.9061 -1.2592 -0.9396
  355MOL0     H46806   9.819   5.402  11.483 -0.9007 -1.4769  0.4310
  355MOL0     H46807   9.625   5.432  11.356  0.6291 -0.2690  0.1861
  355MOL0     H46808   9.571   5.575  11.435 -0.0859 -0.0755  0.6070
  355MOL0     H46809   9.581   5.321  11.580  0.1985  1.4012  1.8104
  355MOL0     H46810   9.503   5.468  11.636  1.2114  0.3382 -0.2601
  355MOL0     H46811   9.440   5.309  11.386  1.0279 -1.7491  1.1310
  355MOL0     H46812   9.351   5.465  11.431 -1.4404 -1.2278  1.6829
  355MOL0     H46813   9.405   5.201  11.695  1.1753  2.3238 -1.8790
  355MOL0     H46814   9.049   5.176  11.869 -1.1706 -0.9121 -0.2046
  355MOL0     H46815   9.206   5.183  11.920  1.4926  0.3484 -1.6904
  355MOL0     H46816   9.151   4.953  11.893 -1.1474  0.6066  0.5275
  355MOL0     H46817   9.283   4.992  11.781 -0.3571 -1.3962 -0.2579
  355MOL0     H46818   9.008   4.997  11.679  0.7513  1.1472  1.7342
  355MOL0     H46819   9.161   4.979  11.585  1.5988 -3.0035  0.6470
  355MOL0     H46820   9.212   4.769  11.680 -0.0266  1.2884  0.7138
  355MOL0     H46821   9.085   4.770  11.565  2.4763  1.3713 -1.5822
  355MOL0     H46822   8.869   4.764  11.548 -0.4499  1.2448 -0.0353
  355MOL0     H46823   8.615   4.791  11.555 -0.6786 -0.4910  0.6902
  355MOL0     H46824   8.265   4.582  11.863 -0.3064  0.2387 -0.1023
  355MOL0     H46825   8.012   4.568  11.952 -1.5405  1.4398  1.4604
  355MOL0     H46826   7.769   4.746  11.846  0.3660 -0.4869  0.1123
  355MOL0     H46827   7.792   4.914  11.888 -0.5597 -0.0714 -0.2155
  355MOL0     H46828   7.575   4.871  11.944  1.9034  0.2308 -1.8716
  355MOL0     H46829   7.652   4.873  12.103 -0.6453 -1.8329  2.1272
  355MOL0     H46830   7.669   4.604  12.047 -0.0756  0.0064 -0.0856
  355MOL0     H46831   7.520   4.644  11.947 -0.4297  2.1432  0.0268
  355MOL0     H46832   7.469   4.549  12.148  3.5080 -0.9046 -2.7605
  355MOL0     H46833   7.548   4.681  12.241 -1.3740 -0.5891  0.7445
  355MOL0     H46834   7.348   4.791  12.057 -1.4788 -1.5097 -0.2857
  355MOL0     H46835   7.380   4.827  12.221 -0.1765 -0.5198  0.9936
  355MOL0     H46836   7.274   4.625  12.308  0.8409  1.8054  0.5004
  355MOL0     H46837   7.223   4.576  12.142  0.6782 -0.6534  0.2030
  355MOL0     H46838   7.156   4.847  12.274  1.2161  0.0034  0.4310
  355MOL0     H46839   7.083   4.771  12.131  1.2795  0.8992  0.5202
  355MOL0     H46840   7.012   4.584  12.283 -2.9207 -0.2453  0.8544
  355MOL0     H46841   6.934   4.733  12.314 -0.3184 -0.9381 -0.2085
  355MOL0     H46842   8.032   4.992  11.991  2.4850  1.4706 -1.3862
  355MOL0     H46843   8.261   4.993  11.934  1.7848 -0.5969 -2.0814
  355MOL0     H46844   8.647   4.706  11.975 -1.0803 -1.4428 -1.7380
  355MOL0     H46845   8.889   4.712  11.962 -1.5952  2.5770  1.6785
  355MOL0     H46846  10.486   5.714  11.410  2.3540 -0.1386  0.2049
  355MOL0     H46847  10.693   5.683  11.324 -0.4329 -0.5789  1.7162
  355MOL0     H46848  11.085   5.771  11.084  1.5835  0.4532 -2.0098
  355MOL0     H46849  11.285   5.708  10.974 -1.7815  1.6399  1.1914
  355MOL0     H46850  11.353   5.306  10.831 -0.3806 -0.9843  1.4911
  355MOL0     H46851  11.429   5.291  10.992 -3.0266  1.0734  0.4039
  355MOL0     H46852  11.583   5.268  10.755  0.4621  1.0901 -2.8730
  355MOL0     H46853  11.582   5.449  10.768 -3.7191 -0.2509 -0.8322
  355MOL0     H46854  11.771   5.284  10.883  0.6683  2.1503 -1.5704
  355MOL0     H46855  11.663   5.295  11.024  3.4492  0.6691  1.6152
  355MOL0     H46856  11.754   5.539  10.873 -0.9502 -1.1148 -0.5885
  355MOL0     H46857  11.689   5.532  11.045  1.9480  0.1898  1.6233
  355MOL0     H46858  12.113   5.439  11.064 -0.5824  1.0250  0.3883
  355MOL0     H46859  11.169   5.298  10.975 -0.5006  0.4237  1.9514
  355MOL0     H46860  10.939   5.369  11.063  0.3554 -2.4807 -3.4001
  356MOL0     O46861   4.376   8.610   9.087 -0.5666  0.4389 -0.3710
  356MOL0     C46862   4.449   8.539   9.153  0.0514 -0.1142  1.1201
  356MOL0     O46863   4.411   8.430   9.218 -0.0352  0.0279  0.0603
  356MOL0     C46864   4.283   8.400   9.218  0.3875 -0.4728  0.4371
  356MOL0     C46865   4.200   8.443   9.320  0.0749  0.4925 -0.3701
  356MOL0     C46866   4.062   8.405   9.310  0.0334 -0.1337 -0.1738
  356MOL0     C46867   4.015   8.319   9.210  0.4712  0.4039 -0.3227
  356MOL0     O46868   3.881   8.290   9.215 -0.4708 -0.4328 -0.3745
  356MOL0     C46869   3.841   8.160   9.180  0.6388  1.3803 -1.1039
  356MOL0     C46870   3.706   8.138   9.247  0.3153  0.4159  0.0238
  356MOL0     C46871   3.634   8.020   9.185 -1.1135 -0.5060 -0.3384
  356MOL0     C46872   3.506   7.998   9.285  0.2427 -0.0951  0.3277
  356MOL0     C46873   3.423   7.871   9.245 -0.1661 -0.1647 -0.2138
  356MOL0     C46874   3.290   7.844   9.304  0.1865  0.0698  0.0355
  356MOL0     C46875   3.289   7.834   9.452  0.9056  0.3138  0.3858
  356MOL0     C46876   3.151   7.832   9.514  0.2767  0.1284 -0.0554
  356MOL0     N46877   3.090   7.703   9.484  0.3076 -0.0643 -0.8763
  356MOL0     C46878   3.133   7.586   9.540 -0.7739  0.6158  0.5616
  356MOL0     C46879   3.070   7.482   9.479  0.6927 -0.3253 -0.1762
  356MOL0     C46880   3.099   7.333   9.499 -0.5114 -1.1519  0.1968
  356MOL0     C46881   3.011   7.301   9.621  0.6175 -0.3123 -1.2267
  356MOL0     C46882   3.023   7.143   9.650 -0.3837 -1.3093 -0.4149
  356MOL0     C46883   2.948   7.087   9.773  0.2535  0.3500  0.3158
  356MOL0     O46884   2.969   6.947   9.781 -0.6721 -0.2365 -0.6957
  356MOL0     C46885   2.888   6.900   9.883  0.4219  0.0511 -1.2488
  356MOL0     C46886   2.887   6.760   9.903 -0.3174 -0.1793 -0.2649
  356MOL0     C46887   2.798   6.692   9.989  0.9095  0.3257 -0.6483
  356MOL0     C46888   2.710   6.769  10.066 -0.0310  0.3479 -0.5694
  356MOL0     C46889   2.615   6.699  10.149 -0.0195  0.7645 -0.8762
  356MOL0     O46890   2.570   6.760  10.263  0.2076  0.0503  0.0454
  356MOL0     C46891   2.452   6.722  10.323  0.7943 -0.0055 -0.7233
  356MOL0     C46892   2.361   6.632  10.270 -0.4562  0.9960  0.0008
  356MOL0     C46893   2.253   6.596  10.351 -0.4238  0.0324  0.5472
  356MOL0     C46894   2.228   6.663  10.477  0.6812 -0.2521  0.4300
  356MOL0     O46895   2.118   6.622  10.554 -0.3804  0.5415 -0.4002
  356MOL0     C46896   2.137   6.586  10.696 -0.0833 -0.9468 -0.2586
  356MOL0     C46897   2.010   6.639  10.771  0.6522  0.9493  0.4099
  356MOL0     C46898   2.011   6.791  10.764 -0.3844  1.9871 -0.8651
  356MOL0     C46899   1.916   6.843  10.874  0.0743 -0.0783 -0.6274
  356MOL0     C46900   1.916   6.996  10.881  0.2225 -1.0031  0.6770
  356MOL0     C46901   1.822   7.071  10.982 -0.2494  0.1835 -0.5378
  356MOL0     C46902   1.846   7.221  10.959  0.0741 -1.0579 -0.7721
  356MOL0     C46903   1.763   7.314  11.048 -0.0132 -1.0428  0.2952
  356MOL0    Cl46904   1.826   7.477  11.057 -0.1765  0.3060 -0.1737
  356MOL0     C46905   2.313   6.765  10.521 -0.1353  0.4890 -0.2313
  356MOL0     C46906   2.425   6.791  10.446  0.6693  0.3982 -0.0206
  356MOL0     O46907   2.593   6.585  10.115 -0.4977 -0.3664 -0.5986
  356MOL0     C46908   2.704   6.906  10.049  0.7311  0.0714 -0.5342
  356MOL0     C46909   2.791   6.969   9.960 -0.3235 -0.6501  0.0102
  356MOL0     N46910   3.005   7.538   9.374  0.2952  0.1847  0.3995
  356MOL0     N46911   3.011   7.667   9.386 -0.1207  0.1593  0.9824
  356MOL0     C46912   4.107   8.269   9.115 -0.7582  0.5540  0.3052
  356MOL0     C46913   4.247   8.305   9.124 -0.6742  0.2017  0.2476
  356MOL0     C46914   4.590   8.565   9.136  0.4561  0.6956 -0.4652
  356MOL0     C46915   4.685   8.503   9.226  1.0157 -0.0322  0.4313
  356MOL0     C46916   4.824   8.520   9.200  0.0511 -0.6740  1.3470
  356MOL0     C46917   4.860   8.604   9.095 -0.4125 -0.5380 -0.9482
  356MOL0     O46918   4.990   8.622   9.052  0.3106  0.6850 -0.2695
  356MOL0     C46919   5.107   8.593   9.135 -0.2856 -0.3827  0.3175
  356MOL0     C46920   5.213   8.695   9.099 -0.9390  0.0347 -0.8157
  356MOL0     C46921   5.346   8.660   9.169  0.3226 -0.3500 -0.0544
  356MOL0     C46922   5.458   8.767   9.153  0.5291 -0.5588 -0.6960
  356MOL0     C46923   5.567   8.725   9.245  0.2652 -0.3748  0.1321
  356MOL0     C46924   5.638   8.681   9.332  0.6920 -0.1152 -0.1577
  356MOL0     C46925   4.769   8.669   9.015 -0.0887 -0.4446 -0.0095
  356MOL0     C46926   4.631   8.649   9.032  0.0748  0.8583  0.5822
  356MOL0     H46927   4.226   8.513   9.399  0.5032  0.8527 -0.8213
  356MOL0     H46928   3.994   8.436   9.389  1.1646  0.6751  0.5185
  356MOL0     H46929   3.909   8.090   9.231 -1.5376  0.4511  0.6901
  356MOL0     H46930   3.824   8.138   9.074 -2.1461  0.8399 -0.6092
  356MOL0     H46931   3.646   8.229   9.231 -0.5062 -0.4743 -2.6275
  356MOL0     H46932   3.718   8.109   9.351  1.2090 -0.8653 -0.4153
  356MOL0     H46933   3.701   7.934   9.183  0.9537  0.9597 -3.4721
  356MOL0     H46934   3.611   8.060   9.085  0.0192  0.4050 -0.2586
  356MOL0     H46935   3.540   7.985   9.388 -2.3158 -2.0000  1.0372
  356MOL0     H46936   3.438   8.084   9.290  0.0555 -0.2410  0.3407
  356MOL0     H46937   3.477   7.776   9.254  0.2663 -0.0159 -1.1102
  356MOL0     H46938   3.412   7.881   9.137 -0.4430 -0.2292 -0.1935
  356MOL0     H46939   3.254   7.751   9.259  0.3378 -0.6003  1.2535
  356MOL0     H46940   3.217   7.923   9.281  1.0240  0.1814 -2.5225
  356MOL0     H46941   3.351   7.746   9.475 -0.0244  0.0418  1.9571
  356MOL0     H46942   3.356   7.912   9.491  1.5234 -0.6657  1.3602
  356MOL0     H46943   3.090   7.914   9.475  3.1718  0.8761 -3.5550
  356MOL0     H46944   3.172   7.838   9.621  1.9633  0.0620 -0.3556
  356MOL0     H46945   3.218   7.578   9.608 -0.5932 -1.7768  0.1494
  356MOL0     H46946   3.203   7.307   9.521 -0.2076  2.1420  3.5018
  356MOL0     H46947   3.066   7.276   9.411  0.0037 -0.3424 -0.5375
  356MOL0     H46948   2.906   7.329   9.615  0.4783 -0.9216 -1.7185
  356MOL0     H46949   3.054   7.351   9.709  3.1149 -2.0294 -1.3576
  356MOL0     H46950   2.991   7.094   9.557 -0.9504 -0.4640 -0.6759
  356MOL0     H46951   3.131   7.126   9.653  0.1144  1.5340  0.3364
  356MOL0     H46952   2.841   7.107   9.766 -0.3000 -1.3310  2.8798
  356MOL0     H46953   2.996   7.131   9.860  2.0040 -1.0449  0.1123
  356MOL0     H46954   2.962   6.699   9.854 -0.2011 -3.7228  3.7447
  356MOL0     H46955   2.805   6.583   9.993  1.6614  0.3856 -0.0337
  356MOL0     H46956   2.380   6.576  10.178 -0.1919 -0.0461  0.6732
  356MOL0     H46957   2.186   6.519  10.316 -0.2152  0.1665 -0.1663
  356MOL0     H46958   2.227   6.633  10.736 -0.0550 -2.1529  1.1869
  356MOL0     H46959   2.148   6.478  10.704  1.4690 -1.2330 -4.3558
  356MOL0     H46960   2.007   6.608  10.876 -1.5176 -1.2217 -0.1831
  356MOL0     H46961   1.924   6.603  10.714  0.0943  0.0636  1.7511
  356MOL0     H46962   1.989   6.816  10.660  0.0151 -2.5335 -2.2486
  356MOL0     H46963   2.111   6.830  10.789  0.2850  0.1483 -0.4747
  356MOL0     H46964   1.820   6.794  10.861 -0.2679  0.4032 -0.0034
  356MOL0     H46965   1.944   6.803  10.972  0.1690 -0.7909 -0.9396
  356MOL0     H46966   1.892   7.045  10.786 -0.3072 -0.8456  0.8907
  356MOL0     H46967   2.017   7.029  10.907 -1.0620  2.3465  1.9896
  356MOL0     H46968   1.837   7.033  11.084  1.6703 -0.0596 -0.8854
  356MOL0     H46969   1.718   7.043  10.958 -0.6099  0.2409  0.8600
  356MOL0     H46970   1.946   7.256  10.986 -0.9086  0.4755  1.1722
  356MOL0     H46971   1.831   7.243  10.853 -0.5512  0.6486 -0.3475
  356MOL0     H46972   1.748   7.273  11.149  0.6758 -0.6933  0.5409
  356MOL0     H46973   1.662   7.325  11.006 -0.6992 -1.0401  1.8523
  356MOL0     H46974   2.302   6.827  10.609 -3.0931  0.1831 -0.2825
  356MOL0     H46975   2.502   6.852  10.494 -0.3430  1.8237 -0.1313
  356MOL0     H46976   2.645   6.963  10.120  1.3345 -1.2183  1.0693
  356MOL0     H46977   2.796   7.077   9.962  1.8770 -0.6760 -0.5693
  356MOL0     H46978   4.074   8.203   9.035  2.1550 -2.7242  1.5424
  356MOL0     H46979   4.320   8.270   9.052 -0.8712  2.2665 -1.0484
  356MOL0     H46980   4.642   8.431   9.295 -0.2529 -0.2350 -0.5264
  356MOL0     H46981   4.892   8.465   9.264  0.8094 -1.2285  0.1005
  356MOL0     H46982   5.138   8.494   9.102  1.0540  0.1926 -0.2390
  356MOL0     H46983   5.096   8.596   9.244 -0.5473  1.8093  0.2912
  356MOL0     H46984   5.227   8.696   8.991  0.1413 -0.7322 -0.6936
  356MOL0     H46985   5.179   8.790   9.141 -1.0161 -0.4620  0.3017
  356MOL0     H46986   5.378   8.565   9.126  0.6987  0.0766 -0.7272
  356MOL0     H46987   5.328   8.654   9.277 -0.2889 -0.4042 -0.1516
  356MOL0     H46988   5.505   8.773   9.054 -0.5322  0.2203 -1.1798
  356MOL0     H46989   5.420   8.868   9.172  1.1815 -0.4501  0.0571
  356MOL0     H46990   5.687   8.629   9.412 -1.1451  0.7766  1.6300
  356MOL0     H46991   4.816   8.715   8.929  0.1404 -2.8055 -1.2410
  356MOL0     H46992   4.559   8.696   8.965 -1.7849 -1.1966  1.0197
  357MOL0     O46993   4.113   3.505   9.835 -0.5087 -0.1859  0.4707
  357MOL0     C46994   4.151   3.474   9.943 -0.0988  0.3968 -0.3205
  357MOL0     O46995   4.094   3.494  10.067  0.0199  0.1452 -0.0887
  357MOL0     C46996   3.975   3.552  10.067  0.3134  0.3912  0.0200
  357MOL0     C46997   3.857   3.479  10.066 -0.4911  0.2528 -0.0664
  357MOL0     C46998   3.735   3.543  10.042 -0.2050  0.4533 -0.4769
  357MOL0     C46999   3.724   3.685  10.044 -0.3576  0.1539  0.2189
  357MOL0     O47000   3.599   3.744  10.031  0.2573  0.4942  0.7898
  357MOL0     C47001   3.577   3.860  10.111  0.2167  0.9774 -0.7054
  357MOL0     C47002   3.458   3.837  10.202 -0.2475 -0.7514 -0.6528
  357MOL0     C47003   3.338   3.849  10.108  0.5544  0.0751 -0.1989
  357MOL0     C47004   3.207   3.838  10.185  0.3771  0.2097  0.5852
  357MOL0     C47005   3.078   3.885  10.120  0.4636  0.9923 -0.3742
  357MOL0     C47006   2.958   3.873  10.223  0.1221 -0.1143  0.6203
  357MOL0     C47007   2.824   3.895  10.141  0.0766 -0.8596 -0.2618
  357MOL0     C47008   2.703   3.911  10.236  0.5133  0.1012 -0.2084
  357MOL0     N47009   2.590   3.960  10.171  0.3919  0.6405 -0.3064
  357MOL0     C47010   2.526   3.915  10.060 -0.6329  0.3711  0.6782
  357MOL0     C47011   2.401   3.978  10.050 -0.4348  0.4014  0.2396
  357MOL0     C47012   2.295   3.967   9.948  0.6386  0.1129  0.4796
  357MOL0     C47013   2.318   3.850   9.847  0.3813  0.7983 -1.0942
  357MOL0     C47014   2.192   3.801   9.787  0.2783 -0.1438 -0.1360
  357MOL0     C47015   2.123   3.876   9.668 -0.1176  0.3137  0.3327
  357MOL0     O47016   2.023   3.792   9.596 -0.5649  0.1378 -0.0362
  357MOL0     C47017   1.930   3.844   9.518  0.5529 -0.6533  0.5037
  357MOL0     C47018   1.815   3.771   9.484 -0.4689 -0.0403 -0.0389
  357MOL0     C47019   1.711   3.819   9.409 -0.4197  0.2184  0.0125
  357MOL0     C47020   1.711   3.952   9.370 -0.5798  0.2055  1.3885
  357MOL0     C47021   1.594   4.009   9.300 -0.9246  0.1350 -0.4738
  357MOL0     O47022   1.500   3.919   9.262 -0.0119  0.2666  0.3039
  357MOL0     C47023   1.404   3.948   9.182 -0.0036 -0.0277  0.4550
  357MOL0     C47024   1.374   3.869   9.065  0.8234  0.3006  0.0889
  357MOL0     C47025   1.261   3.903   8.986 -0.1751  0.6120 -0.0480
  357MOL0     C47026   1.175   4.005   9.026  0.2075  0.8183  0.4251
  357MOL0     O47027   1.048   4.009   8.958 -0.2390  0.4182 -0.6870
  357MOL0     C47028   0.979   4.132   8.967  0.5918  0.5280  0.0527
  357MOL0     C47029   0.846   4.124   8.878 -0.7339  0.5212 -1.1145
  357MOL0     C47030   0.746   4.207   8.950  0.2938 -0.0937 -0.3816
  357MOL0     C47031   0.600   4.182   8.900 -1.1882  0.5573  1.1974
  357MOL0     C47032   0.570   4.247   8.762 -0.9885  0.2044  0.1586
  357MOL0     C47033   0.428   4.200   8.731 -0.7452  1.1788 -0.3419
  357MOL0     C47034   0.369   4.250   8.596  0.0943  0.7577 -0.6540
  357MOL0     C47035   0.379   4.396   8.555  0.4629  0.3184  0.4025
  357MOL0    Cl47036   0.271   4.498   8.652 -0.0510 -0.1046  0.5181
  357MOL0     C47037   1.203   4.085   9.142  0.5524  0.4200 -0.3202
  357MOL0     C47038   1.323   4.056   9.211  0.0771 -0.2031  0.1628
  357MOL0     O47039   1.593   4.128   9.277  0.8946  0.0619 -0.0997
  357MOL0     C47040   1.819   4.032   9.405  0.6408 -0.1331  0.4259
  357MOL0     C47041   1.930   3.977   9.476  0.2399  0.4731 -0.6214
  357MOL0     N47042   2.394   4.067  10.149  0.2703 -0.1972  0.4827
  357MOL0     N47043   2.500   4.055  10.219 -0.0111  0.1392 -0.3951
  357MOL0     C47044   3.848   3.749  10.049 -0.0180 -0.3667  0.0741
  357MOL0     C47045   3.969   3.690  10.054  0.4155 -0.5839  0.9540
  357MOL0     C47046   4.281   3.402   9.940  0.1012 -0.0736 -0.8697
  357MOL0     C47047   4.359   3.396   9.825  0.1285 -0.0817 -0.0229
  357MOL0     C47048   4.481   3.329   9.831 -0.3232  0.2932  0.4614
  357MOL0     C47049   4.533   3.273   9.948  0.1136 -0.3764 -0.2273
  357MOL0     O47050   4.656   3.221   9.968 -0.6162 -0.3725  0.4992
  357MOL0     C47051   4.766   3.252   9.872 -0.2873  0.4084 -0.6088
  357MOL0     C47052   4.892   3.179   9.908 -0.1255 -0.3997 -0.0359
  357MOL0     C47053   4.990   3.142   9.795  0.6453 -0.7860  0.1494
  357MOL0     C47054   5.094   3.052   9.850  0.4803 -0.6625  0.1566
  357MOL0     C47055   5.206   3.043   9.758  1.2683 -0.3823  0.0202
  357MOL0     C47056   5.291   3.033   9.676 -1.2118  0.4588  1.3193
  357MOL0     C47057   4.448   3.267  10.062 -0.0000 -0.3771  0.4516
  357MOL0     C47058   4.328   3.336  10.064  0.0527 -0.1976  0.2831
  357MOL0     H47059   3.851   3.370  10.065  1.1284  0.1364 -0.4219
  357MOL0     H47060   3.645   3.485  10.022  0.4802 -1.5520  1.8026
  357MOL0     H47061   3.562   3.954  10.058 -0.7874 -0.4962 -3.1789
  357MOL0     H47062   3.658   3.871  10.184 -0.0890 -0.4008 -0.1189
  357MOL0     H47063   3.447   3.918  10.275 -0.5859 -2.0913  0.8328
  357MOL0     H47064   3.455   3.747  10.264 -2.0496  1.8739  3.5595
  357MOL0     H47065   3.355   3.771  10.033  0.5708  1.3983 -1.6105
  357MOL0     H47066   3.342   3.941  10.049 -1.1045 -1.4540 -2.8784
  357MOL0     H47067   3.201   3.732  10.212  0.9378 -0.1012 -0.4585
  357MOL0     H47068   3.221   3.892  10.279  0.2631 -1.4052  1.5737
  357MOL0     H47069   3.066   3.824  10.030  2.6757  0.3171 -0.2718
  357MOL0     H47070   3.087   3.991  10.093 -1.7280  0.7410 -2.5016
  357MOL0     H47071   2.960   3.944  10.306 -1.0628  0.9156 -0.1835
  357MOL0     H47072   2.944   3.771  10.261  0.9214 -0.7306 -0.6559
  357MOL0     H47073   2.846   3.973  10.067 -0.2572  0.9027  1.4181
  357MOL0     H47074   2.798   3.803  10.088 -1.6927  0.0625 -1.0619
  357MOL0     H47075   2.714   3.971  10.327 -0.7636  5.1151 -3.0146
  357MOL0     H47076   2.699   3.807  10.270 -0.6263  0.7970  1.9961
  357MOL0     H47077   2.557   3.829  10.001  0.1992  0.9745  0.2203
  357MOL0     H47078   2.284   4.068   9.908  1.2667 -0.2304 -0.5809
  357MOL0     H47079   2.208   3.937  10.007  2.0764 -1.8240  1.7236
  357MOL0     H47080   2.355   3.760   9.896  0.5866  0.8624 -1.1314
  357MOL0     H47081   2.387   3.875   9.766  0.5667  0.9719 -0.8842
  357MOL0     H47082   2.207   3.700   9.749  1.3301  0.2494 -0.8088
  357MOL0     H47083   2.112   3.802   9.861 -0.3701 -4.4918 -0.5614
  357MOL0     H47084   2.199   3.900   9.593 -1.0939 -3.7073 -2.2685
  357MOL0     H47085   2.069   3.968   9.691  1.6254  2.3653 -2.9631
  357MOL0     H47086   1.806   3.669   9.521  0.6588  0.0395  0.4986
  357MOL0     H47087   1.628   3.753   9.383 -0.4922  0.2732  0.1038
  357MOL0     H47088   1.453   3.801   9.035 -0.3257 -0.8806 -0.3375
  357MOL0     H47089   1.233   3.855   8.893 -0.8116 -0.1234  0.5108
  357MOL0     H47090   1.044   4.209   8.926 -1.1125  1.6858 -0.5817
  357MOL0     H47091   0.952   4.150   9.071 -1.5184 -1.9730  0.0573
  357MOL0     H47092   0.808   4.021   8.879 -1.9479  0.8315  2.9877
  357MOL0     H47093   0.854   4.148   8.772 -1.4231 -0.9021 -1.5162
  357MOL0     H47094   0.779   4.311   8.951 -0.5560  0.2162 -1.7843
  357MOL0     H47095   0.734   4.178   9.055 -2.1174  0.0486 -0.5735
  357MOL0     H47096   0.582   4.075   8.896 -1.9563  0.6846  1.1839
  357MOL0     H47097   0.524   4.221   8.968 -1.2865  0.0479  1.3786
  357MOL0     H47098   0.634   4.206   8.682 -2.6168 -0.0860 -1.0359
  357MOL0     H47099   0.588   4.355   8.756 -0.3646  0.0264 -2.5273
  357MOL0     H47100   0.356   4.225   8.809  0.8923  2.2647  0.8847
  357MOL0     H47101   0.436   4.091   8.716  1.3790  1.5959 -3.2627
  357MOL0     H47102   0.426   4.190   8.525  0.7020 -0.9964  1.2169
  357MOL0     H47103   0.265   4.221   8.581 -0.2701  2.4693 -1.7451
  357MOL0     H47104   0.353   4.406   8.449 -1.8420  0.5752  0.9519
  357MOL0     H47105   0.484   4.426   8.565  0.7435 -0.9227  1.3913
  357MOL0     H47106   1.136   4.165   9.171  0.0071 -0.4780  0.9604
  357MOL0     H47107   1.350   4.121   9.293  0.7607  0.0291 -0.2385
  357MOL0     H47108   1.827   4.137   9.378  1.5920 -0.5923 -1.2050
  357MOL0     H47109   2.019   4.039   9.480  0.3705  0.2336  2.3679
  357MOL0     H47110   3.851   3.858  10.046  2.0097 -0.3983 -2.8897
  357MOL0     H47111   4.063   3.743  10.068  0.8521 -1.1571  0.2938
  357MOL0     H47112   4.330   3.439   9.729  1.3808 -1.0648 -0.8711
  357MOL0     H47113   4.555   3.334   9.751  0.5252 -2.9137  0.8729
  357MOL0     H47114   4.783   3.360   9.874 -2.9988  0.9106  1.5775
  357MOL0     H47115   4.737   3.224   9.771  1.1517  2.4356 -1.6546
  357MOL0     H47116   4.952   3.241   9.976 -1.2142 -0.0568  0.6525
  357MOL0     H47117   4.865   3.085   9.958 -1.1638  0.1054  0.3939
  357MOL0     H47118   5.035   3.234   9.759  0.0718 -0.3863  0.4381
  357MOL0     H47119   4.942   3.085   9.714 -0.1419  0.8232 -0.5541
  357MOL0     H47120   5.135   3.086   9.945 -0.4713 -2.1964  1.1594
  357MOL0     H47121   5.065   2.947   9.858 -2.1156 -0.0838 -0.7846
  357MOL0     H47122   5.369   3.040   9.603 -2.4924  0.5114 -0.0993
  357MOL0     H47123   4.490   3.222  10.151  3.9292 -3.4084 -2.5376
  357MOL0     H47124   4.284   3.363  10.159 -1.7698  2.3015 -1.1194
  358MOL0     O47125   8.189   3.924   3.659 -0.2160 -0.3269 -0.0122
  358MOL0     C47126   8.293   3.972   3.706  0.0884 -0.3517 -0.2745
  358MOL0     O47127   8.307   4.104   3.754  0.3398  0.0740 -0.2531
  358MOL0     C47128   8.192   4.165   3.781  1.4603 -0.0026  0.1473
  358MOL0     C47129   8.151   4.278   3.706 -0.2644  0.2863 -0.1050
  358MOL0     C47130   8.038   4.360   3.740  0.4033 -0.9228 -0.2057
  358MOL0     C47131   7.962   4.332   3.850 -0.2199  0.2210 -0.2665
  358MOL0     O47132   7.844   4.391   3.871 -0.0176  0.0598  0.7649
  358MOL0     C47133   7.742   4.304   3.888 -0.2189  0.6210 -0.6222
  358MOL0     C47134   7.612   4.377   3.926 -0.1777 -0.1699  0.0395
  358MOL0     C47135   7.491   4.288   3.954 -0.4194 -0.5185  0.2271
  358MOL0     C47136   7.347   4.359   3.981  0.3737 -0.1967  0.0752
  358MOL0     C47137   7.237   4.247   4.021 -0.0043  0.0771  0.1420
  358MOL0     C47138   7.109   4.311   4.073 -0.8421 -0.3637 -0.0663
  358MOL0     C47139   7.013   4.209   4.122  0.1297  0.8551 -0.0133
  358MOL0     C47140   6.887   4.268   4.184  1.0442 -0.0778 -0.3934
  358MOL0     N47141   6.788   4.169   4.213  0.0122 -0.1179 -0.2266
  358MOL0     C47142   6.721   4.090   4.121 -0.6311 -0.5419 -0.1221
  358MOL0     C47143   6.648   3.998   4.189  0.4911  0.5392  0.8183
  358MOL0     C47144   6.560   3.892   4.129 -0.4296  0.6106 -0.2832
  358MOL0     C47145   6.486   3.941   4.002  0.3254  0.8140 -0.8933
  358MOL0     C47146   6.359   4.014   4.047  0.2133  0.7703  0.8593
  358MOL0     C47147   6.288   4.082   3.927 -0.2320  0.9373 -0.2236
  358MOL0     O47148   6.244   3.986   3.828 -0.1696  0.4810 -0.3321
  358MOL0     C47149   6.108   3.986   3.798 -0.3778  0.6491  0.1184
  358MOL0     C47150   6.005   3.990   3.897  0.2407 -1.1063  0.4532
  358MOL0     C47151   5.871   3.990   3.860  0.2353 -0.1283 -0.9923
  358MOL0     C47152   5.826   3.983   3.733  0.0064  0.1284  0.0648
  358MOL0     C47153   5.676   3.983   3.708  0.2966  0.0465  0.5106
  358MOL0     O47154   5.653   4.016   3.576  0.2381 -0.2851 -0.6765
  358MOL0     C47155   5.520   4.014   3.537 -0.4300 -0.0579  0.6172
  358MOL0     C47156   5.456   4.118   3.478  0.3669 -0.0145  0.0554
  358MOL0     C47157   5.324   4.116   3.431  0.1545  0.1360  0.1169
  358MOL0     C47158   5.254   3.996   3.430  0.1656 -0.1480 -0.3289
  358MOL0     O47159   5.130   3.995   3.363 -0.2955  0.0526 -0.5108
  358MOL0     C47160   5.075   3.868   3.324 -0.4494  0.4736 -0.0130
  358MOL0     C47161   4.985   3.886   3.201  0.0435  0.3082 -0.0402
  358MOL0     C47162   4.856   3.960   3.238 -0.2029 -0.0156 -0.1254
  358MOL0     C47163   4.769   3.976   3.115  0.0402  1.0091 -0.2170
  358MOL0     C47164   4.654   4.063   3.150  1.0316  0.4188  0.0369
  358MOL0     C47165   4.562   4.089   3.027  0.8303  0.7372 -0.3409
  358MOL0     C47166   4.622   4.131   2.899  0.5421 -0.3203  0.2845
  358MOL0     C47167   4.514   4.212   2.823  0.2447  0.1313 -0.0595
  358MOL0    Cl47168   4.524   4.372   2.897 -0.2829 -0.1009 -0.3893
  358MOL0     C47169   5.315   3.887   3.494 -0.3496  0.0993  0.6543
  358MOL0     C47170   5.441   3.901   3.551 -0.2648 -0.1931 -0.5176
  358MOL0     O47171   5.597   3.976   3.798 -1.0033 -0.0755 -0.0938
  358MOL0     C47172   5.928   3.973   3.638 -0.6026  0.4005 -0.8380
  358MOL0     C47173   6.063   3.976   3.670 -0.1464 -0.1597 -0.3423
  358MOL0     N47174   6.673   4.023   4.320 -0.2117 -0.3563  0.4555
  358MOL0     N47175   6.761   4.124   4.333  0.2849  0.6405 -0.3602
  358MOL0     C47176   8.008   4.217   3.930  0.0816 -1.1734  0.2024
  358MOL0     C47177   8.120   4.137   3.900  0.2771 -0.2292  0.6938
  358MOL0     C47178   8.415   3.887   3.695  0.4827  0.5439  1.2067
  358MOL0     C47179   8.408   3.766   3.621 -0.8278 -0.5090 -0.6004
  358MOL0     C47180   8.520   3.681   3.617  0.4202  0.2687  0.0003
  358MOL0     C47181   8.636   3.720   3.683 -0.0518 -1.0054  0.1164
  358MOL0     O47182   8.746   3.646   3.657  0.2412  0.4922 -0.2803
  358MOL0     C47183   8.772   3.544   3.759  0.2110  1.0634 -0.4844
  358MOL0     C47184   8.886   3.449   3.700  0.9837 -0.3795 -0.9289
  358MOL0     C47185   8.825   3.358   3.596 -0.2313 -0.8101  0.3902
  358MOL0     C47186   8.925   3.247   3.563  0.2970  0.1333  0.3333
  358MOL0     C47187   8.866   3.155   3.462 -0.5338  0.0787 -0.0317
  358MOL0     C47188   8.813   3.070   3.390 -0.1052  0.2232  0.0749
  358MOL0     C47189   8.648   3.840   3.748 -0.2959  0.6739  0.4639
  358MOL0     C47190   8.535   3.924   3.754  0.0679 -0.0809  0.0289
  358MOL0     H47191   8.213   4.309   3.623 -1.2471 -1.9309 -1.7799
  358MOL0     H47192   7.997   4.421   3.660  0.2858 -1.0815 -0.2674
  358MOL0     H47193   7.758   4.240   3.976 -0.6803 -0.7519 -1.5016
  358MOL0     H47194   7.720   4.249   3.796  0.7461 -0.1518 -0.4040
  358MOL0     H47195   7.588   4.444   3.844  2.8032  0.5425 -0.3895
  358MOL0     H47196   7.635   4.429   4.020  1.1096 -0.7969  0.1039
  358MOL0     H47197   7.515   4.238   4.048  2.1164  1.1544  0.5504
  358MOL0     H47198   7.472   4.217   3.874 -2.1905  1.2897 -1.0606
  358MOL0     H47199   7.351   4.438   4.056  2.1277  0.2964 -0.4886
  358MOL0     H47200   7.312   4.395   3.883  2.4757  0.6918 -0.4057
  358MOL0     H47201   7.275   4.181   4.100 -1.4476 -1.0437 -0.0537
  358MOL0     H47202   7.216   4.194   3.928 -0.2870 -0.9477  0.7716
  358MOL0     H47203   7.065   4.376   3.997  1.0105  1.5081  0.3524
  358MOL0     H47204   7.136   4.386   4.149 -3.5178  0.3631  0.2692
  358MOL0     H47205   6.974   4.150   4.039  0.9793  1.7460 -1.0738
  358MOL0     H47206   7.058   4.143   4.197 -1.9541 -1.6152 -0.7601
  358MOL0     H47207   6.844   4.344   4.117 -0.6308  0.2569  1.0108
  358MOL0     H47208   6.910   4.320   4.277 -4.4255  2.2808  0.0099
  358MOL0     H47209   6.719   4.103   4.013 -1.5277  2.0022  0.1233
  358MOL0     H47210   6.499   3.855   4.211  0.2719 -2.4891 -1.0368
  358MOL0     H47211   6.626   3.810   4.100  0.6259  0.3875  2.4328
  358MOL0     H47212   6.450   3.857   3.941  0.1723  1.2654 -1.4340
  358MOL0     H47213   6.555   4.001   3.943  3.0754  1.8003  2.9498
  358MOL0     H47214   6.300   3.940   4.100  1.1238 -0.0805  0.7054
  358MOL0     H47215   6.378   4.090   4.123  0.9663 -0.6137  2.0916
  358MOL0     H47216   6.350   4.156   3.875 -1.8552  1.7208 -1.1091
  358MOL0     H47217   6.201   4.130   3.974  0.7027 -0.1473  2.8188
  358MOL0     H47218   6.028   4.015   4.000  0.7294 -1.3484  0.4091
  358MOL0     H47219   5.791   3.999   3.933  0.0085 -0.2524 -1.2229
  358MOL0     H47220   5.510   4.211   3.462 -0.3036  0.8589  2.3179
  358MOL0     H47221   5.291   4.207   3.382 -0.3658  0.9289  1.8510
  358MOL0     H47222   5.017   3.819   3.403  1.2011 -0.4316  0.6869
  358MOL0     H47223   5.147   3.788   3.303 -1.1590 -0.7584  1.9664
  358MOL0     H47224   4.959   3.789   3.157 -0.8792 -1.0350  3.1921
  358MOL0     H47225   5.043   3.934   3.121 -0.2115  2.2316  0.8720
  358MOL0     H47226   4.895   4.057   3.270  1.5212 -0.3586 -1.0565
  358MOL0     H47227   4.799   3.921   3.323 -1.8021  1.0104 -0.6631
  358MOL0     H47228   4.831   4.015   3.033 -0.8504 -0.9451 -1.9083
  358MOL0     H47229   4.736   3.874   3.094 -0.4278  0.9005  1.0333
  358MOL0     H47230   4.673   4.167   3.180 -0.1307  1.0289 -1.1972
  358MOL0     H47231   4.600   4.012   3.230  2.5431 -0.4856  0.5047
  358MOL0     H47232   4.491   4.164   3.063  1.8254  1.1254  0.8625
  358MOL0     H47233   4.506   3.995   3.025 -0.0476  1.2162  0.7177
  358MOL0     H47234   4.711   4.194   2.910 -0.5838  1.6938 -1.4971
  358MOL0     H47235   4.653   4.040   2.845 -0.9363 -1.9536  2.0309
  358MOL0     H47236   4.416   4.163   2.832 -0.1452  1.0479  1.0123
  358MOL0     H47237   4.543   4.228   2.719 -0.6015  3.4811  0.0879
  358MOL0     H47238   5.256   3.796   3.490  0.4187 -0.3636 -1.3602
  358MOL0     H47239   5.505   3.828   3.599  0.1164  0.5160  0.0830
  358MOL0     H47240   5.901   3.963   3.533  0.3507  0.4506 -1.1001
  358MOL0     H47241   6.141   3.967   3.596 -0.1742 -1.4257 -0.2485
  358MOL0     H47242   7.947   4.178   4.011 -0.9609 -1.1118 -0.5252
  358MOL0     H47243   8.155   4.051   3.956  0.6337 -0.9034 -0.5480
  358MOL0     H47244   8.327   3.746   3.553  0.8146  1.6286 -3.4228
  358MOL0     H47245   8.520   3.581   3.575 -3.1119 -0.2500  0.8931
  358MOL0     H47246   8.688   3.484   3.796  0.3038  1.0149 -0.3492
  358MOL0     H47247   8.822   3.591   3.844  0.4515  0.2816 -0.1785
  358MOL0     H47248   8.960   3.506   3.644 -0.5348  0.5596 -2.0782
  358MOL0     H47249   8.919   3.401   3.792 -0.6827 -0.8324 -0.5260
  358MOL0     H47250   8.789   3.409   3.505  3.7635 -0.0256 -0.9397
  358MOL0     H47251   8.734   3.316   3.641  0.4754  1.1605  4.0119
  358MOL0     H47252   9.011   3.293   3.513  1.5923 -1.8715  0.5718
  358MOL0     H47253   8.962   3.201   3.656 -2.8748  1.2712  2.2982
  358MOL0     H47254   8.765   3.006   3.319 -1.6432 -0.4128  1.6139
  358MOL0     H47255   8.740   3.875   3.794 -0.0419  0.2170  0.3064
  358MOL0     H47256   8.528   4.020   3.803 -1.1359 -0.5239  0.7777
  359MOL0     O47257   0.548   7.064   7.116 -0.7461  0.3117  0.1561
  359MOL0     C47258   0.606   7.063   7.232  0.1904 -0.1653  0.3657
  359MOL0     O47259   0.559   7.003   7.346 -0.1251 -0.0578 -0.2335
  359MOL0     C47260   0.427   6.988   7.367  0.1323 -0.8182  0.3703
  359MOL0     C47261   0.366   7.051   7.487  0.2753 -0.8617 -0.0411
  359MOL0     C47262   0.227   7.067   7.498  0.6139 -0.0737  0.2917
  359MOL0     C47263   0.145   7.020   7.391 -1.0716 -0.3895  0.4741
  359MOL0     O47264   0.009   7.055   7.395  0.1909  0.5034  0.7535
  359MOL0     C47265  -0.083   6.998   7.302 -1.0219 -0.0536  0.8136
  359MOL0     C47266  -0.226   7.037   7.328 -0.4910 -0.6182 -0.0774
  359MOL0     C47267  -0.314   6.991   7.211 -0.2135 -0.0477 -0.2815
  359MOL0     C47268  -0.458   7.048   7.229  0.6891 -0.5717 -1.1918
  359MOL0     C47269  -0.552   7.004   7.125 -0.5897  0.7101  0.1521
  359MOL0     C47270  -0.697   7.043   7.158  0.8353  0.3641  0.8701
  359MOL0     C47271  -0.762   6.986   7.282 -0.0983  0.6647  0.4042
  359MOL0     C47272  -0.760   6.829   7.289 -0.4874  1.1138 -0.3859
  359MOL0     N47273  -0.843   6.789   7.400 -0.3824  0.0732  0.1656
  359MOL0     C47274  -0.972   6.747   7.386 -0.6646  0.4254  0.2559
  359MOL0     C47275  -1.018   6.712   7.507  0.1766  0.1042 -0.2669
  359MOL0     C47276  -1.159   6.672   7.554  0.0056  0.0617 -0.2899
  359MOL0     C47277  -1.214   6.783   7.646 -0.2896 -0.4809  0.5994
  359MOL0     C47278  -1.362   6.756   7.676  0.1223  0.3770 -0.0866
  359MOL0     C47279  -1.397   6.875   7.757  0.7386 -0.3607 -0.1962
  359MOL0     O47280  -1.440   6.983   7.667 -0.9371  0.3238 -0.3096
  359MOL0     C47281  -1.567   6.979   7.612 -0.3700 -0.7918 -0.0960
  359MOL0     C47282  -1.603   7.080   7.521  0.0805  0.7564 -0.5360
  359MOL0     C47283  -1.732   7.095   7.470 -0.4588  1.0948 -0.7203
  359MOL0     C47284  -1.837   7.013   7.517  0.3531 -0.7084  1.0105
  359MOL0     C47285  -1.979   7.048   7.478  0.8895 -0.1582  0.3608
  359MOL0     O47286  -2.082   6.978   7.544  0.0787 -0.4011  0.1670
  359MOL0     C47287  -2.217   7.023   7.536  0.0508 -0.2100 -0.3873
  359MOL0     C47288  -2.252   7.160   7.560  0.5168  0.5519  0.3032
  359MOL0     C47289  -2.382   7.202   7.552  0.5851  0.1217  0.0597
  359MOL0     C47290  -2.486   7.113   7.534 -0.2640 -0.1362  0.0046
  359MOL0     O47291  -2.616   7.151   7.546  0.6569  0.1531  0.4230
  359MOL0     C47292  -2.643   7.219   7.665  0.3654 -0.3113 -0.3214
  359MOL0     C47293  -2.797   7.233   7.682 -0.0729 -0.0733 -0.9663
  359MOL0     C47294  -2.862   7.343   7.601 -0.2342 -0.6638  0.0757
  359MOL0     C47295  -3.017   7.355   7.600  0.4853  0.0685  0.1882
  359MOL0     C47296  -3.064   7.380   7.741  0.1242 -0.2714 -0.4516
  359MOL0     C47297  -3.211   7.439   7.745 -0.4331  0.0238 -0.1257
  359MOL0     C47298  -3.322   7.336   7.701 -0.1373  1.0391  0.4621
  359MOL0     C47299  -3.418   7.375   7.591 -0.4765 -0.4115 -0.6356
  359MOL0    Cl47300  -3.465   7.556   7.607 -0.0712  0.6406  0.0172
  359MOL0     C47301  -2.451   6.979   7.499  0.1027  0.2658  0.0660
  359MOL0     C47302  -2.318   6.937   7.499  0.2042  0.4898 -0.3058
  359MOL0     O47303  -1.998   7.121   7.381 -0.5556  0.2529 -0.4536
  359MOL0     C47304  -1.799   6.901   7.584 -0.7398  0.6422  0.5019
  359MOL0     C47305  -1.667   6.882   7.641  1.0110 -0.7186 -0.5544
  359MOL0     N47306  -0.916   6.741   7.595 -0.7816 -0.2733  0.6815
  359MOL0     N47307  -0.820   6.789   7.529  0.3791  0.3459  0.3628
  359MOL0     C47308   0.203   6.937   7.293  0.5883 -1.1220  0.3320
  359MOL0     C47309   0.338   6.924   7.279 -0.2668  0.0578  0.8676
  359MOL0     C47310   0.749   7.114   7.228 -0.3162 -0.3762 -0.3146
  359MOL0     C47311   0.801   7.198   7.120 -0.5616 -0.4604 -0.2177
  359MOL0     C47312   0.934   7.255   7.124 -0.7506  0.6956 -0.0265
  359MOL0     C47313   1.015   7.228   7.229 -0.3547  0.8159 -0.3133
  359MOL0     O47314   1.141   7.259   7.214  0.0753 -0.3742 -0.4783
  359MOL0     C47315   1.210   7.201   7.101  0.1764 -0.1672 -0.6888
  359MOL0     C47316   1.349   7.155   7.140 -1.1011  0.0149  0.3750
  359MOL0     C47317   1.352   7.080   7.271 -0.2857  0.4160 -0.3057
  359MOL0     C47318   1.476   6.992   7.310  0.1235 -0.6266 -0.7991
  359MOL0     C47319   1.591   7.027   7.238 -0.8000 -0.1494  0.3137
  359MOL0     C47320   1.695   7.049   7.189 -0.3657 -0.5022  0.9941
  359MOL0     C47321   0.966   7.141   7.336 -0.1639  0.7586  0.4471
  359MOL0     C47322   0.836   7.101   7.338 -0.0386  0.0270 -0.3034
  359MOL0     H47323   0.420   7.102   7.566 -0.4773  0.2923 -0.2480
  359MOL0     H47324   0.185   7.132   7.573 -2.9718  0.0034 -1.5904
  359MOL0     H47325  -0.077   6.891   7.325 -0.3795 -0.1184  0.3821
  359MOL0     H47326  -0.052   7.011   7.198  0.4202  1.1821  1.3568
  359MOL0     H47327  -0.234   7.142   7.356 -1.6646 -0.8135  0.3331
  359MOL0     H47328  -0.256   6.985   7.419 -1.1654 -0.8194 -0.4120
  359MOL0     H47329  -0.319   6.882   7.224 -1.6498  0.0993  0.6680
  359MOL0     H47330  -0.289   7.031   7.112 -0.9554 -1.4845 -1.0841
  359MOL0     H47331  -0.489   7.021   7.330  1.0015 -0.4061 -1.0494
  359MOL0     H47332  -0.443   7.157   7.229  0.9135 -0.6004 -0.4773
  359MOL0     H47333  -0.541   6.895   7.125 -1.1743  0.6294 -1.0556
  359MOL0     H47334  -0.521   7.035   7.025 -0.7601 -1.3529 -0.6004
  359MOL0     H47335  -0.748   7.010   7.067  1.4405  4.2256 -1.0927
  359MOL0     H47336  -0.708   7.152   7.153  0.3831  0.2661 -1.9826
  359MOL0     H47337  -0.711   7.035   7.366  0.6324  2.9902 -1.3018
  359MOL0     H47338  -0.863   7.029   7.275  0.2884  1.3174 -2.3911
  359MOL0     H47339  -0.662   6.784   7.310 -1.5928 -0.7109  1.0768
  359MOL0     H47340  -0.794   6.782   7.197  0.1415  1.5131 -0.8310
  359MOL0     H47341  -1.035   6.742   7.297 -1.5080 -0.6933  0.8952
  359MOL0     H47342  -1.146   6.578   7.610  1.2749  0.7068  0.5461
  359MOL0     H47343  -1.232   6.648   7.476 -0.6984  1.1069  0.0401
  359MOL0     H47344  -1.209   6.885   7.607  0.1202  0.0719  2.0234
  359MOL0     H47345  -1.155   6.794   7.737 -1.5842  1.5273  1.2722
  359MOL0     H47346  -1.423   6.765   7.585 -0.0820 -0.4235 -0.0369
  359MOL0     H47347  -1.386   6.658   7.719 -0.9569  0.7987  0.3066
  359MOL0     H47348  -1.318   6.913   7.823 -0.8316  1.4942  0.7463
  359MOL0     H47349  -1.480   6.857   7.826  0.3331 -0.8319 -0.7948
  359MOL0     H47350  -1.513   7.134   7.491  1.0328 -0.3573  0.2115
  359MOL0     H47351  -1.743   7.190   7.417  1.2003  1.7172 -0.0060
  359MOL0     H47352  -2.174   7.233   7.581  1.7821  0.5301 -3.4866
  359MOL0     H47353  -2.396   7.307   7.576  2.3720  0.1020  1.3720
  359MOL0     H47354  -2.605   7.322   7.668  1.8866 -0.6994 -2.9963
  359MOL0     H47355  -2.590   7.157   7.739  2.8430  0.3965 -1.3896
  359MOL0     H47356  -2.825   7.254   7.786  0.6323 -1.5907 -0.4290
  359MOL0     H47357  -2.840   7.136   7.653  0.4767 -0.8866  0.7876
  359MOL0     H47358  -2.838   7.331   7.495 -1.1405  3.0712 -0.6987
  359MOL0     H47359  -2.813   7.435   7.633  0.8296 -0.8320 -1.0064
  359MOL0     H47360  -3.043   7.437   7.533 -0.1585  0.3258  0.7418
  359MOL0     H47361  -3.065   7.266   7.559 -1.2364  1.7963 -1.7571
  359MOL0     H47362  -3.004   7.455   7.794 -0.9496  0.7418 -0.6056
  359MOL0     H47363  -3.064   7.289   7.800 -1.8486  0.4627  0.7906
  359MOL0     H47364  -3.206   7.519   7.670  2.3082 -0.2267 -0.3302
  359MOL0     H47365  -3.237   7.484   7.841  1.2248 -0.7861  0.7452
  359MOL0     H47366  -3.270   7.243   7.675  0.4524  0.4831  3.2534
  359MOL0     H47367  -3.375   7.318   7.795 -0.3301 -0.4584  0.0990
  359MOL0     H47368  -3.504   7.308   7.597 -0.6059 -0.1623  0.4086
  359MOL0     H47369  -3.371   7.353   7.495 -1.3913  0.2248 -1.2470
  359MOL0     H47370  -2.528   6.903   7.489  0.3829 -0.2718  1.8153
  359MOL0     H47371  -2.303   6.832   7.475 -3.3567 -0.0592 -0.7918
  359MOL0     H47372  -1.877   6.826   7.595 -1.6878  1.1703 -1.9309
  359MOL0     H47373  -1.649   6.791   7.698 -1.1888 -1.9867 -1.7480
  359MOL0     H47374   0.154   6.888   7.209  0.9406  0.3084 -0.7528
  359MOL0     H47375   0.378   6.864   7.197 -1.2381 -2.0722  1.8714
  359MOL0     H47376   0.748   7.218   7.028 -1.8008  0.0998  0.5881
  359MOL0     H47377   0.966   7.311   7.036  0.9572 -1.6796 -1.0353
  359MOL0     H47378   1.205   7.260   7.009  0.6987 -0.9735 -1.2541
  359MOL0     H47379   1.159   7.108   7.076 -0.7191 -0.2610  1.3212
  359MOL0     H47380   1.374   7.080   7.065 -3.2516 -0.7032  0.2909
  359MOL0     H47381   1.427   7.230   7.127  0.8612 -2.1360 -0.8939
  359MOL0     H47382   1.264   7.015   7.274  1.0715 -1.9141 -3.8111
  359MOL0     H47383   1.325   7.150   7.350 -3.7045 -0.7471 -0.2607
  359MOL0     H47384   1.509   7.011   7.413 -2.6288  1.9935 -0.2576
  359MOL0     H47385   1.449   6.887   7.297  0.9376 -0.8328 -0.8725
  359MOL0     H47386   1.794   7.050   7.147  0.0690  1.7648  1.9176
  359MOL0     H47387   1.031   7.116   7.419  0.9853 -0.3324 -0.7364
  359MOL0     H47388   0.800   7.044   7.423 -2.0371  1.3523 -0.2255
  360MOL0     O47389   7.655   8.145   5.272  0.7425  0.0411  0.4520
  360MOL0     C47390   7.636   8.233   5.361  0.6605  0.1629  0.0835
  360MOL0     O47391   7.732   8.258   5.457  0.6631  0.5037  0.6823
  360MOL0     C47392   7.846   8.180   5.470  0.3808  0.1641  0.5381
  360MOL0     C47393   7.937   8.195   5.365 -0.4357 -0.7274 -0.5221
  360MOL0     C47394   8.058   8.123   5.364 -0.0391 -0.1156  0.5467
  360MOL0     C47395   8.087   8.046   5.475 -0.2596  0.5270 -0.3325
  360MOL0     O47396   8.211   7.986   5.477 -0.3913  0.2148 -0.4062
  360MOL0     C47397   8.272   7.934   5.362  1.0038 -0.0012  0.8482
  360MOL0     C47398   8.380   7.830   5.398 -0.2447  0.1410  1.1421
  360MOL0     C47399   8.437   7.763   5.264  1.2456  0.0075 -1.4945
  360MOL0     C47400   8.522   7.643   5.305 -0.7023 -0.2088  0.3856
  360MOL0     C47401   8.549   7.547   5.189  0.6346  0.1538 -0.7409
  360MOL0     C47402   8.428   7.494   5.099 -0.2600  0.3307  0.4011
  360MOL0     C47403   8.490   7.386   5.007  0.3850 -0.2044 -0.0759
  360MOL0     C47404   8.388   7.333   4.915 -0.6248 -0.1173  0.9284
  360MOL0     N47405   8.269   7.276   4.976  0.5077  0.0751 -0.0893
  360MOL0     C47406   8.260   7.145   5.010  0.3039 -0.0209  0.6161
  360MOL0     C47407   8.128   7.116   5.036  0.6334  0.0874  0.8347
  360MOL0     C47408   8.060   6.981   5.071  0.2009  0.2764  0.1287
  360MOL0     C47409   7.953   6.985   5.183  0.4231 -0.1340  0.1129
  360MOL0     C47410   7.996   7.068   5.308 -0.5258  0.0120  0.0229
  360MOL0     C47411   7.887   7.098   5.407  0.7402 -0.1224  0.5533
  360MOL0     O47412   7.815   6.975   5.444  0.4297 -0.3022 -0.3202
  360MOL0     C47413   7.709   6.989   5.527 -0.3418 -0.5700 -0.5593
  360MOL0     C47414   7.698   6.900   5.627 -0.2097  0.1765 -0.6758
  360MOL0     C47415   7.589   6.910   5.718 -0.3060 -0.3910 -0.2162
  360MOL0     C47416   7.484   7.003   5.693  0.4321 -0.0657 -0.0812
  360MOL0     C47417   7.356   6.994   5.768  0.3455  0.5076 -0.4303
  360MOL0     O47418   7.330   6.876   5.830  0.1483 -0.7706 -0.2122
  360MOL0     C47419   7.200   6.847   5.861 -1.2169  0.4065  0.1466
  360MOL0     C47420   7.186   6.734   5.941 -0.6059  0.5148  0.0475
  360MOL0     C47421   7.055   6.686   5.967  0.1074 -0.3320 -0.7275
  360MOL0     C47422   6.940   6.751   5.917  0.3832 -0.1446 -0.2988
  360MOL0     O47423   6.814   6.710   5.946  0.0146  0.4285 -0.3405
  360MOL0     C47424   6.787   6.595   6.037 -0.5166 -0.3537  0.5872
  360MOL0     C47425   6.786   6.630   6.179  0.2704 -0.5665 -0.8307
  360MOL0     C47426   6.728   6.500   6.258 -0.3346 -0.7667  0.4432
  360MOL0     C47427   6.737   6.541   6.410  0.6710 -0.4676  0.8849
  360MOL0     C47428   6.673   6.431   6.491 -0.5064  0.4159 -0.9049
  360MOL0     C47429   6.702   6.420   6.643 -0.6255 -0.3744  0.2502
  360MOL0     C47430   6.647   6.295   6.712  0.7344  0.0006  0.4298
  360MOL0     C47431   6.683   6.271   6.852  0.1807  0.7383  0.3864
  360MOL0    Cl47432   6.707   6.425   6.937  0.1132 -0.1625  0.0155
  360MOL0     C47433   6.955   6.852   5.823 -0.2521  0.0539 -0.2338
  360MOL0     C47434   7.084   6.897   5.792 -0.2497 -0.6039  0.6839
  360MOL0     O47435   7.285   7.090   5.772  0.0804  0.2269 -0.2068
  360MOL0     C47436   7.499   7.098   5.588 -0.2619 -0.0959  0.6089
  360MOL0     C47437   7.617   7.091   5.515  0.6204 -0.1930 -0.7395
  360MOL0     N47438   8.060   7.238   5.024  0.9280 -0.3362  0.4465
  360MOL0     N47439   8.143   7.321   4.985 -0.0956  0.9244 -0.0464
  360MOL0     C47440   7.993   8.033   5.582 -0.4788 -0.0071 -0.2690
  360MOL0     C47441   7.875   8.095   5.581  0.0652 -0.5032  0.7698
  360MOL0     C47442   7.520   8.325   5.358  0.4841  0.1839 -0.3245
  360MOL0     C47443   7.522   8.437   5.442  0.6987  0.1913 -0.5901
  360MOL0     C47444   7.400   8.521   5.451  0.4609  0.7984 -0.4316
  360MOL0     C47445   7.291   8.490   5.372 -1.2557 -1.4000 -0.8708
  360MOL0     O47446   7.174   8.558   5.381  1.1332 -0.0286  0.5197
  360MOL0     C47447   7.136   8.597   5.521 -0.7537  0.1453  0.1076
  360MOL0     C47448   7.150   8.480   5.616  0.0822 -0.2068  0.0519
  360MOL0     C47449   7.074   8.526   5.742 -0.6069 -0.0521 -0.8095
  360MOL0     C47450   7.067   8.410   5.845  0.1842 -0.2214 -0.1436
  360MOL0     C47451   7.205   8.379   5.896  0.4487 -0.3088 -0.2730
  360MOL0     C47452   7.314   8.365   5.944 -0.0303 -0.1375  0.0568
  360MOL0     C47453   7.300   8.384   5.284 -0.3754  0.2409  0.3310
  360MOL0     C47454   7.413   8.306   5.271  0.6681  0.1843 -0.1569
  360MOL0     H47455   7.910   8.261   5.284  0.7112 -1.0627 -1.1944
  360MOL0     H47456   8.129   8.128   5.282  1.7575 -1.9852  1.8691
  360MOL0     H47457   8.321   8.012   5.304  0.8041 -0.9466 -0.6424
  360MOL0     H47458   8.196   7.882   5.303 -3.2452  3.2246  2.8877
  360MOL0     H47459   8.348   7.744   5.459  4.6525 -2.6748  0.3457
  360MOL0     H47460   8.448   7.896   5.453 -0.2860  1.1770 -0.0354
  360MOL0     H47461   8.495   7.839   5.210  0.2275  1.7483 -0.2643
  360MOL0     H47462   8.350   7.730   5.206  0.8461  0.0817 -0.9424
  360MOL0     H47463   8.615   7.684   5.344  0.8963 -2.2694 -1.0381
  360MOL0     H47464   8.476   7.590   5.390 -0.5980 -1.0988 -0.1026
  360MOL0     H47465   8.585   7.457   5.240 -1.0425 -0.8582 -1.2590
  360MOL0     H47466   8.629   7.589   5.127  2.1118 -1.3797  0.0356
  360MOL0     H47467   8.376   7.578   5.051  1.2229  0.5099 -0.9882
  360MOL0     H47468   8.353   7.449   5.165 -0.7372 -2.2409 -1.7219
  360MOL0     H47469   8.567   7.431   4.944  0.1916 -0.4236 -0.4777
  360MOL0     H47470   8.536   7.308   5.067  1.1609 -0.2044 -0.6505
  360MOL0     H47471   8.434   7.250   4.861 -0.7733  0.8371 -0.7091
  360MOL0     H47472   8.365   7.418   4.851  0.6619  0.7197  1.5413
  360MOL0     H47473   8.344   7.078   5.001 -1.9666 -3.0040  0.1561
  360MOL0     H47474   8.136   6.909   5.102 -0.4837 -1.8350 -2.6810
  360MOL0     H47475   8.022   6.948   4.974 -0.8891  2.7032 -0.3332
  360MOL0     H47476   7.926   6.886   5.221 -1.3647  0.4090  0.3779
  360MOL0     H47477   7.863   7.025   5.136  0.7873  0.6666  0.0952
  360MOL0     H47478   8.083   7.014   5.345 -0.3108 -1.2449 -2.1329
  360MOL0     H47479   8.040   7.165   5.283  3.9915 -1.1067  2.6281
  360MOL0     H47480   7.821   7.170   5.357 -1.9172 -2.3296  0.6179
  360MOL0     H47481   7.931   7.153   5.490  2.3321  0.9442 -0.9283
  360MOL0     H47482   7.771   6.822   5.645 -2.0356 -1.0180  2.3317
  360MOL0     H47483   7.581   6.831   5.793  1.2642  0.4483  0.8778
  360MOL0     H47484   7.273   6.694   5.992  1.3892  1.4454 -2.3723
  360MOL0     H47485   7.053   6.605   6.039  0.0447 -0.0883 -0.4542
  360MOL0     H47486   6.862   6.517   6.020  0.1590  0.1275  1.2668
  360MOL0     H47487   6.687   6.564   6.006 -1.7712  2.6355  1.3262
  360MOL0     H47488   6.727   6.718   6.205 -1.1438 -2.2880  2.2465
  360MOL0     H47489   6.881   6.649   6.229 -1.7365  0.0120  3.0923
  360MOL0     H47490   6.794   6.417   6.233  0.7036  0.4409 -1.0443
  360MOL0     H47491   6.624   6.475   6.234 -0.2641  0.2314 -1.0422
  360MOL0     H47492   6.838   6.562   6.448  0.6427 -1.5213  1.5689
  360MOL0     H47493   6.676   6.632   6.416  0.7321  0.0305 -3.2525
  360MOL0     H47494   6.710   6.339   6.445  1.3079  0.4962  0.2837
  360MOL0     H47495   6.565   6.425   6.474 -0.2965  0.4617 -2.3292
  360MOL0     H47496   6.655   6.511   6.682 -0.8032 -1.1098  1.8092
  360MOL0     H47497   6.810   6.435   6.655 -0.7096 -0.2060  0.8279
  360MOL0     H47498   6.538   6.287   6.702  0.3038  3.1465  1.4466
  360MOL0     H47499   6.693   6.215   6.654  1.7751  1.0904 -0.3033
  360MOL0     H47500   6.767   6.203   6.869 -0.7356 -0.8281 -1.0716
  360MOL0     H47501   6.598   6.214   6.891  2.0149 -0.8791  2.2482
  360MOL0     H47502   6.869   6.883   5.765  0.4464  1.8557 -0.3657
  360MOL0     H47503   7.095   6.954   5.701 -4.1546 -1.0626 -0.2318
  360MOL0     H47504   7.424   7.170   5.558 -1.5717 -1.8008 -0.4140
  360MOL0     H47505   7.634   7.170   5.443  4.0570 -2.4018 -2.6398
  360MOL0     H47506   8.029   7.969   5.663 -2.1967  2.2743  2.5081
  360MOL0     H47507   7.802   8.094   5.662 -0.8659 -1.3727 -0.0491
  360MOL0     H47508   7.603   8.459   5.511 -0.8864  1.5039  0.9457
  360MOL0     H47509   7.393   8.606   5.518 -1.2362 -0.7846  1.5485
  360MOL0     H47510   7.030   8.621   5.516 -1.0299 -0.9121  0.5645
  360MOL0     H47511   7.191   8.683   5.560 -0.3006 -0.6598  1.3097
  360MOL0     H47512   7.106   8.391   5.572 -0.3666  0.5407 -1.0304
  360MOL0     H47513   7.254   8.463   5.646  0.2881  2.5534  1.3000
  360MOL0     H47514   6.975   8.561   5.711 -0.0204 -0.1277 -2.8973
  360MOL0     H47515   7.124   8.614   5.782 -0.1385 -1.0885  1.0075
  360MOL0     H47516   7.003   8.427   5.932 -0.0132 -2.9140  0.3004
  360MOL0     H47517   7.029   8.318   5.801  0.2058 -1.4434  2.2724
  360MOL0     H47518   7.402   8.373   6.005  0.8145  0.2267 -1.1865
  360MOL0     H47519   7.224   8.368   5.208 -1.9278 -2.2115  2.2279
  360MOL0     H47520   7.416   8.238   5.186 -1.8685 -1.2371  0.7506
  361MOL0     O47521   7.430   8.525   2.506  0.3282  0.5096 -0.6210
  361MOL0     C47522   7.493   8.550   2.405  0.0319  0.8873 -0.0598
  361MOL0     O47523   7.439   8.545   2.275 -0.4728 -1.0783 -0.1898
  361MOL0     C47524   7.307   8.588   2.244  0.2988  0.0304 -0.6908
  361MOL0     C47525   7.251   8.542   2.128  0.1271 -0.3428 -0.8417
  361MOL0     C47526   7.111   8.547   2.114 -0.0034  0.1770 -0.8107
  361MOL0     C47527   7.025   8.605   2.202  0.1505 -0.3637 -0.2072
  361MOL0     O47528   6.888   8.599   2.187 -0.1711  0.1818 -0.3601
  361MOL0     C47529   6.804   8.684   2.251 -1.1442  0.2492  0.1447
  361MOL0     C47530   6.681   8.691   2.166  0.1395  0.0488  0.6854
  361MOL0     C47531   6.709   8.743   2.017  0.4328 -0.1570 -0.0527
  361MOL0     C47532   6.575   8.767   1.936  0.0137 -0.5661  0.4883
  361MOL0     C47533   6.482   8.640   1.907 -0.1243 -0.2513 -0.0386
  361MOL0     C47534   6.354   8.686   1.840 -0.2581 -0.2635  1.1530
  361MOL0     C47535   6.253   8.571   1.820  0.4171 -0.3464 -0.4983
  361MOL0     C47536   6.303   8.464   1.736 -0.2813 -0.3060 -0.3682
  361MOL0     N47537   6.199   8.376   1.686  0.0633 -0.5698  0.9693
  361MOL0     C47538   6.131   8.394   1.564 -0.5818  0.4053  0.2932
  361MOL0     C47539   6.029   8.308   1.569  0.0967 -0.0363 -0.0754
  361MOL0     C47540   5.937   8.292   1.448 -0.5123 -0.1530  0.5153
  361MOL0     C47541   5.794   8.247   1.488 -0.2469  0.1107  0.8971
  361MOL0     C47542   5.728   8.220   1.352 -0.4114  0.4625 -0.3472
  361MOL0     C47543   5.579   8.200   1.365 -0.0891 -0.4382 -0.1477
  361MOL0     O47544   5.538   8.185   1.231  0.2372  0.0755 -0.4455
  361MOL0     C47545   5.402   8.179   1.203 -0.3808 -0.1075 -1.0388
  361MOL0     C47546   5.300   8.214   1.292 -0.6634 -0.9919 -0.5390
  361MOL0     C47547   5.169   8.211   1.262 -0.2780 -0.5997 -0.2204
  361MOL0     C47548   5.136   8.179   1.124 -1.3374  0.2882  0.1508
  361MOL0     C47549   4.998   8.159   1.083  0.7573  0.6580  0.3246
  361MOL0     O47550   4.902   8.164   1.186  0.4724  0.5115  0.6749
  361MOL0     C47551   4.764   8.150   1.162  0.0165 -0.2780  0.7001
  361MOL0     C47552   4.714   8.036   1.099 -0.9459 -0.2883 -0.1573
  361MOL0     C47553   4.584   8.026   1.059 -0.4954  0.0898  0.3569
  361MOL0     C47554   4.496   8.121   1.084  0.8905 -0.4515  0.2257
  361MOL0     O47555   4.362   8.117   1.055 -0.6287 -0.1153  0.0983
  361MOL0     C47556   4.300   7.992   1.069 -0.4741  0.0413 -0.3069
  361MOL0     C47557   4.153   8.011   1.028 -0.0127  0.0261  0.2102
  361MOL0     C47558   4.061   7.899   1.049  0.1461  0.2930 -0.5583
  361MOL0     C47559   3.917   7.931   0.997  0.5739 -0.0087  0.2992
  361MOL0     C47560   3.824   7.815   1.003  0.1428  0.9836  0.0195
  361MOL0     C47561   3.863   7.692   0.919 -0.2609  1.0508  0.1338
  361MOL0     C47562   3.747   7.593   0.901  0.4202  0.1844 -0.7088
  361MOL0     C47563   3.782   7.472   0.829  0.3795 -0.3766 -0.0316
  361MOL0    Cl47564   3.621   7.381   0.815  0.1409  0.1733  0.1686
  361MOL0     C47565   4.530   8.235   1.162 -0.6775 -0.1054  0.1977
  361MOL0     C47566   4.668   8.250   1.200 -0.3702 -0.0091 -0.8101
  361MOL0     O47567   4.969   8.138   0.960 -0.9509  0.1020 -0.2087
  361MOL0     C47568   5.241   8.155   1.028  0.4122 -0.4144  0.0012
  361MOL0     C47569   5.368   8.163   1.076 -0.5327  0.1918  0.6329
  361MOL0     N47570   6.034   8.240   1.683  0.0986  0.4463 -0.2515
  361MOL0     N47571   6.138   8.275   1.751  0.0242  0.3357  0.1012
  361MOL0     C47572   7.079   8.662   2.321  0.2403 -0.1057  0.8752
  361MOL0     C47573   7.220   8.647   2.339 -0.0029 -0.4179  0.4531
  361MOL0     C47574   7.630   8.597   2.427 -0.2842  0.5645  0.2500
  361MOL0     C47575   7.690   8.662   2.325 -0.5082 -0.2041  0.5181
  361MOL0     C47576   7.817   8.713   2.341 -0.0228  0.5238 -0.0114
  361MOL0     C47577   7.880   8.703   2.470  0.0169 -0.1162 -0.4509
  361MOL0     O47578   8.003   8.752   2.496  0.0382  0.0318 -0.0903
  361MOL0     C47579   8.035   8.882   2.452 -0.2146 -0.1372 -0.4076
  361MOL0     C47580   7.951   9.006   2.496  0.4474  0.2608 -0.0825
  361MOL0     C47581   7.943   9.008   2.649 -0.0975 -0.1256 -0.2116
  361MOL0     C47582   8.071   9.012   2.730 -0.1062 -0.0582 -0.4930
  361MOL0     C47583   8.140   9.137   2.690 -0.3755  0.1301 -0.5582
  361MOL0     C47584   8.212   9.241   2.667 -0.0601  0.9508 -0.4183
  361MOL0     C47585   7.817   8.638   2.572  0.3124 -0.7597  0.2646
  361MOL0     C47586   7.697   8.580   2.555 -0.6055  0.0523 -0.3272
  361MOL0     H47587   7.320   8.501   2.056  1.8858 -3.2229  2.2119
  361MOL0     H47588   7.060   8.495   2.033  0.0074 -0.7755 -0.2231
  361MOL0     H47589   6.836   8.788   2.247  1.0157 -0.3935 -0.3789
  361MOL0     H47590   6.784   8.659   2.356 -0.2375  0.8655  0.4701
  361MOL0     H47591   6.613   8.758   2.219  0.5415 -0.0516  1.3391
  361MOL0     H47592   6.622   8.599   2.158 -1.4815  0.9910  1.2897
  361MOL0     H47593   6.780   8.681   1.961  1.8475  2.7380 -1.7029
  361MOL0     H47594   6.762   8.839   2.009  1.2194 -0.5198  0.5973
  361MOL0     H47595   6.519   8.842   1.993  0.9654  1.5072 -1.1346
  361MOL0     H47596   6.615   8.807   1.842  1.0050 -1.6305  0.4418
  361MOL0     H47597   6.455   8.590   2.000 -0.6999  1.7062  0.8985
  361MOL0     H47598   6.536   8.566   1.847  1.6397 -0.6833  1.9952
  361MOL0     H47599   6.378   8.724   1.740 -1.3422 -0.0965  0.9435
  361MOL0     H47600   6.310   8.776   1.883 -0.3780  0.3722 -0.2262
  361MOL0     H47601   6.225   8.531   1.917 -0.3169 -2.7062 -1.5969
  361MOL0     H47602   6.158   8.601   1.774 -0.5887 -2.9561 -0.3104
  361MOL0     H47603   6.375   8.403   1.790 -2.3874 -1.4032  1.3521
  361MOL0     H47604   6.360   8.505   1.651 -0.1456 -1.3425 -0.7824
  361MOL0     H47605   6.155   8.462   1.482  1.2322  1.6121  1.7551
  361MOL0     H47606   5.984   8.214   1.386 -0.2166  1.1290 -0.9200
  361MOL0     H47607   5.937   8.385   1.391  0.1809 -0.4085  0.0855
  361MOL0     H47608   5.742   8.330   1.537 -1.4434  1.3274 -2.1553
  361MOL0     H47609   5.793   8.155   1.547  2.4938 -0.7911 -0.2706
  361MOL0     H47610   5.742   8.305   1.285 -3.5782  0.0196 -1.7573
  361MOL0     H47611   5.770   8.136   1.296  0.1613 -0.1262  0.9312
  361MOL0     H47612   5.540   8.290   1.414  1.7786 -1.7346  4.1932
  361MOL0     H47613   5.564   8.115   1.431 -1.2848 -1.6088 -1.8474
  361MOL0     H47614   5.313   8.243   1.396 -1.7417  0.1314 -0.6869
  361MOL0     H47615   5.078   8.227   1.320 -1.1840 -0.8799 -1.5198
  361MOL0     H47616   4.778   7.954   1.068 -1.4702 -0.6238 -0.3777
  361MOL0     H47617   4.543   7.936   1.014  0.6116 -0.0629 -0.3832
  361MOL0     H47618   4.312   7.944   1.167  0.6681  1.7073  0.4110
  361MOL0     H47619   4.339   7.914   1.004 -0.0773  1.3456 -1.6825
  361MOL0     H47620   4.160   8.035   0.922  0.4538 -1.9110 -0.2245
  361MOL0     H47621   4.102   8.089   1.087  0.4041 -0.2057  0.8927
  361MOL0     H47622   4.054   7.847   1.145  2.4357  0.6795 -0.1172
  361MOL0     H47623   4.108   7.827   0.980  2.6601  1.3302 -0.0391
  361MOL0     H47624   3.868   8.012   1.052  2.6523  0.8936  0.9549
  361MOL0     H47625   3.925   7.957   0.891  0.8933  3.1673  0.9933
  361MOL0     H47626   3.728   7.847   0.963 -0.4415 -0.3679  0.2541
  361MOL0     H47627   3.816   7.778   1.106  1.4742 -0.9552 -0.5187
  361MOL0     H47628   3.939   7.634   0.972 -1.0070 -0.9979 -0.9292
  361MOL0     H47629   3.904   7.716   0.821  0.4606 -1.3546 -0.2400
  361MOL0     H47630   3.701   7.566   0.996 -1.5873 -0.3520 -1.7807
  361MOL0     H47631   3.676   7.654   0.845  0.3548  2.6449  1.8600
  361MOL0     H47632   3.846   7.410   0.893  0.8572 -0.7507 -0.8611
  361MOL0     H47633   3.837   7.503   0.740 -1.3566  0.2903 -0.9024
  361MOL0     H47634   4.457   8.311   1.187  0.5185  1.5571 -1.1336
  361MOL0     H47635   4.692   8.348   1.239 -0.9476  0.2308 -1.0440
  361MOL0     H47636   5.234   8.118   0.926 -0.3195  0.6479 -0.3503
  361MOL0     H47637   5.457   8.144   1.016  1.1685  3.5468  1.8208
  361MOL0     H47638   7.022   8.716   2.396  0.8857  2.0546 -0.1073
  361MOL0     H47639   7.260   8.679   2.435 -1.6115  1.6900  0.4918
  361MOL0     H47640   7.645   8.659   2.227  1.5243 -3.0582 -0.4693
  361MOL0     H47641   7.856   8.771   2.257 -1.2329  1.0225 -0.2419
  361MOL0     H47642   8.046   8.884   2.344 -1.9071 -3.3883 -0.7673
  361MOL0     H47643   8.132   8.902   2.499  0.1696 -0.7958 -0.9043
  361MOL0     H47644   8.004   9.098   2.469  0.9357  0.1787  0.5588
  361MOL0     H47645   7.854   9.005   2.445  0.1994 -3.0309  0.2658
  361MOL0     H47646   7.900   8.912   2.676 -0.2376 -0.0017  0.0092
  361MOL0     H47647   7.872   9.081   2.689  0.9254  0.6088  0.3241
  361MOL0     H47648   8.048   9.011   2.837  1.3941  0.5731 -0.1386
  361MOL0     H47649   8.145   8.932   2.713  1.8147  1.4520  0.3361
  361MOL0     H47650   8.273   9.324   2.638 -0.7316  1.3610 -0.6673
  361MOL0     H47651   7.879   8.631   2.660  1.5284  0.0251 -0.5119
  361MOL0     H47652   7.655   8.518   2.633  0.2966 -0.6512 -0.3862
  362MOL0     O47653   4.961   4.810   6.762 -0.0981  0.5706 -0.7317
  362MOL0     C47654   4.975   4.698   6.806  0.1117  0.3532  0.7436
  362MOL0     O47655   4.878   4.611   6.842  0.2715 -0.7244  0.6358
  362MOL0     C47656   4.747   4.640   6.821 -0.5810  0.6366  0.0661
  362MOL0     C47657   4.700   4.670   6.693 -0.4029 -1.3375  0.3272
  362MOL0     C47658   4.566   4.683   6.663 -0.4831 -0.1304  0.3428
  362MOL0     C47659   4.473   4.667   6.774 -0.0655  0.3477  0.5065
  362MOL0     O47660   4.346   4.673   6.732  0.0644  0.6354 -1.1651
  362MOL0     C47661   4.241   4.687   6.828  0.1722 -0.1302 -0.7791
  362MOL0     C47662   4.121   4.753   6.764  0.8625 -0.1108  0.2465
  362MOL0     C47663   4.052   4.667   6.654  0.0278  0.0469  0.4693
  362MOL0     C47664   3.963   4.749   6.567 -0.1551 -0.2732  0.2105
  362MOL0     C47665   3.898   4.663   6.454  0.0151 -0.3791  0.0785
  362MOL0     C47666   3.766   4.734   6.415  0.1269 -1.3104 -0.0773
  362MOL0     C47667   3.692   4.672   6.297  0.0346  0.3078  0.0358
  362MOL0     C47668   3.549   4.719   6.261  0.2956  0.4716 -0.8180
  362MOL0     N47669   3.546   4.848   6.191  0.1499  0.8918  0.4495
  362MOL0     C47670   3.561   4.970   6.258  0.2673  0.8340  0.6309
  362MOL0     C47671   3.506   5.057   6.164 -0.4561  0.3110 -0.7207
  362MOL0     C47672   3.536   5.209   6.177 -0.6290 -0.0965 -0.3505
  362MOL0     C47673   3.478   5.291   6.070  0.2492  0.3795 -0.2820
  362MOL0     C47674   3.329   5.306   6.084  0.2483 -0.0184 -0.1869
  362MOL0     C47675   3.269   5.384   5.964 -0.3999 -0.2053  0.1858
  362MOL0     O47676   3.127   5.381   5.977  0.1705  0.3633  0.3288
  362MOL0     C47677   3.062   5.410   5.864  0.0151 -0.9106  0.1394
  362MOL0     C47678   3.025   5.304   5.773  0.6502  0.2905  0.2251
  362MOL0     C47679   2.973   5.345   5.655  0.6287 -0.5570  1.2727
  362MOL0     C47680   2.942   5.472   5.617 -0.1818  0.3581  0.5239
  362MOL0     C47681   2.877   5.498   5.485  0.4293 -0.4199  0.1546
  362MOL0     O47682   2.826   5.401   5.410 -0.6071  0.5403  0.5442
  362MOL0     C47683   2.755   5.450   5.303 -0.3252 -0.3660  0.1950
  362MOL0     C47684   2.609   5.445   5.310 -0.0927 -0.0817  0.0407
  362MOL0     C47685   2.530   5.472   5.197 -0.0294 -0.4133 -0.9517
  362MOL0     C47686   2.597   5.495   5.074  0.9523  0.6715  0.4090
  362MOL0     O47687   2.537   5.515   4.951 -0.0677  0.3164 -0.0935
  362MOL0     C47688   2.393   5.527   4.950 -0.1319 -0.1618 -0.9225
  362MOL0     C47689   2.368   5.584   4.811  0.3310 -0.5591  0.1355
  362MOL0     C47690   2.223   5.605   4.784  0.3305  0.4089 -0.0157
  362MOL0     C47691   2.213   5.662   4.638  0.2789  0.6270  0.1267
  362MOL0     C47692   2.077   5.732   4.626  0.1464 -0.3696 -0.5245
  362MOL0     C47693   2.071   5.822   4.503 -0.3528 -0.0837  0.7732
  362MOL0     C47694   2.063   5.748   4.372 -0.3374 -0.1842  0.1090
  362MOL0     C47695   1.925   5.710   4.323  0.4348  0.2880 -0.0587
  362MOL0    Cl47696   1.948   5.646   4.151  0.2713 -0.0529 -0.1177
  362MOL0     C47697   2.736   5.499   5.061  0.1757  0.7807 -0.0152
  362MOL0     C47698   2.815   5.478   5.177 -0.1810 -0.1977 -0.4199
  362MOL0     O47699   2.861   5.617   5.464  0.1241  0.3736  0.5987
  362MOL0     C47700   2.966   5.572   5.709  0.3602  0.9731  0.1687
  362MOL0     C47701   3.035   5.545   5.830 -0.3856  0.1127  0.9904
  362MOL0     N47702   3.488   4.990   6.046 -0.2425  1.2370  0.1721
  362MOL0     N47703   3.511   4.864   6.062  0.5525  1.2565 -0.5549
  362MOL0     C47704   4.521   4.639   6.909  0.2855 -0.2111  0.1797
  362MOL0     C47705   4.658   4.628   6.925 -0.6813 -0.7558 -0.2962
  362MOL0     C47706   5.113   4.634   6.820 -0.0664 -0.2374 -0.3936
  362MOL0     C47707   5.139   4.498   6.858 -0.2838 -0.3930  0.1318
  362MOL0     C47708   5.269   4.452   6.882  0.8838 -0.2310 -0.8485
  362MOL0     C47709   5.376   4.544   6.875 -0.6510 -0.6526 -0.5138
  362MOL0     O47710   5.499   4.489   6.902  0.2391  0.6702 -0.2411
  362MOL0     C47711   5.619   4.572   6.913  0.0620  0.2290 -0.5683
  362MOL0     C47712   5.625   4.657   7.039 -0.1666  0.3683 -0.3350
  362MOL0     C47713   5.774   4.702   7.064  0.2004  0.1485  0.3277
  362MOL0     C47714   5.778   4.782   7.196 -0.9813  0.1586  0.9299
  362MOL0     C47715   5.712   4.908   7.181  0.8158 -0.2994  0.5914
  362MOL0     C47716   5.647   5.010   7.149  0.0717 -0.6268 -0.3401
  362MOL0     C47717   5.360   4.674   6.846 -0.1977 -0.2728  0.2215
  362MOL0     C47718   5.229   4.718   6.812  0.3170  0.0043 -0.1445
  362MOL0     H47719   4.774   4.686   6.614  0.6476  2.6348  1.8623
  362MOL0     H47720   4.543   4.712   6.561 -2.9029 -2.7442  0.0264
  362MOL0     H47721   4.272   4.749   6.913 -2.8586 -0.1604  0.4908
  362MOL0     H47722   4.207   4.593   6.872 -0.0027  0.3152  0.0631
  362MOL0     H47723   4.144   4.853   6.726 -0.7071  0.6601  1.2264
  362MOL0     H47724   4.049   4.776   6.843 -0.2022 -3.4687  0.3959
  362MOL0     H47725   3.985   4.594   6.698  0.5717 -0.2520  0.8085
  362MOL0     H47726   4.133   4.621   6.597 -0.1062  0.1209  0.2148
  362MOL0     H47727   3.888   4.794   6.633  0.5136 -1.2151  1.6786
  362MOL0     H47728   4.020   4.828   6.519 -1.6565  0.7260  0.0012
  362MOL0     H47729   3.885   4.557   6.481  2.4842 -0.4796  1.2177
  362MOL0     H47730   3.970   4.664   6.371 -1.7745  2.3633 -1.5903
  362MOL0     H47731   3.805   4.835   6.396  4.0396 -2.1075  2.6300
  362MOL0     H47732   3.702   4.750   6.502  2.1073  2.5940  0.9010
  362MOL0     H47733   3.759   4.673   6.211 -1.4414  1.3203 -1.1550
  362MOL0     H47734   3.681   4.570   6.336  2.0907  0.8793  2.3164
  362MOL0     H47735   3.484   4.725   6.349  1.3453 -0.5127  0.0451
  362MOL0     H47736   3.511   4.634   6.202  0.8409 -1.7505  1.8276
  362MOL0     H47737   3.612   4.987   6.352  1.2671 -1.1185  0.4903
  362MOL0     H47738   3.644   5.222   6.181 -1.0008  4.1212  3.5626
  362MOL0     H47739   3.499   5.241   6.275 -0.1577 -1.1741  0.1964
  362MOL0     H47740   3.501   5.238   5.977 -2.6052 -0.7781 -0.4363
  362MOL0     H47741   3.512   5.394   6.077 -1.5656  0.9158  1.7180
  362MOL0     H47742   3.289   5.205   6.077 -0.6436  0.4308 -2.0523
  362MOL0     H47743   3.295   5.349   6.179  0.6325 -1.4056  0.6049
  362MOL0     H47744   3.308   5.330   5.878  1.9209  3.2253 -1.1461
  362MOL0     H47745   3.313   5.484   5.961  1.5293 -0.9592  1.1145
  362MOL0     H47746   3.051   5.202   5.798 -1.2649  0.4950  3.6526
  362MOL0     H47747   2.962   5.267   5.581  0.4857 -0.0028  0.7054
  362MOL0     H47748   2.559   5.402   5.397  0.2465 -1.0687 -0.2382
  362MOL0     H47749   2.422   5.477   5.210  0.3429  0.9323  2.5886
  362MOL0     H47750   2.354   5.593   5.028 -1.3599  0.8456 -2.3190
  362MOL0     H47751   2.353   5.426   4.960  1.0538 -0.4315  1.8257
  362MOL0     H47752   2.404   5.515   4.734  0.2153 -0.1277 -0.3131
  362MOL0     H47753   2.416   5.682   4.804 -2.4767  1.0210  1.2810
  362MOL0     H47754   2.179   5.682   4.848 -0.8373  0.9943 -1.4659
  362MOL0     H47755   2.164   5.513   4.798  1.5894 -0.3631  0.3866
  362MOL0     H47756   2.300   5.726   4.619  0.5677  0.5814  1.2112
  362MOL0     H47757   2.218   5.573   4.575 -1.5136 -1.0873  2.2508
  362MOL0     H47758   2.059   5.802   4.708 -3.9677 -0.3415 -1.2427
  362MOL0     H47759   1.991   5.663   4.623 -2.1593  2.3348 -0.7034
  362MOL0     H47760   2.159   5.886   4.509 -1.5203  1.4257  4.3328
  362MOL0     H47761   1.987   5.892   4.510 -1.7629 -1.6614  0.5633
  362MOL0     H47762   2.097   5.822   4.299 -0.0898 -1.8469 -1.5278
  362MOL0     H47763   2.136   5.668   4.387  0.9138  1.1659  1.6593
  362MOL0     H47764   1.854   5.793   4.329  0.2833  0.0878  1.9223
  362MOL0     H47765   1.886   5.628   4.386  0.8420 -0.0002 -0.1751
  362MOL0     H47766   2.774   5.502   4.959  1.7016 -0.0753  0.5049
  362MOL0     H47767   2.923   5.473   5.176 -0.1650 -0.5741  0.8977
  362MOL0     H47768   2.934   5.675   5.695  4.3564  2.9315  3.3131
  362MOL0     H47769   3.039   5.630   5.898  0.0667  2.9291 -2.2656
  362MOL0     H47770   4.454   4.642   6.994 -0.8270 -0.3873 -0.6735
  362MOL0     H47771   4.704   4.619   7.022 -0.7566 -0.4198 -0.2268
  362MOL0     H47772   5.059   4.427   6.875 -0.3256 -0.4431 -0.2669
  362MOL0     H47773   5.276   4.348   6.910  2.7403 -0.2418 -1.2440
  362MOL0     H47774   5.630   4.631   6.822  0.5852  0.0516 -0.6226
  362MOL0     H47775   5.705   4.504   6.915 -0.1297 -0.4299 -5.1232
  362MOL0     H47776   5.559   4.744   7.030 -0.1143  0.4166 -0.2524
  362MOL0     H47777   5.604   4.593   7.126  3.2114 -0.9834 -0.3739
  362MOL0     H47778   5.802   4.763   6.978 -3.1349 -0.1993 -1.1857
  362MOL0     H47779   5.840   4.615   7.063  1.8201  1.3239 -1.4926
  362MOL0     H47780   5.726   4.739   7.282  0.6546 -2.7380  0.5860
  362MOL0     H47781   5.881   4.795   7.231 -0.3724 -0.9217 -0.4070
  362MOL0     H47782   5.580   5.091   7.129 -3.4709 -3.0525  0.8168
  362MOL0     H47783   5.435   4.752   6.839 -1.9179  1.6036  1.5793
  362MOL0     H47784   5.208   4.814   6.766  0.6872 -0.3016 -0.9706
  363MOL0     O47785   1.170   7.697   1.583  1.0166 -1.0683 -0.2501
  363MOL0     C47786   1.193   7.791   1.508 -0.6350 -0.0344  0.9804
  363MOL0     O47787   1.097   7.861   1.442 -0.0991 -0.3764 -0.1828
  363MOL0     C47788   0.967   7.871   1.479 -0.0495  0.5058 -0.2064
  363MOL0     C47789   0.911   7.848   1.612 -0.1604 -0.1227  0.3344
  363MOL0     C47790   0.776   7.850   1.632 -0.5059  0.1382 -0.6189
  363MOL0     C47791   0.689   7.896   1.536 -0.7207 -0.2479 -0.6554
  363MOL0     O47792   0.559   7.905   1.570  0.8856 -0.2884 -0.1561
  363MOL0     C47793   0.459   7.965   1.486  0.0531 -0.5541  0.0537
  363MOL0     C47794   0.464   8.116   1.491 -0.0873  0.3336  0.2591
  363MOL0     C47795   0.441   8.185   1.352 -0.3445  0.2889  0.0681
  363MOL0     C47796   0.315   8.129   1.291  0.1763 -0.1824  0.2265
  363MOL0     C47797   0.276   8.221   1.175  0.6357 -0.5547 -0.0519
  363MOL0     C47798   0.194   8.151   1.080 -0.3667 -0.5346 -0.0758
  363MOL0     C47799   0.135   8.251   0.984  0.0903  0.2883 -0.2479
  363MOL0     C47800   0.051   8.183   0.871  0.1026 -0.2823  0.2181
  363MOL0     N47801  -0.055   8.096   0.934 -0.0246 -0.0426  0.0208
  363MOL0     C47802  -0.149   8.137   1.020  0.1920 -0.7368  0.2492
  363MOL0     C47803  -0.238   8.040   1.029 -0.1084  0.3223 -0.4568
  363MOL0     C47804  -0.359   8.034   1.126 -0.2311  0.2162  0.1958
  363MOL0     C47805  -0.494   8.053   1.063 -0.4777  0.9097 -0.0562
  363MOL0     C47806  -0.598   8.075   1.174  0.0174  0.1144  0.4924
  363MOL0     C47807  -0.733   8.075   1.129 -0.7229  0.2990 -0.3523
  363MOL0     O47808  -0.835   8.079   1.233 -0.2803 -0.0199 -0.4816
  363MOL0     C47809  -0.963   8.027   1.205 -0.3079  0.5369 -0.2950
  363MOL0     C47810  -1.072   8.083   1.274 -0.7210 -0.2814 -0.8784
  363MOL0     C47811  -1.200   8.044   1.247 -0.4397 -0.2299  1.2689
  363MOL0     C47812  -1.234   7.940   1.147 -0.1507 -0.1306 -0.1397
  363MOL0     C47813  -1.365   7.914   1.087  0.0319 -0.2794 -0.6629
  363MOL0     O47814  -1.472   7.988   1.134  0.0894 -0.3937  0.3357
  363MOL0     C47815  -1.597   7.956   1.080  0.5009 -0.4243  0.2016
  363MOL0     C47816  -1.628   8.007   0.954 -0.0575  1.1354  0.4789
  363MOL0     C47817  -1.755   7.968   0.898  0.2685  0.2168  0.8418
  363MOL0     C47818  -1.848   7.889   0.963 -0.9407  0.6954 -0.2426
  363MOL0     O47819  -1.957   7.854   0.888 -0.1042 -0.2631 -0.3984
  363MOL0     C47820  -2.055   7.773   0.943 -0.2114 -0.2657  0.2821
  363MOL0     C47821  -2.155   7.751   0.829 -0.1390  0.3447  0.0228
  363MOL0     C47822  -2.291   7.781   0.880 -0.2089 -0.0148 -0.1175
  363MOL0     C47823  -2.389   7.790   0.769  0.2692 -0.0606  0.2456
  363MOL0     C47824  -2.528   7.816   0.825  0.4057  0.1641 -0.0772
  363MOL0     C47825  -2.642   7.807   0.720  0.3300  0.3648 -0.6861
  363MOL0     C47826  -2.770   7.844   0.804 -0.2332  0.5195 -0.5866
  363MOL0     C47827  -2.897   7.851   0.721  0.1765  0.2471  0.3176
  363MOL0    Cl47828  -2.921   7.684   0.654 -0.1984 -0.0038 -0.1470
  363MOL0     C47829  -1.814   7.853   1.095  0.8496  0.0009  0.6657
  363MOL0     C47830  -1.691   7.882   1.149 -0.3399 -0.3732 -0.6687
  363MOL0     O47831  -1.374   7.823   1.008  1.1995  0.3719  0.0357
  363MOL0     C47832  -1.124   7.878   1.093 -0.3972  0.1646  0.1675
  363MOL0     C47833  -0.993   7.920   1.120  0.0379 -0.0762 -0.2356
  363MOL0     N47834  -0.185   7.932   0.957  0.1044 -0.2777 -0.8725
  363MOL0     N47835  -0.074   7.969   0.905 -0.3365 -0.1440  0.5772
  363MOL0     C47836   0.744   7.917   1.408 -0.5159 -0.7329 -0.0079
  363MOL0     C47837   0.880   7.905   1.379 -0.1160  0.3661 -0.3066
  363MOL0     C47838   1.329   7.828   1.474  0.2894  0.1697 -0.4613
  363MOL0     C47839   1.436   7.787   1.554 -0.0167  1.3786  0.5168
  363MOL0     C47840   1.566   7.826   1.524 -0.7192 -0.0261 -0.9005
  363MOL0     C47841   1.598   7.906   1.417 -0.2992 -1.5108 -0.2462
  363MOL0     O47842   1.730   7.935   1.374 -0.1194  0.1273 -0.0010
  363MOL0     C47843   1.757   8.042   1.278  0.1811 -0.7264 -0.7972
  363MOL0     C47844   1.905   8.074   1.248 -0.1543  0.3982  0.0526
  363MOL0     C47845   2.005   7.957   1.225 -0.3435 -0.4222 -0.3915
  363MOL0     C47846   2.123   7.991   1.133  0.2957 -0.1638  0.0003
  363MOL0     C47847   2.231   8.064   1.197  0.9126 -0.1794 -0.2070
  363MOL0     C47848   2.320   8.122   1.261 -0.2236  0.4586  0.0214
  363MOL0     C47849   1.489   7.946   1.338 -1.1486  0.3707  0.6732
  363MOL0     C47850   1.354   7.911   1.360  0.0484  1.1919 -0.3252
  363MOL0     H47851   0.976   7.822   1.695  0.0548 -0.1555  0.1561
  363MOL0     H47852   0.735   7.828   1.729 -0.0099 -1.8236 -0.8090
  363MOL0     H47853   0.358   7.929   1.510 -0.4460 -0.5773 -1.8851
  363MOL0     H47854   0.472   7.933   1.382 -1.8454 -0.1008 -0.3605
  363MOL0     H47855   0.561   8.139   1.535  1.1780  0.9610 -2.6376
  363MOL0     H47856   0.392   8.158   1.563  0.6464  0.8630  0.7025
  363MOL0     H47857   0.529   8.172   1.288 -0.5706 -0.1662 -0.1481
  363MOL0     H47858   0.422   8.291   1.372 -0.6288  0.5579 -1.4945
  363MOL0     H47859   0.339   8.031   1.249  0.5915  1.0100 -2.5325
  363MOL0     H47860   0.233   8.116   1.362 -1.8432 -0.5447 -2.0154
  363MOL0     H47861   0.371   8.257   1.134  0.6233  1.6069  1.6371
  363MOL0     H47862   0.230   8.307   1.223 -1.8071 -0.9023 -1.6323
  363MOL0     H47863   0.107   8.098   1.121 -0.8798 -0.6779 -1.3126
  363MOL0     H47864   0.259   8.087   1.020  0.6799  0.2936  0.1548
  363MOL0     H47865   0.068   8.327   1.024 -1.0090 -0.2826 -0.9436
  363MOL0     H47866   0.211   8.312   0.935  0.6749 -0.8557 -0.8111
  363MOL0     H47867   0.107   8.111   0.810 -0.9831  0.2459 -1.4900
  363MOL0     H47868   0.012   8.266   0.810 -1.1665 -0.8002  0.2830
  363MOL0     H47869  -0.141   8.236   1.065  0.5392 -0.5255 -0.2754
  363MOL0     H47870  -0.349   8.114   1.199 -0.1087  0.1868  0.2113
  363MOL0     H47871  -0.370   7.932   1.164 -0.2286 -0.8909 -2.5054
  363MOL0     H47872  -0.518   7.964   1.003  1.2914  1.1215 -1.1527
  363MOL0     H47873  -0.501   8.139   0.996 -1.1949  0.9992  0.1195
  363MOL0     H47874  -0.589   7.993   1.246 -0.6535 -3.0241 -2.7529
  363MOL0     H47875  -0.585   8.174   1.219 -1.3417  1.0098 -0.9939
  363MOL0     H47876  -0.736   7.979   1.078 -2.6975 -0.5937  1.2896
  363MOL0     H47877  -0.751   8.150   1.051  0.2930 -1.2529 -2.1571
  363MOL0     H47878  -1.049   8.159   1.348 -1.4973 -0.3275 -0.5738
  363MOL0     H47879  -1.285   8.102   1.283 -0.1813  1.0956 -0.1624
  363MOL0     H47880  -1.550   8.065   0.905  0.9800  0.4080  1.1992
  363MOL0     H47881  -1.791   8.014   0.807  0.4812  0.4194  0.8599
  363MOL0     H47882  -2.105   7.818   1.030  0.4098  1.1252 -0.0572
  363MOL0     H47883  -2.016   7.679   0.983 -0.8912 -0.9658 -0.6338
  363MOL0     H47884  -2.145   7.649   0.793  3.3219 -0.4139  2.5720
  363MOL0     H47885  -2.143   7.822   0.746 -0.5976  1.3284  0.7707
  363MOL0     H47886  -2.289   7.882   0.923 -0.6037  1.4898 -3.3168
  363MOL0     H47887  -2.316   7.705   0.954 -1.9698 -1.1490 -1.7836
  363MOL0     H47888  -2.371   7.871   0.698 -1.5336 -1.1315 -1.5388
  363MOL0     H47889  -2.389   7.698   0.709 -1.2720 -1.2360  1.9258
  363MOL0     H47890  -2.528   7.916   0.869  3.6831  0.3165 -0.1434
  363MOL0     H47891  -2.555   7.741   0.901 -2.3200 -0.0580 -1.1700
  363MOL0     H47892  -2.632   7.709   0.673  0.3402  0.5923 -1.1615
  363MOL0     H47893  -2.635   7.882   0.641 -3.6243 -2.5309 -4.1525
  363MOL0     H47894  -2.771   7.769   0.884 -0.7410 -0.0423 -1.1114
  363MOL0     H47895  -2.765   7.943   0.852 -1.9588  0.9486 -1.1968
  363MOL0     H47896  -2.893   7.926   0.642 -0.2219  1.3430  1.3041
  363MOL0     H47897  -2.976   7.870   0.794  0.2887 -1.0577  0.8208
  363MOL0     H47898  -1.889   7.790   1.144 -1.9266  0.5239 -2.5395
  363MOL0     H47899  -1.667   7.836   1.244 -1.2514 -0.2019 -0.3470
  363MOL0     H47900  -1.143   7.805   1.015  0.4196  1.2827 -1.1435
  363MOL0     H47901  -0.907   7.872   1.073  1.4950  1.4734  0.6995
  363MOL0     H47902   0.675   7.946   1.329 -0.6798 -1.0244  0.0287
  363MOL0     H47903   0.920   7.926   1.280 -2.0152  0.9875 -0.9963
  363MOL0     H47904   1.420   7.725   1.642 -2.0329  1.0492 -0.0276
  363MOL0     H47905   1.645   7.790   1.590 -0.8283 -1.4657 -1.5076
  363MOL0     H47906   1.721   8.136   1.323  2.7149 -0.1597  0.2268
  363MOL0     H47907   1.708   8.007   1.187  0.3574 -0.9453 -0.8095
  363MOL0     H47908   1.904   8.141   1.162 -0.7464 -0.1745 -0.3984
  363MOL0     H47909   1.948   8.117   1.339  3.9958  0.4161 -1.6672
  363MOL0     H47910   1.955   7.869   1.183  3.1555 -3.2517  0.9038
  363MOL0     H47911   2.044   7.926   1.322 -0.2098  1.6902  0.2877
  363MOL0     H47912   2.159   7.892   1.100  0.0754 -0.3722  0.3758
  363MOL0     H47913   2.094   8.043   1.042  3.4896  0.0358 -1.0122
  363MOL0     H47914   2.401   8.170   1.312  1.7190 -1.7157 -0.8222
  363MOL0     H47915   1.515   8.011   1.256 -1.0151  0.8451  1.0858
  363MOL0     H47916   1.282   7.945   1.287 -0.2427  1.4286  0.0643
  364MOL0     O47917  10.767   1.737   9.539  0.8133  0.1280 -0.1256
  364MOL0     C47918  10.866   1.710   9.602 -0.2358 -0.4026 -0.2074
  364MOL0     O47919  10.861   1.633   9.712 -0.3234 -0.4731  0.1936
  364MOL0     C47920  10.749   1.581   9.765  0.4949 -0.5806 -0.8599
  364MOL0     C47921  10.619   1.576   9.723  0.3699 -0.3148  0.3643
  364MOL0     C47922  10.520   1.507   9.785  0.1064 -0.9107  0.7476
  364MOL0     C47923  10.548   1.433   9.899 -0.1794 -0.4404 -0.5136
  364MOL0     O47924  10.457   1.353   9.973 -0.1105 -0.4310  0.3657
  364MOL0     C47925  10.319   1.374   9.950 -0.3785 -0.2319 -0.8686
  364MOL0     C47926  10.275   1.515  10.008 -0.0500 -0.3466 -0.2519
  364MOL0     C47927  10.119   1.521   9.988  0.2809  0.2482 -0.4511
  364MOL0     C47928  10.063   1.661  10.043 -0.7109 -0.2074 -0.3908
  364MOL0     C47929   9.907   1.653  10.040 -0.4136 -0.7776 -0.5501
  364MOL0     C47930   9.859   1.798  10.054  0.6146  0.5620 -0.1476
  364MOL0     C47931   9.702   1.799  10.043 -0.0871  1.0353  0.1336
  364MOL0     C47932   9.630   1.791  10.179  0.0275  0.4509  0.0305
  364MOL0     N47933   9.495   1.729  10.178 -0.0673 -0.4941 -0.4196
  364MOL0     C47934   9.420   1.674  10.288  0.7789  0.2078  0.1858
  364MOL0     C47935   9.295   1.651  10.243  0.3787  0.5496 -0.4744
  364MOL0     C47936   9.170   1.619  10.327 -0.3265 -0.0481  0.7366
  364MOL0     C47937   9.059   1.574  10.235  0.1748 -0.2930 -0.4546
  364MOL0     C47938   8.931   1.548  10.332 -0.2134  0.2844  0.1076
  364MOL0     C47939   8.801   1.526  10.267  0.3648 -0.1378 -0.3372
  364MOL0     O47940   8.804   1.422  10.169  0.3112 -0.3327  0.3975
  364MOL0     C47941   8.676   1.373  10.124 -0.7659 -0.4410 -0.3843
  364MOL0     C47942   8.552   1.439  10.148 -0.0258 -0.3419 -1.8788
  364MOL0     C47943   8.432   1.378  10.102  0.7256  0.8699  0.3601
  364MOL0     C47944   8.435   1.257  10.028 -0.0157  0.0939  0.0036
  364MOL0     C47945   8.309   1.180   9.995 -0.1080 -0.5925  1.0795
  364MOL0     O47946   8.196   1.255  10.003  0.1810 -0.1954 -0.1562
  364MOL0     C47947   8.068   1.204   9.989 -0.0113 -0.1575 -0.6065
  364MOL0     C47948   7.971   1.273  10.059 -0.5754 -0.1205 -0.1155
  364MOL0     C47949   7.832   1.253  10.043  0.7638  0.1819 -0.3570
  364MOL0     C47950   7.792   1.151   9.952  0.2630 -0.3289  0.4908
  364MOL0     O47951   7.661   1.108   9.926 -0.7467 -0.8318 -0.2883
  364MOL0     C47952   7.547   1.184   9.980  0.6921  0.2102  0.5841
  364MOL0     C47953   7.418   1.118   9.945  0.2786  0.8614 -0.0271
  364MOL0     C47954   7.286   1.182  10.003 -0.0874 -0.0000  0.1314
  364MOL0     C47955   7.160   1.129   9.938  0.5872  0.1544  0.5536
  364MOL0     C47956   7.037   1.114  10.031  0.0547  0.8376  0.0311
  364MOL0     C47957   6.922   1.066   9.946  0.6042  1.0758  0.0649
  364MOL0     C47958   6.832   0.977  10.039  0.0379  0.4470 -0.0040
  364MOL0     C47959   6.722   0.908   9.962  0.6930  0.2145 -0.1967
  364MOL0    Cl47960   6.625   1.030   9.893  0.1184  0.3857  0.5546
  364MOL0     C47961   7.890   1.064   9.903 -0.1588  0.2464  1.5696
  364MOL0     C47962   8.026   1.098   9.905 -0.1654 -0.2308  0.7669
  364MOL0     O47963   8.310   1.062   9.978 -0.2711  0.8336  0.1419
  364MOL0     C47964   8.560   1.192  10.014 -0.0051  0.0278 -0.7534
  364MOL0     C47965   8.671   1.254  10.055  0.0192 -0.3608 -0.4971
  364MOL0     N47966   9.293   1.699  10.112  0.2833  0.5325 -0.1267
  364MOL0     N47967   9.411   1.740  10.076 -0.1923  0.5968 -0.1204
  364MOL0     C47968  10.675   1.435   9.944 -0.1101  0.3442 -0.2515
  364MOL0     C47969  10.774   1.516   9.882  0.5135 -0.2725 -0.8186
  364MOL0     C47970  10.998   1.773   9.575  0.7770  0.7551  0.8350
  364MOL0     C47971  11.110   1.730   9.648 -0.3430  0.3479  0.4446
  364MOL0     C47972  11.239   1.777   9.613 -0.8775  0.6838  0.3430
  364MOL0     C47973  11.244   1.879   9.518 -0.3740  0.9083  0.1770
  364MOL0     O47974  11.365   1.935   9.485 -0.7708 -0.2949 -0.7266
  364MOL0     C47975  11.490   1.878   9.534  0.3765 -0.4459  0.6707
  364MOL0     C47976  11.614   1.937   9.472 -0.5379 -0.0455 -0.5501
  364MOL0     C47977  11.746   1.860   9.503 -0.6760 -1.4219 -0.3942
  364MOL0     C47978  11.869   1.907   9.423 -0.4250  0.5759  0.2792
  364MOL0     C47979  11.990   1.838   9.465  0.3222 -0.6185  0.3253
  364MOL0     C47980  12.069   1.755   9.489 -0.7742 -1.0089 -0.0332
  364MOL0     C47981  11.132   1.933   9.459 -0.0186  0.3030  0.0770
  364MOL0     C47982  11.010   1.871   9.477  0.5607  0.2650 -0.5360
  364MOL0     H47983  10.603   1.628   9.628  0.8875  3.8358  2.3111
  364MOL0     H47984  10.423   1.521   9.740  0.0380  3.1303  1.7488
  364MOL0     H47985  10.266   1.298  10.009  1.2126 -0.4001  0.4243
  364MOL0     H47986  10.294   1.359   9.844 -1.0834  1.3493 -0.9530
  364MOL0     H47987  10.317   1.602   9.958  0.4825  0.9114  2.2223
  364MOL0     H47988  10.299   1.518  10.115 -1.4235  2.6641  0.0569
  364MOL0     H47989  10.058   1.448  10.041 -2.1414  1.8099 -0.9377
  364MOL0     H47990  10.100   1.511   9.881  3.2073 -0.8443 -0.9669
  364MOL0     H47991  10.098   1.686  10.143  1.2730 -0.7846 -0.8926
  364MOL0     H47992  10.105   1.740   9.979  1.0164  0.5312  1.5524
  364MOL0     H47993   9.867   1.590  10.121  0.0441  0.4019  0.6388
  364MOL0     H47994   9.875   1.620   9.941 -2.0186 -0.2712 -0.2393
  364MOL0     H47995   9.882   1.854   9.963 -0.9837  0.8460 -0.4158
  364MOL0     H47996   9.905   1.850  10.138 -0.5081  1.6237 -0.1658
  364MOL0     H47997   9.673   1.888   9.987  4.2797  1.6818 -1.4085
  364MOL0     H47998   9.674   1.718   9.974  0.6292  1.3860 -0.5816
  364MOL0     H47999   9.630   1.889  10.227 -1.0578 -0.1123  1.2583
  364MOL0     H48000   9.696   1.728  10.239  1.0900  2.8704  1.5369
  364MOL0     H48001   9.454   1.652  10.389 -0.8765 -1.3401  0.4648
  364MOL0     H48002   9.141   1.708  10.383 -0.2020  0.0547  0.6404
  364MOL0     H48003   9.189   1.529  10.386  0.0141 -1.4891 -1.4367
  364MOL0     H48004   9.088   1.486  10.177  0.5967 -1.0283  0.8095
  364MOL0     H48005   9.045   1.654  10.163  1.8077 -1.2291 -1.9072
  364MOL0     H48006   8.959   1.456  10.384  1.1817 -0.2198 -1.4209
  364MOL0     H48007   8.928   1.631  10.403  1.8145  1.0029 -0.5691
  364MOL0     H48008   8.779   1.624  10.223  1.0132  0.0624 -0.2205
  364MOL0     H48009   8.727   1.503  10.344 -0.1826 -1.4733 -1.2210
  364MOL0     H48010   8.556   1.535  10.198  2.1330 -0.8810 -0.8973
  364MOL0     H48011   8.336   1.424  10.123  0.3246  0.4169 -0.4280
  364MOL0     H48012   8.005   1.350  10.128 -2.3715  1.9332 -1.3863
  364MOL0     H48013   7.764   1.315  10.101 -0.4046  0.3995 -1.9053
  364MOL0     H48014   7.543   1.286   9.942 -1.4383 -0.6714 -1.9078
  364MOL0     H48015   7.551   1.183  10.089 -1.2555  1.2938  0.7053
  364MOL0     H48016   7.428   1.013   9.972  5.1555  0.7180 -1.5018
  364MOL0     H48017   7.406   1.114   9.836 -2.7644 -0.9541  0.2521
  364MOL0     H48018   7.286   1.291   9.997 -1.0375 -0.0315 -0.7359
  364MOL0     H48019   7.278   1.152  10.108  1.3746 -0.5839  0.0975
  364MOL0     H48020   7.139   1.192   9.851 -3.2000  1.6719  2.3518
  364MOL0     H48021   7.183   1.028   9.901 -0.3463 -0.3689  1.3496
  364MOL0     H48022   7.004   1.208  10.076  1.8948  0.9898  1.1350
  364MOL0     H48023   7.063   1.043  10.111  0.6436  0.7231 -0.2559
  364MOL0     H48024   6.956   1.026   9.850  0.3819  2.0255 -0.4241
  364MOL0     H48025   6.852   1.144   9.913 -0.0281  0.2751 -0.5083
  364MOL0     H48026   6.898   0.897  10.075 -2.7587 -2.3393 -0.6092
  364MOL0     H48027   6.787   1.031  10.123  0.7253 -0.9588  1.3079
  364MOL0     H48028   6.656   0.852  10.028  0.5291 -1.7969 -1.9241
  364MOL0     H48029   6.757   0.823   9.902 -0.4394 -1.2162  1.1204
  364MOL0     H48030   7.855   0.976   9.850 -0.0401  2.5221 -2.6825
  364MOL0     H48031   8.096   1.054   9.835 -1.3706  1.5031 -1.6754
  364MOL0     H48032   8.568   1.100   9.958 -1.2433 -2.5731  2.9298
  364MOL0     H48033   8.767   1.205  10.041 -1.0012 -2.1893 -1.5069
  364MOL0     H48034  10.687   1.372  10.031  2.2628  0.9625 -0.0718
  364MOL0     H48035  10.879   1.511   9.907  0.7941  1.4432 -1.5423
  364MOL0     H48036  11.111   1.635   9.701  1.5432  0.5067  0.7810
  364MOL0     H48037  11.329   1.738   9.660 -0.0874 -0.6989 -2.1501
  364MOL0     H48038  11.486   1.772   9.506  2.0442 -1.2799  3.1457
  364MOL0     H48039  11.509   1.869   9.642  2.6911  0.7385  0.4355
  364MOL0     H48040  11.603   1.951   9.364  1.7510 -1.3134 -1.0083
  364MOL0     H48041  11.638   2.035   9.516 -0.5632 -1.0550  1.8524
  364MOL0     H48042  11.732   1.756   9.473 -1.0850 -1.2273 -0.8755
  364MOL0     H48043  11.765   1.860   9.611  1.3139 -1.0141 -0.6885
  364MOL0     H48044  11.870   1.899   9.314  1.0530  1.4657  0.1964
  364MOL0     H48045  11.884   2.014   9.441  1.6952  0.2715  0.5522
  364MOL0     H48046  12.146   1.683   9.503 -0.8215 -0.7945  1.4238
  364MOL0     H48047  11.153   2.005   9.381  1.6332 -0.4482 -0.2235
  364MOL0     H48048  10.913   1.894   9.434 -1.7155  1.8474  4.6182
  365MOL0     O48049   2.283   5.423   8.430  0.4774 -0.3450 -0.0478
  365MOL0     C48050   2.294   5.365   8.539 -0.1343  0.0125 -0.1249
  365MOL0     O48051   2.209   5.366   8.639  0.2144 -0.3121 -0.0155
  365MOL0     C48052   2.080   5.423   8.629 -0.1200  0.3641 -0.4077
  365MOL0     C48053   1.984   5.373   8.722  0.2121  0.0673 -0.4407
  365MOL0     C48054   1.846   5.407   8.712  0.2438 -0.4418  0.1617
  365MOL0     C48055   1.815   5.498   8.618  0.2591 -0.3919  0.7438
  365MOL0     O48056   1.688   5.536   8.603 -0.4999 -0.1998  1.0683
  365MOL0     C48057   1.611   5.420   8.549  0.0203  0.1983 -0.0524
  365MOL0     C48058   1.467   5.461   8.493 -0.4547 -0.1475  0.1787
  365MOL0     C48059   1.391   5.514   8.606 -0.5030  0.2553  0.1607
  365MOL0     C48060   1.237   5.535   8.583 -0.4314  0.3115  0.4110
  365MOL0     C48061   1.166   5.551   8.716 -0.6029 -0.1329 -0.2099
  365MOL0     C48062   1.016   5.522   8.701  0.2401  0.3870 -0.0192
  365MOL0     C48063   0.935   5.566   8.811  0.4538  0.7036 -0.6487
  365MOL0     C48064   0.794   5.518   8.785 -0.1953  0.0227 -0.1333
  365MOL0     N48065   0.693   5.585   8.872  0.6981  0.5933 -0.7782
  365MOL0     C48066   0.678   5.721   8.883  1.1580 -0.0343  0.2194
  365MOL0     C48067   0.609   5.733   9.005 -0.5795 -0.4722 -0.1286
  365MOL0     C48068   0.584   5.858   9.074 -0.0639  0.2263 -0.1894
  365MOL0     C48069   0.437   5.894   9.079  0.0280 -0.1443  0.3729
  365MOL0     C48070   0.351   5.780   9.128  0.4031 -0.5621  0.6153
  365MOL0     C48071   0.205   5.834   9.135  0.7786 -0.1335  0.4783
  365MOL0     O48072   0.129   5.733   9.203  0.1425 -0.1838  0.2586
  365MOL0     C48073  -0.006   5.749   9.222  0.0203 -0.4186  0.8463
  365MOL0     C48074  -0.086   5.854   9.179  0.5524 -0.7025 -0.1675
  365MOL0     C48075  -0.222   5.855   9.196 -0.4292 -0.0752 -0.3739
  365MOL0     C48076  -0.288   5.751   9.263 -1.0484  0.7862 -0.3516
  365MOL0     C48077  -0.430   5.753   9.292 -0.1813 -0.3486  0.1735
  365MOL0     O48078  -0.467   5.690   9.401  0.2231 -0.0953  0.4371
  365MOL0     C48079  -0.609   5.683   9.434 -0.0950 -0.1980  0.3153
  365MOL0     C48080  -0.682   5.798   9.460 -0.7899 -0.2663  0.2655
  365MOL0     C48081  -0.816   5.802   9.493  0.5718 -0.2727 -0.3167
  365MOL0     C48082  -0.882   5.681   9.507 -0.6265  0.3641  0.0044
  365MOL0     O48083  -1.014   5.679   9.549  0.2122  0.6919 -0.2736
  365MOL0     C48084  -1.103   5.796   9.533  0.5666 -0.5968  0.3594
  365MOL0     C48085  -1.241   5.736   9.563 -0.2567 -0.2573  0.8965
  365MOL0     C48086  -1.346   5.851   9.544  1.0082 -0.3919 -0.7571
  365MOL0     C48087  -1.487   5.810   9.573  0.2158  0.9221  0.2857
  365MOL0     C48088  -1.599   5.914   9.570 -0.0665 -0.7791 -0.1107
  365MOL0     C48089  -1.728   5.837   9.608  0.0272 -0.5889 -0.4336
  365MOL0     C48090  -1.853   5.928   9.600 -0.3431 -0.2913  0.3058
  365MOL0     C48091  -1.971   5.851   9.659  0.2161  0.4963  0.6887
  365MOL0    Cl48092  -2.115   5.954   9.663 -0.2034 -0.1221  0.2158
  365MOL0     C48093  -0.819   5.561   9.470 -0.2593 -0.2651  0.1435
  365MOL0     C48094  -0.684   5.567   9.425  0.3924 -0.1290  0.4683
  365MOL0     O48095  -0.498   5.824   9.224  0.5119 -0.7940 -0.0294
  365MOL0     C48096  -0.213   5.636   9.307 -0.4688 -0.3128  0.2505
  365MOL0     C48097  -0.067   5.646   9.281  0.3589 -0.6555 -0.1540
  365MOL0     N48098   0.596   5.607   9.070  0.1586  0.1255  0.5215
  365MOL0     N48099   0.651   5.528   8.988 -0.3165 -0.3223 -0.1816
  365MOL0     C48100   1.912   5.560   8.542  0.5762  0.1654 -0.3430
  365MOL0     C48101   2.042   5.526   8.543  0.3823  0.2359  0.6036
  365MOL0     C48102   2.421   5.297   8.565 -0.1630  0.8317  0.1765
  365MOL0     C48103   2.537   5.363   8.517 -0.6003 -0.8621 -0.5716
  365MOL0     C48104   2.659   5.305   8.552  0.0135  0.1563  0.5320
  365MOL0     C48105   2.666   5.188   8.633  0.6083 -0.3584  0.0233
  365MOL0     O48106   2.774   5.107   8.656  0.2639 -0.3238  0.1563
  365MOL0     C48107   2.896   5.154   8.601 -1.0202  0.4212 -0.3093
  365MOL0     C48108   2.969   5.256   8.689 -0.2794 -0.0874  0.1601
  365MOL0     C48109   2.963   5.209   8.831 -0.3818  0.4704  0.7203
  365MOL0     C48110   3.083   5.251   8.924  1.1238 -0.5016  0.6278
  365MOL0     C48111   3.208   5.203   8.875 -0.0115  0.0596  0.2632
  365MOL0     C48112   3.318   5.154   8.851  0.4032  0.3200  0.4121
  365MOL0     C48113   2.552   5.132   8.674  0.2631  0.6741 -0.9800
  365MOL0     C48114   2.428   5.182   8.651 -0.2160 -1.0104  0.1813
  365MOL0     H48115   2.013   5.313   8.807 -0.2407  2.5288  1.5817
  365MOL0     H48116   1.767   5.372   8.778 -0.6877  1.2741  0.0024
  365MOL0     H48117   1.593   5.348   8.630 -1.2590  0.1964 -0.3201
  365MOL0     H48118   1.654   5.355   8.472 -1.2458 -2.5012  1.3773
  365MOL0     H48119   1.409   5.381   8.445 -1.9300  1.3527 -0.6246
  365MOL0     H48120   1.481   5.539   8.417  3.0728  2.9151  3.5254
  365MOL0     H48121   1.430   5.607   8.647 -2.6032  1.0367  0.4828
  365MOL0     H48122   1.402   5.445   8.690 -0.6241 -0.0584 -0.0789
  365MOL0     H48123   1.212   5.617   8.515 -1.6456 -0.5099 -0.1642
  365MOL0     H48124   1.193   5.448   8.534  0.8702  0.7710 -1.7085
  365MOL0     H48125   1.177   5.657   8.740  0.9699  0.1189 -1.8125
  365MOL0     H48126   1.210   5.490   8.795  1.2697  1.0043 -0.3366
  365MOL0     H48127   1.020   5.415   8.680  0.6829  0.5243 -0.6779
  365MOL0     H48128   0.977   5.577   8.615 -1.0648  1.3065  1.1240
  365MOL0     H48129   0.963   5.533   8.912  0.8161 -0.3144 -1.0587
  365MOL0     H48130   0.934   5.675   8.812  0.2439  0.7000  0.5288
  365MOL0     H48131   0.788   5.411   8.806  1.1297  0.0065  0.2545
  365MOL0     H48132   0.758   5.527   8.682 -0.6662  0.9421  0.1033
  365MOL0     H48133   0.696   5.804   8.815 -0.4085  2.3488  2.4815
  365MOL0     H48134   0.630   5.944   9.024 -1.6254  0.4947 -1.2473
  365MOL0     H48135   0.647   5.859   9.164  2.5102  0.0512 -1.8906
  365MOL0     H48136   0.403   5.931   8.982  1.3556  3.5079  1.1300
  365MOL0     H48137   0.429   5.972   9.156  1.2670  1.6124 -1.1898
  365MOL0     H48138   0.345   5.693   9.062 -2.4241  0.0315 -0.0640
  365MOL0     H48139   0.382   5.754   9.230 -0.8475  3.0576  2.0901
  365MOL0     H48140   0.152   5.852   9.042 -3.4719 -3.1381  1.9891
  365MOL0     H48141   0.203   5.933   9.183 -0.6785  2.3358 -4.1322
  365MOL0     H48142  -0.038   5.940   9.132 -1.4337  0.6381  0.1180
  365MOL0     H48143  -0.289   5.937   9.171 -0.9879 -1.0099 -2.0894
  365MOL0     H48144  -0.631   5.891   9.438 -0.1532 -0.9825 -1.4135
  365MOL0     H48145  -0.858   5.898   9.520  0.0936 -0.8888  1.2570
  365MOL0     H48146  -1.100   5.833   9.430 -1.8321 -0.0663  0.4049
  365MOL0     H48147  -1.085   5.881   9.599 -1.6935  1.1078 -1.0286
  365MOL0     H48148  -1.248   5.706   9.668  0.5396  0.0064  1.0333
  365MOL0     H48149  -1.266   5.653   9.496 -3.1379  1.6339 -0.5616
  365MOL0     H48150  -1.352   5.892   9.443  1.8709  1.0655 -0.2424
  365MOL0     H48151  -1.331   5.932   9.616  0.1593 -1.0689  0.2060
  365MOL0     H48152  -1.501   5.726   9.505  1.9679  2.1297 -1.7008
  365MOL0     H48153  -1.507   5.777   9.675  0.8231  0.8495  0.3856
  365MOL0     H48154  -1.619   5.957   9.471  1.0815 -0.2917 -0.1488
  365MOL0     H48155  -1.576   5.992   9.643  0.2226 -1.0598  0.0967
  365MOL0     H48156  -1.711   5.800   9.709  1.3120 -0.6547 -0.6472
  365MOL0     H48157  -1.736   5.752   9.539  1.2202  0.3294 -1.7679
  365MOL0     H48158  -1.838   6.021   9.654 -2.6384  0.3198 -0.0084
  365MOL0     H48159  -1.870   5.963   9.497 -2.8620  1.2337  1.1537
  365MOL0     H48160  -1.957   5.824   9.764 -0.8961  0.8044  0.9290
  365MOL0     H48161  -2.002   5.771   9.592 -3.9289  2.4154 -0.0074
  365MOL0     H48162  -0.875   5.468   9.468  0.5726 -0.7682 -1.4009
  365MOL0     H48163  -0.639   5.472   9.398  0.8577 -0.2346  1.5410
  365MOL0     H48164  -0.250   5.543   9.346 -1.2158 -0.3645 -0.5558
  365MOL0     H48165   0.000   5.563   9.299 -1.8734 -2.3648  0.9069
  365MOL0     H48166   1.889   5.642   8.474  0.6541  1.7801  1.5042
  365MOL0     H48167   2.122   5.572   8.488 -1.0374 -0.1371 -1.9373
  365MOL0     H48168   2.532   5.459   8.467 -2.6301 -1.4686 -1.6688
  365MOL0     H48169   2.745   5.355   8.510 -0.8570  0.4925 -0.9319
  365MOL0     H48170   2.884   5.193   8.499 -2.5032 -0.7597 -0.6280
  365MOL0     H48171   2.956   5.063   8.586 -0.4212  0.2901  2.3097
  365MOL0     H48172   3.068   5.263   8.643 -0.5714 -1.0662 -0.6668
  365MOL0     H48173   2.916   5.351   8.680 -1.4865 -0.8276 -0.8816
  365MOL0     H48174   2.955   5.100   8.830 -3.5805  0.5874  0.6594
  365MOL0     H48175   2.869   5.238   8.880 -0.7584 -0.8074  0.7866
  365MOL0     H48176   3.091   5.360   8.935 -1.1270  0.0496 -2.1362
  365MOL0     H48177   3.068   5.209   9.024  1.8596  1.5256  1.6619
  365MOL0     H48178   3.411   5.108   8.825 -0.6362 -1.4947 -0.3594
  365MOL0     H48179   2.564   5.040   8.731  1.1570  1.5791  0.3573
  365MOL0     H48180   2.331   5.139   8.671 -1.0338  0.8934  0.5583
  366MOL0     O48181   0.684   6.329   4.197 -0.2975 -0.5167  0.0438
  366MOL0     C48182   0.782   6.358   4.273  0.7949 -0.1779  0.0520
  366MOL0     O48183   0.778   6.439   4.384 -0.7528  1.0118 -0.7790
  366MOL0     C48184   0.657   6.472   4.440 -0.2008 -0.5448  0.0119
  366MOL0     C48185   0.544   6.523   4.374 -1.4015  0.4268  0.3465
  366MOL0     C48186   0.431   6.555   4.440  0.0593 -0.7370  0.0435
  366MOL0     C48187   0.415   6.534   4.575  0.5140  0.0626 -0.0135
  366MOL0     O48188   0.298   6.570   4.638 -0.2118 -0.1009 -0.6398
  366MOL0     C48189   0.274   6.496   4.757 -0.0567  0.9397 -0.1625
  366MOL0     C48190   0.121   6.516   4.764 -0.8433  0.2215  0.5189
  366MOL0     C48191   0.080   6.408   4.861 -0.1477  0.3296 -0.4564
  366MOL0     C48192  -0.060   6.447   4.904 -0.3824  0.1460 -0.2242
  366MOL0     C48193  -0.126   6.358   5.014  0.0165 -0.5134 -0.6609
  366MOL0     C48194  -0.273   6.405   5.028  0.2547  0.6259  0.5182
  366MOL0     C48195  -0.346   6.309   5.118 -0.1561 -0.0954 -0.4757
  366MOL0     C48196  -0.317   6.345   5.270  0.2733 -0.3328 -0.1543
  366MOL0     N48197  -0.374   6.237   5.348  0.0849  0.5400 -0.2746
  366MOL0     C48198  -0.504   6.193   5.353  0.3374  0.0865 -0.1724
  366MOL0     C48199  -0.501   6.085   5.438 -0.1634  0.4125 -0.6727
  366MOL0     C48200  -0.605   5.976   5.468 -0.3336  0.8618  0.0795
  366MOL0     C48201  -0.757   6.031   5.463  0.3812 -0.3489  0.0425
  366MOL0     C48202  -0.779   6.095   5.601  0.5457 -0.1417 -0.5395
  366MOL0     C48203  -0.935   6.109   5.620  0.7342 -0.4139 -0.3993
  366MOL0     O48204  -0.944   6.178   5.748  0.6482 -0.6268  0.6979
  366MOL0     C48205  -1.067   6.188   5.805 -0.4690 -0.3202  0.4926
  366MOL0     C48206  -1.073   6.220   5.934 -0.4562  1.0784  0.5239
  366MOL0     C48207  -1.192   6.242   6.006  0.0100 -0.3629  0.5597
  366MOL0     C48208  -1.315   6.224   5.939  0.4163 -0.8703  0.2130
  366MOL0     C48209  -1.444   6.228   6.020  0.4647 -0.2862 -0.5885
  366MOL0     O48210  -1.554   6.220   5.957 -0.2182  0.2140  0.1859
  366MOL0     C48211  -1.674   6.251   6.009  0.0570  0.0123  0.5765
  366MOL0     C48212  -1.725   6.210   6.132 -0.5063  0.3426  0.9573
  366MOL0     C48213  -1.865   6.216   6.155  0.4169  0.8076  0.2335
  366MOL0     C48214  -1.947   6.285   6.070  0.2440  0.1776  0.1564
  366MOL0     O48215  -2.084   6.302   6.099 -0.4397  0.1660  0.2729
  366MOL0     C48216  -2.180   6.317   6.000 -0.2258 -0.2862  0.1149
  366MOL0     C48217  -2.318   6.310   6.061 -0.3847 -0.0369 -0.8871
  366MOL0     C48218  -2.430   6.302   5.963  0.0633 -0.1216  0.6829
  366MOL0     C48219  -2.561   6.356   6.024  0.0360 -0.4757  0.3683
  366MOL0     C48220  -2.667   6.349   5.918  0.1216  0.1965  0.0201
  366MOL0     C48221  -2.799   6.366   5.978 -0.4717  0.0552 -0.0363
  366MOL0     C48222  -2.866   6.240   6.027 -0.0560 -0.1904  0.0933
  366MOL0     C48223  -2.972   6.266   6.137  0.0201 -0.3439 -0.0769
  366MOL0    Cl48224  -3.084   6.412   6.089 -0.4150 -0.0250  0.1093
  366MOL0     C48225  -1.888   6.348   5.957  0.0820  0.3620 -0.2421
  366MOL0     C48226  -1.761   6.323   5.922  0.6347  0.3848  0.6349
  366MOL0     O48227  -1.431   6.242   6.144  0.5603 -0.6622  0.9678
  366MOL0     C48228  -1.310   6.196   5.805 -0.7544 -0.3367  0.4009
  366MOL0     C48229  -1.187   6.178   5.737  0.0748  0.2402 -0.0839
  366MOL0     N48230  -0.371   6.072   5.483  0.4590 -0.2351 -0.0283
  366MOL0     N48231  -0.298   6.168   5.434  0.3245 -0.1909 -0.3947
  366MOL0     C48232   0.526   6.489   4.640 -0.0410 -0.3384  0.3245
  366MOL0     C48233   0.643   6.459   4.573 -0.8309 -0.3379 -0.3123
  366MOL0     C48234   0.914   6.297   4.250 -0.4360  0.3940 -0.0924
  366MOL0     C48235   1.025   6.343   4.328 -0.9603 -0.2763 -0.1805
  366MOL0     C48236   1.148   6.284   4.304 -0.2165  0.6547  0.1206
  366MOL0     C48237   1.162   6.178   4.217  0.3816 -0.5371 -0.1240
  366MOL0     O48238   1.277   6.118   4.177 -0.0868 -0.3570  0.7010
  366MOL0     C48239   1.400   6.159   4.248 -0.4348  0.2953 -0.1718
  366MOL0     C48240   1.512   6.068   4.212 -0.6321  0.3367 -0.5470
  366MOL0     C48241   1.641   6.084   4.294 -0.9856 -0.5032  0.7090
  366MOL0     C48242   1.738   6.188   4.226  0.0866 -0.3166 -0.0842
  366MOL0     C48243   1.861   6.197   4.299 -0.5444 -1.0904 -0.5234
  366MOL0     C48244   1.969   6.224   4.356  0.2554 -0.6840  0.3878
  366MOL0     C48245   1.051   6.140   4.144  0.0710 -0.0547  0.1948
  366MOL0     C48246   0.924   6.195   4.155  0.6405 -0.7361  0.5994
  366MOL0     H48247   0.536   6.546   4.268  1.7504  1.0582  0.1378
  366MOL0     H48248   0.353   6.606   4.384  0.9887  2.1827  1.1959
  366MOL0     H48249   0.329   6.536   4.843  2.2522  0.0355 -1.1557
  366MOL0     H48250   0.299   6.392   4.735 -1.6740  0.7437 -1.2964
  366MOL0     H48251   0.073   6.495   4.668 -4.1372 -0.2446  2.0921
  366MOL0     H48252   0.090   6.614   4.801 -2.3067  0.2525 -0.6766
  366MOL0     H48253   0.139   6.393   4.952 -0.5984 -2.7556 -0.5755
  366MOL0     H48254   0.084   6.306   4.822 -2.5734 -0.4384  1.0738
  366MOL0     H48255  -0.048   6.550   4.937  1.9510  0.5623 -2.0830
  366MOL0     H48256  -0.124   6.446   4.815 -0.6769  1.3352 -0.0366
  366MOL0     H48257  -0.069   6.357   5.108  1.1044 -3.8128 -1.2154
  366MOL0     H48258  -0.123   6.253   4.983  0.5420 -0.2744 -1.4499
  366MOL0     H48259  -0.315   6.403   4.927 -0.7481  0.1994  0.9330
  366MOL0     H48260  -0.275   6.509   5.061 -0.4264  0.9270 -0.4270
  366MOL0     H48261  -0.454   6.316   5.103 -0.2544  1.0480  0.6162
  366MOL0     H48262  -0.323   6.208   5.084 -1.6411 -0.8735  0.7045
  366MOL0     H48263  -0.360   6.440   5.301  0.7506 -0.1427 -0.0798
  366MOL0     H48264  -0.209   6.352   5.284  0.1101  3.0660  0.1033
  366MOL0     H48265  -0.588   6.232   5.296 -0.8841 -0.5958  1.1006
  366MOL0     H48266  -0.589   5.937   5.569 -0.4561 -0.8466 -0.5213
  366MOL0     H48267  -0.584   5.886   5.410 -0.8155  0.7199  0.1231
  366MOL0     H48268  -0.827   5.948   5.445 -1.7556  1.7831 -2.5937
  366MOL0     H48269  -0.764   6.103   5.381  2.8132 -0.0816  0.0005
  366MOL0     H48270  -0.748   6.027   5.681  3.9827 -0.9653 -2.3736
  366MOL0     H48271  -0.733   6.192   5.615 -2.6040  1.5734 -1.0270
  366MOL0     H48272  -0.973   6.007   5.619 -0.5143  0.0294 -1.1351
  366MOL0     H48273  -0.980   6.173   5.543 -2.6321 -0.4283  1.3454
  366MOL0     H48274  -0.980   6.239   5.986  0.9778 -0.1792 -1.4322
  366MOL0     H48275  -1.183   6.288   6.104  0.8557  2.5716 -0.7962
  366MOL0     H48276  -1.656   6.154   6.194  2.1322  0.6826 -1.4591
  366MOL0     H48277  -1.911   6.173   6.244  0.6476 -0.7318 -0.3610
  366MOL0     H48278  -2.156   6.242   5.923  1.6704 -0.3353  0.7041
  366MOL0     H48279  -2.173   6.419   5.961  0.6805 -0.3093  0.2076
  366MOL0     H48280  -2.324   6.396   6.129  3.7095 -1.1229  1.1339
  366MOL0     H48281  -2.308   6.225   6.129  2.8765  1.2867  0.4810
  366MOL0     H48282  -2.448   6.196   5.938  1.0571 -0.0145 -0.6294
  366MOL0     H48283  -2.397   6.340   5.866  3.3785 -1.3305  1.2254
  366MOL0     H48284  -2.582   6.301   6.116 -0.4205 -2.7475 -1.0360
  366MOL0     H48285  -2.549   6.461   6.053 -0.0464 -0.4597  0.3459
  366MOL0     H48286  -2.667   6.255   5.862 -1.5240  1.0402 -1.5021
  366MOL0     H48287  -2.650   6.432   5.848  1.3344  0.6818  0.8489
  366MOL0     H48288  -2.865   6.416   5.906  1.1103  2.1426 -0.1397
  366MOL0     H48289  -2.785   6.427   6.068  0.9880 -0.0416 -0.1680
  366MOL0     H48290  -2.918   6.185   5.949 -1.1479 -1.0039  1.3619
  366MOL0     H48291  -2.789   6.180   6.078 -0.0982  0.0403  0.4340
  366MOL0     H48292  -2.918   6.280   6.232 -1.5434  0.8383  0.6867
  366MOL0     H48293  -3.029   6.173   6.148  3.2082 -2.4174  0.2389
  366MOL0     H48294  -1.956   6.414   5.903  0.1053  1.8193  1.4340
  366MOL0     H48295  -1.717   6.368   5.834 -1.4996  1.5150  0.0743
  366MOL0     H48296  -1.401   6.189   5.746  0.4204 -0.5354 -1.4496
  366MOL0     H48297  -1.194   6.156   5.631  0.1847 -2.2822  0.3671
  366MOL0     H48298   0.529   6.475   4.748  1.2614 -1.7556  0.1426
  366MOL0     H48299   0.717   6.419   4.641  1.3561  1.2283 -1.6335
  366MOL0     H48300   1.024   6.427   4.396  0.5980  1.6007 -2.3265
  366MOL0     H48301   1.239   6.319   4.352  0.7138 -2.8739  1.2240
  366MOL0     H48302   1.383   6.158   4.356 -2.4137 -1.3808 -0.4517
  366MOL0     H48303   1.426   6.262   4.221  0.4315  0.2915  0.6021
  366MOL0     H48304   1.472   5.970   4.237 -0.9382  0.8972  1.2826
  366MOL0     H48305   1.541   6.060   4.106  0.6238 -4.4038 -0.0792
  366MOL0     H48306   1.697   5.990   4.296 -1.7490 -1.0243 -0.7879
  366MOL0     H48307   1.608   6.102   4.397 -0.9004 -1.1152  0.8471
  366MOL0     H48308   1.765   6.152   4.126 -0.5467  0.4488 -0.5425
  366MOL0     H48309   1.684   6.281   4.209  0.9836 -0.0129 -1.4359
  366MOL0     H48310   2.057   6.274   4.392 -0.0885  1.8333 -1.9430
  366MOL0     H48311   1.049   6.059   4.071 -0.2146 -0.1039  0.2556
  366MOL0     H48312   0.839   6.161   4.098  0.3831  3.1654 -1.7434
  367MOL0     O48313   3.317   3.843   2.697  0.5576  1.1250  0.6294
  367MOL0     C48314   3.378   3.736   2.681 -0.2896  0.9254 -0.0975
  367MOL0     O48315   3.329   3.611   2.646 -0.2752 -0.0684 -0.2177
  367MOL0     C48316   3.196   3.586   2.626 -0.0492  0.3095  0.1593
  367MOL0     C48317   3.149   3.472   2.681 -0.2279  0.1209 -0.2106
  367MOL0     C48318   3.016   3.437   2.676 -0.8089  0.0790 -0.2190
  367MOL0     C48319   2.918   3.524   2.626 -0.5309  0.1142  0.4506
  367MOL0     O48320   2.783   3.489   2.643  0.0105 -0.0401  0.8204
  367MOL0     C48321   2.678   3.563   2.573  0.8011  0.0333  0.5144
  367MOL0     C48322   2.537   3.495   2.594 -0.0427 -1.0596 -0.3268
  367MOL0     C48323   2.421   3.594   2.552  0.2827  0.1269 -0.7014
  367MOL0     C48324   2.413   3.611   2.404  0.8521 -0.4533 -0.6254
  367MOL0     C48325   2.289   3.681   2.337  0.0952 -0.6604  0.0923
  367MOL0     C48326   2.167   3.596   2.341  0.2366 -0.0280 -0.4454
  367MOL0     C48327   2.060   3.635   2.237  0.5523  0.1139 -0.0981
  367MOL0     C48328   1.969   3.736   2.305 -0.2360 -0.0827 -0.9634
  367MOL0     N48329   1.864   3.668   2.396  0.0911 -0.3328  0.0676
  367MOL0     C48330   1.746   3.608   2.352  0.4048 -0.2398 -0.6328
  367MOL0     C48331   1.684   3.577   2.468  0.1858  0.0878 -0.6958
  367MOL0     C48332   1.557   3.490   2.469  0.3579 -1.0419 -0.8839
  367MOL0     C48333   1.597   3.348   2.423  0.0226 -0.6519  0.1416
  367MOL0     C48334   1.530   3.248   2.511  0.7198 -0.1326 -0.2250
  367MOL0     C48335   1.379   3.264   2.531 -0.0343 -1.2046  0.4492
  367MOL0     O48336   1.314   3.270   2.403  0.4361 -0.0375  0.3674
  367MOL0     C48337   1.194   3.348   2.393 -0.0740 -0.5744 -0.7329
  367MOL0     C48338   1.098   3.338   2.492  0.4812 -0.2879 -0.1993
  367MOL0     C48339   0.972   3.392   2.479 -0.7319  0.3384 -0.3824
  367MOL0     C48340   0.945   3.467   2.363 -0.8053  0.2451  0.4294
  367MOL0     C48341   0.826   3.553   2.358 -0.1921  0.3311  0.5057
  367MOL0     O48342   0.748   3.559   2.239  0.4901  0.3360 -0.4224
  367MOL0     C48343   0.614   3.585   2.244 -0.0108  0.8309 -0.5343
  367MOL0     C48344   0.516   3.535   2.337 -1.1033 -1.5590 -0.6941
  367MOL0     C48345   0.374   3.574   2.309  0.6847  0.3271  0.3115
  367MOL0     C48346   0.338   3.654   2.197  1.1684  0.1078  0.0691
  367MOL0     O48347   0.199   3.679   2.177  0.7879  0.6251 -0.3935
  367MOL0     C48348   0.156   3.802   2.135  0.0205 -0.5462 -0.2040
  367MOL0     C48349   0.020   3.835   2.197  0.5504 -0.7028  0.0917
  367MOL0     C48350   0.006   3.816   2.351  0.1693  0.5873 -1.0309
  367MOL0     C48351  -0.131   3.784   2.391  0.7659  0.4232 -0.4444
  367MOL0     C48352  -0.153   3.781   2.534  0.8316  0.7450  0.3181
  367MOL0     C48353  -0.297   3.803   2.583 -0.1078  0.6009 -0.0567
  367MOL0     C48354  -0.383   3.678   2.563 -0.0980  0.3552  0.3704
  367MOL0     C48355  -0.502   3.667   2.656  1.2320 -0.7500  0.2389
  367MOL0    Cl48356  -0.603   3.804   2.607  0.5613  0.4408 -0.4568
  367MOL0     C48357   0.438   3.689   2.107 -0.2032  0.5767  0.1184
  367MOL0     C48358   0.574   3.655   2.133  0.1534  0.1637  0.6281
  367MOL0     O48359   0.782   3.591   2.469  0.1595 -0.5974 -0.9286
  367MOL0     C48360   1.033   3.456   2.253 -0.2872 -0.5971 -0.3710
  367MOL0     C48361   1.160   3.394   2.274  0.8488 -0.3300  0.0923
  367MOL0     N48362   1.743   3.631   2.574  0.1091 -0.8669 -0.5566
  367MOL0     N48363   1.853   3.685   2.532 -0.3490  0.0529  0.2592
  367MOL0     C48364   2.963   3.644   2.562  0.3203  0.2435  0.1557
  367MOL0     C48365   3.106   3.673   2.561  0.2918 -0.1376  0.2936
  367MOL0     C48366   3.517   3.728   2.735  0.1231 -0.5327 -0.0595
  367MOL0     C48367   3.588   3.610   2.721  0.8757 -0.1192 -0.1574
  367MOL0     C48368   3.718   3.604   2.765 -0.2740 -0.0944  0.4589
  367MOL0     C48369   3.789   3.715   2.815 -0.2512  0.3191  0.3017
  367MOL0     O48370   3.915   3.692   2.857 -1.0403 -0.4080 -0.1133
  367MOL0     C48371   4.011   3.791   2.835  0.3372 -0.0451  0.3029
  367MOL0     C48372   4.160   3.755   2.861  0.4185  0.1156 -0.1511
  367MOL0     C48373   4.182   3.726   3.011 -0.0058 -0.3252  0.4141
  367MOL0     C48374   4.326   3.690   3.041  0.1932 -0.5245 -0.1049
  367MOL0     C48375   4.348   3.550   3.002 -0.8078  0.0270 -0.5176
  367MOL0     C48376   4.382   3.439   2.965 -0.5717  0.5354  0.9740
  367MOL0     C48377   3.715   3.831   2.827 -0.5172 -0.1071  0.2271
  367MOL0     C48378   3.585   3.842   2.785  0.6860  0.3195  0.2529
  367MOL0     H48379   3.218   3.412   2.739 -0.6934  0.1014  0.3276
  367MOL0     H48380   3.000   3.340   2.721 -0.6840  0.9457  1.8132
  367MOL0     H48381   2.700   3.563   2.466 -1.6757 -1.3779 -0.0922
  367MOL0     H48382   2.673   3.670   2.597  1.4787 -0.3699  2.6539
  367MOL0     H48383   2.526   3.479   2.701  0.9067  1.6174  0.2490
  367MOL0     H48384   2.527   3.393   2.555 -1.2370 -0.9826 -0.2734
  367MOL0     H48385   2.416   3.696   2.591 -0.9914  0.4869 -1.7056
  367MOL0     H48386   2.332   3.539   2.587 -0.2330 -1.1735 -3.7186
  367MOL0     H48387   2.498   3.672   2.373  2.0455 -1.9784 -0.4618
  367MOL0     H48388   2.406   3.509   2.365 -3.3564 -0.3211 -0.7044
  367MOL0     H48389   2.317   3.705   2.234  2.3357 -0.3751  0.7173
  367MOL0     H48390   2.271   3.775   2.390 -0.6401 -1.4066  1.1951
  367MOL0     H48391   2.124   3.604   2.441 -0.2111  2.0856 -0.7707
  367MOL0     H48392   2.199   3.491   2.336  3.6066  0.4914  3.9027
  367MOL0     H48393   2.102   3.667   2.141  1.8803  1.8489  1.0077
  367MOL0     H48394   1.996   3.549   2.212  0.6051  0.0871 -0.1405
  367MOL0     H48395   1.916   3.789   2.225  0.0576  0.6617 -0.6728
  367MOL0     H48396   2.039   3.804   2.356 -0.6638 -1.1546  1.1421
  367MOL0     H48397   1.718   3.578   2.251  1.0237 -0.4464 -0.7494
  367MOL0     H48398   1.485   3.531   2.397 -0.8896 -2.4791 -0.4996
  367MOL0     H48399   1.518   3.487   2.571  3.6283 -0.5268  0.5277
  367MOL0     H48400   1.703   3.328   2.440  1.1924  3.5217 -0.9794
  367MOL0     H48401   1.576   3.331   2.317 -3.2946 -1.4948  0.8022
  367MOL0     H48402   1.543   3.150   2.463 -0.8694 -0.8657  0.7587
  367MOL0     H48403   1.576   3.260   2.609  0.8098  3.1869 -0.5473
  367MOL0     H48404   1.363   3.356   2.588 -0.3127 -0.5492 -0.6571
  367MOL0     H48405   1.344   3.175   2.582 -0.1895 -0.0458  2.4565
  367MOL0     H48406   1.121   3.274   2.577 -2.6577 -0.4375  0.6604
  367MOL0     H48407   0.910   3.387   2.568  1.4561  1.6923  1.3213
  367MOL0     H48408   0.544   3.488   2.431  0.6280  0.3607 -0.1745
  367MOL0     H48409   0.294   3.536   2.371 -0.2517  0.3766 -0.8531
  367MOL0     H48410   0.153   3.821   2.028  0.0089  1.3313  0.1024
  367MOL0     H48411   0.230   3.877   2.164  0.9839 -0.6424 -2.2581
  367MOL0     H48412  -0.046   3.763   2.147 -0.3906 -3.0772  4.2444
  367MOL0     H48413  -0.011   3.936   2.170  1.6115 -0.6009 -0.8080
  367MOL0     H48414   0.030   3.904   2.412 -2.9352  0.9859 -0.2023
  367MOL0     H48415   0.072   3.735   2.385  1.4699  2.1039  0.2277
  367MOL0     H48416  -0.201   3.855   2.346  0.8561  0.5534 -0.3780
  367MOL0     H48417  -0.158   3.686   2.351 -3.4808  1.7830 -1.4389
  367MOL0     H48418  -0.102   3.866   2.580 -2.2296  1.7807  2.0653
  367MOL0     H48419  -0.106   3.695   2.583  0.9896  0.7487  0.1773
  367MOL0     H48420  -0.352   3.888   2.541 -0.7342  1.2979  2.0187
  367MOL0     H48421  -0.282   3.820   2.690  2.6430  1.1910 -0.4620
  367MOL0     H48422  -0.426   3.675   2.462  0.6786  1.1899 -0.0037
  367MOL0     H48423  -0.322   3.589   2.585 -1.9416 -1.1020 -0.1551
  367MOL0     H48424  -0.491   3.672   2.765 -0.9085 -2.9284  0.6253
  367MOL0     H48425  -0.551   3.572   2.633  3.2374 -2.3843  2.2473
  367MOL0     H48426   0.409   3.753   2.023 -0.3074  3.5153  2.2304
  367MOL0     H48427   0.645   3.672   2.053  2.4253  0.7457  2.6564
  367MOL0     H48428   1.009   3.517   2.167 -1.1281  2.6992  2.0156
  367MOL0     H48429   1.231   3.386   2.192  1.3419 -0.7419  0.5511
  367MOL0     H48430   2.895   3.704   2.502  1.9998 -1.4373 -3.8096
  367MOL0     H48431   3.145   3.759   2.507 -1.9325  1.2187  0.7171
  367MOL0     H48432   3.541   3.520   2.681 -1.1121  1.5060 -1.6494
  367MOL0     H48433   3.772   3.510   2.761 -1.9149 -1.2292  2.3835
  367MOL0     H48434   3.991   3.880   2.897  1.3885 -1.4040  2.7443
  367MOL0     H48435   4.004   3.833   2.735  1.6940 -1.6481 -0.4965
  367MOL0     H48436   4.199   3.672   2.801 -0.7033 -1.3074  0.9900
  367MOL0     H48437   4.208   3.849   2.835 -0.6106  0.9359  0.8131
  367MOL0     H48438   4.117   3.651   3.055  0.9855  1.1674  5.0062
  367MOL0     H48439   4.158   3.823   3.057  0.5574 -0.1109  0.2734
  367MOL0     H48440   4.391   3.748   2.975  3.4772 -3.4344  0.2317
  367MOL0     H48441   4.342   3.712   3.147 -1.0987 -1.6164  0.3516
  367MOL0     H48442   4.422   3.343   2.939  0.3007  1.4605 -1.3638
  367MOL0     H48443   3.755   3.920   2.875 -2.5923  0.8719  0.2424
  367MOL0     H48444   3.544   3.942   2.793  1.8682  0.9780 -1.3945
  368MOL0     O48445   8.574   8.550  11.123  0.1023  0.0872 -0.2342
  368MOL0     C48446   8.680   8.493  11.087 -0.5289  0.6610 -0.5062
  368MOL0     O48447   8.694   8.424  10.970 -0.5790  0.3022 -0.5528
  368MOL0     C48448   8.584   8.411  10.892 -0.3994  0.6094 -0.0637
  368MOL0     C48449   8.537   8.284  10.860  0.8169 -0.3474  0.5548
  368MOL0     C48450   8.437   8.281  10.759 -0.1595  0.4292 -0.0115
  368MOL0     C48451   8.373   8.390  10.713 -1.0679 -0.4390 -0.2089
  368MOL0     O48452   8.268   8.375  10.626  0.2137  0.0350  0.6823
  368MOL0     C48453   8.184   8.484  10.601  0.3992 -0.1642  0.1861
  368MOL0     C48454   8.066   8.431  10.515  0.9899 -0.1563 -0.1394
  368MOL0     C48455   7.964   8.348  10.596  0.1728  0.0474  0.5351
  368MOL0     C48456   7.835   8.324  10.508  0.3313 -1.0451 -0.3044
  368MOL0     C48457   7.732   8.224  10.574 -0.2826 -0.6871  0.1164
  368MOL0     C48458   7.611   8.221  10.483  0.4600  1.2853  0.4010
  368MOL0     C48459   7.495   8.137  10.553 -1.0060 -0.3590  0.1561
  368MOL0     C48460   7.374   8.115  10.470  0.9539 -0.2107 -0.6741
  368MOL0     N48461   7.264   8.044  10.543  0.1140 -0.4331 -0.5178
  368MOL0     C48462   7.221   8.051  10.675  0.9343  0.8965 -0.3420
  368MOL0     C48463   7.113   7.963  10.682  0.8178 -0.1063  0.2809
  368MOL0     C48464   7.015   7.940  10.798 -1.0515 -0.0534  0.9296
  368MOL0     C48465   6.869   7.912  10.763 -0.5159 -0.2525  0.5244
  368MOL0     C48466   6.797   8.049  10.734 -0.6378  0.4145  0.2187
  368MOL0     C48467   6.652   8.033  10.769  0.9387  0.3758 -0.0948
  368MOL0     O48468   6.603   8.166  10.766  0.0655  1.1281 -0.7677
  368MOL0     C48469   6.473   8.186  10.800  0.1874  0.1972 -0.3283
  368MOL0     C48470   6.367   8.117  10.738 -0.6065 -0.1847  0.8762
  368MOL0     C48471   6.235   8.164  10.741  0.9040  0.1362  0.5141
  368MOL0     C48472   6.207   8.282  10.814  0.0827 -0.4601  0.0730
  368MOL0     C48473   6.070   8.337  10.826  0.6176 -0.4700  0.8371
  368MOL0     O48474   6.035   8.409  10.941 -0.1707 -0.1048  0.4064
  368MOL0     C48475   5.913   8.445  10.965  0.0740 -0.3134  0.0626
  368MOL0     C48476   5.880   8.578  10.991 -0.5152 -0.2776 -0.0942
  368MOL0     C48477   5.753   8.605  11.053  0.7576 -0.3286  0.9217
  368MOL0     C48478   5.659   8.511  11.081  0.2059 -0.3660  0.9166
  368MOL0     O48479   5.541   8.529  11.148 -0.3345  0.0316  0.2545
  368MOL0     C48480   5.498   8.668  11.165 -0.3300 -0.2259  0.1695
  368MOL0     C48481   5.345   8.690  11.171 -0.2327  1.0581  0.1986
  368MOL0     C48482   5.303   8.828  11.214  0.6416  1.1364  1.3603
  368MOL0     C48483   5.149   8.856  11.216 -0.3776 -0.0629 -0.0708
  368MOL0     C48484   5.124   8.986  11.287  0.7245  0.7948  0.4877
  368MOL0     C48485   4.978   9.000  11.332  0.2954  0.2525 -0.2900
  368MOL0     C48486   4.869   8.985  11.230  0.2293  0.6741 -0.2396
  368MOL0     C48487   4.730   8.976  11.294 -0.5168 -0.6183  0.7668
  368MOL0    Cl48488   4.609   8.949  11.165 -0.1259  0.1953 -0.0264
  368MOL0     C48489   5.691   8.382  11.051 -0.2068  0.0519 -0.2370
  368MOL0     C48490   5.816   8.349  10.992  0.4513 -0.1262 -0.1667
  368MOL0     O48491   5.998   8.328  10.732 -0.1223  0.2932 -0.1480
  368MOL0     C48492   6.303   8.352  10.889 -0.6186 -0.4423 -0.0195
  368MOL0     C48493   6.434   8.301  10.874 -0.2008  0.0150 -0.4987
  368MOL0     N48494   7.101   7.904  10.555  0.1519 -0.2050  0.4985
  368MOL0     N48495   7.193   7.954  10.476  0.3935 -0.3107 -0.2441
  368MOL0     C48496   8.423   8.521  10.745 -0.4936 -0.5570  0.3527
  368MOL0     C48497   8.530   8.527  10.832  0.0029  0.2832  0.0875
  368MOL0     C48498   8.790   8.504  11.186  0.3924  0.5432 -0.2132
  368MOL0     C48499   8.916   8.441  11.156  0.2979  0.5260 -0.5594
  368MOL0     C48500   9.006   8.437  11.265  0.3458 -0.0803  0.3540
  368MOL0     C48501   8.991   8.517  11.383  0.5516  0.9130  0.4412
  368MOL0     O48502   9.087   8.516  11.483  0.6078 -1.0275  0.0381
  368MOL0     C48503   9.150   8.642  11.505  0.1757  0.1247  1.1368
  368MOL0     C48504   9.271   8.658  11.408  0.8105 -0.9058 -0.2313
  368MOL0     C48505   9.377   8.562  11.454 -0.3599  0.5446 -0.6198
  368MOL0     C48506   9.499   8.576  11.363  0.4033  0.1957  0.4553
  368MOL0     C48507   9.623   8.506  11.415 -0.4552  0.2226  0.6270
  368MOL0     C48508   9.724   8.467  11.473  0.3242 -0.2075  0.0873
  368MOL0     C48509   8.870   8.596  11.399  0.0768  0.2846 -0.0653
  368MOL0     C48510   8.776   8.595  11.302  0.3392 -0.1654  1.3008
  368MOL0     H48511   8.576   8.186  10.885  1.8169 -0.4380 -1.1875
  368MOL0     H48512   8.399   8.189  10.717  0.4912  1.1303 -2.2601
  368MOL0     H48513   8.225   8.570  10.547 -0.9053 -0.5668 -1.5681
  368MOL0     H48514   8.142   8.516  10.696 -1.6911  0.4156 -0.8708
  368MOL0     H48515   8.113   8.366  10.441  3.9852 -1.3762  2.5863
  368MOL0     H48516   8.005   8.503  10.461 -1.6122 -2.1547 -0.0435
  368MOL0     H48517   7.929   8.401  10.685 -0.6313 -0.7686  0.7200
  368MOL0     H48518   8.017   8.258  10.627 -1.3415 -0.4631  1.8234
  368MOL0     H48519   7.789   8.422  10.493  2.5216 -0.2509 -2.4028
  368MOL0     H48520   7.864   8.301  10.405 -0.0810  3.6128 -1.6762
  368MOL0     H48521   7.716   8.266  10.674  1.3146 -2.7253  1.3284
  368MOL0     H48522   7.782   8.129  10.598  3.7822  1.6492  2.0194
  368MOL0     H48523   7.635   8.178  10.385  1.5903 -0.6334  1.4609
  368MOL0     H48524   7.577   8.323  10.465  0.1707  1.4517  1.8120
  368MOL0     H48525   7.549   8.045  10.576  1.0169  0.9579  0.9705
  368MOL0     H48526   7.478   8.189  10.648  3.1981  0.3316  0.6908
  368MOL0     H48527   7.399   8.048  10.387 -1.0193 -2.8577  0.7230
  368MOL0     H48528   7.337   8.213  10.439  0.7064 -0.1790 -0.2891
  368MOL0     H48529   7.241   8.124  10.752 -2.4294 -0.0053  1.5677
  368MOL0     H48530   7.017   8.017  10.877 -0.0260 -0.2522  1.1045
  368MOL0     H48531   7.050   7.847  10.843 -1.7560 -0.8305 -0.0881
  368MOL0     H48532   6.835   7.862  10.853  3.2227 -0.7075  1.8758
  368MOL0     H48533   6.865   7.854  10.670  0.5924  2.3633 -1.2859
  368MOL0     H48534   6.836   8.126  10.800 -0.2283 -0.6695  1.2613
  368MOL0     H48535   6.793   8.087  10.631 -0.8573  0.3454  0.2004
  368MOL0     H48536   6.648   7.988  10.868  0.4961 -0.9972 -0.7188
  368MOL0     H48537   6.602   7.972  10.694 -0.8945  2.2192 -0.4704
  368MOL0     H48538   6.402   8.032  10.680  0.2190 -0.4740  1.7883
  368MOL0     H48539   6.145   8.123  10.695  0.6305  1.2894 -0.0217
  368MOL0     H48540   5.963   8.646  10.975 -1.3964  0.5092 -1.5130
  368MOL0     H48541   5.740   8.709  11.081 -3.8348 -0.2286 -0.7708
  368MOL0     H48542   5.528   8.735  11.083 -1.7491 -0.4734 -0.5928
  368MOL0     H48543   5.556   8.710  11.248  2.1026 -0.8867 -1.0949
  368MOL0     H48544   5.314   8.620  11.249  1.2824  3.4274  3.1437
  368MOL0     H48545   5.291   8.671  11.078 -2.5337 -1.7585  1.9498
  368MOL0     H48546   5.339   8.904  11.145  1.1812 -1.5294 -1.4863
  368MOL0     H48547   5.339   8.838  11.317  1.6095 -0.8787  1.2473
  368MOL0     H48548   5.106   8.861  11.116  1.2289 -0.7573 -0.8289
  368MOL0     H48549   5.104   8.771  11.269 -0.3805 -0.8389 -1.2845
  368MOL0     H48550   5.158   9.068  11.223  0.0199 -0.6875 -1.9174
  368MOL0     H48551   5.184   8.986  11.378 -1.8567 -0.0665  2.3279
  368MOL0     H48552   4.964   9.101  11.371  1.5156  0.6031 -0.7219
  368MOL0     H48553   4.958   8.931  11.414 -0.5206 -1.8392 -2.1349
  368MOL0     H48554   4.864   9.067  11.157  0.3340  0.6584 -0.2671
  368MOL0     H48555   4.895   8.911  11.154  3.5047  3.7801 -2.4753
  368MOL0     H48556   4.700   9.074  11.333  2.2145  1.7628 -2.4892
  368MOL0     H48557   4.732   8.903  11.375  0.6167  2.1440  3.4505
  368MOL0     H48558   5.627   8.301  11.085  0.5645 -1.3709 -1.9749
  368MOL0     H48559   5.847   8.245  10.986  1.8898  0.2889 -0.4696
  368MOL0     H48560   6.271   8.445  10.934  4.7990  3.0587 -2.3456
  368MOL0     H48561   6.510   8.357  10.928 -1.6694  0.8898  0.7486
  368MOL0     H48562   8.387   8.614  10.703  2.8496 -0.5736 -3.1498
  368MOL0     H48563   8.582   8.621  10.853  0.3889 -0.5716  3.6202
  368MOL0     H48564   8.921   8.378  11.068 -1.0885  0.5298 -0.6676
  368MOL0     H48565   9.095   8.377  11.253  0.3516  0.1195 -0.7278
  368MOL0     H48566   9.185   8.634  11.608  0.8982  0.6454  0.9380
  368MOL0     H48567   9.088   8.730  11.489  0.3027 -0.0080 -0.2267
  368MOL0     H48568   9.250   8.657  11.301  0.8041  3.4851 -0.4498
  368MOL0     H48569   9.299   8.763  11.424 -0.0288 -0.8730  1.1842
  368MOL0     H48570   9.344   8.460  11.432  1.3670  0.6077 -4.3874
  368MOL0     H48571   9.395   8.583  11.560  0.5046 -3.2624  0.1312
  368MOL0     H48572   9.465   8.534  11.268  0.7764  0.0056  0.4038
  368MOL0     H48573   9.523   8.682  11.353  6.2446 -0.9369 -2.1300
  368MOL0     H48574   9.802   8.430  11.537  1.5453  3.4654  1.0207
  368MOL0     H48575   8.860   8.658  11.487  0.2479  0.0954  0.0864
  368MOL0     H48576   8.696   8.669  11.305  0.7549  0.5916 -2.1161
  369MOL0     O48577   9.504   7.849   5.992 -0.0692 -0.0816 -0.0090
  369MOL0     C48578   9.533   7.948   6.054 -0.4189  0.4625 -0.7121
  369MOL0     O48579   9.434   8.038   6.100 -0.2498 -0.1312 -0.2767
  369MOL0     C48580   9.306   8.047   6.054 -0.3712  0.5132 -0.1784
  369MOL0     C48581   9.239   7.966   5.967  0.7196  0.4575  0.8856
  369MOL0     C48582   9.110   7.989   5.925 -0.1242  0.3358 -0.3893
  369MOL0     C48583   9.036   8.091   5.981 -0.0422 -0.2935 -0.4133
  369MOL0     O48584   8.906   8.095   5.940 -0.2810  0.6237  0.3028
  369MOL0     C48585   8.809   8.164   6.018 -0.0769  0.9336  0.0533
  369MOL0     C48586   8.684   8.210   5.929 -0.0189  0.0394 -0.3988
  369MOL0     C48587   8.603   8.086   5.887 -0.9179 -0.1363 -0.4231
  369MOL0     C48588   8.479   8.110   5.813 -0.1996  0.2608  0.8311
  369MOL0     C48589   8.359   8.157   5.901  0.3596 -0.8725  0.3766
  369MOL0     C48590   8.228   8.179   5.819 -0.0215  0.6069  1.2266
  369MOL0     C48591   8.105   8.229   5.904 -0.3769  0.5266 -0.0087
  369MOL0     C48592   8.024   8.122   5.967  0.1521  0.0048 -0.0599
  369MOL0     N48593   7.904   8.168   6.049  0.0480 -0.0458  0.6062
  369MOL0     C48594   7.768   8.154   6.025 -0.2311 -0.4968 -0.2161
  369MOL0     C48595   7.697   8.183   6.132  0.2618  0.1156 -0.2050
  369MOL0     C48596   7.550   8.139   6.145  0.0885 -1.0001  1.1890
  369MOL0     C48597   7.542   8.039   6.268  0.6836 -0.3422 -0.2580
  369MOL0     C48598   7.408   8.010   6.330  0.4848 -0.0690  0.0611
  369MOL0     C48599   7.324   8.129   6.374 -0.4401 -0.8425 -0.0499
  369MOL0     O48600   7.210   8.087   6.451 -0.3736  0.3865 -0.6399
  369MOL0     C48601   7.226   8.099   6.589  0.2676  0.3188 -0.0048
  369MOL0     C48602   7.348   8.065   6.650  0.3042  0.0422  0.3739
  369MOL0     C48603   7.358   8.080   6.789  0.4206  0.4139  0.3959
  369MOL0     C48604   7.247   8.102   6.874 -0.1953 -0.0647 -0.1592
  369MOL0     C48605   7.268   8.115   7.023 -1.1392 -0.0852  0.2714
  369MOL0     O48606   7.399   8.103   7.068 -0.3498 -0.6835 -0.0258
  369MOL0     C48607   7.447   8.112   7.196  0.0122 -0.7270 -0.1297
  369MOL0     C48608   7.584   8.125   7.216  0.1899 -0.0236 -0.6227
  369MOL0     C48609   7.635   8.138   7.342 -0.2142 -0.5012  0.1948
  369MOL0     C48610   7.552   8.152   7.456 -0.3238 -0.7473  0.6569
  369MOL0     O48611   7.606   8.179   7.581 -0.2743 -0.5209 -0.4181
  369MOL0     C48612   7.712   8.083   7.620  0.3112 -0.5823  0.7100
  369MOL0     C48613   7.688   8.030   7.755  0.4412 -0.1823 -1.0605
  369MOL0     C48614   7.755   7.902   7.781  0.5780 -0.4191 -0.0137
  369MOL0     C48615   7.729   7.852   7.924  0.3648 -0.1947 -0.0687
  369MOL0     C48616   7.770   7.698   7.933 -0.2288  0.0668  0.0648
  369MOL0     C48617   7.743   7.646   8.067  0.2706  0.8396  0.2831
  369MOL0     C48618   7.804   7.512   8.090 -0.7617 -0.8779 -0.6103
  369MOL0     C48619   7.768   7.474   8.236 -0.2270 -0.4100 -0.4979
  369MOL0    Cl48620   7.876   7.592   8.358 -0.2703 -0.6147 -0.7056
  369MOL0     C48621   7.412   8.141   7.434  0.1195  0.0511  0.3276
  369MOL0     C48622   7.358   8.116   7.310  0.4326  0.2271  0.1110
  369MOL0     O48623   7.178   8.152   7.093  0.7832 -0.0392  0.3559
  369MOL0     C48624   7.125   8.118   6.807 -0.1296  0.6628  0.2591
  369MOL0     C48625   7.116   8.126   6.663 -0.4440 -0.1246 -1.1909
  369MOL0     N48626   7.787   8.237   6.219  0.0685 -0.3601  0.9397
  369MOL0     N48627   7.903   8.217   6.173 -0.4077 -0.2346 -0.2308
  369MOL0     C48628   9.092   8.180   6.075 -0.9829  0.0689  0.1413
  369MOL0     C48629   9.229   8.151   6.112 -0.1477 -0.0654  0.4132
  369MOL0     C48630   9.673   7.973   6.088 -1.0636 -0.4391  0.9484
  369MOL0     C48631   9.716   8.094   6.148  0.5659 -0.3784  0.2395
  369MOL0     C48632   9.849   8.115   6.172 -0.0702 -0.7101 -0.2150
  369MOL0     C48633   9.951   8.034   6.130  0.3487 -0.1507  0.4550
  369MOL0     O48634  10.077   8.086   6.136  0.4254  0.1571 -0.1183
  369MOL0     C48635  10.183   8.023   6.065 -0.8365  0.0414  0.2783
  369MOL0     C48636  10.240   7.898   6.122  0.8407 -1.8265 -0.5660
  369MOL0     C48637  10.367   7.930   6.201 -0.2306 -0.1533  0.4041
  369MOL0     C48638  10.430   7.809   6.271  0.4015 -0.0998 -0.9297
  369MOL0     C48639  10.336   7.724   6.358 -0.0064 -0.4349 -0.3913
  369MOL0     C48640  10.264   7.643   6.416 -0.7884 -0.2924  0.2282
  369MOL0     C48641   9.909   7.910   6.073 -0.8072  0.2430  0.1637
  369MOL0     C48642   9.773   7.882   6.046  0.3023  0.4032  0.4135
  369MOL0     H48643   9.280   7.876   5.922  1.6471  0.5416  1.5470
  369MOL0     H48644   9.069   7.915   5.858 -0.3727 -0.2371  0.3734
  369MOL0     H48645   8.841   8.249   6.080  0.0385  0.0210  1.2666
  369MOL0     H48646   8.770   8.092   6.090  1.1109 -1.2903 -1.4146
  369MOL0     H48647   8.718   8.266   5.841  0.4942 -0.0823 -0.2853
  369MOL0     H48648   8.620   8.276   5.987  1.2382 -1.2338  2.6266
  369MOL0     H48649   8.585   8.032   5.981 -1.9074  0.4588 -0.2568
  369MOL0     H48650   8.672   8.023   5.831 -0.7149 -0.3268  0.0309
  369MOL0     H48651   8.503   8.186   5.739  1.7990 -1.6235 -0.5823
  369MOL0     H48652   8.457   8.020   5.754 -2.6612  1.2942  0.0176
  369MOL0     H48653   8.378   8.248   5.958 -0.8924 -0.7688  0.6630
  369MOL0     H48654   8.338   8.082   5.978  0.7272 -2.7716 -1.2927
  369MOL0     H48655   8.197   8.089   5.766 -4.5726  2.1272  0.8949
  369MOL0     H48656   8.254   8.253   5.743 -0.2525 -1.4656 -0.9770
  369MOL0     H48657   8.145   8.302   5.976  0.0073  2.5556 -2.1529
  369MOL0     H48658   8.041   8.285   5.835 -0.7860 -2.4851 -2.2430
  369MOL0     H48659   8.096   8.064   6.026  0.1852 -0.2789 -0.3762
  369MOL0     H48660   7.982   8.057   5.890  0.8056  0.6800 -0.9953
  369MOL0     H48661   7.731   8.099   5.939 -2.6448 -1.8006  1.5408
  369MOL0     H48662   7.524   8.101   6.046  1.3028  2.3680 -0.5941
  369MOL0     H48663   7.498   8.233   6.164  2.5968  0.4848  1.1955
  369MOL0     H48664   7.600   8.077   6.353 -1.1272 -0.5512  1.1407
  369MOL0     H48665   7.593   7.946   6.240 -0.6845 -0.2268 -3.5495
  369MOL0     H48666   7.351   7.943   6.266 -0.7246  0.3897  0.6306
  369MOL0     H48667   7.412   7.948   6.420 -1.0668 -3.3231 -1.9357
  369MOL0     H48668   7.291   8.179   6.283 -1.5642 -0.5480  0.4990
  369MOL0     H48669   7.398   8.193   6.424  0.1966 -1.8933  0.3966
  369MOL0     H48670   7.443   8.048   6.601 -0.2900 -1.6687 -0.2652
  369MOL0     H48671   7.451   8.056   6.840 -0.0314 -1.8817  0.2782
  369MOL0     H48672   7.656   8.117   7.135  1.7907  0.4937  0.6956
  369MOL0     H48673   7.743   8.145   7.346 -0.2082  0.7063 -1.2054
  369MOL0     H48674   7.813   8.125   7.611  0.6999 -1.4243  0.9570
  369MOL0     H48675   7.701   7.994   7.557 -1.3188  0.8368 -1.1074
  369MOL0     H48676   7.580   8.020   7.771  0.2484  2.1121 -0.5198
  369MOL0     H48677   7.732   8.098   7.829  1.2169 -2.0032  0.2288
  369MOL0     H48678   7.861   7.898   7.755  0.7306 -1.0717  0.6634
  369MOL0     H48679   7.701   7.832   7.715  0.7654 -1.2576  0.7018
  369MOL0     H48680   7.785   7.914   7.995  3.1271 -1.1664 -1.2460
  369MOL0     H48681   7.623   7.863   7.948  0.7010 -0.3294  1.6016
  369MOL0     H48682   7.874   7.679   7.907 -0.8883 -1.7651 -1.4672
  369MOL0     H48683   7.715   7.643   7.856 -0.4473  0.1351  0.1701
  369MOL0     H48684   7.633   7.649   8.066  0.2422  1.0310  1.7441
  369MOL0     H48685   7.775   7.715   8.146  1.4446 -0.6875  1.2004
  369MOL0     H48686   7.768   7.431   8.027  0.0342 -1.1527 -0.7194
  369MOL0     H48687   7.913   7.515   8.087 -0.6027 -1.3045  2.0053
  369MOL0     H48688   7.786   7.369   8.262  1.1058  0.1374  0.8827
  369MOL0     H48689   7.660   7.492   8.244  0.4205  5.9578 -1.2834
  369MOL0     H48690   7.350   8.147   7.522  1.3500 -1.1156  1.3067
  369MOL0     H48691   7.250   8.106   7.313  0.4490  0.2654  2.7515
  369MOL0     H48692   7.032   8.125   6.862 -1.1913  1.0204 -1.5104
  369MOL0     H48693   7.021   8.145   6.614 -1.5060 -1.7439  0.0741
  369MOL0     H48694   9.050   8.275   6.107 -0.4401  0.7234 -1.0341
  369MOL0     H48695   9.274   8.216   6.186  0.3115  2.7404 -2.0882
  369MOL0     H48696   9.650   8.174   6.180  0.7145 -0.6076  1.1528
  369MOL0     H48697   9.863   8.206   6.228 -0.6127  1.4175 -3.2522
  369MOL0     H48698  10.265   8.093   6.048 -0.3244 -0.4491  0.6932
  369MOL0     H48699  10.150   8.012   5.962 -0.5105  0.7166  0.0934
  369MOL0     H48700  10.171   7.852   6.193  2.2411  0.3245  2.3901
  369MOL0     H48701  10.263   7.826   6.042  2.3328  1.5773 -3.4931
  369MOL0     H48702  10.340   8.011   6.269 -1.9054 -1.3936  1.2719
  369MOL0     H48703  10.445   7.968   6.134 -1.1666 -1.7070 -1.6632
  369MOL0     H48704  10.473   7.747   6.192 -4.2832  0.1735 -4.0430
  369MOL0     H48705  10.506   7.836   6.346 -1.7829 -0.0310  1.3898
  369MOL0     H48706  10.214   7.556   6.454  1.4609 -2.5722 -1.6549
  369MOL0     H48707   9.977   7.831   6.044 -0.4419  0.0074  1.5868
  369MOL0     H48708   9.746   7.788   5.999  0.6641  0.4705  0.0675
  370MOL0     O48709  10.676   2.123   3.701 -0.3637 -0.0102 -0.0367
  370MOL0     C48710  10.752   2.211   3.743  1.1802  0.2152 -0.3871
  370MOL0     O48711  10.718   2.335   3.788  0.3564 -0.2723 -0.4144
  370MOL0     C48712  10.592   2.388   3.760 -0.2239 -0.0401 -0.8632
  370MOL0     C48713  10.558   2.504   3.822  1.1563  0.3090 -0.8912
  370MOL0     C48714  10.447   2.577   3.793 -0.2290  0.5240 -0.2134
  370MOL0     C48715  10.358   2.532   3.702  0.4444 -0.4106  0.1501
  370MOL0     O48716  10.245   2.607   3.674 -0.6589 -0.4105 -0.3974
  370MOL0     C48717  10.179   2.608   3.544 -0.6144 -0.1104  0.8622
  370MOL0     C48718  10.049   2.515   3.555 -0.7708  0.4970  0.3629
  370MOL0     C48719   9.935   2.605   3.603  0.3568 -0.3912  1.0006
  370MOL0     C48720   9.804   2.517   3.612 -0.4576  0.5030  0.0041
  370MOL0     C48721   9.679   2.594   3.639 -0.0111 -1.0627  0.2588
  370MOL0     C48722   9.561   2.493   3.647  0.0757 -0.5373 -0.0472
  370MOL0     C48723   9.421   2.553   3.614 -0.0390 -0.6118 -0.5608
  370MOL0     C48724   9.321   2.449   3.591 -0.3183  0.5151 -0.3264
  370MOL0     N48725   9.318   2.349   3.697 -0.0663 -0.4806  0.4616
  370MOL0     C48726   9.356   2.220   3.687 -0.3520 -0.1705  0.0188
  370MOL0     C48727   9.309   2.159   3.798 -0.0878 -0.3719 -0.9315
  370MOL0     C48728   9.342   2.016   3.835  0.4837 -0.3411 -0.1884
  370MOL0     C48729   9.354   1.995   3.988 -0.5680 -0.0277  0.3574
  370MOL0     C48730   9.337   1.840   4.010 -0.7913 -0.1480  0.3787
  370MOL0     C48731   9.315   1.810   4.157 -0.6325  0.3569  0.9007
  370MOL0     O48732   9.304   1.669   4.192  0.9887 -0.4089 -0.3846
  370MOL0     C48733   9.429   1.611   4.236  0.3040  0.7682  0.4930
  370MOL0     C48734   9.422   1.475   4.265  0.2965  0.0754 -0.3544
  370MOL0     C48735   9.534   1.404   4.305  0.5379  0.1900 -0.6397
  370MOL0     C48736   9.663   1.462   4.327  0.2632  0.2373  0.5700
  370MOL0     C48737   9.780   1.398   4.376  0.3978  0.0048  0.0821
  370MOL0     O48738   9.895   1.464   4.347  0.7897  0.9064  0.8558
  370MOL0     C48739  10.009   1.427   4.405 -0.2185 -0.6796  0.3665
  370MOL0     C48740  10.032   1.340   4.512  0.5061  0.3626  0.1775
  370MOL0     C48741  10.158   1.307   4.550 -0.2752  0.2561 -0.6331
  370MOL0     C48742  10.266   1.365   4.487 -0.8044  0.7856  0.2177
  370MOL0     O48743  10.390   1.304   4.527 -0.1738  0.0296 -0.3762
  370MOL0     C48744  10.515   1.329   4.453  0.5643  0.4784 -0.1382
  370MOL0     C48745  10.619   1.406   4.538 -0.1982 -0.8833 -0.0761
  370MOL0     C48746  10.759   1.340   4.558  0.3679 -1.1085 -0.6415
  370MOL0     C48747  10.834   1.427   4.669 -0.0194  0.0999 -0.3770
  370MOL0     C48748  10.970   1.367   4.699  0.6223  0.0915  0.1422
  370MOL0     C48749  10.965   1.251   4.800  0.4042 -0.0516 -0.2800
  370MOL0     C48750  11.106   1.191   4.820  0.3353  0.7633 -0.6746
  370MOL0     C48751  11.116   1.113   4.955  1.3651 -0.1077 -0.4563
  370MOL0    Cl48752  11.105   1.222   5.093 -0.0390 -0.0313  0.3332
  370MOL0     C48753  10.253   1.466   4.397  0.6286 -1.1012  0.1638
  370MOL0     C48754  10.126   1.493   4.349  0.0720  0.1118  0.0057
  370MOL0     O48755   9.769   1.280   4.421 -0.8855 -0.3429 -0.2359
  370MOL0     C48756   9.656   1.603   4.308 -0.0876 -0.1296 -0.2441
  370MOL0     C48757   9.551   1.675   4.263  0.0117  0.8484  0.3225
  370MOL0     N48758   9.249   2.253   3.879 -0.5893  0.2378 -0.0147
  370MOL0     N48759   9.250   2.362   3.813  0.4113 -1.1017 -0.4068
  370MOL0     C48760  10.377   2.409   3.637 -0.7381 -0.9933  0.1991
  370MOL0     C48761  10.504   2.345   3.659 -0.6737 -0.6119 -0.8458
  370MOL0     C48762  10.887   2.162   3.767  0.4546  0.0126  0.2250
  370MOL0     C48763  10.972   2.212   3.863  0.4854  0.5047 -0.3378
  370MOL0     C48764  11.102   2.176   3.878  0.2662  0.0237  0.3206
  370MOL0     C48765  11.151   2.079   3.782 -0.3531 -0.5769 -0.4941
  370MOL0     O48766  11.285   2.042   3.756 -0.5925 -0.2734  0.4458
  370MOL0     C48767  11.380   2.102   3.842  0.1234  0.1328 -1.2726
  370MOL0     C48768  11.526   2.054   3.816 -0.1605 -0.3819  0.3267
  370MOL0     C48769  11.531   1.902   3.808 -0.1185  0.2976 -0.7908
  370MOL0     C48770  11.682   1.855   3.799 -0.2779 -0.8950  0.4086
  370MOL0     C48771  11.700   1.716   3.759 -1.2559  0.0657 -0.9063
  370MOL0     C48772  11.740   1.604   3.739 -0.9521  0.1170  0.2265
  370MOL0     C48773  11.067   2.019   3.694 -0.8330 -0.7541  0.1129
  370MOL0     C48774  10.936   2.060   3.679 -0.0637  0.6270 -0.1336
  370MOL0     H48775  10.619   2.541   3.904  0.8192 -0.5499 -0.2298
  370MOL0     H48776  10.417   2.669   3.843 -0.8524 -0.4268  1.2111
  370MOL0     H48777  10.250   2.573   3.469  0.4239  0.6056  1.4809
  370MOL0     H48778  10.146   2.705   3.506 -1.2293 -0.7255 -0.2225
  370MOL0     H48779  10.062   2.426   3.617 -1.9188 -0.9416 -1.3634
  370MOL0     H48780  10.026   2.478   3.454 -0.0023 -1.7806  0.9528
  370MOL0     H48781   9.909   2.679   3.527  0.2399 -2.5864 -1.2168
  370MOL0     H48782   9.956   2.651   3.700  0.7697  1.7519 -0.0378
  370MOL0     H48783   9.799   2.461   3.518 -2.8639 -1.8605  1.3957
  370MOL0     H48784   9.819   2.434   3.682  1.3366 -2.1204 -3.2083
  370MOL0     H48785   9.670   2.664   3.556  0.0915 -0.5321  0.6884
  370MOL0     H48786   9.695   2.649   3.733 -0.4741  1.3064 -0.9654
  370MOL0     H48787   9.559   2.449   3.747  1.9918 -1.6398 -0.4403
  370MOL0     H48788   9.579   2.415   3.573 -4.1538  0.3913 -2.3190
  370MOL0     H48789   9.388   2.613   3.699 -0.3564 -0.7744 -0.5709
  370MOL0     H48790   9.434   2.622   3.529  1.2703  1.0547  0.9102
  370MOL0     H48791   9.336   2.394   3.498 -1.9032  0.2020 -0.4323
  370MOL0     H48792   9.227   2.504   3.581 -0.9133 -0.5170 -0.6257
  370MOL0     H48793   9.399   2.167   3.603 -1.6341 -1.0068 -0.1286
  370MOL0     H48794   9.444   1.985   3.809  0.0815 -1.8122 -0.1285
  370MOL0     H48795   9.275   1.943   3.788  1.3481 -1.0446 -0.3609
  370MOL0     H48796   9.269   2.052   4.029  0.9556  2.3819  0.3484
  370MOL0     H48797   9.450   2.026   4.029 -0.8743 -0.2307  1.2517
  370MOL0     H48798   9.265   1.792   3.943  0.5020 -1.7939  0.1050
  370MOL0     H48799   9.430   1.793   3.976 -1.5653 -1.6354  0.2379
  370MOL0     H48800   9.219   1.856   4.183 -0.9004  0.8992 -0.9090
  370MOL0     H48801   9.388   1.868   4.214 -1.2926 -0.0005  2.1561
  370MOL0     H48802   9.324   1.429   4.276  0.0701  0.5566 -0.3109
  370MOL0     H48803   9.527   1.296   4.313  1.7156  0.1630  0.3303
  370MOL0     H48804   9.950   1.289   4.560 -0.5681 -1.2956 -3.0848
  370MOL0     H48805  10.175   1.222   4.617 -2.3479  0.9472  0.8770
  370MOL0     H48806  10.490   1.388   4.365 -0.3170 -0.6123 -0.6501
  370MOL0     H48807  10.556   1.235   4.413  1.1968  1.0601 -0.8940
  370MOL0     H48808  10.588   1.438   4.638  1.6087  0.2434  0.1600
  370MOL0     H48809  10.642   1.504   4.495  0.5839  0.0680  2.3168
  370MOL0     H48810  10.811   1.332   4.462 -1.1162 -3.3168 -1.3323
  370MOL0     H48811  10.751   1.238   4.596  2.6611 -0.9198  0.4950
  370MOL0     H48812  10.846   1.528   4.630  0.6804  0.1078 -0.1574
  370MOL0     H48813  10.785   1.436   4.766 -2.6321  1.0415 -1.6708
  370MOL0     H48814  11.035   1.448   4.733 -2.4788  1.8760  2.2087
  370MOL0     H48815  11.007   1.324   4.605 -0.3243 -0.2106 -0.0984
  370MOL0     H48816  10.892   1.174   4.771 -0.6079  1.0202 -0.6410
  370MOL0     H48817  10.934   1.289   4.898 -1.1442 -1.7156 -0.0573
  370MOL0     H48818  11.115   1.126   4.731  0.0703  0.4904 -0.5029
  370MOL0     H48819  11.182   1.270   4.816  1.0772  0.2766  1.9339
  370MOL0     H48820  11.216   1.067   4.954  1.1386 -0.6132 -1.1900
  370MOL0     H48821  11.038   1.039   4.975  1.1626 -0.0134 -0.8916
  370MOL0     H48822  10.331   1.516   4.340 -2.6175  3.3276 -0.9153
  370MOL0     H48823  10.105   1.556   4.263 -1.7723 -0.2236  0.1784
  370MOL0     H48824   9.753   1.650   4.322 -0.0439 -0.6490  1.3535
  370MOL0     H48825   9.571   1.780   4.246  0.0312  0.6495 -0.9558
  370MOL0     H48826  10.310   2.377   3.558  1.6723 -1.5638 -1.7465
  370MOL0     H48827  10.517   2.252   3.605 -0.3098 -0.2056 -1.4575
  370MOL0     H48828  10.920   2.283   3.927  0.3412 -0.2695  0.4071
  370MOL0     H48829  11.169   2.222   3.949  0.7572 -1.5077  0.8802
  370MOL0     H48830  11.350   2.089   3.946  1.9034  2.1326 -0.4388
  370MOL0     H48831  11.380   2.209   3.821 -0.6938 -0.0401 -2.2510
  370MOL0     H48832  11.556   2.086   3.716 -1.6127 -0.4839 -0.1736
  370MOL0     H48833  11.597   2.086   3.892 -1.5614  3.6086  0.1491
  370MOL0     H48834  11.468   1.859   3.729 -2.0756  0.5290  0.5680
  370MOL0     H48835  11.487   1.866   3.901  0.1424 -0.8987 -1.1198
  370MOL0     H48836  11.719   1.920   3.718  0.8598 -0.7902  1.0011
  370MOL0     H48837  11.732   1.878   3.893 -3.6271  1.5923  1.7988
  370MOL0     H48838  11.763   1.500   3.722 -1.0456  0.2679 -0.8904
  370MOL0     H48839  11.109   1.944   3.628  0.7411  0.4831 -0.3721
  370MOL0     H48840  10.880   2.010   3.601  1.4907 -1.0429 -0.2499
  371MOL0     O48841   4.832   8.241   9.593  0.2932  0.9723  0.0224
  371MOL0     C48842   4.911   8.149   9.558 -0.6074 -0.3591 -0.6068
  371MOL0     O48843   4.877   8.029   9.510 -0.2751 -0.3772 -0.3602
  371MOL0     C48844   4.749   8.005   9.471  1.2940  0.1674  0.5916
  371MOL0     C48845   4.661   8.093   9.409 -0.5795  0.3702  0.4190
  371MOL0     C48846   4.538   8.054   9.355 -0.0359 -0.4608  0.5532
  371MOL0     C48847   4.480   7.925   9.379 -0.5132 -0.8295 -0.8742
  371MOL0     O48848   4.363   7.871   9.333  0.6684  0.1284 -0.1275
  371MOL0     C48849   4.271   7.956   9.256 -0.0090 -0.2783  0.3712
  371MOL0     C48850   4.144   7.881   9.221 -0.3462  0.6229  0.2741
  371MOL0     C48851   4.069   7.791   9.329 -0.7662  0.2292 -0.1496
  371MOL0     C48852   3.939   7.733   9.252 -0.1982  0.2338 -0.5352
  371MOL0     C48853   3.858   7.638   9.334 -0.5728 -0.2227 -0.5078
  371MOL0     C48854   3.777   7.715   9.451 -0.7372 -0.4053  0.7544
  371MOL0     C48855   3.850   7.704   9.588  0.0492  0.3179  0.0253
  371MOL0     C48856   3.768   7.775   9.695  0.4819  0.0343 -0.8909
  371MOL0     N48857   3.643   7.693   9.728 -0.8249 -0.7015  1.2439
  371MOL0     C48858   3.632   7.581   9.806 -0.2574  0.4944  0.3676
  371MOL0     C48859   3.501   7.543   9.802 -0.1021 -0.4555  0.4422
  371MOL0     C48860   3.454   7.415   9.871 -0.7016  0.0038 -0.3936
  371MOL0     C48861   3.408   7.307   9.776  0.1192  0.1356  1.3622
  371MOL0     C48862   3.374   7.178   9.846 -0.3224 -0.0340 -0.1245
  371MOL0     C48863   3.255   7.177   9.947 -0.5614 -0.3547  0.3600
  371MOL0     O48864   3.212   7.044   9.972  0.2400 -0.0936 -0.2799
  371MOL0     C48865   3.133   7.014  10.078 -0.5838 -0.1532 -0.0139
  371MOL0     C48866   3.058   7.101  10.149 -0.2370 -0.8400 -0.5066
  371MOL0     C48867   2.970   7.058  10.246 -0.6072  0.1184 -0.0470
  371MOL0     C48868   2.958   6.922  10.280 -0.2125 -0.1619 -0.4714
  371MOL0     C48869   2.866   6.875  10.382 -0.6372  0.3544 -0.3101
  371MOL0     O48870   2.872   6.743  10.415 -0.1138 -0.7482 -0.4302
  371MOL0     C48871   2.785   6.699  10.520  0.0647  0.1360  0.0703
  371MOL0     C48872   2.792   6.750  10.653 -0.2687  0.0002 -0.2806
  371MOL0     C48873   2.703   6.692  10.748 -0.6834 -0.7913  0.2916
  371MOL0     C48874   2.617   6.591  10.715  0.2065 -0.7303  0.4395
  371MOL0     O48875   2.525   6.548  10.802 -0.1128  0.0033 -0.0088
  371MOL0     C48876   2.448   6.430  10.769 -0.0456  1.1533 -0.0352
  371MOL0     C48877   2.354   6.410  10.895 -0.0254 -0.0237 -0.1308
  371MOL0     C48878   2.274   6.286  10.869 -0.0861  0.0581 -0.8601
  371MOL0     C48879   2.153   6.290  10.964 -0.2622  0.1106  0.3300
  371MOL0     C48880   2.072   6.161  10.949  0.9080 -0.1126 -0.4576
  371MOL0     C48881   2.128   6.044  11.021  0.7203  0.5936 -0.4960
  371MOL0     C48882   2.171   6.054  11.173  0.8559 -0.2533  0.4613
  371MOL0     C48883   2.186   5.916  11.241  0.0290 -0.5106  0.3303
  371MOL0    Cl48884   2.224   5.949  11.411 -0.5298  0.1571  0.2756
  371MOL0     C48885   2.618   6.539  10.587 -0.4749  0.8155 -0.1496
  371MOL0     C48886   2.706   6.592  10.490 -0.3940  0.1237 -0.0267
  371MOL0     O48887   2.792   6.955  10.433  0.1458 -0.7123  0.3961
  371MOL0     C48888   3.037   6.832  10.205 -0.6025 -0.0167 -0.9086
  371MOL0     C48889   3.120   6.880  10.107 -0.2038 -0.3632  0.3152
  371MOL0     N48890   3.432   7.641   9.729 -0.6428  0.5124  0.3959
  371MOL0     N48891   3.521   7.725   9.685  0.4478  0.3719 -0.4395
  371MOL0     C48892   4.559   7.846   9.463  0.6936 -0.3246 -0.3673
  371MOL0     C48893   4.692   7.884   9.501  0.1869 -0.4930  0.5109
  371MOL0     C48894   5.056   8.166   9.602  0.7840 -0.3244 -0.7884
  371MOL0     C48895   5.094   8.260   9.708  0.0815  0.6534 -0.7486
  371MOL0     C48896   5.217   8.258   9.770 -0.2767 -0.0732 -0.4236
  371MOL0     C48897   5.310   8.162   9.725 -0.2139 -0.3971 -0.6317
  371MOL0     O48898   5.432   8.155   9.792 -0.3551 -0.3186 -0.0220
  371MOL0     C48899   5.554   8.151   9.701  0.8138 -0.9468  0.1869
  371MOL0     C48900   5.659   8.238   9.766 -0.5777  0.7242 -0.6695
  371MOL0     C48901   5.623   8.389   9.755  1.1276 -0.1084  0.3826
  371MOL0     C48902   5.712   8.482   9.832 -0.7197  0.0953 -0.8288
  371MOL0     C48903   5.848   8.497   9.772  0.8757  1.1554 -0.3332
  371MOL0     C48904   5.956   8.512   9.717 -0.0239 -0.1513 -0.5715
  371MOL0     C48905   5.280   8.078   9.618  0.5505  0.1014  0.9142
  371MOL0     C48906   5.158   8.095   9.551 -0.3265  0.4036  0.0702
  371MOL0     H48907   4.699   8.188   9.373 -0.0005 -0.5687 -1.5990
  371MOL0     H48908   4.494   8.124   9.284  2.9934 -0.2494 -1.2727
  371MOL0     H48909   4.320   7.978   9.160 -0.5289  0.5415  0.2839
  371MOL0     H48910   4.247   8.047   9.312  2.1531 -1.4141  3.3364
  371MOL0     H48911   4.164   7.816   9.136  0.5689  0.4986  0.5725
  371MOL0     H48912   4.067   7.947   9.180 -1.1755  1.0867  2.4193
  371MOL0     H48913   4.038   7.852   9.414 -0.7844  2.0717 -1.4077
  371MOL0     H48914   4.129   7.711   9.371  0.2886  1.8046  1.4853
  371MOL0     H48915   3.885   7.822   9.217 -3.1855 -0.8974  0.9008
  371MOL0     H48916   3.980   7.678   9.166 -0.3402  0.2098 -0.5871
  371MOL0     H48917   3.925   7.569   9.385 -0.2503  0.4488 -0.0046
  371MOL0     H48918   3.791   7.588   9.264 -1.2830  1.0724 -0.7873
  371MOL0     H48919   3.680   7.663   9.460  0.4382 -2.7319  0.8897
  371MOL0     H48920   3.778   7.823   9.434  1.2336 -0.3137  1.2720
  371MOL0     H48921   3.862   7.597   9.608  0.2245  0.6764  1.9902
  371MOL0     H48922   3.950   7.747   9.586  0.4502 -0.5130  1.1854
  371MOL0     H48923   3.747   7.878   9.667 -2.2503 -0.0776  0.4978
  371MOL0     H48924   3.828   7.793   9.784  0.1729  1.8974 -1.0209
  371MOL0     H48925   3.717   7.533   9.853 -0.7374  1.3137  2.1500
  371MOL0     H48926   3.369   7.441   9.935  0.5701 -0.6532  1.6476
  371MOL0     H48927   3.538   7.376   9.929 -0.5545 -1.9894 -1.8495
  371MOL0     H48928   3.487   7.290   9.702  0.4078  0.7990  1.5078
  371MOL0     H48929   3.319   7.340   9.722  1.9735  1.0206 -1.4076
  371MOL0     H48930   3.345   7.107   9.767 -1.7221  0.6964 -0.3050
  371MOL0     H48931   3.458   7.136   9.902  0.0009 -2.8376 -2.4398
  371MOL0     H48932   3.181   7.248   9.910  0.9788  3.1018  3.2882
  371MOL0     H48933   3.289   7.217  10.043  0.8631 -2.3385  0.7598
  371MOL0     H48934   3.077   7.206  10.134  2.4604 -0.6525  2.9917
  371MOL0     H48935   2.928   7.128  10.317 -1.3176 -1.6850  1.3927
  371MOL0     H48936   2.856   6.834  10.677 -0.5871  0.4059 -0.8211
  371MOL0     H48937   2.697   6.724  10.851  2.1986 -1.9702  0.9193
  371MOL0     H48938   2.515   6.345  10.753  1.5814  2.6339 -1.5389
  371MOL0     H48939   2.383   6.449  10.683 -1.1580  0.6739  0.6766
  371MOL0     H48940   2.293   6.500  10.905 -1.0842 -0.6758 -0.5054
  371MOL0     H48941   2.407   6.392  10.989 -1.4240  2.8578  1.3476
  371MOL0     H48942   2.341   6.201  10.889  0.9494  1.1950  0.6945
  371MOL0     H48943   2.241   6.288  10.765 -1.9762  1.1038 -0.2889
  371MOL0     H48944   2.175   6.287  11.071 -2.2217 -3.1055  0.7740
  371MOL0     H48945   2.096   6.383  10.955  2.6965  2.3110  2.3259
  371MOL0     H48946   2.055   6.138  10.843 -1.3885  1.6912 -0.5550
  371MOL0     H48947   1.976   6.179  10.997  0.0426 -1.0648 -1.7701
  371MOL0     H48948   2.210   5.999  10.965 -1.1266 -2.9297 -0.7000
  371MOL0     H48949   2.044   5.973  11.021  1.0797  0.1566  0.3259
  371MOL0     H48950   2.272   6.095  11.181  1.3845 -1.6698  1.4463
  371MOL0     H48951   2.101   6.109  11.236  0.5770  0.2081 -0.2319
  371MOL0     H48952   2.275   5.868  11.198  0.8992  0.3554  1.0900
  371MOL0     H48953   2.099   5.851  11.228 -0.5541  0.0659  1.2627
  371MOL0     H48954   2.551   6.460  10.554  0.1903 -0.4767  1.4287
  371MOL0     H48955   2.684   6.564  10.388 -1.5811 -2.6648  0.8946
  371MOL0     H48956   3.027   6.724  10.215 -1.3958  0.2844  4.6696
  371MOL0     H48957   3.171   6.808  10.044 -0.0059 -0.2159  0.3066
  371MOL0     H48958   4.514   7.755   9.501 -0.3097  1.3410  2.8600
  371MOL0     H48959   4.734   7.809   9.567 -1.9560 -1.6165  0.6832
  371MOL0     H48960   5.020   8.330   9.747  0.8314 -0.1349  2.3567
  371MOL0     H48961   5.232   8.333   9.847 -2.4081  0.7438 -0.7238
  371MOL0     H48962   5.522   8.190   9.604 -0.7507  1.1616  1.4709
  371MOL0     H48963   5.582   8.045   9.699 -0.5887 -1.3490 -2.0652
  371MOL0     H48964   5.667   8.216   9.872  1.4031 -0.3277 -0.9878
  371MOL0     H48965   5.758   8.227   9.720  1.9838 -0.0848  4.3567
  371MOL0     H48966   5.526   8.402   9.806  0.2507 -1.8654 -0.7346
  371MOL0     H48967   5.582   8.414   9.657 -0.6567  0.4684  1.2283
  371MOL0     H48968   5.676   8.585   9.838 -0.1809  0.2162  0.8483
  371MOL0     H48969   5.721   8.447   9.935 -4.2665 -0.8481 -0.7216
  371MOL0     H48970   6.054   8.512   9.674  0.2752  3.3000 -0.1488
  371MOL0     H48971   5.355   8.014   9.572 -0.6487  0.3313 -1.5087
  371MOL0     H48972   5.145   8.031   9.464  0.9877 -0.4902  0.4943
  372MOL0     O48973   0.568   6.183   9.042 -0.0960 -0.0908 -0.6917
  372MOL0     C48974   0.617   6.249   8.950 -0.7549  0.1798  0.2051
  372MOL0     O48975   0.542   6.306   8.845 -0.1341  0.1463  0.6121
  372MOL0     C48976   0.405   6.281   8.842 -0.3074 -0.5261  0.3752
  372MOL0     C48977   0.345   6.201   8.746 -0.1934  0.2941 -0.4358
  372MOL0     C48978   0.213   6.168   8.754  0.4940  0.2899  0.8770
  372MOL0     C48979   0.129   6.202   8.857 -0.3652 -0.4621  0.1385
  372MOL0     O48980  -0.010   6.174   8.844 -0.3998  0.7486  0.6052
  372MOL0     C48981  -0.115   6.277   8.854 -0.2177 -0.0731  0.8475
  372MOL0     C48982  -0.244   6.197   8.871  0.8670  0.2317 -0.1506
  372MOL0     C48983  -0.356   6.294   8.910  0.4917 -0.6116 -0.2525
  372MOL0     C48984  -0.496   6.216   8.913 -0.0826 -0.5402 -0.5852
  372MOL0     C48985  -0.625   6.287   8.958 -0.2608  0.8390  0.3104
  372MOL0     C48986  -0.715   6.199   9.055 -0.9526  0.7526 -0.6069
  372MOL0     C48987  -0.774   6.077   8.991 -0.2669 -0.5867  1.1314
  372MOL0     C48988  -0.842   5.973   9.079 -0.5382 -0.6150  0.1581
  372MOL0     N48989  -0.964   6.028   9.137  0.4747  0.5469 -0.2128
  372MOL0     C48990  -0.964   6.108   9.248  0.3775 -0.3484  0.8351
  372MOL0     C48991  -1.088   6.104   9.299  0.3308  0.0989  0.3064
  372MOL0     C48992  -1.141   6.169   9.425 -0.3010 -0.4873  0.0717
  372MOL0     C48993  -1.285   6.206   9.413  1.1364 -0.2374 -0.7356
  372MOL0     C48994  -1.320   6.318   9.517  0.6846 -0.0287 -0.5716
  372MOL0     C48995  -1.348   6.276   9.659 -0.1109  0.3191 -0.5833
  372MOL0     O48996  -1.398   6.385   9.731  0.4951  0.3277 -0.0320
  372MOL0     C48997  -1.532   6.416   9.746  0.7571 -0.4095  0.0371
  372MOL0     C48998  -1.562   6.540   9.819 -0.2261  1.0869 -0.3592
  372MOL0     C48999  -1.693   6.588   9.837  0.5017  0.0320  0.3952
  372MOL0     C49000  -1.796   6.508   9.786 -0.0327 -0.0306  0.5034
  372MOL0     C49001  -1.937   6.547   9.821  1.0693 -0.1388  0.4674
  372MOL0     O49002  -1.962   6.673   9.870  0.0263  0.4025  0.6955
  372MOL0     C49003  -2.093   6.709   9.886  0.1645  0.5626  0.0554
  372MOL0     C49004  -2.171   6.745   9.775  0.0299  0.2568 -0.5556
  372MOL0     C49005  -2.299   6.794   9.801 -0.3258  0.1497  0.1685
  372MOL0     C49006  -2.339   6.831   9.931  0.1875  0.1970  0.0275
  372MOL0     O49007  -2.459   6.908   9.946  0.4633 -0.9645 -0.0284
  372MOL0     C49008  -2.484   6.972  10.071 -0.1256 -0.3006  0.5634
  372MOL0     C49009  -2.606   7.066  10.057 -0.9754 -0.3090 -0.6311
  372MOL0     C49010  -2.731   6.981  10.050 -0.3959  0.8483  0.0147
  372MOL0     C49011  -2.845   7.067  10.011 -0.1114 -0.0615 -0.2099
  372MOL0     C49012  -2.976   7.006  10.038  0.2557 -0.3364 -0.0361
  372MOL0     C49013  -3.088   7.112  10.001 -0.3237  0.1064 -0.0956
  372MOL0     C49014  -3.232   7.068  10.038  0.3768 -0.9972  0.0418
  372MOL0     C49015  -3.332   7.183  10.027  0.4316 -0.0739  0.0190
  372MOL0    Cl49016  -3.334   7.243   9.862 -0.2525  0.0846  0.1047
  372MOL0     C49017  -2.266   6.784  10.036 -0.6427  0.3080 -0.3706
  372MOL0     C49018  -2.142   6.729  10.014 -0.7098  0.1690 -0.1950
  372MOL0     O49019  -2.022   6.462   9.804  0.1061 -0.0816 -0.0311
  372MOL0     C49020  -1.769   6.389   9.719  0.7216 -0.3601  0.4799
  372MOL0     C49021  -1.640   6.348   9.689 -0.7468 -0.0650 -0.3388
  372MOL0     N49022  -1.164   6.030   9.207  0.1995 -1.2155 -0.9097
  372MOL0     N49023  -1.087   5.988   9.114 -0.1039  0.4693  0.8480
  372MOL0     C49024   0.186   6.288   8.956  0.1228  1.3847 -0.1927
  372MOL0     C49025   0.321   6.326   8.950 -0.2596  0.0073  0.0372
  372MOL0     C49026   0.769   6.267   8.944  0.6169  0.1322 -0.1393
  372MOL0     C49027   0.858   6.209   9.034 -0.9085  0.5168 -0.2822
  372MOL0     C49028   1.000   6.223   9.025  0.4582  0.8737 -0.1884
  372MOL0     C49029   1.051   6.307   8.924 -0.3121  0.7978 -0.1321
  372MOL0     O49030   1.185   6.342   8.924 -0.6466 -0.5499  0.6903
  372MOL0     C49031   1.255   6.323   9.049 -0.1949 -0.1420 -0.1012
  372MOL0     C49032   1.389   6.389   9.054 -0.9176 -0.0805  0.2558
  372MOL0     C49033   1.375   6.538   9.048 -0.9096 -0.1206 -0.2865
  372MOL0     C49034   1.505   6.624   9.051  1.1197 -0.0935  0.0942
  372MOL0     C49035   1.556   6.649   8.918 -0.5422  1.4280  0.3920
  372MOL0     C49036   1.596   6.667   8.805  0.0841  0.5664 -0.4136
  372MOL0     C49037   0.968   6.364   8.832  0.5183  0.2707 -0.1216
  372MOL0     C49038   0.829   6.331   8.832  0.0715  0.6039  0.2871
  372MOL0     H49039   0.404   6.174   8.659  0.2039  0.6373 -0.2764
  372MOL0     H49040   0.175   6.102   8.676  1.6641  0.6507 -0.0258
  372MOL0     H49041  -0.124   6.350   8.773 -1.1692 -1.3743 -0.2502
  372MOL0     H49042  -0.096   6.330   8.948  4.2887 -1.2305  0.8192
  372MOL0     H49043  -0.220   6.124   8.949 -0.9454 -0.9142 -0.6143
  372MOL0     H49044  -0.264   6.131   8.786  0.6971 -3.3632  2.4236
  372MOL0     H49045  -0.363   6.376   8.837 -1.3330 -1.5635 -1.2169
  372MOL0     H49046  -0.338   6.348   9.003  3.7523 -0.2872 -0.9513
  372MOL0     H49047  -0.519   6.194   8.808 -1.6634  0.4430 -0.4873
  372MOL0     H49048  -0.487   6.123   8.970 -0.6784 -0.5103 -0.4350
  372MOL0     H49049  -0.684   6.314   8.870 -1.6712 -0.1691  0.9067
  372MOL0     H49050  -0.602   6.377   9.017 -0.0017 -0.0644  1.6499
  372MOL0     H49051  -0.797   6.263   9.089  0.0356  0.5518  2.4169
  372MOL0     H49052  -0.656   6.177   9.144 -1.6870  0.4676 -0.1805
  372MOL0     H49053  -0.856   6.109   8.925 -0.7122 -1.7130  1.1136
  372MOL0     H49054  -0.705   6.030   8.921 -0.0357 -0.5333  1.3204
  372MOL0     H49055  -0.766   5.938   9.149  1.5647 -0.5403 -1.9624
  372MOL0     H49056  -0.869   5.882   9.026 -0.8734 -0.4449  0.0334
  372MOL0     H49057  -0.882   6.165   9.291  2.4277 -3.6929  1.7594
  372MOL0     H49058  -1.075   6.255   9.441  0.1027 -0.3505 -1.9578
  372MOL0     H49059  -1.137   6.105   9.513 -1.7864 -1.0894 -0.2709
  372MOL0     H49060  -1.351   6.121   9.430  1.6187 -0.2408  1.3746
  372MOL0     H49061  -1.312   6.244   9.314  1.4753 -1.7883 -1.4517
  372MOL0     H49062  -1.239   6.391   9.509 -0.2284  1.6884  3.5649
  372MOL0     H49063  -1.417   6.362   9.490  0.1515 -0.9645 -0.2209
  372MOL0     H49064  -1.253   6.247   9.706  0.5438  0.4767 -1.7651
  372MOL0     H49065  -1.405   6.183   9.660 -1.5222  1.0718  2.9124
  372MOL0     H49066  -1.481   6.610   9.837 -0.6565  1.8160 -1.1203
  372MOL0     H49067  -1.716   6.680   9.889 -0.9389 -0.6854  1.0677
  372MOL0     H49068  -2.114   6.734   9.682  0.7322 -2.3246  0.0862
  372MOL0     H49069  -2.356   6.820   9.712  0.8833 -1.9912 -1.3450
  372MOL0     H49070  -2.396   7.035  10.083  0.5799 -1.1910  0.2057
  372MOL0     H49071  -2.505   6.889  10.140 -0.7091 -1.2080 -0.6660
  372MOL0     H49072  -2.612   7.128   9.967  0.2273  0.6039 -0.1093
  372MOL0     H49073  -2.602   7.135  10.142  0.9366  0.0568 -0.9825
  372MOL0     H49074  -2.749   6.942  10.150  0.7825 -1.6329 -0.6687
  372MOL0     H49075  -2.706   6.896   9.986 -0.1954  0.7901  0.1683
  372MOL0     H49076  -2.835   7.161  10.066 -0.0551  0.0147 -0.3490
  372MOL0     H49077  -2.829   7.105   9.910 -0.7702 -0.2293 -0.3825
  372MOL0     H49078  -2.984   6.980  10.144 -1.1817  1.3167  0.2948
  372MOL0     H49079  -2.979   6.918   9.972  1.8795 -1.7530  1.6328
  372MOL0     H49080  -3.084   7.148   9.898  1.0510 -0.0725 -0.1251
  372MOL0     H49081  -3.063   7.195  10.069  1.8570 -0.4755 -0.1264
  372MOL0     H49082  -3.267   6.988   9.972 -1.1510  0.8056 -1.4309
  372MOL0     H49083  -3.228   7.037  10.143 -1.8587 -0.7596  0.2312
  372MOL0     H49084  -3.315   7.268  10.094 -0.1724  0.8959 -1.0277
  372MOL0     H49085  -3.427   7.136  10.053  1.7877 -2.0979  1.7453
  372MOL0     H49086  -2.306   6.810  10.134 -2.7591  2.6139 -1.7228
  372MOL0     H49087  -2.074   6.703  10.094 -2.2827 -2.2697  0.4529
  372MOL0     H49088  -1.854   6.340   9.672  1.4399  0.9450 -2.3877
  372MOL0     H49089  -1.639   6.254   9.635 -0.2155 -0.8858  1.0271
  372MOL0     H49090   0.120   6.324   9.035 -1.1407  2.0214 -1.5029
  372MOL0     H49091   0.364   6.376   9.036 -2.3604 -2.6165  2.8576
  372MOL0     H49092   0.817   6.140   9.107  2.2244 -1.9782 -0.6945
  372MOL0     H49093   1.047   6.172   9.108 -0.8338  0.9907  0.6397
  372MOL0     H49094   1.261   6.214   9.056 -1.1572 -0.3776 -2.1263
  372MOL0     H49095   1.191   6.357   9.131 -0.9424 -0.8755 -0.3591
  372MOL0     H49096   1.439   6.359   9.147  1.1476 -0.1267 -0.8024
  372MOL0     H49097   1.458   6.349   8.979  0.5146  1.5392  0.6550
  372MOL0     H49098   1.328   6.562   9.144  2.3012 -0.7750  1.5651
  372MOL0     H49099   1.310   6.584   8.972 -0.3871 -0.4202 -0.9255
  372MOL0     H49100   1.483   6.723   9.089 -1.5386 -1.4610  2.4791
  372MOL0     H49101   1.574   6.566   9.113 -0.3844 -4.3167 -1.7974
  372MOL0     H49102   1.642   6.688   8.711  1.0456 -0.5566 -0.2163
  372MOL0     H49103   0.996   6.435   8.755  0.1921 -0.4368 -0.9237
  372MOL0     H49104   0.766   6.371   8.753 -0.7213 -2.8945 -1.0599
  373MOL0     O49105   8.315   8.165   9.556 -0.2254  0.0430 -0.8941
  373MOL0     C49106   8.326   8.121   9.680 -0.0640 -0.2957 -0.5075
  373MOL0     O49107   8.227   8.111   9.768  0.1061  0.4918  0.0535
  373MOL0     C49108   8.102   8.120   9.727  0.8634 -0.0909 -0.0862
  373MOL0     C49109   8.044   8.214   9.647 -0.4373 -0.5154 -0.3098
  373MOL0     C49110   7.908   8.211   9.623  0.5963  0.2158 -0.2158
  373MOL0     C49111   7.822   8.122   9.673 -0.4011 -0.2093 -0.0251
  373MOL0     O49112   7.690   8.111   9.648  0.4548  0.9891  0.0546
  373MOL0     C49113   7.620   8.205   9.556  0.1429 -0.3537 -0.6104
  373MOL0     C49114   7.468   8.170   9.548 -0.3675  0.5729 -0.7372
  373MOL0     C49115   7.394   8.255   9.443 -0.4888 -0.1162 -0.1381
  373MOL0     C49116   7.265   8.186   9.402  0.1766 -0.4491  0.8372
  373MOL0     C49117   7.204   8.269   9.299  0.2649 -0.3681  0.2492
  373MOL0     C49118   7.124   8.393   9.346 -0.2559 -0.1408 -0.2058
  373MOL0     C49119   7.054   8.448   9.213  0.1425 -0.8054 -0.8911
  373MOL0     C49120   6.960   8.572   9.239 -0.6810  0.7985 -0.5844
  373MOL0     N49121   6.864   8.538   9.346  0.3307 -0.4140  0.1531
  373MOL0     C49122   6.751   8.462   9.326 -0.5966 -0.8329 -0.4069
  373MOL0     C49123   6.669   8.488   9.430  0.4776 -0.5305  0.1408
  373MOL0     C49124   6.541   8.434   9.463  0.4802  0.2287  0.4298
  373MOL0     C49125   6.540   8.281   9.437 -0.7941  0.6731 -0.1758
  373MOL0     C49126   6.404   8.218   9.408  0.4556 -0.3041 -0.4197
  373MOL0     C49127   6.342   8.281   9.276  0.2797  0.2755  0.1315
  373MOL0     O49128   6.250   8.182   9.230 -0.3449  0.1441 -0.2841
  373MOL0     C49129   6.121   8.188   9.267  0.5969  0.0262  0.2129
  373MOL0     C49130   6.025   8.117   9.198  0.2679  1.4190 -0.4198
  373MOL0     C49131   5.886   8.129   9.213 -0.5674  0.4417  0.4937
  373MOL0     C49132   5.839   8.215   9.311  0.0020 -1.2685 -0.0954
  373MOL0     C49133   5.691   8.249   9.335 -0.3695  0.4792  0.5912
  373MOL0     O49134   5.612   8.181   9.251  0.6764 -0.1072  0.0341
  373MOL0     C49135   5.474   8.199   9.242  0.4341 -0.1428 -0.2631
  373MOL0     C49136   5.388   8.282   9.320  0.9010 -0.1849  0.3890
  373MOL0     C49137   5.253   8.273   9.311 -0.5582 -0.9353  0.4521
  373MOL0     C49138   5.189   8.195   9.214 -0.7016 -0.8730 -0.0656
  373MOL0     O49139   5.054   8.201   9.204  0.5108 -0.2859  0.3034
  373MOL0     C49140   4.995   8.154   9.082  0.0724  0.6329 -0.3691
  373MOL0     C49141   4.849   8.181   9.077  0.5065  0.5995  0.6617
  373MOL0     C49142   4.780   8.072   8.998 -0.3363 -0.3952  0.7231
  373MOL0     C49143   4.636   8.095   8.961 -0.3936 -0.1012  0.6705
  373MOL0     C49144   4.568   7.962   8.919 -0.4827 -0.5686  1.1462
  373MOL0     C49145   4.429   8.000   8.867  1.5178  0.3432 -0.1678
  373MOL0     C49146   4.366   7.861   8.852  0.1668 -0.1774  0.4472
  373MOL0     C49147   4.215   7.850   8.813 -0.6320  0.4577 -0.4603
  373MOL0    Cl49148   4.110   7.967   8.918  0.3182  0.8810  0.2644
  373MOL0     C49149   5.267   8.105   9.142 -0.1127  0.1402 -1.0381
  373MOL0     C49150   5.408   8.109   9.157 -0.7453 -1.0184 -0.3391
  373MOL0     O49151   5.666   8.317   9.427 -0.4893 -0.1772 -0.2923
  373MOL0     C49152   5.934   8.275   9.395  0.2835 -0.8641  0.1731
  373MOL0     C49153   6.070   8.263   9.375  0.4767 -1.5684  1.1049
  373MOL0     N49154   6.730   8.591   9.514  0.7023  1.2132  0.2431
  373MOL0     N49155   6.846   8.611   9.460  0.7137 -0.1340 -0.6352
  373MOL0     C49156   7.870   8.037   9.772 -0.2154 -0.7839  0.2900
  373MOL0     C49157   8.011   8.039   9.801 -0.0973 -0.5655  0.1370
  373MOL0     C49158   8.456   8.092   9.740  0.4584  0.6416  0.2805
  373MOL0     C49159   8.576   8.111   9.659  0.5330  0.1937  0.2941
  373MOL0     C49160   8.701   8.091   9.720  0.1034 -0.3435 -0.0953
  373MOL0     C49161   8.719   8.043   9.845 -0.7669 -0.4738  0.1875
  373MOL0     O49162   8.849   8.019   9.887  0.4340 -1.0421 -0.0764
  373MOL0     C49163   8.864   7.939  10.006 -0.3531  0.1601  0.1275
  373MOL0     C49164   8.890   8.031  10.126  0.5005  0.0090 -0.2802
  373MOL0     C49165   8.994   8.144  10.108  0.7328  0.0990  0.0017
  373MOL0     C49166   9.132   8.081  10.096 -0.7875 -0.0537 -0.9870
  373MOL0     C49167   9.244   8.180  10.092  0.1563  0.1406  0.0173
  373MOL0     C49168   9.340   8.253  10.066  0.2507 -0.5741  0.1455
  373MOL0     C49169   8.600   8.015   9.917  0.5478 -0.4861  0.2070
  373MOL0     C49170   8.476   8.043   9.867  0.4458 -0.0485 -0.0323
  373MOL0     H49171   8.106   8.292   9.604 -0.6294 -0.9650 -1.4276
  373MOL0     H49172   7.871   8.294   9.563 -1.6989  1.8089  3.1376
  373MOL0     H49173   7.655   8.209   9.452 -3.4122 -0.9678 -1.9562
  373MOL0     H49174   7.638   8.309   9.586  0.1565 -1.1499  2.5083
  373MOL0     H49175   7.429   8.173   9.650  1.0642 -1.8469 -0.0316
  373MOL0     H49176   7.465   8.066   9.514  1.4574 -1.3378  4.0250
  373MOL0     H49177   7.457   8.273   9.355 -3.0413 -0.8631 -2.2665
  373MOL0     H49178   7.371   8.355   9.481  0.9848  0.5440 -0.8683
  373MOL0     H49179   7.280   8.091   9.350 -1.8976  0.3393 -1.4149
  373MOL0     H49180   7.197   8.173   9.486 -1.3668 -2.0079 -0.5852
  373MOL0     H49181   7.133   8.205   9.245 -0.3131 -1.1686  1.9031
  373MOL0     H49182   7.272   8.293   9.217 -0.3029 -4.1444 -1.5609
  373MOL0     H49183   7.187   8.468   9.394 -1.8484  1.0643  0.0642
  373MOL0     H49184   7.047   8.365   9.418 -1.5916  1.0674 -1.1189
  373MOL0     H49185   7.126   8.476   9.135 -0.0477 -1.4395 -1.2994
  373MOL0     H49186   6.996   8.371   9.162 -0.0193 -1.5645  0.4020
  373MOL0     H49187   6.902   8.602   9.152 -2.1604  0.5181  0.2693
  373MOL0     H49188   7.022   8.660   9.259  0.6952  0.2538 -2.2294
  373MOL0     H49189   6.747   8.387   9.248  0.2920 -1.9634  0.5898
  373MOL0     H49190   6.461   8.484   9.409  3.2602  1.1746 -3.1767
  373MOL0     H49191   6.524   8.437   9.571 -0.1684  1.7546  0.3005
  373MOL0     H49192   6.586   8.225   9.518 -0.7208 -0.0503 -0.7129
  373MOL0     H49193   6.603   8.263   9.350  0.2296  1.0474  0.4685
  373MOL0     H49194   6.432   8.115   9.384  1.7296 -0.0330 -0.1895
  373MOL0     H49195   6.341   8.223   9.497 -0.5235  0.7213 -1.1369
  373MOL0     H49196   6.414   8.300   9.196 -0.9718  3.6488 -0.3601
  373MOL0     H49197   6.301   8.376   9.311 -0.1424 -0.1336  0.7605
  373MOL0     H49198   6.069   8.043   9.131  1.8388  0.6672  1.3580
  373MOL0     H49199   5.823   8.070   9.147  1.7982  0.1998 -1.6803
  373MOL0     H49200   5.427   8.339   9.404 -0.8667 -1.2063  1.9714
  373MOL0     H49201   5.195   8.337   9.377 -0.5711 -0.8493  0.3598
  373MOL0     H49202   5.010   8.046   9.092  3.8300  1.1191  0.7309
  373MOL0     H49203   5.045   8.197   8.995  2.6862  0.3999  0.9442
  373MOL0     H49204   4.834   8.283   9.040 -1.6992  0.0862  0.0397
  373MOL0     H49205   4.817   8.171   9.181 -0.1287 -3.6045  0.2158
  373MOL0     H49206   4.794   7.979   9.053 -1.5974 -0.5642  0.7831
  373MOL0     H49207   4.847   8.051   8.914 -0.6734 -0.3939  0.4513
  373MOL0     H49208   4.589   8.147   9.044 -0.9101 -0.9132  0.9018
  373MOL0     H49209   4.626   8.169   8.881  0.5198 -0.1726  0.4750
  373MOL0     H49210   4.563   7.900   9.009 -0.4826 -0.9406  0.8888
  373MOL0     H49211   4.628   7.909   8.845 -0.6773 -0.9562  1.2672
  373MOL0     H49212   4.437   8.038   8.765  0.6623 -1.3870 -0.9334
  373MOL0     H49213   4.372   8.058   8.940 -0.1444 -2.8290  1.2562
  373MOL0     H49214   4.429   7.810   8.779 -0.1402 -0.7137  0.5502
  373MOL0     H49215   4.378   7.807   8.946  1.0935 -0.8391 -0.0330
  373MOL0     H49216   4.180   7.747   8.827 -0.6071  0.6912  1.6278
  373MOL0     H49217   4.214   7.884   8.709 -2.0705 -0.7855 -0.8893
  373MOL0     H49218   5.224   8.043   9.064 -1.0310 -0.0057 -0.4273
  373MOL0     H49219   5.470   8.040   9.101 -1.3798 -1.0774 -0.9859
  373MOL0     H49220   5.904   8.345   9.472 -0.6168 -0.1884 -0.7663
  373MOL0     H49221   6.128   8.314   9.451 -0.5490 -0.9352  1.4968
  373MOL0     H49222   7.806   7.961   9.817  1.4629 -1.2684  2.0267
  373MOL0     H49223   8.061   7.968   9.866  2.4440  0.8668 -0.1157
  373MOL0     H49224   8.580   8.147   9.557  1.9584 -1.9987 -0.4937
  373MOL0     H49225   8.782   8.117   9.653 -1.5839  0.1795 -2.0308
  373MOL0     H49226   8.948   7.874   9.982 -2.2261 -1.1630 -3.8186
  373MOL0     H49227   8.773   7.880  10.022 -0.9720  0.3439 -2.2814
  373MOL0     H49228   8.794   8.080  10.146  1.1336  0.5311  1.6741
  373MOL0     H49229   8.926   7.980  10.217  3.5606  3.1736  0.4910
  373MOL0     H49230   8.987   8.202  10.200 -1.6790  2.7346 -1.6831
  373MOL0     H49231   8.977   8.218  10.030  0.9016  0.4833  0.3232
  373MOL0     H49232   9.144   8.012  10.180  1.4140 -0.2591 -1.4171
  373MOL0     H49233   9.140   8.023  10.005 -0.5326 -1.6915  0.0416
  373MOL0     H49234   9.424   8.311  10.034  1.1301 -1.3198  1.0694
  373MOL0     H49235   8.598   7.990  10.023  0.0559 -1.4233 -0.0077
  373MOL0     H49236   8.396   8.031   9.940  1.3786 -0.8345  0.8890
  374MOL0     O49237   4.435   5.176   4.237 -0.5988  0.2289  0.0526
  374MOL0     C49238   4.370   5.076   4.278 -0.5663  0.0156  0.2550
  374MOL0     O49239   4.406   4.979   4.362 -0.0273 -0.1273 -0.0146
  374MOL0     C49240   4.538   4.975   4.400 -0.1755 -0.1122  0.2664
  374MOL0     C49241   4.565   5.017   4.532  0.2297  0.4058  0.5358
  374MOL0     C49242   4.692   5.004   4.590 -0.1691 -0.8873 -0.3956
  374MOL0     C49243   4.801   4.955   4.514  0.3529 -0.0302  0.7618
  374MOL0     O49244   4.929   4.938   4.561  0.3874 -0.2041 -0.3189
  374MOL0     C49245   4.946   4.935   4.704  0.1219 -0.2663  0.4494
  374MOL0     C49246   5.095   4.925   4.742 -1.2164 -0.1841 -1.0181
  374MOL0     C49247   5.150   4.781   4.698 -0.1092  0.9226  0.7534
  374MOL0     C49248   5.297   4.750   4.706  0.0790 -0.2994 -0.3290
  374MOL0     C49249   5.324   4.595   4.700 -0.7061  0.9783 -0.0776
  374MOL0     C49250   5.292   4.529   4.835  0.0222 -0.4197 -0.1446
  374MOL0     C49251   5.320   4.381   4.832 -0.5264 -0.3298 -0.4508
  374MOL0     C49252   5.204   4.302   4.769 -0.8639 -0.8513  1.0512
  374MOL0     N49253   5.081   4.292   4.856 -0.7091  0.2225  0.6203
  374MOL0     C49254   5.068   4.189   4.942  0.3585 -0.4539 -0.9888
  374MOL0     C49255   4.950   4.214   5.002 -0.6166 -0.1050  0.6455
  374MOL0     C49256   4.882   4.120   5.094  0.1259  0.4292  0.4054
  374MOL0     C49257   4.786   4.024   5.024  0.7801 -0.6761 -0.2796
  374MOL0     C49258   4.699   3.956   5.133 -0.0530  0.4520 -0.5681
  374MOL0     C49259   4.605   3.853   5.089 -0.2734  0.3520  0.7184
  374MOL0     O49260   4.551   3.868   4.956 -0.0335 -0.0401  0.3056
  374MOL0     C49261   4.469   3.777   4.891  0.7528  0.1698  0.2808
  374MOL0     C49262   4.432   3.658   4.940  0.5317 -0.0102 -0.4929
  374MOL0     C49263   4.326   3.580   4.892 -0.3879 -0.1426  0.2146
  374MOL0     C49264   4.246   3.630   4.785  0.3724 -0.1786  0.6964
  374MOL0     C49265   4.128   3.549   4.731  0.9423  0.5164  1.4764
  374MOL0     O49266   4.097   3.432   4.781  0.0776  0.7014 -0.0663
  374MOL0     C49267   3.980   3.366   4.751  0.4546  0.2013  0.5214
  374MOL0     C49268   3.993   3.232   4.716  0.0041  0.1816  0.4143
  374MOL0     C49269   3.884   3.165   4.666 -0.1499 -0.2882  0.1705
  374MOL0     C49270   3.753   3.222   4.678 -0.1851  0.5327  0.0499
  374MOL0     O49271   3.638   3.154   4.640  0.3973  0.1673  0.4156
  374MOL0     C49272   3.651   3.062   4.533 -0.0919 -0.3071  0.2198
  374MOL0     C49273   3.511   3.022   4.476  0.3554  0.1326 -0.1808
  374MOL0     C49274   3.430   3.145   4.443 -0.1369  0.2752 -0.3970
  374MOL0     C49275   3.289   3.117   4.381  0.0392  0.0165 -0.0280
  374MOL0     C49276   3.190   3.031   4.468 -0.0583 -0.2771 -0.1903
  374MOL0     C49277   3.063   3.007   4.385 -0.5170  0.4279 -0.6313
  374MOL0     C49278   2.969   2.920   4.467 -0.8033 -0.3047  0.9087
  374MOL0     C49279   2.839   2.894   4.405  0.2306  0.1989 -0.5649
  374MOL0    Cl49280   2.735   2.839   4.530 -0.1108 -0.0734  0.5090
  374MOL0     C49281   3.739   3.356   4.722 -0.1123  0.3192  0.2390
  374MOL0     C49282   3.855   3.430   4.758 -0.4204  0.1165 -0.5318
  374MOL0     O49283   4.065   3.612   4.643 -0.6682  0.8576  0.5488
  374MOL0     C49284   4.289   3.755   4.725 -0.0706 -0.5081 -0.1470
  374MOL0     C49285   4.400   3.821   4.781  0.3611  0.3454 -0.0484
  374MOL0     N49286   4.891   4.325   4.937 -0.0760 -0.6738  0.7361
  374MOL0     N49287   4.977   4.380   4.856 -0.3080 -0.4093  0.0156
  374MOL0     C49288   4.775   4.919   4.378  0.3368 -0.1206 -0.3294
  374MOL0     C49289   4.642   4.929   4.316 -0.0391  0.7824 -0.6889
  374MOL0     C49290   4.231   5.073   4.229  0.5098 -1.2104 -1.0133
  374MOL0     C49291   4.168   4.957   4.208  0.2801  0.5724  0.9228
  374MOL0     C49292   4.032   4.951   4.170 -0.4105  0.2295  0.8458
  374MOL0     C49293   3.960   5.071   4.146 -0.6144 -0.2419 -0.6652
  374MOL0     O49294   3.830   5.063   4.117  0.1264  0.1665 -0.2928
  374MOL0     C49295   3.773   5.164   4.020  0.0942  0.3658 -0.0319
  374MOL0     C49296   3.690   5.093   3.914  0.3008 -0.3596  0.3998
  374MOL0     C49297   3.570   5.177   3.868 -0.4603 -0.7383  0.3756
  374MOL0     C49298   3.473   5.227   3.973 -0.1027 -0.3085 -0.7536
  374MOL0     C49299   3.343   5.244   3.911 -0.1997 -0.8542  0.1484
  374MOL0     C49300   3.226   5.267   3.879 -0.6819 -0.8267  0.7972
  374MOL0     C49301   4.032   5.194   4.152 -0.2654 -0.1473 -0.2105
  374MOL0     C49302   4.165   5.192   4.196 -0.0886 -0.1278  0.8163
  374MOL0     H49303   4.497   5.073   4.595 -0.2381 -1.4339  1.7531
  374MOL0     H49304   4.707   5.044   4.690  0.6110  1.1166 -1.2768
  374MOL0     H49305   4.895   4.846   4.741  1.5419 -0.6914  1.4867
  374MOL0     H49306   4.910   5.027   4.752  0.2505 -0.5712  1.1479
  374MOL0     H49307   5.110   4.921   4.850  1.1790 -2.6224 -1.3097
  374MOL0     H49308   5.153   5.001   4.689 -0.0279 -0.6323 -0.4033
  374MOL0     H49309   5.128   4.764   4.592  0.9714  3.0433  0.1410
  374MOL0     H49310   5.097   4.704   4.755  0.0685  0.0800 -0.1771
  374MOL0     H49311   5.351   4.800   4.625  0.4718 -0.5880 -0.2530
  374MOL0     H49312   5.333   4.793   4.800  0.6076 -0.4286 -0.4647
  374MOL0     H49313   5.429   4.576   4.676 -1.1027 -1.2232 -0.2853
  374MOL0     H49314   5.273   4.547   4.617  1.8836 -2.2458 -0.0305
  374MOL0     H49315   5.184   4.547   4.848  0.3050  0.1804  1.6760
  374MOL0     H49316   5.345   4.583   4.913  1.0168 -0.4385 -0.7883
  374MOL0     H49317   5.420   4.375   4.789  0.6748  1.6652  1.8402
  374MOL0     H49318   5.331   4.357   4.938 -2.4849 -2.3785 -0.6343
  374MOL0     H49319   5.237   4.199   4.752 -0.0674 -0.7473  1.8718
  374MOL0     H49320   5.172   4.354   4.678  1.2404  0.7488  1.1494
  374MOL0     H49321   5.122   4.099   4.967  1.5475  0.7595  1.0443
  374MOL0     H49322   4.823   4.182   5.162 -0.0875  1.6435 -0.8432
  374MOL0     H49323   4.954   4.056   5.146  0.1089  1.6806  2.0684
  374MOL0     H49324   4.840   3.945   4.970 -1.1353 -2.0046 -0.3711
  374MOL0     H49325   4.717   4.085   4.966  0.2746 -1.2567 -0.3025
  374MOL0     H49326   4.765   3.909   5.207 -1.8989  0.6451  1.2698
  374MOL0     H49327   4.637   4.038   5.169  0.7642  1.5710 -1.6162
  374MOL0     H49328   4.531   3.835   5.167 -0.9680 -0.0195 -0.0214
  374MOL0     H49329   4.649   3.754   5.071 -1.7349 -0.0568 -0.8723
  374MOL0     H49330   4.495   3.609   5.014 -0.3137 -0.0222  0.2452
  374MOL0     H49331   4.321   3.477   4.927  1.1123  0.3605  2.1131
  374MOL0     H49332   4.088   3.179   4.714  0.6106  1.2322 -1.1342
  374MOL0     H49333   3.895   3.062   4.635 -1.1052 -0.8625  1.6646
  374MOL0     H49334   3.697   2.969   4.567  0.1738 -0.6036 -0.8967
  374MOL0     H49335   3.717   3.112   4.461 -2.2111  0.9938 -0.9352
  374MOL0     H49336   3.457   2.966   4.554  1.0959  0.5967  0.6900
  374MOL0     H49337   3.519   2.959   4.387  1.6258  0.7616 -0.5364
  374MOL0     H49338   3.489   3.204   4.372 -0.6385  0.7143 -0.4539
  374MOL0     H49339   3.415   3.206   4.532 -0.0067 -0.8077  0.3950
  374MOL0     H49340   3.255   3.220   4.363 -1.0581  0.3735  3.3754
  374MOL0     H49341   3.284   3.076   4.280 -2.6786 -1.2153  0.5135
  374MOL0     H49342   3.185   3.059   4.573  1.7695 -0.7019  0.0575
  374MOL0     H49343   3.235   2.931   4.460  2.0536  0.7475 -3.1878
  374MOL0     H49344   3.091   2.965   4.288 -0.9506 -0.3387 -0.4368
  374MOL0     H49345   3.006   3.100   4.373 -0.0930  0.5914 -1.4661
  374MOL0     H49346   3.025   2.833   4.503 -2.0187 -0.4372  2.5860
  374MOL0     H49347   2.954   2.979   4.557  0.0861  0.5787  0.4932
  374MOL0     H49348   2.845   2.814   4.330  0.6105 -1.3809  1.0916
  374MOL0     H49349   2.784   2.970   4.348 -1.7223 -1.9902 -1.7589
  374MOL0     H49350   3.638   3.390   4.742 -0.2315 -1.2638  2.8380
  374MOL0     H49351   3.850   3.534   4.788 -0.6629  1.1643 -3.7568
  374MOL0     H49352   4.239   3.804   4.643 -2.9721 -2.6702  0.1529
  374MOL0     H49353   4.432   3.917   4.740 -1.1644  0.3364 -1.3197
  374MOL0     H49354   4.859   4.878   4.322  1.0279  0.6897  0.0886
  374MOL0     H49355   4.601   4.890   4.223  0.4932 -0.0101 -0.5999
  374MOL0     H49356   4.209   4.861   4.239  0.6686  0.5701  0.4029
  374MOL0     H49357   3.991   4.852   4.152 -0.4320  0.7300 -2.4953
  374MOL0     H49358   3.860   5.209   3.972  0.8965  0.1772  1.2038
  374MOL0     H49359   3.712   5.238   4.072 -0.8458 -0.9671  0.8430
  374MOL0     H49360   3.757   5.086   3.827  1.8464  0.0204  1.5267
  374MOL0     H49361   3.662   4.992   3.945 -0.0565 -0.0989  0.9268
  374MOL0     H49362   3.511   5.118   3.798 -1.5415  1.7921 -0.9901
  374MOL0     H49363   3.616   5.255   3.806  0.6725 -1.0123  0.8525
  374MOL0     H49364   3.482   5.173   4.068  1.0036 -0.1224 -0.7429
  374MOL0     H49365   3.502   5.328   4.005 -2.5080  0.9676 -2.2423
  374MOL0     H49366   3.122   5.274   3.857 -0.0907 -0.0947 -2.2802
  374MOL0     H49367   3.980   5.288   4.138  2.1859  1.0197 -2.1902
  374MOL0     H49368   4.208   5.288   4.219  0.5427  0.2397 -1.5766
  375MOL0     O49369   0.184   6.930   0.489 -0.3449  0.1500  0.3257
  375MOL0     C49370   0.282   6.967   0.421  0.1409 -1.0994 -1.4782
  375MOL0     O49371   0.403   7.001   0.479 -0.9920 -0.2432  0.7439
  375MOL0     C49372   0.425   7.036   0.606 -0.4143  0.5467 -0.3072
  375MOL0     C49373   0.349   7.113   0.694 -1.1074  0.6772 -0.2769
  375MOL0     C49374   0.391   7.164   0.820  0.1791 -0.7609  0.3169
  375MOL0     C49375   0.501   7.105   0.877 -0.4699  0.1820  0.3742
  375MOL0     O49376   0.559   7.125   1.002 -0.7425 -0.4339  0.4509
  375MOL0     C49377   0.480   7.189   1.105  0.7314  0.8470  0.7003
  375MOL0     C49378   0.351   7.116   1.141  0.0674 -0.2485  0.0130
  375MOL0     C49379   0.246   7.212   1.209 -0.9145  0.2377 -0.1854
  375MOL0     C49380   0.120   7.135   1.245 -0.1317  0.1440  0.3180
  375MOL0     C49381   0.019   7.220   1.335  0.1363  0.4315 -0.1322
  375MOL0     C49382   0.073   7.235   1.484  0.3145  0.0703 -0.7522
  375MOL0     C49383  -0.021   7.310   1.581  0.4589 -0.1244  0.5139
  375MOL0     C49384  -0.105   7.216   1.661  0.4844 -0.5565  0.0040
  375MOL0     N49385  -0.201   7.295   1.743 -0.3335 -0.2547 -0.0064
  375MOL0     C49386  -0.307   7.372   1.690  0.4602  0.1922  0.0017
  375MOL0     C49387  -0.361   7.427   1.801  0.8006 -0.2341  1.4858
  375MOL0     C49388  -0.475   7.524   1.807 -0.2998  0.3988  0.2666
  375MOL0     C49389  -0.586   7.479   1.722 -0.1206  0.2612  0.9041
  375MOL0     C49390  -0.717   7.526   1.791 -0.4191 -0.2799  0.3694
  375MOL0     C49391  -0.842   7.496   1.718  1.2371  0.0529 -0.3556
  375MOL0     O49392  -0.960   7.503   1.806  0.3262  0.0044 -0.9210
  375MOL0     C49393  -1.070   7.444   1.766 -0.1548  1.3304 -0.5369
  375MOL0     C49394  -1.087   7.391   1.634  0.4473  1.0041 -0.7338
  375MOL0     C49395  -1.208   7.335   1.592 -0.2859  1.1388  0.2141
  375MOL0     C49396  -1.314   7.318   1.685  0.2892 -0.5480  0.1928
  375MOL0     C49397  -1.443   7.244   1.654  0.3533  0.7164  1.0181
  375MOL0     O49398  -1.554   7.272   1.723 -0.0936  0.0843  0.4366
  375MOL0     C49399  -1.659   7.189   1.704  1.6238  0.8422  1.0311
  375MOL0     C49400  -1.674   7.059   1.752  0.2683  0.0065 -0.0733
  375MOL0     C49401  -1.797   6.991   1.754  0.0097  0.6235  0.3580
  375MOL0     C49402  -1.907   7.049   1.687  0.3760 -0.2438  0.6612
  375MOL0     O49403  -2.022   6.974   1.703  0.5859 -0.1391 -0.4103
  375MOL0     C49404  -2.140   7.048   1.685 -0.5638 -0.8007  0.3298
  375MOL0     C49405  -2.253   6.955   1.696 -0.2569 -0.7590 -0.4686
  375MOL0     C49406  -2.386   7.022   1.736 -0.7108 -0.7226 -0.5859
  375MOL0     C49407  -2.463   7.080   1.610  0.3015 -0.0295 -0.0639
  375MOL0     C49408  -2.590   7.154   1.648 -1.3296 -0.3334  0.2802
  375MOL0     C49409  -2.685   7.081   1.741  0.3656 -0.5842 -0.0319
  375MOL0     C49410  -2.819   7.153   1.750 -0.3337  0.0970  0.2677
  375MOL0     C49411  -2.922   7.068   1.825  0.5530 -0.1430 -0.3438
  375MOL0    Cl49412  -2.954   6.898   1.748  0.4837 -0.3849  0.1472
  375MOL0     C49413  -1.894   7.176   1.625  0.4211 -0.1323  0.0375
  375MOL0     C49414  -1.772   7.238   1.631  0.1766 -0.5838  0.0264
  375MOL0     O49415  -1.432   7.152   1.570 -0.7362 -0.1948  0.1114
  375MOL0     C49416  -1.295   7.369   1.811  0.8377  0.1178  0.7318
  375MOL0     C49417  -1.178   7.429   1.853  0.4385 -0.0180 -0.3048
  375MOL0     N49418  -0.299   7.379   1.909  0.0429  0.3624 -0.0794
  375MOL0     N49419  -0.196   7.314   1.879  0.3991 -0.1088  0.7930
  375MOL0     C49420   0.581   7.034   0.791  0.2389  1.6372  0.9295
  375MOL0     C49421   0.549   6.997   0.660  0.3776 -0.5962 -0.1231
  375MOL0     C49422   0.269   6.978   0.275  0.0842  0.0924  1.0556
  375MOL0     C49423   0.156   6.938   0.207  0.3032  0.4331  0.2697
  375MOL0     C49424   0.162   6.931   0.064 -0.7012 -1.1393  0.3462
  375MOL0     C49425   0.282   6.961  -0.006 -0.2600  0.4224  0.1172
  375MOL0     O49426   0.291   6.936  -0.141 -0.2546  0.9041  0.2783
  375MOL0     C49427   0.191   6.884  -0.223  0.6761 -0.9741  0.3704
  375MOL0     C49428   0.165   6.743  -0.200  0.0347  0.5994 -0.6029
  375MOL0     C49429   0.273   6.668  -0.274 -0.6288  0.2492 -0.6430
  375MOL0     C49430   0.249   6.511  -0.270 -0.0564  0.8442  0.7173
  375MOL0     C49431   0.365   6.437  -0.330  0.3495 -0.8366  0.0027
  375MOL0     C49432   0.461   6.366  -0.358 -0.7381 -0.0121  0.0695
  375MOL0     C49433   0.386   7.015   0.061 -0.8128  0.4894  0.8811
  375MOL0     C49434   0.382   7.021   0.198 -1.5894  0.5600 -0.2425
  375MOL0     H49435   0.251   7.145   0.658 -1.8322  0.5360  1.4792
  375MOL0     H49436   0.338   7.239   0.877  2.2488 -0.7568  2.3579
  375MOL0     H49437   0.448   7.283   1.058 -1.7599  0.3899  1.3196
  375MOL0     H49438   0.534   7.223   1.193  1.1016  2.2583 -0.0416
  375MOL0     H49439   0.368   7.031   1.208  3.2860 -1.7865 -2.5430
  375MOL0     H49440   0.305   7.070   1.053  1.0831 -0.3242 -0.4808
  375MOL0     H49441   0.226   7.295   1.141  1.8538 -0.2691 -1.7342
  375MOL0     H49442   0.295   7.247   1.301  4.7833 -3.1204 -1.4604
  375MOL0     H49443   0.076   7.110   1.148  2.0754 -0.7121 -0.5308
  375MOL0     H49444   0.155   7.040   1.287  1.1305 -2.0639 -4.9675
  375MOL0     H49445  -0.081   7.175   1.338  1.2566 -2.1978  1.2820
  375MOL0     H49446   0.015   7.319   1.290  2.2531 -0.4492 -2.4649
  375MOL0     H49447   0.170   7.286   1.485 -0.8568  2.4459  1.4150
  375MOL0     H49448   0.090   7.138   1.532 -2.5902 -0.8709 -1.4222
  375MOL0     H49449   0.049   7.358   1.649  0.3298  3.4494 -1.6081
  375MOL0     H49450  -0.084   7.387   1.534 -1.1052 -1.3368  0.5201
  375MOL0     H49451  -0.037   7.163   1.729  0.3832 -0.9306 -0.1817
  375MOL0     H49452  -0.159   7.146   1.596 -2.7623  0.5268  1.3149
  375MOL0     H49453  -0.336   7.392   1.587 -0.3441 -0.9425 -0.0086
  375MOL0     H49454  -0.445   7.623   1.772  0.5934  0.4585  1.1905
  375MOL0     H49455  -0.512   7.532   1.909  1.3872  0.2383  0.9090
  375MOL0     H49456  -0.583   7.370   1.715 -3.1431 -0.1167  2.9738
  375MOL0     H49457  -0.580   7.515   1.619 -2.1512  2.9659  1.6193
  375MOL0     H49458  -0.728   7.487   1.892  1.0859 -4.1597 -0.7767
  375MOL0     H49459  -0.712   7.635   1.794  3.0402 -0.3254  0.3390
  375MOL0     H49460  -0.829   7.398   1.671  0.0733  1.2313 -3.3561
  375MOL0     H49461  -0.851   7.573   1.640 -0.8844 -0.9583 -1.1895
  375MOL0     H49462  -1.010   7.387   1.558  3.1427 -2.5079  1.8157
  375MOL0     H49463  -1.220   7.311   1.487 -0.8721 -1.3759  0.7848
  375MOL0     H49464  -1.585   7.004   1.780 -0.0644 -0.9649 -0.8620
  375MOL0     H49465  -1.810   6.895   1.803 -2.8715  0.6412 -0.2197
  375MOL0     H49466  -2.158   7.104   1.592  0.5117 -0.5695  0.2445
  375MOL0     H49467  -2.139   7.129   1.758 -0.3268 -3.4822  3.4961
  375MOL0     H49468  -2.229   6.880   1.773 -0.4978 -0.6068 -0.2460
  375MOL0     H49469  -2.272   6.900   1.604 -0.6770 -0.0210 -0.8289
  375MOL0     H49470  -2.361   7.108   1.799 -1.3200 -0.5963 -0.5093
  375MOL0     H49471  -2.445   6.954   1.798  0.4197 -1.1267  0.0670
  375MOL0     H49472  -2.387   7.145   1.565  2.1787 -2.2840 -0.3501
  375MOL0     H49473  -2.483   7.007   1.531 -0.4356  0.1634 -0.0615
  375MOL0     H49474  -2.644   7.173   1.554 -0.4844 -3.2705 -0.9053
  375MOL0     H49475  -2.556   7.245   1.699  1.8853 -1.9621  1.3118
  375MOL0     H49476  -2.644   7.082   1.843  0.8043 -3.4316 -0.1092
  375MOL0     H49477  -2.703   6.977   1.714  0.8731 -1.2420  1.9950
  375MOL0     H49478  -2.807   7.240   1.814  0.3781 -1.7801  2.8532
  375MOL0     H49479  -2.843   7.184   1.648  1.9003 -1.0606 -0.6889
  375MOL0     H49480  -3.018   7.118   1.816 -0.9485 -2.3079  2.3006
  375MOL0     H49481  -2.905   7.067   1.933  3.8897 -1.0579 -0.7657
  375MOL0     H49482  -1.966   7.213   1.552  2.1161  0.8605 -1.1957
  375MOL0     H49483  -1.755   7.331   1.579 -1.8209 -0.0838  0.1886
  375MOL0     H49484  -1.376   7.358   1.883  2.1261 -1.3347  2.0373
  375MOL0     H49485  -1.162   7.469   1.952 -0.5294  0.4242 -0.3098
  375MOL0     H49486   0.676   6.999   0.829 -0.4907 -2.2149 -0.3431
  375MOL0     H49487   0.623   6.932   0.615  2.9656  0.6133  2.0884
  375MOL0     H49488   0.072   6.904   0.267  1.2305  0.9165  1.8964
  375MOL0     H49489   0.079   6.902   0.001  1.1788 -2.4219 -1.6695
  375MOL0     H49490   0.217   6.902  -0.328  0.4023 -0.0883  0.4422
  375MOL0     H49491   0.101   6.946  -0.211  2.5382  2.5629 -2.0393
  375MOL0     H49492   0.170   6.717  -0.094  0.8808  1.3697 -0.4416
  375MOL0     H49493   0.065   6.713  -0.232 -0.7326 -0.3645  2.4237
  375MOL0     H49494   0.377   6.679  -0.241 -0.8460  0.2124  0.0813
  375MOL0     H49495   0.279   6.703  -0.377  0.5954  2.1939  0.0297
  375MOL0     H49496   0.243   6.486  -0.164  0.7290  2.6303  1.2179
  375MOL0     H49497   0.157   6.491  -0.326  2.5327 -0.3222 -3.5835
  375MOL0     H49498   0.549   6.305  -0.369 -0.2349  0.9054 -1.4226
  375MOL0     H49499   0.471   7.061   0.013 -1.9195  0.8083 -0.8635
  375MOL0     H49500   0.472   7.052   0.250 -0.3988 -0.6492 -1.4825
  376MOL0     O49501   4.812   8.567   1.025 -0.6750  0.4972 -0.4271
  376MOL0     C49502   4.857   8.553   0.913 -0.7855 -1.2381 -0.6276
  376MOL0     O49503   4.786   8.563   0.799  0.0703 -0.2034 -0.5104
  376MOL0     C49504   4.650   8.547   0.813 -0.0586 -0.3675 -1.1197
  376MOL0     C49505   4.573   8.636   0.738 -0.7555  0.0526  0.7065
  376MOL0     C49506   4.430   8.630   0.730  0.5230  0.1804 -0.7551
  376MOL0     C49507   4.368   8.532   0.818  0.0687 -0.6939 -0.0693
  376MOL0     O49508   4.227   8.535   0.838  0.1477 -0.1714 -0.4109
  376MOL0     C49509   4.156   8.417   0.857 -0.1397 -0.8146  0.3808
  376MOL0     C49510   4.011   8.455   0.856 -0.0960 -0.1310 -0.3832
  376MOL0     C49511   3.922   8.339   0.911 -0.2648 -0.1630 -0.2461
  376MOL0     C49512   3.771   8.391   0.899  0.8331 -1.2101  0.6857
  376MOL0     C49513   3.681   8.312   0.980 -0.3778  0.5549 -0.6879
  376MOL0     C49514   3.537   8.359   0.984 -0.3075  0.6135 -0.4447
  376MOL0     C49515   3.455   8.264   1.074  0.3441 -0.9386 -0.3320
  376MOL0     C49516   3.322   8.325   1.102  0.1704  0.5280  0.1200
  376MOL0     N49517   3.254   8.227   1.186  0.4841  0.4535  0.4081
  376MOL0     C49518   3.294   8.201   1.316  0.1435  0.2815  0.3272
  376MOL0     C49519   3.208   8.102   1.351 -0.3689  0.0321  0.1961
  376MOL0     C49520   3.184   8.035   1.485 -0.3028  0.2632  0.2305
  376MOL0     C49521   3.130   8.139   1.580 -0.7303 -0.2920 -0.0392
  376MOL0     C49522   3.093   8.065   1.712 -0.0110  0.0846  0.5214
  376MOL0     C49523   3.038   8.163   1.817  0.0227 -0.3500  0.4963
  376MOL0     O49524   3.125   8.266   1.850  1.1128  0.1970 -0.1656
  376MOL0     C49525   3.234   8.241   1.940  0.9486  0.0837 -0.6746
  376MOL0     C49526   3.266   8.117   1.999  0.2605 -0.7985 -0.3886
  376MOL0     C49527   3.372   8.104   2.085 -0.6371  0.4552  1.4949
  376MOL0     C49528   3.460   8.211   2.117 -0.6423 -0.3948 -0.2114
  376MOL0     C49529   3.578   8.189   2.207  0.5359 -0.2436 -0.4124
  376MOL0     O49530   3.605   8.062   2.262  0.5167  0.0570  0.8195
  376MOL0     C49531   3.722   8.056   2.343  0.1260  1.0366  0.0649
  376MOL0     C49532   3.849   8.072   2.295 -1.0494  0.5719 -0.5333
  376MOL0     C49533   3.965   8.053   2.374 -0.4687 -0.2035 -0.0395
  376MOL0     C49534   3.945   8.007   2.496 -0.6454  0.8929 -0.4113
  376MOL0     O49535   4.052   7.974   2.577  0.0685  0.2026  0.6016
  376MOL0     C49536   4.165   8.059   2.566  0.1732  0.3644  0.9180
  376MOL0     C49537   4.244   8.025   2.687  0.1889  0.7165 -0.7956
  376MOL0     C49538   4.385   8.091   2.693  0.3160 -0.1627  0.3819
  376MOL0     C49539   4.457   8.076   2.835 -0.3413  0.1656  0.8100
  376MOL0     C49540   4.596   8.147   2.835 -0.4851  0.0967 -0.3512
  376MOL0     C49541   4.587   8.292   2.871  0.0124 -0.3235  0.1808
  376MOL0     C49542   4.614   8.315   3.020  0.2315  1.0560  0.8024
  376MOL0     C49543   4.769   8.312   3.030  0.0029  0.7176  0.5595
  376MOL0    Cl49544   4.837   8.314   3.200 -0.3992  0.2493 -0.4030
  376MOL0     C49545   3.817   7.977   2.549  0.6067 -0.0491 -0.0077
  376MOL0     C49546   3.701   8.004   2.475  0.9131 -0.4321 -0.5169
  376MOL0     O49547   3.649   8.283   2.225 -0.1557 -0.2959 -0.3362
  376MOL0     C49548   3.420   8.340   2.067  0.4962 -0.4992 -0.2040
  376MOL0     C49549   3.315   8.348   1.976 -0.4412 -0.5029 -0.8202
  376MOL0     N49550   3.138   8.068   1.238  0.1831 -0.3708 -0.9040
  376MOL0     N49551   3.165   8.142   1.131 -0.2419  0.2321  0.2366
  376MOL0     C49552   4.447   8.448   0.903 -0.4599  0.1263 -0.1666
  376MOL0     C49553   4.586   8.451   0.898 -1.5337  0.3332  0.0657
  376MOL0     C49554   5.002   8.550   0.896  0.3714  0.1470 -0.2744
  376MOL0     C49555   5.076   8.507   1.006  0.2943 -0.7258 -0.4679
  376MOL0     C49556   5.208   8.487   0.985 -0.0857 -0.1824  0.2277
  376MOL0     C49557   5.274   8.516   0.869 -0.1584 -0.1866 -0.3766
  376MOL0     O49558   5.410   8.513   0.855  0.1972  0.7493  0.2630
  376MOL0     C49559   5.493   8.513   0.970 -0.0122 -0.7528 -0.5931
  376MOL0     C49560   5.485   8.645   1.050  0.2872 -0.7164  0.0759
  376MOL0     C49561   5.607   8.674   1.129 -0.1801 -0.4660  0.6378
  376MOL0     C49562   5.679   8.571   1.213  0.1891  0.2167  0.9260
  376MOL0     C49563   5.761   8.614   1.320 -0.1169 -0.7479 -0.4211
  376MOL0     C49564   5.827   8.650   1.412 -0.2994  0.1887  0.0791
  376MOL0     C49565   5.203   8.543   0.756  0.1963  0.6165 -0.2477
  376MOL0     C49566   5.066   8.565   0.767 -0.2922 -0.1201  0.1884
  376MOL0     H49567   4.625   8.713   0.682  2.7004 -2.6605 -0.1171
  376MOL0     H49568   4.369   8.705   0.680 -0.7391 -0.3578 -0.0793
  376MOL0     H49569   4.179   8.369   0.952  1.2863 -1.3678 -0.2141
  376MOL0     H49570   4.177   8.356   0.768  0.0647  2.4554 -2.0220
  376MOL0     H49571   3.968   8.471   0.757  0.3019  2.0449 -0.2539
  376MOL0     H49572   3.991   8.541   0.921 -1.3628  0.5391 -1.6159
  376MOL0     H49573   3.950   8.320   1.015  0.5697 -0.5534 -0.5295
  376MOL0     H49574   3.931   8.241   0.862 -0.5425 -0.0265 -0.5735
  376MOL0     H49575   3.782   8.494   0.934  1.8699 -1.0869  0.0534
  376MOL0     H49576   3.740   8.398   0.794 -1.9022  2.9309  1.5039
  376MOL0     H49577   3.731   8.296   1.076  1.0111  0.9154 -1.3230
  376MOL0     H49578   3.691   8.213   0.933  2.0109  0.3647  0.0844
  376MOL0     H49579   3.496   8.368   0.883  2.1139  0.9109 -1.4865
  376MOL0     H49580   3.533   8.463   1.020  1.0706  0.8333 -0.8404
  376MOL0     H49581   3.458   8.170   1.019 -2.2326 -1.6487  0.6256
  376MOL0     H49582   3.517   8.265   1.165  0.9128  0.2202 -0.7029
  376MOL0     H49583   3.250   8.348   1.023 -3.0220  0.9183  2.9123
  376MOL0     H49584   3.349   8.419   1.152  1.3495 -0.0282  0.5696
  376MOL0     H49585   3.369   8.245   1.381  0.6416 -1.0085  0.6544
  376MOL0     H49586   3.273   7.993   1.533  0.0505  2.1084  1.3177
  376MOL0     H49587   3.125   7.944   1.472  0.5212 -0.3959  1.0231
  376MOL0     H49588   3.039   8.182   1.539 -0.4771 -0.7494 -1.1174
  376MOL0     H49589   3.210   8.214   1.590  1.7419 -2.5256 -1.6448
  376MOL0     H49590   3.017   7.991   1.686 -0.6085  0.7510  0.3435
  376MOL0     H49591   3.182   8.013   1.750  0.9052 -2.2508 -4.0964
  376MOL0     H49592   2.997   8.107   1.902 -5.5146  1.5671 -0.5293
  376MOL0     H49593   2.949   8.214   1.781  0.4391 -0.7064 -1.0931
  376MOL0     H49594   3.211   8.026   1.977 -0.2615 -0.6766  0.3755
  376MOL0     H49595   3.390   8.002   2.118 -0.8592  0.4698  1.6590
  376MOL0     H49596   3.857   8.103   2.191 -0.3529  0.6836 -0.4557
  376MOL0     H49597   4.058   8.068   2.322 -0.4464 -1.7638 -0.5032
  376MOL0     H49598   4.141   8.165   2.577  1.1894  0.5449  1.5415
  376MOL0     H49599   4.226   8.046   2.476  0.2659  0.1643  1.0102
  376MOL0     H49600   4.261   7.917   2.695 -1.8179  0.3774 -0.5793
  376MOL0     H49601   4.190   8.054   2.777 -1.5145  0.6367 -1.7664
  376MOL0     H49602   4.378   8.200   2.689 -2.6676 -0.2319  1.4753
  376MOL0     H49603   4.444   8.053   2.610  0.4558 -0.8459  0.7820
  376MOL0     H49604   4.397   8.111   2.920 -0.6471  0.1325  0.6078
  376MOL0     H49605   4.465   7.969   2.856  1.7622 -0.1505 -1.2258
  376MOL0     H49606   4.646   8.139   2.738 -0.3460 -0.9750 -0.2076
  376MOL0     H49607   4.656   8.094   2.910 -1.1964 -0.0655  0.1217
  376MOL0     H49608   4.484   8.317   2.844  1.2066  1.2827 -3.6920
  376MOL0     H49609   4.656   8.354   2.811  0.1871 -3.3692 -3.0953
  376MOL0     H49610   4.589   8.413   3.063  1.2044  0.8640  1.8489
  376MOL0     H49611   4.567   8.235   3.078 -1.7722  0.6888 -1.1870
  376MOL0     H49612   4.808   8.397   2.973 -0.0367  1.7261  1.9989
  376MOL0     H49613   4.807   8.220   2.984 -1.1283 -0.0722  1.1712
  376MOL0     H49614   3.815   7.944   2.652  2.8672  0.1168  0.1297
  376MOL0     H49615   3.601   7.992   2.514  0.5734 -0.9561 -1.5125
  376MOL0     H49616   3.467   8.434   2.093 -2.3575  0.9916 -0.1685
  376MOL0     H49617   3.310   8.444   1.924  2.1431  0.1817  0.0517
  376MOL0     H49618   4.398   8.379   0.971  1.6080  0.5454  1.8757
  376MOL0     H49619   4.647   8.383   0.957 -1.8522  1.0482  1.2556
  376MOL0     H49620   5.030   8.483   1.101 -0.5680  1.1702 -0.3545
  376MOL0     H49621   5.260   8.467   1.078 -0.7144  0.6617  0.7744
  376MOL0     H49622   5.592   8.521   0.923 -0.5823  1.4911 -1.5435
  376MOL0     H49623   5.483   8.423   1.031 -0.1798 -1.0013 -0.9845
  376MOL0     H49624   5.493   8.716   0.967  2.4400  1.1337  1.7285
  376MOL0     H49625   5.395   8.652   1.112 -0.2497 -1.5408 -0.5840
  376MOL0     H49626   5.568   8.750   1.197 -2.2240  1.1005 -2.0866
  376MOL0     H49627   5.684   8.713   1.060  2.2953  1.2958  4.0881
  376MOL0     H49628   5.610   8.497   1.255  3.3720 -2.9942  1.0402
  376MOL0     H49629   5.745   8.515   1.146 -0.0085 -0.7241  1.4947
  376MOL0     H49630   5.902   8.693   1.476  0.7291 -0.1837 -0.8398
  376MOL0     H49631   5.262   8.561   0.667  1.0176 -0.2203  0.1120
  376MOL0     H49632   5.011   8.575   0.674 -0.1884 -0.5660  0.0737
  377MOL0     O49633   0.102   5.602   3.657  0.0807  0.1819  0.3073
  377MOL0     C49634   0.164   5.602   3.758  0.3589 -0.3563 -0.1948
  377MOL0     O49635   0.113   5.633   3.887  0.2091 -0.3733  0.6622
  377MOL0     C49636  -0.015   5.664   3.914  0.7630  0.3606 -0.7853
  377MOL0     C49637  -0.129   5.607   3.849  0.1510 -0.3275  0.7410
  377MOL0     C49638  -0.265   5.640   3.893 -0.0911  0.1188 -0.3468
  377MOL0     C49639  -0.285   5.726   3.999 -0.7189  0.1771  0.5847
  377MOL0     O49640  -0.400   5.740   4.065 -0.0728  0.0297  0.2504
  377MOL0     C49641  -0.518   5.739   3.989  0.6340 -0.3907 -0.0113
  377MOL0     C49642  -0.631   5.772   4.093 -0.2814  0.2181 -0.0896
  377MOL0     C49643  -0.766   5.712   4.054 -0.2084  0.2670 -0.0646
  377MOL0     C49644  -0.885   5.776   4.127  0.4209 -0.2809  0.3818
  377MOL0     C49645  -1.016   5.695   4.089 -0.2029  0.5443 -0.2870
  377MOL0     C49646  -1.027   5.548   4.139  0.4920  0.7969 -0.5475
  377MOL0     C49647  -1.167   5.491   4.121  0.5819  0.5176  0.9381
  377MOL0     C49648  -1.191   5.355   4.188 -0.6004  0.2808  0.1785
  377MOL0     N49649  -1.330   5.318   4.174  0.1272 -0.2340  0.7577
  377MOL0     C49650  -1.431   5.360   4.257  0.5539  1.0854  0.6095
  377MOL0     C49651  -1.540   5.286   4.218 -0.7187 -0.5148 -0.4277
  377MOL0     C49652  -1.671   5.326   4.274  0.2426  0.4124  0.0602
  377MOL0     C49653  -1.776   5.211   4.257 -0.3380  0.4856 -0.2560
  377MOL0     C49654  -1.901   5.241   4.341 -0.8281 -0.2101  1.6759
  377MOL0     C49655  -1.994   5.347   4.282  0.2302 -0.0447  0.2687
  377MOL0     O49656  -2.075   5.403   4.392 -0.0731 -0.0729 -0.1772
  377MOL0     C49657  -2.169   5.318   4.443  0.3163 -0.2123 -0.3569
  377MOL0     C49658  -2.211   5.196   4.391  0.6115 -0.2314  0.0814
  377MOL0     C49659  -2.300   5.111   4.459  0.1372  0.2844 -0.5275
  377MOL0     C49660  -2.340   5.141   4.590 -0.4545 -0.7626 -0.8197
  377MOL0     C49661  -2.395   5.032   4.672  0.9024 -0.7596 -0.6555
  377MOL0     O49662  -2.383   4.906   4.631  0.1625  0.5113  0.3871
  377MOL0     C49663  -2.440   4.805   4.702  0.6164  0.5430  0.2132
  377MOL0     C49664  -2.383   4.675   4.703  0.7873 -0.1027 -0.2453
  377MOL0     C49665  -2.469   4.561   4.724  0.3429  0.2952  0.1042
  377MOL0     C49666  -2.599   4.576   4.768  0.4235 -0.3509 -0.5618
  377MOL0     O49667  -2.675   4.463   4.775 -0.2854 -0.1568 -0.1607
  377MOL0     C49668  -2.800   4.464   4.851 -0.1563  0.6316 -0.4942
  377MOL0     C49669  -2.916   4.495   4.743 -0.0197  0.1942  0.4942
  377MOL0     C49670  -3.056   4.471   4.808  0.1572 -1.0530 -0.2226
  377MOL0     C49671  -3.079   4.332   4.865 -0.0733 -0.4596  0.5408
  377MOL0     C49672  -3.227   4.294   4.864  0.0368 -0.6329 -0.8325
  377MOL0     C49673  -3.245   4.173   4.952  0.2416  0.3749  0.6416
  377MOL0     C49674  -3.389   4.126   4.962 -0.1287 -0.3083  0.6609
  377MOL0     C49675  -3.467   4.196   5.071  0.1588 -0.3726 -0.1118
  377MOL0    Cl49676  -3.646   4.143   5.066 -0.2114  0.0194 -0.1955
  377MOL0     C49677  -2.646   4.712   4.795  0.4059 -0.4227  0.2273
  377MOL0     C49678  -2.567   4.822   4.766  0.3497  0.2965  0.4542
  377MOL0     O49679  -2.438   5.073   4.786  0.0143 -0.1902  0.1173
  377MOL0     C49680  -2.314   5.268   4.630  0.2825  0.1067 -0.3144
  377MOL0     C49681  -2.228   5.355   4.560  0.4186  0.3610 -0.6552
  377MOL0     N49682  -1.507   5.194   4.121  0.0061 -0.2424 -0.4809
  377MOL0     N49683  -1.376   5.212   4.102  0.3958 -0.3366 -1.0269
  377MOL0     C49684  -0.174   5.791   4.058  0.0501  0.5688 -0.5915
  377MOL0     C49685  -0.045   5.758   4.024 -0.8945  0.5281  0.3920
  377MOL0     C49686   0.314   5.586   3.753  0.5001 -0.4241  0.5594
  377MOL0     C49687   0.375   5.506   3.652 -0.8701  0.0985  1.0845
  377MOL0     C49688   0.516   5.494   3.640  0.7741 -0.2587 -0.7155
  377MOL0     C49689   0.596   5.553   3.739 -0.8420 -0.9414 -0.1807
  377MOL0     O49690   0.734   5.531   3.744 -0.3295 -0.0117  0.4354
  377MOL0     C49691   0.800   5.544   3.615 -0.1210 -0.1357  0.6680
  377MOL0     C49692   0.947   5.545   3.642  0.2389 -0.8997  0.0718
  377MOL0     C49693   1.040   5.566   3.530  0.2603 -0.8298 -0.2631
  377MOL0     C49694   1.187   5.577   3.568 -0.1547  0.1114  0.0126
  377MOL0     C49695   1.227   5.459   3.659 -0.9708 -1.3719  0.7994
  377MOL0     C49696   1.242   5.383   3.752 -0.3575  0.3427 -0.3060
  377MOL0     C49697   0.545   5.626   3.844  0.7608  0.3693 -0.2908
  377MOL0     C49698   0.404   5.638   3.850  0.4473 -0.5835  0.1951
  377MOL0     H49699  -0.107   5.545   3.762  0.6433 -0.5737  1.0368
  377MOL0     H49700  -0.339   5.588   3.833  0.7262  1.5718 -2.8060
  377MOL0     H49701  -0.544   5.649   3.933  0.1288 -0.2734  0.0272
  377MOL0     H49702  -0.517   5.819   3.914 -1.6383 -0.8862 -0.6644
  377MOL0     H49703  -0.642   5.881   4.095  1.4132  0.4024  0.3138
  377MOL0     H49704  -0.605   5.736   4.193 -0.4329  4.4179  1.6615
  377MOL0     H49705  -0.763   5.603   4.066  0.5524  0.3271  0.3143
  377MOL0     H49706  -0.775   5.724   3.945  1.5163 -0.8533 -0.3690
  377MOL0     H49707  -0.871   5.777   4.235  0.5698 -0.2846  0.3615
  377MOL0     H49708  -0.912   5.878   4.096  4.3286 -0.0158 -2.8924
  377MOL0     H49709  -1.008   5.687   3.980  0.4736  1.4047 -0.3116
  377MOL0     H49710  -1.100   5.756   4.124  0.9323  1.4627  0.9422
  377MOL0     H49711  -1.013   5.535   4.247  0.7768  0.4771 -0.6223
  377MOL0     H49712  -0.955   5.486   4.086  0.3471  1.0539 -1.0537
  377MOL0     H49713  -1.241   5.561   4.161 -0.9891 -0.9333  0.6869
  377MOL0     H49714  -1.188   5.482   4.013  1.9856  0.3973  0.6545
  377MOL0     H49715  -1.167   5.364   4.295 -1.0464 -1.8745  0.5074
  377MOL0     H49716  -1.133   5.271   4.149  0.2967 -0.2317  2.4332
  377MOL0     H49717  -1.428   5.440   4.330 -0.2909  2.0346 -0.3673
  377MOL0     H49718  -1.697   5.424   4.233  1.8003  1.9779  2.4746
  377MOL0     H49719  -1.655   5.350   4.380  0.0778 -2.3358  0.7660
  377MOL0     H49720  -1.731   5.125   4.308  1.1496  0.9706 -0.7033
  377MOL0     H49721  -1.801   5.191   4.153  0.5990 -0.3550 -0.3347
  377MOL0     H49722  -1.955   5.146   4.355 -2.1059  0.3563  0.7961
  377MOL0     H49723  -1.863   5.271   4.439 -0.8977 -1.5558  2.1346
  377MOL0     H49724  -2.048   5.310   4.194  4.2203 -1.0993 -1.9705
  377MOL0     H49725  -1.934   5.434   4.255  1.2685 -1.1607 -1.1416
  377MOL0     H49726  -2.189   5.163   4.290 -1.5689 -1.4192 -0.0718
  377MOL0     H49727  -2.349   5.020   4.425  2.8593 -0.9685 -1.3802
  377MOL0     H49728  -2.280   4.655   4.673 -0.4313 -1.9264 -3.7973
  377MOL0     H49729  -2.426   4.469   4.684  0.5013  0.8952 -1.1457
  377MOL0     H49730  -2.800   4.545   4.924 -2.7747  0.1863  0.1108
  377MOL0     H49731  -2.810   4.372   4.910  0.1634  0.8385 -0.1170
  377MOL0     H49732  -2.900   4.422   4.663 -0.2011  1.1810 -0.4672
  377MOL0     H49733  -2.919   4.593   4.696 -4.6905  0.8252  1.6072
  377MOL0     H49734  -3.131   4.489   4.730 -0.0215 -0.4574  0.0844
  377MOL0     H49735  -3.064   4.550   4.882  0.8653 -0.4603 -0.7657
  377MOL0     H49736  -3.027   4.254   4.809 -0.3326 -1.9609  2.3146
  377MOL0     H49737  -3.038   4.323   4.966  1.1256  0.4558  0.1534
  377MOL0     H49738  -3.263   4.286   4.762  1.3558  0.4791 -1.4258
  377MOL0     H49739  -3.283   4.370   4.920  1.3796  0.1568 -0.5059
  377MOL0     H49740  -3.194   4.178   5.048 -0.1221 -0.8411  0.9149
  377MOL0     H49741  -3.193   4.093   4.898 -2.0086 -0.6875 -0.0638
  377MOL0     H49742  -3.450   4.157   4.877  2.2788  4.1199  0.2378
  377MOL0     H49743  -3.392   4.021   4.991  3.2590 -0.1071  2.1838
  377MOL0     H49744  -3.456   4.301   5.043  1.7812 -0.8508 -1.4343
  377MOL0     H49745  -3.425   4.180   5.171 -0.5880  1.0085  0.4546
  377MOL0     H49746  -2.747   4.723   4.831  1.0330 -0.3003  2.0362
  377MOL0     H49747  -2.602   4.923   4.782  2.8420  2.0826 -3.8269
  377MOL0     H49748  -2.327   5.296   4.734  1.7165  0.4044 -0.2028
  377MOL0     H49749  -2.197   5.446   4.611 -0.6819 -1.6267  4.0896
  377MOL0     H49750  -0.192   5.846   4.150 -0.1533 -1.1897  0.4670
  377MOL0     H49751   0.029   5.812   4.083 -0.6713 -2.2227  2.8193
  377MOL0     H49752   0.323   5.464   3.567 -1.6994  2.8151  0.1457
  377MOL0     H49753   0.569   5.436   3.566  0.6478  0.0901 -1.0849
  377MOL0     H49754   0.766   5.629   3.555 -0.8092 -0.3364  0.7616
  377MOL0     H49755   0.774   5.460   3.549 -0.7448 -1.6190  2.6683
  377MOL0     H49756   0.963   5.626   3.714  0.9913  0.6844 -1.7986
  377MOL0     H49757   0.975   5.458   3.703  0.4749  0.6039  2.1985
  377MOL0     H49758   1.015   5.662   3.485  0.9300 -0.6401 -0.2434
  377MOL0     H49759   1.028   5.491   3.450  0.0440  1.0403 -2.0632
  377MOL0     H49760   1.244   5.584   3.475 -1.1490 -1.5324 -0.7590
  377MOL0     H49761   1.192   5.676   3.614 -3.1110  0.1714  0.3922
  377MOL0     H49762   1.248   5.321   3.839 -2.6336  0.2644 -0.1493
  377MOL0     H49763   0.611   5.670   3.917  0.3709 -1.5428  1.2728
  377MOL0     H49764   0.365   5.695   3.934 -1.8236 -1.5432 -0.1502
  378MOL0     O49765   5.707   3.364   3.471  0.0026 -0.1835 -0.3477
  378MOL0     C49766   5.697   3.453   3.559  0.0214 -0.5073 -0.0918
  378MOL0     O49767   5.599   3.558   3.562  0.4194  0.4133  0.2855
  378MOL0     C49768   5.503   3.555   3.461 -0.7359 -1.2574  0.2563
  378MOL0     C49769   5.380   3.517   3.499 -0.2528  0.1973  0.9434
  378MOL0     C49770   5.281   3.514   3.397 -0.3799  0.5187 -1.3945
  378MOL0     C49771   5.312   3.559   3.267  0.5441  0.1706 -0.6161
  378MOL0     O49772   5.211   3.550   3.174  0.1013 -0.2615  0.2145
  378MOL0     C49773   5.249   3.558   3.038 -0.3371  0.3518  0.5504
  378MOL0     C49774   5.143   3.499   2.943  0.7973  0.1764 -0.2256
  378MOL0     C49775   5.008   3.570   2.938  0.6236 -0.4823 -0.2730
  378MOL0     C49776   4.931   3.515   2.814  0.0031  0.2026  0.2310
  378MOL0     C49777   4.779   3.555   2.819  0.1758  0.0107 -0.2168
  378MOL0     C49778   4.760   3.706   2.817  0.0681 -0.1182  0.0339
  378MOL0     C49779   4.774   3.776   2.677 -0.8660  0.1715  0.8128
  378MOL0     C49780   4.657   3.766   2.576 -0.2027 -1.3779  0.1870
  378MOL0     N49781   4.548   3.860   2.591 -0.8037  0.3471 -0.8259
  378MOL0     C49782   4.509   3.961   2.496  0.2652  0.8784 -1.1623
  378MOL0     C49783   4.399   4.012   2.555  0.1934 -0.0345  0.3720
  378MOL0     C49784   4.303   4.108   2.491  0.4020  0.5662  0.1609
  378MOL0     C49785   4.176   4.120   2.572  0.1595 -0.2462  0.3975
  378MOL0     C49786   4.092   4.241   2.517  0.3084 -0.1883 -0.0022
  378MOL0     C49787   3.978   4.275   2.618  0.2106 -1.1598  0.4295
  378MOL0     O49788   3.892   4.163   2.607 -0.1822 -0.3278  0.5183
  378MOL0     C49789   3.754   4.174   2.588 -0.1060 -0.6318 -0.1342
  378MOL0     C49790   3.681   4.059   2.559 -0.2407  0.2238 -0.4482
  378MOL0     C49791   3.538   4.065   2.534  0.4923 -0.0791  0.6186
  378MOL0     C49792   3.472   4.188   2.519 -0.4779  0.4932 -0.3416
  378MOL0     C49793   3.329   4.196   2.477 -0.2011 -0.1412  0.6589
  378MOL0     O49794   3.283   4.094   2.401 -0.1131  0.1142 -0.2843
  378MOL0     C49795   3.148   4.077   2.403 -0.0602  0.2437 -0.1831
  378MOL0     C49796   3.078   4.036   2.517 -0.1303  1.1480 -0.1717
  378MOL0     C49797   2.939   4.010   2.515 -0.8579  0.4903 -0.2129
  378MOL0     C49798   2.869   4.022   2.401 -0.5068 -0.3554 -0.3662
  378MOL0     O49799   2.734   3.981   2.413  0.5932  0.3114 -0.1440
  378MOL0     C49800   2.644   4.084   2.405  0.3495  0.0762  0.4396
  378MOL0     C49801   2.574   4.085   2.266  0.4451  0.2836  0.7915
  378MOL0     C49802   2.522   3.941   2.228 -0.0928 -0.1136 -0.3897
  378MOL0     C49803   2.431   3.932   2.100 -0.5194  0.0987 -0.1806
  378MOL0     C49804   2.319   4.039   2.106  0.3764  0.7181  0.3384
  378MOL0     C49805   2.219   4.027   2.219  0.2649 -0.2780 -0.7668
  378MOL0     C49806   2.109   4.130   2.213 -0.8611  0.0039 -1.0328
  378MOL0     C49807   2.163   4.262   2.276 -0.5466  0.4589 -0.6368
  378MOL0    Cl49808   2.031   4.381   2.275  0.0895  0.2151 -0.3440
  378MOL0     C49809   2.924   4.066   2.282  0.4987  0.5361  0.1879
  378MOL0     C49810   3.065   4.094   2.287  0.6530 -0.4771 -0.7283
  378MOL0     O49811   3.257   4.292   2.518 -0.0364  0.9473  0.1824
  378MOL0     C49812   3.550   4.303   2.550  0.0892  0.8383  0.8782
  378MOL0     C49813   3.686   4.294   2.583 -0.6416  0.1845  0.0526
  378MOL0     N49814   4.392   3.962   2.685 -0.0936  0.0748  1.2186
  378MOL0     N49815   4.490   3.878   2.711 -1.0863  0.7377  0.0156
  378MOL0     C49816   5.434   3.608   3.236  0.6546 -0.4457  0.5320
  378MOL0     C49817   5.529   3.607   3.329 -0.0404 -0.3496 -0.0546
  378MOL0     C49818   5.794   3.443   3.669 -0.4807 -0.0225  0.9916
  378MOL0     C49819   5.799   3.546   3.772  0.1758 -0.7640 -1.2168
  378MOL0     C49820   5.916   3.546   3.855 -0.0903 -0.1666  0.2930
  378MOL0     C49821   6.010   3.442   3.855 -0.4451 -0.1654  0.6635
  378MOL0     O49822   6.127   3.428   3.924  0.0217 -1.0292  0.8049
  378MOL0     C49823   6.172   3.547   3.995  0.2118 -0.3817  0.1884
  378MOL0     C49824   6.288   3.514   4.085  0.2647  0.2298 -0.2084
  378MOL0     C49825   6.426   3.496   4.012  0.7106  0.1518 -0.8450
  378MOL0     C49826   6.549   3.489   4.104  0.3165  0.2447 -0.4800
  378MOL0     C49827   6.544   3.409   4.227 -1.2174  0.1097  0.7645
  378MOL0     C49828   6.557   3.346   4.330  0.0736 -1.3772 -0.5896
  378MOL0     C49829   5.987   3.343   3.762  0.0706  0.6853 -0.0613
  378MOL0     C49830   5.882   3.337   3.677 -0.3699  0.0568  0.0192
  378MOL0     H49831   5.364   3.459   3.590  0.9514 -2.4558 -0.4144
  378MOL0     H49832   5.185   3.464   3.406 -0.0362  0.2319  1.3865
  378MOL0     H49833   5.338   3.496   3.020  0.4424  1.0802  1.6875
  378MOL0     H49834   5.282   3.657   3.004  3.0072 -0.5040  0.9201
  378MOL0     H49835   5.128   3.394   2.971  0.4153  0.3838  0.3368
  378MOL0     H49836   5.190   3.499   2.843  2.4599 -0.7675  0.5007
  378MOL0     H49837   5.005   3.679   2.934 -0.6608 -0.5284 -3.1517
  378MOL0     H49838   4.955   3.544   3.030  0.1051  0.3313 -0.3349
  378MOL0     H49839   4.976   3.552   2.721  2.0522  2.4896  2.0079
  378MOL0     H49840   4.931   3.406   2.822 -0.2107  0.1164 -0.7358
  378MOL0     H49841   4.747   3.508   2.912  1.8265 -1.0272 -0.1402
  378MOL0     H49842   4.721   3.503   2.742 -0.1492  1.1195 -0.7386
  378MOL0     H49843   4.824   3.761   2.887 -2.2536  2.4034  0.3265
  378MOL0     H49844   4.655   3.718   2.846 -0.1442 -1.0062 -0.3598
  378MOL0     H49845   4.805   3.877   2.706 -0.0059 -0.9785  4.4109
  378MOL0     H49846   4.862   3.731   2.629 -1.7593  2.1265 -3.0545
  378MOL0     H49847   4.625   3.662   2.586  1.4936 -2.0688 -1.0898
  378MOL0     H49848   4.694   3.776   2.473 -2.2516 -0.2305 -0.4924
  378MOL0     H49849   4.545   3.976   2.395  3.2290 -0.7466 -0.4843
  378MOL0     H49850   4.281   4.065   2.393 -2.1534  0.5260  0.6893
  378MOL0     H49851   4.342   4.210   2.477 -2.4769  1.4538 -2.3255
  378MOL0     H49852   4.195   4.145   2.677  2.3249  1.9836 -0.4161
  378MOL0     H49853   4.112   4.031   2.569 -1.9445  1.2097 -0.8944
  378MOL0     H49854   4.154   4.330   2.503  0.4595 -0.4311 -0.8795
  378MOL0     H49855   4.054   4.213   2.419 -1.4385 -0.6903  0.7808
  378MOL0     H49856   3.931   4.366   2.578  3.4529  0.9353  1.0138
  378MOL0     H49857   4.012   4.302   2.718  0.1037  3.3555 -0.5310
  378MOL0     H49858   3.733   3.964   2.553  0.4930  0.6668 -1.4913
  378MOL0     H49859   3.472   3.978   2.535 -0.2864  0.5091  1.0062
  378MOL0     H49860   3.140   4.015   2.603  3.5401 -3.8189 -3.4726
  378MOL0     H49861   2.880   3.979   2.601 -2.6987  2.3494 -0.7077
  378MOL0     H49862   2.688   4.183   2.417 -1.9875  1.2076  0.2295
  378MOL0     H49863   2.571   4.073   2.486 -0.5582  1.6468 -0.1337
  378MOL0     H49864   2.657   4.119   2.204  1.2499  1.1826  2.3095
  378MOL0     H49865   2.498   4.164   2.269 -0.2481 -0.1539 -1.9266
  378MOL0     H49866   2.455   3.916   2.311  0.6093  1.0692  0.5763
  378MOL0     H49867   2.602   3.867   2.226 -0.6598 -0.7178 -0.6129
  378MOL0     H49868   2.489   3.946   2.008  0.8434 -0.3537  0.5974
  378MOL0     H49869   2.384   3.835   2.082  0.4091 -0.0867 -1.7788
  378MOL0     H49870   2.256   4.034   2.017 -1.3251 -0.1761  1.5475
  378MOL0     H49871   2.373   4.134   2.107 -0.4119  1.1767  0.1434
  378MOL0     H49872   2.270   4.046   2.314  0.8022 -2.0399 -0.6746
  378MOL0     H49873   2.166   3.933   2.234 -2.5791  1.4033  0.6823
  378MOL0     H49874   2.075   4.148   2.111 -0.0461  1.6761 -1.0404
  378MOL0     H49875   2.020   4.098   2.269 -1.6507 -0.0468 -2.2854
  378MOL0     H49876   2.251   4.302   2.226 -1.1526  1.6141 -0.7989
  378MOL0     H49877   2.198   4.255   2.379  2.8426 -2.4585 -1.7727
  378MOL0     H49878   2.876   4.059   2.185  2.5366  0.3156 -0.8525
  378MOL0     H49879   3.114   4.122   2.194  1.9926  1.4735  0.4961
  378MOL0     H49880   3.493   4.394   2.540 -3.3334 -1.1146  1.2326
  378MOL0     H49881   3.741   4.387   2.597  0.9562 -0.8135  0.6954
  378MOL0     H49882   5.456   3.668   3.148  2.0896 -2.5290 -0.6143
  378MOL0     H49883   5.629   3.650   3.321  0.0177 -0.1409  1.5398
  378MOL0     H49884   5.731   3.629   3.781  1.6171  0.2601  1.2682
  378MOL0     H49885   5.930   3.633   3.919  1.6931 -0.9581  1.0516
  378MOL0     H49886   6.100   3.603   4.054  5.1114  7.0593  0.3615
  378MOL0     H49887   6.205   3.619   3.920 -2.1432 -1.1937 -1.7582
  378MOL0     H49888   6.295   3.600   4.152 -0.5941 -0.9362  1.4516
  378MOL0     H49889   6.263   3.425   4.143  0.1761 -0.1280 -0.7843
  378MOL0     H49890   6.454   3.588   3.959  0.2836  2.0509  1.9954
  378MOL0     H49891   6.408   3.411   3.947 -3.6158 -0.2410  0.5221
  378MOL0     H49892   6.644   3.457   4.060  0.2727 -2.1228  1.0051
  378MOL0     H49893   6.570   3.591   4.139  0.2266 -0.8296  3.1147
  378MOL0     H49894   6.571   3.309   4.429 -0.7634  0.1872  0.1531
  378MOL0     H49895   6.063   3.267   3.750 -0.5539 -0.4260  2.4659
  378MOL0     H49896   5.891   3.256   3.605 -1.5497 -3.0459  3.1036
  379MOL0     O49897   6.941   8.601   2.662  0.3230 -0.4707 -0.0330
  379MOL0     C49898   6.941   8.480   2.654 -0.8523 -0.5970  0.3929
  379MOL0     O49899   6.847   8.407   2.600  0.5196  0.6430 -0.8042
  379MOL0     C49900   6.712   8.451   2.610 -0.2815 -0.4180  0.1640
  379MOL0     C49901   6.646   8.475   2.492 -0.1000  0.2614 -0.3090
  379MOL0     C49902   6.524   8.533   2.480 -0.4281 -0.3360 -0.2939
  379MOL0     C49903   6.441   8.567   2.588 -0.4632 -0.2377 -0.0030
  379MOL0     O49904   6.319   8.629   2.568 -0.6699  0.2784 -0.0163
  379MOL0     C49905   6.251   8.689   2.682  0.1106  0.8078  0.3964
  379MOL0     C49906   6.114   8.740   2.649  0.5498  0.0852 -0.2464
  379MOL0     C49907   6.115   8.858   2.560 -0.0045 -0.5366 -0.0700
  379MOL0     C49908   5.997   8.944   2.566  0.3272  0.4298 -0.2468
  379MOL0     C49909   6.011   9.073   2.485  1.7470 -0.2738  0.6452
  379MOL0     C49910   6.105   9.169   2.560 -0.2089 -0.0509 -0.3299
  379MOL0     C49911   6.098   9.308   2.515  0.6188  0.0833 -0.0821
  379MOL0     C49912   6.230   9.376   2.493 -0.4719 -0.3076  0.0083
  379MOL0     N49913   6.201   9.522   2.482  0.5214  0.1477  0.2059
  379MOL0     C49914   6.221   9.632   2.571 -0.3294  0.2364  0.1125
  379MOL0     C49915   6.155   9.733   2.511 -0.7455  0.0395 -0.9828
  379MOL0     C49916   6.154   9.873   2.559  0.8168  0.3183  0.5262
  379MOL0     C49917   6.010   9.918   2.577 -0.7603 -0.0440 -0.6284
  379MOL0     C49918   5.941   9.866   2.708 -0.3284  0.5185  0.1192
  379MOL0     C49919   5.794   9.917   2.724 -0.0491  0.2515 -1.0782
  379MOL0     O49920   5.746   9.884   2.855  0.2887 -0.4758 -0.2358
  379MOL0     C49921   5.616   9.913   2.894  0.6791  0.6054  0.4438
  379MOL0     C49922   5.557   9.842   3.004  0.5210 -0.7440 -0.0569
  379MOL0     C49923   5.424   9.872   3.042 -0.8011  0.3725  0.5595
  379MOL0     C49924   5.338   9.952   2.961 -0.6302 -0.6791 -0.7506
  379MOL0     C49925   5.194   9.969   2.990  0.2860  0.7360 -0.1171
  379MOL0     O49926   5.130  10.085   2.939 -0.1416  0.1372  0.2425
  379MOL0     C49927   4.989  10.102   2.955 -0.5317 -0.4360 -0.3277
  379MOL0     C49928   4.951  10.229   2.980  0.7022  0.0576 -0.4261
  379MOL0     C49929   4.823  10.266   2.978  0.0609  0.0792 -0.4839
  379MOL0     C49930   4.721  10.177   2.937  0.0004  0.1397 -0.9246
  379MOL0     O49931   4.590  10.221   2.921  0.4028  0.1459  0.4783
  379MOL0     C49932   4.501  10.146   2.839  0.3642 -0.2253 -1.1608
  379MOL0     C49933   4.376  10.228   2.807 -1.0310  0.4527 -0.7357
  379MOL0     C49934   4.271  10.151   2.728  0.5053  0.0663  0.5266
  379MOL0     C49935   4.193  10.041   2.817 -0.0575  0.1409  0.5259
  379MOL0     C49936   4.192   9.903   2.749 -0.5764 -0.6012 -0.6323
  379MOL0     C49937   4.116   9.889   2.613 -0.1666 -0.4774  0.4489
  379MOL0     C49938   3.983   9.962   2.607  0.0446 -0.4592 -0.3662
  379MOL0     C49939   3.903   9.929   2.482 -0.0188  0.7768  0.3453
  379MOL0    Cl49940   3.737   9.984   2.503  0.5200 -0.5253 -0.1697
  379MOL0     C49941   4.761  10.045   2.928  0.0000 -0.1770 -0.6107
  379MOL0     C49942   4.889  10.012   2.937 -1.3853  0.9255  0.1589
  379MOL0     O49943   5.139   9.884   3.064  0.1385  0.0457 -0.0117
  379MOL0     C49944   5.397  10.004   2.848 -0.2558  0.9886 -0.1475
  379MOL0     C49945   5.531   9.988   2.805 -0.6450  0.5936 -1.0662
  379MOL0     N49946   6.110   9.695   2.389 -0.1891  0.0383  0.9530
  379MOL0     N49947   6.143   9.574   2.367  0.1807 -0.2098 -0.3756
  379MOL0     C49948   6.512   8.550   2.716 -0.3308  0.0112  0.3655
  379MOL0     C49949   6.640   8.489   2.729 -0.5241 -0.5833 -0.2056
  379MOL0     C49950   7.067   8.401   2.699 -0.1014 -0.4416  0.6716
  379MOL0     C49951   7.063   8.267   2.713  0.0759  0.3941  0.0259
  379MOL0     C49952   7.170   8.187   2.741 -0.1328  0.2483 -0.2425
  379MOL0     C49953   7.289   8.247   2.791  1.2915  0.3267  0.4175
  379MOL0     O49954   7.374   8.156   2.842  0.0723 -0.6522  0.5926
  379MOL0     C49955   7.466   8.113   2.741 -0.2128  0.2994 -0.0532
  379MOL0     C49956   7.449   7.968   2.719 -0.3438 -0.6896 -0.5575
  379MOL0     C49957   7.486   7.896   2.847 -0.0255  0.3232  0.2491
  379MOL0     C49958   7.476   7.740   2.836 -0.9242 -0.4373  0.0614
  379MOL0     C49959   7.583   7.680   2.755  0.0029  0.4502 -0.6617
  379MOL0     C49960   7.660   7.632   2.671  0.8231 -0.3258  0.0316
  379MOL0     C49961   7.288   8.385   2.814  0.0331  0.4105  0.7091
  379MOL0     C49962   7.193   8.463   2.743 -0.1885  0.6630 -0.6193
  379MOL0     H49963   6.695   8.439   2.402  0.7213 -1.0788  0.6320
  379MOL0     H49964   6.491   8.542   2.377 -0.2940 -1.5974 -0.4691
  379MOL0     H49965   6.307   8.777   2.717  2.3962  0.2701 -1.6047
  379MOL0     H49966   6.235   8.621   2.766 -1.8242  1.3077  0.4719
  379MOL0     H49967   6.062   8.761   2.743  0.5275  0.0752 -0.2560
  379MOL0     H49968   6.044   8.662   2.618 -1.6597  1.5369  0.8493
  379MOL0     H49969   6.133   8.814   2.461  0.7949 -0.8655  0.2107
  379MOL0     H49970   6.198   8.923   2.589  1.2043 -3.5708  4.2927
  379MOL0     H49971   5.913   8.887   2.524  0.3569  0.6229 -0.5764
  379MOL0     H49972   5.966   8.966   2.668  1.8788 -4.8704  1.6881
  379MOL0     H49973   5.913   9.120   2.475  1.5725 -0.2144  2.3537
  379MOL0     H49974   6.051   9.059   2.383  0.1807  1.8441 -0.3260
  379MOL0     H49975   6.209   9.135   2.561 -0.1186  0.1037 -1.7391
  379MOL0     H49976   6.075   9.171   2.665  0.5968  0.4733 -0.1022
  379MOL0     H49977   6.036   9.315   2.425 -0.4259  2.0906  0.7389
  379MOL0     H49978   6.043   9.362   2.593 -0.5489 -1.7282  0.4028
  379MOL0     H49979   6.282   9.348   2.401 -1.2951  2.5386 -1.4517
  379MOL0     H49980   6.293   9.358   2.580 -0.4360 -3.1843 -0.5414
  379MOL0     H49981   6.271   9.640   2.666 -1.7732 -1.4917  1.0724
  379MOL0     H49982   6.195   9.933   2.477 -2.0034 -0.8324 -1.9393
  379MOL0     H49983   6.208   9.889   2.652  1.4937  0.3737  0.1329
  379MOL0     H49984   5.956   9.875   2.492 -0.9364 -0.6176 -0.2333
  379MOL0     H49985   6.005  10.026   2.566 -0.5458 -0.0988 -1.2907
  379MOL0     H49986   5.938   9.757   2.701 -2.6303  0.6278 -1.2470
  379MOL0     H49987   6.002   9.899   2.793 -1.0175 -0.8365  1.1733
  379MOL0     H49988   5.726   9.873   2.651 -1.9748  1.6964 -0.2344
  379MOL0     H49989   5.791  10.024   2.703 -4.9963  0.2674 -1.3815
  379MOL0     H49990   5.625   9.776   3.057 -0.2768  0.0485  2.0794
  379MOL0     H49991   5.398   9.823   3.136 -2.6340  2.7251  1.3784
  379MOL0     H49992   5.017  10.314   2.996  1.1693 -0.0825 -1.5135
  379MOL0     H49993   4.793  10.370   2.973  1.5490  0.4995 -1.2172
  379MOL0     H49994   4.473  10.049   2.882  2.0271 -0.2140  0.0693
  379MOL0     H49995   4.548  10.121   2.743  0.9030 -2.6249 -0.3407
  379MOL0     H49996   4.394  10.316   2.746 -0.4545 -0.7399 -2.3570
  379MOL0     H49997   4.337  10.258   2.905  0.2140  0.8426 -0.3435
  379MOL0     H49998   4.324  10.110   2.641  0.6438  1.5081 -0.1087
  379MOL0     H49999   4.196  10.224   2.695 -0.9028 -1.5148  0.0617
  379MOL0     H50000   4.249  10.036   2.911  0.2336  2.1157  0.4963
  379MOL0     H50001   4.088  10.068   2.828  0.3812  2.6280 -0.6043
  379MOL0     H50002   4.135   9.836   2.812 -0.0925 -0.5232 -0.0988
  379MOL0     H50003   4.296   9.871   2.738  0.4003  0.0820  4.2390
  379MOL0     H50004   4.096   9.783   2.596 -1.6494 -0.4938  2.0321
  379MOL0     H50005   4.178   9.931   2.533 -0.3978 -1.7572 -0.4178
  379MOL0     H50006   3.926   9.945   2.699 -0.8527  2.1356 -0.3815
  379MOL0     H50007   4.011  10.067   2.614  1.2003 -0.8187  1.3402
  379MOL0     H50008   3.900   9.821   2.464  1.4696  0.4161  1.9410
  379MOL0     H50009   3.961   9.969   2.397  0.2401 -0.2741  0.0058
  379MOL0     H50010   4.686   9.968   2.917 -2.1607  1.4782  1.6419
  379MOL0     H50011   4.916   9.909   2.917  0.5288  1.5720 -0.7412
  379MOL0     H50012   5.342  10.073   2.784 -1.4498 -0.1684 -0.4193
  379MOL0     H50013   5.556  10.041   2.714 -0.5028 -0.5421 -1.7149
  379MOL0     H50014   6.463   8.584   2.807 -1.6436  3.2637 -1.3658
  379MOL0     H50015   6.683   8.468   2.827 -0.4963 -2.4420 -0.5629
  379MOL0     H50016   6.965   8.224   2.701 -0.7069  1.9354  0.6220
  379MOL0     H50017   7.172   8.078   2.733  1.2856  0.0555  1.9633
  379MOL0     H50018   7.568   8.138   2.770  0.0521  1.7230 -2.0441
  379MOL0     H50019   7.443   8.162   2.646  0.6459  0.5837 -0.1223
  379MOL0     H50020   7.344   7.952   2.693 -0.5852  1.3102 -0.9490
  379MOL0     H50021   7.512   7.928   2.639 -0.5639 -0.8567 -0.6491
  379MOL0     H50022   7.407   7.918   2.920 -1.0216 -0.8347 -0.4381
  379MOL0     H50023   7.588   7.926   2.872  0.5791 -0.0678 -1.6229
  379MOL0     H50024   7.477   7.696   2.936 -0.0362  1.1483  0.7930
  379MOL0     H50025   7.376   7.721   2.798 -1.3509 -1.2889  1.5350
  379MOL0     H50026   7.722   7.585   2.598  0.4978  0.1320 -0.5465
  379MOL0     H50027   7.373   8.426   2.868 -0.8165  0.3489  2.1538
  379MOL0     H50028   7.206   8.570   2.732 -0.8734  0.8350  0.1686
  380MOL0     O50029   5.310   4.795   7.770  0.1056 -0.1427  0.2290
  380MOL0     C50030   5.408   4.725   7.747  0.2507 -0.2211 -0.4741
  380MOL0     O50031   5.424   4.593   7.788 -0.3485  0.2865 -0.1983
  380MOL0     C50032   5.320   4.520   7.858  0.2501  0.5429 -0.4607
  380MOL0     C50033   5.215   4.571   7.937  0.7553  0.4203 -0.2136
  380MOL0     C50034   5.112   4.492   7.982 -0.0570 -0.1165 -0.1693
  380MOL0     C50035   5.099   4.356   7.956  0.2475  0.5059 -0.0378
  380MOL0     O50036   4.984   4.292   7.991 -0.5515 -0.7067 -0.1546
  380MOL0     C50037   4.963   4.157   7.935  0.6032  0.0136 -0.0262
  380MOL0     C50038   4.822   4.118   7.989  0.6353  0.2668  0.1500
  380MOL0     C50039   4.698   4.175   7.899  0.1334 -0.6298 -0.0147
  380MOL0     C50040   4.636   4.074   7.802 -1.1635  0.0647 -0.2252
  380MOL0     C50041   4.526   4.134   7.708  0.4391 -0.1103 -0.1224
  380MOL0     C50042   4.405   4.204   7.789  0.5246  0.4055  0.0418
  380MOL0     C50043   4.317   4.243   7.680 -0.1667  0.2612  0.3435
  380MOL0     C50044   4.195   4.333   7.717 -0.1343 -0.3601  0.1376
  380MOL0     N50045   4.101   4.356   7.602 -0.1047 -0.3498  0.1490
  380MOL0     C50046   3.975   4.304   7.588  0.0212  0.4272  0.3317
  380MOL0     C50047   3.933   4.357   7.463  0.4037 -1.0788  0.7678
  380MOL0     C50048   3.796   4.340   7.408 -0.8086  0.6587 -0.5108
  380MOL0     C50049   3.711   4.463   7.387  0.5116  0.4630 -0.4012
  380MOL0     C50050   3.764   4.550   7.268  0.0377  0.5330 -0.6462
  380MOL0     C50051   3.653   4.633   7.200  0.1129 -0.0249  0.1729
  380MOL0     O50052   3.575   4.542   7.125 -0.3431 -0.5858  0.7174
  380MOL0     C50053   3.459   4.592   7.065  0.2903 -0.3397 -0.2726
  380MOL0     C50054   3.428   4.733   7.058 -0.4101 -0.2769  0.0953
  380MOL0     C50055   3.311   4.777   7.001  0.1427 -0.1732 -0.3842
  380MOL0     C50056   3.222   4.679   6.950  0.2295 -0.1436  0.5655
  380MOL0     C50057   3.088   4.709   6.890 -1.2143  0.6967 -0.3272
  380MOL0     O50058   3.059   4.845   6.860 -0.5561 -0.8018 -0.6017
  380MOL0     C50059   2.936   4.873   6.811  0.3959  0.8233  0.0354
  380MOL0     C50060   2.869   4.979   6.871  1.0640 -0.4402  0.3339
  380MOL0     C50061   2.766   5.040   6.799  0.5820  0.3220 -0.0170
  380MOL0     C50062   2.728   4.996   6.678  0.7719 -0.4814  0.4938
  380MOL0     O50063   2.640   5.084   6.624  0.1388 -0.6216  0.2597
  380MOL0     C50064   2.604   5.067   6.491  0.3146 -0.1459  0.4066
  380MOL0     C50065   2.550   5.202   6.435 -0.3982  0.5493 -0.4711
  380MOL0     C50066   2.516   5.191   6.292 -0.0684  0.2128  0.1886
  380MOL0     C50067   2.633   5.156   6.197  0.1149 -0.2355 -0.1410
  380MOL0     C50068   2.593   5.198   6.051 -0.6113  0.2872  0.2086
  380MOL0     C50069   2.618   5.338   6.014 -1.0364 -0.3990 -0.6985
  380MOL0     C50070   2.582   5.347   5.865  0.3499  0.3023  1.2919
  380MOL0     C50071   2.613   5.491   5.828 -0.1891 -0.4375  0.3371
  380MOL0    Cl50072   2.592   5.502   5.653  0.1913  0.6791  0.1690
  380MOL0     C50073   2.793   4.883   6.621  0.5272 -0.0011 -0.5651
  380MOL0     C50074   2.894   4.817   6.689 -0.9213 -0.6673 -0.9037
  380MOL0     O50075   3.006   4.615   6.873 -0.8226 -0.0902  0.1118
  380MOL0     C50076   3.257   4.539   6.952  0.0050 -0.7538 -0.3388
  380MOL0     C50077   3.371   4.497   7.017 -0.6045  0.8166 -0.6003
  380MOL0     N50078   4.040   4.418   7.406 -0.7331 -0.1827  0.2869
  380MOL0     N50079   4.141   4.423   7.489  0.9409  0.5771  0.0449
  380MOL0     C50080   5.195   4.302   7.869 -0.0077 -0.4571  0.3173
  380MOL0     C50081   5.307   4.378   7.827  0.4282 -0.3277  0.3598
  380MOL0     C50082   5.518   4.798   7.675 -0.2118 -0.3883 -0.8759
  380MOL0     C50083   5.650   4.746   7.678  1.1220  0.1945  0.6352
  380MOL0     C50084   5.750   4.823   7.630  0.3379  0.5276 -0.8281
  380MOL0     C50085   5.737   4.948   7.578 -0.2121 -0.1147  0.2506
  380MOL0     O50086   5.854   5.008   7.546  0.1485  1.0447  0.4842
  380MOL0     C50087   5.859   5.125   7.458 -0.3641  0.2645 -0.7397
  380MOL0     C50088   6.008   5.151   7.435  0.2062  0.4514  0.6002
  380MOL0     C50089   6.033   5.283   7.349  0.0727 -0.0826 -1.0366
  380MOL0     C50090   6.188   5.287   7.334 -0.6521  0.1588 -0.3287
  380MOL0     C50091   6.236   5.417   7.270  0.3434  0.8145 -0.3077
  380MOL0     C50092   6.277   5.524   7.225 -0.0095 -0.2353 -0.8755
  380MOL0     C50093   5.606   4.998   7.560  0.2645  0.2988  0.1710
  380MOL0     C50094   5.496   4.923   7.606 -0.0730  0.3584 -0.3884
  380MOL0     H50095   5.195   4.677   7.951 -1.7945 -0.0301  0.0479
  380MOL0     H50096   5.021   4.528   8.028 -0.0644 -1.6853  1.1219
  380MOL0     H50097   5.032   4.087   7.983  0.1075 -1.5391 -1.4890
  380MOL0     H50098   4.966   4.155   7.826 -0.9289 -0.4049 -0.0896
  380MOL0     H50099   4.808   4.143   8.094  0.4186 -1.4083  0.5389
  380MOL0     H50100   4.816   4.009   7.987 -3.7795  0.3069 -2.7099
  380MOL0     H50101   4.727   4.269   7.851 -0.5974  0.6329  1.8928
  380MOL0     H50102   4.614   4.196   7.966 -1.2969  0.8512 -2.1460
  380MOL0     H50103   4.716   4.024   7.746 -0.6333 -1.5314  1.8231
  380MOL0     H50104   4.589   3.999   7.867  0.9682 -0.6959  0.5214
  380MOL0     H50105   4.484   4.064   7.637  1.4220  0.9776 -1.8447
  380MOL0     H50106   4.575   4.211   7.647  1.3345  0.3512  1.1203
  380MOL0     H50107   4.420   4.288   7.858 -2.0540  2.2576 -1.4771
  380MOL0     H50108   4.359   4.124   7.848 -2.3129 -0.2673 -2.8526
  380MOL0     H50109   4.375   4.304   7.610 -0.1371  1.5567  1.4428
  380MOL0     H50110   4.274   4.154   7.633 -1.4184  1.2869 -0.5355
  380MOL0     H50111   4.237   4.422   7.766  1.3476 -1.2672  0.5991
  380MOL0     H50112   4.144   4.282   7.799 -1.1156  1.3638  0.6524
  380MOL0     H50113   3.918   4.238   7.653  1.7548 -1.5007 -0.0093
  380MOL0     H50114   3.758   4.248   7.455 -0.3927 -0.2792 -1.9574
  380MOL0     H50115   3.814   4.303   7.307  5.2582  2.5068 -0.4532
  380MOL0     H50116   3.726   4.521   7.478 -0.5993 -0.0755  0.1493
  380MOL0     H50117   3.605   4.436   7.385  0.2174  1.0700  2.6406
  380MOL0     H50118   3.830   4.624   7.315  0.2865 -1.6995  2.8803
  380MOL0     H50119   3.808   4.480   7.197  1.6651  0.2548  0.5829
  380MOL0     H50120   3.698   4.693   7.120 -0.0382 -1.5345 -1.1023
  380MOL0     H50121   3.598   4.693   7.273 -0.7635  2.9941 -2.7149
  380MOL0     H50122   3.499   4.811   7.085 -1.9744  1.4605 -0.5859
  380MOL0     H50123   3.291   4.884   7.000 -0.0219 -0.1928  0.2923
  380MOL0     H50124   2.912   5.016   6.964  1.2861  0.4544 -0.1205
  380MOL0     H50125   2.717   5.130   6.837  1.3046 -0.6354  3.5276
  380MOL0     H50126   2.519   4.998   6.489 -0.2429  0.5100  1.0172
  380MOL0     H50127   2.689   5.035   6.430  0.8561  3.0793 -0.6975
  380MOL0     H50128   2.636   5.267   6.451  0.3965 -0.5622 -0.1455
  380MOL0     H50129   2.461   5.247   6.481 -1.6576 -0.6002 -1.6420
  380MOL0     H50130   2.487   5.294   6.268  2.7690  1.2568  0.8005
  380MOL0     H50131   2.434   5.121   6.276 -0.8264  0.9689  0.6679
  380MOL0     H50132   2.725   5.213   6.212 -1.4012  2.9301 -1.8424
  380MOL0     H50133   2.648   5.049   6.180  3.1096 -0.6041  3.4988
  380MOL0     H50134   2.487   5.170   6.043 -1.0382  2.0583 -0.9203
  380MOL0     H50135   2.646   5.135   5.978 -2.6502 -0.8494 -0.3842
  380MOL0     H50136   2.723   5.364   6.026 -1.1894 -0.0368 -0.1176
  380MOL0     H50137   2.554   5.406   6.071 -0.4130 -0.0412 -0.4142
  380MOL0     H50138   2.656   5.291   5.807  1.4403  0.4762  2.4712
  380MOL0     H50139   2.481   5.314   5.837  0.9887  0.2739 -1.1763
  380MOL0     H50140   2.710   5.527   5.862 -0.0849 -0.2649 -0.1322
  380MOL0     H50141   2.543   5.557   5.880 -2.0188  0.2483 -2.7009
  380MOL0     H50142   2.763   4.841   6.526  3.7778 -0.8245 -1.3370
  380MOL0     H50143   2.951   4.737   6.642 -0.4292 -0.7863 -0.1238
  380MOL0     H50144   3.188   4.467   6.909 -0.1439  0.5464 -2.3983
  380MOL0     H50145   3.395   4.394   7.040 -3.5523 -0.4509 -2.6464
  380MOL0     H50146   5.197   4.203   7.825  1.1136 -0.7580  0.9925
  380MOL0     H50147   5.386   4.334   7.767 -2.5484 -2.8731 -2.0823
  380MOL0     H50148   5.673   4.644   7.708 -0.3648 -0.2978  0.1967
  380MOL0     H50149   5.846   4.776   7.647  0.2099  0.1117 -1.2650
  380MOL0     H50150   5.810   5.208   7.509 -2.5447 -0.0771 -2.1052
  380MOL0     H50151   5.806   5.121   7.362  0.8650  0.8229 -1.4701
  380MOL0     H50152   6.048   5.173   7.535 -1.6420  0.8747  1.2806
  380MOL0     H50153   6.056   5.075   7.373  0.5674  0.9900  0.2087
  380MOL0     H50154   5.998   5.367   7.409 -0.9602 -0.0012 -1.7279
  380MOL0     H50155   5.976   5.281   7.256 -2.8955 -1.9246  0.6406
  380MOL0     H50156   6.220   5.290   7.439 -2.7501  0.1745  0.3610
  380MOL0     H50157   6.229   5.201   7.279  0.5702  1.9415 -2.3339
  380MOL0     H50158   6.288   5.621   7.181  0.2165  0.3392  0.3870
  380MOL0     H50159   5.585   5.098   7.525  1.3003  0.8133  0.9674
  380MOL0     H50160   5.399   4.969   7.591  1.6536  4.3218 -0.6994
  381MOL0     O50161   6.631   9.532   8.585  0.2470 -0.9697 -0.0858
  381MOL0     C50162   6.654   9.586   8.692 -0.0582  0.6040 -0.2107
  381MOL0     O50163   6.563   9.633   8.780  0.1423  0.5685 -0.1627
  381MOL0     C50164   6.439   9.570   8.779 -0.0549 -0.1393 -0.0164
  381MOL0     C50165   6.425   9.431   8.788 -0.1082  0.5338 -0.5337
  381MOL0     C50166   6.296   9.374   8.785  0.2580 -0.5668 -0.4134
  381MOL0     C50167   6.179   9.451   8.763  0.7364  0.2014  0.0190
  381MOL0     O50168   6.058   9.380   8.756  0.2132 -0.2785 -0.7486
  381MOL0     C50169   5.950   9.443   8.827  0.0730  0.2859 -0.1468
  381MOL0     C50170   5.811   9.450   8.777  0.1441 -0.0271  0.0046
  381MOL0     C50171   5.739   9.304   8.770  0.2384 -0.0387 -0.1915
  381MOL0     C50172   5.598   9.327   8.738 -0.1015  0.1365 -0.1071
  381MOL0     C50173   5.523   9.214   8.677  0.0092 -0.4000  0.2393
  381MOL0     C50174   5.372   9.258   8.655  0.1025 -0.2764 -0.7829
  381MOL0     C50175   5.297   9.139   8.619  0.2206  0.4400 -0.4415
  381MOL0     C50176   5.345   9.087   8.479  0.8080 -0.4635 -0.0057
  381MOL0     N50177   5.234   9.016   8.413  0.7415 -0.2916  0.1022
  381MOL0     C50178   5.108   9.069   8.377  0.1876  0.4392  0.4721
  381MOL0     C50179   5.040   8.959   8.330 -0.7544 -0.0415 -0.2682
  381MOL0     C50180   4.905   8.977   8.267 -0.3781  0.4687  0.8587
  381MOL0     C50181   4.823   8.850   8.281 -0.2023  0.2063  0.5259
  381MOL0     C50182   4.669   8.881   8.261 -0.7311  0.0405  0.0852
  381MOL0     C50183   4.600   8.749   8.273  0.6006  0.7525  0.3985
  381MOL0     O50184   4.465   8.785   8.272  0.0361 -0.4380  0.7448
  381MOL0     C50185   4.371   8.688   8.256 -0.6197  0.7119 -0.2463
  381MOL0     C50186   4.379   8.563   8.313 -0.4956  0.8214  0.5501
  381MOL0     C50187   4.277   8.470   8.310  0.2315  0.5435 -0.0104
  381MOL0     C50188   4.151   8.500   8.237 -0.2426  0.0147 -0.2409
  381MOL0     C50189   4.037   8.409   8.230 -0.8100  0.5495  1.1314
  381MOL0     O50190   4.036   8.301   8.320 -0.3729  0.5942  0.6421
  381MOL0     C50191   3.949   8.199   8.318  0.3670  0.1817  1.1875
  381MOL0     C50192   3.961   8.111   8.424  0.8722 -0.0802 -0.1033
  381MOL0     C50193   3.867   8.010   8.439 -0.3308 -0.0147 -0.3517
  381MOL0     C50194   3.757   7.986   8.351  0.2312  0.5201  0.9333
  381MOL0     O50195   3.681   7.885   8.375  0.0283  0.6194  0.1374
  381MOL0     C50196   3.540   7.914   8.365 -0.1356 -0.0208  0.5543
  381MOL0     C50197   3.453   7.789   8.380 -0.4275 -0.3068 -0.3239
  381MOL0     C50198   3.463   7.694   8.248 -0.3519 -0.3931  0.6202
  381MOL0     C50199   3.381   7.568   8.281  0.2713  0.7798  0.1078
  381MOL0     C50200   3.400   7.451   8.184  0.0537  0.0427 -0.4881
  381MOL0     C50201   3.296   7.347   8.189  0.1676 -0.2126  0.0027
  381MOL0     C50202   3.306   7.250   8.076  0.1966  0.8320  1.0589
  381MOL0     C50203   3.200   7.145   8.081  0.2263 -0.1716 -0.6934
  381MOL0    Cl50204   3.036   7.197   8.012 -0.4993  0.4878 -0.2819
  381MOL0     C50205   3.749   8.070   8.235 -0.0014  0.9488 -1.1294
  381MOL0     C50206   3.852   8.172   8.220  0.6664 -0.4046  0.0346
  381MOL0     O50207   3.941   8.448   8.168 -0.3499  0.3153 -0.1800
  381MOL0     C50208   4.135   8.638   8.201  0.4652  0.3825  0.1657
  381MOL0     C50209   4.244   8.722   8.203 -0.8078 -0.7025 -0.0817
  381MOL0     N50210   5.117   8.844   8.345  0.4307  0.7322 -0.2348
  381MOL0     N50211   5.232   8.879   8.385 -0.4602 -0.2383  0.4522
  381MOL0     C50212   6.195   9.592   8.761 -0.6457 -0.4475 -0.7688
  381MOL0     C50213   6.330   9.655   8.775  0.5949  0.7281  0.8001
  381MOL0     C50214   6.802   9.618   8.713 -0.0587  0.1138 -0.0869
  381MOL0     C50215   6.838   9.689   8.825 -0.1155 -0.0530 -0.8349
  381MOL0     C50216   6.975   9.722   8.849  0.2786 -1.3418 -0.4255
  381MOL0     C50217   7.069   9.676   8.761  0.6587 -0.1196 -0.4026
  381MOL0     O50218   7.198   9.698   8.796 -0.0106  0.0355 -0.1807
  381MOL0     C50219   7.307   9.633   8.735  0.6656  0.3718 -1.2011
  381MOL0     C50220   7.435   9.682   8.809  0.9380  0.1714 -0.0873
  381MOL0     C50221   7.482   9.804   8.725  0.0925  0.0321  0.0091
  381MOL0     C50222   7.570   9.748   8.610 -0.6100  0.2362  0.0780
  381MOL0     C50223   7.652   9.859   8.555 -0.4605 -0.1899  0.7293
  381MOL0     C50224   7.725   9.940   8.502 -0.2941  0.5633  1.1693
  381MOL0     C50225   7.032   9.617   8.633  0.7919  0.0048 -0.0492
  381MOL0     C50226   6.898   9.577   8.617 -0.1173 -0.3489  0.0414
  381MOL0     H50227   6.500   9.358   8.816  0.9747  3.2055  4.7861
  381MOL0     H50228   6.289   9.269   8.810 -0.7173  0.0867  2.3379
  381MOL0     H50229   5.967   9.548   8.851 -1.5052  0.5687 -0.1678
  381MOL0     H50230   5.938   9.378   8.914  0.7191  0.7581  0.3049
  381MOL0     H50231   5.796   9.497   8.680 -1.3823 -0.3981  0.0196
  381MOL0     H50232   5.753   9.509   8.848 -0.6951 -1.5120  0.6185
  381MOL0     H50233   5.739   9.259   8.870  3.4464  1.1157  0.4551
  381MOL0     H50234   5.798   9.236   8.709 -1.5148 -1.7014 -0.1298
  381MOL0     H50235   5.542   9.346   8.830  0.8971  0.5966  0.4220
  381MOL0     H50236   5.594   9.409   8.666  2.5137  0.1851 -0.3026
  381MOL0     H50237   5.539   9.123   8.736 -0.8989  0.2774  1.5570
  381MOL0     H50238   5.557   9.197   8.574 -1.1667 -0.7111 -0.1107
  381MOL0     H50239   5.357   9.337   8.580  2.1731  0.5129 -0.4375
  381MOL0     H50240   5.341   9.301   8.750 -1.9986  0.7875 -1.9005
  381MOL0     H50241   5.319   9.057   8.687  0.2216  0.6353 -0.2034
  381MOL0     H50242   5.193   9.170   8.621  0.1191  0.4077 -2.8099
  381MOL0     H50243   5.431   9.022   8.497  0.7088 -0.2500  1.3984
  381MOL0     H50244   5.368   9.175   8.418 -3.0651  0.2725 -0.6762
  381MOL0     H50245   5.073   9.172   8.373  2.1649  1.1129 -1.1718
  381MOL0     H50246   4.911   9.017   8.166 -1.4728 -1.0053  0.1625
  381MOL0     H50247   4.846   9.051   8.321 -1.1974  1.7359 -1.6206
  381MOL0     H50248   4.844   8.826   8.386  0.9703  3.0731  1.0599
  381MOL0     H50249   4.865   8.767   8.224  0.3994 -0.0322  1.2921
  381MOL0     H50250   4.634   8.955   8.333 -1.3017  0.2253 -0.3812
  381MOL0     H50251   4.658   8.920   8.160  0.2615 -1.7190 -0.7516
  381MOL0     H50252   4.630   8.705   8.369 -1.4359 -0.9883  0.3198
  381MOL0     H50253   4.634   8.687   8.190  0.7303  1.7127 -0.2792
  381MOL0     H50254   4.465   8.529   8.369 -0.3567  0.1605 -0.0470
  381MOL0     H50255   4.296   8.376   8.360 -1.1999 -1.3478 -2.7544
  381MOL0     H50256   4.046   8.130   8.489  0.6376  0.5375  0.0196
  381MOL0     H50257   3.871   7.946   8.527  1.9907  1.1474  0.4890
  381MOL0     H50258   3.519   7.953   8.265  1.5314 -0.2177  0.0955
  381MOL0     H50259   3.520   7.987   8.444 -0.6208 -1.4042  1.7648
  381MOL0     H50260   3.351   7.828   8.386 -0.4430 -0.5141  1.2238
  381MOL0     H50261   3.477   7.733   8.471  1.6844  1.5409  0.3334
  381MOL0     H50262   3.564   7.655   8.233 -0.6617 -1.7154  1.7264
  381MOL0     H50263   3.431   7.752   8.161 -1.7005 -0.4936  1.0244
  381MOL0     H50264   3.399   7.529   8.381 -2.9645  1.2593  0.9932
  381MOL0     H50265   3.275   7.591   8.289  0.0725 -0.2848  0.8156
  381MOL0     H50266   3.494   7.405   8.215  1.0201  1.8227 -0.6010
  381MOL0     H50267   3.413   7.487   8.081 -1.1103 -1.1112 -1.0614
  381MOL0     H50268   3.200   7.399   8.196 -0.9846 -2.3356  0.9325
  381MOL0     H50269   3.306   7.295   8.285  1.0993 -0.0081  0.0254
  381MOL0     H50270   3.301   7.303   7.981 -0.6076 -1.7049 -0.4179
  381MOL0     H50271   3.401   7.196   8.075  0.0305  0.5011  2.0320
  381MOL0     H50272   3.203   7.101   8.181  0.2920  3.6341  1.1619
  381MOL0     H50273   3.228   7.065   8.012  0.0526  0.9988 -2.1672
  381MOL0     H50274   3.671   8.069   8.160 -1.2157  0.4607  0.0948
  381MOL0     H50275   3.847   8.235   8.133  2.5399 -2.1804 -1.4618
  381MOL0     H50276   4.042   8.679   8.163 -0.5807 -1.6991  0.2974
  381MOL0     H50277   4.234   8.822   8.163 -0.5611 -1.0295 -0.9818
  381MOL0     H50278   6.112   9.661   8.757  1.9450  2.9130 -3.7177
  381MOL0     H50279   6.331   9.764   8.772  1.6490  0.7147  0.3008
  381MOL0     H50280   6.766   9.728   8.897  0.2896 -1.0657  0.1490
  381MOL0     H50281   7.001   9.779   8.938 -0.0012 -0.4252 -0.9105
  381MOL0     H50282   7.305   9.667   8.631  3.5067  3.4769 -0.4111
  381MOL0     H50283   7.304   9.525   8.745  1.3700  0.3467 -1.2111
  381MOL0     H50284   7.393   9.705   8.907 -2.1214 -0.1126 -1.2046
  381MOL0     H50285   7.514   9.606   8.810  0.3540 -0.4475  0.3165
  381MOL0     H50286   7.542   9.876   8.782 -0.3258  0.6907 -0.3589
  381MOL0     H50287   7.398   9.861   8.682 -1.2741 -1.9268 -0.0503
  381MOL0     H50288   7.632   9.665   8.646  0.8825  2.2684  2.6722
  381MOL0     H50289   7.495   9.721   8.536  0.1917 -1.9387 -0.0090
  381MOL0     H50290   7.795  10.001   8.448  0.8489 -2.3730 -0.8832
  381MOL0     H50291   7.110   9.599   8.560  0.5455  1.0789 -0.6057
  381MOL0     H50292   6.866   9.518   8.532 -1.8560 -0.0712  0.4656
  382MOL0     O50293  10.499   9.243  10.903 -0.1191 -0.2697 -0.1141
  382MOL0     C50294  10.481   9.360  10.943  0.2397 -0.6227 -0.1775
  382MOL0     O50295  10.362   9.428  10.941  0.3961  0.4891 -0.1702
  382MOL0     C50296  10.249   9.367  10.886  0.6808 -0.4642 -0.3670
  382MOL0     C50297  10.198   9.241  10.919 -0.6590 -0.8021 -0.1904
  382MOL0     C50298  10.074   9.200  10.876 -0.2258  0.1508  0.0451
  382MOL0     C50299   9.993   9.287  10.803  0.7622  0.1569  1.2437
  382MOL0     O50300   9.861   9.263  10.778  0.4368 -0.5369 -0.5988
  382MOL0     C50301   9.823   9.237  10.649  0.3830  0.6669 -0.2561
  382MOL0     C50302   9.671   9.202  10.661 -0.1886 -0.1787 -0.1281
  382MOL0     C50303   9.643   9.053  10.707  0.4300 -0.0021  0.3227
  382MOL0     C50304   9.493   9.028  10.711 -0.2200  0.5570  0.9214
  382MOL0     C50305   9.456   8.916  10.806  0.9445  0.1071 -0.3617
  382MOL0     C50306   9.492   8.771  10.763 -0.5027  0.5732  0.0357
  382MOL0     C50307   9.429   8.671  10.854 -0.3466 -0.2303  0.0994
  382MOL0     C50308   9.462   8.526  10.804  0.1747 -1.3773  0.2318
  382MOL0     N50309   9.432   8.424  10.896  0.3152 -0.2579  0.1128
  382MOL0     C50310   9.516   8.390  10.997  0.4819  0.4537  0.5654
  382MOL0     C50311   9.435   8.307  11.072  0.7025  0.2114  0.2417
  382MOL0     C50312   9.472   8.252  11.203  0.3476  0.5237 -0.4762
  382MOL0     C50313   9.619   8.209  11.220  0.1178  0.3297  0.0784
  382MOL0     C50314   9.641   8.120  11.349  0.2562  0.1229 -0.1009
  382MOL0     C50315   9.780   8.057  11.361 -0.2542  0.7412 -0.6406
  382MOL0     O50316   9.888   8.141  11.316  0.2310 -0.6049  0.2611
  382MOL0     C50317  10.011   8.096  11.350 -0.3298 -0.6286 -0.2415
  382MOL0     C50318  10.074   8.142  11.464 -0.8069 -1.1102 -0.4642
  382MOL0     C50319  10.212   8.113  11.495  1.1022  0.1512  0.1586
  382MOL0     C50320  10.284   8.030  11.407 -0.8031 -0.4166  0.1145
  382MOL0     C50321  10.424   7.998  11.443 -1.0859 -0.1521  0.3131
  382MOL0     O50322  10.483   7.898  11.373  0.3458  0.5743  0.3701
  382MOL0     C50323  10.618   7.881  11.381 -0.0637  0.2684  0.1689
  382MOL0     C50324  10.684   7.823  11.490  0.3604 -0.1533 -0.7147
  382MOL0     C50325  10.825   7.802  11.478  0.1969 -0.1074  0.0390
  382MOL0     C50326  10.900   7.839  11.364 -0.4025  0.2139  0.9628
  382MOL0     O50327  11.039   7.818  11.368  0.7042  0.3978 -0.0746
  382MOL0     C50328  11.119   7.849  11.248 -0.0172  0.2033 -0.2547
  382MOL0     C50329  11.261   7.871  11.288  0.9142  0.2505  0.1326
  382MOL0     C50330  11.370   7.887  11.179  0.0524 -0.2914 -1.0388
  382MOL0     C50331  11.512   7.862  11.250 -0.0173 -0.7349  0.5285
  382MOL0     C50332  11.606   7.929  11.146 -0.0290  0.1804  0.9251
  382MOL0     C50333  11.746   7.969  11.190 -0.8416  0.1305  0.4806
  382MOL0     C50334  11.814   7.852  11.258  0.0334  0.0112 -0.0630
  382MOL0     C50335  11.955   7.883  11.317  0.5386 -0.1254 -0.7796
  382MOL0    Cl50336  12.069   7.933  11.200  0.0503 -0.0374  0.2963
  382MOL0     C50337  10.830   7.894  11.260  0.0471  0.2765 -0.6673
  382MOL0     C50338  10.695   7.918  11.271  0.0025  0.5063  0.4484
  382MOL0     O50339  10.479   8.060  11.535  0.0139 -0.1253 -0.4425
  382MOL0     C50340  10.224   7.970  11.295  0.1359  0.1278  0.8980
  382MOL0     C50341  10.088   8.007  11.264  0.1085 -0.3369  0.0268
  382MOL0     N50342   9.316   8.287  11.005  0.1109  0.2643 -0.4020
  382MOL0     N50343   9.316   8.352  10.902  0.0478  0.4020 -0.1007
  382MOL0     C50344  10.040   9.414  10.768  0.3722 -0.1465  0.1133
  382MOL0     C50345  10.162   9.454  10.810  0.0712  0.0096 -0.6887
  382MOL0     C50346  10.598   9.438  10.986 -0.4075 -0.5498 -0.6008
  382MOL0     C50347  10.726   9.387  10.956  0.0941  0.1427  0.4751
  382MOL0     C50348  10.833   9.450  11.003 -0.5759  1.1178  0.2268
  382MOL0     C50349  10.827   9.572  11.070 -0.0040  0.3231  0.0518
  382MOL0     O50350  10.933   9.661  11.106  0.4411 -0.2500 -0.5959
  382MOL0     C50351  11.070   9.626  11.094  0.7702 -0.7030  0.7398
  382MOL0     C50352  11.130   9.638  10.948 -0.0895 -0.5487 -0.3692
  382MOL0     C50353  11.286   9.641  10.951  0.0725 -0.1165 -0.9750
  382MOL0     C50354  11.344   9.634  10.810  0.4752  0.8910  0.1256
  382MOL0     C50355  11.493   9.627  10.813  0.0631  0.6245  1.1796
  382MOL0     C50356  11.609   9.604  10.810  0.0908  0.3823 -0.9066
  382MOL0     C50357  10.704   9.630  11.090 -0.1731 -0.1263  0.3433
  382MOL0     C50358  10.595   9.560  11.056  0.2426 -0.1294  0.0158
  382MOL0     H50359  10.258   9.176  10.983  0.5115  2.3192  2.1353
  382MOL0     H50360  10.025   9.105  10.894 -0.4805  0.0419 -1.1677
  382MOL0     H50361   9.870   9.149  10.605 -0.7015 -0.4044  0.6525
  382MOL0     H50362   9.845   9.328  10.593  0.9008  1.3344  0.9909
  382MOL0     H50363   9.634   9.214  10.558  0.9458 -0.7356 -0.6223
  382MOL0     H50364   9.622   9.271  10.729  1.3645 -0.4843  1.3575
  382MOL0     H50365   9.686   9.038  10.806  1.0463  1.6080  0.3365
  382MOL0     H50366   9.682   8.974  10.643 -2.5309 -0.5952 -0.9101
  382MOL0     H50367   9.442   9.115  10.754  1.7909  1.4870  1.6033
  382MOL0     H50368   9.447   9.011  10.614  1.5218 -1.1355  0.3143
  382MOL0     H50369   9.347   8.918  10.822  1.2106 -0.7677  1.8206
  382MOL0     H50370   9.493   8.953  10.902 -0.3894  0.9270 -0.1279
  382MOL0     H50371   9.600   8.758  10.751 -0.2647  1.7060  0.8614
  382MOL0     H50372   9.449   8.765  10.662 -1.3258  0.4158  0.3887
  382MOL0     H50373   9.469   8.682  10.954 -0.0827 -0.7412  0.0550
  382MOL0     H50374   9.319   8.674  10.857 -0.3634 -1.2278  2.3375
  382MOL0     H50375   9.565   8.505  10.774  1.4593 -0.2416  3.4340
  382MOL0     H50376   9.412   8.517  10.707  0.1269 -0.0177  0.1189
  382MOL0     H50377   9.619   8.418  11.017  0.1944  1.3195  0.9047
  382MOL0     H50378   9.412   8.161  11.212 -3.3534  2.6956 -1.4318
  382MOL0     H50379   9.436   8.316  11.284  0.1700  2.4588 -2.0285
  382MOL0     H50380   9.680   8.299  11.234  0.7318 -0.0426 -0.1678
  382MOL0     H50381   9.655   8.157  11.131  2.3057  2.1283 -0.1668
  382MOL0     H50382   9.625   8.187  11.434 -0.1689 -1.7992  1.4137
  382MOL0     H50383   9.573   8.033  11.352  1.0539 -0.6288 -2.3079
  382MOL0     H50384   9.777   7.968  11.299  1.8257  0.6909 -0.7420
  382MOL0     H50385   9.790   8.020  11.464  0.1605 -2.7479 -1.8075
  382MOL0     H50386  10.020   8.214  11.525 -0.2973  0.7202 -2.0623
  382MOL0     H50387  10.265   8.166  11.573  0.3838 -0.2128  0.9135
  382MOL0     H50388  10.619   7.802  11.575  2.4706 -1.1345  0.7374
  382MOL0     H50389  10.874   7.748  11.559 -0.0805 -1.2629 -0.5409
  382MOL0     H50390  11.084   7.943  11.205  2.7976  1.7476  0.5288
  382MOL0     H50391  11.104   7.768  11.176 -0.8245 -0.2133  0.3772
  382MOL0     H50392  11.282   7.792  11.361  1.5445  0.6479  0.4000
  382MOL0     H50393  11.264   7.962  11.349 -1.9347  1.2615 -1.0721
  382MOL0     H50394  11.356   7.988  11.139  0.2738 -1.2976 -3.8398
  382MOL0     H50395  11.373   7.809  11.103 -0.8815 -1.2630 -0.1093
  382MOL0     H50396  11.520   7.924  11.339  1.7760 -0.7820  0.4453
  382MOL0     H50397  11.538   7.758  11.274  0.1456 -0.5625  1.0942
  382MOL0     H50398  11.553   8.022  11.123  0.0842 -0.1284 -0.7087
  382MOL0     H50399  11.601   7.871  11.054 -2.0734 -2.1036  2.3550
  382MOL0     H50400  11.731   8.054  11.256 -0.7226 -0.0393  0.7274
  382MOL0     H50401  11.792   8.005  11.097 -2.5308  0.9987 -0.0517
  382MOL0     H50402  11.750   7.826  11.343  1.7296 -1.3321  0.8535
  382MOL0     H50403  11.813   7.771  11.186 -1.4837 -0.1595  0.1246
  382MOL0     H50404  11.989   7.795  11.371 -2.8615  0.2252  2.3541
  382MOL0     H50405  11.945   7.967  11.386 -2.5495  1.6554 -3.1060
  382MOL0     H50406  10.886   7.923  11.172  2.7169 -0.5654  0.6515
  382MOL0     H50407  10.641   7.962  11.188  0.9863  2.3014  0.7149
  382MOL0     H50408  10.274   7.899  11.230 -1.6446  1.4255 -2.1326
  382MOL0     H50409  10.044   7.965  11.174 -0.6176  1.8210 -0.6832
  382MOL0     H50410   9.980   9.487  10.713  1.4933  0.5328 -0.2425
  382MOL0     H50411  10.200   9.553  10.787 -2.3159  1.7963  2.2484
  382MOL0     H50412  10.732   9.293  10.902 -2.8578 -2.3145  3.9110
  382MOL0     H50413  10.932   9.420  10.971 -2.1726 -2.2591 -2.1181
  382MOL0     H50414  11.087   9.524  11.131 -0.8819 -1.2834  0.0059
  382MOL0     H50415  11.130   9.692  11.157  2.4299 -0.6084 -0.8557
  382MOL0     H50416  11.084   9.559  10.889 -4.9089  0.5656  1.4306
  382MOL0     H50417  11.096   9.729  10.897 -0.5151 -0.4733  0.0409
  382MOL0     H50418  11.321   9.555  11.008 -2.0523  0.1961  0.9401
  382MOL0     H50419  11.316   9.737  10.994 -0.5865 -0.4879  0.3576
  382MOL0     H50420  11.298   9.541  10.774 -0.3426  0.5500  1.9265
  382MOL0     H50421  11.309   9.714  10.744 -2.4464 -0.2192  0.1368
  382MOL0     H50422  11.713   9.586  10.792  0.0302 -1.0579  0.0267
  382MOL0     H50423  10.700   9.727  11.138 -0.1758  0.6492 -1.1756
  382MOL0     H50424  10.501   9.608  11.081 -1.5135 -1.9490 -2.5762
  383MOL0     O50425   3.793   2.937   9.496 -0.9064 -0.0351  0.2221
  383MOL0     C50426   3.827   2.933   9.386  0.5150  0.1428  0.1209
  383MOL0     O50427   3.732   2.953   9.289  0.0921  0.1369  0.2592
  383MOL0     C50428   3.634   3.049   9.298  0.0598  0.4000 -0.1911
  383MOL0     C50429   3.533   3.027   9.207 -0.5589  0.3637  0.6420
  383MOL0     C50430   3.424   3.110   9.214  0.2697 -0.3379  0.1684
  383MOL0     C50431   3.409   3.218   9.305 -0.5560 -0.1927  0.4701
  383MOL0     O50432   3.306   3.301   9.298  0.7399 -0.0571 -0.3160
  383MOL0     C50433   3.259   3.375   9.416 -0.5045  0.6170  0.5065
  383MOL0     C50434   3.122   3.435   9.381  0.0500 -0.8121  0.2999
  383MOL0     C50435   3.139   3.560   9.290 -0.5295 -0.1318 -0.0767
  383MOL0     C50436   3.000   3.603   9.250 -0.3572 -0.2206 -0.1246
  383MOL0     C50437   2.990   3.749   9.209  0.0175  1.0887 -0.3087
  383MOL0     C50438   2.838   3.785   9.185 -0.7626  1.0238  0.4847
  383MOL0     C50439   2.814   3.929   9.158 -0.0533 -0.5375  0.4167
  383MOL0     C50440   2.666   3.957   9.145  0.0495 -0.6447 -0.7707
  383MOL0     N50441   2.616   3.947   9.011 -0.4262 -0.8009  0.2838
  383MOL0     C50442   2.610   4.053   8.917  0.1000  0.5344  0.0498
  383MOL0     C50443   2.596   3.985   8.802 -0.5452 -1.2336  0.0984
  383MOL0     C50444   2.592   4.044   8.664  0.2438 -0.2643  0.7437
  383MOL0     C50445   2.443   4.075   8.627  0.1909 -0.8162 -0.1167
  383MOL0     C50446   2.385   4.204   8.699 -0.2853 -0.1019 -0.0572
  383MOL0     C50447   2.244   4.239   8.641  0.0013  0.1669  0.8136
  383MOL0     O50448   2.200   4.365   8.688 -0.2317 -0.3444 -0.2780
  383MOL0     C50449   2.070   4.403   8.661  0.7933  0.8447 -0.9283
  383MOL0     C50450   1.970   4.335   8.591  0.1850 -0.2641 -0.2072
  383MOL0     C50451   1.845   4.394   8.582  0.0020  0.0841  0.8779
  383MOL0     C50452   1.822   4.529   8.626 -0.2055 -0.2186  0.2775
  383MOL0     C50453   1.682   4.577   8.618  0.0934 -0.4837 -0.0817
  383MOL0     O50454   1.580   4.491   8.607  0.3846  0.4935 -0.8815
  383MOL0     C50455   1.456   4.540   8.588 -0.2796  0.0133  0.3725
  383MOL0     C50456   1.382   4.492   8.476  0.8235 -0.4707  0.0535
  383MOL0     C50457   1.251   4.538   8.448  0.6150 -0.5149 -0.3529
  383MOL0     C50458   1.187   4.627   8.538  0.0939  0.2171 -0.1674
  383MOL0     O50459   1.049   4.659   8.524 -0.2100 -0.3693  0.2435
  383MOL0     C50460   0.969   4.706   8.638  0.2712 -0.0360  0.1424
  383MOL0     C50461   0.836   4.731   8.579  0.1898  0.2941  0.4400
  383MOL0     C50462   0.734   4.781   8.687  0.6762  0.0245  0.2705
  383MOL0     C50463   0.587   4.774   8.649  0.3082 -0.5704  0.1014
  383MOL0     C50464   0.541   4.889   8.564  0.5328 -0.4832  1.1354
  383MOL0     C50465   0.389   4.884   8.529  0.6520 -0.5499  0.5816
  383MOL0     C50466   0.368   4.827   8.391  0.1092  0.1811  0.2819
  383MOL0     C50467   0.352   4.939   8.293 -1.0490  0.0614  0.6191
  383MOL0    Cl50468   0.197   5.031   8.313  0.2291 -0.0446  0.5500
  383MOL0     C50469   1.262   4.665   8.650 -0.2848  0.2977  0.0267
  383MOL0     C50470   1.393   4.626   8.672 -0.1257  0.1220  0.3715
  383MOL0     O50471   1.671   4.696   8.637  0.1297 -0.4005  0.4527
  383MOL0     C50472   1.928   4.598   8.684  0.1562 -0.1268  0.0021
  383MOL0     C50473   2.050   4.535   8.707  0.0971 -0.1597  0.8482
  383MOL0     N50474   2.586   3.849   8.824  0.1079 -0.5627 -0.6348
  383MOL0     N50475   2.595   3.831   8.946 -0.4316  0.3127  0.1060
  383MOL0     C50476   3.523   3.238   9.392 -0.0544 -0.1714 -0.6983
  383MOL0     C50477   3.635   3.160   9.379  0.1541  0.8578 -0.5068
  383MOL0     C50478   3.961   2.892   9.341 -0.1682  0.2543 -0.0938
  383MOL0     C50479   4.060   2.880   9.431  0.3717  0.3549 -0.3983
  383MOL0     C50480   4.184   2.848   9.383  0.0178 -0.6938 -1.4736
  383MOL0     C50481   4.221   2.853   9.252 -0.0511 -0.3554  0.1226
  383MOL0     O50482   4.347   2.829   9.202  0.0139 -0.2530 -0.2890
  383MOL0     C50483   4.357   2.693   9.151  0.1740 -0.3915 -0.4222
  383MOL0     C50484   4.509   2.654   9.124  0.3761  0.1337 -0.1086
  383MOL0     C50485   4.582   2.670   9.258  0.8009 -0.0333 -0.6808
  383MOL0     C50486   4.733   2.636   9.256 -0.1529  0.6273  0.5614
  383MOL0     C50487   4.768   2.516   9.175  0.7149  0.7421  0.2947
  383MOL0     C50488   4.787   2.404   9.115 -0.9254 -0.0827  0.6445
  383MOL0     C50489   4.117   2.874   9.160 -0.8467  0.1644 -0.6090
  383MOL0     C50490   3.992   2.900   9.198  1.0331  0.1910 -0.2360
  383MOL0     H50491   3.545   2.931   9.157  1.7652  0.0203  1.7529
  383MOL0     H50492   3.341   3.110   9.145 -1.7377  2.8256  2.3070
  383MOL0     H50493   3.329   3.459   9.429  2.2103 -1.3696 -0.3797
  383MOL0     H50494   3.263   3.313   9.506 -0.4627 -0.0466  0.0536
  383MOL0     H50495   3.078   3.469   9.475  0.3035 -1.2848  0.5951
  383MOL0     H50496   3.055   3.364   9.330  1.0327 -1.9296  0.5102
  383MOL0     H50497   3.190   3.542   9.195 -0.4608  0.5345 -0.1710
  383MOL0     H50498   3.198   3.637   9.341 -1.4991 -0.3304  1.4161
  383MOL0     H50499   2.968   3.533   9.172 -0.2842 -3.3152  2.4167
  383MOL0     H50500   2.932   3.592   9.335 -0.0764 -2.3089 -0.1098
  383MOL0     H50501   3.048   3.779   9.121  2.1630 -0.8035  0.3543
  383MOL0     H50502   3.027   3.813   9.290  1.2378  0.1363 -0.0917
  383MOL0     H50503   2.778   3.752   9.270  1.3237 -3.7281  0.4214
  383MOL0     H50504   2.802   3.723   9.102 -1.1625  1.0401  0.6423
  383MOL0     H50505   2.860   3.995   9.232 -1.9954  0.3266  0.9336
  383MOL0     H50506   2.867   3.952   9.065 -0.5613 -0.8512  0.0436
  383MOL0     H50507   2.629   4.046   9.197  1.9892 -0.1940 -0.0892
  383MOL0     H50508   2.614   3.880   9.202  0.2738  1.3905  2.4713
  383MOL0     H50509   2.634   4.159   8.927 -3.8708  1.5793  0.0089
  383MOL0     H50510   2.622   3.973   8.587  1.7014  1.5667 -0.4826
  383MOL0     H50511   2.660   4.128   8.646 -0.5913  0.0766 -1.0723
  383MOL0     H50512   2.379   3.988   8.646 -1.7744  0.5675 -0.1398
  383MOL0     H50513   2.425   4.081   8.519  0.7315 -2.2991 -0.3156
  383MOL0     H50514   2.384   4.191   8.807  3.5912 -3.4557 -0.1807
  383MOL0     H50515   2.454   4.285   8.674  0.7336 -1.1092 -0.5927
  383MOL0     H50516   2.166   4.168   8.670 -1.5268  0.5893 -1.9733
  383MOL0     H50517   2.242   4.248   8.532 -4.5338  0.4816  0.7474
  383MOL0     H50518   1.970   4.234   8.550 -0.8290 -0.1665 -0.4776
  383MOL0     H50519   1.762   4.345   8.532  0.2383 -0.4131  0.9694
  383MOL0     H50520   1.446   4.434   8.411  1.2379  2.3520 -2.2837
  383MOL0     H50521   1.192   4.487   8.372 -2.3189  2.1614 -0.0858
  383MOL0     H50522   1.001   4.799   8.686 -0.2640  0.5328 -0.5730
  383MOL0     H50523   0.960   4.626   8.712  1.7177 -0.6548 -0.3140
  383MOL0     H50524   0.801   4.632   8.549  3.8375 -0.2577 -2.8761
  383MOL0     H50525   0.837   4.806   8.499  1.5905 -0.8178 -0.6264
  383MOL0     H50526   0.752   4.884   8.719  0.1240 -0.3400  1.8292
  383MOL0     H50527   0.748   4.711   8.770  3.7871 -1.2994 -1.2259
  383MOL0     H50528   0.560   4.681   8.598 -3.7074  0.8236 -0.7163
  383MOL0     H50529   0.519   4.774   8.735 -0.8187 -0.6695 -0.7584
  383MOL0     H50530   0.602   4.907   8.475 -1.0966 -0.5436 -0.0435
  383MOL0     H50531   0.556   4.985   8.614 -2.5814  2.0305 -2.1942
  383MOL0     H50532   0.344   4.983   8.531 -1.9408 -1.6485  0.0705
  383MOL0     H50533   0.341   4.816   8.600  3.8821 -1.1348  2.3995
  383MOL0     H50534   0.454   4.771   8.355  1.7667  0.7984  2.9614
  383MOL0     H50535   0.281   4.761   8.396 -0.4927  1.0015  1.0949
  383MOL0     H50536   0.350   4.893   8.194  0.5639  0.0770  0.5580
  383MOL0     H50537   0.435   5.009   8.279 -2.1955  1.4557  0.6102
  383MOL0     H50538   1.204   4.721   8.722 -1.4286  0.0912 -0.6968
  383MOL0     H50539   1.442   4.652   8.765 -2.0349  1.5898  1.0482
  383MOL0     H50540   1.909   4.700   8.715  2.1341  0.2204  0.1653
  383MOL0     H50541   2.129   4.589   8.758  0.7444 -1.1685  0.9468
  383MOL0     H50542   3.528   3.317   9.467 -2.1493 -0.9068  0.2989
  383MOL0     H50543   3.725   3.167   9.439  1.0873 -0.3803 -1.6874
  383MOL0     H50544   4.056   2.878   9.539  3.0967 -0.5018 -0.2381
  383MOL0     H50545   4.254   2.814   9.459  0.7044 -2.8158 -2.9724
  383MOL0     H50546   4.296   2.687   9.060  2.1522  0.4272 -1.8550
  383MOL0     H50547   4.314   2.633   9.232  0.4291  1.5956  1.2730
  383MOL0     H50548   4.497   2.551   9.089 -1.2351  0.8985 -2.0261
  383MOL0     H50549   4.561   2.706   9.043 -0.7870  0.5000 -0.6540
  383MOL0     H50550   4.532   2.603   9.329 -0.1540 -2.2402 -3.2774
  383MOL0     H50551   4.561   2.772   9.291  0.4456  0.0237 -1.0816
  383MOL0     H50552   4.794   2.718   9.219  1.7835 -1.1535 -0.4353
  383MOL0     H50553   4.765   2.611   9.358  0.5486 -1.3500 -0.0934
  383MOL0     H50554   4.817   2.318   9.059 -1.6579  0.0619  0.0033
  383MOL0     H50555   4.139   2.872   9.053  3.0383  1.2247  0.0367
  383MOL0     H50556   3.916   2.920   9.124  0.6388 -1.5846 -0.3436
  384MOL0     O50557   1.412   6.410  10.055  0.6969  0.0720  0.5186
  384MOL0     C50558   1.360   6.415  10.165 -0.4269  0.1097 -0.4659
  384MOL0     O50559   1.251   6.342  10.203  0.0692 -0.5047 -0.4596
  384MOL0     C50560   1.218   6.224  10.142  0.1930 -1.0526  0.5180
  384MOL0     C50561   1.307   6.121  10.129  0.8634 -0.4988  0.2926
  384MOL0     C50562   1.263   6.005  10.064 -0.2331 -0.6680  0.0810
  384MOL0     C50563   1.140   5.999  10.001  0.3702 -0.2300 -0.4069
  384MOL0     O50564   1.107   5.876   9.952  0.5151 -0.4650 -0.0824
  384MOL0     C50565   0.982   5.812   9.994  0.6475  0.8599  0.9178
  384MOL0     C50566   1.010   5.659   9.987  0.0995  0.0664  0.3758
  384MOL0     C50567   0.913   5.571  10.064  0.9999  0.1462  0.3486
  384MOL0     C50568   0.766   5.597   9.996 -0.8978  0.4706 -0.3905
  384MOL0     C50569   0.648   5.528  10.068  1.0215  0.7205 -0.5537
  384MOL0     C50570   0.509   5.558   9.989 -0.6962 -0.1619 -0.6480
  384MOL0     C50571   0.389   5.530  10.076 -0.0560 -0.2796 -0.4385
  384MOL0     C50572   0.264   5.589  10.007  0.3939 -0.6023 -0.1674
  384MOL0     N50573   0.143   5.555  10.083  0.0994 -0.0202 -0.9917
  384MOL0     C50574   0.045   5.462  10.032  0.6844 -0.4665 -0.5444
  384MOL0     C50575  -0.045   5.451  10.135  0.5605 -0.3320 -0.4895
  384MOL0     C50576  -0.164   5.355  10.145  0.0012 -0.6208 -1.3949
  384MOL0     C50577  -0.275   5.420  10.235 -0.5500 -0.0041  0.3682
  384MOL0     C50578  -0.399   5.342  10.245  0.7208  0.8223 -0.3250
  384MOL0     C50579  -0.502   5.444  10.295 -0.8208 -0.6198  0.5927
  384MOL0     O50580  -0.617   5.371  10.329 -0.2901 -0.1866 -0.4672
  384MOL0     C50581  -0.738   5.427  10.369 -0.4500  0.2581  0.2272
  384MOL0     C50582  -0.830   5.339  10.404  0.4056 -0.6521  0.2508
  384MOL0     C50583  -0.963   5.375  10.440  0.1346 -0.9312  0.8234
  384MOL0     C50584  -1.000   5.512  10.434  0.4603  0.3255  0.4057
  384MOL0     C50585  -1.142   5.542  10.471 -0.5020  0.4077 -0.0366
  384MOL0     O50586  -1.220   5.446  10.510  0.0268  0.1300 -0.3377
  384MOL0     C50587  -1.352   5.473  10.540 -0.0996  1.3630  0.4894
  384MOL0     C50588  -1.396   5.578  10.619  0.6029 -0.3727 -0.4483
  384MOL0     C50589  -1.523   5.594  10.657 -0.2715  0.0743  0.7647
  384MOL0     C50590  -1.622   5.518  10.589  1.1784  0.2512 -0.1056
  384MOL0     O50591  -1.753   5.544  10.629 -0.8525  0.3544  0.6953
  384MOL0     C50592  -1.836   5.443  10.673  0.2765  0.5248  0.3998
  384MOL0     C50593  -1.948   5.521  10.730  0.0634 -0.0178 -0.2525
  384MOL0     C50594  -2.079   5.440  10.764 -0.9677  0.4454 -0.0699
  384MOL0     C50595  -2.195   5.529  10.826 -0.2265 -0.0298  0.6788
  384MOL0     C50596  -2.235   5.642  10.736  0.6239  0.2780  0.5850
  384MOL0     C50597  -2.385   5.659  10.707  1.0750  0.5902 -0.5326
  384MOL0     C50598  -2.433   5.558  10.596 -0.6025 -0.5773 -0.2645
  384MOL0     C50599  -2.424   5.414  10.628  0.2093  0.2457  0.7619
  384MOL0    Cl50600  -2.553   5.361  10.745  0.3629 -0.6576 -0.4357
  384MOL0     C50601  -1.580   5.407  10.520  0.5744  0.6970 -0.0309
  384MOL0     C50602  -1.452   5.383  10.492 -0.5396 -0.5795  0.1255
  384MOL0     O50603  -1.182   5.657  10.443 -0.1985  0.4024  0.3970
  384MOL0     C50604  -0.901   5.605  10.390  0.1457 -0.1722 -0.2542
  384MOL0     C50605  -0.769   5.564  10.352  0.2876 -0.2296 -0.1862
  384MOL0     N50606  -0.002   5.530  10.245  0.1884 -0.1229 -0.2371
  384MOL0     N50607   0.107   5.584  10.213 -0.0093 -0.8806 -0.5213
  384MOL0     C50608   1.042   6.100  10.021 -0.5075  0.0422 -0.2073
  384MOL0     C50609   1.089   6.216  10.080  0.3271 -0.5163  0.2145
  384MOL0     C50610   1.416   6.522  10.260 -1.1005 -0.2179  0.4980
  384MOL0     C50611   1.366   6.522  10.391  0.2496  0.3263 -0.0383
  384MOL0     C50612   1.397   6.614  10.487  0.0605 -0.5571  0.1368
  384MOL0     C50613   1.490   6.710  10.455 -0.2683 -0.1750 -0.5639
  384MOL0     O50614   1.521   6.799  10.558  0.4103  0.0912  1.5162
  384MOL0     C50615   1.627   6.886  10.530 -0.7552 -1.1395 -0.5916
  384MOL0     C50616   1.609   7.011  10.630 -0.6340 -0.5084  0.0570
  384MOL0     C50617   1.489   7.097  10.595 -0.4036 -0.6442  0.5626
  384MOL0     C50618   1.425   7.168  10.719 -0.1957 -0.4375 -0.0553
  384MOL0     C50619   1.499   7.289  10.760  1.2411 -0.2925 -0.0820
  384MOL0     C50620   1.558   7.390  10.774 -0.2482  1.1312  0.4786
  384MOL0     C50621   1.546   6.704  10.324  0.0890 -0.2462 -0.6035
  384MOL0     C50622   1.512   6.616  10.229  0.2350  0.0644 -0.0923
  384MOL0     H50623   1.404   6.115  10.177  1.9718 -2.0826 -1.9377
  384MOL0     H50624   1.335   5.924  10.054  1.9691  1.4277 -3.2175
  384MOL0     H50625   0.899   5.841   9.930  0.2251  1.1993  1.6104
  384MOL0     H50626   0.942   5.837  10.093 -2.8455 -1.9917  0.4324
  384MOL0     H50627   1.104   5.636  10.039 -0.1551 -0.4147  0.6230
  384MOL0     H50628   1.018   5.628   9.882  0.8901  0.3707  0.3321
  384MOL0     H50629   0.912   5.613  10.166 -1.7888 -0.4338  0.6396
  384MOL0     H50630   0.944   5.467  10.073  2.1765  0.5012  0.6661
  384MOL0     H50631   0.746   5.704   9.987  0.8959  0.6816 -2.9778
  384MOL0     H50632   0.774   5.558   9.894  0.0714 -0.1228 -0.1009
  384MOL0     H50633   0.646   5.555  10.174  0.8664  1.8904 -0.8416
  384MOL0     H50634   0.660   5.419  10.056 -3.4428 -0.5104  3.3516
  384MOL0     H50635   0.504   5.502   9.895 -2.0131 -0.4449 -0.4221
  384MOL0     H50636   0.509   5.663   9.957  1.1888 -0.1531 -0.7174
  384MOL0     H50637   0.377   5.422  10.084 -1.9861  0.0387  2.5097
  384MOL0     H50638   0.394   5.577  10.175 -3.0422 -0.6104 -0.0351
  384MOL0     H50639   0.249   5.555   9.904 -1.1975 -1.1985  0.2298
  384MOL0     H50640   0.280   5.697  10.015 -0.1251 -0.4240 -1.3538
  384MOL0     H50641   0.034   5.417   9.934  0.2849 -1.0391 -0.2435
  384MOL0     H50642  -0.136   5.262  10.195 -0.0167  0.1025  0.0117
  384MOL0     H50643  -0.190   5.332  10.041 -0.1749  0.5198 -1.6162
  384MOL0     H50644  -0.288   5.518  10.189 -1.9508 -0.3327  0.0262
  384MOL0     H50645  -0.239   5.438  10.337 -0.6512  4.0260 -0.1512
  384MOL0     H50646  -0.436   5.289  10.156 -0.6617 -1.6626  1.6051
  384MOL0     H50647  -0.378   5.279  10.332 -0.3401  0.3913 -0.3598
  384MOL0     H50648  -0.524   5.514  10.213  0.4665 -2.0841 -1.0702
  384MOL0     H50649  -0.472   5.497  10.385 -0.2494  2.5216 -1.2823
  384MOL0     H50650  -0.796   5.236  10.413  1.4400 -0.3539 -0.1769
  384MOL0     H50651  -1.025   5.292  10.474  0.8164 -1.6283  0.4081
  384MOL0     H50652  -1.320   5.649  10.647 -1.3813  1.8730 -0.4458
  384MOL0     H50653  -1.559   5.676  10.719  0.5849  1.3015 -0.3193
  384MOL0     H50654  -1.771   5.383  10.736  0.3672 -0.6448 -0.7602
  384MOL0     H50655  -1.859   5.394  10.578  2.3599  1.6872 -0.7817
  384MOL0     H50656  -1.973   5.609  10.670  1.0284 -0.0368 -0.7055
  384MOL0     H50657  -1.910   5.552  10.828  0.1624 -0.7569 -0.0488
  384MOL0     H50658  -2.054   5.368  10.843  0.6449 -2.1070 -2.7037
  384MOL0     H50659  -2.102   5.384  10.673 -2.6509  1.8025 -0.5398
  384MOL0     H50660  -2.282   5.469  10.856  0.3566  0.2007  2.9762
  384MOL0     H50661  -2.143   5.572  10.911  0.7080 -2.4769  1.4386
  384MOL0     H50662  -2.189   5.635  10.637 -0.1588  0.5535  0.1953
  384MOL0     H50663  -2.195   5.737  10.773  0.5858  1.0930 -1.3657
  384MOL0     H50664  -2.401   5.761  10.669  3.3449  1.2190  0.0608
  384MOL0     H50665  -2.438   5.664  10.803 -1.6294 -1.6713 -1.7579
  384MOL0     H50666  -2.539   5.579  10.578 -1.4209 -2.2721  1.9582
  384MOL0     H50667  -2.380   5.589  10.506  2.5158 -0.8373  1.3352
  384MOL0     H50668  -2.324   5.378  10.653 -1.2144 -2.5193  3.0073
  384MOL0     H50669  -2.443   5.375  10.528  1.8907 -1.9445  1.2252
  384MOL0     H50670  -1.649   5.331  10.485 -2.2113  2.3790  1.3997
  384MOL0     H50671  -1.421   5.297  10.434  1.8192  0.1288  0.2369
  384MOL0     H50672  -0.933   5.708  10.382  3.0550  0.7556 -1.1203
  384MOL0     H50673  -0.687   5.630  10.325  0.1533 -0.5065 -1.3575
  384MOL0     H50674   0.936   6.096   9.996  0.0007  0.2061 -2.6323
  384MOL0     H50675   1.018   6.298  10.086  0.5349 -0.2899 -0.3400
  384MOL0     H50676   1.300   6.443  10.426 -1.4251  0.9507 -1.6253
  384MOL0     H50677   1.357   6.611  10.588  2.8146 -0.0656  1.3321
  384MOL0     H50678   1.624   6.925  10.428 -2.2924  2.4972  0.6589
  384MOL0     H50679   1.716   6.830  10.559 -1.0851 -0.3022  2.3811
  384MOL0     H50680   1.604   6.972  10.732 -0.4848  2.3521  1.2747
  384MOL0     H50681   1.701   7.072  10.624  0.5132 -2.1998 -0.2089
  384MOL0     H50682   1.410   7.038  10.546 -0.9867  0.5669  0.0085
  384MOL0     H50683   1.510   7.174  10.521  0.0391 -0.4931  0.8466
  384MOL0     H50684   1.322   7.201  10.700  0.3300 -0.2347 -3.0684
  384MOL0     H50685   1.437   7.115  10.814  2.4710  1.3854  0.7400
  384MOL0     H50686   1.620   7.478  10.778  0.4591  0.8840 -2.5355
  384MOL0     H50687   1.625   6.765  10.282 -0.3591  0.3829 -0.5441
  384MOL0     H50688   1.571   6.607  10.138  0.0401 -0.1017 -0.2013
  385MOL0     O50689  10.867   7.188   9.761  0.2780 -0.0227 -0.3765
  385MOL0     C50690  10.931   7.286   9.719 -0.3747 -0.5230 -0.1365
  385MOL0     O50691  10.896   7.415   9.710  0.4335 -0.1999 -0.0086
  385MOL0     C50692  10.768   7.447   9.748 -0.3513  0.5322  0.6070
  385MOL0     C50693  10.680   7.466   9.643  0.2998 -1.2790 -0.3187
  385MOL0     C50694  10.544   7.496   9.690 -0.0924  0.5841 -0.1455
  385MOL0     C50695  10.504   7.509   9.829  0.2543 -0.1325  0.0083
  385MOL0     O50696  10.370   7.524   9.867 -0.9365 -1.1255  0.2242
  385MOL0     C50697  10.278   7.580   9.767 -1.0110  0.0856  0.1882
  385MOL0     C50698  10.144   7.601   9.836  0.4459 -0.6817 -0.0832
  385MOL0     C50699  10.045   7.681   9.742  0.2553  0.5017 -0.5219
  385MOL0     C50700   9.897   7.682   9.793 -0.2532 -0.6610 -0.1123
  385MOL0     C50701   9.879   7.771   9.915  0.5652 -0.2143 -1.3242
  385MOL0     C50702   9.735   7.800   9.953 -0.1706  0.3274 -0.5473
  385MOL0     C50703   9.743   7.898  10.083 -0.2839  0.3062  0.3939
  385MOL0     C50704   9.606   7.896  10.158  0.0626  0.4352  0.0371
  385MOL0     N50705   9.607   7.939  10.296  0.5361  0.9265 -0.2208
  385MOL0     C50706   9.567   8.058  10.354  0.2163 -0.4905 -0.1458
  385MOL0     C50707   9.594   8.043  10.483  0.7009 -0.2245 -0.6402
  385MOL0     C50708   9.572   8.151  10.585 -0.4122  0.6345 -0.4600
  385MOL0     C50709   9.426   8.145  10.637  0.2140  0.3074  0.2190
  385MOL0     C50710   9.419   8.034  10.745  0.5172  0.3653  0.4238
  385MOL0     C50711   9.270   8.021  10.790 -0.2988 -0.5549 -1.4868
  385MOL0     O50712   9.194   7.939  10.699  0.1979 -0.4215  0.5739
  385MOL0     C50713   9.065   7.912  10.726 -0.4836 -0.1435 -0.4420
  385MOL0     C50714   8.970   7.992  10.787  0.2096 -0.9168  0.3255
  385MOL0     C50715   8.841   7.952  10.795  0.6771  0.4865 -0.6909
  385MOL0     C50716   8.803   7.831  10.738  0.2463 -0.9135  1.0312
  385MOL0     C50717   8.661   7.798  10.739 -0.1126  0.4052 -0.2305
  385MOL0     O50718   8.579   7.879  10.814  0.6054  0.2340 -0.3433
  385MOL0     C50719   8.443   7.863  10.816  0.2165 -0.6564  0.4880
  385MOL0     C50720   8.370   7.884  10.940  1.2003 -0.4337 -0.3973
  385MOL0     C50721   8.229   7.882  10.947 -0.1017  0.1659  0.5736
  385MOL0     C50722   8.158   7.866  10.825  0.4017 -0.2677 -0.1550
  385MOL0     O50723   8.023   7.848  10.833  0.2628  0.3339 -0.1660
  385MOL0     C50724   7.952   7.793  10.719 -0.3853 -0.4127 -0.2231
  385MOL0     C50725   7.800   7.773  10.773 -0.9343 -0.7103 -0.3118
  385MOL0     C50726   7.702   7.749  10.665 -0.1320  0.0430  0.3500
  385MOL0     C50727   7.570   7.726  10.726 -0.1070  0.3120 -1.2392
  385MOL0     C50728   7.460   7.728  10.627 -0.9296  0.0316  0.2568
  385MOL0     C50729   7.463   7.603  10.544 -0.3908 -0.1877 -0.4506
  385MOL0     C50730   7.325   7.566  10.494  0.0967  0.1038  0.2157
  385MOL0     C50731   7.336   7.442  10.408  0.6462  0.5680 -0.3868
  385MOL0    Cl50732   7.186   7.368  10.366 -0.1326 -0.7343 -0.0152
  385MOL0     C50733   8.233   7.846  10.706  1.1234  0.1503  0.3870
  385MOL0     C50734   8.367   7.847  10.701  0.3840  1.0611 -0.2766
  385MOL0     O50735   8.627   7.704  10.664 -0.3625 -0.5817  0.1283
  385MOL0     C50736   8.898   7.753  10.685  0.2410  0.4735  0.8800
  385MOL0     C50737   9.028   7.794  10.675  0.8642 -0.2388  0.6528
  385MOL0     N50738   9.646   7.917  10.503  0.6030  0.7121  0.2945
  385MOL0     N50739   9.658   7.855  10.396 -0.8088 -0.4547 -0.7020
  385MOL0     C50740  10.608   7.496   9.925 -0.1928 -0.1831  0.1799
  385MOL0     C50741  10.739   7.461   9.884  0.4059 -0.3957 -0.3893
  385MOL0     C50742  11.074   7.261   9.669  0.2905 -0.0193 -0.0187
  385MOL0     C50743  11.134   7.349   9.585  0.0515 -0.2996 -0.4802
  385MOL0     C50744  11.258   7.329   9.529 -0.4300  0.7731 -1.3806
  385MOL0     C50745  11.320   7.202   9.553 -0.8284 -0.4731  0.4785
  385MOL0     O50746  11.440   7.156   9.513 -0.3852  0.1814  0.0087
  385MOL0     C50747  11.505   7.237   9.417  0.2238 -0.2067  0.2193
  385MOL0     C50748  11.625   7.174   9.352 -0.2120 -0.5953 -0.0214
  385MOL0     C50749  11.729   7.133   9.462  0.2044 -0.8720  0.3988
  385MOL0     C50750  11.842   7.063   9.399 -0.2364  0.2748 -0.0812
  385MOL0     C50751  11.958   7.050   9.489 -0.9993  0.0150 -0.0343
  385MOL0     C50752  12.060   7.026   9.549 -1.4055 -0.0536 -0.6808
  385MOL0     C50753  11.254   7.109   9.637 -0.4687 -0.7134 -0.3137
  385MOL0     C50754  11.137   7.137   9.701 -1.2013 -0.0687 -0.4885
  385MOL0     H50755  10.708   7.473   9.538  1.2942  2.0689  0.0762
  385MOL0     H50756  10.476   7.493   9.605 -1.8001  2.8576  1.0342
  385MOL0     H50757  10.273   7.522   9.674 -2.2553  0.2006  0.1763
  385MOL0     H50758  10.312   7.677   9.730 -1.2446  0.0978  0.0033
  385MOL0     H50759  10.170   7.647   9.932  1.4856 -2.0071  0.3154
  385MOL0     H50760  10.102   7.501   9.853  1.1477 -1.3649 -2.0663
  385MOL0     H50761  10.044   7.630   9.645 -0.4586  0.4971 -0.5180
  385MOL0     H50762  10.068   7.787   9.727 -1.7254  0.9862 -0.4523
  385MOL0     H50763   9.832   7.722   9.715  0.1196 -0.2840 -0.2400
  385MOL0     H50764   9.857   7.587   9.829 -0.7541 -0.6819 -0.7110
  385MOL0     H50765   9.930   7.865   9.896  2.2149 -1.6576 -4.8000
  385MOL0     H50766   9.934   7.716   9.992 -0.1752 -0.9374 -1.2981
  385MOL0     H50767   9.682   7.705   9.966 -0.4396  0.6974  1.3932
  385MOL0     H50768   9.682   7.858   9.877 -1.5597 -0.3267 -0.1113
  385MOL0     H50769   9.813   7.861  10.159  0.1097  3.4759  1.7072
  385MOL0     H50770   9.772   7.998  10.050 -0.9153 -0.9777 -4.9482
  385MOL0     H50771   9.559   7.797  10.168  0.6083  0.1589 -0.0898
  385MOL0     H50772   9.534   7.948  10.094 -1.6991  0.0765  1.6369
  385MOL0     H50773   9.528   8.154  10.323  2.4711  0.5246 -0.0498
  385MOL0     H50774   9.587   8.248  10.539  1.0815  0.2713 -0.7790
  385MOL0     H50775   9.637   8.134  10.671  1.1855  3.4343 -1.0355
  385MOL0     H50776   9.349   8.126  10.562 -1.1546  0.4482  1.5515
  385MOL0     H50777   9.415   8.243  10.685  0.6922  0.2679  0.4180
  385MOL0     H50778   9.454   7.938  10.707 -0.8109 -0.3260  0.9049
  385MOL0     H50779   9.482   8.060  10.830 -1.3916  1.7636  1.5114
  385MOL0     H50780   9.234   8.124  10.799  1.3111 -0.1830  2.6685
  385MOL0     H50781   9.273   7.983  10.892 -0.5848 -1.7458 -1.9122
  385MOL0     H50782   8.987   8.096  10.813 -2.3554  0.0592 -1.5343
  385MOL0     H50783   8.772   8.008  10.857  0.4154  0.9887 -1.4209
  385MOL0     H50784   8.419   7.890  11.037 -0.9417  1.4560  0.6815
  385MOL0     H50785   8.174   7.894  11.040  0.0313 -0.4747  0.7364
  385MOL0     H50786   7.990   7.698  10.680  1.7551 -0.9706  2.8531
  385MOL0     H50787   7.942   7.873  10.645 -0.9063 -1.0569 -0.8569
  385MOL0     H50788   7.759   7.856  10.832 -0.0915 -1.5893  1.6102
  385MOL0     H50789   7.803   7.687  10.840  1.2064 -0.1560  0.3889
  385MOL0     H50790   7.734   7.663  10.605 -1.5440  0.7440 -1.4663
  385MOL0     H50791   7.708   7.842  10.609 -1.6801 -0.0078  0.0803
  385MOL0     H50792   7.567   7.628  10.774 -2.1280  0.7191 -0.4377
  385MOL0     H50793   7.551   7.805  10.799 -0.7156 -0.3885 -0.6321
  385MOL0     H50794   7.445   7.821  10.571  1.9960 -0.5210 -1.6734
  385MOL0     H50795   7.373   7.719  10.693 -0.0985  1.8658  1.6759
  385MOL0     H50796   7.502   7.522  10.607  0.4925 -0.9921 -1.9746
  385MOL0     H50797   7.526   7.614  10.455 -0.4737  1.0255 -0.3731
  385MOL0     H50798   7.260   7.540  10.578  1.4936 -2.9744  0.4774
  385MOL0     H50799   7.273   7.649  10.445  0.1265  0.6226  1.0363
  385MOL0     H50800   7.394   7.363  10.457 -1.0480 -1.4682 -1.4850
  385MOL0     H50801   7.388   7.468  10.316 -0.6339  0.6259 -1.1108
  385MOL0     H50802   8.170   7.826  10.619 -0.7573  0.1124  1.6795
  385MOL0     H50803   8.418   7.825  10.607 -2.0119 -0.9579 -1.2283
  385MOL0     H50804   8.867   7.653  10.658 -1.3940  0.4881  2.5261
  385MOL0     H50805   9.107   7.728  10.640 -0.1460 -0.9335 -0.4017
  385MOL0     H50806  10.578   7.509  10.028  0.0073  2.6682 -0.0476
  385MOL0     H50807  10.822   7.453   9.953  0.5038 -2.2726 -0.6898
  385MOL0     H50808  11.086   7.441   9.556  4.1068  1.3072 -2.9039
  385MOL0     H50809  11.310   7.405   9.471  0.3779  0.1055 -1.5481
  385MOL0     H50810  11.549   7.320   9.474 -0.0792  2.2774 -2.8812
  385MOL0     H50811  11.435   7.280   9.345  0.1121  0.3399  0.6479
  385MOL0     H50812  11.599   7.087   9.291  2.7721 -1.5449 -0.0868
  385MOL0     H50813  11.679   7.253   9.297  3.3542 -0.6579  3.0290
  385MOL0     H50814  11.671   7.075   9.534  0.8366  0.1974  1.8289
  385MOL0     H50815  11.759   7.224   9.515 -0.3348  0.1987 -1.0599
  385MOL0     H50816  11.818   6.966   9.356 -1.7262  0.9686 -0.8833
  385MOL0     H50817  11.883   7.120   9.315 -0.7003 -3.4355 -3.1182
  385MOL0     H50818  12.146   6.984   9.597 -2.3865 -2.5188 -0.9688
  385MOL0     H50819  11.298   7.013   9.664  1.6315  0.3858  0.3564
  385MOL0     H50820  11.084   7.065   9.762 -0.6532 -0.0907 -0.0223
  386MOL0     O50821   9.317   5.883   6.458  0.3090  0.1079  0.2820
  386MOL0     C50822   9.403   5.872   6.543  0.7022 -0.7326  0.3742
  386MOL0     O50823   9.380   5.827   6.678 -0.0112  0.3564  0.0520
  386MOL0     C50824   9.255   5.846   6.722 -0.1453 -0.9142  0.0820
  386MOL0     C50825   9.180   5.728   6.741  0.0111 -0.4577  0.5710
  386MOL0     C50826   9.060   5.729   6.815 -0.3251  1.4060  0.5325
  386MOL0     C50827   9.005   5.850   6.847  1.4888 -0.4170 -0.1684
  386MOL0     O50828   8.877   5.851   6.901 -0.1887 -0.2946 -0.1875
  386MOL0     C50829   8.827   5.741   6.971  0.9096  0.6163 -1.3161
  386MOL0     C50830   8.736   5.651   6.892 -0.7769 -0.2592  0.6814
  386MOL0     C50831   8.636   5.562   6.977  0.5094 -0.8519  0.5110
  386MOL0     C50832   8.541   5.490   6.882 -0.1144  0.5780  0.6470
  386MOL0     C50833   8.478   5.369   6.958  0.7095 -0.3183  0.1927
  386MOL0     C50834   8.378   5.296   6.865 -0.3606 -0.0802  0.4379
  386MOL0     C50835   8.338   5.156   6.909  0.1970  0.3536 -0.1253
  386MOL0     C50836   8.247   5.158   7.030 -0.2563  0.0470 -0.0081
  386MOL0     N50837   8.179   5.033   7.053  0.1503 -0.0337 -0.2007
  386MOL0     C50838   8.235   4.908   7.075 -0.4104 -0.7190  0.0094
  386MOL0     C50839   8.130   4.827   7.058 -0.3832  0.3522 -0.1098
  386MOL0     C50840   8.144   4.681   7.094 -0.6200  0.1669  0.9436
  386MOL0     C50841   8.264   4.617   7.018 -0.6167  0.0427 -0.2367
  386MOL0     C50842   8.242   4.614   6.870  0.3271  0.1091 -0.0211
  386MOL0     C50843   8.120   4.540   6.819 -0.2261 -0.2602 -0.7470
  386MOL0     O50844   8.132   4.527   6.679  0.5161 -0.5108 -0.0033
  386MOL0     C50845   8.035   4.449   6.615  1.1110 -0.5931 -0.4523
  386MOL0     C50846   7.907   4.430   6.671 -0.3163  0.4939  0.5349
  386MOL0     C50847   7.813   4.352   6.600 -0.2316 -0.1962  0.9402
  386MOL0     C50848   7.854   4.275   6.488  0.0687 -0.6544  0.3431
  386MOL0     C50849   7.764   4.170   6.435 -0.3510  0.9797  0.6121
  386MOL0     O50850   7.818   4.074   6.364 -0.4283 -0.4498 -0.0954
  386MOL0     C50851   7.756   3.958   6.324  0.6968  0.3642 -0.0124
  386MOL0     C50852   7.640   3.903   6.393 -0.3502  0.2413 -0.0072
  386MOL0     C50853   7.584   3.778   6.344 -1.1183 -0.4439 -0.6403
  386MOL0     C50854   7.632   3.721   6.225 -0.8029  0.3383  0.0726
  386MOL0     O50855   7.579   3.604   6.174 -0.6750  0.0722  0.0580
  386MOL0     C50856   7.431   3.603   6.176 -0.2601 -0.1729 -0.0889
  386MOL0     C50857   7.386   3.466   6.136  0.2803 -0.4859 -0.5994
  386MOL0     C50858   7.230   3.449   6.105  0.3378  0.0291 -0.1020
  386MOL0     C50859   7.169   3.528   5.994 -0.6022 -0.4029 -0.6891
  386MOL0     C50860   7.025   3.491   5.956  0.4894 -0.1078 -0.0601
  386MOL0     C50861   6.975   3.343   5.956 -0.8209 -0.0926 -0.2631
  386MOL0     C50862   6.844   3.331   5.887 -0.7559 -0.7651  0.4093
  386MOL0     C50863   6.811   3.185   5.877  0.1185  1.1245  0.6097
  386MOL0    Cl50864   6.794   3.105   6.032  0.2863  0.0113  0.2478
  386MOL0     C50865   7.746   3.779   6.156 -0.2188 -1.1468 -0.0035
  386MOL0     C50866   7.801   3.896   6.212 -0.3334 -0.6321 -0.4493
  386MOL0     O50867   7.644   4.177   6.468 -0.3074  0.4022  0.0522
  386MOL0     C50868   7.991   4.291   6.432  0.0789 -0.2301 -0.2027
  386MOL0     C50869   8.071   4.386   6.502  0.2878 -0.2323 -0.4489
  386MOL0     N50870   8.018   4.894   7.027 -0.0733  1.0103  0.4273
  386MOL0     N50871   8.053   5.015   7.014  0.9488 -0.1153  0.0084
  386MOL0     C50872   9.068   5.974   6.817 -0.5834  0.2459  0.2335
  386MOL0     C50873   9.196   5.966   6.757 -0.0496 -0.3143 -0.7276
  386MOL0     C50874   9.542   5.887   6.503  0.2030  0.3610  0.3433
  386MOL0     C50875   9.638   5.871   6.599  0.0982  0.1161 -0.3462
  386MOL0     C50876   9.773   5.901   6.567  0.5184 -0.3137 -0.7905
  386MOL0     C50877   9.816   5.933   6.445 -0.6400  0.1706  0.0335
  386MOL0     O50878   9.949   5.945   6.427  0.0347 -0.2829  0.3812
  386MOL0     C50879   9.991   6.030   6.315  0.1130 -1.0344  0.3902
  386MOL0     C50880  10.139   6.003   6.305 -0.0366  0.6168  0.1140
  386MOL0     C50881  10.166   5.857   6.262  0.1874 -0.1462  0.0162
  386MOL0     C50882  10.313   5.824   6.242 -0.1325 -0.2465  0.0598
  386MOL0     C50883  10.373   5.915   6.140  0.3156  0.7845  0.1291
  386MOL0     C50884  10.405   5.975   6.036 -0.1706  0.8844 -0.0858
  386MOL0     C50885   9.719   5.940   6.343  0.9784 -0.3642 -0.4865
  386MOL0     C50886   9.579   5.928   6.376 -0.1986  0.6908  0.6233
  386MOL0     H50887   9.222   5.631   6.717 -3.3567 -1.5771 -1.5877
  386MOL0     H50888   9.014   5.631   6.823 -0.8419  1.1992 -3.1927
  386MOL0     H50889   8.767   5.797   7.044 -1.6933  1.7889 -4.1194
  386MOL0     H50890   8.914   5.689   7.011  0.4355  0.4530 -0.4728
  386MOL0     H50891   8.802   5.583   6.837 -0.7781  0.3562 -0.1064
  386MOL0     H50892   8.687   5.719   6.821  1.7846 -0.1414 -1.1434
  386MOL0     H50893   8.568   5.617   7.043 -0.0464 -1.1720  0.2098
  386MOL0     H50894   8.684   5.474   7.022 -0.0159 -2.3081 -1.6501
  386MOL0     H50895   8.458   5.556   6.858  0.1222  0.6399 -0.0395
  386MOL0     H50896   8.595   5.460   6.791  0.0434 -1.1671  1.2660
  386MOL0     H50897   8.432   5.400   7.052 -1.2317 -1.1208 -0.4286
  386MOL0     H50898   8.548   5.293   6.993  0.6645 -0.2071  0.5287
  386MOL0     H50899   8.432   5.298   6.770  1.1040 -0.6456  1.2300
  386MOL0     H50900   8.285   5.351   6.848 -1.6400 -2.0670  0.8042
  386MOL0     H50901   8.277   5.115   6.828  0.2119 -0.5861  0.3260
  386MOL0     H50902   8.423   5.088   6.911 -0.7919 -1.0652 -2.4256
  386MOL0     H50903   8.172   5.236   7.012 -1.7351 -1.0137  1.2266
  386MOL0     H50904   8.309   5.185   7.116 -0.4434  0.1244  0.1064
  386MOL0     H50905   8.335   4.881   7.107 -0.2534 -0.8698 -0.5904
  386MOL0     H50906   8.059   4.613   7.090  1.3211 -2.3882  0.5836
  386MOL0     H50907   8.183   4.685   7.196  3.3615 -0.0361 -0.3683
  386MOL0     H50908   8.267   4.516   7.060 -3.0815  0.9515  2.4935
  386MOL0     H50909   8.363   4.656   7.042 -0.1831 -1.6045  0.8481
  386MOL0     H50910   8.243   4.720   6.841 -0.6126 -0.1863 -1.1956
  386MOL0     H50911   8.326   4.550   6.843  0.4568 -0.6268  2.0068
  386MOL0     H50912   8.028   4.593   6.846 -1.4727 -1.9711 -1.4771
  386MOL0     H50913   8.124   4.440   6.862  0.7422  0.4148  0.8300
  386MOL0     H50914   7.872   4.500   6.747 -0.6238  0.5006  0.3885
  386MOL0     H50915   7.709   4.347   6.631 -0.8281  1.6068 -0.6200
  386MOL0     H50916   7.603   3.945   6.486  0.1159  1.4332 -0.3447
  386MOL0     H50917   7.510   3.748   6.418 -0.8214  0.0356 -0.1466
  386MOL0     H50918   7.389   3.673   6.103 -0.6120  0.8012  1.0339
  386MOL0     H50919   7.393   3.620   6.277 -0.4618 -0.7111 -0.0723
  386MOL0     H50920   7.399   3.394   6.217 -1.8186  1.7892  1.9752
  386MOL0     H50921   7.456   3.436   6.058  0.5092 -2.7068  0.4004
  386MOL0     H50922   7.184   3.484   6.198 -0.7150  1.6207 -1.1564
  386MOL0     H50923   7.208   3.343   6.093  0.6932  0.0264 -0.7703
  386MOL0     H50924   7.173   3.634   6.020 -1.1484 -0.2712 -1.1166
  386MOL0     H50925   7.242   3.517   5.913 -0.8117  0.3406 -0.9946
  386MOL0     H50926   6.999   3.538   5.861  0.0574  2.0189  1.0492
  386MOL0     H50927   6.974   3.533   6.044  0.4225 -1.9122  0.8178
  386MOL0     H50928   6.961   3.318   6.061  1.1412  3.7921  1.1440
  386MOL0     H50929   7.046   3.275   5.907 -0.3924  0.8339 -0.9557
  386MOL0     H50930   6.772   3.380   5.954  0.6498  0.3204  1.1808
  386MOL0     H50931   6.850   3.378   5.788  2.5798 -0.9085  0.4542
  386MOL0     H50932   6.876   3.140   5.802 -3.9311 -0.5632 -2.2340
  386MOL0     H50933   6.719   3.170   5.821 -0.0765 -1.0144  1.3910
  386MOL0     H50934   7.783   3.735   6.064 -0.4555  0.7705 -1.0567
  386MOL0     H50935   7.882   3.948   6.163  0.9605 -3.6302 -1.7443
  386MOL0     H50936   8.040   4.249   6.345  0.7522  1.5312 -0.7278
  386MOL0     H50937   8.172   4.405   6.467  1.1927 -1.2798  1.4318
  386MOL0     H50938   9.024   6.073   6.826 -1.8191 -0.4139  2.1981
  386MOL0     H50939   9.247   6.059   6.733  0.7778 -0.0274  1.8970
  386MOL0     H50940   9.620   5.844   6.703 -2.2168 -0.6196 -0.8850
  386MOL0     H50941   9.853   5.887   6.638 -1.2512 -2.3810  0.9146
  386MOL0     H50942   9.971   6.137   6.321  1.3306 -0.3351 -4.0999
  386MOL0     H50943   9.939   6.002   6.223 -0.1910 -2.7340  1.0388
  386MOL0     H50944  10.176   6.058   6.217  0.8710 -3.7088 -2.4998
  386MOL0     H50945  10.200   6.034   6.390 -1.7355 -1.2698  2.1543
  386MOL0     H50946  10.103   5.841   6.174 -0.8275  3.0665  0.0629
  386MOL0     H50947  10.128   5.779   6.329  2.5324 -1.0288  0.4165
  386MOL0     H50948  10.370   5.836   6.334 -2.1776 -2.7018  1.8008
  386MOL0     H50949  10.319   5.717   6.222  0.7218 -0.3215  0.6787
  386MOL0     H50950  10.438   6.017   5.942 -0.3785 -0.9436 -1.0224
  386MOL0     H50951   9.742   5.969   6.240  1.4935 -1.9124 -0.8315
  386MOL0     H50952   9.502   5.950   6.302 -0.4552 -0.1105  0.6531
  387MOL0     O50953   2.594   3.086  10.317 -0.4019 -0.5497 -0.2580
  387MOL0     C50954   2.543   2.972  10.328 -0.6221  0.0382  0.0629
  387MOL0     O50955   2.412   2.956  10.348  0.2995 -0.2807  0.3247
  387MOL0     C50956   2.324   3.065  10.350  0.3600 -0.2568 -0.3032
  387MOL0     C50957   2.240   3.061  10.240  0.3491 -0.1208  0.0134
  387MOL0     C50958   2.124   3.140  10.240 -0.0572 -0.3549  1.0357
  387MOL0     C50959   2.109   3.237  10.343  0.3361  0.1622  0.2290
  387MOL0     O50960   1.985   3.300  10.335 -0.1124  0.0577  0.0157
  387MOL0     C50961   1.923   3.339  10.457  0.2524 -0.5854 -0.5762
  387MOL0     C50962   1.827   3.455  10.436  0.0791  0.5722  0.0365
  387MOL0     C50963   1.769   3.520  10.560 -0.3843  0.1349 -0.3161
  387MOL0     C50964   1.617   3.554  10.557  0.3687 -0.8605 -0.4560
  387MOL0     C50965   1.584   3.657  10.654  1.1998 -0.0490  0.4544
  387MOL0     C50966   1.571   3.598  10.796  1.0447  0.5523  0.2425
  387MOL0     C50967   1.474   3.671  10.891 -0.1905  0.5751  0.9555
  387MOL0     C50968   1.514   3.822  10.924  0.4866  0.7562  0.6048
  387MOL0     N50969   1.425   3.889  11.017 -0.2577  0.1150  0.4528
  387MOL0     C50970   1.291   3.916  10.984  0.0903  0.0616 -0.5379
  387MOL0     C50971   1.248   3.979  11.094  0.1339 -0.8758 -0.0696
  387MOL0     C50972   1.104   4.023  11.092 -1.4638 -0.2427 -0.9439
  387MOL0     C50973   1.092   4.166  11.146 -0.2389  0.0647  0.0400
  387MOL0     C50974   1.101   4.189  11.299  0.0950  0.0208 -0.5065
  387MOL0     C50975   1.107   4.336  11.344 -0.7020 -0.0735  0.0980
  387MOL0     O50976   0.990   4.417  11.307 -0.2762  0.5043 -0.0612
  387MOL0     C50977   0.864   4.402  11.364  0.2775 -0.4314 -0.0864
  387MOL0     C50978   0.755   4.472  11.320  0.4524 -0.3384  0.2386
  387MOL0     C50979   0.623   4.444  11.370 -0.3844 -0.3751 -0.2188
  387MOL0     C50980   0.608   4.372  11.492 -0.1721 -1.0334  0.4059
  387MOL0     C50981   0.469   4.364  11.550 -0.3256  0.0570  0.8988
  387MOL0     O50982   0.387   4.468  11.521  0.9981  0.4793  0.6069
  387MOL0     C50983   0.284   4.499  11.607 -0.5658 -0.2447  0.4138
  387MOL0     C50984   0.284   4.462  11.740  0.2065 -0.0561 -0.8079
  387MOL0     C50985   0.169   4.499  11.813  0.8851  0.0700  0.1063
  387MOL0     C50986   0.057   4.560  11.754  0.0458 -0.2209  0.2283
  387MOL0     O50987  -0.040   4.597  11.840  0.2571 -0.2115 -0.2026
  387MOL0     C50988  -0.174   4.588  11.793 -0.5412  0.1618 -0.2100
  387MOL0     C50989  -0.265   4.604  11.907 -0.3191 -0.7266 -0.2205
  387MOL0     C50990  -0.409   4.575  11.853 -0.4114  1.2245 -0.0398
  387MOL0     C50991  -0.501   4.564  11.968  0.1520 -0.6570  0.4900
  387MOL0     C50992  -0.629   4.491  11.928 -0.1089 -0.4209  0.2025
  387MOL0     C50993  -0.713   4.549  11.818 -0.1593 -1.2063  0.3351
  387MOL0     C50994  -0.842   4.473  11.806  0.7730  0.6219  0.1229
  387MOL0     C50995  -0.930   4.508  11.930 -0.4294 -0.3051  0.4285
  387MOL0    Cl50996  -0.935   4.379  12.048 -0.1106 -0.1759  0.0322
  387MOL0     C50997   0.060   4.593  11.615  0.1199  0.9773 -0.1008
  387MOL0     C50998   0.177   4.569  11.546  1.0276 -0.4885 -0.4592
  387MOL0     O50999   0.455   4.274  11.629  0.3016  0.3215 -0.2643
  387MOL0     C51000   0.723   4.318  11.546  0.2804 -0.7305  0.3201
  387MOL0     C51001   0.847   4.327  11.483 -0.2017  0.2825 -0.4675
  387MOL0     N51002   1.343   3.992  11.196 -1.0405  0.2511 -0.0723
  387MOL0     N51003   1.453   3.945  11.142 -0.3141 -0.9154 -0.8382
  387MOL0     C51004   2.198   3.242  10.448  0.8131  0.2549 -0.3808
  387MOL0     C51005   2.306   3.149  10.459  0.0319 -0.6110  0.5263
  387MOL0     C51006   2.629   2.857  10.355 -0.3582  0.3676 -0.4077
  387MOL0     C51007   2.760   2.875  10.416  0.4545 -0.7278  0.0262
  387MOL0     C51008   2.839   2.762  10.445 -0.0305  0.0367  0.6506
  387MOL0     C51009   2.801   2.637  10.380  0.5147 -0.8559 -1.0838
  387MOL0     O51010   2.886   2.529  10.392 -0.0351 -0.3960  0.4161
  387MOL0     C51011   2.885   2.436  10.277 -0.0695  0.3509  0.1518
  387MOL0     C51012   3.019   2.367  10.282 -0.1569  0.8348  0.4703
  387MOL0     C51013   3.047   2.292  10.414 -0.1047 -0.2799  0.0814
  387MOL0     C51014   3.166   2.208  10.412 -0.7033  0.0519  0.6360
  387MOL0     C51015   3.201   2.164  10.545 -0.7498  0.0967 -0.1845
  387MOL0     C51016   3.221   2.108  10.649  0.2620  0.2331  0.1929
  387MOL0     C51017   2.679   2.625  10.320 -0.6974 -1.1723  0.0536
  387MOL0     C51018   2.591   2.734  10.316 -0.0912 -0.1455  0.7676
  387MOL0     H51019   2.244   2.993  10.155 -4.6938 -0.9085  0.0953
  387MOL0     H51020   2.051   3.125  10.161 -1.1623 -2.8114  2.4015
  387MOL0     H51021   2.004   3.367  10.525  1.0264 -0.6147 -1.4665
  387MOL0     H51022   1.874   3.251  10.500 -3.7279  1.7130  0.0924
  387MOL0     H51023   1.753   3.416  10.366 -0.9081  2.8962 -0.3037
  387MOL0     H51024   1.870   3.540  10.382  0.5827  0.2908 -0.0186
  387MOL0     H51025   1.832   3.607  10.581 -0.8200  0.5869 -0.8797
  387MOL0     H51026   1.784   3.447  10.641 -1.6152  0.2990  0.0853
  387MOL0     H51027   1.604   3.612  10.465 -0.7356  3.7501  2.2425
  387MOL0     H51028   1.548   3.470  10.565 -2.3332  1.2024 -0.7368
  387MOL0     H51029   1.492   3.710  10.628 -0.1760 -0.3402  4.1603
  387MOL0     H51030   1.661   3.734  10.666  1.1892 -0.0706  0.6561
  387MOL0     H51031   1.664   3.586  10.852 -1.6283 -0.5189  4.9469
  387MOL0     H51032   1.525   3.501  10.774 -0.7043  1.1752  0.9622
  387MOL0     H51033   1.374   3.671  10.846  0.2173 -1.7319 -0.1473
  387MOL0     H51034   1.462   3.614  10.983 -0.7253 -2.5605 -0.8906
  387MOL0     H51035   1.523   3.883  10.833  1.4048 -0.5716 -0.2449
  387MOL0     H51036   1.613   3.806  10.968 -0.9446 -0.5117  3.5895
  387MOL0     H51037   1.228   3.886  10.901  0.1268  1.4127 -1.0797
  387MOL0     H51038   1.050   3.956  11.159  0.6047 -0.2651  0.8196
  387MOL0     H51039   1.065   4.023  10.990 -1.1480 -0.1503 -1.0665
  387MOL0     H51040   1.011   4.223  11.100  1.9642  1.2494 -2.6495
  387MOL0     H51041   1.180   4.219  11.108 -0.5722  1.0721  0.6289
  387MOL0     H51042   1.006   4.152  11.339 -0.4309  3.0081  1.2899
  387MOL0     H51043   1.190   4.139  11.337  0.2788  0.4156 -0.4134
  387MOL0     H51044   1.201   4.375  11.302  0.0601 -1.1425  0.7583
  387MOL0     H51045   1.133   4.345  11.450  1.5361 -0.8398 -0.3149
  387MOL0     H51046   0.767   4.553  11.249 -0.3977 -1.9087 -1.8259
  387MOL0     H51047   0.535   4.484  11.323 -1.8595 -0.8095  1.9898
  387MOL0     H51048   0.364   4.412  11.794  0.6592  1.1541 -0.3265
  387MOL0     H51049   0.165   4.484  11.920 -0.4716 -1.3327 -0.1056
  387MOL0     H51050  -0.186   4.486  11.755  1.4504 -0.2422  0.1087
  387MOL0     H51051  -0.193   4.664  11.716 -3.6642  0.6082  0.8785
  387MOL0     H51052  -0.277   4.707  11.940 -0.5104 -1.1650  1.1451
  387MOL0     H51053  -0.238   4.540  11.992  0.3242 -1.9378 -1.3114
  387MOL0     H51054  -0.413   4.478  11.801  0.1786  1.2273 -0.0998
  387MOL0     H51055  -0.445   4.650  11.781 -1.2404 -0.4206 -1.4306
  387MOL0     H51056  -0.458   4.511  12.053  0.6596 -0.6806  0.2226
  387MOL0     H51057  -0.537   4.660  12.006 -2.6212 -0.3438 -2.4988
  387MOL0     H51058  -0.688   4.467  12.017 -0.0379  0.6295  0.5439
  387MOL0     H51059  -0.595   4.391  11.899  1.9624  0.5072 -0.7493
  387MOL0     H51060  -0.670   4.532  11.719 -3.4938 -3.1706 -0.9437
  387MOL0     H51061  -0.735   4.656  11.819 -0.2051 -1.1014 -2.7763
  387MOL0     H51062  -0.895   4.509  11.717  1.9437 -0.2960 -0.9752
  387MOL0     H51063  -0.821   4.366  11.797 -0.4661  0.1350  2.2132
  387MOL0     H51064  -1.024   4.535  11.880 -1.7654  0.3638  3.1214
  387MOL0     H51065  -0.895   4.595  11.985  0.6604  0.3322 -1.2000
  387MOL0     H51066  -0.024   4.651  11.577 -0.8151 -1.0179 -1.1990
  387MOL0     H51067   0.175   4.606  11.445 -1.5196 -0.7423 -0.5588
  387MOL0     H51068   0.715   4.265  11.640  0.4258 -0.0569  0.7141
  387MOL0     H51069   0.943   4.286  11.512  0.4384 -0.0025 -2.7994
  387MOL0     H51070   2.194   3.307  10.534 -2.7265  2.0613 -1.7337
  387MOL0     H51071   2.371   3.128  10.544  1.9967 -1.0150 -1.0015
  387MOL0     H51072   2.795   2.975  10.440 -0.1963 -0.1890 -1.1830
  387MOL0     H51073   2.929   2.768  10.505  0.7295 -0.8384 -0.3529
  387MOL0     H51074   2.889   2.494  10.184  2.0903  2.2187  1.2983
  387MOL0     H51075   2.798   2.372  10.260 -0.1936 -0.0029  1.9320
  387MOL0     H51076   3.024   2.292  10.203 -1.5045  0.5328  0.6484
  387MOL0     H51077   3.097   2.443  10.274  0.9397 -0.4279 -1.6800
  387MOL0     H51078   2.961   2.236  10.452  0.3085 -1.7281 -1.0170
  387MOL0     H51079   3.052   2.366  10.495 -1.6370 -0.8267  0.7166
  387MOL0     H51080   3.168   2.124  10.342 -1.6955  0.9295 -0.4775
  387MOL0     H51081   3.252   2.271  10.383  0.0555 -0.9953  0.5468
  387MOL0     H51082   3.265   2.060  10.734 -0.3709 -1.8373 -0.5814
  387MOL0     H51083   2.651   2.527  10.284  0.1559 -1.5299  0.3336
  387MOL0     H51084   2.490   2.722  10.279  0.7156 -0.0904 -1.6375
  388MOL0     O51085   9.885  11.082   3.991 -0.2504  0.4080 -0.2068
  388MOL0     C51086   9.928  10.989   3.922  0.0162 -0.7491  0.8190
  388MOL0     O51087   9.853  10.892   3.857  0.1905 -0.5169 -0.5075
  388MOL0     C51088   9.721  10.863   3.896 -0.7155  0.0978  0.2480
  388MOL0     C51089   9.664  10.882   4.022 -0.0523 -0.0560  0.6151
  388MOL0     C51090   9.534  10.829   4.046  0.1001  0.1682  0.4885
  388MOL0     C51091   9.465  10.759   3.944  0.0967 -1.0805  0.4987
  388MOL0     O51092   9.337  10.718   3.976  0.1058 -0.5671 -0.4084
  388MOL0     C51093   9.228  10.744   3.888  0.1227 -0.1668 -0.6775
  388MOL0     C51094   9.192  10.897   3.869  0.0476  0.3940 -0.7280
  388MOL0     C51095   9.185  10.971   3.996 -0.2701 -0.5566  0.6408
  388MOL0     C51096   9.116  11.118   3.998 -0.3887  0.1488  0.3345
  388MOL0     C51097   9.185  11.218   3.896  0.5512 -0.8420  0.4614
  388MOL0     C51098   9.157  11.366   3.926  0.5627  0.0220  0.0791
  388MOL0     C51099   9.234  11.410   4.054 -0.0543  0.4522 -1.0645
  388MOL0     C51100   9.234  11.562   4.078 -0.0953 -0.0563 -0.0570
  388MOL0     N51101   9.091  11.607   4.070 -0.1274 -0.2668  0.2789
  388MOL0     C51102   8.989  11.574   4.156 -0.1558  0.9138 -0.0110
  388MOL0     C51103   8.875  11.621   4.097 -0.8931  0.4698 -0.0148
  388MOL0     C51104   8.738  11.604   4.137 -0.0279 -0.2868  0.0019
  388MOL0     C51105   8.670  11.744   4.131  0.0428  0.3048 -0.3509
  388MOL0     C51106   8.520  11.743   4.173 -0.4897 -0.0353 -0.2602
  388MOL0     C51107   8.422  11.693   4.078 -0.8138  0.8281 -0.2406
  388MOL0     O51108   8.299  11.704   4.135 -0.2922 -0.0584  0.4374
  388MOL0     C51109   8.186  11.656   4.075  0.4068  0.3885 -0.0033
  388MOL0     C51110   8.182  11.621   3.941 -0.8293  0.0281  0.1860
  388MOL0     C51111   8.061  11.582   3.882 -0.6225  0.3314 -0.7152
  388MOL0     C51112   7.944  11.615   3.948  0.2966  0.2661 -0.4131
  388MOL0     C51113   7.822  11.585   3.877 -0.2577 -0.1442 -0.5979
  388MOL0     O51114   7.823  11.563   3.741  0.1186 -0.1653 -0.3191
  388MOL0     C51115   7.705  11.549   3.664  0.2625 -0.6155 -0.4336
  388MOL0     C51116   7.590  11.620   3.688  0.4554 -0.3099  0.0460
  388MOL0     C51117   7.481  11.620   3.599 -0.0944 -0.3949  0.0951
  388MOL0     C51118   7.489  11.539   3.481 -0.2595  0.6041  0.5760
  388MOL0     O51119   7.383  11.528   3.392  0.0523  0.2408 -0.5274
  388MOL0     C51120   7.298  11.639   3.393  0.1481  0.4111 -0.8797
  388MOL0     C51121   7.172  11.624   3.301 -0.3323  0.4852 -0.8139
  388MOL0     C51122   7.211  11.623   3.157 -0.9591  0.0343  0.6901
  388MOL0     C51123   7.097  11.608   3.059  0.0794  1.2501 -0.1058
  388MOL0     C51124   7.006  11.729   3.064 -0.1154 -0.3978  0.2108
  388MOL0     C51125   6.864  11.697   3.115 -0.2127  0.3132 -0.5372
  388MOL0     C51126   6.793  11.605   3.010  0.0640 -0.0625 -1.0886
  388MOL0     C51127   6.638  11.635   3.008 -0.0022  0.2272 -0.8068
  388MOL0    Cl51128   6.567  11.621   3.175 -0.2847  0.2933  0.1992
  388MOL0     C51129   7.605  11.457   3.464  0.2362  0.2752 -0.5568
  388MOL0     C51130   7.706  11.460   3.563 -0.4768 -0.7430  0.7423
  388MOL0     O51131   7.725  11.603   3.950  0.3841  0.1193 -0.2763
  388MOL0     C51132   7.948  11.661   4.085  0.5119 -0.3129  0.1075
  388MOL0     C51133   8.071  11.679   4.144 -0.8227  0.8016 -0.3599
  388MOL0     N51134   8.908  11.681   3.982 -0.7141  0.6185  0.3474
  388MOL0     N51135   9.038  11.680   3.957  0.6105  0.3169 -0.4677
  388MOL0     C51136   9.523  10.743   3.824 -0.5029 -0.8721  0.3502
  388MOL0     C51137   9.648  10.802   3.792  0.3926  1.0076 -0.2675
  388MOL0     C51138  10.073  10.982   3.907 -0.1925  0.0389 -0.3944
  388MOL0     C51139  10.133  10.890   3.811 -0.5138  0.3509  0.6427
  388MOL0     C51140  10.272  10.884   3.812  0.0258  0.6410  0.3112
  388MOL0     C51141  10.349  10.963   3.896  0.0177 -0.1641  0.6967
  388MOL0     O51142  10.486  10.932   3.905  0.6450  0.1648  0.3386
  388MOL0     C51143  10.554  10.936   3.782  0.2364 -0.5871 -0.0192
  388MOL0     C51144  10.697  10.959   3.812 -0.2043 -0.4910  0.0174
  388MOL0     C51145  10.719  11.056   3.923  0.2232  1.3085 -0.4577
  388MOL0     C51146  10.854  11.115   3.934 -1.1552  0.3380  1.7743
  388MOL0     C51147  10.969  11.024   3.910 -0.3374 -0.0432 -0.0160
  388MOL0     C51148  11.069  10.958   3.873  0.9353 -0.2079  0.0341
  388MOL0     C51149  10.289  11.048   3.989 -1.2417  0.3148  0.2025
  388MOL0     C51150  10.155  11.060   4.001 -0.1582  0.3837  0.3322
  388MOL0     H51151   9.716  10.923   4.108 -0.5512 -3.1711  2.5301
  388MOL0     H51152   9.499  10.842   4.148  0.1119  0.4981  0.4516
  388MOL0     H51153   9.148  10.694   3.944  1.0105 -0.4031  0.4204
  388MOL0     H51154   9.241  10.693   3.792 -0.2979 -3.6890  0.9464
  388MOL0     H51155   9.096  10.896   3.817  0.4623 -2.7435 -1.6814
  388MOL0     H51156   9.269  10.951   3.812  0.7772 -1.4732 -1.6165
  388MOL0     H51157   9.282  10.991   4.042 -0.2600 -0.6638  0.6667
  388MOL0     H51158   9.133  10.898   4.059  2.0464 -1.5015  1.5471
  388MOL0     H51159   9.012  11.108   3.967  0.0367 -2.1738 -0.5291
  388MOL0     H51160   9.114  11.153   4.102  0.7489 -0.8049  0.7029
  388MOL0     H51161   9.150  11.191   3.796  1.8193 -0.3279 -0.1414
  388MOL0     H51162   9.294  11.215   3.891  0.8300  1.8533  2.5496
  388MOL0     H51163   9.053  11.392   3.947  1.0316  1.9184  0.2753
  388MOL0     H51164   9.185  11.431   3.842  0.7805  2.1753  1.7483
  388MOL0     H51165   9.195  11.365   4.147  0.6151  1.9523 -0.0261
  388MOL0     H51166   9.338  11.375   4.051  0.0347  0.1370  1.9933
  388MOL0     H51167   9.299  11.608   4.003 -0.1105  2.2363  1.2473
  388MOL0     H51168   9.279  11.592   4.173 -2.0864  3.7006 -0.0975
  388MOL0     H51169   8.992  11.515   4.247 -4.6730 -1.7515 -1.2927
  388MOL0     H51170   8.743  11.570   4.242  2.5478 -0.3778 -0.1002
  388MOL0     H51171   8.689  11.522   4.085 -1.1645 -0.6063  1.4858
  388MOL0     H51172   8.663  11.788   4.031 -0.4410  1.1284  0.0344
  388MOL0     H51173   8.728  11.811   4.196  1.1134 -1.5579  0.6850
  388MOL0     H51174   8.511  11.685   4.265  0.7817  0.1973  0.0239
  388MOL0     H51175   8.494  11.847   4.194 -3.0271 -0.6335 -0.1028
  388MOL0     H51176   8.443  11.588   4.059  0.7313  0.5583  2.4693
  388MOL0     H51177   8.433  11.757   3.990 -0.5360 -0.3071 -1.0544
  388MOL0     H51178   8.271  11.587   3.889 -3.7026 -1.6811 -4.2500
  388MOL0     H51179   8.065  11.542   3.781 -2.2485 -0.6790 -0.4086
  388MOL0     H51180   7.565  11.684   3.772  0.1847 -1.1663  0.6285
  388MOL0     H51181   7.387  11.668   3.625 -0.9284 -1.3316 -1.0763
  388MOL0     H51182   7.347  11.734   3.370  0.4638  0.3337 -0.5257
  388MOL0     H51183   7.241  11.639   3.486  2.8203 -1.6445  0.8873
  388MOL0     H51184   7.095  11.691   3.338  1.7886  0.9127  3.3970
  388MOL0     H51185   7.126  11.527   3.322  2.9398 -0.5839  2.5531
  388MOL0     H51186   7.277  11.540   3.132  1.5220  2.4498 -1.4846
  388MOL0     H51187   7.270  11.713   3.136  0.8636 -1.2332  0.1630
  388MOL0     H51188   7.140  11.599   2.959 -0.6662  2.8611 -0.6020
  388MOL0     H51189   7.037  11.517   3.071  0.4668  0.9358 -0.5415
  388MOL0     H51190   6.992  11.775   2.966 -1.6040 -0.8898  0.1750
  388MOL0     H51191   7.050  11.810   3.123  0.7661 -0.2547 -0.6257
  388MOL0     H51192   6.808  11.787   3.144  0.2821  0.7087 -0.7853
  388MOL0     H51193   6.876  11.646   3.211  2.3439 -1.2173 -1.5646
  388MOL0     H51194   6.831  11.644   2.915 -0.1833  0.7198 -0.8724
  388MOL0     H51195   6.806  11.498   3.028  1.5559  0.6283  3.2393
  388MOL0     H51196   6.585  11.567   2.942 -2.3075  1.7585 -0.6837
  388MOL0     H51197   6.612  11.737   2.977 -2.9673 -0.0189  0.4918
  388MOL0     H51198   7.603  11.389   3.380  1.0901  2.0810 -2.1343
  388MOL0     H51199   7.808  11.423   3.556  0.7427  1.9219  2.5904
  388MOL0     H51200   7.852  11.675   4.133  1.0230  0.2146  0.9950
  388MOL0     H51201   8.077  11.721   4.244  1.2392 -1.4736  0.5849
  388MOL0     H51202   9.464  10.695   3.746 -1.6937 -1.6715  1.7053
  388MOL0     H51203   9.687  10.806   3.690  1.2301  1.8173  0.0712
  388MOL0     H51204  10.085  10.809   3.757 -0.4475 -1.6440  3.3610
  388MOL0     H51205  10.317  10.810   3.747 -0.3531 -0.8872  1.7154
  388MOL0     H51206  10.514  11.015   3.718  1.2862  0.2322  0.3003
  388MOL0     H51207  10.551  10.842   3.727 -0.7909 -0.2491 -0.5706
  388MOL0     H51208  10.729  10.861   3.847 -1.5373 -1.5230 -1.4845
  388MOL0     H51209  10.751  10.977   3.719 -1.5896  0.6623 -0.5997
  388MOL0     H51210  10.695  11.005   4.017 -0.9407 -0.2661 -1.5622
  388MOL0     H51211  10.646  11.133   3.897  0.2937  1.6663  0.3798
  388MOL0     H51212  10.857  11.192   3.856 -0.9272 -1.8847 -0.5492
  388MOL0     H51213  10.855  11.168   4.030 -1.7650  0.3923  1.7569
  388MOL0     H51214  11.168  10.921   3.857  1.4720  0.4320  1.7135
  388MOL0     H51215  10.360  11.108   4.046  1.3094 -0.0617 -2.3113
  388MOL0     H51216  10.104  11.127   4.070 -1.1971 -0.0435  0.0029
  389MOL0     O51217   5.455   7.219   5.084  0.1143  0.0413 -0.1903
  389MOL0     C51218   5.392   7.136   5.024  0.2210  0.2132  0.2584
  389MOL0     O51219   5.417   7.003   5.030  0.7921 -0.7495  0.9163
  389MOL0     C51220   5.545   6.957   5.036  0.1747 -0.1763 -0.7396
  389MOL0     C51221   5.661   7.033   4.991 -0.0665 -0.9118 -0.1149
  389MOL0     C51222   5.789   6.994   5.027 -0.2843  0.1984 -0.7488
  389MOL0     C51223   5.801   6.878   5.108  0.0498 -0.6255  0.0740
  389MOL0     O51224   5.929   6.838   5.141  0.6201 -0.2022 -0.2469
  389MOL0     C51225   6.030   6.929   5.179  0.0009  0.0538  0.4043
  389MOL0     C51226   6.126   6.863   5.280  0.2090  0.0089  0.4202
  389MOL0     C51227   6.058   6.804   5.406 -0.3531  0.1451  0.0002
  389MOL0     C51228   6.156   6.715   5.482  0.2510  0.1949 -0.2007
  389MOL0     C51229   6.235   6.810   5.577 -1.0241 -0.0069  0.2598
  389MOL0     C51230   6.203   6.794   5.719 -0.4193  0.2975 -0.9561
  389MOL0     C51231   6.050   6.810   5.755  0.5730 -0.2026 -0.4526
  389MOL0     C51232   6.028   6.838   5.903  0.3293  0.5314 -0.8284
  389MOL0     N51233   5.882   6.836   5.941 -0.2287 -0.3754  0.1456
  389MOL0     C51234   5.801   6.943   5.925  0.5289 -0.2816 -0.2228
  389MOL0     C51235   5.685   6.909   5.983 -0.2404  0.2170  0.0799
  389MOL0     C51236   5.565   7.005   5.984 -1.7307  0.6265 -0.1165
  389MOL0     C51237   5.447   6.938   5.914  0.9656 -1.0359  0.5880
  389MOL0     C51238   5.330   7.039   5.904  0.2367 -0.4831 -0.4657
  389MOL0     C51239   5.220   6.969   5.828 -0.0022 -0.1684 -0.4857
  389MOL0     O51240   5.110   7.066   5.835  0.2409 -0.7600 -0.3173
  389MOL0     C51241   5.015   7.069   5.736 -0.2896  0.7466  0.1161
  389MOL0     C51242   4.950   6.952   5.708  0.5987  0.1527  0.9575
  389MOL0     C51243   4.830   6.946   5.626 -0.2069 -0.2121 -0.0694
  389MOL0     C51244   4.775   7.067   5.572  1.2471  0.3634 -0.0677
  389MOL0     C51245   4.662   7.068   5.489 -0.2135 -0.0647  0.4787
  389MOL0     O51246   4.592   7.181   5.476 -0.1022 -0.2871  0.8531
  389MOL0     C51247   4.468   7.196   5.418  0.3045  0.3573  0.5822
  389MOL0     C51248   4.362   7.102   5.427  0.4087 -0.0952 -0.6779
  389MOL0     C51249   4.233   7.146   5.389 -0.6691  0.2023 -0.2574
  389MOL0     C51250   4.211   7.264   5.330 -0.1507  0.5244  0.2798
  389MOL0     O51251   4.094   7.280   5.266 -0.5668  0.0707 -0.2426
  389MOL0     C51252   4.076   7.414   5.216 -0.7035 -0.7517 -0.4707
  389MOL0     C51253   3.931   7.414   5.171  0.5113 -0.6773 -0.1774
  389MOL0     C51254   3.835   7.388   5.284 -1.2329 -0.3153  0.5126
  389MOL0     C51255   3.681   7.401   5.252 -0.0859  0.2512  0.4587
  389MOL0     C51256   3.583   7.323   5.340  0.1616  0.5212 -0.1337
  389MOL0     C51257   3.439   7.306   5.285 -0.1693 -0.5462  0.3565
  389MOL0     C51258   3.348   7.306   5.405 -0.5379  0.2230  0.0361
  389MOL0     C51259   3.205   7.302   5.359  0.3952  0.3933 -0.2208
  389MOL0    Cl51260   3.124   7.268   5.516 -0.1161 -0.0182  0.2736
  389MOL0     C51261   4.322   7.354   5.316 -0.3458 -0.4735  0.0872
  389MOL0     C51262   4.443   7.317   5.362 -0.5627 -0.3020 -1.0415
  389MOL0     O51263   4.641   6.963   5.424 -0.5461 -0.2219  0.1783
  389MOL0     C51264   4.843   7.188   5.608 -0.5101  0.2964  0.1180
  389MOL0     C51265   4.952   7.185   5.699  0.7008 -0.1766  0.5931
  389MOL0     N51266   5.714   6.785   6.037  0.0132 -0.2656  0.0088
  389MOL0     N51267   5.821   6.733   5.999 -0.3561 -0.0303 -0.7205
  389MOL0     C51268   5.696   6.789   5.119  0.1635 -0.7570 -0.8572
  389MOL0     C51269   5.569   6.829   5.089  0.1605  0.1058  0.0717
  389MOL0     C51270   5.280   7.170   4.928  0.1024  0.1175  0.4649
  389MOL0     C51271   5.256   7.099   4.814 -0.5437  0.1345 -0.0880
  389MOL0     C51272   5.151   7.130   4.719  0.1920  0.1328 -1.6779
  389MOL0     C51273   5.059   7.236   4.755 -0.0009  0.6994  0.3442
  389MOL0     O51274   4.957   7.254   4.665 -0.9297  0.5526 -0.0772
  389MOL0     C51275   4.845   7.333   4.717  0.6090  0.1091 -0.4490
  389MOL0     C51276   4.738   7.320   4.609 -0.7933  0.3916  0.3488
  389MOL0     C51277   4.762   7.427   4.508  0.9957  0.1462 -0.5003
  389MOL0     C51278   4.757   7.377   4.366 -0.6431  0.1922  0.4142
  389MOL0     C51279   4.623   7.329   4.328 -0.0777  0.1381 -0.3384
  389MOL0     C51280   4.506   7.310   4.309  0.6086 -0.0014  0.0131
  389MOL0     C51281   5.093   7.320   4.862 -0.1015  0.5428  0.7976
  389MOL0     C51282   5.195   7.282   4.946 -0.2995 -0.7556 -0.1672
  389MOL0     H51283   5.639   7.124   4.936  0.5782  1.2770  2.9710
  389MOL0     H51284   5.876   7.046   4.987  1.5397 -1.3357  1.0590
  389MOL0     H51285   5.975   7.013   5.223 -2.2462 -0.6659 -0.8575
  389MOL0     H51286   6.089   6.968   5.096 -0.5964  0.2730  0.0735
  389MOL0     H51287   6.202   6.938   5.306  0.6747 -0.4269  0.3207
  389MOL0     H51288   6.173   6.783   5.223 -1.8062  0.1123 -1.5296
  389MOL0     H51289   5.970   6.746   5.376 -0.3074 -0.2455  0.5978
  389MOL0     H51290   6.021   6.887   5.467  2.0502  0.5675  0.9824
  389MOL0     H51291   6.099   6.638   5.535 -0.7773  1.5245  0.6985
  389MOL0     H51292   6.229   6.673   5.412 -0.3544 -3.4561  1.1622
  389MOL0     H51293   6.229   6.917   5.555  0.4450  0.2044  0.7447
  389MOL0     H51294   6.339   6.783   5.558 -1.7612 -0.7025 -3.6568
  389MOL0     H51295   6.266   6.869   5.767  0.5941 -1.0881 -0.0371
  389MOL0     H51296   6.242   6.702   5.764  3.0825  1.8889 -0.4649
  389MOL0     H51297   6.015   6.901   5.705  2.5380 -0.2274 -1.9849
  389MOL0     H51298   6.000   6.720   5.718  0.1094 -0.9986  1.9177
  389MOL0     H51299   6.070   6.934   5.933  0.8683 -0.0166  0.2381
  389MOL0     H51300   6.072   6.758   5.964 -1.6535  0.5849  0.7872
  389MOL0     H51301   5.819   7.042   5.883  0.0363 -0.7799 -1.6637
  389MOL0     H51302   5.586   7.097   5.928 -2.1401  0.6163 -0.2883
  389MOL0     H51303   5.544   7.024   6.090  0.2659  2.7096 -0.0197
  389MOL0     H51304   5.415   6.837   5.943  0.9392 -0.9024  1.0422
  389MOL0     H51305   5.474   6.928   5.809 -1.5362 -0.1701 -0.2312
  389MOL0     H51306   5.296   7.072   6.003  0.6712  2.6781 -1.2726
  389MOL0     H51307   5.358   7.131   5.852 -2.4111  0.9568  0.4593
  389MOL0     H51308   5.197   6.874   5.878  3.3688  0.0597  1.7974
  389MOL0     H51309   5.258   6.951   5.728  2.6080  0.2837  0.3423
  389MOL0     H51310   4.994   6.862   5.750  2.1414  1.5382  2.4715
  389MOL0     H51311   4.786   6.849   5.606 -0.4005  0.2401 -2.0103
  389MOL0     H51312   4.379   7.011   5.483 -1.1866  1.2522  2.2045
  389MOL0     H51313   4.156   7.069   5.380  0.1872 -0.7429  0.2898
  389MOL0     H51314   4.148   7.440   5.138 -0.9413  0.8218 -0.1894
  389MOL0     H51315   4.090   7.490   5.293 -0.5264 -1.1223 -0.1307
  389MOL0     H51316   3.912   7.338   5.095  1.5182 -2.0169  0.8517
  389MOL0     H51317   3.897   7.508   5.128  0.3102 -1.2922 -1.3771
  389MOL0     H51318   3.851   7.453   5.371 -0.4177 -1.6696  1.4122
  389MOL0     H51319   3.854   7.285   5.314  0.4189  0.2493  1.5583
  389MOL0     H51320   3.657   7.507   5.257  0.7906  0.6610 -2.2581
  389MOL0     H51321   3.675   7.357   5.151 -0.1258 -1.3482  1.1233
  389MOL0     H51322   3.582   7.381   5.433 -2.6679 -0.9102  0.8414
  389MOL0     H51323   3.625   7.223   5.358 -1.1018  0.2236  1.3660
  389MOL0     H51324   3.447   7.204   5.245  1.8523 -0.8580  1.4418
  389MOL0     H51325   3.420   7.388   5.215 -0.1347  0.5117  1.5472
  389MOL0     H51326   3.361   7.224   5.475  0.1812 -0.1527 -0.5174
  389MOL0     H51327   3.363   7.392   5.471 -1.0297 -0.5010  1.1090
  389MOL0     H51328   3.176   7.231   5.281  1.1683 -1.4849  1.1095
  389MOL0     H51329   3.174   7.399   5.321  0.2577 -0.4015 -2.2460
  389MOL0     H51330   4.305   7.454   5.279  0.1877 -0.0761  0.8829
  389MOL0     H51331   4.529   7.383   5.351  0.3448 -1.8262 -4.7714
  389MOL0     H51332   4.813   7.285   5.571  1.3773  0.2869 -1.5820
  389MOL0     H51333   5.002   7.278   5.724 -0.2382  1.1958 -2.2185
  389MOL0     H51334   5.717   6.691   5.159  1.6660 -0.2842 -0.3964
  389MOL0     H51335   5.480   6.768   5.101 -2.0323  2.0947 -3.9848
  389MOL0     H51336   5.309   7.009   4.785 -0.4301 -0.0330  0.6130
  389MOL0     H51337   5.124   7.064   4.638 -1.4318 -1.6623  0.1935
  389MOL0     H51338   4.882   7.434   4.737 -0.3322  0.0422  1.9423
  389MOL0     H51339   4.818   7.292   4.815  1.9212  1.2978  0.4375
  389MOL0     H51340   4.751   7.219   4.571  0.2279  0.0875  1.4602
  389MOL0     H51341   4.634   7.335   4.640 -1.2598  0.4429 -1.1434
  389MOL0     H51342   4.868   7.455   4.507  0.6079  1.6717 -0.4895
  389MOL0     H51343   4.705   7.515   4.538  0.6813 -0.5794  1.1593
  389MOL0     H51344   4.792   7.448   4.290  1.6865 -0.5099  0.7344
  389MOL0     H51345   4.828   7.294   4.366 -0.8618 -0.0591 -2.0621
  389MOL0     H51346   4.402   7.297   4.289  0.2938 -1.7298  2.3143
  389MOL0     H51347   5.043   7.416   4.874 -3.4280 -0.8992 -0.4137
  389MOL0     H51348   5.204   7.350   5.030  0.5060  0.1682 -0.9703
  390MOL0     O51349   7.550  10.351   3.781  0.5829  0.5709 -0.1575
  390MOL0     C51350   7.464  10.270   3.759 -0.3475  0.4283  0.6465
  390MOL0     O51351   7.432  10.163   3.841  0.6702  0.1843  0.6977
  390MOL0     C51352   7.526  10.127   3.928 -0.0877 -0.1302  0.7324
  390MOL0     C51353   7.649  10.079   3.891 -0.2979  0.2075 -0.3838
  390MOL0     C51354   7.744  10.036   4.000  0.1573 -0.5141 -0.0444
  390MOL0     C51355   7.708  10.060   4.129 -0.5264 -0.2733 -0.0541
  390MOL0     O51356   7.809  10.023   4.217  0.1309 -0.1983 -0.1144
  390MOL0     C51357   7.815  10.085   4.351 -0.7509 -0.0108  1.4639
  390MOL0     C51358   7.929  10.016   4.420  0.0252  0.7855 -0.2788
  390MOL0     C51359   8.061  10.005   4.335  0.1233  0.1972  0.5979
  390MOL0     C51360   8.187   9.978   4.423  0.2379 -0.2372  0.1672
  390MOL0     C51361   8.206   9.834   4.463 -0.1473  0.0580  0.2203
  390MOL0     C51362   8.341   9.807   4.545 -0.3636 -0.2097 -0.1952
  390MOL0     C51363   8.337   9.677   4.611  0.0446 -0.0603  0.3131
  390MOL0     C51364   8.465   9.650   4.705  0.3385  0.1430  0.6536
  390MOL0     N51365   8.445   9.706   4.837 -0.4877 -0.1355  0.0253
  390MOL0     C51366   8.382   9.645   4.941  0.5933  0.4230  0.8710
  390MOL0     C51367   8.404   9.727   5.050  0.3956 -0.2813 -0.5103
  390MOL0     C51368   8.363   9.681   5.188  0.9264  0.3632  0.5457
  390MOL0     C51369   8.211   9.685   5.193 -0.5897  0.1955 -0.3499
  390MOL0     C51370   8.160   9.739   5.333  0.4754 -0.2628  0.8381
  390MOL0     C51371   8.020   9.788   5.325  0.0547 -1.1680 -1.0434
  390MOL0     O51372   7.938   9.672   5.353  0.1617 -0.8471  0.2623
  390MOL0     C51373   7.826   9.672   5.281  0.6886  0.5268 -0.2218
  390MOL0     C51374   7.704   9.682   5.349  0.9854  0.3156  0.6616
  390MOL0     C51375   7.581   9.680   5.277 -0.0812 -0.0129  0.3692
  390MOL0     C51376   7.582   9.662   5.137  0.4201 -0.1591 -0.6423
  390MOL0     C51377   7.453   9.657   5.059 -0.2589 -0.4076  0.4241
  390MOL0     O51378   7.334   9.688   5.124  0.5347 -0.3575 -0.3656
  390MOL0     C51379   7.223   9.710   5.046  0.1064 -0.3539  0.5512
  390MOL0     C51380   7.101   9.633   5.067  0.7952 -0.4882 -0.6672
  390MOL0     C51381   6.987   9.653   4.993  0.2722  0.0893  0.4071
  390MOL0     C51382   6.985   9.757   4.894  0.5402 -0.1604 -0.0539
  390MOL0     O51383   6.879   9.777   4.816  0.2110 -0.4483 -0.2372
  390MOL0     C51384   6.753   9.699   4.813 -0.4192  0.7175 -0.0499
  390MOL0     C51385   6.638   9.800   4.839 -0.1043 -0.2451  0.1392
  390MOL0     C51386   6.660   9.905   4.948 -0.2348 -0.3726  0.4487
  390MOL0     C51387   6.564  10.018   4.957  0.5164  0.1139  0.0104
  390MOL0     C51388   6.568  10.079   5.099 -0.2600  0.4793 -0.5011
  390MOL0     C51389   6.498  10.212   5.103 -0.0708  0.0894  0.2928
  390MOL0     C51390   6.493  10.278   5.243  0.1852 -0.0265  0.8954
  390MOL0     C51391   6.397  10.214   5.336  0.1843 -0.0515  0.5531
  390MOL0    Cl51392   6.223  10.272   5.296  0.5017  0.3677 -0.1893
  390MOL0     C51393   7.096   9.830   4.870 -0.2693  0.6547 -0.8751
  390MOL0     C51394   7.220   9.800   4.940 -0.6693 -0.1040  0.4655
  390MOL0     O51395   7.468   9.624   4.944  0.2751  0.8215  0.2247
  390MOL0     C51396   7.702   9.648   5.074 -0.8006 -0.5133  0.2870
  390MOL0     C51397   7.827   9.651   5.142 -0.0773 -0.1586  1.0309
  390MOL0     N51398   8.478   9.830   5.015  0.5333 -0.6634 -0.4379
  390MOL0     N51399   8.507   9.820   4.889 -0.1102  0.3442  0.2088
  390MOL0     C51400   7.579  10.098   4.166 -0.4732  0.6677 -0.2086
  390MOL0     C51401   7.485  10.123   4.064  0.2792  0.5088 -0.6946
  390MOL0     C51402   7.382  10.281   3.640 -0.1146 -0.4058  0.0852
  390MOL0     C51403   7.403  10.399   3.559 -0.2401 -0.2811 -0.0382
  390MOL0     C51404   7.354  10.408   3.430  0.1284 -0.0717 -0.6928
  390MOL0     C51405   7.255  10.314   3.386  0.4525 -0.0482  0.5134
  390MOL0     O51406   7.176  10.326   3.268  0.0984 -0.0116  0.1568
  390MOL0     C51407   7.249  10.367   3.153 -0.5727  0.6158 -0.1226
  390MOL0     C51408   7.271  10.252   3.050  0.8934  0.4465 -1.3047
  390MOL0     C51409   7.376  10.148   3.101  0.4595 -0.7985  0.1968
  390MOL0     C51410   7.511  10.193   3.141  0.3071 -0.3788 -0.2612
  390MOL0     C51411   7.562  10.280   3.036 -0.3876 -0.0034 -0.4254
  390MOL0     C51412   7.605  10.353   2.951  0.4529  0.1703 -0.0450
  390MOL0     C51413   7.220  10.207   3.474 -0.7186  0.6140  0.0584
  390MOL0     C51414   7.290  10.188   3.595 -0.1847 -0.4801 -0.1416
  390MOL0     H51415   7.668  10.063   3.785 -3.8279  0.3697 -1.1801
  390MOL0     H51416   7.835   9.981   3.980 -0.9756 -2.0835 -1.1309
  390MOL0     H51417   7.717  10.073   4.399 -3.4323  0.3491 -3.3275
  390MOL0     H51418   7.846  10.190   4.351  1.0485 -0.5028  1.0457
  390MOL0     H51419   7.889   9.921   4.455 -1.0186  0.1659 -2.9076
  390MOL0     H51420   7.956  10.074   4.509 -0.3661 -1.5183  1.4337
  390MOL0     H51421   8.070  10.104   4.291  2.6930  0.0120  0.5286
  390MOL0     H51422   8.053   9.925   4.261 -0.3497 -0.3734  1.2453
  390MOL0     H51423   8.269  10.010   4.358  1.6036 -1.2800  1.3036
  390MOL0     H51424   8.181  10.048   4.507  0.3249  0.8424 -0.6964
  390MOL0     H51425   8.210   9.768   4.376  2.1455  1.9448 -1.2104
  390MOL0     H51426   8.115   9.810   4.519 -1.4423  4.2955  0.2388
  390MOL0     H51427   8.341   9.889   4.618  1.5965 -0.2299 -0.1210
  390MOL0     H51428   8.424   9.805   4.473  2.5314 -1.0536  2.9111
  390MOL0     H51429   8.246   9.673   4.672  0.8193 -0.7494  1.4713
  390MOL0     H51430   8.343   9.594   4.540  1.9094 -0.4137  0.8164
  390MOL0     H51431   8.555   9.690   4.657 -0.5990  0.0410 -1.3149
  390MOL0     H51432   8.472   9.541   4.708 -0.2020 -0.0199 -1.7839
  390MOL0     H51433   8.340   9.545   4.951  0.2131  0.3947 -0.7657
  390MOL0     H51434   8.411   9.754   5.254  1.3708  0.6233 -0.0434
  390MOL0     H51435   8.408   9.586   5.215 -0.0341 -0.5555 -0.9430
  390MOL0     H51436   8.174   9.588   5.160 -0.8219  0.8789 -2.1807
  390MOL0     H51437   8.174   9.757   5.120  0.2616  1.8381  0.7658
  390MOL0     H51438   8.174   9.652   5.398  2.1121 -0.5140  0.2026
  390MOL0     H51439   8.213   9.829   5.367 -1.1687  1.0821 -0.0201
  390MOL0     H51440   7.993   9.843   5.234 -2.4157 -3.3177 -1.7316
  390MOL0     H51441   8.004   9.868   5.399  1.9410 -1.0158 -0.7545
  390MOL0     H51442   7.696   9.716   5.452  1.0417  1.3797  0.3264
  390MOL0     H51443   7.486   9.703   5.325 -1.1801  0.5384 -1.9390
  390MOL0     H51444   7.096   9.557   5.145  2.5527  2.2284  2.3460
  390MOL0     H51445   6.893   9.610   5.024 -0.5251  1.7378  0.3848
  390MOL0     H51446   6.745   9.630   4.897  0.2642  0.3994 -0.2439
  390MOL0     H51447   6.748   9.643   4.719  0.7214  0.9508 -0.2678
  390MOL0     H51448   6.547   9.743   4.859  0.7956 -2.1803 -0.9989
  390MOL0     H51449   6.628   9.856   4.745 -1.3020 -0.5344  0.0743
  390MOL0     H51450   6.757   9.953   4.929 -0.9121  1.4292  1.3090
  390MOL0     H51451   6.673   9.852   5.043  0.3165 -0.7784  0.1535
  390MOL0     H51452   6.598  10.086   4.878  0.6463 -1.4707 -1.3575
  390MOL0     H51453   6.465   9.976   4.933  1.2761 -1.7986  0.0142
  390MOL0     H51454   6.672  10.082   5.131  0.0621  2.9376 -1.5096
  390MOL0     H51455   6.512  10.011   5.163 -1.8983  1.4867 -0.7978
  390MOL0     H51456   6.401  10.205   5.053  2.0558 -1.9649 -4.2013
  390MOL0     H51457   6.547  10.278   5.030  0.4467  0.1586  0.6991
  390MOL0     H51458   6.595  10.278   5.283  1.0514 -0.0734 -1.1636
  390MOL0     H51459   6.472  10.385   5.231  2.1622  0.1681 -1.7964
  390MOL0     H51460   6.418  10.237   5.440 -2.3436  2.2013  0.6715
  390MOL0     H51461   6.408  10.105   5.338 -2.9860 -0.4393  1.5325
  390MOL0     H51462   7.089   9.920   4.809 -1.5758  0.9731 -0.3089
  390MOL0     H51463   7.313   9.844   4.907  0.2760 -1.6945  0.8818
  390MOL0     H51464   7.720   9.663   4.968 -0.2877  1.2468  0.5827
  390MOL0     H51465   7.921   9.646   5.089 -1.5959 -1.2261 -1.7829
  390MOL0     H51466   7.562  10.101   4.273  0.3176 -1.6374  0.0393
  390MOL0     H51467   7.384  10.151   4.093 -0.3700 -1.3090 -1.0722
  390MOL0     H51468   7.472  10.475   3.596  0.1323 -0.8718  0.4976
  390MOL0     H51469   7.383  10.501   3.383  1.8664 -0.2029  0.0109
  390MOL0     H51470   7.343  10.412   3.185 -1.1941  0.8646  1.4190
  390MOL0     H51471   7.194  10.450   3.108 -0.7136  1.4360  1.5156
  390MOL0     H51472   7.178  10.197   3.033  1.8775 -2.7759  2.4509
  390MOL0     H51473   7.300  10.300   2.956  1.9433  0.0731 -1.1755
  390MOL0     H51474   7.389  10.082   3.014 -1.5819  0.0384 -0.8108
  390MOL0     H51475   7.337  10.082   3.180 -0.5423  0.2282  0.5804
  390MOL0     H51476   7.507  10.249   3.235  3.5890 -1.6941  0.7749
  390MOL0     H51477   7.582  10.111   3.139  0.8659  0.1071 -0.8260
  390MOL0     H51478   7.636  10.411   2.867  1.1723  0.7838  0.6355
  390MOL0     H51479   7.149  10.130   3.445 -0.4025  0.5985 -0.7018
  390MOL0     H51480   7.260  10.096   3.643 -0.1981 -1.3521 -1.7632
  391MOL0     O51481   3.460   4.925   2.509  1.1190 -0.0135 -0.1481
  391MOL0     C51482   3.531   5.016   2.470 -0.4667  0.1839 -0.1139
  391MOL0     O51483   3.493   5.105   2.376 -0.7272  0.5516  0.5274
  391MOL0     C51484   3.382   5.081   2.298 -0.0167  0.2109  0.3354
  391MOL0     C51485   3.253   5.076   2.354  0.5579 -0.3189  0.1510
  391MOL0     C51486   3.144   5.042   2.277 -0.4752  0.5505  0.2979
  391MOL0     C51487   3.155   5.012   2.137  0.2971 -0.1328  0.4574
  391MOL0     O51488   3.042   5.005   2.057 -0.0169  0.0934 -0.2253
  391MOL0     C51489   2.915   5.073   2.091  0.2720 -0.4612  1.0309
  391MOL0     C51490   2.797   4.971   2.111  0.1037  0.7936 -0.3837
  391MOL0     C51491   2.784   4.870   1.999  0.7394  0.9735  0.0001
  391MOL0     C51492   2.751   4.932   1.866 -0.3216  0.4810 -0.3729
  391MOL0     C51493   2.736   4.831   1.754  0.4149  0.4962  0.2763
  391MOL0     C51494   2.618   4.739   1.759  0.3546  0.2210  0.7375
  391MOL0     C51495   2.596   4.652   1.629 -0.4958  0.1186  0.3378
  391MOL0     C51496   2.441   4.614   1.621  0.4861 -0.1236  0.3148
  391MOL0     N51497   2.361   4.714   1.552  0.2251 -0.2202  0.0968
  391MOL0     C51498   2.322   4.832   1.605  0.0159  0.5436 -0.3910
  391MOL0     C51499   2.279   4.907   1.505 -0.0198  0.7602 -0.4380
  391MOL0     C51500   2.206   5.042   1.513  0.0857  0.2477 -0.3873
  391MOL0     C51501   2.055   5.028   1.488 -0.6638 -0.1901 -0.4832
  391MOL0     C51502   2.008   4.936   1.372  0.6169 -0.4885 -0.0520
  391MOL0     C51503   1.865   4.970   1.323 -0.8252  0.5219  0.0906
  391MOL0     O51504   1.773   4.902   1.408 -0.0985  0.3888 -0.2919
  391MOL0     C51505   1.643   4.934   1.373  0.2613 -0.7162 -0.7315
  391MOL0     C51506   1.566   4.837   1.317  0.7037 -1.3913 -0.5461
  391MOL0     C51507   1.429   4.867   1.306  0.5936 -0.3961 -0.4346
  391MOL0     C51508   1.372   4.987   1.343 -0.0071 -0.0960  1.3043
  391MOL0     C51509   1.227   5.024   1.317  1.0565 -0.8529 -0.8013
  391MOL0     O51510   1.147   4.930   1.258 -0.1668  0.3812 -0.5608
  391MOL0     C51511   1.010   4.930   1.287 -0.0020  0.9970  0.6237
  391MOL0     C51512   0.924   5.031   1.246 -0.0536 -0.4127 -0.7317
  391MOL0     C51513   0.791   5.031   1.294 -0.1878 -0.6654 -0.5780
  391MOL0     C51514   0.746   4.928   1.374 -0.1051  0.2202 -0.5207
  391MOL0     O51515   0.622   4.923   1.421  0.0618 -0.3113 -0.3482
  391MOL0     C51516   0.524   5.025   1.382  0.2089  0.3507 -0.0738
  391MOL0     C51517   0.381   4.962   1.398 -0.4641  0.9555  1.0221
  391MOL0     C51518   0.264   5.044   1.346  0.5623 -0.3124  0.0050
  391MOL0     C51519   0.133   4.980   1.397 -0.1548  0.2261  0.2271
  391MOL0     C51520   0.020   5.082   1.389 -0.7935 -0.7349  0.4177
  391MOL0     C51521  -0.118   5.014   1.429 -0.5904 -0.0278  0.2817
  391MOL0     C51522  -0.236   5.116   1.415  0.3710  0.1159  0.0819
  391MOL0     C51523  -0.260   5.167   1.270 -0.7233 -0.6567  0.2355
  391MOL0    Cl51524  -0.396   5.284   1.268 -0.2751 -0.0368 -0.3280
  391MOL0     C51525   0.832   4.835   1.416  0.2277  0.6598 -0.1582
  391MOL0     C51526   0.958   4.832   1.363  0.0114  0.6659 -1.2495
  391MOL0     O51527   1.185   5.134   1.356 -0.4722 -1.2783  0.0986
  391MOL0     C51528   1.451   5.084   1.401 -0.5113  0.0035  0.4704
  391MOL0     C51529   1.584   5.049   1.421 -0.0572 -0.9075  0.4029
  391MOL0     N51530   2.298   4.839   1.388  0.2108  0.2342  0.3169
  391MOL0     N51531   2.331   4.719   1.415  0.6349  0.3189  0.0079
  391MOL0     C51532   3.281   5.012   2.078 -0.2991  0.5598  0.4133
  391MOL0     C51533   3.389   5.048   2.161  1.3191 -0.6196  0.3697
  391MOL0     C51534   3.667   5.034   2.534  0.2322  0.4881  0.3522
  391MOL0     C51535   3.739   5.145   2.500  0.1429  0.3363  0.6799
  391MOL0     C51536   3.871   5.158   2.541  0.1469 -0.6719 -0.8442
  391MOL0     C51537   3.931   5.064   2.625  0.4930 -0.0817 -0.1208
  391MOL0     O51538   4.058   5.081   2.651 -0.8100  0.0749  1.4538
  391MOL0     C51539   4.144   4.965   2.618 -0.4866 -0.2564  0.0601
  391MOL0     C51540   4.233   4.921   2.738 -0.3797 -0.8646  0.9271
  391MOL0     C51541   4.347   5.021   2.757  0.2797  0.5752  0.2325
  391MOL0     C51542   4.422   4.991   2.884  0.7513  0.1210 -0.3057
  391MOL0     C51543   4.514   5.099   2.901  0.5849 -1.0742  0.3642
  391MOL0     C51544   4.575   5.202   2.929 -0.4978  0.0007  0.2329
  391MOL0     C51545   3.855   4.950   2.657  0.0733 -0.4750 -1.2076
  391MOL0     C51546   3.724   4.934   2.618  0.0899  0.2919 -0.2866
  391MOL0     H51547   3.245   5.090   2.462  0.0061  1.6609 -0.1125
  391MOL0     H51548   3.052   5.049   2.334  1.3341  1.5046  3.3529
  391MOL0     H51549   2.888   5.147   2.015  1.0829 -0.8135  0.3928
  391MOL0     H51550   2.914   5.133   2.183 -0.3856  0.6289  0.3401
  391MOL0     H51551   2.705   5.029   2.119 -1.9616 -2.4591  1.7524
  391MOL0     H51552   2.810   4.925   2.209  0.1396  1.0362 -0.2720
  391MOL0     H51553   2.700   4.803   2.019  0.7024  0.1665 -2.4536
  391MOL0     H51554   2.882   4.822   1.990  0.8474  0.8939  1.4079
  391MOL0     H51555   2.658   4.990   1.873 -0.0026  1.1456 -1.4407
  391MOL0     H51556   2.832   5.000   1.838  2.3104 -0.7786  3.3547
  391MOL0     H51557   2.824   4.767   1.742  0.7313  1.1474 -1.0626
  391MOL0     H51558   2.732   4.889   1.661 -3.3986  2.0664  1.1901
  391MOL0     H51559   2.529   4.793   1.794  0.0891 -0.7874  1.6919
  391MOL0     H51560   2.636   4.682   1.851  0.7865  4.2226  3.4063
  391MOL0     H51561   2.636   4.708   1.544 -1.9537 -1.3890 -1.3949
  391MOL0     H51562   2.662   4.565   1.635  2.0550  2.0033  2.1055
  391MOL0     H51563   2.398   4.595   1.720 -2.5895 -2.8164 -1.3528
  391MOL0     H51564   2.434   4.523   1.560 -0.4542  0.6857 -0.8191
  391MOL0     H51565   2.313   4.850   1.712  1.0797 -2.3782  0.2761
  391MOL0     H51566   2.243   5.114   1.440 -0.9892 -0.2920 -1.5000
  391MOL0     H51567   2.221   5.092   1.609  0.5448  1.8012 -1.2372
  391MOL0     H51568   2.038   5.134   1.471  2.2873  0.9269  2.3784
  391MOL0     H51569   2.002   5.010   1.581  0.5786 -0.4111  0.2106
  391MOL0     H51570   2.082   4.948   1.292  0.8364  0.0111  0.2212
  391MOL0     H51571   2.025   4.832   1.403  1.7825 -0.0943  0.7081
  391MOL0     H51572   1.854   4.921   1.225 -1.1320 -2.3728  1.4863
  391MOL0     H51573   1.846   5.078   1.312 -0.1096  0.5447 -1.1557
  391MOL0     H51574   1.599   4.737   1.289  1.7755 -0.5555 -2.5272
  391MOL0     H51575   1.360   4.791   1.272 -0.6364  0.1948  0.6169
  391MOL0     H51576   0.965   5.112   1.186  1.4030 -2.0418 -2.0752
  391MOL0     H51577   0.725   5.112   1.265  1.8169  2.6040  2.9007
  391MOL0     H51578   0.537   5.053   1.277  3.3785  0.3219  0.2228
  391MOL0     H51579   0.533   5.116   1.441  0.0333 -1.5329  3.0751
  391MOL0     H51580   0.376   4.940   1.505 -1.5507 -0.7378  0.6701
  391MOL0     H51581   0.370   4.872   1.337 -0.7056  0.0459  2.3637
  391MOL0     H51582   0.253   5.044   1.237  1.0037  3.1458 -0.1509
  391MOL0     H51583   0.276   5.151   1.369 -2.4277 -0.3674  2.3529
  391MOL0     H51584   0.122   4.900   1.322 -0.7926 -0.1712  0.7288
  391MOL0     H51585   0.140   4.940   1.499  1.4947 -0.6006 -0.1803
  391MOL0     H51586   0.007   5.118   1.287 -1.7303 -2.9633 -0.3001
  391MOL0     H51587   0.051   5.157   1.462  2.1789  0.4707 -1.8707
  391MOL0     H51588  -0.102   4.994   1.536  0.8493 -0.5676 -0.0113
  391MOL0     H51589  -0.129   4.912   1.392  0.1398 -1.1928  2.9920
  391MOL0     H51590  -0.326   5.059   1.437  1.6344 -2.1472 -0.3367
  391MOL0     H51591  -0.221   5.203   1.480  0.9547 -0.1692  0.3322
  391MOL0     H51592  -0.267   5.079   1.205  3.4412  0.5047 -2.1940
  391MOL0     H51593  -0.175   5.222   1.227 -0.3308 -1.7349 -0.4170
  391MOL0     H51594   0.807   4.760   1.491 -2.7888  0.8121 -0.9045
  391MOL0     H51595   1.029   4.753   1.387  0.7332  1.2968 -1.2696
  391MOL0     H51596   1.426   5.188   1.420 -0.3660 -0.3002  2.5000
  391MOL0     H51597   1.654   5.117   1.469 -1.7716  2.3153 -1.3009
  391MOL0     H51598   3.285   4.995   1.971  0.4883  1.4666  0.2761
  391MOL0     H51599   3.480   5.058   2.101 -1.3210 -2.3420 -4.4334
  391MOL0     H51600   3.703   5.235   2.451  0.4075  0.6463  1.0560
  391MOL0     H51601   3.936   5.236   2.503  1.9753 -2.2630 -1.1537
  391MOL0     H51602   4.200   4.986   2.526  0.4733  0.1574  0.7319
  391MOL0     H51603   4.084   4.877   2.590 -1.0838 -0.4905  1.9618
  391MOL0     H51604   4.171   4.909   2.827 -4.1717 -3.6889 -1.7917
  391MOL0     H51605   4.282   4.825   2.724  1.2927  0.0041  0.4887
  391MOL0     H51606   4.297   5.117   2.768  0.0020  0.2794  1.8703
  391MOL0     H51607   4.415   5.019   2.671  2.9543  2.6947  2.1412
  391MOL0     H51608   4.350   4.984   2.966 -0.0697 -0.3140 -1.0425
  391MOL0     H51609   4.480   4.899   2.874  0.2063 -0.1343 -1.2411
  391MOL0     H51610   4.642   5.283   2.948 -1.3110  1.8188 -3.5987
  391MOL0     H51611   3.884   4.862   2.714  0.6816  0.2606 -0.3676
  391MOL0     H51612   3.668   4.856   2.668 -1.2063  1.2452 -0.1982
  392MOL0     O51613   8.483   5.054   2.091 -0.9576 -0.4368 -0.4145
  392MOL0     C51614   8.503   5.102   1.977 -0.4036  0.9004  0.7987
  392MOL0     O51615   8.406   5.138   1.896  0.0212  0.2276 -0.1859
  392MOL0     C51616   8.271   5.124   1.930  0.3311 -0.5505 -0.0390
  392MOL0     C51617   8.211   5.042   2.031  0.9257  0.2602 -0.3022
  392MOL0     C51618   8.069   5.056   2.047  0.3518  1.4247 -0.1156
  392MOL0     C51619   7.986   5.138   1.965  0.4945  0.2372 -0.6914
  392MOL0     O51620   7.854   5.166   1.994  0.1319  0.1643  0.0338
  392MOL0     C51621   7.770   5.054   1.980 -1.2684  0.3584 -0.1665
  392MOL0     C51622   7.684   5.018   2.107  0.1508 -0.0853 -0.1533
  392MOL0     C51623   7.558   5.101   2.112 -0.3489  0.1323 -0.6485
  392MOL0     C51624   7.479   5.068   2.244 -0.1045 -0.4235  0.7435
  392MOL0     C51625   7.352   5.149   2.249 -0.0678  0.3807  0.0893
  392MOL0     C51626   7.323   5.197   2.394  0.1554  0.1582  0.5290
  392MOL0     C51627   7.234   5.316   2.397 -0.0823 -0.3894  0.5359
  392MOL0     C51628   7.088   5.306   2.356 -0.5095  0.0912  0.4502
  392MOL0     N51629   7.023   5.440   2.364 -0.9833 -0.2752 -0.2196
  392MOL0     C51630   7.003   5.509   2.486 -0.3624  0.8254 -0.7042
  392MOL0     C51631   6.956   5.629   2.438 -0.3043  1.4660 -0.7003
  392MOL0     C51632   6.899   5.748   2.507 -0.4519  0.6109  0.3373
  392MOL0     C51633   6.751   5.749   2.479  0.7479 -0.3206  0.2436
  392MOL0     C51634   6.667   5.667   2.587 -0.2477 -0.2407  0.6199
  392MOL0     C51635   6.516   5.674   2.556  0.2376  0.3902 -0.1020
  392MOL0     O51636   6.444   5.589   2.651  0.0286  0.1696  0.7715
  392MOL0     C51637   6.303   5.602   2.656  0.6788 -0.4674  0.5518
  392MOL0     C51638   6.234   5.520   2.740 -0.8124 -0.2955 -0.2000
  392MOL0     C51639   6.095   5.542   2.752  0.7636 -0.0272  0.4586
  392MOL0     C51640   6.027   5.645   2.684  0.1711 -0.0733 -0.1425
  392MOL0     C51641   5.878   5.661   2.689 -0.5156 -0.6578  1.0874
  392MOL0     O51642   5.827   5.762   2.613  0.2677  0.4181 -0.2140
  392MOL0     C51643   5.697   5.803   2.638 -0.1848 -0.3009 -0.2690
  392MOL0     C51644   5.684   5.939   2.665 -0.4640  0.1516 -0.5805
  392MOL0     C51645   5.557   5.996   2.694 -0.9199 -0.2769  0.8294
  392MOL0     C51646   5.448   5.913   2.711  0.4076  0.5463 -0.1243
  392MOL0     O51647   5.322   5.950   2.748 -0.4034 -0.9410 -0.1273
  392MOL0     C51648   5.306   6.069   2.823  1.0257  0.2620  0.7400
  392MOL0     C51649   5.180   6.033   2.905 -0.1109 -0.6415  0.3240
  392MOL0     C51650   5.045   6.019   2.831  0.5773 -1.2409 -0.0383
  392MOL0     C51651   5.019   6.161   2.766  0.2288 -0.2976  0.4140
  392MOL0     C51652   4.861   6.173   2.754 -0.2890  0.1456 -0.1972
  392MOL0     C51653   4.821   6.314   2.712  0.8017  0.4180 -0.4632
  392MOL0     C51654   4.669   6.337   2.703 -0.5305 -0.1086 -0.5325
  392MOL0     C51655   4.632   6.480   2.655  0.2396 -0.6069  0.7293
  392MOL0    Cl51656   4.680   6.615   2.775 -0.3126  0.1373  0.1147
  392MOL0     C51657   5.462   5.774   2.680  0.1655 -1.0191 -0.0340
  392MOL0     C51658   5.587   5.726   2.651  0.3818  0.2798 -0.6552
  392MOL0     O51659   5.817   5.594   2.771 -0.6966 -0.3144  0.4410
  392MOL0     C51660   6.099   5.727   2.596  0.8760  0.1967 -0.3765
  392MOL0     C51661   6.236   5.703   2.585  0.1873 -0.1857 -0.1250
  392MOL0     N51662   6.974   5.640   2.299  0.2608  0.8075 -0.1988
  392MOL0     N51663   7.024   5.524   2.262 -0.2411  0.0204 -0.2627
  392MOL0     C51664   8.048   5.221   1.871  0.0291 -0.1333 -0.1361
  392MOL0     C51665   8.190   5.220   1.863  0.4210 -0.1713  0.9824
  392MOL0     C51666   8.632   5.095   1.901 -1.4291  0.4189 -0.5684
  392MOL0     C51667   8.651   5.170   1.783 -0.4955  0.4447 -0.7148
  392MOL0     C51668   8.782   5.188   1.733  0.2139 -0.6578 -0.7837
  392MOL0     C51669   8.888   5.123   1.795 -0.5293  0.7544  0.2346
  392MOL0     O51670   9.008   5.136   1.739  0.3967  0.1258 -0.4602
  392MOL0     C51671   9.018   5.049   1.628 -0.2589 -1.0861 -0.5069
  392MOL0     C51672   9.155   5.062   1.552 -0.0737 -0.1775 -0.3276
  392MOL0     C51673   9.183   5.197   1.481  0.0149  0.6040 -0.1764
  392MOL0     C51674   9.325   5.208   1.418  0.4598 -0.7201 -0.1671
  392MOL0     C51675   9.345   5.305   1.305 -0.1126  0.7561 -0.3490
  392MOL0     C51676   9.371   5.392   1.224 -0.1802 -0.0208 -0.5870
  392MOL0     C51677   8.877   5.059   1.917 -0.6615  0.2990 -0.1604
  392MOL0     C51678   8.747   5.042   1.960  0.0994 -0.1822  0.1075
  392MOL0     H51679   8.259   4.971   2.098  3.1696  1.6588 -0.3264
  392MOL0     H51680   8.027   4.994   2.126 -1.2222  1.0793 -1.1988
  392MOL0     H51681   7.822   4.960   1.964 -2.7300 -0.4017 -0.5889
  392MOL0     H51682   7.702   5.069   1.896 -0.6469 -2.6993 -1.3502
  392MOL0     H51683   7.755   5.032   2.189 -0.2287 -0.2608  0.2063
  392MOL0     H51684   7.660   4.913   2.089  1.3092 -0.3728 -0.1191
  392MOL0     H51685   7.499   5.066   2.027  0.6349 -1.1953 -0.8106
  392MOL0     H51686   7.564   5.210   2.104  1.5848  0.1493  0.5447
  392MOL0     H51687   7.455   4.962   2.246  2.5726 -1.0952  1.1589
  392MOL0     H51688   7.553   5.091   2.321  0.1251  1.1341  0.1200
  392MOL0     H51689   7.273   5.091   2.200 -0.7232  0.9496  0.4528
  392MOL0     H51690   7.366   5.237   2.186  2.9606 -0.6104 -0.7757
  392MOL0     H51691   7.414   5.231   2.444 -1.3970  3.8736  1.1660
  392MOL0     H51692   7.276   5.122   2.458 -3.8504  3.1737  1.5944
  392MOL0     H51693   7.246   5.343   2.503  1.0211 -6.2651  2.2712
  392MOL0     H51694   7.278   5.403   2.348  0.9523 -0.1263  1.8442
  392MOL0     H51695   7.037   5.230   2.417 -1.7216 -0.1802 -0.8519
  392MOL0     H51696   7.082   5.278   2.250  1.3138  3.1222 -0.5582
  392MOL0     H51697   7.007   5.461   2.583  3.2105  0.4219 -0.9270
  392MOL0     H51698   6.956   5.838   2.480  1.7347 -0.0412  2.4132
  392MOL0     H51699   6.915   5.728   2.613 -1.5732 -2.2890  0.0211
  392MOL0     H51700   6.728   5.710   2.380 -1.0453 -1.4415  1.0560
  392MOL0     H51701   6.718   5.853   2.474 -3.2705 -1.4459 -0.1051
  392MOL0     H51702   6.705   5.564   2.580  2.2748  0.6443  0.2950
  392MOL0     H51703   6.687   5.707   2.686  2.7221 -3.9462  1.7752
  392MOL0     H51704   6.498   5.645   2.452 -1.8528  1.2638 -0.0262
  392MOL0     H51705   6.507   5.782   2.568  2.3362  0.7567 -1.2324
  392MOL0     H51706   6.292   5.442   2.787 -1.5204 -0.8216 -0.1911
  392MOL0     H51707   6.044   5.471   2.816 -1.0573  2.4342  1.9229
  392MOL0     H51708   5.770   6.005   2.665 -1.9474  2.3280  2.2913
  392MOL0     H51709   5.547   6.104   2.697 -1.1583 -0.2492 -0.4386
  392MOL0     H51710   5.305   6.159   2.762  0.1677  1.2668  2.1645
  392MOL0     H51711   5.398   6.086   2.881  2.0872  0.8169 -1.0201
  392MOL0     H51712   5.163   6.102   2.988 -3.7356 -3.6906  2.4472
  392MOL0     H51713   5.193   5.934   2.951 -3.5754 -1.0939  0.5847
  392MOL0     H51714   4.957   5.982   2.884  0.9351 -0.3835  1.2049
  392MOL0     H51715   5.064   5.947   2.751  0.9572 -0.3109 -0.8076
  392MOL0     H51716   5.067   6.232   2.834  2.3309 -1.2932  0.0227
  392MOL0     H51717   5.066   6.177   2.669  2.1705  0.0224  1.3745
  392MOL0     H51718   4.814   6.154   2.851  2.7016  2.7479  1.9602
  392MOL0     H51719   4.826   6.104   2.677  2.1247  0.2503 -1.4783
  392MOL0     H51720   4.871   6.327   2.616  2.4439  0.5953  0.3785
  392MOL0     H51721   4.868   6.383   2.782 -0.3881  0.1302  0.6778
  392MOL0     H51722   4.624   6.260   2.640 -3.9818  0.4055  1.0392
  392MOL0     H51723   4.614   6.322   2.797 -0.0257  0.8870 -0.0640
  392MOL0     H51724   4.522   6.486   2.649  0.3082  0.4946  0.5092
  392MOL0     H51725   4.664   6.498   2.552  2.3216 -1.7529  1.1177
  392MOL0     H51726   5.371   5.715   2.686  0.0433 -0.8609 -0.2970
  392MOL0     H51727   5.578   5.618   2.648 -2.2724  0.2567  2.5860
  392MOL0     H51728   6.052   5.803   2.534 -0.3712  0.9646  1.4265
  392MOL0     H51729   6.298   5.772   2.528  0.8028  0.7772  1.6149
  392MOL0     H51730   7.997   5.282   1.797  1.7233 -0.7010 -1.8404
  392MOL0     H51731   8.232   5.285   1.786  2.6224 -1.9929  0.5411
  392MOL0     H51732   8.574   5.230   1.736  0.5188  1.9563 -0.5452
  392MOL0     H51733   8.785   5.247   1.641 -2.5133  0.0532 -0.5217
  392MOL0     H51734   8.936   5.066   1.558 -0.0072 -0.6930 -0.7063
  392MOL0     H51735   9.008   4.953   1.680  2.5831 -0.8259  0.7429
  392MOL0     H51736   9.235   5.039   1.624 -0.2874 -0.5985 -0.2206
  392MOL0     H51737   9.167   4.983   1.477  2.7853  0.1561 -0.3563
  392MOL0     H51738   9.186   5.267   1.565  2.3084 -0.0694  0.3705
  392MOL0     H51739   9.102   5.222   1.413 -0.7032 -0.2003  0.3693
  392MOL0     H51740   9.377   5.251   1.504 -1.4338  2.2657 -0.3804
  392MOL0     H51741   9.370   5.112   1.391  2.4743  0.4959 -1.3250
  392MOL0     H51742   9.398   5.478   1.167  2.1074  0.3287  0.8826
  392MOL0     H51743   8.964   5.010   1.962 -0.0150  0.6807 -0.9744
  392MOL0     H51744   8.731   4.989   2.054 -1.1255  1.0347  0.6091
  393MOL0     O51745   6.507   9.828   6.516  0.0044  0.0189 -0.4546
  393MOL0     C51746   6.485   9.914   6.432 -0.6268  0.3163 -0.3611
  393MOL0     O51747   6.368   9.980   6.419  0.1515  0.0607 -0.1984
  393MOL0     C51748   6.251   9.917   6.477 -0.7690  0.2695 -1.1844
  393MOL0     C51749   6.156   9.861   6.397 -0.2586 -0.1724  0.9646
  393MOL0     C51750   6.036   9.823   6.450 -0.7685 -0.6756 -0.5646
  393MOL0     C51751   6.010   9.845   6.581 -0.6430 -0.2317 -0.0403
  393MOL0     O51752   5.888   9.818   6.635  0.3583 -0.0073 -0.0692
  393MOL0     C51753   5.772   9.870   6.580  0.3148  0.3039 -0.1634
  393MOL0     C51754   5.651   9.788   6.636  0.0514  0.1737  0.2527
  393MOL0     C51755   5.524   9.862   6.629 -0.0210 -0.9377  0.2895
  393MOL0     C51756   5.405   9.775   6.652  0.3478  0.7060  1.0576
  393MOL0     C51757   5.272   9.814   6.595  0.7284 -0.5408 -0.0253
  393MOL0     C51758   5.155   9.765   6.672  0.3028  0.4669  0.0909
  393MOL0     C51759   5.021   9.799   6.604 -0.2550  0.3236 -0.4415
  393MOL0     C51760   4.906   9.767   6.695  0.0006 -0.3695 -0.2509
  393MOL0     N51761   4.773   9.802   6.651 -0.0744  0.3538 -1.2395
  393MOL0     C51762   4.703   9.905   6.707 -1.0236  0.0763 -0.7313
  393MOL0     C51763   4.578   9.887   6.662 -0.0186  0.5279 -0.5616
  393MOL0     C51764   4.460   9.972   6.716 -0.3306  0.1489 -0.6648
  393MOL0     C51765   4.347   9.898   6.780 -0.3215 -0.0617 -0.0297
  393MOL0     C51766   4.275   9.796   6.685 -0.7073  0.3653 -0.4340
  393MOL0     C51767   4.158   9.862   6.596 -0.7315  0.3344 -0.3899
  393MOL0     O51768   4.037   9.880   6.666 -0.2796 -0.4153  0.9817
  393MOL0     C51769   3.952   9.772   6.667  0.5368  0.6870  0.2896
  393MOL0     C51770   3.841   9.791   6.754 -0.1612 -0.4596 -0.0776
  393MOL0     C51771   3.750   9.687   6.778 -0.7510  0.2375 -0.4231
  393MOL0     C51772   3.773   9.553   6.735  0.3366 -0.3917 -0.4134
  393MOL0     C51773   3.666   9.450   6.768 -0.2757 -0.1830  0.5481
  393MOL0     O51774   3.596   9.482   6.875 -0.5669 -0.9119  0.4817
  393MOL0     C51775   3.507   9.400   6.942  0.4177  0.0736  0.2251
  393MOL0     C51776   3.508   9.402   7.080 -0.0202 -0.4640  0.0150
  393MOL0     C51777   3.408   9.327   7.147 -0.0724 -0.3616 -0.0422
  393MOL0     C51778   3.318   9.245   7.073 -0.3198  0.6676  0.9407
  393MOL0     O51779   3.217   9.176   7.141  0.1070 -0.6764  0.7445
  393MOL0     C51780   3.179   9.048   7.096 -0.8112 -0.3497 -0.3100
  393MOL0     C51781   3.078   9.002   7.199 -0.1284  0.8378 -0.2251
  393MOL0     C51782   3.017   8.863   7.152  0.9676 -1.1439  0.2106
  393MOL0     C51783   2.911   8.831   7.249  0.2051 -0.0884  0.5665
  393MOL0     C51784   2.874   8.676   7.249  0.4611 -0.1641 -0.6886
  393MOL0     C51785   2.805   8.643   7.117  0.8541 -0.6756 -0.1384
  393MOL0     C51786   2.677   8.719   7.093  0.9913  0.5697 -0.1196
  393MOL0     C51787   2.578   8.729   7.207 -0.0873 -0.2171  0.0918
  393MOL0    Cl51788   2.538   8.570   7.267  0.5723 -0.2138 -0.0389
  393MOL0     C51789   3.327   9.239   6.938 -0.6659 -0.1711  0.3793
  393MOL0     C51790   3.419   9.320   6.866  0.1797 -0.2606 -0.1654
  393MOL0     O51791   3.668   9.344   6.700  1.0195 -0.2273 -0.6541
  393MOL0     C51792   3.874   9.535   6.648  0.2505  0.1969  0.1285
  393MOL0     C51793   3.967   9.639   6.619 -0.1270 -0.3864  0.6885
  393MOL0     N51794   4.581   9.793   6.565  0.3781 -0.1126 -0.3104
  393MOL0     N51795   4.699   9.737   6.558 -0.2951 -0.7885 -0.1920
  393MOL0     C51796   6.108   9.887   6.671 -0.9012 -0.4444 -0.1986
  393MOL0     C51797   6.231   9.913   6.617 -0.5414 -0.6739  0.1766
  393MOL0     C51798   6.601   9.944   6.344  0.1702  0.2385 -0.6922
  393MOL0     C51799   6.589  10.033   6.239 -0.3372  0.0464  0.5209
  393MOL0     C51800   6.707  10.075   6.168  0.4343 -1.1066 -0.6840
  393MOL0     C51801   6.829  10.011   6.194  0.1685  0.6388 -0.6083
  393MOL0     O51802   6.942  10.033   6.126 -0.8199  0.3643  0.5092
  393MOL0     C51803   6.981  10.164   6.086  0.5574  0.0268 -0.1747
  393MOL0     C51804   7.101  10.155   5.999  0.7050 -0.5448 -1.0401
  393MOL0     C51805   7.127  10.275   5.908  1.1585  0.9598 -0.2826
  393MOL0     C51806   7.183  10.386   5.986  0.4228  0.2066  0.1163
  393MOL0     C51807   7.124  10.517   5.952  0.0576  0.0186  0.1179
  393MOL0     C51808   7.072  10.622   5.913 -0.6916 -0.0693  0.1953
  393MOL0     C51809   6.837   9.913   6.291  0.9919  0.2953 -0.7419
  393MOL0     C51810   6.723   9.889   6.377  0.4469  0.4858  0.9576
  393MOL0     H51811   6.180   9.837   6.294 -0.0513 -1.0569  1.2085
  393MOL0     H51812   5.954   9.776   6.396 -1.4287 -1.2778  0.8967
  393MOL0     H51813   5.780   9.875   6.471  0.8968  0.7422 -0.1068
  393MOL0     H51814   5.768   9.975   6.612  1.0421  0.2502  0.1213
  393MOL0     H51815   5.668   9.764   6.741 -1.6329 -2.6318 -0.0231
  393MOL0     H51816   5.640   9.689   6.590 -1.6999 -0.1148  1.2074
  393MOL0     H51817   5.513   9.905   6.529  3.3276 -2.5039 -0.9072
  393MOL0     H51818   5.534   9.939   6.706 -0.0318 -0.6380 -0.0055
  393MOL0     H51819   5.416   9.678   6.603 -0.3232  0.0150  2.2306
  393MOL0     H51820   5.398   9.759   6.760  1.9910 -0.2590  1.0547
  393MOL0     H51821   5.259   9.769   6.496 -2.3725 -0.5172  0.2684
  393MOL0     H51822   5.258   9.922   6.589 -0.4500 -0.6111  1.1523
  393MOL0     H51823   5.161   9.805   6.774  0.3155 -3.7304  1.9744
  393MOL0     H51824   5.156   9.655   6.674  2.0372  0.4585 -0.0927
  393MOL0     H51825   5.009   9.902   6.568 -1.4700  0.9769  1.6548
  393MOL0     H51826   5.026   9.742   6.511  3.4003 -1.2279  0.5360
  393MOL0     H51827   4.921   9.816   6.792  0.6487 -0.2565 -0.4029
  393MOL0     H51828   4.901   9.659   6.711 -1.0980 -0.3336 -0.2623
  393MOL0     H51829   4.744   9.974   6.780  0.1647 -1.6231  0.2950
  393MOL0     H51830   4.423  10.042   6.641  2.1898  1.0801 -1.1638
  393MOL0     H51831   4.504  10.050   6.780 -1.3540  1.1409 -1.1274
  393MOL0     H51832   4.273   9.967   6.823 -0.2958  0.4795 -0.8356
  393MOL0     H51833   4.391   9.836   6.859 -0.9584 -2.6977 -1.6461
  393MOL0     H51834   4.345   9.742   6.619 -0.3607  1.0854 -0.6660
  393MOL0     H51835   4.233   9.720   6.752 -1.2833  1.8092  0.8959
  393MOL0     H51836   4.140   9.802   6.506 -1.0333  1.6075 -1.2036
  393MOL0     H51837   4.196   9.956   6.557 -0.4154 -0.2715 -1.5814
  393MOL0     H51838   3.833   9.892   6.793  0.8351  0.5486 -2.3043
  393MOL0     H51839   3.673   9.717   6.849  1.1456  4.6220  0.1036
  393MOL0     H51840   3.565   9.475   7.136  0.4708 -0.6637 -0.2155
  393MOL0     H51841   3.407   9.333   7.256  0.4615  0.1678 -0.0615
  393MOL0     H51842   3.266   8.983   7.087 -0.4698 -0.3376  2.2005
  393MOL0     H51843   3.135   9.045   6.996 -1.2034 -0.9499 -0.1215
  393MOL0     H51844   3.000   9.076   7.213 -0.2227  0.7615 -0.3436
  393MOL0     H51845   3.131   8.971   7.289 -0.7201 -1.1562 -0.5091
  393MOL0     H51846   3.097   8.789   7.159  0.1446 -2.1327 -0.5371
  393MOL0     H51847   2.976   8.867   7.051 -0.0488  2.5899  0.6369
  393MOL0     H51848   2.945   8.837   7.352  0.9310 -0.3621  0.3494
  393MOL0     H51849   2.824   8.898   7.248  0.0342 -0.3073  0.5935
  393MOL0     H51850   2.811   8.652   7.335  1.2634  3.4811  1.1378
  393MOL0     H51851   2.968   8.619   7.253 -0.0270 -0.9456 -0.2016
  393MOL0     H51852   2.783   8.536   7.117 -1.8128 -0.2967  3.3452
  393MOL0     H51853   2.869   8.668   7.032  0.1649  3.5427  0.4084
  393MOL0     H51854   2.703   8.823   7.071 -0.9721  0.9791 -0.6599
  393MOL0     H51855   2.634   8.677   7.001  1.5323  0.6679 -0.4243
  393MOL0     H51856   2.483   8.774   7.175 -0.9881 -0.2718  2.4863
  393MOL0     H51857   2.622   8.798   7.280  1.0029 -1.6064  0.7909
  393MOL0     H51858   3.259   9.181   6.876  1.8711 -3.8295  0.6645
  393MOL0     H51859   3.414   9.314   6.758  0.3144  0.1693 -0.1988
  393MOL0     H51860   3.884   9.443   6.591  1.1395 -0.1002  0.7449
  393MOL0     H51861   4.056   9.624   6.559  0.4485  3.5137  0.3267
  393MOL0     H51862   6.086   9.901   6.777 -0.7796 -2.3014  0.1109
  393MOL0     H51863   6.311   9.947   6.682  1.4334 -2.7997 -0.9910
  393MOL0     H51864   6.487  10.069   6.230 -1.3403 -2.6629  0.1357
  393MOL0     H51865   6.691  10.153   6.094 -1.5650 -0.0690  0.7563
  393MOL0     H51866   7.000  10.223   6.176 -0.4296 -0.3881  0.3119
  393MOL0     H51867   6.902  10.211   6.027  0.3337  0.3541  0.3794
  393MOL0     H51868   7.191  10.138   6.059  0.2611 -1.3805 -0.5866
  393MOL0     H51869   7.087  10.075   5.925 -1.4143  0.6300 -1.9893
  393MOL0     H51870   7.035  10.305   5.857 -1.0739  0.7295  3.2610
  393MOL0     H51871   7.193  10.228   5.833 -1.1295 -1.8527 -0.6948
  393MOL0     H51872   7.170  10.366   6.093  1.4709 -3.7746 -0.3312
  393MOL0     H51873   7.289  10.405   5.967  0.8498  0.6401  2.5616
  393MOL0     H51874   7.029  10.712   5.876 -1.3514  0.1057  1.3267
  393MOL0     H51875   6.930   9.858   6.302 -0.6846 -2.6861 -0.4170
  393MOL0     H51876   6.733   9.809   6.449  2.4133 -2.6610 -2.4234
  394MOL0     O51877   7.937   5.993   1.446  0.0777  0.0310  0.2409
  394MOL0     C51878   7.953   6.062   1.342 -0.5247  0.3937 -0.3276
  394MOL0     O51879   7.851   6.088   1.252 -0.4426 -0.0707 -0.2158
  394MOL0     C51880   7.717   6.063   1.278 -0.1056  0.1539 -0.5180
  394MOL0     C51881   7.623   6.097   1.182  0.1887  0.2955  0.4536
  394MOL0     C51882   7.485   6.066   1.204 -0.4558  0.6098  0.2082
  394MOL0     C51883   7.438   6.006   1.324  0.9359  0.2855  0.7209
  394MOL0     O51884   7.303   5.973   1.341 -0.2470 -0.3091  0.1045
  394MOL0     C51885   7.218   5.998   1.228 -0.6570  0.0217 -0.5825
  394MOL0     C51886   7.098   5.915   1.270 -0.0913  0.6041  0.9162
  394MOL0     C51887   7.005   5.896   1.150 -0.6016  0.6475  0.5646
  394MOL0     C51888   6.898   5.788   1.174 -0.1573  0.1375 -0.5086
  394MOL0     C51889   6.786   5.827   1.276  0.0314  0.0034  0.2574
  394MOL0     C51890   6.703   5.955   1.222 -0.1756  1.0020 -0.8590
  394MOL0     C51891   6.582   5.992   1.313  0.5492 -0.6578 -0.3583
  394MOL0     C51892   6.482   6.096   1.269  0.1969 -0.3304 -0.1279
  394MOL0     N51893   6.358   6.117   1.343  0.9419 -0.6752  0.4499
  394MOL0     C51894   6.352   6.104   1.478  0.7411  0.0423 -0.1210
  394MOL0     C51895   6.220   6.124   1.511  0.2933  0.1568 -0.7929
  394MOL0     C51896   6.146   6.112   1.643 -0.3416 -0.0094 -0.5783
  394MOL0     C51897   6.017   6.035   1.645  0.5858 -0.2820 -1.0514
  394MOL0     C51898   5.967   6.024   1.794  0.2637 -0.6422 -0.4517
  394MOL0     C51899   5.830   5.956   1.796 -0.7476  1.1671  0.7036
  394MOL0     O51900   5.837   5.815   1.748  0.3106 -0.3725  0.6389
  394MOL0     C51901   5.713   5.758   1.749  0.0263 -0.3501 -0.3026
  394MOL0     C51902   5.621   5.780   1.650 -0.6250 -0.2628  0.2584
  394MOL0     C51903   5.493   5.725   1.646  0.4108 -0.5743  0.3853
  394MOL0     C51904   5.456   5.627   1.739  0.9360 -0.0646  0.1422
  394MOL0     C51905   5.326   5.565   1.728  0.7914 -0.1949 -0.3163
  394MOL0     O51906   5.231   5.624   1.650  0.2686 -0.2980 -0.0528
  394MOL0     C51907   5.105   5.582   1.650 -0.1648  0.1501 -0.7782
  394MOL0     C51908   5.023   5.539   1.762 -0.3426 -0.6060 -0.1163
  394MOL0     C51909   4.887   5.511   1.738 -0.1415  0.1661 -0.4872
  394MOL0     C51910   4.827   5.519   1.610 -1.0272  0.4337  0.0635
  394MOL0     O51911   4.694   5.505   1.592  0.3275 -0.4804 -0.3134
  394MOL0     C51912   4.618   5.419   1.670  1.0461  0.8524 -0.5807
  394MOL0     C51913   4.470   5.433   1.618  0.2575  0.1675  0.1866
  394MOL0     C51914   4.393   5.567   1.664  0.3045  0.2175  0.6558
  394MOL0     C51915   4.243   5.540   1.642  0.5887  0.0292 -0.4424
  394MOL0     C51916   4.187   5.528   1.492  0.0507 -0.5966  0.0342
  394MOL0     C51917   4.032   5.522   1.499  0.1245  0.1963  0.5383
  394MOL0     C51918   3.964   5.508   1.362 -0.5307 -0.7664 -0.9310
  394MOL0     C51919   3.813   5.528   1.365 -0.1751 -0.3332  0.1527
  394MOL0    Cl51920   3.727   5.418   1.487 -0.1199  0.5415 -0.0625
  394MOL0     C51921   4.909   5.560   1.502  0.1549 -0.4086 -0.0848
  394MOL0     C51922   5.045   5.588   1.521 -0.2463  1.4817 -0.1660
  394MOL0     O51923   5.299   5.473   1.807  0.1626  0.2205 -0.3385
  394MOL0     C51924   5.543   5.600   1.840  0.1899  0.1592 -0.0115
  394MOL0     C51925   5.677   5.662   1.844 -0.8599 -0.0305  0.6545
  394MOL0     N51926   6.156   6.142   1.387  0.6853  0.1567 -0.2020
  394MOL0     N51927   6.246   6.152   1.285 -0.2431 -0.1240  0.2082
  394MOL0     C51928   7.532   5.982   1.421  0.6800 -0.3349 -0.5236
  394MOL0     C51929   7.667   6.013   1.402 -0.2376  0.5161  0.5294
  394MOL0     C51930   8.083   6.122   1.310 -0.3726 -0.8145 -0.1136
  394MOL0     C51931   8.121   6.176   1.184  0.0700  0.2906 -0.4879
  394MOL0     C51932   8.246   6.231   1.158  0.1038 -0.0310 -0.5428
  394MOL0     C51933   8.348   6.226   1.256 -0.1164  0.1497 -1.1662
  394MOL0     O51934   8.478   6.276   1.237 -0.6197 -1.2281 -0.4087
  394MOL0     C51935   8.490   6.371   1.131 -0.0346  0.9403  0.2006
  394MOL0     C51936   8.622   6.432   1.122  0.0767 -1.2765 -0.6064
  394MOL0     C51937   8.685   6.494   1.244  0.1867  0.2553 -1.2125
  394MOL0     C51938   8.591   6.584   1.319  0.2389  0.0998 -0.8667
  394MOL0     C51939   8.653   6.652   1.435  0.2605 -0.7492 -0.1269
  394MOL0     C51940   8.719   6.714   1.523  0.1203  0.2085  0.3253
  394MOL0     C51941   8.314   6.176   1.379 -0.1798  0.9775  0.1313
  394MOL0     C51942   8.181   6.127   1.409  0.0975 -0.4294 -0.9430
  394MOL0     H51943   7.664   6.141   1.091  0.9267 -0.1409  0.5656
  394MOL0     H51944   7.416   6.096   1.126 -0.9989 -0.3282  0.3183
  394MOL0     H51945   7.263   5.965   1.134 -1.7061 -1.3177 -0.6409
  394MOL0     H51946   7.189   6.100   1.203 -2.6359 -0.7523 -1.6568
  394MOL0     H51947   7.056   5.968   1.355  1.5266 -0.1081  2.2244
  394MOL0     H51948   7.114   5.815   1.313 -2.8694 -0.2093  0.2835
  394MOL0     H51949   7.061   5.858   1.064 -3.6862 -1.3822 -0.7654
  394MOL0     H51950   6.964   5.989   1.111 -2.3099  0.4829  1.8313
  394MOL0     H51951   6.850   5.773   1.076 -2.0729  0.9782  0.2366
  394MOL0     H51952   6.937   5.693   1.210 -0.8590 -0.5441 -1.4865
  394MOL0     H51953   6.832   5.855   1.372  1.4512 -0.6709 -0.2047
  394MOL0     H51954   6.721   5.744   1.306 -0.0816  0.5498  1.6074
  394MOL0     H51955   6.664   5.930   1.123  0.2799 -1.1289 -0.5538
  394MOL0     H51956   6.760   6.048   1.222  1.2175  0.5020  4.6432
  394MOL0     H51957   6.515   5.906   1.325 -0.0228 -0.5364 -2.3493
  394MOL0     H51958   6.623   6.031   1.406  0.1218  0.3922 -0.5944
  394MOL0     H51959   6.463   6.069   1.164  0.7763  0.3169 -0.4091
  394MOL0     H51960   6.526   6.196   1.271 -1.0282  0.2312  2.0461
  394MOL0     H51961   6.441   6.088   1.539  1.8596  0.1614 -1.6579
  394MOL0     H51962   6.128   6.211   1.685 -0.3421 -0.6309  0.9733
  394MOL0     H51963   6.210   6.058   1.715 -0.9560  1.6226  1.2647
  394MOL0     H51964   6.027   5.935   1.602  0.1324 -0.5034 -0.6412
  394MOL0     H51965   5.947   6.089   1.580 -2.6607 -0.9056  1.6804
  394MOL0     H51966   6.023   5.965   1.867 -2.7714 -1.6211  1.2293
  394MOL0     H51967   5.946   6.127   1.823 -0.4406 -0.6313 -0.9724
  394MOL0     H51968   5.761   6.016   1.736 -0.4156  3.6675  2.6619
  394MOL0     H51969   5.797   5.947   1.900  1.9564 -1.1374  1.5034
  394MOL0     H51970   5.665   5.838   1.569  2.7049 -3.6991 -0.6872
  394MOL0     H51971   5.433   5.746   1.558  0.4115 -0.7611  0.3379
  394MOL0     H51972   5.068   5.538   1.860  0.3356 -1.7556 -0.4192
  394MOL0     H51973   4.826   5.490   1.826 -0.7765  0.5672 -0.8293
  394MOL0     H51974   4.626   5.423   1.779 -2.9513 -2.5188  0.0961
  394MOL0     H51975   4.646   5.315   1.648  1.7931  1.3022 -1.8691
  394MOL0     H51976   4.414   5.348   1.658  0.2683 -0.5145 -1.1826
  394MOL0     H51977   4.474   5.427   1.509 -1.0219  0.7565  0.0936
  394MOL0     H51978   4.439   5.648   1.608 -0.4162  3.0720  3.8559
  394MOL0     H51979   4.408   5.601   1.767 -1.2770  1.0137  0.6629
  394MOL0     H51980   4.204   5.454   1.698 -1.6499  0.8239 -0.6711
  394MOL0     H51981   4.179   5.622   1.678 -0.6879 -1.3754  0.6136
  394MOL0     H51982   4.217   5.435   1.443  0.4059 -1.1986  1.3479
  394MOL0     H51983   4.221   5.612   1.430 -1.2954 -1.1110 -1.4790
  394MOL0     H51984   4.001   5.617   1.544  0.4676  0.5690  0.0004
  394MOL0     H51985   4.013   5.437   1.566  0.1265 -1.9911 -2.0644
  394MOL0     H51986   4.017   5.584   1.303  0.9270  0.4204  1.7204
  394MOL0     H51987   4.000   5.413   1.324 -1.7164 -1.5285 -0.2141
  394MOL0     H51988   3.772   5.514   1.265  3.2829  1.8681 -1.7678
  394MOL0     H51989   3.792   5.634   1.381  1.2235  0.3091 -1.8779
  394MOL0     H51990   4.855   5.576   1.410  0.0755  1.6026  0.2674
  394MOL0     H51991   5.102   5.608   1.431  0.6076  2.3074  0.5339
  394MOL0     H51992   5.523   5.526   1.917 -1.8366  0.9626  0.2927
  394MOL0     H51993   5.751   5.630   1.917 -1.3343  0.0968  1.2084
  394MOL0     H51994   7.496   5.934   1.511  0.2091  0.0492 -0.4965
  394MOL0     H51995   7.724   5.995   1.492  3.5461  1.9091 -1.3482
  394MOL0     H51996   8.051   6.175   1.101  0.3676  3.6416 -0.9545
  394MOL0     H51997   8.278   6.266   1.061 -1.2308 -1.7946 -1.6892
  394MOL0     H51998   8.419   6.454   1.126 -0.4393  0.5478 -0.8283
  394MOL0     H51999   8.481   6.311   1.041 -1.4261  1.7862 -0.2476
  394MOL0     H52000   8.695   6.361   1.082 -1.2420 -1.4704 -2.8117
  394MOL0     H52001   8.611   6.516   1.053 -0.8564 -0.0497  0.9678
  394MOL0     H52002   8.769   6.556   1.212 -0.5175  2.1089  0.3501
  394MOL0     H52003   8.714   6.410   1.308 -1.0644  0.5011 -0.2826
  394MOL0     H52004   8.549   6.663   1.255 -0.2448 -0.4599 -1.2549
  394MOL0     H52005   8.510   6.523   1.359 -0.8419  3.6537  3.0766
  394MOL0     H52006   8.763   6.784   1.591 -0.4389  0.8747  0.0220
  394MOL0     H52007   8.387   6.174   1.459  0.4111  0.8254 -0.4077
  394MOL0     H52008   8.162   6.082   1.506 -2.1370  2.3658  0.0549
  395MOL0     O52009   3.911   6.508   3.121 -0.5304 -0.1034 -0.0957
  395MOL0     C52010   3.987   6.552   3.038 -0.2126  0.1768  0.0694
  395MOL0     O52011   3.955   6.597   2.913 -0.2916 -0.6300 -0.2282
  395MOL0     C52012   3.831   6.571   2.867 -0.3961  0.3912 -0.5705
  395MOL0     C52013   3.804   6.445   2.803  0.3343 -0.2991  0.4097
  395MOL0     C52014   3.680   6.406   2.741  0.0140  0.3358  0.4125
  395MOL0     C52015   3.578   6.499   2.749 -0.4959 -0.1239  0.1618
  395MOL0     O52016   3.447   6.465   2.711  0.0497  0.2292 -0.6865
  395MOL0     C52017   3.421   6.368   2.613  0.3209 -0.0701  1.9068
  395MOL0     C52018   3.265   6.340   2.615  0.1318 -0.3525 -0.4136
  395MOL0     C52019   3.225   6.290   2.753  0.5142  0.0509 -0.4930
  395MOL0     C52020   3.074   6.287   2.785 -0.5744  0.1406  0.0302
  395MOL0     C52021   3.036   6.222   2.922  0.3141 -0.3724  0.0768
  395MOL0     C52022   3.065   6.077   2.914 -0.4593  0.4089 -0.0949
  395MOL0     C52023   3.023   5.999   3.045  0.3403  0.3726 -0.5208
  395MOL0     C52024   3.015   5.842   3.019 -0.2594  0.2754  0.8795
  395MOL0     N52025   2.897   5.804   2.936 -0.2079  0.0710  0.2688
  395MOL0     C52026   2.876   5.672   2.901  0.7091 -0.3609 -0.0756
  395MOL0     C52027   2.764   5.680   2.826  0.2601 -0.2257  0.0528
  395MOL0     C52028   2.704   5.557   2.768 -0.7647 -0.4535  0.6945
  395MOL0     C52029   2.576   5.527   2.829  0.2618  1.2251  0.6019
  395MOL0     C52030   2.510   5.405   2.747  0.3263 -0.5282  0.1864
  395MOL0     C52031   2.361   5.407   2.756  0.4389 -0.7478 -0.1385
  395MOL0     O52032   2.307   5.528   2.695  0.1992 -0.1908  0.4936
  395MOL0     C52033   2.195   5.590   2.758 -0.0965  0.1591 -0.0269
  395MOL0     C52034   2.207   5.656   2.874 -0.7539 -0.5958 -0.2410
  395MOL0     C52035   2.108   5.737   2.928 -0.6543  0.1657  0.0811
  395MOL0     C52036   1.989   5.761   2.863 -0.4348  0.6716 -0.0682
  395MOL0     C52037   1.874   5.832   2.918 -0.8801  0.0809  0.0949
  395MOL0     O52038   1.758   5.824   2.850 -0.0138 -0.8100  0.0094
  395MOL0     C52039   1.651   5.909   2.868  0.1601 -0.1365 -0.0837
  395MOL0     C52040   1.660   6.048   2.913 -0.0717  0.4366  0.2043
  395MOL0     C52041   1.553   6.138   2.914  0.0731  1.1492  0.7701
  395MOL0     C52042   1.430   6.085   2.867  0.2031 -0.4819  0.0706
  395MOL0     O52043   1.323   6.167   2.860 -0.0857  0.3191 -0.3131
  395MOL0     C52044   1.212   6.119   2.925  0.3007 -0.4066 -0.6591
  395MOL0     C52045   1.101   6.229   2.921  0.3652  0.1293 -0.8420
  395MOL0     C52046   0.974   6.171   2.983  0.0993  0.3034 -0.4031
  395MOL0     C52047   0.868   6.284   2.975  0.8035  0.7960  0.1762
  395MOL0     C52048   0.725   6.224   3.001  0.3776  0.0348  0.0810
  395MOL0     C52049   0.614   6.327   3.032 -0.6253 -0.2769  0.1032
  395MOL0     C52050   0.477   6.254   3.032  0.1025  0.6573 -0.8583
  395MOL0     C52051   0.362   6.342   3.054 -0.4361 -0.9251  0.6293
  395MOL0    Cl52052   0.224   6.251   2.972 -0.4858 -0.2512  0.6334
  395MOL0     C52053   1.419   5.955   2.827 -0.1763 -0.1524  1.1012
  395MOL0     C52054   1.523   5.865   2.832 -0.2335 -0.0069 -0.4694
  395MOL0     O52055   1.890   5.893   3.028 -0.4207  0.2228  0.4039
  395MOL0     C52056   1.969   5.683   2.745  0.0201  0.2211  0.5099
  395MOL0     C52057   2.070   5.604   2.688  0.9393 -0.2036 -0.7913
  395MOL0     N52058   2.728   5.811   2.793 -0.2686  0.1468 -0.8963
  395MOL0     N52059   2.813   5.881   2.860  0.2935  0.3320 -0.4505
  395MOL0     C52060   3.595   6.627   2.809 -0.2170  0.0610  1.1828
  395MOL0     C52061   3.722   6.664   2.869  0.6049  0.5349 -0.4590
  395MOL0     C52062   4.129   6.547   3.081 -1.4130  0.0674  0.4862
  395MOL0     C52063   4.166   6.491   3.202  0.0214 -0.5828  0.2239
  395MOL0     C52064   4.299   6.490   3.242  0.6068 -0.1552  0.2980
  395MOL0     C52065   4.392   6.547   3.159 -0.8024 -0.4929  0.3082
  395MOL0     O52066   4.522   6.554   3.179  0.3440  1.0252 -0.6666
  395MOL0     C52067   4.589   6.486   3.285 -0.0375 -0.2340  0.0395
  395MOL0     C52068   4.740   6.486   3.263  0.3598  1.2356 -0.1105
  395MOL0     C52069   4.768   6.442   3.118  0.9601  0.0072 -0.6171
  395MOL0     C52070   4.904   6.423   3.082  0.9511 -0.3613  0.3589
  395MOL0     C52071   4.970   6.304   3.141 -0.5104  1.3813 -0.4734
  395MOL0     C52072   5.025   6.204   3.188 -0.1989  0.1492  0.1978
  395MOL0     C52073   4.353   6.614   3.043 -0.8508 -0.3364 -0.2407
  395MOL0     C52074   4.226   6.606   2.997 -0.2643 -0.2791 -0.3837
  395MOL0     H52075   3.889   6.377   2.808  0.9034  0.4149  0.6733
  395MOL0     H52076   3.670   6.306   2.701 -0.8288  0.8565 -0.7309
  395MOL0     H52077   3.465   6.271   2.638 -1.2213 -2.1050 -2.2116
  395MOL0     H52078   3.449   6.413   2.517 -2.4202  1.7260  1.8534
  395MOL0     H52079   3.255   6.275   2.528  3.3228 -1.9947  0.3197
  395MOL0     H52080   3.215   6.430   2.576  1.1034 -1.0916 -3.6462
  395MOL0     H52081   3.271   6.358   2.825  1.2389  0.1792 -1.0684
  395MOL0     H52082   3.269   6.190   2.765  3.6167  1.4726  1.3116
  395MOL0     H52083   3.037   6.390   2.779  1.9799  1.1232 -0.2943
  395MOL0     H52084   3.039   6.239   2.693 -0.5455 -0.5765  0.3838
  395MOL0     H52085   2.928   6.228   2.935  0.0988 -2.6885 -0.2218
  395MOL0     H52086   3.086   6.272   3.006 -1.2412 -0.5019  1.1156
  395MOL0     H52087   3.174   6.066   2.912 -0.3479  0.8580  1.6490
  395MOL0     H52088   3.016   6.042   2.823 -2.3504 -0.1470  1.0670
  395MOL0     H52089   3.105   6.013   3.115 -0.1603  2.6631 -0.3361
  395MOL0     H52090   2.931   6.038   3.089 -1.1193 -1.0342 -2.1389
  395MOL0     H52091   3.003   5.788   3.113 -3.1244  0.5938  0.7730
  395MOL0     H52092   3.107   5.811   2.969  0.2649 -1.1606  2.5947
  395MOL0     H52093   2.929   5.582   2.930  1.4426 -0.0069 -0.2977
  395MOL0     H52094   2.763   5.471   2.801 -1.2588 -0.6296  1.1153
  395MOL0     H52095   2.708   5.581   2.661 -1.0631  0.3946  0.8611
  395MOL0     H52096   2.510   5.612   2.845 -1.9433 -0.6774  2.4029
  395MOL0     H52097   2.594   5.500   2.934  1.1116 -0.2148  0.1225
  395MOL0     H52098   2.527   5.408   2.639 -3.2064  0.6852 -0.4847
  395MOL0     H52099   2.549   5.312   2.789  3.9387  1.7189  2.3632
  395MOL0     H52100   2.326   5.404   2.859 -1.1225  1.5172 -0.5225
  395MOL0     H52101   2.331   5.315   2.706  1.7304 -0.5865 -1.2799
  395MOL0     H52102   2.300   5.647   2.930 -0.9697 -0.3220  0.1662
  395MOL0     H52103   2.129   5.776   3.027  0.2776 -2.1306  0.8399
  395MOL0     H52104   1.760   6.079   2.943  0.9812 -0.8241 -1.7817
  395MOL0     H52105   1.563   6.245   2.927  0.0649  1.2269  0.1699
  395MOL0     H52106   1.242   6.091   3.027 -2.0307 -1.4296 -0.1853
  395MOL0     H52107   1.170   6.031   2.875  2.6483  0.0372 -3.6838
  395MOL0     H52108   1.092   6.271   2.821  1.3807  0.5113 -0.7842
  395MOL0     H52109   1.144   6.312   2.977  0.8153  1.1751 -2.6675
  395MOL0     H52110   0.998   6.139   3.085 -0.0047 -0.9266 -0.7440
  395MOL0     H52111   0.941   6.088   2.920 -3.9880  2.4643 -1.4597
  395MOL0     H52112   0.890   6.344   3.065 -3.3763  0.6338  1.5489
  395MOL0     H52113   0.865   6.327   2.875 -1.8988 -2.2884 -1.2387
  395MOL0     H52114   0.726   6.146   3.077 -2.8447 -0.4576 -0.2315
  395MOL0     H52115   0.700   6.169   2.910 -0.4649 -0.3147  0.5157
  395MOL0     H52116   0.618   6.397   2.948  0.4578 -0.4922 -0.0390
  395MOL0     H52117   0.634   6.385   3.122  2.3667 -0.2117 -0.4802
  395MOL0     H52118   0.467   6.208   2.933  1.8843 -1.8103 -0.0198
  395MOL0     H52119   0.463   6.183   3.114 -0.4316  2.9689  1.1463
  395MOL0     H52120   0.371   6.441   3.009  0.1833 -1.7438 -1.1014
  395MOL0     H52121   0.344   6.355   3.162 -0.8001 -1.3737  0.6266
  395MOL0     H52122   1.329   5.921   2.775  1.0151  0.6769 -1.7140
  395MOL0     H52123   1.504   5.761   2.809 -1.3267 -0.3119  1.6277
  395MOL0     H52124   1.877   5.689   2.687  0.0718 -1.4972  0.2120
  395MOL0     H52125   2.071   5.563   2.587  2.3332  0.8369 -1.2360
  395MOL0     H52126   3.509   6.691   2.823 -1.1027 -0.8263 -0.0484
  395MOL0     H52127   3.730   6.765   2.909 -2.2244  1.3157 -1.6164
  395MOL0     H52128   4.102   6.448   3.279 -0.3252 -0.6264 -0.0821
  395MOL0     H52129   4.323   6.451   3.341 -3.3760 -3.4859  0.2315
  395MOL0     H52130   4.554   6.383   3.292  2.8606 -1.1762  2.4036
  395MOL0     H52131   4.582   6.539   3.381  2.0663  1.7283 -0.7974
  395MOL0     H52132   4.792   6.581   3.274  3.3357 -0.0240 -2.0811
  395MOL0     H52133   4.787   6.412   3.329 -0.9751 -1.1087 -1.6475
  395MOL0     H52134   4.729   6.525   3.059 -2.1794  1.6011  3.2938
  395MOL0     H52135   4.713   6.348   3.107  3.6365 -1.7548  0.0595
  395MOL0     H52136   4.911   6.415   2.973 -1.4437  0.2640  0.1067
  395MOL0     H52137   4.959   6.515   3.106  0.5275 -0.1170  0.3981
  395MOL0     H52138   5.067   6.116   3.232 -2.1266 -0.4905  0.8723
  395MOL0     H52139   4.432   6.668   2.991 -0.3648 -0.4062  0.4036
  395MOL0     H52140   4.207   6.650   2.899  0.7617  1.8403  0.3187
  396MOL0     O52141   1.805   3.085  11.124 -0.4080  0.6235 -0.4372
  396MOL0     C52142   1.811   3.056  11.008  0.0339 -0.2492  0.4711
  396MOL0     O52143   1.703   3.044  10.920  0.0070  0.3221 -0.2328
  396MOL0     C52144   1.592   3.114  10.961  0.1672  0.2323 -0.4719
  396MOL0     C52145   1.535   3.205  10.879  0.0315  0.0930 -0.3372
  396MOL0     C52146   1.407   3.267  10.913 -0.3116 -0.1693 -0.1968
  396MOL0     C52147   1.331   3.232  11.026  0.2029  0.0210 -0.8462
  396MOL0     O52148   1.201   3.283  11.047  0.6139  0.0440 -0.3986
  396MOL0     C52149   1.166   3.409  10.992  0.5970  0.2470 -0.0937
  396MOL0     C52150   1.036   3.443  11.066  0.5506  0.0531 -0.6227
  396MOL0     C52151   0.967   3.568  11.007  0.1824  0.3402  0.5469
  396MOL0     C52152   0.824   3.594  11.061 -0.3875 -0.1019 -0.1147
  396MOL0     C52153   0.776   3.740  11.048  0.6789 -0.5622  0.4069
  396MOL0     C52154   0.629   3.749  11.062  0.2353 -0.0570  0.9003
  396MOL0     C52155   0.588   3.895  11.078 -0.5155  0.4740 -0.6006
  396MOL0     C52156   0.443   3.923  11.057 -0.5141  0.3420  0.6266
  396MOL0     N52157   0.411   4.060  11.078 -0.5098  0.0323  0.0836
  396MOL0     C52158   0.385   4.159  10.986  0.0698  0.0203  0.2003
  396MOL0     C52159   0.400   4.276  11.054 -0.2669 -0.0551 -0.0322
  396MOL0     C52160   0.417   4.413  10.997 -0.6426 -0.3270  0.6915
  396MOL0     C52161   0.292   4.463  10.930 -0.7078  0.4704 -1.3395
  396MOL0     C52162   0.202   4.544  11.025  0.3456 -0.1366  0.3623
  396MOL0     C52163   0.155   4.481  11.154 -0.0676  0.3156 -0.2422
  396MOL0     O52164   0.053   4.565  11.213 -0.0311 -0.0627 -0.1619
  396MOL0     C52165  -0.041   4.525  11.294 -0.6328 -0.6231  0.0826
  396MOL0     C52166  -0.051   4.403  11.372  0.1394 -1.0054 -0.1403
  396MOL0     C52167  -0.166   4.368  11.441  0.4547 -0.0493 -0.7248
  396MOL0     C52168  -0.279   4.460  11.443 -0.8456  0.3670  0.3602
  396MOL0     C52169  -0.412   4.428  11.503  0.3267  0.1405  0.4042
  396MOL0     O52170  -0.520   4.520  11.473  0.2381  0.0696 -0.6137
  396MOL0     C52171  -0.647   4.479  11.451 -0.4376 -0.8004 -0.1894
  396MOL0     C52172  -0.690   4.352  11.410  0.2183  0.5895 -0.1357
  396MOL0     C52173  -0.822   4.327  11.371  0.6350  0.1355  0.0914
  396MOL0     C52174  -0.913   4.435  11.358  0.2052  1.0711  0.8813
  396MOL0     O52175  -1.047   4.425  11.322 -0.6649 -0.2281  0.2787
  396MOL0     C52176  -1.105   4.289  11.336  0.2541  0.4183  0.1473
  396MOL0     C52177  -1.252   4.308  11.289  0.4380 -0.2719  0.0414
  396MOL0     C52178  -1.334   4.380  11.392 -0.4047  0.0192 -0.5103
  396MOL0     C52179  -1.472   4.393  11.334  0.5373 -0.2992 -0.7486
  396MOL0     C52180  -1.560   4.491  11.416 -0.1889 -0.4209 -0.4049
  396MOL0     C52181  -1.677   4.545  11.348  0.1219 -0.9022  0.3970
  396MOL0     C52182  -1.779   4.433  11.302  0.0235 -0.1209  0.3506
  396MOL0     C52183  -1.912   4.500  11.260 -0.7127 -0.1336 -0.0654
  396MOL0    Cl52184  -2.020   4.512  11.391  0.5311 -0.0533 -0.1299
  396MOL0     C52185  -0.859   4.558  11.388  0.2000  0.3160  0.3454
  396MOL0     C52186  -0.731   4.584  11.433  0.0601  0.0094 -0.0797
  396MOL0     O52187  -0.422   4.317  11.558  0.1496 -0.6364  0.3680
  396MOL0     C52188  -0.261   4.584  11.380  0.0397  0.1440  0.7093
  396MOL0     C52189  -0.146   4.618  11.305  0.5340 -0.4568 -0.9265
  396MOL0     N52190   0.434   4.245  11.185 -0.1755  0.0520 -0.3510
  396MOL0     N52191   0.437   4.117  11.198 -0.6380  0.9024  0.1588
  396MOL0     C52192   1.388   3.134  11.109  0.1293  0.0386  0.0152
  396MOL0     C52193   1.523   3.084  11.082 -0.0693 -0.7095 -0.4907
  396MOL0     C52194   1.943   3.009  10.962  0.5559 -0.1626 -0.4529
  396MOL0     C52195   2.058   3.046  11.038 -0.7872 -0.0927  0.3274
  396MOL0     C52196   2.191   3.016  10.990  0.5600  0.5732 -0.6766
  396MOL0     C52197   2.197   2.945  10.871 -0.0003  0.2137  0.7168
  396MOL0     O52198   2.327   2.935  10.815 -0.0122 -0.7663 -0.0413
  396MOL0     C52199   2.343   2.864  10.698  1.1285  1.0378 -0.2199
  396MOL0     C52200   2.486   2.831  10.672 -0.0696 -0.0931 -0.3776
  396MOL0     C52201   2.565   2.780  10.795  0.6356 -0.0455  0.0374
  396MOL0     C52202   2.688   2.692  10.772 -0.5114  0.5895  0.3003
  396MOL0     C52203   2.723   2.633  10.904 -0.9240  0.5080 -0.2244
  396MOL0     C52204   2.759   2.579  11.007  0.6517 -0.3895 -0.3481
  396MOL0     C52205   2.083   2.903  10.800 -0.3464 -0.5194 -0.7983
  396MOL0     C52206   1.957   2.938  10.838 -0.6867 -1.4136  0.5050
  396MOL0     H52207   1.575   3.222  10.780 -2.3109  2.3807 -1.0245
  396MOL0     H52208   1.362   3.341  10.848  0.0239 -0.2341 -0.5085
  396MOL0     H52209   1.144   3.399  10.885 -3.4861 -0.5220  0.6526
  396MOL0     H52210   1.238   3.488  11.013 -0.3408  1.2278 -0.4636
  396MOL0     H52211   1.060   3.454  11.172 -1.1400 -3.0529  0.2365
  396MOL0     H52212   0.973   3.353  11.056  1.3213 -0.4303 -1.2096
  396MOL0     H52213   0.959   3.564  10.898 -3.0939  0.7699  0.6752
  396MOL0     H52214   1.028   3.657  11.025  2.0864 -0.5311 -1.1304
  396MOL0     H52215   0.743   3.534  11.018  0.1570  0.0896 -1.4280
  396MOL0     H52216   0.832   3.571  11.168  2.2064 -0.6437 -0.3473
  396MOL0     H52217   0.810   3.783  10.953 -0.2608 -2.3353 -0.7881
  396MOL0     H52218   0.822   3.794  11.130 -0.1378  0.2052  0.3846
  396MOL0     H52219   0.590   3.699  11.152  0.5618 -0.4030  0.8538
  396MOL0     H52220   0.589   3.693  10.977  3.1987 -3.9664  1.8086
  396MOL0     H52221   0.612   3.923  11.181 -0.1195  1.0154 -0.8386
  396MOL0     H52222   0.639   3.960  11.006 -1.9805  0.8067 -1.3749
  396MOL0     H52223   0.382   3.859  11.121  1.1265 -3.1319 -1.0239
  396MOL0     H52224   0.420   3.898  10.953  0.7108  1.3741  0.0762
  396MOL0     H52225   0.378   4.151  10.878  1.0920  1.8208 -0.0246
  396MOL0     H52226   0.495   4.412  10.919 -0.7162  1.1561  0.5604
  396MOL0     H52227   0.444   4.495  11.064  2.8425  1.4397 -2.4576
  396MOL0     H52228   0.237   4.376  10.893 -0.6512 -1.3416  2.3311
  396MOL0     H52229   0.322   4.528  10.848 -2.6786  2.4104 -0.6300
  396MOL0     H52230   0.257   4.632  11.057  0.3267 -0.6958  2.0223
  396MOL0     H52231   0.117   4.571  10.961 -1.7747 -2.0850  2.1734
  396MOL0     H52232   0.241   4.487  11.222 -0.2566 -0.0094  0.0321
  396MOL0     H52233   0.127   4.376  11.139 -0.6753  0.5659 -0.9068
  396MOL0     H52234   0.034   4.336  11.375  1.4468  0.4671 -1.7755
  396MOL0     H52235  -0.175   4.279  11.502 -1.2789  0.8067  0.3754
  396MOL0     H52236  -0.622   4.268  11.406 -3.5603 -2.6827 -1.5494
  396MOL0     H52237  -0.866   4.229  11.358 -2.2062  0.9367  2.4022
  396MOL0     H52238  -1.103   4.246  11.436 -0.7111  0.7334  0.3147
  396MOL0     H52239  -1.054   4.223  11.266  1.0057 -0.9700  1.9357
  396MOL0     H52240  -1.290   4.206  11.275 -0.8767  0.3024 -0.6700
  396MOL0     H52241  -1.250   4.373  11.201 -0.5244  1.1027  0.9891
  396MOL0     H52242  -1.292   4.480  11.402  0.5444 -0.3188 -0.9607
  396MOL0     H52243  -1.345   4.318  11.482  1.9392 -1.2378 -1.0114
  396MOL0     H52244  -1.469   4.425  11.229  2.8822 -0.6584 -0.8451
  396MOL0     H52245  -1.524   4.297  11.332 -2.1248  1.0766 -1.1557
  396MOL0     H52246  -1.495   4.577  11.436  0.3675 -1.3414  2.1220
  396MOL0     H52247  -1.589   4.453  11.514 -0.1062  3.3477  1.2258
  396MOL0     H52248  -1.651   4.610  11.264 -1.8125  1.9491  1.8066
  396MOL0     H52249  -1.724   4.612  11.421  0.5386 -0.2754  0.0906
  396MOL0     H52250  -1.735   4.390  11.212  0.8241  0.2976  0.5303
  396MOL0     H52251  -1.795   4.355  11.377  0.4194 -0.6421 -0.0937
  396MOL0     H52252  -1.957   4.435  11.184 -2.6202 -0.7215  1.4895
  396MOL0     H52253  -1.895   4.600  11.219 -0.6979  0.0100  0.2905
  396MOL0     H52254  -0.929   4.642  11.386 -2.3282 -1.6424  0.5805
  396MOL0     H52255  -0.705   4.680  11.477 -0.3782 -0.3301  0.9452
  396MOL0     H52256  -0.352   4.642  11.386 -1.2646 -1.7538  0.0373
  396MOL0     H52257  -0.124   4.713  11.258  2.6005 -0.4005  0.0441
  396MOL0     H52258   1.335   3.092  11.194  0.2230  2.4766  1.3426
  396MOL0     H52259   1.554   2.998  11.141  2.3208  1.5295  1.7679
  396MOL0     H52260   2.058   3.111  11.126 -1.0316  0.7124 -0.2541
  396MOL0     H52261   2.279   3.038  11.050 -1.2445 -0.5924  2.6726
  396MOL0     H52262   2.296   2.919  10.616 -1.4085  0.6260  0.8784
  396MOL0     H52263   2.303   2.763  10.695  3.6224 -0.1368  1.7840
  396MOL0     H52264   2.483   2.756  10.592 -0.1520  0.9631 -1.3877
  396MOL0     H52265   2.532   2.918  10.626  0.3449 -0.6841 -1.1115
  396MOL0     H52266   2.490   2.723  10.850 -1.1147  0.7558 -1.4548
  396MOL0     H52267   2.601   2.865  10.855  0.8171 -0.6305  0.7747
  396MOL0     H52268   2.660   2.612  10.704 -0.0703 -1.1394  2.0754
  396MOL0     H52269   2.761   2.758  10.723  2.2638 -3.5025 -1.5800
  396MOL0     H52270   2.786   2.552  11.107 -0.5481  1.2679  0.4538
  396MOL0     H52271   2.092   2.850  10.706 -0.4420 -2.5082  0.2675
  396MOL0     H52272   1.865   2.912  10.786 -0.3352 -2.1195  0.2145
  397MOL0     O52273   9.135   9.202   0.825 -0.9016 -0.6656  0.6302
  397MOL0     C52274   9.176   9.256   0.927  0.5534 -1.0142 -0.1124
  397MOL0     O52275   9.111   9.268   1.046  0.1083 -0.1101 -0.1973
  397MOL0     C52276   8.977   9.248   1.045  0.1647 -0.4430  0.1833
  397MOL0     C52277   8.889   9.346   0.988  0.0350  0.1803 -0.1228
  397MOL0     C52278   8.750   9.322   0.994 -0.6325 -0.4649 -0.3177
  397MOL0     C52279   8.692   9.208   1.065  0.1715 -0.6090 -0.3408
  397MOL0     O52280   8.565   9.164   1.068  0.1719  0.2181 -0.3673
  397MOL0     C52281   8.463   9.254   1.019 -0.0197 -0.4714 -0.5308
  397MOL0     C52282   8.389   9.204   0.900  0.6848  0.5674  1.1067
  397MOL0     C52283   8.322   9.322   0.827  0.0610  0.6915  0.8793
  397MOL0     C52284   8.222   9.257   0.726 -0.0310 -0.9506  0.3336
  397MOL0     C52285   8.166   9.354   0.626 -0.9121 -0.1646 -0.6674
  397MOL0     C52286   8.038   9.296   0.572  0.7470 -0.2514  0.3975
  397MOL0     C52287   8.061   9.163   0.494 -0.9883 -0.3266  0.3364
  397MOL0     C52288   7.930   9.122   0.432  0.3127 -0.0890 -0.1513
  397MOL0     N52289   7.941   9.000   0.362  0.2466  0.3030 -0.0127
  397MOL0     C52290   8.005   8.985   0.246  0.0651 -0.4247 -0.5786
  397MOL0     C52291   7.977   8.862   0.214 -0.5925  1.3552  0.5645
  397MOL0     C52292   8.019   8.798   0.079  0.8958 -0.1485  0.5409
  397MOL0     C52293   7.888   8.797  -0.012 -1.0111  0.7323 -0.0129
  397MOL0     C52294   7.863   8.928  -0.074  0.4388  0.1127  0.0077
  397MOL0     C52295   7.740   8.932  -0.176  0.0726  0.1456 -0.0017
  397MOL0     O52296   7.616   8.890  -0.108 -0.2572 -0.5737 -0.6597
  397MOL0     C52297   7.497   8.945  -0.154  0.2077  0.3055 -0.5840
  397MOL0     C52298   7.478   8.972  -0.287 -1.2826 -0.5833  0.6056
  397MOL0     C52299   7.356   9.026  -0.320 -0.3042 -0.8338  0.1989
  397MOL0     C52300   7.242   9.045  -0.233 -0.3456  0.1345  1.0573
  397MOL0     C52301   7.109   9.095  -0.284  0.3580  0.6799 -0.1415
  397MOL0     O52302   7.005   9.117  -0.192 -0.4346 -0.6187  0.5497
  397MOL0     C52303   6.893   9.171  -0.247  0.3119 -0.4045  0.6319
  397MOL0     C52304   6.876   9.306  -0.282  0.1781  0.8573 -0.4445
  397MOL0     C52305   6.753   9.360  -0.336 -0.3257 -0.6995  0.4339
  397MOL0     C52306   6.642   9.275  -0.345 -0.5995  0.3038  0.3088
  397MOL0     O52307   6.513   9.315  -0.386 -0.3843  0.9336 -0.6594
  397MOL0     C52308   6.501   9.449  -0.427 -0.9576  0.0858 -0.2492
  397MOL0     C52309   6.370   9.470  -0.506 -0.6833  0.4313  0.4227
  397MOL0     C52310   6.370   9.593  -0.604  0.2858 -0.3781  0.4894
  397MOL0     C52311   6.259   9.568  -0.715  0.9420 -0.5740 -0.3876
  397MOL0     C52312   6.231   9.698  -0.804  0.5590 -0.2217 -0.1225
  397MOL0     C52313   6.106   9.683  -0.898  0.0428 -0.1269 -0.2524
  397MOL0     C52314   6.062   9.824  -0.941  0.2320 -0.1842 -0.5486
  397MOL0     C52315   5.942   9.807  -1.028 -0.7421  0.1235  0.2132
  397MOL0    Cl52316   5.805   9.721  -0.943 -0.2798  0.0839 -0.0695
  397MOL0     C52317   6.654   9.141  -0.293 -0.5337  0.0607 -0.0101
  397MOL0     C52318   6.779   9.090  -0.253  0.2272 -0.0076 -0.1714
  397MOL0     O52319   7.101   9.125  -0.403 -0.4453 -0.3038 -0.7121
  397MOL0     C52320   7.254   8.979  -0.107  0.0132 -0.1432  0.2020
  397MOL0     C52321   7.379   8.934  -0.064 -0.3208  0.0314  0.4186
  397MOL0     N52322   7.899   8.803   0.308  0.6106  0.0462  0.1593
  397MOL0     N52323   7.866   8.897   0.395  0.2931 -0.3880  0.5940
  397MOL0     C52324   8.786   9.121   1.120  0.3500 -0.2425  0.5346
  397MOL0     C52325   8.921   9.145   1.120  0.1448  1.1655 -0.1214
  397MOL0     C52326   9.308   9.325   0.926 -0.3059  0.2462  0.0494
  397MOL0     C52327   9.354   9.403   1.032 -0.6359 -0.0869  0.5650
  397MOL0     C52328   9.474   9.461   1.016 -0.2658 -0.3814  0.2057
  397MOL0     C52329   9.560   9.454   0.909  0.6180  0.8838  0.3124
  397MOL0     O52330   9.671   9.531   0.914 -0.0508  0.6527 -0.5229
  397MOL0     C52331   9.740   9.569   0.798  0.1631  0.0989  0.6604
  397MOL0     C52332   9.845   9.671   0.837  0.0268  0.3121 -0.7790
  397MOL0     C52333   9.888   9.757   0.723  0.2593  0.1935  0.0283
  397MOL0     C52334  10.026   9.824   0.742 -0.8629 -0.2327  1.0260
  397MOL0     C52335  10.127   9.728   0.744  0.4753  1.4366 -0.1076
  397MOL0     C52336  10.208   9.640   0.737  0.1136  0.7444 -0.3163
  397MOL0     C52337   9.514   9.381   0.796  0.0113 -0.0147  0.0101
  397MOL0     C52338   9.390   9.317   0.810 -0.4660  0.5890  0.1499
  397MOL0     H52339   8.926   9.437   0.942  2.5981 -1.0980 -0.7354
  397MOL0     H52340   8.686   9.380   0.928 -1.5674 -1.8553 -0.6545
  397MOL0     H52341   8.498   9.356   1.001  2.3633 -0.5426  2.7609
  397MOL0     H52342   8.392   9.250   1.101  0.4566  0.0444 -0.0862
  397MOL0     H52343   8.326   9.117   0.922 -0.0100  1.3025  2.0906
  397MOL0     H52344   8.462   9.169   0.826 -0.4043  1.0579 -0.2481
  397MOL0     H52345   8.404   9.377   0.781  1.0028 -2.7242 -2.0183
  397MOL0     H52346   8.271   9.392   0.894  1.9073  0.9133  2.1144
  397MOL0     H52347   8.279   9.176   0.678  0.5611 -0.5138  0.2958
  397MOL0     H52348   8.139   9.215   0.784 -1.2603  0.6092 -0.2315
  397MOL0     H52349   8.246   9.375   0.554  1.5104 -1.0133  1.5865
  397MOL0     H52350   8.153   9.446   0.683 -1.3630 -0.6115 -0.0445
  397MOL0     H52351   7.978   9.366   0.512  2.0022 -0.6413 -1.4212
  397MOL0     H52352   7.976   9.267   0.657  0.5101 -0.3918  0.1756
  397MOL0     H52353   8.136   9.179   0.416 -1.4722  1.2607  0.1623
  397MOL0     H52354   8.094   9.084   0.561  0.1344 -0.3619 -0.2408
  397MOL0     H52355   7.908   9.197   0.356 -2.1763 -0.9998 -0.4230
  397MOL0     H52356   7.851   9.099   0.505  1.7074 -2.4243  0.7413
  397MOL0     H52357   8.077   9.048   0.196 -0.6357 -0.4066 -1.6021
  397MOL0     H52358   8.051   8.697   0.106 -1.7258 -1.0923  0.4538
  397MOL0     H52359   8.107   8.848   0.037  2.1920 -2.2525  0.5941
  397MOL0     H52360   7.803   8.755   0.043 -0.3315  1.5668  1.7279
  397MOL0     H52361   7.906   8.722  -0.091  0.1058  0.6379  0.3094
  397MOL0     H52362   7.830   8.973   0.021 -1.4653  0.0559 -0.5766
  397MOL0     H52363   7.946   8.988  -0.112 -0.3570 -1.2265 -4.3330
  397MOL0     H52364   7.766   8.864  -0.258  1.7316 -1.2164  1.5807
  397MOL0     H52365   7.747   9.032  -0.220  3.4994 -0.7468 -1.8888
  397MOL0     H52366   7.551   8.956  -0.365 -2.2954 -2.8949  0.0479
  397MOL0     H52367   7.336   9.040  -0.426  0.7575  0.8485  0.1903
  397MOL0     H52368   6.955   9.380  -0.271  1.9481 -0.8193 -1.2516
  397MOL0     H52369   6.740   9.466  -0.351  1.5823  0.0086  3.0662
  397MOL0     H52370   6.578   9.466  -0.502 -1.2473 -0.7207 -0.7473
  397MOL0     H52371   6.502   9.514  -0.339 -1.7767  1.5540 -1.2870
  397MOL0     H52372   6.292   9.470  -0.430  1.0048  1.2442  2.2280
  397MOL0     H52373   6.355   9.376  -0.560 -2.8480  0.9342  0.0825
  397MOL0     H52374   6.464   9.596  -0.660 -0.4053 -2.5014 -0.9042
  397MOL0     H52375   6.353   9.683  -0.544 -3.2701 -0.3734 -0.2624
  397MOL0     H52376   6.293   9.489  -0.782 -0.6773 -0.9450 -0.8133
  397MOL0     H52377   6.167   9.546  -0.660  1.0979  0.0977  0.1679
  397MOL0     H52378   6.317   9.722  -0.868  1.9677  3.4053  2.7636
  397MOL0     H52379   6.214   9.787  -0.742 -1.3236  0.6336 -1.7580
  397MOL0     H52380   6.029   9.638  -0.835  0.4015  2.7216  2.4755
  397MOL0     H52381   6.112   9.611  -0.980 -0.8832  1.8786 -2.1762
  397MOL0     H52382   6.031   9.883  -0.855 -2.9746 -2.1626 -0.1659
  397MOL0     H52383   6.145   9.878  -0.988 -0.4862  0.1067 -1.5218
  397MOL0     H52384   5.961   9.752  -1.121  3.4459 -0.3462  1.1416
  397MOL0     H52385   5.911   9.908  -1.057 -0.9960  0.4193  1.4348
  397MOL0     H52386   6.572   9.074  -0.314  0.0576 -0.4667 -0.7125
  397MOL0     H52387   6.788   8.986  -0.222 -0.2498  0.1430  0.5197
  397MOL0     H52388   7.160   8.963  -0.054 -0.5574 -0.0108 -0.7443
  397MOL0     H52389   7.388   8.890   0.035 -0.4437 -0.3019  0.2823
  397MOL0     H52390   8.747   9.031   1.166 -2.1957 -0.1423 -1.2244
  397MOL0     H52391   8.979   9.067   1.169 -2.1383 -1.9840 -1.9978
  397MOL0     H52392   9.315   9.419   1.132  0.1249 -0.9899  1.0225
  397MOL0     H52393   9.507   9.520   1.101 -0.0892 -2.7633  1.9126
  397MOL0     H52394   9.681   9.624   0.724  0.8008 -0.8118 -0.5616
  397MOL0     H52395   9.785   9.483   0.749 -1.6620 -2.6289  3.3991
  397MOL0     H52396   9.795   9.735   0.910 -1.2810 -0.2348 -1.1710
  397MOL0     H52397   9.926   9.616   0.888  1.4596  2.8067 -0.2175
  397MOL0     H52398   9.806   9.829   0.717 -1.3287 -1.6462 -3.1346
  397MOL0     H52399   9.903   9.688   0.640  1.4457 -0.4924  0.7846
  397MOL0     H52400  10.046   9.888   0.656 -1.5130 -1.0310  0.2625
  397MOL0     H52401  10.025   9.882   0.835 -1.2417  1.8910 -0.2358
  397MOL0     H52402  10.289   9.571   0.731 -0.9695 -0.6362  0.3319
  397MOL0     H52403   9.581   9.377   0.711 -1.9599 -3.6397 -1.5937
  397MOL0     H52404   9.342   9.267   0.727 -1.4279  2.0669 -0.2380
  398MOL0     O52405   7.449   3.213   6.459  0.1403  0.3549 -0.4057
  398MOL0     C52406   7.555   3.188   6.529  0.2069  0.1217  0.6844
  398MOL0     O52407   7.558   3.130   6.654 -0.7181 -0.0493 -0.5796
  398MOL0     C52408   7.441   3.072   6.710 -0.5335  0.1477 -0.1812
  398MOL0     C52409   7.467   2.962   6.798  0.2135  0.8114  0.5944
  398MOL0     C52410   7.359   2.899   6.860  0.3849  0.3080  0.0344
  398MOL0     C52411   7.223   2.937   6.836  0.5356 -0.9031  0.6467
  398MOL0     O52412   7.112   2.893   6.901 -0.1442  0.6900  0.6494
  398MOL0     C52413   7.122   2.804   7.009  0.1510 -0.1813 -0.1213
  398MOL0     C52414   6.979   2.757   7.055  0.6042 -1.1393 -0.4250
  398MOL0     C52415   6.890   2.697   6.949  0.0528 -0.3672 -0.5545
  398MOL0     C52416   6.800   2.800   6.882  0.4335  1.5476 -0.1550
  398MOL0     C52417   6.704   2.715   6.794  0.2523  0.1763  0.7919
  398MOL0     C52418   6.601   2.810   6.724 -0.6670 -0.3377 -0.7168
  398MOL0     C52419   6.491   2.740   6.640 -0.2334  0.4322 -0.4859
  398MOL0     C52420   6.408   2.648   6.727  0.8764 -0.3649 -0.1706
  398MOL0     N52421   6.315   2.567   6.650 -0.0417 -0.4458 -0.1834
  398MOL0     C52422   6.342   2.472   6.560  0.3714 -0.6042 -0.1779
  398MOL0     C52423   6.220   2.432   6.516  0.0473  0.4340  0.2118
  398MOL0     C52424   6.203   2.344   6.399 -0.0876 -1.8370 -0.1518
  398MOL0     C52425   6.224   2.438   6.270 -0.0401 -0.0172  0.4601
  398MOL0     C52426   6.257   2.357   6.146 -0.0382  0.3142 -0.1349
  398MOL0     C52427   6.166   2.244   6.117  0.2865 -0.6659 -0.2593
  398MOL0     O52428   6.027   2.288   6.112  0.0413 -0.5592  0.1101
  398MOL0     C52429   5.926   2.193   6.127  0.0615  0.2368 -0.0532
  398MOL0     C52430   5.822   2.229   6.211  0.1830  0.0653  1.2727
  398MOL0     C52431   5.702   2.158   6.209 -0.1233 -0.1507  0.3558
  398MOL0     C52432   5.694   2.041   6.126 -0.8888 -0.4400 -0.5104
  398MOL0     C52433   5.566   1.963   6.112  0.0082  0.2450  0.0676
  398MOL0     O52434   5.458   2.028   6.174  0.5087  0.0041  0.1657
  398MOL0     C52435   5.332   1.977   6.180  0.7186  0.1598 -0.7721
  398MOL0     C52436   5.253   2.016   6.288 -0.5646 -0.3374 -0.9015
  398MOL0     C52437   5.124   1.968   6.320 -0.9126  0.4004  0.1410
  398MOL0     C52438   5.054   1.887   6.233  0.2187  0.6509  0.0634
  398MOL0     O52439   4.927   1.835   6.254  0.6493  0.8917 -0.3867
  398MOL0     C52440   4.847   1.890   6.354 -0.9644 -0.2010 -0.0365
  398MOL0     C52441   4.704   1.871   6.292  0.0357  1.2174  0.3845
  398MOL0     C52442   4.634   1.735   6.329 -0.3403  0.5479 -0.1038
  398MOL0     C52443   4.499   1.738   6.262  0.2464  0.0122 -0.1425
  398MOL0     C52444   4.444   1.599   6.282  0.1517 -0.4411  0.8566
  398MOL0     C52445   4.294   1.605   6.246  0.3537 -0.2021 -0.1464
  398MOL0     C52446   4.227   1.479   6.295  0.6469 -0.1151 -0.8687
  398MOL0     C52447   4.096   1.506   6.359 -0.3944  0.8309  0.1030
  398MOL0    Cl52448   4.000   1.613   6.261  0.3497  0.0677  0.3657
  398MOL0     C52449   5.124   1.852   6.120  0.2858  0.0912  0.4544
  398MOL0     C52450   5.259   1.883   6.099 -0.3224  0.3145  0.2331
  398MOL0     O52451   5.569   1.857   6.050 -0.3283  0.0268  0.6518
  398MOL0     C52452   5.808   2.008   6.048 -0.7769 -0.2226 -0.0002
  398MOL0     C52453   5.934   2.078   6.052  0.4320 -0.3438 -0.4903
  398MOL0     N52454   6.126   2.513   6.574  0.5278 -0.0950 -0.1538
  398MOL0     N52455   6.179   2.593   6.657 -0.1208 -0.6225  0.3491
  398MOL0     C52456   7.209   3.045   6.747  0.2345 -0.5389 -0.0016
  398MOL0     C52457   7.313   3.110   6.691  0.2474 -0.0214  0.3437
  398MOL0     C52458   7.678   3.246   6.475 -0.4035 -0.9762 -0.4284
  398MOL0     C52459   7.800   3.237   6.551 -0.9124 -0.8969  0.5232
  398MOL0     C52460   7.920   3.305   6.503  0.7183 -0.1837 -0.9014
  398MOL0     C52461   7.925   3.345   6.377 -0.2229  0.0048 -0.3661
  398MOL0     O52462   8.041   3.402   6.326  1.0100  0.5724  0.4256
  398MOL0     C52463   8.052   3.539   6.362  0.6732  0.4308  0.5086
  398MOL0     C52464   8.141   3.615   6.265  0.1521 -0.3098 -0.4746
  398MOL0     C52465   8.145   3.766   6.291 -0.0711  0.5662 -0.3853
  398MOL0     C52466   8.191   3.851   6.171 -0.4967  0.3506 -0.0051
  398MOL0     C52467   8.241   3.980   6.211 -0.3956  0.1439 -0.5189
  398MOL0     C52468   8.302   4.076   6.244  0.2428  0.3497 -1.0128
  398MOL0     C52469   7.807   3.336   6.295 -0.4665  0.2842 -0.2775
  398MOL0     C52470   7.686   3.309   6.350  0.7535 -0.0920 -0.7179
  398MOL0     H52471   7.570   2.939   6.825 -0.3365  0.8888  3.0748
  398MOL0     H52472   7.370   2.817   6.930 -1.2259  0.6333  0.6985
  398MOL0     H52473   7.189   2.838   7.088  1.8833  1.1143 -2.0490
  398MOL0     H52474   7.170   2.723   6.953 -1.8363 -1.1163 -0.5904
  398MOL0     H52475   6.923   2.841   7.097  0.1676 -1.0932 -1.0958
  398MOL0     H52476   6.993   2.681   7.133 -0.4625 -1.7290 -0.7948
  398MOL0     H52477   6.828   2.620   6.996  2.2693 -2.0363 -0.1867
  398MOL0     H52478   6.952   2.642   6.878  0.5846 -0.6128  0.0859
  398MOL0     H52479   6.749   2.862   6.955  0.2183 -0.5562  1.5760
  398MOL0     H52480   6.866   2.857   6.816  2.3457 -0.8179 -0.4494
  398MOL0     H52481   6.650   2.645   6.858  1.0501 -3.3916 -2.1001
  398MOL0     H52482   6.755   2.664   6.712  1.0452  2.1297  0.0007
  398MOL0     H52483   6.659   2.870   6.653  2.2141 -2.3137 -0.1832
  398MOL0     H52484   6.560   2.880   6.797  0.7024  0.4588 -0.6919
  398MOL0     H52485   6.425   2.823   6.610 -0.4712 -0.1906 -1.7251
  398MOL0     H52486   6.539   2.698   6.552  2.1465  0.6460  0.6260
  398MOL0     H52487   6.359   2.693   6.814  3.3838 -1.1344  1.7611
  398MOL0     H52488   6.477   2.571   6.764  0.6928 -1.0231 -1.1638
  398MOL0     H52489   6.443   2.440   6.539  0.9673 -0.2408  1.8701
  398MOL0     H52490   6.110   2.289   6.414 -0.9494 -0.8110 -1.5337
  398MOL0     H52491   6.283   2.271   6.390 -0.5295 -2.0458 -3.8973
  398MOL0     H52492   6.311   2.504   6.273  1.2858 -1.4299 -2.6288
  398MOL0     H52493   6.131   2.494   6.257 -1.1576 -1.5170  1.6719
  398MOL0     H52494   6.287   2.427   6.068  2.3243 -0.1077  0.3205
  398MOL0     H52495   6.344   2.298   6.176 -0.1825 -0.7216 -1.6435
  398MOL0     H52496   6.176   2.170   6.197  1.1494  2.2809  2.5566
  398MOL0     H52497   6.183   2.207   6.015  2.9626 -0.8098  0.1868
  398MOL0     H52498   5.838   2.319   6.270 -2.3396  0.8683  0.8804
  398MOL0     H52499   5.614   2.182   6.268 -1.4988  0.8402 -1.9613
  398MOL0     H52500   5.291   2.091   6.357 -1.0364  0.6450 -1.6938
  398MOL0     H52501   5.078   1.998   6.414 -1.4234  0.8142 -0.2303
  398MOL0     H52502   4.860   1.997   6.373  3.2474  0.5077 -4.7128
  398MOL0     H52503   4.843   1.827   6.443  0.8954  1.4236  1.2766
  398MOL0     H52504   4.716   1.882   6.184  1.1919 -3.5721 -0.1812
  398MOL0     H52505   4.649   1.952   6.341 -1.6317  0.9574 -0.9857
  398MOL0     H52506   4.616   1.739   6.436 -0.9545 -0.8567 -0.1298
  398MOL0     H52507   4.686   1.645   6.296  0.0007 -0.2533  2.4538
  398MOL0     H52508   4.437   1.818   6.304  0.0274 -0.1499 -0.1558
  398MOL0     H52509   4.516   1.757   6.156 -2.7684 -1.6483 -1.0222
  398MOL0     H52510   4.460   1.551   6.379 -3.2676 -2.4958  0.5592
  398MOL0     H52511   4.493   1.539   6.205 -1.9210  0.7383 -1.5477
  398MOL0     H52512   4.288   1.610   6.137  1.5429  0.1666 -0.2169
  398MOL0     H52513   4.252   1.697   6.287 -0.5244 -0.3406 -0.7239
  398MOL0     H52514   4.216   1.412   6.209 -1.4289 -3.2606  1.6185
  398MOL0     H52515   4.290   1.414   6.357 -0.3176  0.5242  0.8448
  398MOL0     H52516   4.117   1.554   6.456  1.9652  1.0503 -0.4378
  398MOL0     H52517   4.036   1.416   6.372  1.3543 -0.4934 -0.5931
  398MOL0     H52518   5.082   1.786   6.045 -0.6907  1.0424  0.1526
  398MOL0     H52519   5.310   1.835   6.016 -0.4852  0.5850 -0.0235
  398MOL0     H52520   5.792   1.930   5.975  0.8657  0.4404 -1.1242
  398MOL0     H52521   6.009   2.076   5.974 -0.2896 -0.1094 -1.1975
  398MOL0     H52522   7.107   3.077   6.726  1.3054  0.6105 -4.5896
  398MOL0     H52523   7.298   3.201   6.635  1.6615 -1.0097 -1.8035
  398MOL0     H52524   7.804   3.177   6.641  0.5206  0.0921  1.1568
  398MOL0     H52525   8.010   3.303   6.564  0.6725 -0.8806 -0.8441
  398MOL0     H52526   8.071   3.548   6.469 -0.8483  0.0279  0.8469
  398MOL0     H52527   7.954   3.588   6.354  0.1472 -0.5447  0.8017
  398MOL0     H52528   8.242   3.577   6.251  0.3013  0.5938 -2.0482
  398MOL0     H52529   8.094   3.607   6.167 -0.5302 -0.5189 -0.1382
  398MOL0     H52530   8.203   3.784   6.382  0.3896 -3.0636  0.1923
  398MOL0     H52531   8.044   3.800   6.319 -0.7609 -2.8458  1.9520
  398MOL0     H52532   8.276   3.822   6.109  0.7773  2.2069  0.7747
  398MOL0     H52533   8.105   3.864   6.105  2.3494  2.6664 -3.6025
  398MOL0     H52534   8.370   4.150   6.281  0.1567 -0.0481 -0.0298
  398MOL0     H52535   7.824   3.380   6.197 -0.0038  1.7073  0.4249
  398MOL0     H52536   7.598   3.307   6.287  1.0156  0.6306 -1.1151
  399MOL0     O52537  10.961   2.544   8.850 -0.4137  0.5853  0.3083
  399MOL0     C52538  10.968   2.598   8.735  0.9142  1.2688 -1.0603
  399MOL0     O52539  10.853   2.615   8.659 -0.1005 -1.0018  0.5125
  399MOL0     C52540  10.739   2.545   8.681 -0.5299 -0.0492  0.2715
  399MOL0     C52541  10.709   2.425   8.611  0.2702  0.1923 -0.4455
  399MOL0     C52542  10.583   2.360   8.635  0.2542 -0.5008  0.8201
  399MOL0     C52543  10.497   2.413   8.735 -0.2891  0.0923  0.5143
  399MOL0     O52544  10.386   2.343   8.774 -0.1512 -0.3640  0.2148
  399MOL0     C52545  10.422   2.211   8.825  0.3189 -0.6544 -0.1488
  399MOL0     C52546  10.345   2.193   8.962 -0.5015 -0.2371 -0.0927
  399MOL0     C52547  10.213   2.121   8.933  0.4076  0.2243 -0.0210
  399MOL0     C52548  10.117   2.214   8.851 -0.5582  0.2633 -0.1537
  399MOL0     C52549   9.972   2.167   8.852 -0.0223 -0.9485  0.2799
  399MOL0     C52550   9.950   2.024   8.812  0.0520 -0.5730 -0.4688
  399MOL0     C52551   9.804   1.973   8.841 -0.2951 -0.6464 -0.2658
  399MOL0     C52552   9.695   2.051   8.776  0.9247 -0.2927  0.2062
  399MOL0     N52553   9.557   2.001   8.792 -0.0881  0.1887 -0.1619
  399MOL0     C52554   9.456   2.075   8.859 -0.4405  0.1377  0.2645
  399MOL0     C52555   9.347   1.999   8.844 -0.6007 -0.3546 -0.7243
  399MOL0     C52556   9.211   2.040   8.880 -0.1216  0.8936  0.8005
  399MOL0     C52557   9.208   2.094   9.026 -1.0518 -0.2178 -0.0029
  399MOL0     C52558   9.062   2.115   9.076 -0.3593 -0.2393 -0.5611
  399MOL0     C52559   9.012   2.251   9.024  0.2528  0.3892 -0.1422
  399MOL0     O52560   8.897   2.285   9.095  0.4946 -0.7963  0.5685
  399MOL0     C52561   8.767   2.238   9.046 -0.6515 -0.5161 -0.4528
  399MOL0     C52562   8.756   2.163   8.929 -0.1881  0.4300 -0.0343
  399MOL0     C52563   8.627   2.112   8.893 -0.0240  0.8540 -0.1003
  399MOL0     C52564   8.515   2.147   8.970  0.2702  0.2823 -0.4512
  399MOL0     C52565   8.379   2.095   8.936  0.1625  0.1845  0.2093
  399MOL0     O52566   8.293   2.093   9.040  0.5137 -0.1702  0.5064
  399MOL0     C52567   8.166   2.052   9.022  0.0476  0.7238  0.3934
  399MOL0     C52568   8.125   1.932   8.957 -0.0992  0.0550  0.0325
  399MOL0     C52569   7.991   1.914   8.937 -0.2924 -0.0840 -0.3059
  399MOL0     C52570   7.893   2.013   8.965 -0.4102  0.2844 -0.0703
  399MOL0     O52571   7.763   1.991   8.928  0.0843  0.0288 -0.2733
  399MOL0     C52572   7.649   2.049   9.007 -0.4063 -0.6011 -0.1333
  399MOL0     C52573   7.517   1.988   8.964 -0.2809 -0.2250  0.9638
  399MOL0     C52574   7.492   1.840   9.007  0.1002  0.0456 -0.6165
  399MOL0     C52575   7.390   1.767   8.915 -0.2177 -0.1075 -0.9865
  399MOL0     C52576   7.246   1.840   8.920 -0.0955 -0.2435 -0.7797
  399MOL0     C52577   7.145   1.770   8.832 -0.4256 -0.2060  1.5155
  399MOL0     C52578   7.022   1.860   8.815  0.7644  0.3239 -0.7318
  399MOL0     C52579   6.935   1.872   8.939 -0.2597  0.1626  0.3675
  399MOL0    Cl52580   6.863   1.717   8.971 -0.2758  0.3201  0.1090
  399MOL0     C52581   7.941   2.130   9.030 -0.5099 -1.5535 -1.0013
  399MOL0     C52582   8.076   2.156   9.057  0.1046 -0.4037 -0.0151
  399MOL0     O52583   8.353   2.060   8.817  0.5219 -0.3755  0.0836
  399MOL0     C52584   8.527   2.231   9.079  0.3007 -0.1283 -0.3928
  399MOL0     C52585   8.652   2.283   9.118  0.4191 -0.5194  0.9898
  399MOL0     N52586   9.385   1.886   8.777 -0.0390  0.2022  0.7288
  399MOL0     N52587   9.510   1.878   8.757  0.1680 -0.0030 -0.2308
  399MOL0     C52588  10.531   2.519   8.812 -0.3176  0.1906  0.1473
  399MOL0     C52589  10.648   2.592   8.782 -1.1837 -0.0061  0.5987
  399MOL0     C52590  11.101   2.635   8.686 -0.6762  0.0310  0.8840
  399MOL0     C52591  11.215   2.579   8.746 -0.0870 -0.0935  0.5503
  399MOL0     C52592  11.342   2.609   8.699  0.0316 -0.5839  0.2335
  399MOL0     C52593  11.365   2.709   8.598 -0.2936 -0.7306 -0.3030
  399MOL0     O52594  11.483   2.763   8.539  0.7104  0.0370  0.1544
  399MOL0     C52595  11.595   2.748   8.625  0.2516 -0.2166 -0.2191
  399MOL0     C52596  11.704   2.848   8.577  0.7545 -0.2266  0.2268
  399MOL0     C52597  11.843   2.801   8.627  0.2799  0.1730 -0.5964
  399MOL0     C52598  11.967   2.870   8.565 -0.9096 -0.0267 -0.6731
  399MOL0     C52599  12.087   2.843   8.641  0.5043  0.2047 -0.1335
  399MOL0     C52600  12.180   2.805   8.709  0.0044  0.6370  0.0529
  399MOL0     C52601  11.256   2.750   8.535  0.4010  0.2792  0.3170
  399MOL0     C52602  11.125   2.717   8.570 -0.4596  0.2320  0.4844
  399MOL0     H52603  10.778   2.391   8.535  0.2103 -0.2198 -0.3146
  399MOL0     H52604  10.546   2.273   8.583 -2.3581  0.2109  1.3572
  399MOL0     H52605  10.529   2.203   8.848  0.1709 -0.3999  0.6716
  399MOL0     H52606  10.405   2.135   8.748  0.1489 -1.5359  0.7314
  399MOL0     H52607  10.339   2.286   9.019  1.5407  0.4691 -0.9405
  399MOL0     H52608  10.400   2.125   9.027 -0.4232  1.3578  1.5884
  399MOL0     H52609  10.176   2.106   9.035  2.8023  2.0211  1.2028
  399MOL0     H52610  10.230   2.024   8.885  0.2366  0.3984 -0.4398
  399MOL0     H52611  10.118   2.313   8.897 -1.7060  0.4601 -0.5138
  399MOL0     H52612  10.146   2.222   8.746  2.6653  2.7583  0.7810
  399MOL0     H52613   9.910   2.232   8.789 -0.0419 -2.6637 -1.5933
  399MOL0     H52614   9.944   2.180   8.957  1.2864  1.3207  0.4018
  399MOL0     H52615  10.012   1.963   8.879  3.3459  1.5900 -1.3244
  399MOL0     H52616   9.987   2.005   8.710  2.1557 -0.6083  0.2543
  399MOL0     H52617   9.800   1.866   8.817  0.8147 -0.8786  0.5108
  399MOL0     H52618   9.784   1.980   8.948 -0.9708  1.7653 -0.4811
  399MOL0     H52619   9.719   2.063   8.670  0.2000 -2.7230 -0.3040
  399MOL0     H52620   9.681   2.153   8.814 -4.2322  0.0479 -1.7849
  399MOL0     H52621   9.461   2.170   8.912  0.8533 -0.5532  1.4575
  399MOL0     H52622   9.151   1.950   8.868  1.9469 -0.6213  1.3412
  399MOL0     H52623   9.179   2.123   8.816  1.2657  1.7043  1.1208
  399MOL0     H52624   9.262   2.190   9.030 -1.9002  0.8337 -5.4087
  399MOL0     H52625   9.263   2.027   9.093  0.0051 -0.2043 -0.8274
  399MOL0     H52626   9.002   2.032   9.037  2.4168 -0.9117 -3.8647
  399MOL0     H52627   9.054   2.119   9.185  1.2213 -1.4453 -0.3715
  399MOL0     H52628   8.986   2.259   8.918  2.2908 -0.3228 -0.7332
  399MOL0     H52629   9.085   2.330   9.039  1.4976 -0.2185 -2.5384
  399MOL0     H52630   8.838   2.118   8.872 -1.0918 -1.1968 -0.0996
  399MOL0     H52631   8.607   2.040   8.815  2.4435  0.4349 -0.4252
  399MOL0     H52632   8.194   1.851   8.933 -2.0903 -1.7853  0.2240
  399MOL0     H52633   7.961   1.820   8.892 -0.5266 -0.2988  0.2912
  399MOL0     H52634   7.630   2.153   8.982 -1.0358  0.3323  3.7036
  399MOL0     H52635   7.658   2.033   9.115 -0.6915 -0.1780 -0.0467
  399MOL0     H52636   7.493   2.005   8.858  2.7051  1.0158  0.3979
  399MOL0     H52637   7.438   2.039   9.021 -1.1284  1.2854 -1.3987
  399MOL0     H52638   7.461   1.835   9.112  0.1281  0.4692 -0.5890
  399MOL0     H52639   7.585   1.783   9.000  1.4686  1.6100  2.7892
  399MOL0     H52640   7.424   1.772   8.811 -1.5173  2.3218 -1.3650
  399MOL0     H52641   7.377   1.660   8.937  0.8534  0.0846  0.7790
  399MOL0     H52642   7.261   1.945   8.893  3.0649  0.4741  2.8479
  399MOL0     H52643   7.206   1.838   9.022 -2.4901  1.6852 -1.5841
  399MOL0     H52644   7.123   1.667   8.861 -2.5444 -0.0628  0.6552
  399MOL0     H52645   7.201   1.756   8.739  1.0501  1.6086  2.0537
  399MOL0     H52646   7.046   1.963   8.785 -0.9643  1.5582  1.7648
  399MOL0     H52647   6.953   1.822   8.739 -1.5126  2.2152  0.2455
  399MOL0     H52648   6.855   1.944   8.921 -0.1891 -0.1168 -1.2154
  399MOL0     H52649   7.001   1.906   9.019 -1.9426  0.4377  1.6868
  399MOL0     H52650   7.871   2.209   9.055  2.0169  1.0525 -1.6774
  399MOL0     H52651   8.122   2.238   9.111 -0.9674  1.6089 -2.0063
  399MOL0     H52652   8.443   2.270   9.136  2.3917 -1.9955  4.4731
  399MOL0     H52653   8.666   2.348   9.204 -1.5868 -0.5244  1.3742
  399MOL0     H52654  10.465   2.546   8.894  1.3098  2.2960  0.8592
  399MOL0     H52655  10.680   2.677   8.841 -0.0607 -1.0340  1.5351
  399MOL0     H52656  11.208   2.502   8.822  0.1993 -1.3019 -0.5992
  399MOL0     H52657  11.428   2.552   8.733 -1.0084 -2.0754  0.4749
  399MOL0     H52658  11.635   2.648   8.612  2.3098 -0.2349  4.3148
  399MOL0     H52659  11.583   2.759   8.733  1.7562  3.1917 -0.2659
  399MOL0     H52660  11.694   2.869   8.470  0.9311  0.3380  0.3189
  399MOL0     H52661  11.673   2.944   8.619 -0.2320  0.7738 -2.6030
  399MOL0     H52662  11.863   2.693   8.620 -0.1824  0.0798 -0.5283
  399MOL0     H52663  11.837   2.816   8.735  1.8979  1.1143 -0.6137
  399MOL0     H52664  11.985   2.848   8.459  1.3230  0.0950 -0.3679
  399MOL0     H52665  11.939   2.976   8.564 -4.9543 -0.9394 -2.9949
  399MOL0     H52666  12.257   2.759   8.768 -0.2905 -0.3408 -0.2985
  399MOL0     H52667  11.265   2.806   8.442 -2.0080 -0.2863 -0.3227
  399MOL0     H52668  11.034   2.736   8.514  0.8589 -1.2167 -2.4339
  400MOL0     O52669   4.370   6.811   4.509 -0.6819 -0.3211 -0.0781
  400MOL0     C52670   4.447   6.906   4.490  0.1328  0.2942  0.7918
  400MOL0     O52671   4.406   7.024   4.438 -0.0640 -0.0776  0.1235
  400MOL0     C52672   4.280   7.049   4.388  0.1081 -0.4041 -0.8880
  400MOL0     C52673   4.261   7.031   4.248  0.2078  0.5567  0.3477
  400MOL0     C52674   4.139   7.059   4.195 -0.2043 -0.2457  0.1205
  400MOL0     C52675   4.037   7.117   4.267 -0.4987  0.3101 -0.1569
  400MOL0     O52676   3.923   7.155   4.209  0.3886 -0.3786  0.2174
  400MOL0     C52677   3.910   7.301   4.193  0.3145  0.2764  0.6468
  400MOL0     C52678   3.978   7.342   4.063  0.5195 -0.0203  0.2967
  400MOL0     C52679   3.887   7.304   3.943  0.5037 -0.2285 -0.3355
  400MOL0     C52680   3.936   7.357   3.806  0.6219 -1.0228 -0.2530
  400MOL0     C52681   3.851   7.302   3.693 -0.8989 -0.2710  0.0982
  400MOL0     C52682   3.721   7.377   3.672  0.1793 -0.1768 -0.2241
  400MOL0     C52683   3.644   7.325   3.546  0.5940 -0.2070 -0.3453
  400MOL0     C52684   3.550   7.430   3.499 -0.0885 -0.2321 -0.7080
  400MOL0     N52685   3.467   7.387   3.387  0.4075 -0.6813 -0.5332
  400MOL0     C52686   3.341   7.436   3.365 -0.8870  0.2102  0.1260
  400MOL0     C52687   3.316   7.413   3.233  0.2573  0.4129  0.1104
  400MOL0     C52688   3.189   7.459   3.156  0.1638 -0.7602  0.0182
  400MOL0     C52689   3.219   7.503   3.017  0.5898 -0.2357 -0.4007
  400MOL0     C52690   3.303   7.626   3.017 -0.4347 -0.4002  0.4960
  400MOL0     C52691   3.306   7.677   2.875 -0.5076 -0.4632  0.2226
  400MOL0     O52692   3.180   7.756   2.855  0.7186  0.1166  0.3172
  400MOL0     C52693   3.167   7.830   2.740  0.4414 -0.2127 -1.1875
  400MOL0     C52694   3.273   7.870   2.657  0.3445 -0.3197 -0.7782
  400MOL0     C52695   3.252   7.942   2.547  0.4350  0.5425  1.4570
  400MOL0     C52696   3.121   7.988   2.518 -0.4318  0.1062  0.1342
  400MOL0     C52697   3.091   8.078   2.404  0.6202 -0.6178  0.0469
  400MOL0     O52698   2.974   8.159   2.410  0.5198 -0.6315 -0.0758
  400MOL0     C52699   2.947   8.251   2.303 -0.3548 -0.1758 -0.5483
  400MOL0     C52700   3.053   8.332   2.247 -0.3113  0.0986 -0.0637
  400MOL0     C52701   3.019   8.426   2.148  0.2921  0.2837  0.1816
  400MOL0     C52702   2.888   8.437   2.102  0.0812  0.4356 -0.4084
  400MOL0     O52703   2.834   8.532   2.025 -0.0186  0.5819  0.8525
  400MOL0     C52704   2.873   8.517   1.885  0.6596 -0.4190 -0.9188
  400MOL0     C52705   2.776   8.435   1.798  0.9881 -0.3577  0.2314
  400MOL0     C52706   2.815   8.449   1.646  0.7440 -0.0677 -0.0323
  400MOL0     C52707   2.720   8.373   1.548 -1.1886  0.1550  1.0762
  400MOL0     C52708   2.736   8.218   1.528  0.2967 -1.3131  0.3923
  400MOL0     C52709   2.619   8.160   1.451  0.4030  0.3685  0.3565
  400MOL0     C52710   2.633   8.012   1.451 -0.7069  0.0534  0.5081
  400MOL0     C52711   2.765   7.951   1.395  0.3126 -0.1801 -0.0438
  400MOL0    Cl52712   2.792   8.022   1.237  0.3845 -0.0635 -1.0263
  400MOL0     C52713   2.795   8.345   2.141  0.4886 -1.4651  0.5622
  400MOL0     C52714   2.825   8.250   2.230  0.3789  0.9424 -0.0956
  400MOL0     O52715   3.172   8.080   2.312 -0.2704 -0.2081 -0.0318
  400MOL0     C52716   3.009   7.940   2.591 -0.2890 -0.0088 -0.9832
  400MOL0     C52717   3.041   7.868   2.704 -0.0598 -0.0766  0.2645
  400MOL0     N52718   3.428   7.347   3.179 -0.5271  0.3926  0.8690
  400MOL0     N52719   3.516   7.341   3.273 -0.3011 -0.3053  1.1571
  400MOL0     C52720   4.066   7.147   4.398  0.3438 -0.5908 -0.2089
  400MOL0     C52721   4.178   7.106   4.466  0.1129  0.1339 -0.0650
  400MOL0     C52722   4.599   6.876   4.485 -0.0353  0.2715  1.0593
  400MOL0     C52723   4.655   6.755   4.551  0.3890 -0.3650 -0.9665
  400MOL0     C52724   4.791   6.746   4.568  0.8243 -0.3650 -0.6031
  400MOL0     C52725   4.868   6.844   4.503 -0.1152  1.2629 -0.3024
  400MOL0     O52726   5.004   6.822   4.502 -0.2050 -0.2175 -0.3507
  400MOL0     C52727   5.069   6.756   4.611 -0.5893  0.0717  0.4744
  400MOL0     C52728   5.222   6.764   4.592  1.0912  0.0623  1.2949
  400MOL0     C52729   5.297   6.706   4.710  0.3335 -0.0533  0.0358
  400MOL0     C52730   5.448   6.693   4.685 -0.6509 -1.0995  0.9039
  400MOL0     C52731   5.478   6.578   4.602  0.7677 -0.0632  0.0775
  400MOL0     C52732   5.509   6.483   4.533 -0.0602  0.1137  0.1571
  400MOL0     C52733   4.828   6.951   4.432  0.1368  0.2345 -0.3995
  400MOL0     C52734   4.689   6.964   4.420 -0.4776 -0.4061 -0.2005
  400MOL0     H52735   4.346   6.994   4.192  0.5138 -0.9516  1.7428
  400MOL0     H52736   4.100   7.032   4.098  0.0631  0.7885 -0.2918
  400MOL0     H52737   3.954   7.359   4.274  1.9601 -2.3148  1.7272
  400MOL0     H52738   3.804   7.327   4.197 -0.2678 -1.6394 -0.6092
  400MOL0     H52739   4.068   7.286   4.038 -1.4773 -3.1439 -0.4099
  400MOL0     H52740   3.971   7.451   4.050 -1.0402 -0.3292 -2.0795
  400MOL0     H52741   3.789   7.351   3.952 -0.0790 -1.1446 -1.5010
  400MOL0     H52742   3.879   7.195   3.942  2.0160 -0.3749  0.7063
  400MOL0     H52743   3.931   7.467   3.803  1.9059 -0.8585 -4.7820
  400MOL0     H52744   4.041   7.331   3.791  1.1555 -0.5121  2.2422
  400MOL0     H52745   3.842   7.193   3.699  1.7715 -0.8701 -3.4129
  400MOL0     H52746   3.903   7.314   3.597 -1.7575  1.0009 -0.2342
  400MOL0     H52747   3.737   7.484   3.652 -2.9157  0.3670 -0.3798
  400MOL0     H52748   3.661   7.370   3.763 -0.8205  0.5451 -0.7977
  400MOL0     H52749   3.719   7.303   3.469 -3.1386 -0.7939 -4.1598
  400MOL0     H52750   3.588   7.233   3.565  1.8838 -1.5982 -2.8067
  400MOL0     H52751   3.608   7.519   3.472 -0.1818 -0.1156 -0.5260
  400MOL0     H52752   3.488   7.460   3.583  0.0804  0.0785 -0.6945
  400MOL0     H52753   3.278   7.484   3.439 -0.7314 -3.2063  2.7119
  400MOL0     H52754   3.140   7.534   3.219 -0.7927 -1.3503 -0.0068
  400MOL0     H52755   3.105   7.389   3.156 -1.9589  1.6441  0.4920
  400MOL0     H52756   3.117   7.525   2.982  0.9057  3.8099  0.7620
  400MOL0     H52757   3.271   7.421   2.966 -0.7735 -2.1154  1.1131
  400MOL0     H52758   3.270   7.695   3.095 -1.5784  0.6559 -0.8648
  400MOL0     H52759   3.405   7.605   3.051  0.1548  1.5416  0.1053
  400MOL0     H52760   3.308   7.599   2.798 -3.3650 -1.2223  0.7815
  400MOL0     H52761   3.389   7.744   2.853 -2.5562  1.4724 -2.1658
  400MOL0     H52762   3.376   7.843   2.674  0.1814 -1.1120 -1.0152
  400MOL0     H52763   3.342   7.967   2.492 -0.0498  1.8768  1.2274
  400MOL0     H52764   3.158   8.330   2.276 -0.6093  0.6660  1.1023
  400MOL0     H52765   3.099   8.489   2.111  0.1387  0.1911 -0.3110
  400MOL0     H52766   2.967   8.461   1.878  0.9136 -0.1910  0.3154
  400MOL0     H52767   2.883   8.620   1.849  1.3525 -0.0228  0.3296
  400MOL0     H52768   2.679   8.484   1.815  0.4113 -1.3308 -0.1408
  400MOL0     H52769   2.785   8.332   1.834  1.9941  0.2646  1.8021
  400MOL0     H52770   2.914   8.403   1.638 -0.7083 -3.2341 -2.0951
  400MOL0     H52771   2.823   8.551   1.609 -0.0891 -0.6288 -1.8628
  400MOL0     H52772   2.619   8.379   1.592 -0.4199  0.4194  2.8897
  400MOL0     H52773   2.717   8.420   1.450 -0.1453  1.4816  1.6508
  400MOL0     H52774   2.730   8.179   1.630  3.3449 -0.3974  1.0103
  400MOL0     H52775   2.833   8.198   1.482  0.3291  1.4784 -0.9589
  400MOL0     H52776   2.612   8.208   1.352 -1.1220  1.0078  0.7485
  400MOL0     H52777   2.527   8.186   1.504  0.6935  2.9005 -0.2639
  400MOL0     H52778   2.640   7.984   1.557  1.5761  1.8191  0.9361
  400MOL0     H52779   2.553   7.961   1.397 -0.0735  1.3988 -1.8317
  400MOL0     H52780   2.761   7.842   1.395  4.5518 -0.6864  4.5222
  400MOL0     H52781   2.857   7.978   1.448  1.1313  0.5228 -1.7333
  400MOL0     H52782   2.697   8.356   2.097  2.1721  1.3092 -3.0596
  400MOL0     H52783   2.751   8.173   2.251  0.8036  1.3653  3.6089
  400MOL0     H52784   2.909   7.969   2.562 -0.3898  2.3427  1.3727
  400MOL0     H52785   2.959   7.862   2.774  0.2280 -0.0843  0.6016
  400MOL0     H52786   3.983   7.186   4.456 -0.4868 -0.5221 -1.4304
  400MOL0     H52787   4.169   7.102   4.574 -1.2841 -0.7256 -0.1847
  400MOL0     H52788   4.596   6.677   4.600 -0.4478  1.6233  1.3833
  400MOL0     H52789   4.836   6.658   4.614  2.0599  0.5218 -0.0750
  400MOL0     H52790   5.046   6.649   4.613 -2.0231  0.3539  0.0960
  400MOL0     H52791   5.044   6.796   4.710  0.1683 -0.6365  0.9713
  400MOL0     H52792   5.251   6.699   4.508 -1.2621  0.5496  0.0015
  400MOL0     H52793   5.246   6.869   4.573 -0.2670 -0.1800 -2.7432
  400MOL0     H52794   5.253   6.609   4.736 -0.2969 -0.2361 -1.6267
  400MOL0     H52795   5.272   6.768   4.796 -0.1605 -0.3455  0.1033
  400MOL0     H52796   5.488   6.779   4.631 -1.4531 -2.7871 -2.7142
  400MOL0     H52797   5.504   6.660   4.772  1.8172  3.9118  1.5346
  400MOL0     H52798   5.531   6.405   4.463 -2.5447 -0.9093  0.4078
  400MOL0     H52799   4.899   7.016   4.382  0.6826 -1.6477 -2.1622
  400MOL0     H52800   4.649   7.046   4.360  1.9585 -1.3279 -3.3335
  401MOL0     O52801   7.952  10.873   9.082  0.5148  0.1765 -0.4230
  401MOL0     C52802   8.018  10.804   9.010 -0.4974 -0.4418  0.4189
  401MOL0     O52803   7.977  10.738   8.896  0.1485  0.0294  0.1246
  401MOL0     C52804   7.850  10.770   8.846 -0.7491  0.4303  0.7702
  401MOL0     C52805   7.767  10.659   8.814  0.4848 -1.0972 -1.0975
  401MOL0     C52806   7.640  10.689   8.757  0.1254 -0.1230 -0.0560
  401MOL0     C52807   7.600  10.815   8.722 -1.5241 -0.6576  0.5378
  401MOL0     O52808   7.471  10.828   8.671  0.3357 -0.0601  0.2708
  401MOL0     C52809   7.396  10.953   8.677 -0.7408  0.0869 -0.0768
  401MOL0     C52810   7.282  10.931   8.581 -0.4603  0.3035 -0.0359
  401MOL0     C52811   7.173  11.041   8.599  0.1248  0.4055  1.0742
  401MOL0     C52812   7.074  11.013   8.480  0.0951 -0.6003 -0.2073
  401MOL0     C52813   6.929  11.030   8.522  0.2066  1.0148 -0.6884
  401MOL0     C52814   6.888  11.170   8.559  0.2027 -0.0037 -0.0192
  401MOL0     C52815   6.733  11.166   8.583 -0.7034 -0.2018  0.1966
  401MOL0     C52816   6.661  11.294   8.569 -0.3287  0.9053 -0.1155
  401MOL0     N52817   6.654  11.340   8.432  0.0963 -0.2730 -0.0625
  401MOL0     C52818   6.615  11.274   8.317  0.7155 -0.4999 -0.6125
  401MOL0     C52819   6.644  11.358   8.218  0.3645  0.4594  0.5363
  401MOL0     C52820   6.595  11.331   8.075  0.1156  0.1367 -0.1275
  401MOL0     C52821   6.448  11.362   8.043  0.7655  0.0186 -0.7812
  401MOL0     C52822   6.449  11.405   7.897  0.3514  0.4587 -1.0664
  401MOL0     C52823   6.303  11.432   7.844  0.4410  0.0509 -0.1047
  401MOL0     O52824   6.218  11.313   7.870 -0.0538 -0.7950  0.4289
  401MOL0     C52825   6.083  11.325   7.833  0.3266  0.0876 -0.5851
  401MOL0     C52826   6.029  11.433   7.763  0.1562 -0.8487  0.8818
  401MOL0     C52827   5.894  11.436   7.739  0.1509 -1.2636 -0.3162
  401MOL0     C52828   5.811  11.341   7.798  0.5060  0.0957 -0.0883
  401MOL0     C52829   5.669  11.349   7.780 -0.1859 -0.5385  0.3661
  401MOL0     O52830   5.602  11.231   7.807 -0.1751 -0.0462  0.2923
  401MOL0     C52831   5.467  11.218   7.812  0.0763  0.5158  0.0236
  401MOL0     C52832   5.372  11.297   7.739 -0.6430 -0.0531 -0.0781
  401MOL0     C52833   5.231  11.257   7.747 -0.3652 -0.4774 -0.5228
  401MOL0     C52834   5.189  11.145   7.825  0.7952 -1.0503  0.5824
  401MOL0     O52835   5.058  11.100   7.814 -0.5019 -0.5790 -0.8778
  401MOL0     C52836   5.024  10.981   7.878  0.0948 -0.0184  0.0903
  401MOL0     C52837   4.876  10.946   7.856 -0.4372  0.9990 -0.1650
  401MOL0     C52838   4.782  11.059   7.920  0.0752  0.8011 -0.5576
  401MOL0     C52839   4.668  10.990   7.978  0.4038 -0.0214  0.4917
  401MOL0     C52840   4.581  11.101   8.043 -0.5616 -0.2206 -0.3684
  401MOL0     C52841   4.451  11.039   8.088 -0.0703 -0.7758 -0.2592
  401MOL0     C52842   4.354  11.141   8.145  0.4904 -0.0563 -0.4781
  401MOL0     C52843   4.268  11.091   8.259 -0.4736  0.0787 -0.2943
  401MOL0    Cl52844   4.127  11.202   8.276  0.0053  0.3079 -0.3462
  401MOL0     C52845   5.284  11.062   7.877 -0.1307  0.0615 -0.1571
  401MOL0     C52846   5.418  11.102   7.872  0.6235  1.0324 -0.1208
  401MOL0     O52847   5.610  11.455   7.752 -0.1194  0.3015 -0.3857
  401MOL0     C52848   5.866  11.227   7.861 -0.5175  0.0852 -0.2258
  401MOL0     C52849   6.002  11.220   7.876 -0.0123  1.1668  0.4930
  401MOL0     N52850   6.703  11.469   8.269  0.1174  0.2629  0.4083
  401MOL0     N52851   6.718  11.454   8.396 -0.8250  0.3937  0.4488
  401MOL0     C52852   7.700  10.925   8.743  0.2013  0.0561  0.5921
  401MOL0     C52853   7.819  10.898   8.806  0.3268 -0.0403  0.1230
  401MOL0     C52854   8.145  10.760   9.073  0.3938 -0.5713 -0.5002
  401MOL0     C52855   8.192  10.818   9.192  0.3874  0.3802 -0.0061
  401MOL0     C52856   8.312  10.761   9.249 -0.2240  0.3880 -0.2120
  401MOL0     C52857   8.389  10.662   9.183 -0.0637  0.7256 -0.2980
  401MOL0     O52858   8.495  10.599   9.230 -0.4450 -0.1333 -0.1631
  401MOL0     C52859   8.535  10.615   9.368  0.3157 -0.5836  0.1253
  401MOL0     C52860   8.659  10.536   9.374  0.4692  0.4065 -0.4165
  401MOL0     C52861   8.770  10.594   9.289 -1.0407  1.2448  0.2702
  401MOL0     C52862   8.891  10.506   9.319  0.0610 -0.1317  0.7675
  401MOL0     C52863   8.952  10.513   9.450 -0.2951 -0.0141 -0.7659
  401MOL0     C52864   9.002  10.520   9.561  0.6508  0.6332 -0.9021
  401MOL0     C52865   8.338  10.611   9.064  0.2929 -0.1014 -0.6635
  401MOL0     C52866   8.226  10.665   9.013 -0.1343 -0.6149 -0.8512
  401MOL0     H52867   7.794  10.560   8.849  1.1608 -0.5965 -0.1719
  401MOL0     H52868   7.576  10.602   8.755  1.4170 -1.0971 -1.0060
  401MOL0     H52869   7.451  11.043   8.648  0.5190 -0.8063 -0.5688
  401MOL0     H52870   7.351  10.976   8.774  1.1672  1.2050  0.6139
  401MOL0     H52871   7.238  10.834   8.607 -1.1538  0.7395  0.4667
  401MOL0     H52872   7.320  10.926   8.479 -0.7007 -1.0282 -0.0829
  401MOL0     H52873   7.221  11.139   8.592  0.4458  0.1158 -2.8609
  401MOL0     H52874   7.133  11.021   8.699  2.2788 -4.0938  1.2841
  401MOL0     H52875   7.094  11.090   8.406 -0.9318  0.3500  0.4668
  401MOL0     H52876   7.091  10.913   8.438  1.5431 -0.5246  0.1550
  401MOL0     H52877   6.899  10.974   8.612  2.9967 -0.1830 -0.3931
  401MOL0     H52878   6.875  11.000   8.432  2.5843 -0.4856 -1.7255
  401MOL0     H52879   6.914  11.242   8.481 -0.8949 -1.0181 -1.3508
  401MOL0     H52880   6.943  11.212   8.644 -0.2183  1.0890 -0.2705
  401MOL0     H52881   6.692  11.094   8.512 -0.8371 -0.5199  0.5904
  401MOL0     H52882   6.717  11.127   8.684  2.3633 -1.5875  0.2598
  401MOL0     H52883   6.719  11.370   8.622 -1.2677  0.5459  1.4834
  401MOL0     H52884   6.566  11.282   8.622  0.6994  0.2128  1.6139
  401MOL0     H52885   6.578  11.173   8.309 -2.3987  0.5814 -1.1110
  401MOL0     H52886   6.610  11.227   8.047  1.8340 -0.3469  2.2551
  401MOL0     H52887   6.665  11.390   8.016 -1.2029  2.1803  0.2429
  401MOL0     H52888   6.415  11.442   8.110 -1.6067 -1.8530  0.4014
  401MOL0     H52889   6.400  11.267   8.065  1.7008 -0.8088 -2.1748
  401MOL0     H52890   6.508  11.494   7.873  1.5250  0.5715  1.8374
  401MOL0     H52891   6.481  11.312   7.848 -0.4478 -0.9667  1.0156
  401MOL0     H52892   6.308  11.460   7.739  3.1500 -2.7033 -0.8655
  401MOL0     H52893   6.270  11.523   7.895  3.2912  2.1117 -1.6352
  401MOL0     H52894   6.091  11.516   7.729  0.4603 -0.9750  1.1228
  401MOL0     H52895   5.849  11.510   7.674 -0.0649 -1.9372 -0.9560
  401MOL0     H52896   5.410  11.386   7.689  0.6157 -1.0219 -0.8742
  401MOL0     H52897   5.155  11.314   7.695 -0.1955  0.9091  0.7125
  401MOL0     H52898   5.057  10.986   7.982 -0.7406 -1.6692  0.4762
  401MOL0     H52899   5.069  10.893   7.831  0.8302 -0.1752  1.0507
  401MOL0     H52900   4.868  10.849   7.905  1.4619  1.7466  1.7748
  401MOL0     H52901   4.849  10.933   7.750 -3.0752 -2.2101  0.7109
  401MOL0     H52902   4.737  11.133   7.853  0.3263  0.0081 -1.6264
  401MOL0     H52903   4.837  11.111   7.999  0.4173 -0.0727 -0.2083
  401MOL0     H52904   4.614  10.938   7.898 -0.0672 -0.1888  0.9134
  401MOL0     H52905   4.702  10.922   8.057 -0.7803  0.4718  1.4676
  401MOL0     H52906   4.574  11.178   7.965  1.5701  0.8495  0.4261
  401MOL0     H52907   4.642  11.133   8.128  0.5053 -0.5352 -0.9886
  401MOL0     H52908   4.466  10.959   8.161  0.5444  0.5050  1.0730
  401MOL0     H52909   4.399  10.998   8.001 -1.0901 -1.9485  0.8654
  401MOL0     H52910   4.402  11.233   8.178  0.1820  0.3833 -1.2459
  401MOL0     H52911   4.298  11.169   8.056  1.9110 -1.4148 -1.8593
  401MOL0     H52912   4.321  11.077   8.353  2.4825 -0.3818 -1.9021
  401MOL0     H52913   4.229  10.990   8.242  0.4625 -0.2786 -0.3586
  401MOL0     H52914   5.267  10.966   7.924  1.4606 -0.0466  0.2344
  401MOL0     H52915   5.488  11.035   7.920 -2.2222 -2.7351 -0.7944
  401MOL0     H52916   5.803  11.158   7.917 -2.0607  2.3112  0.9184
  401MOL0     H52917   6.051  11.139   7.927 -1.0885  0.2883  0.1696
  401MOL0     H52918   7.674  11.029   8.726  0.3303  0.0614  0.4231
  401MOL0     H52919   7.894  10.974   8.826  2.8535 -2.7066  1.5521
  401MOL0     H52920   8.130  10.894   9.239 -1.3597  0.5747 -2.3784
  401MOL0     H52921   8.326  10.778   9.355 -3.9509  0.6355  0.3775
  401MOL0     H52922   8.451  10.576   9.426 -1.4964 -1.5776 -2.8998
  401MOL0     H52923   8.547  10.722   9.387 -1.7072  0.1242 -2.1124
  401MOL0     H52924   8.692  10.527   9.478 -0.9507  0.0003  0.0108
  401MOL0     H52925   8.635  10.433   9.347 -2.5610  0.7552  0.6760
  401MOL0     H52926   8.806  10.693   9.317  2.4457  0.1521  0.1309
  401MOL0     H52927   8.742  10.606   9.184  1.3827  2.9055 -0.2445
  401MOL0     H52928   8.855  10.404   9.301  2.3454 -1.2102  1.8728
  401MOL0     H52929   8.972  10.535   9.252  0.6282 -0.6672  1.2074
  401MOL0     H52930   9.022  10.530   9.666 -0.4926  3.0404 -0.8553
  401MOL0     H52931   8.392  10.534   9.010  1.2747  0.3749 -0.3746
  401MOL0     H52932   8.196  10.616   8.921 -0.8799 -1.9178  0.0519
  402MOL0     O52933   2.714   0.160   3.990  0.2345  0.4536 -0.0883
  402MOL0     C52934   2.731   0.102   3.882  0.2105 -0.9423  0.2509
  402MOL0     O52935   2.637   0.029   3.821 -0.2814  0.0135  0.0559
  402MOL0     C52936   2.509   0.020   3.875 -0.0932 -0.0451 -0.0004
  402MOL0     C52937   2.422   0.130   3.891 -0.5623  0.2540 -0.0758
  402MOL0     C52938   2.285   0.104   3.911  0.3224  0.1648 -0.4302
  402MOL0     C52939   2.237  -0.024   3.943  0.0146  0.0495  0.4263
  402MOL0     O52940   2.109  -0.048   3.987 -0.5036  0.2706 -0.0826
  402MOL0     C52941   2.043   0.034   4.076  0.3901 -0.1425  0.0330
  402MOL0     C52942   1.895  -0.003   4.084  0.7177  0.0839  0.4161
  402MOL0     C52943   1.892  -0.144   4.127 -0.1212 -0.1089  0.2151
  402MOL0     C52944   1.752  -0.194   4.165 -0.1131  0.0246 -0.7051
  402MOL0     C52945   1.770  -0.340   4.221  0.8485 -0.5658 -0.0470
  402MOL0     C52946   1.623  -0.393   4.258 -0.5773 -0.6626 -0.6663
  402MOL0     C52947   1.579  -0.529   4.203  0.8192  0.1704  0.2738
  402MOL0     C52948   1.538  -0.627   4.308  0.3082  0.4075  0.1503
  402MOL0     N52949   1.411  -0.591   4.383  0.2635 -0.1912  0.2565
  402MOL0     C52950   1.293  -0.551   4.321  0.0046  0.4672  0.0734
  402MOL0     C52951   1.208  -0.524   4.423 -0.2872  0.0310  0.7857
  402MOL0     C52952   1.059  -0.496   4.430  0.1071  0.2452 -0.5632
  402MOL0     C52953   0.976  -0.583   4.528 -0.2120 -0.6750  1.2484
  402MOL0     C52954   0.960  -0.515   4.667 -0.3945  0.1067 -1.0630
  402MOL0     C52955   0.836  -0.421   4.675 -0.0779 -0.4171 -0.3044
  402MOL0     O52956   0.711  -0.493   4.680 -0.3400 -0.0801 -0.0811
  402MOL0     C52957   0.586  -0.442   4.685  0.2684  0.3211 -0.7255
  402MOL0     C52958   0.556  -0.311   4.647  0.0729 -0.3017  0.4104
  402MOL0     C52959   0.421  -0.267   4.652 -0.3262 -0.2052  0.4805
  402MOL0     C52960   0.321  -0.352   4.693  0.0576  0.0901 -0.9303
  402MOL0     C52961   0.178  -0.315   4.709  0.1468 -0.2798 -0.2822
  402MOL0     O52962   0.087  -0.413   4.744 -0.0467 -0.5997  0.3861
  402MOL0     C52963  -0.034  -0.372   4.795  0.4261 -1.1926  0.1456
  402MOL0     C52964  -0.053  -0.307   4.912  0.8355 -0.1905 -0.8357
  402MOL0     C52965  -0.183  -0.280   4.959 -0.9303 -0.1382 -0.3203
  402MOL0     C52966  -0.291  -0.336   4.892  0.7728 -0.9315  0.1778
  402MOL0     O52967  -0.426  -0.335   4.934  0.1217  0.6952  0.0659
  402MOL0     C52968  -0.444  -0.304   5.075  0.1757  0.0132  0.3209
  402MOL0     C52969  -0.478  -0.158   5.112 -0.6064  0.2443  0.1463
  402MOL0     C52970  -0.522  -0.149   5.256 -0.3101 -0.7161 -0.1920
  402MOL0     C52971  -0.436  -0.232   5.364  0.5745  0.8904 -0.4829
  402MOL0     C52972  -0.460  -0.189   5.513 -0.2884 -0.3106  0.1616
  402MOL0     C52973  -0.401  -0.279   5.628  0.3430  0.4270  0.9094
  402MOL0     C52974  -0.461  -0.267   5.761  0.7476  0.0285 -0.2625
  402MOL0     C52975  -0.397  -0.173   5.840  0.1281  0.3153 -0.6647
  402MOL0    Cl52976  -0.424  -0.006   5.773  0.5316  0.4300  0.0662
  402MOL0     C52977  -0.269  -0.395   4.767 -0.2969 -0.5993  0.5009
  402MOL0     C52978  -0.146  -0.414   4.719 -0.0994 -0.2494 -0.0155
  402MOL0     O52979   0.153  -0.198   4.725 -0.6430 -0.2667  0.9167
  402MOL0     C52980   0.354  -0.491   4.725  0.3187 -0.8120  0.7642
  402MOL0     C52981   0.483  -0.532   4.720  0.5009 -1.1761  0.7288
  402MOL0     N52982   1.284  -0.523   4.541  0.4291 -0.1876 -0.9660
  402MOL0     N52983   1.401  -0.569   4.521  0.2319  0.2274 -0.0624
  402MOL0     C52984   2.334  -0.133   3.941 -0.1244 -1.0710  0.5325
  402MOL0     C52985   2.468  -0.111   3.892  0.0782  0.0355  0.0368
  402MOL0     C52986   2.859   0.114   3.804  0.2962 -0.6430 -1.8634
  402MOL0     C52987   2.870   0.057   3.685  0.0298 -0.4556  0.6662
  402MOL0     C52988   2.989   0.053   3.614 -0.6319 -0.5188  0.8357
  402MOL0     C52989   3.102   0.127   3.657 -0.0214  0.5390 -0.3605
  402MOL0     O52990   3.221   0.120   3.593 -0.3517 -0.3869  0.0528
  402MOL0     C52991   3.279  -0.016   3.591 -0.3292 -0.3968  0.2245
  402MOL0     C52992   3.266  -0.107   3.472 -0.5553  0.4114  0.4834
  402MOL0     C52993   3.381  -0.202   3.471  0.1250 -0.4873 -0.8615
  402MOL0     C52994   3.382  -0.315   3.578 -0.2793 -0.3002  0.1904
  402MOL0     C52995   3.426  -0.272   3.708  0.2414 -0.1835 -0.1887
  402MOL0     C52996   3.459  -0.229   3.817 -1.4441 -0.4844 -0.1868
  402MOL0     C52997   3.086   0.205   3.775  0.4531  0.1722  0.1713
  402MOL0     C52998   2.967   0.193   3.852  0.4060  0.1566  0.4796
  402MOL0     H52999   2.473   0.223   3.868  0.1087  0.1568  0.9547
  402MOL0     H53000   2.228   0.195   3.921 -0.1503 -0.1258 -0.4592
  402MOL0     H53001   2.049   0.140   4.049 -0.2503 -0.3747 -1.0752
  402MOL0     H53002   2.088   0.014   4.173 -1.7372 -1.8029  0.7617
  402MOL0     H53003   1.850   0.012   3.985 -0.5921 -0.2084  0.9499
  402MOL0     H53004   1.840   0.056   4.158  1.3887 -0.5564  1.4592
  402MOL0     H53005   1.963  -0.152   4.210 -0.6876  1.2145  0.8494
  402MOL0     H53006   1.924  -0.218   4.053 -0.3776  0.0932 -0.0985
  402MOL0     H53007   1.702  -0.146   4.249  0.2720 -0.9701  0.1054
  402MOL0     H53008   1.688  -0.196   4.075 -1.2199 -1.5076  0.0700
  402MOL0     H53009   1.832  -0.340   4.312  1.1008  0.2412 -0.2083
  402MOL0     H53010   1.803  -0.413   4.147 -2.7513 -4.1180  1.4402
  402MOL0     H53011   1.555  -0.327   4.204 -0.6719 -1.7500 -1.9257
  402MOL0     H53012   1.606  -0.379   4.365 -0.5961 -1.2531 -0.5899
  402MOL0     H53013   1.491  -0.525   4.139  1.4610 -0.1657 -0.6527
  402MOL0     H53014   1.656  -0.573   4.138  1.1490  0.6052  0.3595
  402MOL0     H53015   1.627  -0.636   4.371  1.5903  0.7355 -1.5294
  402MOL0     H53016   1.524  -0.721   4.254 -1.9202  1.0945 -0.5669
  402MOL0     H53017   1.265  -0.560   4.217  0.4220  2.9567 -0.3103
  402MOL0     H53018   1.007  -0.506   4.334 -2.9119 -0.0813  1.0039
  402MOL0     H53019   1.057  -0.392   4.461  3.2465  1.2503 -3.1645
  402MOL0     H53020   1.023  -0.677   4.558 -0.5815 -1.6645 -1.0406
  402MOL0     H53021   0.884  -0.624   4.487 -0.0288  1.3973 -1.5772
  402MOL0     H53022   0.952  -0.590   4.747 -0.7461 -0.2121 -1.3966
  402MOL0     H53023   1.056  -0.468   4.692  0.7398 -1.5799 -1.9952
  402MOL0     H53024   0.847  -0.359   4.586  0.1512 -1.8764 -1.3248
  402MOL0     H53025   0.825  -0.362   4.767 -2.6808 -1.3525  0.0699
  402MOL0     H53026   0.639  -0.249   4.615  0.5130 -0.6295  0.9033
  402MOL0     H53027   0.394  -0.166   4.626 -1.5487  0.1184  2.7847
  402MOL0     H53028   0.028  -0.264   4.970  0.4441  2.1651 -1.8907
  402MOL0     H53029  -0.194  -0.220   5.049 -1.1130  0.4150 -0.7071
  402MOL0     H53030  -0.357  -0.329   5.136  0.6813  1.6790  0.3245
  402MOL0     H53031  -0.531  -0.365   5.103 -3.5867  4.2595 -0.9318
  402MOL0     H53032  -0.557  -0.129   5.043  0.0812 -0.4144 -0.9461
  402MOL0     H53033  -0.389  -0.097   5.099 -0.5236  0.3563  1.1437
  402MOL0     H53034  -0.628  -0.176   5.253 -0.9482  1.7056 -1.0446
  402MOL0     H53035  -0.514  -0.043   5.279  1.0708 -1.1946  1.8078
  402MOL0     H53036  -0.463  -0.337   5.352 -0.2138  0.1669  5.0901
  402MOL0     H53037  -0.330  -0.216   5.342  0.2970  0.6293 -2.1395
  402MOL0     H53038  -0.568  -0.171   5.520 -0.2783  1.3742 -2.5705
  402MOL0     H53039  -0.412  -0.091   5.514 -0.5129 -0.1809 -0.8011
  402MOL0     H53040  -0.295  -0.277   5.653  0.0191  2.5036  2.3844
  402MOL0     H53041  -0.426  -0.382   5.601  0.9263  0.1773  1.3159
  402MOL0     H53042  -0.568  -0.245   5.753  0.5489 -0.0414  1.5906
  402MOL0     H53043  -0.457  -0.362   5.814  1.1798  1.0885  1.7080
  402MOL0     H53044  -0.289  -0.184   5.851 -0.1300 -0.1867  2.5091
  402MOL0     H53045  -0.438  -0.162   5.941  0.2325 -1.9833 -0.3047
  402MOL0     H53046  -0.353  -0.434   4.711 -1.6584  2.0990  0.4941
  402MOL0     H53047  -0.134  -0.458   4.621  0.0288  2.4693 -1.3063
  402MOL0     H53048   0.279  -0.567   4.742 -0.0110 -1.3060 -2.2966
  402MOL0     H53049   0.517  -0.632   4.741  0.9677 -0.6971  2.4139
  402MOL0     H53050   2.310  -0.234   3.973 -1.2103 -0.6223  1.1873
  402MOL0     H53051   2.549  -0.183   3.880  1.2716  0.8482  2.5836
  402MOL0     H53052   2.788  -0.002   3.644  0.4519 -1.5182  1.3144
  402MOL0     H53053   2.985  -0.013   3.528  0.3019  2.4146 -1.6386
  402MOL0     H53054   3.244  -0.075   3.676 -2.1374 -3.1618 -2.2574
  402MOL0     H53055   3.385  -0.002   3.615  0.4420 -1.5709 -2.1877
  402MOL0     H53056   3.164  -0.147   3.465 -1.3936  2.6469 -1.7005
  402MOL0     H53057   3.286  -0.038   3.389  1.9660 -2.1441 -1.2109
  402MOL0     H53058   3.479  -0.152   3.474  0.0025 -0.2728 -0.4047
  402MOL0     H53059   3.376  -0.259   3.378  1.4132 -0.2313 -1.1143
  402MOL0     H53060   3.282  -0.359   3.585 -0.3170 -0.0647  1.3429
  402MOL0     H53061   3.447  -0.400   3.553 -1.5073 -1.8612  2.0471
  402MOL0     H53062   3.479  -0.176   3.908  4.5519 -4.4695  1.4501
  402MOL0     H53063   3.166   0.260   3.823 -1.1665  2.2866  0.6064
  402MOL0     H53064   2.963   0.232   3.953 -1.0154 -0.3915  0.6626
  403MOL0     O53065   2.466   1.180   2.193  0.3627 -0.1484  0.4734
  403MOL0     C53066   2.502   1.092   2.121 -0.3681  0.3257 -0.1360
  403MOL0     O53067   2.541   1.107   1.994 -0.3550  0.1711  0.3258
  403MOL0     C53068   2.550   1.245   1.951  0.1873  0.0792 -0.6768
  403MOL0     C53069   2.486   1.275   1.829  0.1378 -0.2627 -0.0954
  403MOL0     C53070   2.499   1.402   1.764  0.1221  0.5286 -0.0100
  403MOL0     C53071   2.562   1.502   1.844  0.2996 -0.0995 -0.2329
  403MOL0     O53072   2.569   1.622   1.791  0.3539 -0.5171  0.5012
  403MOL0     C53073   2.477   1.706   1.861 -0.2049  0.6808  1.0186
  403MOL0     C53074   2.492   1.846   1.804  0.0402 -0.1500 -0.2495
  403MOL0     C53075   2.389   1.863   1.689 -0.9685 -0.6073 -0.1337
  403MOL0     C53076   2.397   1.757   1.582  0.3603 -0.0879 -0.3327
  403MOL0     C53077   2.334   1.798   1.450 -0.9490  0.9405 -0.4609
  403MOL0     C53078   2.178   1.795   1.471 -1.6091 -0.7834  0.1507
  403MOL0     C53079   2.101   1.864   1.359 -0.1869 -0.4483  0.1157
  403MOL0     C53080   2.110   1.793   1.226 -0.2031 -0.2912  0.2092
  403MOL0     N53081   1.987   1.818   1.130 -0.1925  0.1792 -0.6702
  403MOL0     C53082   1.971   1.929   1.055 -0.6154 -0.2736  0.4049
  403MOL0     C53083   1.848   1.911   0.995  0.4786 -0.1291 -0.2404
  403MOL0     C53084   1.770   1.999   0.894 -0.5737 -0.1094 -0.3006
  403MOL0     C53085   1.754   1.903   0.776  0.4787 -0.4751 -0.5344
  403MOL0     C53086   1.714   1.970   0.643 -0.2567  0.2845  0.1704
  403MOL0     C53087   1.682   1.846   0.555  0.3813  0.7842  0.2176
  403MOL0     O53088   1.662   1.878   0.421 -0.3794  0.0245  0.3599
  403MOL0     C53089   1.768   1.914   0.340  1.1770 -0.5897 -0.9409
  403MOL0     C53090   1.743   1.971   0.218 -0.0272  0.9125  0.1047
  403MOL0     C53091   1.850   2.012   0.133 -0.1305 -0.5278 -0.5640
  403MOL0     C53092   1.982   2.002   0.179 -0.1691  0.2756  0.1631
  403MOL0     C53093   2.091   2.042   0.092 -0.1180 -1.2594  0.1597
  403MOL0     O53094   2.210   1.991   0.128  0.2162 -1.0639 -1.0405
  403MOL0     C53095   2.322   2.034   0.059 -0.0455 -0.7286  0.1969
  403MOL0     C53096   2.382   2.157   0.080 -0.5632 -0.2028  0.6936
  403MOL0     C53097   2.494   2.187   0.003 -0.1142 -0.8739 -0.3673
  403MOL0     C53098   2.542   2.102  -0.101 -0.5839 -0.0290 -0.2350
  403MOL0     O53099   2.649   2.149  -0.171 -0.9002 -0.3088 -0.2055
  403MOL0     C53100   2.686   2.076  -0.287 -0.1236 -0.1297 -0.4109
  403MOL0     C53101   2.818   2.122  -0.350  0.5337  0.0223 -0.1679
  403MOL0     C53102   2.846   2.278  -0.351  0.1619  0.5694  0.9855
  403MOL0     C53103   2.996   2.290  -0.396  0.5426  0.8367 -0.1649
  403MOL0     C53104   3.029   2.438  -0.414 -0.7081 -0.3876  0.0645
  403MOL0     C53105   3.182   2.461  -0.456  0.0626  0.7400 -0.3627
  403MOL0     C53106   3.208   2.597  -0.496  1.0034 -0.3948 -0.8417
  403MOL0     C53107   3.343   2.609  -0.566 -0.5054  0.5891  0.4135
  403MOL0    Cl53108   3.371   2.514  -0.718 -0.2444  0.5362  0.1832
  403MOL0     C53109   2.474   1.981  -0.115  0.2110  0.5797 -0.3389
  403MOL0     C53110   2.364   1.947  -0.041  0.0623  0.5437 -0.8077
  403MOL0     O53111   2.074   2.114  -0.007  0.0479 -0.1404  0.2598
  403MOL0     C53112   2.006   1.950   0.307  0.0736  0.0412 -0.2162
  403MOL0     C53113   1.900   1.901   0.384  0.1120 -0.5559 -0.7789
  403MOL0     N53114   1.790   1.798   1.050  0.0311  0.1260 -0.3642
  403MOL0     N53115   1.878   1.742   1.125 -0.3634  0.5516  0.3771
  403MOL0     C53116   2.620   1.476   1.970  0.5838  0.3924  0.6653
  403MOL0     C53117   2.615   1.350   2.022  0.6910  0.7710 -0.4052
  403MOL0     C53118   2.489   0.954   2.177 -1.0875 -0.4038  0.0683
  403MOL0     C53119   2.504   0.928   2.314 -0.1238 -0.3041 -0.1551
  403MOL0     C53120   2.512   0.801   2.363 -0.0776  0.6761 -0.6188
  403MOL0     C53121   2.503   0.685   2.286  0.1746 -0.6455 -0.4548
  403MOL0     O53122   2.507   0.558   2.319 -0.3108  1.4120  0.7598
  403MOL0     C53123   2.571   0.522   2.445 -0.8171 -0.4651 -0.2765
  403MOL0     C53124   2.629   0.375   2.444 -0.1227  0.5898  0.2781
  403MOL0     C53125   2.700   0.339   2.575 -0.1169 -0.2127 -0.3267
  403MOL0     C53126   2.761   0.201   2.562 -0.6393  0.7209 -0.5599
  403MOL0     C53127   2.893   0.216   2.498 -0.0733  0.3120 -0.4511
  403MOL0     C53128   3.013   0.222   2.480 -0.5635 -0.0748 -0.5141
  403MOL0     C53129   2.498   0.711   2.149 -0.4042  0.5450 -0.1173
  403MOL0     C53130   2.494   0.841   2.093  0.2980 -0.1546  0.3107
  403MOL0     H53131   2.428   1.206   1.767 -2.9751  2.0006  0.0538
  403MOL0     H53132   2.461   1.428   1.666 -1.1055  0.4592  0.4249
  403MOL0     H53133   2.510   1.706   1.965  0.4509  1.0518  0.8182
  403MOL0     H53134   2.377   1.666   1.842  0.6887 -0.6899 -1.1956
  403MOL0     H53135   2.592   1.861   1.764  1.8926 -1.1872  3.5394
  403MOL0     H53136   2.484   1.916   1.887 -0.9761  1.5210 -1.6681
  403MOL0     H53137   2.392   1.964   1.647 -1.1019 -1.3173 -1.9615
  403MOL0     H53138   2.291   1.860   1.739 -0.4831 -0.6936  0.8287
  403MOL0     H53139   2.500   1.739   1.551  0.0537  0.0333 -1.4509
  403MOL0     H53140   2.354   1.667   1.628  1.9673  1.0502  3.8746
  403MOL0     H53141   2.356   1.729   1.369 -1.9561  0.3489 -0.2617
  403MOL0     H53142   2.364   1.899   1.422  1.9864  1.0694  2.5525
  403MOL0     H53143   2.154   1.863   1.553 -0.4254  0.9190 -0.8152
  403MOL0     H53144   2.138   1.694   1.481 -2.8707 -0.3280 -0.0889
  403MOL0     H53145   1.996   1.863   1.392 -0.5551 -0.3594 -1.0191
  403MOL0     H53146   2.131   1.968   1.342 -0.3777 -0.5581 -0.9391
  403MOL0     H53147   2.105   1.685   1.243 -1.3403 -0.2054  0.5268
  403MOL0     H53148   2.198   1.825   1.169  0.2050 -0.9932  0.4379
  403MOL0     H53149   2.023   2.019   1.024 -2.6814  1.5709  1.9574
  403MOL0     H53150   1.826   2.085   0.855 -1.1179  0.0647 -0.7199
  403MOL0     H53151   1.677   2.039   0.935 -1.2842 -0.6530 -1.3417
  403MOL0     H53152   1.688   1.824   0.811  0.5608 -0.4367 -0.2911
  403MOL0     H53153   1.851   1.857   0.754 -0.7075 -2.1384 -2.6140
  403MOL0     H53154   1.619   2.021   0.662 -0.7085 -0.5748  0.3113
  403MOL0     H53155   1.785   2.035   0.592 -0.4556 -0.7020 -1.4592
  403MOL0     H53156   1.587   1.802   0.588  1.4436 -2.6294 -0.9711
  403MOL0     H53157   1.753   1.764   0.562  0.2205  0.4972 -1.2494
  403MOL0     H53158   1.637   1.979   0.197 -0.3916  2.2769  2.1596
  403MOL0     H53159   1.827   2.047   0.033 -0.2378 -1.9134 -1.0502
  403MOL0     H53160   2.337   2.224   0.153 -1.3385 -2.4841  2.4095
  403MOL0     H53161   2.543   2.280   0.029  1.9887 -2.4900  1.8964
  403MOL0     H53162   2.607   2.085  -0.361 -1.0695  1.3298  0.7255
  403MOL0     H53163   2.712   1.971  -0.271  2.3093  0.7083  1.9613
  403MOL0     H53164   2.823   2.085  -0.453  2.0998  2.8380 -1.2187
  403MOL0     H53165   2.889   2.056  -0.299  0.9941 -0.9685 -1.9747
  403MOL0     H53166   2.828   2.332  -0.257  1.8200  0.4416  1.4109
  403MOL0     H53167   2.779   2.328  -0.421 -0.3626 -0.0802  1.0182
  403MOL0     H53168   3.068   2.250  -0.323  0.9578  0.5024 -0.7479
  403MOL0     H53169   3.009   2.231  -0.487  0.5698  1.9267 -0.8932
  403MOL0     H53170   3.001   2.504  -0.331  1.1405  2.1794 -1.1906
  403MOL0     H53171   2.969   2.477  -0.497 -0.2349  0.4288  0.0947
  403MOL0     H53172   3.213   2.397  -0.538 -0.0292  1.4484 -0.9602
  403MOL0     H53173   3.236   2.439  -0.364 -1.2415  1.5240  0.6385
  403MOL0     H53174   3.136   2.638  -0.567  0.4743  0.8851  0.4010
  403MOL0     H53175   3.211   2.655  -0.403 -0.1032 -3.0426  0.9767
  403MOL0     H53176   3.414   2.574  -0.490 -1.1223 -0.8371  0.3693
  403MOL0     H53177   3.358   2.715  -0.590 -1.4329  0.3918 -1.1445
  403MOL0     H53178   2.496   1.900  -0.184  0.2045 -0.9748  1.3936
  403MOL0     H53179   2.316   1.852  -0.060  1.6813 -0.5541  0.3809
  403MOL0     H53180   2.108   1.922   0.332  0.9148 -0.5990 -3.6897
  403MOL0     H53181   1.935   1.862   0.479  0.2769  1.7617  0.1830
  403MOL0     H53182   2.671   1.556   2.023 -1.2227  2.2371 -0.2619
  403MOL0     H53183   2.648   1.330   2.123  0.1720  1.2017 -0.1467
  403MOL0     H53184   2.524   1.011   2.381  0.8210 -0.7349  0.1128
  403MOL0     H53185   2.521   0.792   2.471 -1.5955  2.5629 -0.2642
  403MOL0     H53186   2.493   0.524   2.522  0.7276  1.7520  1.3540
  403MOL0     H53187   2.654   0.586   2.478 -1.7672  0.1968  0.9350
  403MOL0     H53188   2.539   0.314   2.429 -1.0819  1.7464  1.1512
  403MOL0     H53189   2.701   0.359   2.363  0.1531  1.0931  0.4238
  403MOL0     H53190   2.627   0.345   2.657  0.6968  2.1052  0.2995
  403MOL0     H53191   2.776   0.414   2.598  1.0511 -2.1023  2.6084
  403MOL0     H53192   2.775   0.160   2.662  2.4384 -0.0687 -1.1951
  403MOL0     H53193   2.702   0.124   2.510 -3.0652  1.2772  1.1687
  403MOL0     H53194   3.117   0.239   2.458  0.0334 -1.1737  1.2804
  403MOL0     H53195   2.502   0.619   2.092 -3.1977  0.1326  0.2205
  403MOL0     H53196   2.493   0.839   1.984 -0.1665 -1.8471  0.3233
  404MOL0     O53197   6.332   0.016   2.785 -0.3311 -0.2188  0.6281
  404MOL0     C53198   6.377   0.058   2.890 -0.2631 -0.3140 -1.0444
  404MOL0     O53199   6.353   0.180   2.949  1.1151 -0.4562  0.1863
  404MOL0     C53200   6.305   0.287   2.880  0.1806 -0.9374 -0.7537
  404MOL0     C53201   6.247   0.395   2.951  0.1149  0.2304  0.2085
  404MOL0     C53202   6.212   0.510   2.884  0.5665  0.3202  0.7864
  404MOL0     C53203   6.241   0.536   2.748 -0.1126  0.2974 -0.7882
  404MOL0     O53204   6.210   0.670   2.709 -0.4944 -0.2162 -0.3260
  404MOL0     C53205   6.203   0.696   2.566  0.1848 -0.3834  0.2632
  404MOL0     C53206   6.113   0.596   2.491 -0.3674  0.1838  0.6891
  404MOL0     C53207   6.124   0.635   2.344  0.4833 -0.8747 -0.7606
  404MOL0     C53208   6.030   0.534   2.269 -0.2238  0.7420 -0.3089
  404MOL0     C53209   6.019   0.573   2.119 -1.2642  0.0601  0.1927
  404MOL0     C53210   5.957   0.459   2.030 -0.6700 -0.2815 -0.2888
  404MOL0     C53211   5.918   0.522   1.898 -0.9571  1.0628 -0.7248
  404MOL0     C53212   5.790   0.611   1.886 -0.3931  0.6748  0.2357
  404MOL0     N53213   5.668   0.545   1.935 -0.0544 -0.2562  1.0868
  404MOL0     C53214   5.599   0.592   2.040 -0.0026  0.0204 -0.1251
  404MOL0     C53215   5.481   0.528   2.049  0.0192  0.0186  0.2371
  404MOL0     C53216   5.378   0.543   2.157 -0.6414 -0.1592 -0.8157
  404MOL0     C53217   5.246   0.469   2.143  0.4243  0.0854 -0.5370
  404MOL0     C53218   5.138   0.550   2.063 -0.5220  0.3602 -0.2976
  404MOL0     C53219   5.005   0.482   2.068  0.0851  0.6200  0.0538
  404MOL0     O53220   4.940   0.478   2.201 -0.3880 -0.1886  0.0850
  404MOL0     C53221   4.807   0.473   2.228 -0.1560  0.7797  0.4823
  404MOL0     C53222   4.762   0.481   2.361 -0.6380 -0.1271  0.0880
  404MOL0     C53223   4.625   0.454   2.390 -0.2384 -0.4475  0.5166
  404MOL0     C53224   4.539   0.428   2.282  0.3538 -0.1176  0.8739
  404MOL0     C53225   4.393   0.428   2.307 -0.9491 -0.9189 -0.4105
  404MOL0     O53226   4.313   0.386   2.209 -0.7838  0.3278 -0.5310
  404MOL0     C53227   4.184   0.350   2.238  0.0575 -0.2143  0.0212
  404MOL0     C53228   4.106   0.346   2.121  0.5124 -0.8430 -0.4591
  404MOL0     C53229   3.973   0.307   2.117  0.5596  1.0288 -0.8652
  404MOL0     C53230   3.916   0.273   2.243  0.2671 -0.1675  0.3100
  404MOL0     O53231   3.785   0.227   2.255  0.6446  0.5817  0.0625
  404MOL0     C53232   3.689   0.266   2.157 -0.2737 -0.3483  0.3822
  404MOL0     C53233   3.549   0.235   2.205  0.4818 -0.2929 -0.5443
  404MOL0     C53234   3.437   0.288   2.123 -0.0226  0.3308  0.7667
  404MOL0     C53235   3.358   0.385   2.201  0.3756  0.1730  0.2140
  404MOL0     C53236   3.227   0.420   2.128  0.3797 -0.6473 -0.5080
  404MOL0     C53237   3.150   0.519   2.207  0.1627 -0.2908  0.2026
  404MOL0     C53238   3.015   0.548   2.139 -0.2722 -1.1112  0.4185
  404MOL0     C53239   2.917   0.438   2.102 -0.7362  0.0633 -0.8661
  404MOL0    Cl53240   2.772   0.509   2.036 -0.6202  0.0056  0.3641
  404MOL0     C53241   3.987   0.294   2.366  0.8595 -0.3916 -0.1561
  404MOL0     C53242   4.122   0.320   2.362 -0.2390 -0.1034 -1.0790
  404MOL0     O53243   4.350   0.485   2.410  0.4130  0.2019 -0.4484
  404MOL0     C53244   4.584   0.429   2.149 -0.4816  0.5012  0.6035
  404MOL0     C53245   4.724   0.455   2.118 -0.5836  0.2221 -0.0956
  404MOL0     N53246   5.478   0.448   1.940  0.6811  0.2092 -0.2440
  404MOL0     N53247   5.588   0.455   1.869 -0.2777 -0.0626 -0.6735
  404MOL0     C53248   6.310   0.437   2.680  0.5339  0.0910 -0.2527
  404MOL0     C53249   6.340   0.314   2.751 -0.0005 -1.1701  0.4716
  404MOL0     C53250   6.464  -0.035   2.963 -0.6771 -0.3082 -0.3930
  404MOL0     C53251   6.462  -0.173   2.929  0.2227  0.9625 -0.3079
  404MOL0     C53252   6.536  -0.268   3.006  0.6695 -1.5009  0.6633
  404MOL0     C53253   6.621  -0.227   3.105  0.3425  1.2825 -0.2561
  404MOL0     O53254   6.711  -0.320   3.164  0.2731 -0.4791 -0.1054
  404MOL0     C53255   6.844  -0.277   3.190 -0.9602 -0.5558 -0.8041
  404MOL0     C53256   6.937  -0.375   3.117 -0.1917 -0.4529 -0.7254
  404MOL0     C53257   6.914  -0.380   2.961 -0.1030  0.6622  0.8732
  404MOL0     C53258   7.008  -0.468   2.882  0.4379 -0.7466  0.6829
  404MOL0     C53259   6.994  -0.446   2.741 -0.6717 -0.3377  0.2036
  404MOL0     C53260   6.974  -0.413   2.622 -0.3891  0.1588 -1.3322
  404MOL0     C53261   6.630  -0.093   3.134  0.3121  1.0133  0.0805
  404MOL0     C53262   6.547   0.003   3.074 -0.4817  0.4582  0.1828
  404MOL0     H53263   6.224   0.380   3.056 -2.2055  1.1719 -0.1077
  404MOL0     H53264   6.151   0.585   2.933 -1.2170 -1.0646  0.7843
  404MOL0     H53265   6.297   0.711   2.514  0.4438  0.3360  0.9253
  404MOL0     H53266   6.150   0.792   2.563 -0.8280 -0.9070  0.7522
  404MOL0     H53267   6.008   0.602   2.523 -1.0332 -2.0795 -0.7986
  404MOL0     H53268   6.151   0.493   2.495 -2.1722 -0.8081 -3.0440
  404MOL0     H53269   6.223   0.622   2.298  0.3253 -2.5797 -0.6723
  404MOL0     H53270   6.088   0.738   2.342  1.6482 -0.2863  2.4838
  404MOL0     H53271   6.063   0.431   2.282 -1.9635  0.4698  3.5724
  404MOL0     H53272   5.929   0.529   2.313  0.7830  2.0280  2.4059
  404MOL0     H53273   6.122   0.586   2.084 -0.1735 -1.7775  2.4330
  404MOL0     H53274   5.960   0.664   2.113 -1.2491  0.0528 -0.1369
  404MOL0     H53275   5.873   0.411   2.081 -1.0909  2.4417  1.7974
  404MOL0     H53276   6.034   0.384   2.009  1.2857  1.9260 -1.5415
  404MOL0     H53277   6.006   0.579   1.868  2.7845 -2.0757  3.1082
  404MOL0     H53278   5.905   0.451   1.816  0.8474  0.3846 -0.4735
  404MOL0     H53279   5.781   0.644   1.782 -0.8780  1.9828  0.6781
  404MOL0     H53280   5.807   0.712   1.925  0.1621  0.8817 -0.5120
  404MOL0     H53281   5.628   0.670   2.110 -0.7419 -0.5819  0.8837
  404MOL0     H53282   5.363   0.651   2.168  0.8155 -0.1303  1.4427
  404MOL0     H53283   5.421   0.519   2.254 -2.0742  1.6193  0.3331
  404MOL0     H53284   5.201   0.445   2.240 -0.7698  1.9866 -0.5757
  404MOL0     H53285   5.256   0.379   2.081 -0.4358 -1.0402  0.8854
  404MOL0     H53286   5.124   0.649   2.107  2.3801  1.6504 -1.9534
  404MOL0     H53287   5.159   0.564   1.956 -4.0954 -0.1887 -1.1919
  404MOL0     H53288   5.018   0.376   2.044  1.8590  1.3265 -2.5860
  404MOL0     H53289   4.936   0.533   2.000  0.1429  0.0844 -0.4213
  404MOL0     H53290   4.826   0.498   2.448 -1.3056 -0.2097  0.6040
  404MOL0     H53291   4.591   0.451   2.493  3.5899 -0.0778  1.9521
  404MOL0     H53292   4.153   0.382   2.030 -0.2849  3.0373  0.4842
  404MOL0     H53293   3.919   0.303   2.023 -1.0175 -0.1623  0.0271
  404MOL0     H53294   3.718   0.231   2.058  4.0006 -1.1604  1.6959
  404MOL0     H53295   3.696   0.374   2.141 -1.2160 -0.4560 -0.9251
  404MOL0     H53296   3.536   0.276   2.306 -1.3032 -0.0730 -0.8295
  404MOL0     H53297   3.540   0.126   2.207  1.6762 -0.4036 -0.4472
  404MOL0     H53298   3.364   0.209   2.099 -0.6703  1.8629 -2.8045
  404MOL0     H53299   3.473   0.344   2.037  1.4269  1.3153  1.9565
  404MOL0     H53300   3.344   0.341   2.300  0.5113  1.1816  0.6946
  404MOL0     H53301   3.430   0.468   2.201  1.6873 -0.9207  1.1815
  404MOL0     H53302   3.161   0.333   2.128  1.8068 -1.8051  1.5307
  404MOL0     H53303   3.243   0.459   2.027  3.4001  1.5851  0.6857
  404MOL0     H53304   3.208   0.612   2.208 -0.2900 -0.0057  1.3585
  404MOL0     H53305   3.125   0.480   2.306 -1.0093 -1.3287 -0.4836
  404MOL0     H53306   2.979   0.630   2.202  5.2734  2.6089 -0.4447
  404MOL0     H53307   3.045   0.606   2.051  0.4890  0.3855  1.6053
  404MOL0     H53308   2.888   0.368   2.181  1.2027 -2.0011 -1.8354
  404MOL0     H53309   2.969   0.379   2.025 -0.8463  1.0903 -1.7519
  404MOL0     H53310   3.939   0.280   2.462 -0.4061  0.2431 -0.6841
  404MOL0     H53311   4.163   0.330   2.462  0.1530 -0.7050 -1.1763
  404MOL0     H53312   4.518   0.407   2.066  2.7748 -3.6200 -1.2402
  404MOL0     H53313   4.756   0.465   2.015 -3.7661  2.0975 -1.0651
  404MOL0     H53314   6.346   0.452   2.579  1.9831 -0.6961  0.1308
  404MOL0     H53315   6.391   0.238   2.692 -2.4183 -1.5189 -1.3432
  404MOL0     H53316   6.397  -0.205   2.848  0.5384 -2.0157  0.4833
  404MOL0     H53317   6.517  -0.372   2.984  0.6309 -1.4668  0.5356
  404MOL0     H53318   6.874  -0.272   3.295  2.4067 -3.2443 -1.4652
  404MOL0     H53319   6.871  -0.180   3.145  1.6570 -0.1389  1.4464
  404MOL0     H53320   7.038  -0.341   3.144 -0.3866 -0.9987  0.8002
  404MOL0     H53321   6.934  -0.478   3.155 -0.5800 -0.2114 -0.0771
  404MOL0     H53322   6.923  -0.276   2.928  1.2564  1.0158  2.2617
  404MOL0     H53323   6.813  -0.419   2.943  0.3137 -1.0842  2.1037
  404MOL0     H53324   7.111  -0.440   2.905  0.0048  0.7188  0.9041
  404MOL0     H53325   6.981  -0.573   2.899  0.5993 -0.8652  0.2143
  404MOL0     H53326   6.952  -0.396   2.518 -1.0244  0.2748 -1.1760
  404MOL0     H53327   6.702  -0.058   3.208  0.6401  0.3465  0.0892
  404MOL0     H53328   6.554   0.108   3.104  3.5902  0.8005 -1.2958
  405MOL0     O53329   8.663   0.394   9.768  0.2048  0.0070 -0.0327
  405MOL0     C53330   8.704   0.496   9.824  0.4372 -0.6908  0.7589
  405MOL0     O53331   8.629   0.613   9.859 -0.4150 -0.3755 -0.2509
  405MOL0     C53332   8.505   0.624   9.801  0.2692 -0.7731 -0.2928
  405MOL0     C53333   8.442   0.564   9.693  0.4765  0.2974  0.1070
  405MOL0     C53334   8.305   0.572   9.674  0.0927 -1.1224  0.5162
  405MOL0     C53335   8.233   0.673   9.749 -1.0632  0.5822 -0.2039
  405MOL0     O53336   8.101   0.708   9.726  0.3824 -0.4362 -0.2351
  405MOL0     C53337   8.023   0.621   9.635 -0.1734  0.6061 -0.0793
  405MOL0     C53338   7.878   0.670   9.642  1.1765  0.2673 -0.3015
  405MOL0     C53339   7.784   0.549   9.612 -0.2794  0.0825  0.4459
  405MOL0     C53340   7.646   0.600   9.584  0.4383 -0.3093  0.4459
  405MOL0     C53341   7.545   0.503   9.518 -0.7918 -0.7793  0.8555
  405MOL0     C53342   7.515   0.381   9.596 -0.5214  1.2702 -0.7384
  405MOL0     C53343   7.409   0.284   9.537  0.4360 -0.4937 -0.2114
  405MOL0     C53344   7.264   0.348   9.540 -0.3830 -0.9584  0.4408
  405MOL0     N53345   7.166   0.275   9.463  0.2017 -0.2188  0.5957
  405MOL0     C53346   7.114   0.152   9.491  0.5408 -0.8387 -1.1298
  405MOL0     C53347   7.011   0.140   9.406  0.3387  0.0603 -0.2095
  405MOL0     C53348   6.927   0.021   9.376  0.2672  0.1565 -0.4932
  405MOL0     C53349   6.785   0.047   9.331  0.1571  0.2795 -0.3923
  405MOL0     C53350   6.710   0.116   9.445 -0.0183  0.8130 -0.2047
  405MOL0     C53351   6.554   0.122   9.443 -0.0719  0.1395  0.1915
  405MOL0     O53352   6.510   0.011   9.522 -0.2463  0.4939 -0.4953
  405MOL0     C53353   6.378   0.005   9.563 -1.0366  0.1738 -0.1266
  405MOL0     C53354   6.284   0.108   9.559  0.0553  0.3952 -0.1046
  405MOL0     C53355   6.162   0.097   9.617  0.2756 -0.0780  1.4384
  405MOL0     C53356   6.120  -0.011   9.690 -0.5984  0.3502 -0.2619
  405MOL0     C53357   5.984  -0.018   9.753 -0.4746 -0.2131  0.0086
  405MOL0     O53358   5.943  -0.143   9.774 -0.1463 -0.2111  0.2422
  405MOL0     C53359   5.817  -0.160   9.836 -0.2611 -0.1366 -0.3129
  405MOL0     C53360   5.807  -0.174   9.976  0.2077  0.2904 -0.2057
  405MOL0     C53361   5.689  -0.184  10.049 -0.7281 -0.1094  0.0604
  405MOL0     C53362   5.569  -0.193   9.974  0.2796 -0.5068  0.4690
  405MOL0     O53363   5.439  -0.210  10.034  0.8474 -0.2653 -0.1000
  405MOL0     C53364   5.354  -0.303   9.972 -0.0377 -0.9483 -0.4335
  405MOL0     C53365   5.218  -0.231   9.940  0.2209  0.5393 -0.2537
  405MOL0     C53366   5.137  -0.330   9.851 -0.2077  0.1359 -0.2343
  405MOL0     C53367   4.999  -0.272   9.809  0.7046  0.0486  0.1363
  405MOL0     C53368   4.911  -0.394   9.782 -0.1130 -0.5924 -0.8707
  405MOL0     C53369   4.758  -0.350   9.767 -0.2711  0.3868  0.0837
  405MOL0     C53370   4.669  -0.463   9.730 -0.0589 -0.7103  0.0642
  405MOL0     C53371   4.685  -0.495   9.582  0.1778  0.9039  0.7952
  405MOL0    Cl53372   4.542  -0.576   9.519  0.2913  0.9699  0.1176
  405MOL0     C53373   5.579  -0.189   9.827  0.3147 -0.4146  0.1084
  405MOL0     C53374   5.699  -0.176   9.759  0.0929  0.4911 -0.3253
  405MOL0     O53375   5.927   0.091   9.787 -1.3981  0.6111 -0.2432
  405MOL0     C53376   6.212  -0.119   9.686 -0.2010 -0.3234 -0.3449
  405MOL0     C53377   6.335  -0.112   9.622  0.2128  0.0459 -0.1563
  405MOL0     N53378   7.004   0.255   9.336  1.0131 -0.6890 -0.0768
  405MOL0     N53379   7.094   0.339   9.367 -0.3909  0.2285  0.3099
  405MOL0     C53380   8.305   0.751   9.842  0.0337  0.0331 -0.4374
  405MOL0     C53381   8.441   0.724   9.866 -0.8516 -0.3967 -0.4395
  405MOL0     C53382   8.835   0.491   9.891 -0.0065 -0.9079  0.0315
  405MOL0     C53383   8.906   0.376   9.897  0.3388 -0.5897 -1.1518
  405MOL0     C53384   9.034   0.383   9.960  0.1440 -0.2013  0.6374
  405MOL0     C53385   9.087   0.500  10.014  0.6020  0.0611  0.1321
  405MOL0     O53386   9.198   0.506  10.095  0.4739 -0.3069  0.2072
  405MOL0     C53387   9.292   0.393  10.106 -0.2203 -0.6453 -0.5202
  405MOL0     C53388   9.424   0.430  10.169  0.6259 -0.2535  1.0124
  405MOL0     C53389   9.528   0.317  10.175  0.2817 -0.9718  0.1342
  405MOL0     C53390   9.657   0.349  10.242  0.0603 -1.7559 -0.5458
  405MOL0     C53391   9.623   0.369  10.384  0.3157 -0.4632 -0.0307
  405MOL0     C53392   9.592   0.376  10.504 -0.0522 -0.8142  0.0810
  405MOL0     C53393   9.012   0.620  10.002 -0.2772  1.3737 -0.6597
  405MOL0     C53394   8.894   0.615   9.932  0.6229  0.1676  0.1237
  405MOL0     H53395   8.486   0.479   9.641  0.9955 -0.1589  1.2502
  405MOL0     H53396   8.250   0.516   9.599  0.2005 -0.5741  0.0202
  405MOL0     H53397   8.033   0.519   9.672  0.7402  0.3458 -1.0109
  405MOL0     H53398   8.053   0.625   9.530  0.3019  0.2264  0.0423
  405MOL0     H53399   7.859   0.749   9.569  0.5289 -0.3804 -0.8466
  405MOL0     H53400   7.856   0.695   9.746 -1.1893  0.3721 -0.7699
  405MOL0     H53401   7.792   0.481   9.698  2.5006 -1.2799 -0.7648
  405MOL0     H53402   7.818   0.504   9.518  0.0275  0.9671  0.1249
  405MOL0     H53403   7.618   0.628   9.686  0.8916  1.4338  0.1265
  405MOL0     H53404   7.649   0.690   9.521 -0.1627 -1.0906 -0.7399
  405MOL0     H53405   7.589   0.469   9.424 -0.3441 -0.1687  0.8425
  405MOL0     H53406   7.460   0.563   9.484  0.5877 -0.6921 -2.9196
  405MOL0     H53407   7.478   0.409   9.695 -1.9185  2.1891 -1.4790
  405MOL0     H53408   7.601   0.317   9.617 -1.4088 -0.4450 -2.0637
  405MOL0     H53409   7.434   0.254   9.435 -0.6956 -0.7804 -0.4220
  405MOL0     H53410   7.407   0.200   9.607  0.2240 -0.6003 -0.3451
  405MOL0     H53411   7.267   0.446   9.491  3.6175 -1.9903 -1.7968
  405MOL0     H53412   7.231   0.362   9.644 -1.9324 -2.5673  0.2217
  405MOL0     H53413   7.142   0.072   9.560  0.9438  0.9207  0.8498
  405MOL0     H53414   6.921  -0.044   9.464  0.9423  1.4724  0.5611
  405MOL0     H53415   6.969  -0.033   9.291  1.1206  0.8847 -0.5471
  405MOL0     H53416   6.731  -0.048   9.320  2.4241 -1.1837  0.3823
  405MOL0     H53417   6.786   0.105   9.239  2.8568  0.8757 -0.0435
  405MOL0     H53418   6.735   0.064   9.539  0.4641  0.1088 -0.7101
  405MOL0     H53419   6.749   0.217   9.439  0.5625  0.7129  1.4549
  405MOL0     H53420   6.510   0.115   9.344  0.7529 -1.2585 -0.1183
  405MOL0     H53421   6.508   0.209   9.490 -2.0512 -1.3127  1.0551
  405MOL0     H53422   6.306   0.198   9.502 -0.4546 -0.1490 -1.2017
  405MOL0     H53423   6.090   0.179   9.615  1.2142  0.7483 -0.2491
  405MOL0     H53424   5.900  -0.157  10.029  1.2784  1.3412 -2.3342
  405MOL0     H53425   5.688  -0.186  10.158  4.4082  1.0169  0.4194
  405MOL0     H53426   5.331  -0.378  10.048  1.5902 -1.0576 -0.0185
  405MOL0     H53427   5.397  -0.356   9.887 -1.0481 -0.6923 -1.1247
  405MOL0     H53428   5.246  -0.138   9.891  0.8171  0.1118 -0.7481
  405MOL0     H53429   5.160  -0.203  10.028  2.0542  2.6009  0.3831
  405MOL0     H53430   5.133  -0.416   9.918  3.2155 -0.1611 -0.2291
  405MOL0     H53431   5.192  -0.362   9.762  0.9119 -2.4877  1.2836
  405MOL0     H53432   4.956  -0.214   9.892  2.1925  0.3666  0.7423
  405MOL0     H53433   4.998  -0.200   9.727  0.2024 -0.3858 -0.2421
  405MOL0     H53434   4.917  -0.451   9.875  0.5722  2.6555  1.2483
  405MOL0     H53435   4.949  -0.452   9.697  0.8138 -0.5325 -0.5043
  405MOL0     H53436   4.751  -0.270   9.692  0.3732 -0.8030 -1.3184
  405MOL0     H53437   4.719  -0.318   9.863 -0.3579 -1.7312  0.8060
  405MOL0     H53438   4.695  -0.549   9.793  1.1630 -0.5107 -0.1257
  405MOL0     H53439   4.566  -0.432   9.747  0.0077 -0.3341 -0.1967
  405MOL0     H53440   4.769  -0.558   9.552  0.5431  1.6819  0.1198
  405MOL0     H53441   4.696  -0.402   9.525  1.5265  1.0096  1.2029
  405MOL0     H53442   5.490  -0.196   9.766  1.9571 -2.4158 -2.2442
  405MOL0     H53443   5.703  -0.164   9.651 -2.1204  2.8443 -0.2286
  405MOL0     H53444   6.189  -0.212   9.737 -1.1031  0.3928  0.6174
  405MOL0     H53445   6.395  -0.201   9.612  0.2677  0.1654 -0.9012
  405MOL0     H53446   8.255   0.835   9.888 -0.7805  0.4729 -2.0418
  405MOL0     H53447   8.497   0.779   9.942 -1.8666  0.5629 -0.3610
  405MOL0     H53448   8.889   0.278   9.854 -1.8085 -0.5431 -0.5067
  405MOL0     H53449   9.084   0.287   9.962  1.6111  0.5147  0.1241
  405MOL0     H53450   9.318   0.367  10.002 -0.0142  3.0282 -1.5381
  405MOL0     H53451   9.254   0.304  10.157 -1.8377  0.2483 -0.1371
  405MOL0     H53452   9.465   0.510  10.108 -1.1706  0.2475  0.4236
  405MOL0     H53453   9.415   0.483  10.264  0.9116  1.6959 -0.0021
  405MOL0     H53454   9.555   0.298  10.070 -0.0644  1.6563 -0.5191
  405MOL0     H53455   9.486   0.225  10.216  0.7123 -1.1466  0.1860
  405MOL0     H53456   9.725   0.265  10.227 -0.4803 -2.4388  0.5887
  405MOL0     H53457   9.710   0.439  10.211  2.0911 -2.1388  1.5079
  405MOL0     H53458   9.572   0.372  10.609  2.1943  0.1793  0.6038
  405MOL0     H53459   9.053   0.710  10.047  1.5795 -0.1809  0.9429
  405MOL0     H53460   8.848   0.709   9.902  1.3173  0.7288  0.7950
  406MOL0     O53461   6.375   6.745   3.828  0.3825  0.9801  0.0992
  406MOL0     C53462   6.392   6.791   3.939  0.0862 -1.0019 -0.1068
  406MOL0     O53463   6.454   6.908   3.961  0.7245  0.3124  0.5749
  406MOL0     C53464   6.517   6.971   3.856  0.1533  0.0122  0.2298
  406MOL0     C53465   6.495   7.106   3.845 -0.1029  0.4125 -0.3407
  406MOL0     C53466   6.554   7.180   3.745  0.3598  0.0682  0.0709
  406MOL0     C53467   6.645   7.128   3.652  0.7951 -0.7556  0.3494
  406MOL0     O53468   6.702   7.205   3.566  0.2111  0.0039  0.1271
  406MOL0     C53469   6.838   7.194   3.532  0.1629  0.0133 -0.2592
  406MOL0     C53470   6.849   7.287   3.414  0.2063 -0.1521 -0.3274
  406MOL0     C53471   6.993   7.316   3.385  0.5396  0.3769  0.6848
  406MOL0     C53472   7.004   7.408   3.265  0.0757 -0.3057 -0.1860
  406MOL0     C53473   7.153   7.420   3.227  0.4917  0.9391  0.0723
  406MOL0     C53474   7.241   7.479   3.338  0.4017  0.9460 -0.6260
  406MOL0     C53475   7.389   7.438   3.312 -0.3554  0.1100  0.2490
  406MOL0     C53476   7.465   7.524   3.203 -0.5151 -0.2522 -0.2703
  406MOL0     N53477   7.472   7.659   3.245  0.3174  0.1793 -0.3821
  406MOL0     C53478   7.421   7.768   3.185 -0.2744 -0.4895  0.1914
  406MOL0     C53479   7.462   7.871   3.260 -1.0863  0.4862  0.0769
  406MOL0     C53480   7.428   8.009   3.235 -0.2863 -0.5670  0.3640
  406MOL0     C53481   7.293   8.041   3.175  0.3021 -0.8073  0.9254
  406MOL0     C53482   7.244   8.190   3.186  0.6221 -0.7791  0.5220
  406MOL0     C53483   7.094   8.201   3.142  0.0105 -0.4895 -0.4917
  406MOL0     O53484   7.011   8.142   3.238  0.4790  0.1715  0.2015
  406MOL0     C53485   6.874   8.160   3.245  0.0647  0.8520  0.1983
  406MOL0     C53486   6.804   8.084   3.345 -0.7443 -0.3018  0.3579
  406MOL0     C53487   6.666   8.095   3.362 -0.1798 -0.4748 -1.1177
  406MOL0     C53488   6.580   8.179   3.282  0.0538 -0.2690  0.2409
  406MOL0     C53489   6.436   8.204   3.299 -0.6514 -0.1824  0.0455
  406MOL0     O53490   6.366   8.127   3.390  0.9101 -0.4059  0.7728
  406MOL0     C53491   6.240   8.156   3.419  0.5550  0.0600  0.0887
  406MOL0     C53492   6.147   8.056   3.376 -0.7215  0.0184 -0.4265
  406MOL0     C53493   6.014   8.069   3.398 -0.1554 -0.0126 -0.5813
  406MOL0     C53494   5.967   8.185   3.452 -0.2078 -0.4715 -0.3656
  406MOL0     O53495   5.835   8.225   3.466 -0.2569 -1.0767  0.3445
  406MOL0     C53496   5.734   8.142   3.414  0.0780  0.3338  0.3183
  406MOL0     C53497   5.588   8.198   3.438  0.4645  0.0305  0.1654
  406MOL0     C53498   5.472   8.129   3.366  0.5110  0.2501 -0.5062
  406MOL0     C53499   5.341   8.198   3.405  0.2763 -1.1198 -0.0265
  406MOL0     C53500   5.209   8.149   3.329  0.7546 -0.6353  0.0664
  406MOL0     C53501   5.226   8.096   3.179  0.1581 -0.2388 -0.4374
  406MOL0     C53502   5.095   8.022   3.147 -0.2308 -0.0632  0.8726
  406MOL0     C53503   5.075   8.010   2.994 -0.6878 -0.0639  0.5005
  406MOL0    Cl53504   4.967   7.869   2.965 -0.1363 -0.7005 -0.2593
  406MOL0     C53505   6.055   8.288   3.487 -0.1219 -0.0999 -0.2034
  406MOL0     C53506   6.192   8.271   3.475  0.7914 -0.5585 -0.1032
  406MOL0     O53507   6.387   8.295   3.234  0.5595  0.4493  0.1072
  406MOL0     C53508   6.646   8.248   3.178  1.0941  0.8205  0.3150
  406MOL0     C53509   6.787   8.242   3.159  0.2388  0.4627 -0.0080
  406MOL0     N53510   7.522   7.823   3.371 -0.1937 -0.0544 -0.6088
  406MOL0     N53511   7.542   7.698   3.353 -0.2431 -0.2097 -0.3252
  406MOL0     C53512   6.675   6.994   3.665  0.2771  0.7959  0.1080
  406MOL0     C53513   6.611   6.913   3.769 -0.6728 -0.0728  0.9397
  406MOL0     C53514   6.352   6.713   4.055 -0.2922  0.2775 -0.4039
  406MOL0     C53515   6.253   6.618   4.048  0.3427 -0.9481  0.3861
  406MOL0     C53516   6.200   6.539   4.148  0.2051 -0.1033 -0.3560
  406MOL0     C53517   6.248   6.556   4.275 -0.5573  0.0697 -0.9729
  406MOL0     O53518   6.203   6.470   4.372  0.4849 -0.3443 -0.0987
  406MOL0     C53519   6.063   6.491   4.410  1.0448 -0.2390 -0.3181
  406MOL0     C53520   5.993   6.349   4.414 -0.2977 -0.7850 -0.1593
  406MOL0     C53521   5.847   6.356   4.421  0.0049  1.2306  0.3208
  406MOL0     C53522   5.780   6.220   4.376 -0.6348 -0.9758  0.3052
  406MOL0     C53523   5.765   6.114   4.478  0.3858 -0.6144  0.1214
  406MOL0     C53524   5.750   6.041   4.569 -0.3497  0.2225  0.0271
  406MOL0     C53525   6.350   6.655   4.287 -0.0173  0.8614  0.4857
  406MOL0     C53526   6.395   6.738   4.180  0.7008 -0.4716  0.9417
  406MOL0     H53527   6.428   7.151   3.917  0.4322 -1.2986  1.2909
  406MOL0     H53528   6.525   7.284   3.730 -0.3895 -0.3352 -1.5032
  406MOL0     H53529   6.856   7.090   3.503 -1.5776 -1.2630  2.7632
  406MOL0     H53530   6.899   7.231   3.614 -0.3365 -1.7665  0.9841
  406MOL0     H53531   6.800   7.383   3.436  0.0226 -0.1986 -0.5220
  406MOL0     H53532   6.808   7.231   3.329 -2.0355  0.6977  0.0997
  406MOL0     H53533   7.045   7.222   3.365  2.8035  1.9156 -1.1599
  406MOL0     H53534   7.034   7.359   3.477 -2.0497  3.7593  0.4445
  406MOL0     H53535   6.948   7.375   3.177 -1.1592 -2.7925  1.3954
  406MOL0     H53536   6.970   7.506   3.301 -0.7197 -0.0679 -1.5326
  406MOL0     H53537   7.172   7.494   3.149  0.1561  2.6976  1.5755
  406MOL0     H53538   7.194   7.322   3.201 -1.9232 -0.8455  2.4373
  406MOL0     H53539   7.220   7.436   3.437  2.7476 -1.0145 -0.9091
  406MOL0     H53540   7.230   7.588   3.330 -1.2544  0.7096 -2.2631
  406MOL0     H53541   7.453   7.452   3.400  1.1524 -0.8074 -0.6544
  406MOL0     H53542   7.398   7.331   3.292  1.1960  0.1200  0.7346
  406MOL0     H53543   7.407   7.536   3.111  2.4616  1.4577 -2.0842
  406MOL0     H53544   7.560   7.473   3.188 -0.8189 -0.9550  0.1261
  406MOL0     H53545   7.357   7.771   3.097  0.2083 -1.2151 -0.2023
  406MOL0     H53546   7.500   8.050   3.164  1.1961  0.7127  2.5023
  406MOL0     H53547   7.425   8.073   3.324  1.9081  1.2851 -0.8001
  406MOL0     H53548   7.230   7.983   3.243 -1.0263  1.2574  1.5366
  406MOL0     H53549   7.278   8.008   3.072 -1.2026 -1.3710  1.2950
  406MOL0     H53550   7.263   8.227   3.287  1.8355 -1.1451  0.4403
  406MOL0     H53551   7.298   8.255   3.117  0.1269 -2.8894 -2.0054
  406MOL0     H53552   7.076   8.148   3.048 -0.4116  1.3906 -1.5263
  406MOL0     H53553   7.062   8.304   3.120  0.6614 -0.1569  0.0813
  406MOL0     H53554   6.856   8.015   3.411 -1.6373 -0.5901  0.7695
  406MOL0     H53555   6.624   8.040   3.445 -1.0386  1.1197 -0.4461
  406MOL0     H53556   6.179   7.974   3.313 -3.1096  1.3367 -3.6424
  406MOL0     H53557   5.960   7.978   3.371  0.5020 -0.2154 -1.2220
  406MOL0     H53558   5.730   8.050   3.473  0.7694 -0.6311 -1.0918
  406MOL0     H53559   5.741   8.123   3.307 -3.3501 -2.1552  0.3600
  406MOL0     H53560   5.589   8.304   3.412  3.0133 -0.0083 -0.1107
  406MOL0     H53561   5.573   8.188   3.546 -0.4593  1.0188  0.1428
  406MOL0     H53562   5.471   8.024   3.397 -1.8399  0.5414  0.6388
  406MOL0     H53563   5.485   8.143   3.258 -1.9104  2.0152 -0.6578
  406MOL0     H53564   5.332   8.201   3.514 -0.9497  4.6853  0.0219
  406MOL0     H53565   5.355   8.303   3.376 -0.9372  1.2281  6.2410
  406MOL0     H53566   5.142   8.235   3.337  0.6536 -0.6300 -0.7637
  406MOL0     H53567   5.153   8.072   3.382 -0.1165 -0.5778 -0.7479
  406MOL0     H53568   5.308   8.023   3.175 -0.6805 -1.2897  0.5427
  406MOL0     H53569   5.230   8.168   3.098 -1.3891 -0.3813 -0.6640
  406MOL0     H53570   5.087   7.927   3.199 -0.1069 -0.6145 -0.0985
  406MOL0     H53571   5.013   8.088   3.175 -1.4220 -0.3508 -1.6895
  406MOL0     H53572   5.174   7.993   2.952  0.4038  1.8445  2.1548
  406MOL0     H53573   5.030   8.096   2.945  1.3859  0.7780 -0.0175
  406MOL0     H53574   6.009   8.378   3.526  1.6915  1.6377 -1.8270
  406MOL0     H53575   6.255   8.356   3.499 -2.4218  1.4376  2.0578
  406MOL0     H53576   6.583   8.306   3.112  1.6106 -0.3565 -1.2720
  406MOL0     H53577   6.817   8.301   3.073 -0.9329  0.0283 -0.7432
  406MOL0     H53578   6.749   6.957   3.595 -0.4376  2.0075 -1.3214
  406MOL0     H53579   6.637   6.810   3.791 -1.3825 -0.4633 -0.0031
  406MOL0     H53580   6.208   6.607   3.950  0.0625  0.8779  0.2728
  406MOL0     H53581   6.122   6.464   4.137  1.0090 -0.8841 -0.7969
  406MOL0     H53582   6.008   6.563   4.348 -0.7770 -0.3682  1.0648
  406MOL0     H53583   6.056   6.525   4.514 -0.3556  1.5164 -0.9256
  406MOL0     H53584   6.025   6.294   4.325 -0.5509 -3.3063  1.2009
  406MOL0     H53585   6.027   6.300   4.506  1.6454  2.4662  1.0227
  406MOL0     H53586   5.813   6.435   4.352  1.0379  1.5618  0.1762
  406MOL0     H53587   5.821   6.391   4.521 -3.7275  0.3487 -0.1868
  406MOL0     H53588   5.678   6.244   4.344  0.0682  1.6553 -0.2281
  406MOL0     H53589   5.829   6.187   4.285 -1.0234  2.5916 -1.3749
  406MOL0     H53590   5.737   5.962   4.640  2.3450  0.1954  0.5744
  406MOL0     H53591   6.394   6.664   4.386  0.6088  0.7125  0.2262
  406MOL0     H53592   6.473   6.812   4.194  0.0616  0.1040  1.5876
  407MOL0     O53593   4.855   7.070   2.085  0.0658  0.0394  0.1846
  407MOL0     C53594   4.876   7.088   1.968 -0.0681  0.6736  0.3346
  407MOL0     O53595   4.788   7.149   1.881  0.7859  0.0291  0.6906
  407MOL0     C53596   4.684   7.220   1.927  0.0651  0.2775  0.5053
  407MOL0     C53597   4.553   7.167   1.899 -0.2857  0.0641  0.4794
  407MOL0     C53598   4.438   7.235   1.934  0.4119  1.1693  0.3628
  407MOL0     C53599   4.448   7.353   1.997  0.3137  0.1111  0.7164
  407MOL0     O53600   4.330   7.423   2.018  0.4396  0.5393  0.1428
  407MOL0     C53601   4.325   7.459   2.158  0.0947 -0.0471  0.1955
  407MOL0     C53602   4.183   7.517   2.208  0.1252 -0.3403  0.0867
  407MOL0     C53603   4.152   7.659   2.156  0.0937 -0.0704 -1.1464
  407MOL0     C53604   4.061   7.751   2.230  0.0887 -0.1025 -0.0324
  407MOL0     C53605   3.919   7.698   2.225  0.6600  0.0280  0.6207
  407MOL0     C53606   3.853   7.717   2.077 -0.6113 -0.4367  0.4082
  407MOL0     C53607   3.709   7.668   2.075 -0.5782 -0.7087 -1.0882
  407MOL0     C53608   3.598   7.776   2.112  0.0831 -0.7273  0.6650
  407MOL0     N53609   3.567   7.853   1.987  0.3099 -0.0938 -0.0457
  407MOL0     C53610   3.640   7.961   1.944  0.2340  0.6704 -0.3547
  407MOL0     C53611   3.586   8.011   1.835  0.9545  0.3840  0.8589
  407MOL0     C53612   3.648   8.110   1.746  0.2955  0.5954  0.9328
  407MOL0     C53613   3.679   8.241   1.800 -0.3036  0.1967  0.2943
  407MOL0     C53614   3.782   8.317   1.719 -0.1915 -0.3053  0.8130
  407MOL0     C53615   3.724   8.388   1.600  0.8151  0.2947  0.7127
  407MOL0     O53616   3.656   8.499   1.651  0.6741  0.1017  0.3667
  407MOL0     C53617   3.538   8.520   1.586 -0.4054 -0.8558 -0.4728
  407MOL0     C53618   3.418   8.457   1.630 -0.4776 -0.2449  0.2236
  407MOL0     C53619   3.297   8.475   1.565  0.1674  0.7512 -0.0369
  407MOL0     C53620   3.295   8.548   1.441 -0.7048  0.2803  0.0561
  407MOL0     C53621   3.168   8.560   1.358  0.6562  0.8312  0.6048
  407MOL0     O53622   3.050   8.510   1.405 -0.1388  0.5362 -0.8221
  407MOL0     C53623   2.942   8.523   1.317 -0.1314  0.5291  0.1660
  407MOL0     C53624   2.915   8.420   1.221  0.0926 -0.2288  0.2539
  407MOL0     C53625   2.809   8.419   1.132 -0.9023  0.5162  0.0924
  407MOL0     C53626   2.718   8.527   1.138 -0.7583  0.1231  0.0092
  407MOL0     O53627   2.600   8.529   1.069  0.0212  0.1464  0.0948
  407MOL0     C53628   2.525   8.404   1.056  0.3122 -0.4114  0.0952
  407MOL0     C53629   2.380   8.445   1.070  0.5504 -0.2441 -0.1670
  407MOL0     C53630   2.340   8.520   1.199  0.1059  1.1567 -0.0851
  407MOL0     C53631   2.244   8.635   1.178  0.5403 -0.5346  0.3401
  407MOL0     C53632   2.230   8.716   1.308 -1.1020 -0.1917 -0.2155
  407MOL0     C53633   2.362   8.800   1.334  1.0604 -0.0117 -0.5611
  407MOL0     C53634   2.348   8.868   1.465 -0.0887 -0.6780  0.0778
  407MOL0     C53635   2.476   8.963   1.486  0.3823 -0.1208  0.5028
  407MOL0    Cl53636   2.623   8.862   1.480 -0.3041  0.2317  0.9233
  407MOL0     C53637   2.745   8.631   1.224 -0.1000 -0.9292  0.4401
  407MOL0     C53638   2.851   8.628   1.312  0.2087 -0.2390 -0.0785
  407MOL0     O53639   3.185   8.610   1.246 -0.5390  0.3534 -0.7975
  407MOL0     C53640   3.415   8.612   1.401 -0.4359 -0.1730  0.3537
  407MOL0     C53641   3.539   8.599   1.467  0.3580 -0.7226 -0.1300
  407MOL0     N53642   3.464   7.949   1.825 -0.2377  0.6866  0.3521
  407MOL0     N53643   3.455   7.856   1.915  0.8777  0.6102 -0.1902
  407MOL0     C53644   4.572   7.413   2.022 -0.3918  0.0011 -0.4879
  407MOL0     C53645   4.694   7.353   1.980  0.3457  0.4066  0.1186
  407MOL0     C53646   4.992   7.022   1.914 -0.2255 -0.0953  0.2338
  407MOL0     C53647   5.007   7.011   1.777  0.0317  1.0225 -0.6837
  407MOL0     C53648   5.123   6.965   1.719 -0.3894  0.2588 -0.0713
  407MOL0     C53649   5.235   6.937   1.800 -0.3219  0.3976  0.3204
  407MOL0     O53650   5.350   6.904   1.734 -0.1537 -0.0168 -0.0913
  407MOL0     C53651   5.462   6.980   1.787  0.5694  0.0123 -0.2709
  407MOL0     C53652   5.586   6.972   1.700 -0.6851 -0.0549 -0.3605
  407MOL0     C53653   5.701   6.888   1.749  0.1062 -0.3057  0.4178
  407MOL0     C53654   5.790   6.824   1.646 -0.4587 -0.2772 -1.1317
  407MOL0     C53655   5.842   6.894   1.530 -0.1193 -0.2957 -0.5209
  407MOL0     C53656   5.887   6.949   1.429 -0.6939 -1.0284  0.1107
  407MOL0     C53657   5.225   6.945   1.939  0.1239  0.0938  0.1059
  407MOL0     C53658   5.104   6.984   1.991 -0.4693  1.2010  0.1181
  407MOL0     H53659   4.539   7.081   1.835 -0.0079  1.1332 -1.1010
  407MOL0     H53660   4.343   7.201   1.895  0.8675  1.7362 -1.3543
  407MOL0     H53661   4.404   7.527   2.193  0.8895 -2.0445  2.5374
  407MOL0     H53662   4.340   7.370   2.220  1.9027  0.2646  0.2719
  407MOL0     H53663   4.189   7.527   2.317 -0.5153  0.7573  0.0310
  407MOL0     H53664   4.100   7.453   2.178  1.2889 -1.9735  0.1487
  407MOL0     H53665   4.108   7.654   2.056 -0.9537 -0.3229 -0.6937
  407MOL0     H53666   4.244   7.717   2.146  0.8343 -1.5573 -3.9242
  407MOL0     H53667   4.098   7.760   2.333 -1.5770  1.4919  0.4886
  407MOL0     H53668   4.058   7.847   2.177 -2.6816  0.0808  0.3173
  407MOL0     H53669   3.858   7.753   2.297 -0.5847 -1.5245  0.7977
  407MOL0     H53670   3.919   7.593   2.258  1.1536 -0.7279 -1.6103
  407MOL0     H53671   3.907   7.656   2.004  1.9361  1.3720  0.6523
  407MOL0     H53672   3.853   7.820   2.041 -0.9083 -0.3603  0.6238
  407MOL0     H53673   3.686   7.630   1.975 -0.1985 -3.7906 -0.1279
  407MOL0     H53674   3.702   7.583   2.144 -0.4698 -1.6382 -2.1854
  407MOL0     H53675   3.657   7.839   2.179 -2.0477  4.0536 -1.5071
  407MOL0     H53676   3.511   7.727   2.159 -0.7829 -0.6120 -0.7625
  407MOL0     H53677   3.736   7.996   1.981 -0.6706  1.1551  1.6545
  407MOL0     H53678   3.573   8.121   1.667 -1.1926  0.5113  2.2861
  407MOL0     H53679   3.734   8.051   1.714 -0.6528 -0.9570  1.1473
  407MOL0     H53680   3.727   8.212   1.894 -0.2744 -4.1808 -0.8277
  407MOL0     H53681   3.590   8.303   1.816 -0.6633 -0.2178 -0.0456
  407MOL0     H53682   3.825   8.387   1.791 -0.5289 -0.0437  0.7638
  407MOL0     H53683   3.858   8.244   1.691 -0.1372 -0.6598  1.8619
  407MOL0     H53684   3.658   8.319   1.549  1.1258  0.1530  0.4970
  407MOL0     H53685   3.800   8.425   1.530 -0.7676  3.2843  0.4195
  407MOL0     H53686   3.419   8.391   1.716  0.1125 -1.5538 -0.7490
  407MOL0     H53687   3.206   8.424   1.593  1.7770 -0.9710  2.4912
  407MOL0     H53688   2.970   8.327   1.233  0.7309  0.2056  0.7102
  407MOL0     H53689   2.799   8.329   1.072  1.2266  0.4037 -0.1528
  407MOL0     H53690   2.554   8.342   1.142  1.6867  0.0659  0.0022
  407MOL0     H53691   2.544   8.350   0.963  0.1552 -0.2959 -0.0041
  407MOL0     H53692   2.313   8.359   1.072 -0.0082  0.1833 -0.3140
  407MOL0     H53693   2.346   8.503   0.983 -0.8911 -0.2028  0.3904
  407MOL0     H53694   2.429   8.546   1.258 -0.2881 -2.4725  2.5270
  407MOL0     H53695   2.285   8.447   1.259  0.2506  2.5266  1.8215
  407MOL0     H53696   2.287   8.698   1.100  1.1963 -0.1284  1.0094
  407MOL0     H53697   2.148   8.602   1.138 -0.9322  3.3092  0.2528
  407MOL0     H53698   2.220   8.644   1.390 -3.1513 -0.5343 -0.7244
  407MOL0     H53699   2.147   8.786   1.313 -0.3765  0.6898 -0.1969
  407MOL0     H53700   2.375   8.865   1.246 -0.0591  2.3454  0.9173
  407MOL0     H53701   2.445   8.729   1.335  0.9777 -0.2185 -2.6622
  407MOL0     H53702   2.262   8.936   1.460  3.0648  3.6948 -1.3562
  407MOL0     H53703   2.342   8.795   1.545 -0.3538 -1.2765 -0.4770
  407MOL0     H53704   2.470   9.015   1.582 -1.4508 -1.3062  1.0834
  407MOL0     H53705   2.472   9.037   1.405 -0.2159 -2.1547 -1.4114
  407MOL0     H53706   2.672   8.711   1.227  0.8138  0.1710 -2.8069
  407MOL0     H53707   2.883   8.714   1.371  1.9015  0.1237 -1.4426
  407MOL0     H53708   3.410   8.667   1.308  1.4614  1.4339  1.1419
  407MOL0     H53709   3.623   8.652   1.424  1.2442 -1.1075  1.0868
  407MOL0     H53710   4.573   7.516   2.056  1.3110 -0.1733  0.0648
  407MOL0     H53711   4.788   7.408   1.988  1.4536 -1.5906  2.1383
  407MOL0     H53712   4.923   7.024   1.710 -0.4200  0.3348 -0.2593
  407MOL0     H53713   5.138   6.943   1.614  1.1564  2.0392 -0.2691
  407MOL0     H53714   5.494   6.940   1.883  5.1178  2.2018 -0.6223
  407MOL0     H53715   5.439   7.086   1.798  0.7823 -0.1299  1.8020
  407MOL0     H53716   5.562   6.947   1.597 -0.0686  2.5142 -1.1763
  407MOL0     H53717   5.630   7.072   1.695 -0.3358 -0.0599  1.6985
  407MOL0     H53718   5.662   6.803   1.806  0.1113 -1.2379 -0.9003
  407MOL0     H53719   5.764   6.948   1.814  1.5124 -0.0726 -1.0725
  407MOL0     H53720   5.873   6.787   1.706  1.6599 -0.0779 -3.7236
  407MOL0     H53721   5.745   6.729   1.615 -0.5840  0.6337 -4.1310
  407MOL0     H53722   5.912   7.000   1.338  2.4251 -1.1772  0.7734
  407MOL0     H53723   5.315   6.918   1.994  2.4786  0.1253 -3.4046
  407MOL0     H53724   5.098   6.982   2.099 -0.7196 -0.5628  0.0944
  408MOL0     O53725   4.710   9.935   7.766 -0.0736  0.3105  0.3754
  408MOL0     C53726   4.804   9.856   7.787  0.3635  0.9467  0.3206
  408MOL0     O53727   4.784   9.726   7.833 -0.3090  0.3176 -0.0373
  408MOL0     C53728   4.654   9.686   7.846  0.5342  0.4495  0.4824
  408MOL0     C53729   4.582   9.623   7.747 -0.1082  0.4333  0.0211
  408MOL0     C53730   4.455   9.562   7.782  0.7135  0.1162 -1.0578
  408MOL0     C53731   4.390   9.593   7.903 -0.4690  0.1052 -1.3118
  408MOL0     O53732   4.263   9.554   7.931  0.1498  0.2038  0.7029
  408MOL0     C53733   4.201   9.603   8.047  0.6997 -1.1966 -0.0349
  408MOL0     C53734   4.056   9.527   8.058 -0.2944 -0.6591 -0.8680
  408MOL0     C53735   3.999   9.533   8.204 -0.5803  0.3261  0.4163
  408MOL0     C53736   3.882   9.436   8.223  0.1867  0.0274  0.3239
  408MOL0     C53737   3.851   9.414   8.366  0.2370  1.2861 -0.0158
  408MOL0     C53738   3.702   9.372   8.372 -0.9221  0.2036  0.0391
  408MOL0     C53739   3.658   9.244   8.297 -1.6817  0.5255  0.1112
  408MOL0     C53740   3.513   9.203   8.323 -0.1526 -0.4606 -0.1355
  408MOL0     N53741   3.490   9.180   8.468 -0.2690 -0.4752 -0.1832
  408MOL0     C53742   3.543   9.071   8.538  0.3542 -0.6112 -0.0078
  408MOL0     C53743   3.482   9.068   8.661  0.0495  0.1298  0.6375
  408MOL0     C53744   3.494   8.959   8.765  0.2656  0.1143  0.4812
  408MOL0     C53745   3.409   9.006   8.888  0.1431  0.3865  0.2885
  408MOL0     C53746   3.411   8.931   9.022  0.6119 -0.8224  0.6615
  408MOL0     C53747   3.549   8.911   9.083  0.0035 -0.5913  0.0253
  408MOL0     O53748   3.575   9.039   9.143  0.3145 -0.0867 -0.2408
  408MOL0     C53749   3.702   9.089   9.143  0.3182 -0.5449  0.0485
  408MOL0     C53750   3.723   9.230   9.159 -0.3200  0.5295  0.0688
  408MOL0     C53751   3.843   9.291   9.162 -0.8034  0.6064 -0.7098
  408MOL0     C53752   3.961   9.212   9.148  1.0264 -0.4578 -0.3156
  408MOL0     C53753   4.098   9.269   9.134  0.2219  0.4200 -1.2563
  408MOL0     O53754   4.101   9.403   9.132 -0.0465 -1.2401 -0.2949
  408MOL0     C53755   4.209   9.489   9.113  0.6135  0.4646  0.8945
  408MOL0     C53756   4.341   9.449   9.113  0.2552 -0.2674  0.3860
  408MOL0     C53757   4.434   9.553   9.111 -0.5015  0.5517  0.4596
  408MOL0     C53758   4.406   9.689   9.091  0.2351  0.3682  0.4122
  408MOL0     O53759   4.516   9.776   9.096 -0.1659 -0.4459 -0.6673
  408MOL0     C53760   4.494   9.903   9.035 -0.4783  0.1260  0.1550
  408MOL0     C53761   4.626   9.974   9.007 -0.1477  0.2079  0.5196
  408MOL0     C53762   4.708  10.019   9.128 -0.2443 -0.8074  0.4644
  408MOL0     C53763   4.624  10.091   9.231 -0.0341 -0.0199 -0.7584
  408MOL0     C53764   4.703  10.153   9.355  0.1827  0.0706  0.2180
  408MOL0     C53765   4.611  10.197   9.479 -0.1848  0.1939  0.4643
  408MOL0     C53766   4.689  10.279   9.575 -0.1737 -0.3548 -0.5822
  408MOL0     C53767   4.598  10.321   9.691  0.4878  0.4296  0.4142
  408MOL0    Cl53768   4.535  10.183   9.787  0.0147 -0.3089 -0.2953
  408MOL0     C53769   4.268   9.725   9.098  0.8582 -0.1787  0.1521
  408MOL0     C53770   4.175   9.626   9.115 -0.3039 -0.7757  0.1224
  408MOL0     O53771   4.199   9.195   9.127 -0.3994 -0.1987  0.5717
  408MOL0     C53772   3.942   9.069   9.152 -0.5075 -0.7723  0.4114
  408MOL0     C53773   3.814   9.007   9.152 -0.4789 -0.4693  1.0307
  408MOL0     N53774   3.409   9.190   8.676 -0.0530  0.0480  0.5498
  408MOL0     N53775   3.420   9.255   8.561  0.5690  0.6115  1.1190
  408MOL0     C53776   4.462   9.673   8.001  0.5588 -0.4111 -0.3807
  408MOL0     C53777   4.589   9.717   7.966 -0.8290 -0.0414 -0.6482
  408MOL0     C53778   4.939   9.908   7.758  0.1126  1.2053 -0.0704
  408MOL0     C53779   4.969  10.041   7.725 -0.2438 -0.4725  0.8257
  408MOL0     C53780   5.104  10.077   7.700  0.0022  0.4337  0.1127
  408MOL0     C53781   5.204   9.979   7.704  0.0890 -0.3867 -0.5926
  408MOL0     O53782   5.335  10.009   7.679 -0.5459  0.2806  1.0545
  408MOL0     C53783   5.381  10.139   7.642 -0.2520 -0.4428  0.0082
  408MOL0     C53784   5.529  10.134   7.602  0.2215 -0.8080  0.7163
  408MOL0     C53785   5.540  10.094   7.451  0.9549  0.4764  0.4130
  408MOL0     C53786   5.684  10.065   7.408 -0.1532 -0.4114 -0.5866
  408MOL0     C53787   5.776  10.186   7.415  0.1354 -0.6204 -0.3772
  408MOL0     C53788   5.864  10.270   7.390 -0.0489  0.1217 -0.0247
  408MOL0     C53789   5.182   9.864   7.760 -0.0594  0.1248 -0.9426
  408MOL0     C53790   5.045   9.822   7.783 -0.0963 -0.2455 -0.3165
  408MOL0     H53791   4.619   9.615   7.646 -0.1897  0.0647  0.0169
  408MOL0     H53792   4.403   9.495   7.714 -0.1249  2.4653 -2.8512
  408MOL0     H53793   4.193   9.711   8.034 -1.7332 -1.4597 -1.2960
  408MOL0     H53794   4.257   9.583   8.139 -1.4571  0.6448  1.8252
  408MOL0     H53795   4.086   9.423   8.041 -1.7259 -0.9991 -1.4194
  408MOL0     H53796   3.980   9.564   7.988  0.3876  0.4106 -1.0679
  408MOL0     H53797   3.955   9.632   8.218  0.1063  0.7132 -0.1284
  408MOL0     H53798   4.077   9.521   8.280  0.4255  0.4297 -0.5715
  408MOL0     H53799   3.795   9.466   8.164  0.2250 -1.8825 -0.8063
  408MOL0     H53800   3.909   9.338   8.182  0.8827  0.3676 -0.0417
  408MOL0     H53801   3.870   9.507   8.421  1.3333  2.2171 -1.8804
  408MOL0     H53802   3.909   9.336   8.416  0.7516  0.9678 -1.0711
  408MOL0     H53803   3.647   9.456   8.330 -1.8433 -0.3789  0.0581
  408MOL0     H53804   3.679   9.353   8.477  0.5107 -0.3864  0.2657
  408MOL0     H53805   3.678   9.249   8.190 -0.9955  0.8949  0.2526
  408MOL0     H53806   3.721   9.162   8.333  0.6985  1.4918 -1.6032
  408MOL0     H53807   3.491   9.107   8.276 -0.9501 -1.1936  1.6239
  408MOL0     H53808   3.437   9.276   8.294 -0.9331 -1.4964 -0.7693
  408MOL0     H53809   3.594   8.986   8.494 -1.6424 -0.9029 -1.9544
  408MOL0     H53810   3.599   8.953   8.794  0.1116  0.4790  1.1310
  408MOL0     H53811   3.451   8.867   8.726 -0.1283  1.4579 -2.6070
  408MOL0     H53812   3.307   9.016   8.850 -0.8318  1.0683  2.8433
  408MOL0     H53813   3.438   9.111   8.904  2.2279 -0.3433  1.8853
  408MOL0     H53814   3.351   8.988   9.094  1.5815 -1.2262  1.8064
  408MOL0     H53815   3.359   8.836   9.012 -1.2103  0.2210 -0.4909
  408MOL0     H53816   3.628   8.888   9.011  0.2478  0.0893  0.0677
  408MOL0     H53817   3.546   8.835   9.161 -3.5242 -0.4966  0.1160
  408MOL0     H53818   3.637   9.295   9.173  0.3185  1.7820 -1.5030
  408MOL0     H53819   3.863   9.392   9.198 -2.4997 -0.2986  3.3258
  408MOL0     H53820   4.366   9.347   9.141  2.5819  0.5747  1.6532
  408MOL0     H53821   4.531   9.505   9.118 -1.1573 -1.3297 -1.8499
  408MOL0     H53822   4.423   9.963   9.093  0.1393  0.8114  0.2209
  408MOL0     H53823   4.446   9.886   8.938  1.6588 -0.1432 -0.9108
  408MOL0     H53824   4.614  10.066   8.948 -0.6081  0.4900  1.0350
  408MOL0     H53825   4.678   9.896   8.952 -0.9314 -2.1328  2.8618
  408MOL0     H53826   4.789  10.084   9.094  0.9572 -2.5676 -0.2175
  408MOL0     H53827   4.759   9.935   9.175  2.2155 -0.4884 -1.4181
  408MOL0     H53828   4.567  10.174   9.188 -0.2620  0.1332 -0.1671
  408MOL0     H53829   4.559  10.014   9.275 -0.9211  0.8748 -0.4519
  408MOL0     H53830   4.770  10.231   9.317  3.8542 -3.4756 -1.4439
  408MOL0     H53831   4.773  10.074   9.385  2.3261  1.1212 -1.6767
  408MOL0     H53832   4.576  10.108   9.534  2.7358  0.2703  2.6709
  408MOL0     H53833   4.530  10.267   9.457 -0.0835  0.1127 -0.1859
  408MOL0     H53834   4.766  10.217   9.621 -0.8660 -0.2658  0.7401
  408MOL0     H53835   4.732  10.371   9.534  0.4683  0.3845  1.6141
  408MOL0     H53836   4.524  10.390   9.648  0.7713 -0.4084 -1.5441
  408MOL0     H53837   4.649  10.385   9.764  0.5331  1.8020 -0.7663
  408MOL0     H53838   4.234   9.826   9.075 -0.5193 -0.5753  0.3943
  408MOL0     H53839   4.071   9.655   9.114 -0.5155 -1.5136  0.3393
  408MOL0     H53840   4.033   9.010   9.155 -0.3395 -0.6807 -1.5597
  408MOL0     H53841   3.813   8.899   9.166 -2.6587 -0.4940  1.1161
  408MOL0     H53842   4.429   9.712   8.096 -0.5170 -0.9191 -0.5332
  408MOL0     H53843   4.645   9.760   8.049  3.7862 -1.3523 -2.7384
  408MOL0     H53844   4.899  10.123   7.715 -0.1327 -0.3015  1.3963
  408MOL0     H53845   5.121  10.180   7.669 -0.7032  2.1027  4.5427
  408MOL0     H53846   5.359  10.205   7.727  0.2159 -0.6403  0.2839
  408MOL0     H53847   5.332  10.173   7.550 -1.6568 -3.3129 -0.4261
  408MOL0     H53848   5.563  10.238   7.607 -0.9099 -0.3546 -0.3364
  408MOL0     H53849   5.591  10.075   7.669 -0.3923 -2.7827 -0.3802
  408MOL0     H53850   5.497  10.163   7.378  0.3596 -1.6443 -1.3328
  408MOL0     H53851   5.481  10.002   7.457  0.9913  0.3578 -0.7849
  408MOL0     H53852   5.723   9.983   7.469  1.3104  2.1329  2.2115
  408MOL0     H53853   5.682  10.034   7.303 -2.6486 -0.3773 -0.6189
  408MOL0     H53854   5.925  10.346   7.346 -0.4928 -1.4978 -3.8968
  408MOL0     H53855   5.270   9.801   7.773 -0.0410  0.3945  0.4410
  408MOL0     H53856   5.032   9.725   7.829  2.1078 -0.1478  0.6324
  409MOL0     O53857   7.119   9.111   9.516 -0.2098 -0.5678  0.6235
  409MOL0     C53858   7.129   9.235   9.519  0.7805 -0.8851  0.4205
  409MOL0     O53859   7.020   9.319   9.534  0.6063 -0.0879  0.6067
  409MOL0     C53860   6.892   9.287   9.539  0.1007  0.0675 -0.0859
  409MOL0     C53861   6.801   9.392   9.558 -0.5396 -0.1588  0.2261
  409MOL0     C53862   6.663   9.372   9.550 -0.2404  0.0292  0.3001
  409MOL0     C53863   6.609   9.247   9.539  0.2076 -0.3995 -0.2739
  409MOL0     O53864   6.473   9.222   9.539 -0.1225  0.1856 -0.0816
  409MOL0     C53865   6.376   9.325   9.558  0.1538 -0.8683  0.3348
  409MOL0     C53866   6.239   9.287   9.510  0.4515 -0.2373  1.0380
  409MOL0     C53867   6.236   9.261   9.356  0.3888 -0.4257  0.2296
  409MOL0     C53868   6.097   9.222   9.312  0.0033 -0.0141  0.3795
  409MOL0     C53869   6.096   9.211   9.161  0.3615  0.5396  0.7203
  409MOL0     C53870   5.974   9.135   9.100 -0.1300  0.2212 -1.1805
  409MOL0     C53871   5.957   8.994   9.157 -0.9164 -1.0201 -0.6898
  409MOL0     C53872   5.813   8.952   9.152  0.3723  0.4103  0.8113
  409MOL0     N53873   5.763   8.935   9.012  0.3158 -0.2259  0.1071
  409MOL0     C53874   5.798   8.837   8.922  0.3223 -0.5636  0.4430
  409MOL0     C53875   5.697   8.842   8.829 -0.0883  0.4207 -0.8471
  409MOL0     C53876   5.702   8.771   8.697  0.1855 -0.8417  0.2513
  409MOL0     C53877   5.561   8.772   8.629 -0.4410  0.8078 -1.2600
  409MOL0     C53878   5.475   8.659   8.695  0.7158 -0.3606  0.1327
  409MOL0     C53879   5.334   8.662   8.639  0.0805  0.1581 -0.3788
  409MOL0     O53880   5.272   8.552   8.704  0.0616  0.0483 -0.1520
  409MOL0     C53881   5.138   8.530   8.688  0.4430 -0.2311  0.2887
  409MOL0     C53882   5.061   8.590   8.583  0.3170 -0.8637 -0.3944
  409MOL0     C53883   4.927   8.566   8.564  0.4223  0.3712 -0.5350
  409MOL0     C53884   4.866   8.475   8.653  1.2211  0.2030 -0.1215
  409MOL0     C53885   4.718   8.451   8.637 -0.5884  0.2114  0.0627
  409MOL0     O53886   4.663   8.358   8.714 -0.4492  0.5518 -0.0530
  409MOL0     C53887   4.527   8.337   8.711 -1.0688  0.2773  0.4949
  409MOL0     C53888   4.442   8.402   8.789 -0.1952 -0.6125 -0.9683
  409MOL0     C53889   4.305   8.406   8.786  0.1907  0.2124  0.2605
  409MOL0     C53890   4.246   8.328   8.684  0.6305 -0.0867  0.0858
  409MOL0     O53891   4.111   8.315   8.683  0.5792  0.2261 -0.4236
  409MOL0     C53892   4.017   8.420   8.739 -0.2240  0.1520 -1.7030
  409MOL0     C53893   3.878   8.398   8.682 -0.1858  0.7787  0.0462
  409MOL0     C53894   3.812   8.277   8.760  0.6280  0.3412 -0.2049
  409MOL0     C53895   3.673   8.250   8.699  0.9343 -0.4143 -0.7098
  409MOL0     C53896   3.588   8.138   8.774 -0.0014 -0.4814  0.4741
  409MOL0     C53897   3.662   8.009   8.786 -0.0596  1.3597  0.3439
  409MOL0     C53898   3.593   7.900   8.866  0.1979 -0.3870 -0.5606
  409MOL0     C53899   3.508   7.801   8.783  0.0817  0.1568  0.2206
  409MOL0    Cl53900   3.413   7.683   8.877  0.3814  0.3774 -0.1733
  409MOL0     C53901   4.331   8.260   8.593  0.4218 -0.2403 -0.7014
  409MOL0     C53902   4.469   8.266   8.604  0.0075  0.2027  0.0395
  409MOL0     O53903   4.655   8.512   8.549  0.4060  0.2058 -0.7433
  409MOL0     C53904   4.938   8.409   8.750  0.7288  0.6306 -0.4480
  409MOL0     C53905   5.078   8.431   8.759 -1.1665  0.1079 -0.3055
  409MOL0     N53906   5.603   8.939   8.869 -0.5370  0.3286  0.0068
  409MOL0     N53907   5.641   8.994   8.977  0.1378 -0.2724  0.4637
  409MOL0     C53908   6.695   9.139   9.510 -0.3464  0.3496  0.1591
  409MOL0     C53909   6.834   9.161   9.516 -0.1725  0.8100 -0.0986
  409MOL0     C53910   7.262   9.308   9.516  0.2977 -0.9207 -0.3827
  409MOL0     C53911   7.383   9.242   9.512 -0.0364  0.2851 -0.2466
  409MOL0     C53912   7.510   9.305   9.496  0.4766  0.1580 -0.0796
  409MOL0     C53913   7.514   9.443   9.508 -0.8219 -0.5566  0.4751
  409MOL0     O53914   7.630   9.516   9.481  0.0786 -0.4162 -0.4363
  409MOL0     C53915   7.750   9.441   9.476 -0.9998  0.2045  0.1426
  409MOL0     C53916   7.869   9.537   9.446  0.0520  0.4057  0.0389
  409MOL0     C53917   7.999   9.447   9.426  0.7696 -0.1347  0.2479
  409MOL0     C53918   8.140   9.519   9.426  0.6215  0.5048 -0.2399
  409MOL0     C53919   8.161   9.583   9.299 -0.0202  0.1538 -0.1953
  409MOL0     C53920   8.183   9.656   9.204 -0.3717 -0.1711  0.6502
  409MOL0     C53921   7.402   9.517   9.513 -0.3080 -0.3337  0.1312
  409MOL0     C53922   7.271   9.453   9.516  0.2976  0.4555 -0.8540
  409MOL0     H53923   6.826   9.497   9.568 -1.5581  0.3344 -1.7717
  409MOL0     H53924   6.610   9.465   9.570 -0.3207  0.5319 -1.9793
  409MOL0     H53925   6.419   9.416   9.515  1.3807 -0.7563  1.7020
  409MOL0     H53926   6.374   9.347   9.665  3.8391 -0.9719  0.5702
  409MOL0     H53927   6.174   9.371   9.534  2.2639  1.2844  0.9091
  409MOL0     H53928   6.194   9.201   9.560  1.1661 -0.2027  1.7600
  409MOL0     H53929   6.294   9.171   9.334 -0.1827 -0.8945  0.5814
  409MOL0     H53930   6.265   9.354   9.307 -1.7789  0.3386  0.2615
  409MOL0     H53931   6.066   9.134   9.370  3.0115 -0.8527  0.9047
  409MOL0     H53932   6.025   9.297   9.346  2.4195  2.0865  1.2122
  409MOL0     H53933   6.181   9.149   9.130 -0.9289 -0.8051 -0.3063
  409MOL0     H53934   6.091   9.312   9.119 -0.9491  0.7617  1.3447
  409MOL0     H53935   5.989   9.123   8.992 -0.4068 -2.8610 -0.9756
  409MOL0     H53936   5.884   9.196   9.114  0.8571  1.5669 -0.5028
  409MOL0     H53937   6.023   8.928   9.098 -0.7314  0.5418 -2.3210
  409MOL0     H53938   5.997   8.990   9.258 -0.7232  1.6338 -0.5924
  409MOL0     H53939   5.755   9.033   9.198  2.3528  2.2834  0.1943
  409MOL0     H53940   5.800   8.858   9.207 -1.3235  0.4166  0.4723
  409MOL0     H53941   5.892   8.784   8.914  1.1584  0.9271 -0.1513
  409MOL0     H53942   5.725   8.666   8.715  2.0734 -0.6086 -0.5611
  409MOL0     H53943   5.779   8.814   8.632 -1.7016 -0.7011 -2.0329
  409MOL0     H53944   5.575   8.758   8.521  1.2415  0.8901 -1.0838
  409MOL0     H53945   5.516   8.871   8.642  1.5841  1.6807 -0.4659
  409MOL0     H53946   5.521   8.568   8.656 -1.4196 -0.5844 -2.0818
  409MOL0     H53947   5.470   8.655   8.804 -0.2277 -1.3716  0.0709
  409MOL0     H53948   5.325   8.639   8.532 -2.9669 -0.2990 -0.1089
  409MOL0     H53949   5.281   8.754   8.665  0.2740  0.3439 -0.6387
  409MOL0     H53950   5.096   8.667   8.515 -0.3723  1.2553  1.5558
  409MOL0     H53951   4.866   8.619   8.491 -0.5302  0.3603  0.2386
  409MOL0     H53952   4.503   8.455   8.862  0.5704 -1.6016 -0.8805
  409MOL0     H53953   4.255   8.473   8.855 -0.1611  0.1769  0.0417
  409MOL0     H53954   4.065   8.514   8.711  0.0184  0.2217 -1.0759
  409MOL0     H53955   4.018   8.407   8.848 -0.4616  1.5625 -1.5203
  409MOL0     H53956   3.874   8.383   8.574 -1.6848  3.5842 -0.3858
  409MOL0     H53957   3.817   8.482   8.715  0.0538  0.1372  2.2717
  409MOL0     H53958   3.815   8.282   8.869  2.6380 -1.5380 -0.1076
  409MOL0     H53959   3.880   8.192   8.744 -0.9906 -0.6397 -2.6766
  409MOL0     H53960   3.616   8.342   8.716  0.9261 -0.4887 -0.3101
  409MOL0     H53961   3.683   8.224   8.594  0.3141  0.4601 -0.9987
  409MOL0     H53962   3.496   8.127   8.715 -0.8980  1.7483  1.3264
  409MOL0     H53963   3.554   8.164   8.875 -2.4955 -1.2270 -0.0887
  409MOL0     H53964   3.760   8.017   8.833 -0.3640  0.6271  1.1433
  409MOL0     H53965   3.687   7.973   8.686  1.3730 -0.0259  1.1463
  409MOL0     H53966   3.664   7.838   8.921  0.6748  0.5772 -0.0609
  409MOL0     H53967   3.519   7.935   8.938 -1.5871 -1.6286 -1.6951
  409MOL0     H53968   3.569   7.743   8.712 -2.0052 -2.8307  0.6995
  409MOL0     H53969   3.443   7.852   8.711  1.8738  0.2514 -1.4406
  409MOL0     H53970   4.289   8.196   8.516 -2.6230 -2.7978  2.7438
  409MOL0     H53971   4.541   8.217   8.539 -2.3792 -0.7826 -2.0333
  409MOL0     H53972   4.886   8.331   8.805 -1.6465 -0.6664 -4.1710
  409MOL0     H53973   5.138   8.371   8.827  0.4430 -0.9817 -2.5617
  409MOL0     H53974   6.646   9.044   9.496 -0.9811  0.8433 -1.1759
  409MOL0     H53975   6.889   9.068   9.506 -1.6098 -0.0174 -0.6979
  409MOL0     H53976   7.381   9.133   9.504 -2.9275  0.2897 -0.5139
  409MOL0     H53977   7.593   9.237   9.478  0.0190 -1.1098  2.2705
  409MOL0     H53978   7.744   9.364   9.399 -2.2661  0.5210 -0.0936
  409MOL0     H53979   7.757   9.400   9.578 -2.1308 -0.2228  0.0558
  409MOL0     H53980   7.857   9.585   9.348  0.6471 -2.8000 -1.7525
  409MOL0     H53981   7.881   9.613   9.524 -1.7587 -1.6419  2.4818
  409MOL0     H53982   7.989   9.385   9.337  1.3816 -1.0948  0.8242
  409MOL0     H53983   8.004   9.386   9.517  0.8379 -0.3204  0.1191
  409MOL0     H53984   8.143   9.593   9.507  0.1106 -0.2050  0.4381
  409MOL0     H53985   8.226   9.452   9.432  0.5424  0.5032  0.9685
  409MOL0     H53986   8.195   9.717   9.117 -0.5889 -2.4819 -1.0956
  409MOL0     H53987   7.408   9.625   9.515 -3.9216 -0.0023  1.3587
  409MOL0     H53988   7.177   9.505   9.517 -1.9860 -3.1543  2.3926
  410MOL0     O53989   2.314  10.239   3.669  0.6516  0.1304 -0.2772
  410MOL0     C53990   2.288  10.333   3.744  0.1278 -0.3065  0.3169
  410MOL0     O53991   2.381  10.413   3.810 -0.2612  0.2873 -0.3671
  410MOL0     C53992   2.514  10.365   3.816  0.3344 -0.7446 -0.0874
  410MOL0     C53993   2.548  10.234   3.865 -0.3274  0.0210  0.2309
  410MOL0     C53994   2.681  10.194   3.854  0.9850  0.4284  0.3959
  410MOL0     C53995   2.785  10.280   3.811  0.1134 -0.0251  0.3067
  410MOL0     O53996   2.910  10.239   3.802  0.3412  0.1057  0.6155
  410MOL0     C53997   2.997  10.296   3.709 -0.7060 -0.1103 -0.2558
  410MOL0     C53998   3.135  10.242   3.721 -0.1435  1.2242  0.1828
  410MOL0     C53999   3.147  10.098   3.658  0.1961  0.2519  0.1113
  410MOL0     C54000   3.287  10.037   3.637  0.2861 -0.3703  0.5799
  410MOL0     C54001   3.286   9.895   3.578  0.5135  0.6133  0.5326
  410MOL0     C54002   3.424   9.843   3.548 -0.1141  0.2658 -0.3875
  410MOL0     C54003   3.411   9.712   3.471 -0.0542  0.2628  0.4370
  410MOL0     C54004   3.552   9.651   3.459 -0.2645  1.0082 -0.0253
  410MOL0     N54005   3.552   9.530   3.376  0.4395 -0.4013 -0.4420
  410MOL0     C54006   3.492   9.412   3.406 -0.2952  0.5222  0.3945
  410MOL0     C54007   3.526   9.327   3.307 -0.7735  0.4564 -0.2532
  410MOL0     C54008   3.487   9.187   3.272  0.6806 -0.9279 -0.0845
  410MOL0     C54009   3.345   9.207   3.203  0.2447 -0.0408  0.5385
  410MOL0     C54010   3.276   9.074   3.225 -0.2144 -0.4328  0.6825
  410MOL0     C54011   3.135   9.072   3.183 -0.2706 -0.2856 -0.2289
  410MOL0     O54012   3.123   9.095   3.043 -0.0912 -0.8267 -0.1288
  410MOL0     C54013   3.001   9.063   2.983  0.1426  0.2889  0.6757
  410MOL0     C54014   2.995   9.085   2.847  0.1834  0.0123 -0.1886
  410MOL0     C54015   2.880   9.069   2.777 -0.2069  0.2417  0.4899
  410MOL0     C54016   2.766   9.016   2.846 -0.3579  0.1714  0.1449
  410MOL0     C54017   2.643   8.984   2.770 -0.1167 -0.2471  0.0354
  410MOL0     O54018   2.643   9.024   2.644 -0.2651  0.5242 -0.2564
  410MOL0     C54019   2.525   9.065   2.595 -0.8087 -0.0369  0.4343
  410MOL0     C54020   2.422   9.125   2.661  0.0764 -1.0120  0.4828
  410MOL0     C54021   2.310   9.173   2.592  0.4842 -0.0253  0.0902
  410MOL0     C54022   2.291   9.145   2.456  0.4252  0.2919 -0.3469
  410MOL0     O54023   2.177   9.194   2.410 -0.2685 -0.1895  0.1961
  410MOL0     C54024   2.108   9.122   2.302  0.2947  0.2064 -0.6776
  410MOL0     C54025   2.139   9.181   2.163 -0.0228  0.2919  0.1509
  410MOL0     C54026   2.033   9.145   2.050  0.7875  0.3201  0.2873
  410MOL0     C54027   2.101   9.094   1.919 -0.4426  0.0935 -0.0155
  410MOL0     C54028   1.993   9.039   1.828 -0.2396  0.7400 -0.3154
  410MOL0     C54029   2.047   8.922   1.749  1.0545 -0.2034  0.6508
  410MOL0     C54030   1.943   8.833   1.689 -0.2852  0.1865 -0.3570
  410MOL0     C54031   1.853   8.904   1.598  0.3615 -0.0549 -0.0315
  410MOL0    Cl54032   1.947   8.905   1.446 -0.7013 -0.4097 -0.4587
  410MOL0     C54033   2.389   9.073   2.386  0.4192 -0.4895  0.1637
  410MOL0     C54034   2.503   9.027   2.458  0.0576 -1.2027 -0.4936
  410MOL0     O54035   2.548   8.944   2.830  0.5071  0.3157  0.2807
  410MOL0     C54036   2.779   8.973   2.982  1.0954  0.2836  0.0908
  410MOL0     C54037   2.887   9.020   3.053  1.0809  0.0004  0.0992
  410MOL0     N54038   3.625   9.395   3.235  0.4443 -0.6277 -0.7834
  410MOL0     N54039   3.623   9.517   3.267 -0.3936  0.2771 -0.4934
  410MOL0     C54040   2.752  10.419   3.778  0.1517 -0.2606 -0.2774
  410MOL0     C54041   2.615  10.457   3.792 -0.2686 -0.6523  0.8901
  410MOL0     C54042   2.148  10.360   3.767 -0.1729  0.3850 -0.0486
  410MOL0     C54043   2.106  10.455   3.869 -0.7145  0.3294 -0.0017
  410MOL0     C54044   1.977  10.462   3.911  0.3478  0.6503 -1.0675
  410MOL0     C54045   1.872  10.386   3.865 -0.2994  0.6887  0.8022
  410MOL0     O54046   1.760  10.386   3.932  0.8001 -0.0358  0.1280
  410MOL0     C54047   1.645  10.319   3.893 -0.5440 -0.6253  0.3118
  410MOL0     C54048   1.560  10.297   4.019 -0.4249 -0.8344  0.6902
  410MOL0     C54049   1.553  10.148   4.041 -0.6097  0.8445 -0.5407
  410MOL0     C54050   1.475  10.118   4.167  0.9467 -0.3509 -0.0811
  410MOL0     C54051   1.539  10.141   4.301  0.0706 -0.2330  0.4566
  410MOL0     C54052   1.590  10.163   4.412  0.0848  0.1799 -0.0473
  410MOL0     C54053   1.910  10.308   3.749 -0.5917  0.3313 -0.1846
  410MOL0     C54054   2.045  10.291   3.706 -0.4072 -0.0026 -0.0460
  410MOL0     H54055   2.464  10.169   3.881 -0.6015  0.1125 -0.7591
  410MOL0     H54056   2.706  10.090   3.875 -2.6658 -1.5841 -3.5614
  410MOL0     H54057   2.986  10.405   3.717 -3.0099 -0.0013 -3.2281
  410MOL0     H54058   2.961  10.273   3.609  1.2909  2.5449 -1.7225
  410MOL0     H54059   3.183  10.241   3.819  2.9302 -0.4986 -1.1766
  410MOL0     H54060   3.212  10.297   3.667  1.6385 -0.8792  0.4394
  410MOL0     H54061   3.103  10.108   3.558 -1.2152 -1.0610  0.5670
  410MOL0     H54062   3.095  10.026   3.721 -1.1217  1.6358  0.6402
  410MOL0     H54063   3.350  10.087   3.563  0.7585 -1.6562  0.0899
  410MOL0     H54064   3.343  10.035   3.731  3.3257  0.3090 -1.0791
  410MOL0     H54065   3.220   9.903   3.491  0.3425  0.7164  0.6703
  410MOL0     H54066   3.235   9.822   3.641 -2.4799  0.8086 -1.4229
  410MOL0     H54067   3.478   9.833   3.642  0.1502  1.8942 -0.3344
  410MOL0     H54068   3.477   9.923   3.495 -0.9190  1.0188 -0.0642
  410MOL0     H54069   3.341   9.654   3.532 -0.8642 -0.6512 -1.2799
  410MOL0     H54070   3.365   9.720   3.372 -1.7607 -0.2257  1.1409
  410MOL0     H54071   3.594   9.634   3.559 -0.8683  1.1252  0.2570
  410MOL0     H54072   3.620   9.717   3.406 -1.9879  0.8191 -2.6269
  410MOL0     H54073   3.427   9.396   3.491  1.4434  0.1117  1.7158
  410MOL0     H54074   3.475   9.126   3.363 -0.7168  2.5935  2.3034
  410MOL0     H54075   3.554   9.137   3.201  1.1569  0.3919 -0.5867
  410MOL0     H54076   3.366   9.244   3.102  1.2916  3.1429  1.7737
  410MOL0     H54077   3.290   9.292   3.245  1.1338  1.9403 -2.0253
  410MOL0     H54078   3.328   8.996   3.169  0.7387  0.3150  0.4949
  410MOL0     H54079   3.286   9.038   3.327 -0.3125 -2.0419  0.1591
  410MOL0     H54080   3.084   9.148   3.242  0.7630 -1.5813  2.5323
  410MOL0     H54081   3.080   8.981   3.208 -0.5155  0.3178  1.5157
  410MOL0     H54082   3.076   9.132   2.791  2.3662 -1.1280  1.7919
  410MOL0     H54083   2.871   9.095   2.672  0.5245  1.5518  0.7248
  410MOL0     H54084   2.425   9.152   2.766  3.9508  0.0207  0.2711
  410MOL0     H54085   2.240   9.220   2.660 -1.3769 -3.7493  1.0173
  410MOL0     H54086   2.000   9.132   2.318 -0.0062 -0.8343 -1.8767
  410MOL0     H54087   2.126   9.015   2.309  1.3898  0.4898  1.9194
  410MOL0     H54088   2.239   9.152   2.128 -1.0639 -2.2990 -0.9040
  410MOL0     H54089   2.143   9.290   2.174  0.7333  0.2591  0.2763
  410MOL0     H54090   1.960   9.223   2.026 -0.5089 -1.0215 -0.3277
  410MOL0     H54091   1.976   9.058   2.085 -0.8226  0.8338 -0.9146
  410MOL0     H54092   2.156   9.172   1.866 -0.8566  0.0617 -0.4999
  410MOL0     H54093   2.181   9.022   1.940 -0.9071 -0.4398 -0.0445
  410MOL0     H54094   1.948   9.122   1.773 -3.8272  1.1942  2.8484
  410MOL0     H54095   1.912   9.002   1.892  0.2378  1.0015  0.4609
  410MOL0     H54096   2.110   8.851   1.804  2.0993 -1.4990 -2.0014
  410MOL0     H54097   2.121   8.960   1.678 -0.4707 -0.8716 -1.4018
  410MOL0     H54098   1.996   8.745   1.652  3.4612  0.1328  4.1315
  410MOL0     H54099   1.874   8.791   1.763  0.6686 -0.1975  0.3389
  410MOL0     H54100   1.831   9.008   1.624 -1.9842 -0.5258  0.0622
  410MOL0     H54101   1.757   8.852   1.595 -0.0798  0.7672 -0.4766
  410MOL0     H54102   2.393   9.061   2.278 -0.9209 -1.4252  0.1916
  410MOL0     H54103   2.577   8.984   2.391 -0.0093  0.9075 -2.0285
  410MOL0     H54104   2.697   8.927   3.036 -0.0151  2.7157  0.6373
  410MOL0     H54105   2.881   9.015   3.161 -1.8852 -0.1917  0.0258
  410MOL0     H54106   2.818  10.500   3.748 -0.2268  0.4437  0.7470
  410MOL0     H54107   2.571  10.555   3.783 -1.6670 -1.1088  2.3993
  410MOL0     H54108   2.180  10.512   3.924 -0.8380 -0.9884  1.6179
  410MOL0     H54109   1.954  10.540   3.984 -0.9874  0.5265 -1.3278
  410MOL0     H54110   1.660  10.222   3.844  0.3131 -0.0662 -0.5751
  410MOL0     H54111   1.592  10.378   3.818  2.6321 -0.9766 -2.4594
  410MOL0     H54112   1.601  10.361   4.097 -2.8303  2.6204 -0.6185
  410MOL0     H54113   1.457  10.334   4.018  0.0705  0.6450  1.7256
  410MOL0     H54114   1.657  10.120   4.056 -0.4559  2.2266  1.2419
  410MOL0     H54115   1.499  10.097   3.960 -0.4312 -0.2104 -0.0165
  410MOL0     H54116   1.383  10.176   4.163  1.6788  0.8227 -0.5352
  410MOL0     H54117   1.452  10.011   4.165  0.1438 -0.1810 -0.1509
  410MOL0     H54118   1.641  10.190   4.502  0.8355  1.0699 -0.7123
  410MOL0     H54119   1.848  10.252   3.680  0.0484  0.1000 -0.5770
  410MOL0     H54120   2.073  10.221   3.628  2.1459  1.5320 -0.6192
  411MOL0     O54121   1.845   4.154   7.560  0.2197  0.6718 -0.4252
  411MOL0     C54122   1.896   4.243   7.622 -0.7298 -0.0135 -0.5551
  411MOL0     O54123   1.835   4.351   7.666  0.3139 -0.2266  0.1214
  411MOL0     C54124   1.703   4.383   7.623 -0.0897 -0.1026 -0.6675
  411MOL0     C54125   1.616   4.437   7.715 -0.0375 -0.8205  0.5453
  411MOL0     C54126   1.492   4.491   7.677  0.1466  0.4752  0.6661
  411MOL0     C54127   1.443   4.476   7.547 -0.2683  0.4282  0.3972
  411MOL0     O54128   1.330   4.535   7.505 -0.4812 -0.3143 -0.2815
  411MOL0     C54129   1.318   4.676   7.519  0.4527  0.7333 -0.3208
  411MOL0     C54130   1.211   4.693   7.631  0.5635  0.3780 -0.0388
  411MOL0     C54131   1.070   4.640   7.583 -0.2010  0.0283  1.0199
  411MOL0     C54132   0.962   4.695   7.674 -0.5425 -0.2833 -0.5607
  411MOL0     C54133   0.826   4.661   7.631  0.7092  0.6107  0.3194
  411MOL0     C54134   0.713   4.700   7.733 -0.4489  0.4658  0.5647
  411MOL0     C54135   0.569   4.675   7.661 -0.6906  0.6922  0.7371
  411MOL0     C54136   0.528   4.795   7.591 -0.3262 -0.1370  0.3029
  411MOL0     N54137   0.467   4.887   7.692  0.0747 -0.4388 -0.1741
  411MOL0     C54138   0.339   4.866   7.749  0.0023 -0.8819 -0.8088
  411MOL0     C54139   0.325   4.980   7.828  0.4338 -0.1284  0.4208
  411MOL0     C54140   0.207   5.004   7.922 -0.6818  0.5941  0.5758
  411MOL0     C54141   0.095   5.087   7.871 -0.2351  0.0695 -0.8141
  411MOL0     C54142   0.019   5.003   7.767  0.0270 -0.4893 -0.2488
  411MOL0     C54143  -0.107   5.058   7.699  0.0941 -0.7474 -0.5521
  411MOL0     O54144  -0.072   5.167   7.617  0.3476  0.0782  1.0819
  411MOL0     C54145  -0.169   5.189   7.520 -0.3147  0.2029 -0.1118
  411MOL0     C54146  -0.308   5.152   7.520 -0.0103  0.8511  0.8235
  411MOL0     C54147  -0.388   5.181   7.411  0.1278 -1.5827  0.2117
  411MOL0     C54148  -0.338   5.247   7.295 -0.5711  0.1832 -1.1214
  411MOL0     C54149  -0.415   5.286   7.175 -1.3240 -0.3639  0.2643
  411MOL0     O54150  -0.546   5.299   7.184  0.0118  0.2522 -0.5273
  411MOL0     C54151  -0.622   5.306   7.071  0.7878 -0.0205 -0.6004
  411MOL0     C54152  -0.760   5.260   7.085  0.1308 -0.4658 -0.2481
  411MOL0     C54153  -0.849   5.257   6.977 -0.9223 -0.5281  0.6173
  411MOL0     C54154  -0.812   5.303   6.852  0.9565 -0.0232  0.2726
  411MOL0     O54155  -0.892   5.299   6.742 -0.2493  0.0620  0.0467
  411MOL0     C54156  -1.019   5.230   6.750 -0.4802 -0.4186 -0.2592
  411MOL0     C54157  -1.092   5.250   6.620  0.2170 -0.1440 -0.3730
  411MOL0     C54158  -1.235   5.193   6.632  0.3436  0.1216  0.1398
  411MOL0     C54159  -1.241   5.046   6.664  0.0592  0.5486  0.6520
  411MOL0     C54160  -1.385   4.999   6.651 -0.0095  0.3442 -0.6076
  411MOL0     C54161  -1.394   4.857   6.711 -0.5858  0.1839 -0.0821
  411MOL0     C54162  -1.364   4.749   6.611  0.5402 -0.4041  0.0349
  411MOL0     C54163  -1.411   4.613   6.674 -0.1852  0.1161 -0.3352
  411MOL0    Cl54164  -1.580   4.613   6.693 -0.3359 -0.3188  0.3085
  411MOL0     C54165  -0.682   5.358   6.836  0.0752  0.4224  0.3726
  411MOL0     C54166  -0.595   5.364   6.947 -0.1388  0.0462 -0.5354
  411MOL0     O54167  -0.348   5.296   7.069  0.2710 -0.5171 -0.0150
  411MOL0     C54168  -0.202   5.276   7.294 -0.1308 -0.5707  1.2859
  411MOL0     C54169  -0.127   5.255   7.408  0.1735 -0.5908 -0.3437
  411MOL0     N54170   0.438   5.058   7.818 -0.3366  0.2125  0.1241
  411MOL0     N54171   0.518   5.003   7.733 -0.8347 -0.1780  0.2072
  411MOL0     C54172   1.527   4.424   7.451 -0.7142  0.8354  0.5670
  411MOL0     C54173   1.658   4.382   7.489 -0.6622  0.0721  0.1663
  411MOL0     C54174   2.044   4.234   7.653  0.3757 -1.1625  0.2299
  411MOL0     C54175   2.118   4.120   7.606  0.4824  0.0775 -0.0647
  411MOL0     C54176   2.246   4.100   7.652 -0.0182 -0.3055 -0.5998
  411MOL0     C54177   2.305   4.201   7.726  0.1947 -0.1016 -0.2615
  411MOL0     O54178   2.437   4.185   7.772  0.3560  0.4098 -0.0348
  411MOL0     C54179   2.537   4.158   7.675  0.7676 -0.8154 -0.2695
  411MOL0     C54180   2.673   4.149   7.748  0.6941 -0.6527  0.0237
  411MOL0     C54181   2.780   4.083   7.657 -0.1805  0.0047  0.3732
  411MOL0     C54182   2.814   4.156   7.528  0.0468 -0.2771 -0.6179
  411MOL0     C54183   2.849   4.298   7.553 -0.0048 -0.2663  0.1847
  411MOL0     C54184   2.851   4.421   7.566 -0.1364 -0.3642  0.9637
  411MOL0     C54185   2.241   4.325   7.756  0.1230 -0.1073  0.5676
  411MOL0     C54186   2.106   4.340   7.723  0.3112  0.1707  0.5694
  411MOL0     H54187   1.659   4.448   7.813  0.9458  1.3811 -0.0627
  411MOL0     H54188   1.430   4.541   7.751  1.8329  1.0953  1.7002
  411MOL0     H54189   1.294   4.717   7.421  0.2286 -3.3844 -2.2003
  411MOL0     H54190   1.413   4.725   7.540  2.2758 -1.8961 -1.7560
  411MOL0     H54191   1.198   4.800   7.647  1.3678  0.2195  2.0314
  411MOL0     H54192   1.236   4.633   7.719  2.5978  1.3940  0.1463
  411MOL0     H54193   1.067   4.530   7.580  2.8598 -0.1188 -0.5376
  411MOL0     H54194   1.057   4.673   7.479 -0.3098 -1.3067  0.5876
  411MOL0     H54195   0.975   4.648   7.772 -0.5204  0.0560 -0.3987
  411MOL0     H54196   0.969   4.803   7.695 -1.5154 -0.5848  1.6522
  411MOL0     H54197   0.817   4.558   7.595 -0.5693  2.0057 -3.9395
  411MOL0     H54198   0.808   4.721   7.541  1.5294  0.7741  0.2630
  411MOL0     H54199   0.719   4.805   7.764 -0.5611  0.6812 -0.1206
  411MOL0     H54200   0.708   4.637   7.823 -2.0402  1.6867  1.3809
  411MOL0     H54201   0.583   4.594   7.588  0.1130  0.6822  0.8883
  411MOL0     H54202   0.500   4.651   7.742 -0.5541  1.0045  0.9468
  411MOL0     H54203   0.463   4.781   7.504  0.2010  0.8610 -0.2668
  411MOL0     H54204   0.616   4.844   7.549 -0.8523 -1.1060 -2.0573
  411MOL0     H54205   0.278   4.777   7.748 -4.8042  2.0083  0.6687
  411MOL0     H54206   0.261   5.056   8.001  1.8323 -2.5058  1.1271
  411MOL0     H54207   0.166   4.910   7.960 -2.2535  0.8505 -0.3950
  411MOL0     H54208   0.126   5.188   7.843 -0.0761  1.2678  3.0988
  411MOL0     H54209   0.023   5.100   7.953 -1.8343  0.6409 -2.2499
  411MOL0     H54210   0.095   4.982   7.692  2.3390  1.7726  1.2679
  411MOL0     H54211  -0.010   4.907   7.810 -0.3872  1.0466  3.3450
  411MOL0     H54212  -0.179   5.090   7.776 -0.4598 -0.4239 -1.1987
  411MOL0     H54213  -0.158   4.982   7.639 -0.9705  0.3677 -1.0886
  411MOL0     H54214  -0.348   5.098   7.605 -0.3498  1.4671  1.0590
  411MOL0     H54215  -0.496   5.170   7.403  0.0195  0.2514 -1.7267
  411MOL0     H54216  -0.789   5.232   7.186  4.0501  0.3249  1.2955
  411MOL0     H54217  -0.943   5.206   6.998 -3.4237  2.8432 -1.4405
  411MOL0     H54218  -1.080   5.260   6.836 -0.8687  0.2940 -0.7707
  411MOL0     H54219  -1.011   5.122   6.768 -2.3514 -0.8983 -1.9141
  411MOL0     H54220  -1.032   5.207   6.539 -0.6427  1.5443 -1.9878
  411MOL0     H54221  -1.100   5.358   6.601 -1.3547 -0.1107  0.3547
  411MOL0     H54222  -1.274   5.206   6.530  3.2088 -0.1274 -1.1056
  411MOL0     H54223  -1.295   5.252   6.702 -0.4058 -0.5140  0.0409
  411MOL0     H54224  -1.173   4.989   6.601  0.7087  0.3661  1.4961
  411MOL0     H54225  -1.207   5.035   6.768  1.8871  0.3624  0.0648
  411MOL0     H54226  -1.424   5.004   6.548 -1.8734 -1.0492 -0.0251
  411MOL0     H54227  -1.446   5.060   6.718 -1.0026 -0.9891 -0.2685
  411MOL0     H54228  -1.500   4.849   6.736 -0.5019 -0.1482  0.1745
  411MOL0     H54229  -1.326   4.844   6.796  1.3976  0.1528 -1.5955
  411MOL0     H54230  -1.414   4.775   6.517  2.1723  0.6446 -0.5899
  411MOL0     H54231  -1.259   4.734   6.585  0.3584 -2.5658  0.4039
  411MOL0     H54232  -1.362   4.590   6.769 -1.1871 -3.5933 -0.5327
  411MOL0     H54233  -1.372   4.534   6.609  2.7084  0.0900  1.2854
  411MOL0     H54234  -0.658   5.400   6.739  1.7860 -0.5443  0.3392
  411MOL0     H54235  -0.501   5.416   6.936  0.1814  0.1838  2.0924
  411MOL0     H54236  -0.152   5.329   7.214  0.1072 -1.0116  1.1383
  411MOL0     H54237  -0.024   5.288   7.412  0.7649 -2.4292  0.9980
  411MOL0     H54238   1.499   4.420   7.347 -1.0320 -1.1336  0.6933
  411MOL0     H54239   1.736   4.353   7.418 -1.4226  1.0475 -1.1094
  411MOL0     H54240   2.061   4.045   7.553 -1.5739  1.7747 -0.4109
  411MOL0     H54241   2.302   4.009   7.634  0.5521  0.1672 -1.2569
  411MOL0     H54242   2.525   4.227   7.591  1.4584  1.1245  1.1569
  411MOL0     H54243   2.519   4.066   7.618  2.8209 -0.8569 -0.9334
  411MOL0     H54244   2.707   4.250   7.773  0.0033 -0.9041  2.2326
  411MOL0     H54245   2.660   4.082   7.834 -2.4018  0.2106  0.3574
  411MOL0     H54246   2.740   3.983   7.636  1.8590 -1.1429  1.6810
  411MOL0     H54247   2.872   4.066   7.714  1.1402 -1.1850 -1.9573
  411MOL0     H54248   2.900   4.105   7.483 -0.4577 -1.9485  0.2167
  411MOL0     H54249   2.740   4.132   7.451  1.8333 -2.6093 -1.7227
  411MOL0     H54250   2.844   4.528   7.570 -0.3683 -0.3942  1.3726
  411MOL0     H54251   2.296   4.401   7.811 -0.3237 -0.0612  0.9514
  411MOL0     H54252   2.059   4.431   7.759 -0.5399  0.7263 -1.7763
  412MOL0     O54253   8.833   0.570   5.600 -0.2481  0.4945  0.2174
  412MOL0     C54254   8.886   0.681   5.600  0.0331 -0.4279  0.1814
  412MOL0     O54255   8.833   0.795   5.643  0.1565  0.2440  0.3633
  412MOL0     C54256   8.700   0.810   5.676 -0.4723 -0.0852 -0.6811
  412MOL0     C54257   8.600   0.717   5.703  0.6638  0.6067  0.5056
  412MOL0     C54258   8.470   0.768   5.734 -0.0647  0.3659  0.0935
  412MOL0     C54259   8.442   0.900   5.761 -0.1613  0.2425 -0.4690
  412MOL0     O54260   8.328   0.960   5.799  0.2957 -0.5853 -0.7247
  412MOL0     C54261   8.214   0.883   5.838  0.8559 -0.7546  0.2353
  412MOL0     C54262   8.092   0.981   5.862 -0.2780  0.8191  0.4972
  412MOL0     C54263   7.963   0.911   5.802 -0.7384  0.9730 -0.1297
  412MOL0     C54264   7.831   0.986   5.836 -0.2675  0.9170 -0.1327
  412MOL0     C54265   7.714   0.946   5.732  1.2297  0.5695 -0.0009
  412MOL0     C54266   7.658   0.805   5.746 -1.3802 -0.7641 -0.1086
  412MOL0     C54267   7.522   0.798   5.676 -0.0939  0.0117 -0.6648
  412MOL0     C54268   7.471   0.661   5.651 -0.0075  0.3235 -0.1671
  412MOL0     N54269   7.448   0.600   5.780  0.4282 -0.6643  0.6314
  412MOL0     C54270   7.536   0.509   5.840 -0.4983 -0.1405  0.3914
  412MOL0     C54271   7.477   0.489   5.962  0.3110  0.4312  0.8434
  412MOL0     C54272   7.552   0.436   6.085 -0.5969 -0.3782 -0.2896
  412MOL0     C54273   7.536   0.526   6.204  0.1911 -0.4189  0.5543
  412MOL0     C54274   7.602   0.669   6.191 -0.1397  0.2212  0.5220
  412MOL0     C54275   7.752   0.674   6.164  0.3277  0.1212 -0.7320
  412MOL0     O54276   7.801   0.806   6.185 -0.1354  0.2031  0.6352
  412MOL0     C54277   7.932   0.837   6.197  0.0155  0.0310  0.2811
  412MOL0     C54278   7.963   0.977   6.223 -0.2232 -0.3256  0.2128
  412MOL0     C54279   8.096   1.019   6.242 -0.2058 -0.0456 -0.3024
  412MOL0     C54280   8.200   0.927   6.227  0.4750  0.2372 -0.6468
  412MOL0     C54281   8.340   0.963   6.255 -0.3999  0.9170  0.5230
  412MOL0     O54282   8.434   0.867   6.249 -0.1505  0.2583 -0.0414
  412MOL0     C54283   8.569   0.907   6.243  0.3659  0.3945  0.2571
  412MOL0     C54284   8.659   0.848   6.333  0.3561 -0.6798 -0.0355
  412MOL0     C54285   8.793   0.883   6.324 -0.7074 -0.5671  0.2634
  412MOL0     C54286   8.840   0.981   6.228 -0.4522  0.7952  0.9109
  412MOL0     O54287   8.969   1.012   6.198  0.4457  0.0043  0.2766
  412MOL0     C54288   9.062   1.022   6.309 -0.2155  0.8872 -0.6893
  412MOL0     C54289   9.142   0.892   6.322 -0.9699 -0.2799  0.5346
  412MOL0     C54290   9.255   0.918   6.422 -0.1346  0.5722  0.3950
  412MOL0     C54291   9.338   0.799   6.461  0.6199  1.1476  1.4701
  412MOL0     C54292   9.445   0.831   6.567  0.3971  0.2389 -0.7566
  412MOL0     C54293   9.555   0.941   6.528  0.2734 -0.3212  0.1782
  412MOL0     C54294   9.656   0.879   6.437  0.3972  0.2476  0.3604
  412MOL0     C54295   9.693   0.978   6.319 -0.1201  0.0716  0.1698
  412MOL0    Cl54296   9.800   0.903   6.204  0.0573 -0.1634 -0.2475
  412MOL0     C54297   8.744   1.043   6.151  0.4007  0.4854 -0.1199
  412MOL0     C54298   8.613   1.003   6.147  1.0183  0.1991 -0.0899
  412MOL0     O54299   8.361   1.081   6.284 -0.2146  0.4191  0.3184
  412MOL0     C54300   8.177   0.798   6.187  0.1427  0.6682 -0.2141
  412MOL0     C54301   8.041   0.754   6.175  0.1245 -0.5932 -0.5798
  412MOL0     N54302   7.351   0.551   5.972  0.7199 -0.1058  0.1657
  412MOL0     N54303   7.346   0.627   5.866 -0.7128  0.1641  0.2675
  412MOL0     C54304   8.548   0.988   5.738 -0.3217  0.0396  0.3290
  412MOL0     C54305   8.676   0.946   5.698  0.7414 -0.0985 -0.1399
  412MOL0     C54306   9.014   0.702   5.545 -0.6019 -0.0735 -0.0877
  412MOL0     C54307   9.070   0.825   5.514  0.5452  0.6818  0.1736
  412MOL0     C54308   9.186   0.836   5.443  0.7677 -0.1909  1.0300
  412MOL0     C54309   9.266   0.731   5.419  0.7386  0.4012  1.2789
  412MOL0     O54310   9.392   0.730   5.366  0.3774 -0.9458 -0.3225
  412MOL0     C54311   9.462   0.857   5.365  0.2653  0.8845 -0.1814
  412MOL0     C54312   9.604   0.827   5.313 -0.5272 -0.2274  0.0234
  412MOL0     C54313   9.710   0.934   5.362  0.7608 -0.4443  0.3490
  412MOL0     C54314   9.858   0.907   5.339  0.1051  0.2997  0.2103
  412MOL0     C54315   9.876   0.846   5.215  0.0865  0.7918  0.7863
  412MOL0     C54316   9.885   0.778   5.112  0.0700 -1.3523  0.2037
  412MOL0     C54317   9.214   0.603   5.442  1.0069 -0.2591  0.3428
  412MOL0     C54318   9.089   0.589   5.500  0.5845 -0.8806  0.2000
  412MOL0     H54319   8.620   0.611   5.700 -0.3562  0.4128  0.0925
  412MOL0     H54320   8.385   0.699   5.740  0.5144 -0.6775 -2.5094
  412MOL0     H54321   8.234   0.833   5.933 -1.2657  0.5425  1.4322
  412MOL0     H54322   8.198   0.810   5.758  3.1598  0.1436 -1.1790
  412MOL0     H54323   8.097   1.074   5.803 -1.5279 -0.0506 -1.0569
  412MOL0     H54324   8.087   1.001   5.969 -0.2658  0.8618  0.4904
  412MOL0     H54325   7.962   0.807   5.838  4.6581  0.2005 -1.4564
  412MOL0     H54326   7.978   0.895   5.695 -2.2385 -0.5444 -0.1703
  412MOL0     H54327   7.794   0.946   5.931  0.8310  0.7206  0.2275
  412MOL0     H54328   7.855   1.092   5.848 -0.0019  1.1131 -2.1171
  412MOL0     H54329   7.751   0.954   5.629  1.2930 -2.2368 -0.2852
  412MOL0     H54330   7.635   1.021   5.746  0.1355 -0.3899 -0.7297
  412MOL0     H54331   7.646   0.784   5.852  0.4594  2.8516  1.0102
  412MOL0     H54332   7.724   0.731   5.700 -1.4175 -1.1923  0.5219
  412MOL0     H54333   7.454   0.851   5.743 -1.2695 -2.8516  0.5381
  412MOL0     H54334   7.533   0.863   5.588  0.8323  1.1180  0.2312
  412MOL0     H54335   7.550   0.609   5.596 -0.1059  0.1769 -0.1666
  412MOL0     H54336   7.374   0.669   5.602 -0.0408  0.8776 -0.0208
  412MOL0     H54337   7.625   0.456   5.808 -1.1676 -1.1554  0.1573
  412MOL0     H54338   7.657   0.419   6.059 -0.6220 -1.6973  0.3995
  412MOL0     H54339   7.505   0.340   6.107  1.2328 -1.3951 -0.6319
  412MOL0     H54340   7.574   0.474   6.293 -2.0282 -2.6127  0.3076
  412MOL0     H54341   7.432   0.549   6.230 -0.8497 -1.0804 -2.6930
  412MOL0     H54342   7.549   0.720   6.109 -0.8264  1.1136  1.4972
  412MOL0     H54343   7.576   0.723   6.282 -0.9440  3.5272 -1.4560
  412MOL0     H54344   7.767   0.669   6.055  0.3596  1.4620 -0.8098
  412MOL0     H54345   7.805   0.595   6.217 -0.0559  0.4329  0.1375
  412MOL0     H54346   7.883   1.050   6.228  0.3353  0.3383 -0.2835
  412MOL0     H54347   8.118   1.123   6.264  0.7196 -0.3084  0.0642
  412MOL0     H54348   8.631   0.773   6.407  1.2115 -0.4990  0.4852
  412MOL0     H54349   8.863   0.837   6.393  2.1192  3.5128  0.4520
  412MOL0     H54350   9.016   1.041   6.407 -0.3447  3.1371 -1.1190
  412MOL0     H54351   9.128   1.109   6.293 -0.5145  1.6174  1.6417
  412MOL0     H54352   9.184   0.862   6.226 -2.9030 -0.6955 -0.2306
  412MOL0     H54353   9.078   0.816   6.366 -2.3217 -0.8974 -2.2624
  412MOL0     H54354   9.216   0.960   6.515 -1.8718  1.6383 -0.7348
  412MOL0     H54355   9.318   0.991   6.370  0.4936  2.1207  3.1509
  412MOL0     H54356   9.267   0.725   6.501 -0.9756  2.5289  1.3292
  412MOL0     H54357   9.384   0.753   6.373  0.1732  2.9561  0.2375
  412MOL0     H54358   9.506   0.741   6.579  2.4326  1.4443 -1.4186
  412MOL0     H54359   9.397   0.847   6.664  0.7549 -0.3718 -0.4762
  412MOL0     H54360   9.608   0.997   6.605 -0.8643  1.3006 -0.1580
  412MOL0     H54361   9.506   1.020   6.471  2.6335  1.3761  0.3655
  412MOL0     H54362   9.742   0.842   6.493 -1.6617 -3.0721  1.6038
  412MOL0     H54363   9.616   0.786   6.394 -0.4246 -0.9693  3.4932
  412MOL0     H54364   9.744   1.069   6.352  1.3284 -0.2453 -1.0740
  412MOL0     H54365   9.594   0.999   6.276 -1.0790 -2.5347  0.9272
  412MOL0     H54366   8.761   1.124   6.081  1.3373  0.3850 -0.0173
  412MOL0     H54367   8.547   1.064   6.086  0.6135  1.1070  1.2031
  412MOL0     H54368   8.255   0.724   6.173 -0.9163 -0.2284 -1.7750
  412MOL0     H54369   8.025   0.649   6.152 -2.1978 -0.0349 -1.8655
  412MOL0     H54370   8.522   1.093   5.745  0.7687  0.4033 -0.7100
  412MOL0     H54371   8.755   1.019   5.679 -1.0454  1.8550 -0.4603
  412MOL0     H54372   9.012   0.916   5.530  0.7776  0.8361  0.1361
  412MOL0     H54373   9.221   0.928   5.396  0.4647 -0.3191  0.5465
  412MOL0     H54374   9.446   0.896   5.467 -4.0037  1.3757 -0.8309
  412MOL0     H54375   9.417   0.931   5.299 -2.8297  0.4123  1.1904
  412MOL0     H54376   9.622   0.725   5.347 -3.0771 -1.5728 -2.3031
  412MOL0     H54377   9.598   0.835   5.204 -0.3076 -0.7924 -0.0307
  412MOL0     H54378   9.684   0.938   5.468 -0.9026 -0.3779 -0.0319
  412MOL0     H54379   9.681   1.034   5.326  0.7832 -0.6774 -0.3423
  412MOL0     H54380   9.909   1.004   5.330  2.1365 -0.6853  0.5442
  412MOL0     H54381   9.901   0.848   5.421 -0.3724 -0.4599 -0.0839
  412MOL0     H54382   9.890   0.725   5.019 -1.5949 -1.3525  0.0788
  412MOL0     H54383   9.281   0.529   5.398  1.6098 -0.2201  1.1586
  412MOL0     H54384   9.049   0.489   5.518  1.6998 -1.2516  0.6692
  413MOL0     O54385   8.837   1.857   3.569  0.5691  0.1208  0.4466
  413MOL0     C54386   8.879   1.840   3.688  0.4298  1.0350 -0.1285
  413MOL0     O54387   8.855   1.926   3.791  0.6507 -0.7996  0.7240
  413MOL0     C54388   8.833   2.050   3.745  0.0286 -0.3152  0.2233
  413MOL0     C54389   8.936   2.144   3.754 -0.6275  0.0021 -0.3561
  413MOL0     C54390   8.909   2.276   3.702 -0.8607 -0.1080  0.1015
  413MOL0     C54391   8.804   2.297   3.619  0.8850 -0.3670 -0.1425
  413MOL0     O54392   8.776   2.411   3.546  0.2777  0.1464  0.7325
  413MOL0     C54393   8.880   2.513   3.546  0.5379 -0.0133  0.5650
  413MOL0     C54394   8.880   2.598   3.427 -1.1807  0.1860  0.1821
  413MOL0     C54395   8.774   2.707   3.436 -0.6040  0.4781  0.0469
  413MOL0     C54396   8.632   2.667   3.484  0.1105 -0.4339 -0.5620
  413MOL0     C54397   8.539   2.787   3.473 -0.2971 -0.5233  0.5908
  413MOL0     C54398   8.393   2.746   3.493  0.1026  0.1424 -0.4004
  413MOL0     C54399   8.299   2.870   3.495  0.5060  0.6997  0.3568
  413MOL0     C54400   8.156   2.830   3.534 -0.0778 -0.2432 -0.3743
  413MOL0     N54401   8.080   2.781   3.424 -0.2736  0.7408  0.3583
  413MOL0     C54402   8.114   2.694   3.320  0.7826 -0.3308  0.0886
  413MOL0     C54403   7.997   2.671   3.248 -0.9201 -0.8218 -0.1630
  413MOL0     C54404   7.994   2.586   3.119  0.2023 -0.4169  0.2991
  413MOL0     C54405   7.969   2.665   2.991 -0.0511  0.0279  0.3460
  413MOL0     C54406   7.818   2.670   2.947 -1.5998  0.8264  1.3117
  413MOL0     C54407   7.727   2.724   3.047  0.0364 -0.6945 -0.3883
  413MOL0     O54408   7.598   2.745   2.987 -0.3160 -0.5940 -0.6712
  413MOL0     C54409   7.486   2.779   3.061 -1.0566 -1.0660 -0.2753
  413MOL0     C54410   7.360   2.773   3.005 -0.5601 -0.4114  0.5106
  413MOL0     C54411   7.244   2.795   3.080 -0.6299 -0.3974 -0.1834
  413MOL0     C54412   7.258   2.852   3.207  0.6162  0.5704 -0.3300
  413MOL0     C54413   7.131   2.888   3.279  0.2723 -0.0084  0.7800
  413MOL0     O54414   7.132   2.912   3.413 -0.2033 -0.5294  0.0834
  413MOL0     C54415   7.010   2.927   3.481  0.4580 -0.0442  0.6686
  413MOL0     C54416   7.011   3.017   3.587  0.0144  0.0465  0.3029
  413MOL0     C54417   6.895   3.044   3.657  0.1029 -0.2506 -0.0259
  413MOL0     C54418   6.767   2.984   3.624 -0.5610  0.5292 -0.1436
  413MOL0     O54419   6.673   3.015   3.716  0.1934  0.5801 -0.2951
  413MOL0     C54420   6.543   2.965   3.686 -0.2792 -0.3806  0.0243
  413MOL0     C54421   6.438   3.048   3.757  0.7251 -0.5753  0.5265
  413MOL0     C54422   6.474   3.066   3.905  0.5706  0.2106  0.2324
  413MOL0     C54423   6.354   3.106   3.996 -0.7922 -0.4330 -0.0884
  413MOL0     C54424   6.288   2.986   4.055  0.0539  0.7512  0.9892
  413MOL0     C54425   6.170   3.032   4.122  0.1860 -0.2168 -0.2749
  413MOL0     C54426   6.121   2.916   4.212  0.6908 -0.2831  0.5123
  413MOL0     C54427   6.007   2.962   4.299 -0.0034 -0.1117 -0.4352
  413MOL0    Cl54428   5.958   2.818   4.398 -0.1704 -0.3542  0.1371
  413MOL0     C54429   6.768   2.901   3.515  0.4758  0.8716  0.7060
  413MOL0     C54430   6.888   2.867   3.447 -0.2822  0.5116  0.6773
  413MOL0     O54431   7.032   2.887   3.204  0.6217  0.0653 -1.0492
  413MOL0     C54432   7.383   2.864   3.272 -0.6150 -0.1617  0.1144
  413MOL0     C54433   7.491   2.831   3.192  0.1348 -0.0102 -0.0304
  413MOL0     N54434   7.897   2.750   3.302  0.8390 -1.3307 -0.0346
  413MOL0     N54435   7.951   2.802   3.411  0.3007  0.0906  0.3996
  413MOL0     C54436   8.703   2.203   3.613  0.3193 -0.3826  0.3567
  413MOL0     C54437   8.708   2.081   3.683 -0.9351 -0.2071 -0.6592
  413MOL0     C54438   8.948   1.715   3.721 -0.5909 -0.5568 -0.1045
  413MOL0     C54439   9.001   1.700   3.849 -0.4752 -0.2801 -0.1334
  413MOL0     C54440   9.065   1.586   3.882 -0.2633  0.6773 -0.0873
  413MOL0     C54441   9.077   1.478   3.795 -0.6441 -0.0199  0.2318
  413MOL0     O54442   9.153   1.370   3.840 -0.1001 -0.5259  0.1796
  413MOL0     C54443   9.182   1.266   3.744 -0.3630  0.3418 -0.4304
  413MOL0     C54444   9.288   1.188   3.818  0.0925  0.0949  0.7262
  413MOL0     C54445   9.400   1.271   3.884 -0.3403  0.5021  0.9261
  413MOL0     C54446   9.509   1.177   3.940 -0.3076 -0.3600  0.0877
  413MOL0     C54447   9.624   1.256   3.989 -0.8849 -0.5166  0.4041
  413MOL0     C54448   9.715   1.323   4.030 -0.2729  0.9316  0.4607
  413MOL0     C54449   9.013   1.487   3.667 -0.3567  0.1991  0.1133
  413MOL0     C54450   8.953   1.603   3.634  0.7729  0.2025 -0.1105
  413MOL0     H54451   9.022   2.136   3.819 -0.3999  1.2255 -0.4657
  413MOL0     H54452   8.973   2.360   3.726  1.7734 -2.1495  0.7229
  413MOL0     H54453   8.978   2.464   3.555  0.5538  0.1845  1.6042
  413MOL0     H54454   8.854   2.579   3.629 -1.8523 -0.8167  0.5224
  413MOL0     H54455   8.855   2.537   3.340 -0.1706  0.4069 -0.2702
  413MOL0     H54456   8.981   2.639   3.420 -0.1220 -1.9063  2.0212
  413MOL0     H54457   8.763   2.756   3.338 -0.7620 -1.5859 -1.0168
  413MOL0     H54458   8.810   2.785   3.503 -3.6975  1.3464  0.8651
  413MOL0     H54459   8.596   2.588   3.419 -0.4162 -1.6700  1.1618
  413MOL0     H54460   8.632   2.627   3.586 -0.7446 -0.6153 -0.6331
  413MOL0     H54461   8.557   2.854   3.388  2.5028 -1.3921  0.3779
  413MOL0     H54462   8.558   2.856   3.556 -1.8622 -0.8467  1.2511
  413MOL0     H54463   8.398   2.703   3.594  0.6105 -0.1180 -0.5335
  413MOL0     H54464   8.373   2.671   3.417  0.1917  1.5875 -1.9024
  413MOL0     H54465   8.337   2.934   3.574 -2.2843  1.7215  1.0131
  413MOL0     H54466   8.287   2.932   3.405 -0.0650  0.8763  0.5486
  413MOL0     H54467   8.099   2.910   3.582 -2.5190 -1.5692 -0.8562
  413MOL0     H54468   8.148   2.763   3.620  1.0521 -0.0432 -0.1004
  413MOL0     H54469   8.211   2.648   3.306  0.9280  0.5995 -2.4521
  413MOL0     H54470   7.916   2.512   3.140  0.8765 -1.2185  0.0133
  413MOL0     H54471   8.081   2.520   3.117  1.3865  1.0831  0.6062
  413MOL0     H54472   8.039   2.633   2.914  1.4546 -2.6333  2.6390
  413MOL0     H54473   8.003   2.768   3.008  0.4776  0.0259 -0.6789
  413MOL0     H54474   7.808   2.728   2.854  0.8103  0.6475  0.8784
  413MOL0     H54475   7.787   2.568   2.922 -1.1281  1.1909 -1.0363
  413MOL0     H54476   7.765   2.816   3.091  0.7225 -1.0164 -0.2951
  413MOL0     H54477   7.720   2.656   3.132 -2.0928  0.6863  0.6354
  413MOL0     H54478   7.363   2.730   2.905  3.6770 -2.3758  1.2513
  413MOL0     H54479   7.145   2.772   3.042 -0.3587 -2.9274  0.4489
  413MOL0     H54480   7.108   3.061   3.608 -1.1091  1.9331  1.8609
  413MOL0     H54481   6.894   3.116   3.738 -0.7370  0.9767 -1.0711
  413MOL0     H54482   6.526   2.864   3.722  0.8180 -0.0517  1.5525
  413MOL0     H54483   6.519   2.965   3.579 -1.5302  1.3161  0.2613
  413MOL0     H54484   6.343   2.998   3.735  0.7204 -0.4421  0.2393
  413MOL0     H54485   6.430   3.148   3.714 -1.1765 -1.8479 -2.4240
  413MOL0     H54486   6.539   3.153   3.910 -0.1095  1.2726 -4.3596
  413MOL0     H54487   6.532   2.981   3.941  1.8251  0.3533 -1.3367
  413MOL0     H54488   6.383   3.172   4.079 -1.0464  0.4897 -0.7221
  413MOL0     H54489   6.278   3.153   3.934 -1.6156 -2.2279 -0.4952
  413MOL0     H54490   6.354   2.930   4.122 -1.5241 -0.9525  1.2056
  413MOL0     H54491   6.265   2.905   3.986  2.8758 -1.6039  2.5937
  413MOL0     H54492   6.088   3.055   4.054  1.5440  0.9115 -1.5900
  413MOL0     H54493   6.198   3.118   4.184  1.0088 -0.3792 -0.4109
  413MOL0     H54494   6.094   2.831   4.149 -1.6914 -0.7719  2.0575
  413MOL0     H54495   6.199   2.889   4.284 -0.0936 -0.4226  1.3172
  413MOL0     H54496   5.923   2.988   4.234 -1.2504 -0.3513  0.9980
  413MOL0     H54497   6.035   3.050   4.358 -2.0770  0.3254  0.0048
  413MOL0     H54498   6.672   2.858   3.488  0.4300  0.5548  1.3531
  413MOL0     H54499   6.887   2.799   3.363 -2.3527 -1.5092  2.2181
  413MOL0     H54500   7.401   2.898   3.373 -0.2478  0.5186 -0.1698
  413MOL0     H54501   7.582   2.838   3.251 -0.9512  0.6991  1.6303
  413MOL0     H54502   8.623   2.218   3.541  0.6259  2.0637  0.4098
  413MOL0     H54503   8.628   2.008   3.686 -1.3291  0.2151 -0.7861
  413MOL0     H54504   8.997   1.775   3.927 -0.7305  0.0998 -0.5080
  413MOL0     H54505   9.112   1.569   3.979 -1.8689  0.8955  0.7745
  413MOL0     H54506   9.226   1.311   3.654 -1.0586 -3.1397 -2.7094
  413MOL0     H54507   9.099   1.204   3.709  1.0088 -0.4841 -2.3850
  413MOL0     H54508   9.243   1.115   3.886 -0.3752  0.9326  1.3256
  413MOL0     H54509   9.340   1.123   3.747 -0.5335  0.5986 -0.2230
  413MOL0     H54510   9.355   1.331   3.964 -0.8796 -0.2955  1.2288
  413MOL0     H54511   9.440   1.330   3.801 -3.2524 -0.2840 -1.2010
  413MOL0     H54512   9.467   1.123   4.025 -1.9556  0.4521 -0.1742
  413MOL0     H54513   9.542   1.107   3.862 -0.5881 -0.4357  0.0335
  413MOL0     H54514   9.793   1.382   4.072  3.2985  0.1709 -4.2547
  413MOL0     H54515   9.024   1.405   3.597 -1.3708 -1.0601  1.3579
  413MOL0     H54516   8.910   1.625   3.537  0.1491  1.4621  0.4289
  414MOL0     O54517   6.580  11.080   3.838 -0.0171  0.0617  0.0473
  414MOL0     C54518   6.619  11.079   3.722 -0.1450  0.6893  0.4432
  414MOL0     O54519   6.533  11.070   3.615  0.0657  0.4396 -0.2888
  414MOL0     C54520   6.402  11.021   3.631 -0.4048 -0.4740  0.8462
  414MOL0     C54521   6.347  10.999   3.505 -0.2520  0.0591  0.0271
  414MOL0     C54522   6.217  10.946   3.497  0.3401  0.0285 -0.7444
  414MOL0     C54523   6.140  10.908   3.604 -0.2326 -0.7380  0.0841
  414MOL0     O54524   6.015  10.860   3.598  0.1824 -0.7730 -0.2351
  414MOL0     C54525   5.929  10.908   3.493  1.1703  0.4437 -0.2392
  414MOL0     C54526   5.783  10.863   3.528 -0.3582  0.8450  0.1575
  414MOL0     C54527   5.693  10.899   3.416 -0.1730  0.0801  0.5054
  414MOL0     C54528   5.553  10.887   3.467  0.2274  0.3833 -0.0683
  414MOL0     C54529   5.453  10.987   3.394  0.4167  1.2466 -0.2605
  414MOL0     C54530   5.306  10.967   3.446  0.5210 -0.0186 -0.3241
  414MOL0     C54531   5.242  10.837   3.401 -0.6956  0.0587  0.6356
  414MOL0     C54532   5.215  10.825   3.245  0.0754 -0.3278 -0.6558
  414MOL0     N54533   5.153  10.942   3.194 -0.6103 -0.0950 -0.0381
  414MOL0     C54534   5.023  10.984   3.223 -0.0462  0.1411  0.6143
  414MOL0     C54535   5.008  11.078   3.134  0.7741  1.0428  0.9526
  414MOL0     C54536   4.868  11.142   3.112 -0.1290  0.4478 -0.3453
  414MOL0     C54537   4.886  11.291   3.078 -0.5779 -0.5775  1.0173
  414MOL0     C54538   4.872  11.317   2.928  0.8187  0.7217 -0.0473
  414MOL0     C54539   4.735  11.305   2.870 -0.5796 -0.7068 -0.0498
  414MOL0     O54540   4.721  11.173   2.808  0.4855 -0.1235 -0.3254
  414MOL0     C54541   4.596  11.134   2.773  0.1571 -0.3309  0.1116
  414MOL0     C54542   4.588  11.011   2.706 -0.0626 -0.9924  0.3569
  414MOL0     C54543   4.467  10.951   2.689  0.1188  0.1502 -0.8526
  414MOL0     C54544   4.350  11.031   2.696 -0.3782  0.2372  0.3819
  414MOL0     C54545   4.225  10.970   2.650 -0.9699 -0.3803 -0.0782
  414MOL0     O54546   4.116  11.041   2.674 -0.3010  0.2362  0.5395
  414MOL0     C54547   4.004  11.025   2.585 -0.0681 -0.8036  0.6796
  414MOL0     C54548   3.899  10.936   2.620 -0.7613 -0.3458  0.7637
  414MOL0     C54549   3.783  10.932   2.540 -0.0633  0.4455 -0.3618
  414MOL0     C54550   3.765  11.010   2.426 -0.0672  0.1665 -0.2091
  414MOL0     O54551   3.650  11.013   2.342  0.2120 -0.0546 -0.5434
  414MOL0     C54552   3.543  10.914   2.366  0.1335 -0.6577  0.7284
  414MOL0     C54553   3.416  10.946   2.282  0.6270  0.0489 -0.2965
  414MOL0     C54554   3.399  10.856   2.160 -0.4498  0.5993  0.1853
  414MOL0     C54555   3.286  10.901   2.073 -0.2018 -0.1028  0.1548
  414MOL0     C54556   3.274  10.824   1.941 -0.4849  0.9259  0.1294
  414MOL0     C54557   3.211  10.687   1.938  0.8408  0.0508  0.1436
  414MOL0     C54558   3.299  10.574   2.000 -0.6774  0.9412 -0.1053
  414MOL0     C54559   3.243  10.429   1.982 -1.4247  0.2856  0.2073
  414MOL0    Cl54560   3.342  10.328   2.092 -0.2747 -0.6695 -0.3224
  414MOL0     C54561   3.876  11.091   2.393 -0.4054 -0.3285 -0.4234
  414MOL0     C54562   3.994  11.097   2.468 -0.5398 -0.3276 -0.9359
  414MOL0     O54563   4.223  10.857   2.603 -0.6829 -0.4760 -0.6311
  414MOL0     C54564   4.361  11.168   2.737 -0.1469  0.4514 -0.4373
  414MOL0     C54565   4.488  11.217   2.786 -0.3618  1.2189  0.2678
  414MOL0     N54566   5.118  11.100   3.053  0.7391 -0.0123 -0.4032
  414MOL0     N54567   5.193  11.006   3.086 -1.0445 -0.5011 -0.6811
  414MOL0     C54568   6.200  10.922   3.732  0.1242  0.2490  0.1606
  414MOL0     C54569   6.326  10.986   3.745  0.5076  0.1656 -0.4306
  414MOL0     C54570   6.761  11.090   3.691 -0.9148  1.0002  0.5212
  414MOL0     C54571   6.802  11.065   3.561 -0.2878  0.2720 -0.2784
  414MOL0     C54572   6.937  11.077   3.537 -0.1751 -0.3946  0.4028
  414MOL0     C54573   7.034  11.114   3.637  0.8246  0.4493  0.9150
  414MOL0     O54574   7.165  11.143   3.603  0.3883  0.0059 -0.0670
  414MOL0     C54575   7.263  11.081   3.681 -1.5068  0.5519 -0.0617
  414MOL0     C54576   7.269  10.935   3.654  0.4949 -0.0786 -0.5781
  414MOL0     C54577   7.288  10.904   3.508 -0.3032 -1.0863  0.0467
  414MOL0     C54578   7.330  10.763   3.477  0.7092  0.6360  0.3250
  414MOL0     C54579   7.318  10.741   3.337  0.3892  0.4557  1.0436
  414MOL0     C54580   7.299  10.726   3.211 -0.5071  0.3379 -0.8452
  414MOL0     C54581   6.989  11.140   3.763 -0.8149 -0.3796 -0.1437
  414MOL0     C54582   6.857  11.135   3.794 -0.0240  0.4225  0.0766
  414MOL0     H54583   6.401  11.036   3.418  1.0675  0.1009  0.8406
  414MOL0     H54584   6.176  10.927   3.398 -1.6393  2.8903 -0.5953
  414MOL0     H54585   5.957  10.859   3.400  1.4471  1.7187 -0.8363
  414MOL0     H54586   5.929  11.017   3.487 -1.7191  0.5000 -0.3098
  414MOL0     H54587   5.754  10.916   3.619 -1.9687  0.3503 -0.0406
  414MOL0     H54588   5.780  10.756   3.548 -2.6205  0.5954 -1.1169
  414MOL0     H54589   5.698  10.841   3.323 -1.0392  0.7549  0.0184
  414MOL0     H54590   5.707  11.006   3.395 -0.7619  0.1982  0.6853
  414MOL0     H54591   5.532  10.781   3.454  0.8271  0.3762 -1.0428
  414MOL0     H54592   5.551  10.912   3.574  0.4994 -1.4235  0.3940
  414MOL0     H54593   5.445  10.976   3.286 -1.4971  0.7547 -0.1058
  414MOL0     H54594   5.489  11.089   3.412  2.9176  0.0933  2.1745
  414MOL0     H54595   5.240  11.052   3.426  1.3702  0.5911 -0.6024
  414MOL0     H54596   5.308  10.965   3.555  0.3758  0.0023 -0.3207
  414MOL0     H54597   5.303  10.755   3.439  2.3300  2.8398  2.3681
  414MOL0     H54598   5.148  10.829   3.455  0.3371 -0.6299  2.3963
  414MOL0     H54599   5.152  10.739   3.224 -1.0021  0.7591 -2.0739
  414MOL0     H54600   5.308  10.810   3.189 -0.7213  0.3630 -2.2265
  414MOL0     H54601   4.950  10.943   3.292 -2.8468  0.1725 -2.1490
  414MOL0     H54602   4.812  11.125   3.205  0.3539 -1.4488 -0.3663
  414MOL0     H54603   4.803  11.093   3.040  1.4059 -0.4107 -1.1937
  414MOL0     H54604   4.983  11.335   3.102 -0.5524  0.6252 -1.0645
  414MOL0     H54605   4.807  11.348   3.129 -0.4653  1.0696 -0.5464
  414MOL0     H54606   4.883  11.424   2.912 -1.4727  1.2384  1.3792
  414MOL0     H54607   4.948  11.255   2.878 -0.2369 -0.9641  0.3390
  414MOL0     H54608   4.732  11.385   2.795  1.7453 -0.0417  0.4750
  414MOL0     H54609   4.663  11.325   2.949 -3.4166  3.1844 -3.1881
  414MOL0     H54610   4.677  10.953   2.683 -0.4388 -2.8157  3.0221
  414MOL0     H54611   4.464  10.855   2.639 -0.8235  0.0793 -0.6789
  414MOL0     H54612   3.895  10.880   2.713  2.2041 -1.2507  0.4822
  414MOL0     H54613   3.695  10.880   2.575 -0.0100 -0.3269 -1.3464
  414MOL0     H54614   3.524  10.935   2.472  2.1835  3.0463  0.5505
  414MOL0     H54615   3.579  10.813   2.346 -3.6917 -1.7768 -1.3852
  414MOL0     H54616   3.418  11.048   2.242 -0.3180  1.3404  2.6768
  414MOL0     H54617   3.327  10.938   2.345  0.8558 -2.6835 -0.2057
  414MOL0     H54618   3.394  10.752   2.195  0.8229  0.5143  0.1598
  414MOL0     H54619   3.491  10.863   2.101 -0.3554 -2.9076 -0.2836
  414MOL0     H54620   3.199  10.919   2.136  0.3447 -0.0764  0.9104
  414MOL0     H54621   3.297  11.008   2.050 -0.9782  0.1365  0.8683
  414MOL0     H54622   3.371  10.817   1.891 -0.2606 -2.4105  0.8398
  414MOL0     H54623   3.200  10.879   1.882 -2.5227  0.1588  1.8309
  414MOL0     H54624   3.192  10.671   1.832  0.6356  0.0048  0.1876
  414MOL0     H54625   3.116  10.684   1.992  1.9311 -0.2897  2.1480
  414MOL0     H54626   3.406  10.579   1.979 -0.2214  2.0030  2.2074
  414MOL0     H54627   3.297  10.596   2.107  4.1576  2.1105 -0.0406
  414MOL0     H54628   3.258  10.393   1.880 -2.3086  1.7142 -0.4580
  414MOL0     H54629   3.135  10.421   1.994 -1.3114 -1.8066  0.0800
  414MOL0     H54630   3.876  11.155   2.305 -1.6836  1.8825  1.0845
  414MOL0     H54631   4.085  11.153   2.449 -0.4010 -0.3183 -0.2684
  414MOL0     H54632   4.275  11.230   2.760 -2.4449 -3.3766  2.4959
  414MOL0     H54633   4.502  11.311   2.837  3.9460  0.6563  0.4559
  414MOL0     H54634   6.143  10.890   3.819 -1.6506  0.1661 -0.9902
  414MOL0     H54635   6.356  11.003   3.848 -4.2824  1.6884  0.9766
  414MOL0     H54636   6.733  11.046   3.479 -2.1606  0.7440  1.1331
  414MOL0     H54637   6.985  11.064   3.441  1.7649  0.2615  1.2181
  414MOL0     H54638   7.238  11.099   3.786 -0.0992 -1.0564  0.5889
  414MOL0     H54639   7.361  11.127   3.671  0.3072 -2.9933 -0.1360
  414MOL0     H54640   7.348  10.891   3.716  0.1663  1.3780  0.9645
  414MOL0     H54641   7.173  10.898   3.690  0.0973  0.4179 -1.1191
  414MOL0     H54642   7.375  10.966   3.486 -1.9319  2.1345  2.0487
  414MOL0     H54643   7.205  10.944   3.450 -0.6277 -0.9650  0.5877
  414MOL0     H54644   7.431  10.737   3.507  0.5504 -2.2422 -1.3115
  414MOL0     H54645   7.271  10.691   3.535  1.3088  2.9157  4.1565
  414MOL0     H54646   7.283  10.695   3.110  1.7853 -2.4652 -0.4819
  414MOL0     H54647   7.049  11.187   3.840  1.7179 -1.5435 -1.2738
  414MOL0     H54648   6.823  11.166   3.892  0.1185 -2.5423  1.1450
  415MOL0     O54649   5.635   5.500   2.179 -0.2402 -0.1145  0.0111
  415MOL0     C54650   5.643   5.449   2.290  0.1586  0.6701 -0.3479
  415MOL0     O54651   5.543   5.437   2.381  0.2768 -0.6916 -0.0399
  415MOL0     C54652   5.414   5.483   2.337 -0.2678 -0.1485 -0.0231
  415MOL0     C54653   5.340   5.538   2.443  0.1281  0.1433 -0.5488
  415MOL0     C54654   5.225   5.603   2.408  0.2437 -0.9716 -0.1166
  415MOL0     C54655   5.171   5.615   2.280  0.7760  0.2695  0.4930
  415MOL0     O54656   5.048   5.671   2.250 -0.0315  0.4009  0.5915
  415MOL0     C54657   4.967   5.601   2.150 -0.0835  0.1784 -0.0771
  415MOL0     C54658   4.826   5.648   2.203 -0.2405 -0.2214  0.2858
  415MOL0     C54659   4.706   5.598   2.128  0.1153  0.6800 -0.1225
  415MOL0     C54660   4.573   5.646   2.195 -0.6107 -0.4395 -0.1053
  415MOL0     C54661   4.469   5.598   2.093 -0.2759 -0.3258 -0.6426
  415MOL0     C54662   4.342   5.670   2.096  1.1002 -0.5883 -0.8984
  415MOL0     C54663   4.257   5.609   2.212  0.4507  0.1258 -0.5033
  415MOL0     C54664   4.115   5.681   2.206 -0.0642 -0.6995 -0.5975
  415MOL0     N54665   4.024   5.631   2.100  0.5917  0.1772 -0.4680
  415MOL0     C54666   4.001   5.680   1.972 -0.9213  0.2604  0.2432
  415MOL0     C54667   3.887   5.626   1.930  0.7156 -0.0447  0.0301
  415MOL0     C54668   3.815   5.658   1.800 -1.1626 -0.8443 -0.5503
  415MOL0     C54669   3.670   5.716   1.824 -0.1789 -0.5741  0.3159
  415MOL0     C54670   3.611   5.760   1.693 -0.7190 -0.3460 -0.1062
  415MOL0     C54671   3.464   5.784   1.715 -0.3806  0.1404  0.1037
  415MOL0     O54672   3.413   5.814   1.583  0.1826  0.0086  0.0675
  415MOL0     C54673   3.277   5.812   1.566 -0.2874 -0.0839 -0.4169
  415MOL0     C54674   3.182   5.784   1.670 -0.4004 -0.5724  0.2485
  415MOL0     C54675   3.043   5.777   1.639 -0.2942  0.2432 -0.0759
  415MOL0     C54676   2.996   5.796   1.517  0.1424  0.3427 -0.0513
  415MOL0     C54677   2.849   5.787   1.488  0.2739  0.7539 -0.1204
  415MOL0     O54678   2.764   5.749   1.591 -0.0122 -0.3559 -0.3969
  415MOL0     C54679   2.626   5.749   1.577  0.4669  0.1093  0.1062
  415MOL0     C54680   2.550   5.752   1.695 -0.0793 -0.4303 -0.2069
  415MOL0     C54681   2.408   5.770   1.688  0.6551  0.4300 -0.7685
  415MOL0     C54682   2.339   5.764   1.571 -0.1567  0.7907 -0.1716
  415MOL0     O54683   2.206   5.784   1.560 -0.1936  0.3633 -0.7618
  415MOL0     C54684   2.128   5.702   1.650 -0.6216  0.2550 -0.3706
  415MOL0     C54685   1.979   5.701   1.621  0.6314 -0.1612 -0.2900
  415MOL0     C54686   1.919   5.846   1.622  0.3669  0.3437  0.4664
  415MOL0     C54687   1.938   5.909   1.754  0.3029  0.0089  0.3723
  415MOL0     C54688   1.845   6.027   1.747 -0.1126  0.5771  0.3732
  415MOL0     C54689   1.830   6.105   1.879 -0.4249  0.0595  0.2302
  415MOL0     C54690   1.817   6.023   2.005 -0.1350 -0.1558 -0.0636
  415MOL0     C54691   1.777   6.117   2.124 -0.9606 -0.6125  0.1728
  415MOL0    Cl54692   1.629   6.196   2.089  0.3808  0.3508 -0.3233
  415MOL0     C54693   2.416   5.752   1.454  0.8246 -0.6759  0.6623
  415MOL0     C54694   2.551   5.736   1.458 -0.4152  0.9413  0.4218
  415MOL0     O54695   2.815   5.830   1.376 -0.0917 -0.3409  0.3052
  415MOL0     C54696   3.090   5.827   1.415 -0.1442 -0.4187  0.1034
  415MOL0     C54697   3.226   5.823   1.440 -0.5298 -0.1826  0.6837
  415MOL0     N54698   3.836   5.543   2.035 -0.8525  0.2746 -0.2154
  415MOL0     N54699   3.925   5.539   2.131  0.3958  0.0032 -0.5235
  415MOL0     C54700   5.244   5.553   2.179 -0.0646  0.7308 -0.1407
  415MOL0     C54701   5.367   5.493   2.198 -0.9576  0.1114 -0.8009
  415MOL0     C54702   5.773   5.384   2.334  0.5346 -0.7242 -0.3322
  415MOL0     C54703   5.817   5.388   2.470  0.1536 -0.1621  0.5901
  415MOL0     C54704   5.937   5.329   2.512 -0.0770  0.8765 -0.1935
  415MOL0     C54705   6.014   5.245   2.425  0.6954 -0.6378 -0.4487
  415MOL0     O54706   6.119   5.174   2.475  0.3648  0.3291 -0.0154
  415MOL0     C54707   6.174   5.078   2.390 -0.5869 -0.1346 -0.3540
  415MOL0     C54708   6.281   5.002   2.468  0.2742  1.0242 -0.6471
  415MOL0     C54709   6.398   5.095   2.511  0.5019 -0.4679  0.2916
  415MOL0     C54710   6.541   5.040   2.493  0.3129 -0.0034 -0.4068
  415MOL0     C54711   6.632   5.135   2.553 -0.2286  0.5759  0.2975
  415MOL0     C54712   6.699   5.223   2.606  0.3686  0.3546 -0.4354
  415MOL0     C54713   5.975   5.247   2.290  0.1579  0.5236 -0.0280
  415MOL0     C54714   5.852   5.311   2.249 -0.5240 -1.1099  0.5348
  415MOL0     H54715   5.375   5.525   2.545 -1.9288 -2.7513 -0.0896
  415MOL0     H54716   5.180   5.660   2.488 -2.4589  0.7176 -2.6316
  415MOL0     H54717   4.975   5.494   2.168  0.1113  0.3789  1.1226
  415MOL0     H54718   4.992   5.636   2.050  0.0933  0.7946  0.1765
  415MOL0     H54719   4.811   5.756   2.198  0.4484 -0.1616 -0.7730
  415MOL0     H54720   4.819   5.606   2.304 -0.7707 -0.6784  0.0644
  415MOL0     H54721   4.714   5.489   2.126 -0.3121  0.5992 -4.0173
  415MOL0     H54722   4.714   5.629   2.024 -2.0551  2.1482  0.0845
  415MOL0     H54723   4.562   5.604   2.295  1.2959  2.1944  1.3400
  415MOL0     H54724   4.571   5.755   2.206 -1.1602 -0.4897  0.2810
  415MOL0     H54725   4.450   5.491   2.101  0.8573 -0.5569 -0.9375
  415MOL0     H54726   4.507   5.620   1.993 -1.3269  0.1580 -0.9489
  415MOL0     H54727   4.284   5.653   2.005 -2.7296  0.4524  1.1332
  415MOL0     H54728   4.356   5.776   2.116 -1.7555 -0.1003 -1.1314
  415MOL0     H54729   4.238   5.501   2.212  0.8652  0.0411  0.9045
  415MOL0     H54730   4.303   5.636   2.308 -0.5854  0.3491 -0.0556
  415MOL0     H54731   4.130   5.789   2.193 -3.2863 -0.1082 -0.2386
  415MOL0     H54732   4.065   5.661   2.301 -0.1233 -0.9219 -0.6771
  415MOL0     H54733   4.057   5.760   1.924 -3.2884  1.7493 -0.1888
  415MOL0     H54734   3.820   5.565   1.742  0.4884 -0.9496 -0.2845
  415MOL0     H54735   3.876   5.732   1.748 -1.7498 -0.3442 -0.5379
  415MOL0     H54736   3.671   5.799   1.894 -1.1321 -0.8346  0.6535
  415MOL0     H54737   3.621   5.626   1.863  0.9010 -0.6868  1.4679
  415MOL0     H54738   3.663   5.850   1.660 -0.7533 -0.8446 -1.5775
  415MOL0     H54739   3.634   5.680   1.623  0.7414 -0.3702  0.3601
  415MOL0     H54740   3.459   5.877   1.771 -0.1480  0.9047 -1.1095
  415MOL0     H54741   3.434   5.687   1.758  1.3265 -1.5256 -2.2018
  415MOL0     H54742   3.214   5.760   1.771  2.7357  2.1728  0.1104
  415MOL0     H54743   2.977   5.764   1.724 -2.1627  2.9182 -0.9565
  415MOL0     H54744   2.590   5.759   1.796 -1.5111 -0.0492  0.3548
  415MOL0     H54745   2.357   5.785   1.782 -1.7445  0.4732 -2.0182
  415MOL0     H54746   2.131   5.742   1.752 -4.0650  0.8343 -0.3793
  415MOL0     H54747   2.158   5.597   1.644 -3.0402 -0.4745 -0.8648
  415MOL0     H54748   1.917   5.646   1.691 -1.4735  1.9933 -0.3396
  415MOL0     H54749   1.967   5.657   1.522  0.9124 -0.3951 -0.2230
  415MOL0     H54750   1.814   5.852   1.592  0.6050  2.6752 -0.0910
  415MOL0     H54751   1.973   5.905   1.547 -0.1393 -1.0210 -1.0351
  415MOL0     H54752   1.919   5.838   1.836 -3.7653 -0.8369 -1.0484
  415MOL0     H54753   2.037   5.954   1.767 -1.0842  2.6226  3.1675
  415MOL0     H54754   1.747   5.990   1.715  1.2398 -0.8355 -2.5295
  415MOL0     H54755   1.876   6.086   1.660 -3.2463  0.7528 -0.7376
  415MOL0     H54756   1.748   6.176   1.862  0.4360  0.8278 -0.8583
  415MOL0     H54757   1.914   6.174   1.880 -2.1642  2.4249 -1.9211
  415MOL0     H54758   1.738   5.948   1.995 -0.8377  0.7396 -1.7184
  415MOL0     H54759   1.912   5.971   2.015  0.2679  0.3408 -1.1375
  415MOL0     H54760   1.856   6.191   2.135 -1.5809  0.2235 -0.8277
  415MOL0     H54761   1.773   6.064   2.220  0.1472 -1.9298 -0.4646
  415MOL0     H54762   2.364   5.760   1.359 -0.8757  1.8829  1.6801
  415MOL0     H54763   2.601   5.720   1.363  3.0066  4.4270  1.3812
  415MOL0     H54764   3.056   5.846   1.314 -1.2455  0.3465  0.6005
  415MOL0     H54765   3.294   5.848   1.358  2.1216 -0.8954  2.5259
  415MOL0     H54766   5.218   5.569   2.075  0.9702  0.3825 -0.4640
  415MOL0     H54767   5.422   5.452   2.114 -1.5135 -3.7752  0.5082
  415MOL0     H54768   5.767   5.452   2.543 -0.2208 -0.3903  0.5369
  415MOL0     H54769   5.969   5.336   2.616  2.0587  0.7054 -0.7778
  415MOL0     H54770   6.214   5.130   2.302 -1.4077  0.7786 -0.2104
  415MOL0     H54771   6.091   5.012   2.365 -0.6528  0.6986 -2.6500
  415MOL0     H54772   6.231   4.959   2.556  0.5917  1.2172 -0.3687
  415MOL0     H54773   6.312   4.915   2.409 -0.1638  0.8688 -0.6501
  415MOL0     H54774   6.376   5.133   2.611 -0.6868 -0.9444  0.2377
  415MOL0     H54775   6.394   5.188   2.454  0.7749 -1.7810 -1.9720
  415MOL0     H54776   6.549   4.939   2.536  0.7121  0.5262  0.7862
  415MOL0     H54777   6.567   5.033   2.387 -2.1255 -1.0256 -1.0134
  415MOL0     H54778   6.744   5.306   2.657 -0.0087  0.7085 -0.6720
  415MOL0     H54779   6.040   5.205   2.214 -0.0891 -0.8152  0.4678
  415MOL0     H54780   5.823   5.306   2.144  0.0138  3.7071 -0.0809
  416MOL0     O54781   6.723   0.210   3.377  0.6730 -0.3262 -0.0357
  416MOL0     C54782   6.683   0.229   3.492  0.4526  0.1327  0.6761
  416MOL0     O54783   6.550   0.244   3.531  0.3161  0.0911 -0.8001
  416MOL0     C54784   6.447   0.215   3.451 -0.2370  0.0425  0.3835
  416MOL0     C54785   6.354   0.308   3.413  0.0947  0.6455  0.3696
  416MOL0     C54786   6.253   0.273   3.319  0.6146 -0.1494  0.4522
  416MOL0     C54787   6.239   0.147   3.268 -0.6112  0.5654  0.5834
  416MOL0     O54788   6.135   0.134   3.183  0.0045  0.0816 -0.0191
  416MOL0     C54789   6.070   0.007   3.173  0.1302 -1.1210 -0.2128
  416MOL0     C54790   5.936   0.017   3.127 -0.9561 -0.2605 -0.4296
  416MOL0     C54791   5.878  -0.122   3.100  0.4534 -0.5077 -0.1986
  416MOL0     C54792   5.744  -0.113   3.028  0.2027 -0.0655  0.2277
  416MOL0     C54793   5.663  -0.013   3.093 -0.1282 -0.0224  0.3363
  416MOL0     C54794   5.515  -0.036   3.061  0.8396  1.0061 -0.3339
  416MOL0     C54795   5.435   0.088   3.109 -0.9004  0.3543 -0.5657
  416MOL0     C54796   5.431   0.086   3.259  0.3985 -0.2270 -0.2988
  416MOL0     N54797   5.339   0.198   3.280  0.0856  0.3683  0.0579
  416MOL0     C54798   5.204   0.197   3.281  0.3464  0.4587  0.8577
  416MOL0     C54799   5.170   0.328   3.297  0.4983 -0.9002  0.5658
  416MOL0     C54800   5.030   0.388   3.296  0.2917  0.7415 -0.5205
  416MOL0     C54801   5.001   0.472   3.167 -0.3595  0.0465 -0.7150
  416MOL0     C54802   4.852   0.525   3.182 -0.1367  0.5513 -0.1738
  416MOL0     C54803   4.736   0.425   3.167 -0.1087  0.6374  0.6647
  416MOL0     O54804   4.705   0.398   3.026  0.6909  0.1852  0.0365
  416MOL0     C54805   4.579   0.362   2.987  0.5886 -0.8791 -0.5624
  416MOL0     C54806   4.471   0.335   3.078  0.1005 -0.6238 -0.1684
  416MOL0     C54807   4.336   0.317   3.025 -0.1453  0.4799  0.0823
  416MOL0     C54808   4.310   0.318   2.885 -0.2836 -0.0465  0.3537
  416MOL0     C54809   4.185   0.266   2.827 -0.5084  0.2404 -0.3411
  416MOL0     O54810   4.074   0.268   2.915  0.1193  0.4231  0.0508
  416MOL0     C54811   3.958   0.221   2.866 -0.3850  0.6291  0.3600
  416MOL0     C54812   3.847   0.302   2.881 -0.9870 -0.0881  0.0380
  416MOL0     C54813   3.719   0.261   2.826 -0.2425 -0.8278 -1.0972
  416MOL0     C54814   3.710   0.144   2.749  0.6261 -0.8127 -0.5719
  416MOL0     O54815   3.589   0.118   2.696  0.0237  0.0991  0.4449
  416MOL0     C54816   3.589   0.089   2.554 -0.5282  0.2011  0.0690
  416MOL0     C54817   3.444   0.066   2.504  0.3872  0.1277  0.4652
  416MOL0     C54818   3.372  -0.014   2.614  0.1162  0.7640 -0.1700
  416MOL0     C54819   3.225  -0.047   2.563  0.5656 -0.0064  0.5084
  416MOL0     C54820   3.142  -0.115   2.673  0.9364 -0.0780 -0.2494
  416MOL0     C54821   2.987  -0.109   2.645 -0.0320  0.5934  0.6984
  416MOL0     C54822   2.921  -0.216   2.728  1.2116  0.5219  0.7386
  416MOL0     C54823   2.776  -0.190   2.756  0.2255  0.9083  0.3744
  416MOL0    Cl54824   2.700  -0.145   2.591  0.3173  0.8579  0.0171
  416MOL0     C54825   3.823   0.064   2.740  0.1775  0.0170  0.5259
  416MOL0     C54826   3.944   0.100   2.797 -0.4733  0.1974 -0.6912
  416MOL0     O54827   4.184   0.243   2.709  0.3949 -0.4576  0.2786
  416MOL0     C54828   4.422   0.338   2.804  0.2068  0.8775 -0.1524
  416MOL0     C54829   4.549   0.363   2.847 -0.6032 -0.7937 -1.0300
  416MOL0     N54830   5.286   0.403   3.301  0.5174 -0.6707 -0.6504
  416MOL0     N54831   5.386   0.323   3.301  0.2846  0.0135 -0.1476
  416MOL0     C54832   6.334   0.052   3.303  0.4974 -0.1547 -0.1892
  416MOL0     C54833   6.434   0.090   3.396  0.4356 -0.6275 -0.1330
  416MOL0     C54834   6.785   0.251   3.598 -1.0831  0.1365 -0.3405
  416MOL0     C54835   6.767   0.335   3.711 -1.2049  0.0540 -0.4010
  416MOL0     C54836   6.874   0.373   3.794  0.8189 -0.1068 -0.6158
  416MOL0     C54837   7.001   0.318   3.771 -0.7327  0.3810  0.1628
  416MOL0     O54838   7.105   0.347   3.860  0.1703 -0.3927  0.3337
  416MOL0     C54839   7.199   0.235   3.874  0.4644 -0.8825 -0.4642
  416MOL0     C54840   7.280   0.262   4.000 -0.2595 -0.1716  1.1881
  416MOL0     C54841   7.387   0.154   4.019  0.8362 -0.0828 -0.2978
  416MOL0     C54842   7.493   0.188   4.135  0.4200 -0.4146  0.8431
  416MOL0     C54843   7.431   0.218   4.261  0.8004 -0.0558 -0.2243
  416MOL0     C54844   7.379   0.251   4.369 -0.6730 -0.1990  0.4190
  416MOL0     C54845   7.023   0.241   3.651  0.0779  0.1585  0.7192
  416MOL0     C54846   6.915   0.209   3.567  0.0345 -0.3964 -0.4242
  416MOL0     H54847   6.369   0.410   3.444  0.9222 -0.3310  3.5168
  416MOL0     H54848   6.190   0.352   3.282  0.5959 -0.9274 -1.2427
  416MOL0     H54849   6.072  -0.028   3.277 -0.0716  0.9663  0.5333
  416MOL0     H54850   6.124  -0.057   3.103  0.5098 -0.0445 -0.9261
  416MOL0     H54851   5.921   0.080   3.039  0.8776  1.7360  0.5959
  416MOL0     H54852   5.886   0.059   3.214  5.2417  2.7554  2.2609
  416MOL0     H54853   5.854  -0.175   3.193 -3.0778  2.8497  1.0593
  416MOL0     H54854   5.950  -0.188   3.051  2.3265 -0.2181  1.9871
  416MOL0     H54855   5.776  -0.091   2.926 -3.0870 -0.6657 -1.0698
  416MOL0     H54856   5.692  -0.209   3.025  0.2910 -0.1029 -2.1614
  416MOL0     H54857   5.699   0.086   3.066  3.1001 -1.0849  0.4104
  416MOL0     H54858   5.677  -0.032   3.200 -1.1581 -0.5178  0.4003
  416MOL0     H54859   5.477  -0.129   3.104  1.4537  0.3209 -1.2496
  416MOL0     H54860   5.499  -0.039   2.953 -0.3079  2.0763 -0.2185
  416MOL0     H54861   5.488   0.178   3.077  1.3576 -1.0590 -1.0487
  416MOL0     H54862   5.333   0.096   3.072 -1.7375  0.4121  1.5959
  416MOL0     H54863   5.527   0.098   3.310 -0.8583  0.5350  2.0063
  416MOL0     H54864   5.379  -0.005   3.291 -1.0897 -0.1415 -2.3009
  416MOL0     H54865   5.133   0.115   3.271 -1.1867  1.3034  3.5465
  416MOL0     H54866   5.017   0.446   3.388 -2.5191  2.2051 -1.7003
  416MOL0     H54867   4.958   0.307   3.311  1.7701 -0.5889 -0.2986
  416MOL0     H54868   5.006   0.417   3.073  1.4803 -0.3541 -0.4184
  416MOL0     H54869   5.067   0.559   3.170 -1.4037  0.9663  3.6966
  416MOL0     H54870   4.831   0.558   3.285 -3.0967 -1.2883 -0.0729
  416MOL0     H54871   4.830   0.608   3.115  0.8452 -0.0892 -1.3164
  416MOL0     H54872   4.653   0.467   3.225 -1.7259 -2.4279  0.7739
  416MOL0     H54873   4.749   0.324   3.207 -0.1700  1.3221  2.5317
  416MOL0     H54874   4.487   0.315   3.183  2.9627 -1.8615 -0.7375
  416MOL0     H54875   4.248   0.294   3.084 -2.0367  2.0112 -1.9531
  416MOL0     H54876   3.850   0.395   2.937  1.7144 -1.2606  2.0342
  416MOL0     H54877   3.633   0.326   2.838  0.5250  0.0319  0.0193
  416MOL0     H54878   3.635  -0.009   2.538  1.4494  0.4369  3.4163
  416MOL0     H54879   3.646   0.163   2.498  0.5689  0.6452  1.6868
  416MOL0     H54880   3.431   0.015   2.408 -2.2092  0.1239  0.7502
  416MOL0     H54881   3.394   0.163   2.502  0.2163  0.0846  1.8119
  416MOL0     H54882   3.360   0.039   2.709 -1.9662  3.9372 -2.0054
  416MOL0     H54883   3.415  -0.112   2.636 -1.8115 -0.0106  0.3884
  416MOL0     H54884   3.184   0.051   2.538 -0.5502 -0.2747  1.1990
  416MOL0     H54885   3.224  -0.118   2.480  0.8663 -2.5649  2.5403
  416MOL0     H54886   3.155  -0.065   2.769  0.1163  1.3307 -0.8345
  416MOL0     H54887   3.171  -0.221   2.675 -1.0740 -0.6625  0.4177
  416MOL0     H54888   2.965  -0.133   2.540 -1.8489  0.0041  1.1804
  416MOL0     H54889   2.954  -0.006   2.665  1.1495  0.7251  2.1183
  416MOL0     H54890   2.927  -0.312   2.675 -4.7019 -1.3484  2.6141
  416MOL0     H54891   2.974  -0.235   2.822  0.9195 -0.5342  0.7094
  416MOL0     H54892   2.773  -0.107   2.827 -0.6691  1.7588 -0.6275
  416MOL0     H54893   2.730  -0.272   2.811 -1.7477  0.7013 -1.4520
  416MOL0     H54894   3.824  -0.026   2.679 -2.6004 -2.7779  4.1517
  416MOL0     H54895   4.032   0.044   2.768  1.6759  2.7808  0.4324
  416MOL0     H54896   4.412   0.330   2.696  0.8626 -0.1309 -0.1592
  416MOL0     H54897   4.632   0.381   2.780  1.0753  0.3274  1.2181
  416MOL0     H54898   6.331  -0.048   3.262 -4.4000 -1.3667  2.3388
  416MOL0     H54899   6.517   0.023   3.415  0.8704  0.4896  2.2276
  416MOL0     H54900   6.668   0.374   3.736 -2.3778 -2.0682 -1.4748
  416MOL0     H54901   6.861   0.439   3.879 -0.1683 -1.4221  0.2953
  416MOL0     H54902   7.262   0.213   3.787 -0.4221  1.6250 -1.8526
  416MOL0     H54903   7.137   0.147   3.896  0.7212 -1.0028 -0.2149
  416MOL0     H54904   7.323   0.360   3.976 -1.2552  0.3047  1.2573
  416MOL0     H54905   7.218   0.259   4.090  1.9160 -1.7332  2.7104
  416MOL0     H54906   7.444   0.126   3.930  0.2557 -1.0814 -0.3737
  416MOL0     H54907   7.328   0.067   4.050 -2.3029  2.6712  2.2545
  416MOL0     H54908   7.552   0.095   4.140  0.2725 -0.6228 -0.9366
  416MOL0     H54909   7.562   0.271   4.117  0.5297 -1.1154 -2.5252
  416MOL0     H54910   7.331   0.292   4.455  0.7904  2.4148  0.0946
  416MOL0     H54911   7.118   0.195   3.627  0.4551  0.1763  2.1090
  416MOL0     H54912   6.932   0.156   3.474 -0.8182 -0.8581 -0.3236
  417MOL0     O54913  10.994   3.581   1.746 -0.4524  0.5089 -0.3963
  417MOL0     C54914  11.093   3.564   1.817 -0.2671 -0.3229  0.3815
  417MOL0     O54915  11.091   3.548   1.950  0.2518  0.2685  0.1222
  417MOL0     C54916  10.967   3.536   2.006 -0.0008  0.2078 -0.4637
  417MOL0     C54917  10.915   3.411   2.015  0.4790 -0.3945 -0.2634
  417MOL0     C54918  10.794   3.383   2.081  1.1705 -0.0868 -1.0193
  417MOL0     C54919  10.723   3.496   2.141  0.5564  1.4000 -0.7444
  417MOL0     O54920  10.610   3.479   2.223  0.0949  0.2629 -0.1355
  417MOL0     C54921  10.522   3.364   2.210  0.5689 -0.2022 -0.1153
  417MOL0     C54922  10.449   3.337   2.074 -0.5457 -0.5878  0.8071
  417MOL0     C54923  10.391   3.189   2.083  0.7817 -0.1952 -0.1832
  417MOL0     C54924  10.305   3.152   2.207 -0.5335 -0.6716 -0.4888
  417MOL0     C54925  10.171   3.244   2.214 -0.8389 -0.1954  0.5653
  417MOL0     C54926  10.106   3.220   2.353  0.2997  0.1690 -0.1004
  417MOL0     C54927   9.960   3.269   2.340  0.4707 -0.4116  0.1133
  417MOL0     C54928   9.880   3.233   2.465 -0.0612 -0.0866 -0.2694
  417MOL0     N54929   9.925   3.308   2.588 -0.4163  0.1958  0.3266
  417MOL0     C54930   9.890   3.437   2.625 -0.5039  0.5313  0.4663
  417MOL0     C54931   9.968   3.463   2.737 -0.5587  0.7966  0.9451
  417MOL0     C54932   9.949   3.587   2.824 -0.7495  0.5019 -0.1952
  417MOL0     C54933   9.801   3.616   2.853  1.2668  0.3220  1.8045
  417MOL0     C54934   9.795   3.710   2.978  0.2479  0.6066 -0.1443
  417MOL0     C54935   9.655   3.768   2.972  0.1936 -0.3158 -0.5873
  417MOL0     O54936   9.558   3.657   2.998 -0.0082  0.7059 -0.3355
  417MOL0     C54937   9.425   3.680   3.028 -0.1062 -0.0527 -0.0849
  417MOL0     C54938   9.340   3.572   3.057 -0.1492  0.2878  0.1041
  417MOL0     C54939   9.203   3.591   3.082  0.5836 -0.0898 -0.5752
  417MOL0     C54940   9.142   3.713   3.066  0.4078  0.4188  0.6403
  417MOL0     C54941   8.998   3.732   3.078 -0.1101 -0.0556 -0.1084
  417MOL0     O54942   8.915   3.625   3.078  0.0073  0.0958  0.0340
  417MOL0     C54943   8.779   3.634   3.078 -0.2900 -0.3103 -0.5923
  417MOL0     C54944   8.712   3.663   2.956  0.6643  0.1390  0.2846
  417MOL0     C54945   8.574   3.683   2.962  0.8106 -0.0490  0.1466
  417MOL0     C54946   8.496   3.675   3.079 -0.4991  0.8124  0.4865
  417MOL0     O54947   8.365   3.720   3.082  0.4949  0.1281  0.5419
  417MOL0     C54948   8.273   3.670   3.181 -0.0746  0.0763  0.2673
  417MOL0     C54949   8.135   3.650   3.122 -0.8680  0.2631 -0.0333
  417MOL0     C54950   8.130   3.594   2.981  0.0279 -0.3809 -0.1234
  417MOL0     C54951   7.985   3.591   2.921 -0.5851 -0.0601 -0.4285
  417MOL0     C54952   7.990   3.501   2.795 -0.4304  0.2448 -0.3771
  417MOL0     C54953   7.845   3.489   2.741 -0.0272 -0.3551 -0.1275
  417MOL0     C54954   7.855   3.404   2.609 -0.5079  0.3057  0.5367
  417MOL0     C54955   7.709   3.379   2.561  0.2856 -0.1455  0.1441
  417MOL0    Cl54956   7.713   3.292   2.402  0.0961 -0.2192 -0.1006
  417MOL0     C54957   8.562   3.652   3.194 -0.0535  1.2098  0.0787
  417MOL0     C54958   8.701   3.625   3.192 -0.2013  0.5276  0.2803
  417MOL0     O54959   8.963   3.851   3.087  0.6921  0.0603 -1.1740
  417MOL0     C54960   9.230   3.818   3.056 -0.3971  0.2430 -0.0942
  417MOL0     C54961   9.365   3.808   3.031  0.3587  0.4576  1.0344
  417MOL0     N54962  10.047   3.358   2.756 -0.1236  0.7472 -0.6542
  417MOL0     N54963  10.030   3.268   2.663 -0.1905 -0.2171 -0.4501
  417MOL0     C54964  10.795   3.616   2.154 -0.4401 -0.7746 -0.1183
  417MOL0     C54965  10.907   3.639   2.073 -0.3812  0.1911  0.1109
  417MOL0     C54966  11.222   3.584   1.753 -0.4900 -0.2495  0.3944
  417MOL0     C54967  11.247   3.589   1.611 -0.2554  0.1281  0.1616
  417MOL0     C54968  11.381   3.602   1.561 -0.1816  0.1638  0.5354
  417MOL0     C54969  11.483   3.607   1.654  0.3305 -0.0529 -0.3872
  417MOL0     O54970  11.605   3.626   1.602 -0.4927  0.0876  0.2264
  417MOL0     C54971  11.718   3.634   1.686 -0.2963 -0.1294  1.0058
  417MOL0     C54972  11.764   3.490   1.725 -0.3458  0.1508  0.2442
  417MOL0     C54973  11.773   3.396   1.607 -0.9285 -0.1920 -0.4715
  417MOL0     C54974  11.892   3.435   1.501 -0.4903 -0.2857  0.2662
  417MOL0     C54975  11.948   3.316   1.438  0.5649 -0.4007 -0.0190
  417MOL0     C54976  11.978   3.204   1.407 -0.0664  0.3783  1.0642
  417MOL0     C54977  11.461   3.587   1.796  0.1819  1.0979 -0.0869
  417MOL0     C54978  11.330   3.579   1.840  0.3976 -0.3433 -0.3294
  417MOL0     H54979  10.965   3.330   1.963  0.7792 -1.0902  1.0641
  417MOL0     H54980  10.747   3.288   2.056 -2.0104  0.2980  2.4476
  417MOL0     H54981  10.441   3.394   2.278  1.0749 -1.4414  1.0967
  417MOL0     H54982  10.576   3.278   2.251  2.6513  1.2627  0.3422
  417MOL0     H54983  10.509   3.351   1.984 -1.3045  2.8432  0.7011
  417MOL0     H54984  10.370   3.413   2.073 -0.0932 -0.1151  0.7663
  417MOL0     H54985  10.482   3.130   2.100  1.0098  0.5445  1.3632
  417MOL0     H54986  10.332   3.167   1.994 -2.2067  4.1497  0.4394
  417MOL0     H54987  10.277   3.047   2.196  2.1373 -1.3760 -1.2789
  417MOL0     H54988  10.360   3.162   2.301 -2.5365  1.8382  0.5156
  417MOL0     H54989  10.106   3.231   2.127 -1.0863  3.5263  0.0269
  417MOL0     H54990  10.209   3.347   2.219  2.8975 -1.4002 -0.6039
  417MOL0     H54991  10.160   3.263   2.438 -2.1864 -0.1781  1.7789
  417MOL0     H54992  10.095   3.114   2.375 -3.0207  0.7725  1.9370
  417MOL0     H54993   9.956   3.378   2.335  2.7425 -0.1357  2.3268
  417MOL0     H54994   9.908   3.234   2.250  1.4593 -1.7729  0.0358
  417MOL0     H54995   9.890   3.125   2.478 -1.0194 -0.2206 -0.5736
  417MOL0     H54996   9.777   3.258   2.441  0.2108 -0.8940 -2.4508
  417MOL0     H54997   9.804   3.498   2.600 -1.9032 -1.3801  0.3854
  417MOL0     H54998   9.999   3.679   2.793 -0.7376  0.9396  1.0956
  417MOL0     H54999   9.994   3.557   2.919 -2.0939 -3.6500 -0.6464
  417MOL0     H55000   9.743   3.524   2.865 -2.1340  1.7221 -1.7674
  417MOL0     H55001   9.756   3.665   2.766  1.6922 -3.0866 -0.5356
  417MOL0     H55002   9.800   3.655   3.072  1.5961  0.2299 -0.4186
  417MOL0     H55003   9.860   3.798   2.970  0.1245  0.8335  1.1536
  417MOL0     H55004   9.644   3.823   2.878  1.6656  2.3800  0.7136
  417MOL0     H55005   9.642   3.840   3.053 -1.4199 -2.2934  1.0515
  417MOL0     H55006   9.383   3.473   3.065  1.4446  0.8949 -0.4365
  417MOL0     H55007   9.145   3.505   3.114 -1.2886  1.7046  1.1583
  417MOL0     H55008   8.776   3.694   2.874  0.8754  2.0432  1.1108
  417MOL0     H55009   8.532   3.710   2.865  0.1391 -1.1888  0.1080
  417MOL0     H55010   8.267   3.739   3.265  1.9303 -1.4257  1.7387
  417MOL0     H55011   8.304   3.574   3.223  1.9786  0.2638 -0.6405
  417MOL0     H55012   8.078   3.743   3.119 -4.0737 -1.5401 -1.4134
  417MOL0     H55013   8.082   3.585   3.193 -0.8813  0.1392 -0.1551
  417MOL0     H55014   8.177   3.495   2.984  2.1128  0.5531  0.0228
  417MOL0     H55015   8.181   3.651   2.903  0.5018  0.8886  1.0627
  417MOL0     H55016   7.925   3.550   3.002  0.7446  0.4536  0.8755
  417MOL0     H55017   7.957   3.696   2.903  1.8479  0.7763  0.2415
  417MOL0     H55018   8.034   3.402   2.813  0.4253  0.8795  1.1934
  417MOL0     H55019   8.052   3.548   2.719 -2.8050 -0.8020 -3.1527
  417MOL0     H55020   7.813   3.591   2.717  0.9560 -0.1205 -0.4824
  417MOL0     H55021   7.767   3.443   2.803 -0.6745 -3.8122 -3.1430
  417MOL0     H55022   7.903   3.465   2.533 -2.2636  0.9973 -0.0839
  417MOL0     H55023   7.919   3.316   2.612 -1.6918 -0.5744  1.4366
  417MOL0     H55024   7.658   3.475   2.548 -1.2691 -1.0368 -0.7040
  417MOL0     H55025   7.651   3.328   2.638  0.4351  2.5843  2.2507
  417MOL0     H55026   8.508   3.661   3.288  0.5631 -4.0189  1.2707
  417MOL0     H55027   8.754   3.603   3.284  2.1840  0.1057 -1.0811
  417MOL0     H55028   9.204   3.922   3.072  2.0974  0.6404  1.9209
  417MOL0     H55029   9.417   3.899   3.006  0.4565  0.0997 -0.1016
  417MOL0     H55030  10.754   3.687   2.225  0.9223 -1.4903  1.4557
  417MOL0     H55031  10.958   3.735   2.080  1.3114 -0.6533 -0.2452
  417MOL0     H55032  11.162   3.600   1.545 -1.3854 -1.3039  1.2926
  417MOL0     H55033  11.391   3.629   1.457 -1.4247  0.8722  0.5772
  417MOL0     H55034  11.712   3.682   1.784  2.1117  0.6811  0.8392
  417MOL0     H55035  11.796   3.672   1.620 -1.6587  0.3521 -0.3768
  417MOL0     H55036  11.857   3.479   1.780  0.4485 -1.3215 -1.2863
  417MOL0     H55037  11.687   3.450   1.792 -1.1260  0.3027 -0.5410
  417MOL0     H55038  11.675   3.395   1.557 -1.6396 -1.0464  0.8735
  417MOL0     H55039  11.794   3.293   1.636 -0.7865 -0.0292  0.0137
  417MOL0     H55040  11.871   3.516   1.432 -5.0441 -0.1613  1.4916
  417MOL0     H55041  11.972   3.470   1.568 -0.5709  2.6337 -1.0118
  417MOL0     H55042  12.022   3.119   1.358  0.4616  2.3537 -2.1806
  417MOL0     H55043  11.540   3.565   1.867  0.3740  0.6889 -0.4227
  417MOL0     H55044  11.320   3.560   1.947 -1.5462  0.3977 -0.3345
  418MOL0     O55045   9.576   3.822   3.655  0.5118 -0.2664 -0.8606
  418MOL0     C55046   9.512   3.918   3.612 -0.2722 -0.1193 -0.3776
  418MOL0     O55047   9.558   3.999   3.504  0.5174  0.5135 -0.2520
  418MOL0     C55048   9.682   3.992   3.448  0.0996  0.2033 -1.1791
  418MOL0     C55049   9.800   3.941   3.502 -0.1899  0.7325  0.2393
  418MOL0     C55050   9.920   3.945   3.439 -0.0029 -0.4334  0.4481
  418MOL0     C55051   9.926   3.982   3.303 -0.2092  0.3439  0.1432
  418MOL0     O55052  10.048   3.966   3.249  0.4828 -0.4680  0.1976
  418MOL0     C55053  10.071   4.031   3.123 -0.2093 -0.9665 -0.0537
  418MOL0     C55054  10.228   4.052   3.108  0.6649  0.5274  0.2122
  418MOL0     C55055  10.284   3.934   3.026 -0.1059 -0.4695 -0.2130
  418MOL0     C55056  10.244   3.799   3.087  0.4649  0.5736  0.6465
  418MOL0     C55057  10.321   3.687   3.029  0.3547  0.1471  0.3088
  418MOL0     C55058  10.367   3.691   2.874 -0.1761 -1.5498 -0.2209
  418MOL0     C55059  10.430   3.558   2.839  0.3630  0.1645  0.4448
  418MOL0     C55060  10.382   3.495   2.715 -1.0192  0.0816  0.2183
  418MOL0     N55061  10.435   3.355   2.702 -0.1901 -0.3788 -0.4479
  418MOL0     C55062  10.374   3.252   2.756 -0.3077 -0.5843  0.0064
  418MOL0     C55063  10.443   3.138   2.716 -0.1698  0.4056 -0.1710
  418MOL0     C55064  10.410   3.000   2.742  0.5657  0.2897 -0.2594
  418MOL0     C55065  10.263   2.977   2.766 -1.3038 -0.2584  0.4237
  418MOL0     C55066  10.230   2.983   2.916  0.1329  0.3228  0.2811
  418MOL0     C55067  10.088   3.015   2.939 -0.1007  0.8658  0.2650
  418MOL0     O55068   9.997   2.917   2.874 -0.0281  0.3966 -0.2725
  418MOL0     C55069   9.863   2.949   2.859  0.2498 -0.6082 -0.3582
  418MOL0     C55070   9.806   3.076   2.887  0.4614 -0.0501  0.3137
  418MOL0     C55071   9.672   3.090   2.904  0.4150 -0.0088 -0.1606
  418MOL0     C55072   9.584   2.985   2.877  0.7814 -0.1347 -1.1503
  418MOL0     C55073   9.437   3.003   2.875 -0.7220 -1.2588 -0.1387
  418MOL0     O55074   9.395   3.131   2.878 -0.1691  0.0106 -0.1832
  418MOL0     C55075   9.265   3.148   2.923 -0.2481 -0.2520 -0.1945
  418MOL0     C55076   9.235   3.212   3.042 -1.5936  0.8283 -0.5073
  418MOL0     C55077   9.110   3.227   3.076  1.0876  0.4451  0.5287
  418MOL0     C55078   9.001   3.192   2.986  0.3702  0.1574  0.0943
  418MOL0     O55079   8.872   3.224   3.022  0.0290 -0.3139 -0.3749
  418MOL0     C55080   8.761   3.179   2.944  0.1444 -0.5332 -0.0908
  418MOL0     C55081   8.623   3.231   2.999  0.3977 -0.0638 -0.8550
  418MOL0     C55082   8.598   3.198   3.146  0.5173 -0.7873 -0.1429
  418MOL0     C55083   8.460   3.251   3.169 -1.2853 -0.4486 -0.3922
  418MOL0     C55084   8.360   3.139   3.145 -0.3978 -0.0896 -0.4378
  418MOL0     C55085   8.215   3.182   3.170  0.0712  0.7792 -0.2657
  418MOL0     C55086   8.126   3.057   3.160  0.1139 -0.9331 -0.3886
  418MOL0     C55087   7.979   3.103   3.166  0.5996 -0.0397  0.0791
  418MOL0    Cl55088   7.922   3.187   3.311 -0.0667 -0.3857  0.2093
  418MOL0     C55089   9.028   3.122   2.871  0.1583  1.0074 -0.2635
  418MOL0     C55090   9.156   3.091   2.847 -0.5073 -1.0365  0.4283
  418MOL0     O55091   9.366   2.902   2.869  0.0165 -0.2586  0.0583
  418MOL0     C55092   9.637   2.861   2.838  0.2314 -0.2065  0.5141
  418MOL0     C55093   9.779   2.844   2.824  0.0716 -0.2020 -0.1310
  418MOL0     N55094  10.558   3.186   2.654  0.9260  0.4292  0.3314
  418MOL0     N55095  10.553   3.315   2.649  0.1177 -0.0131 -0.0319
  418MOL0     C55096   9.807   4.024   3.243  0.5733 -0.5562 -1.1425
  418MOL0     C55097   9.687   4.030   3.317 -0.0005 -0.7278  0.3872
  418MOL0     C55098   9.386   3.938   3.682  1.1181  0.0239  0.7049
  418MOL0     C55099   9.308   3.827   3.725  0.0887  0.5519  0.2561
  418MOL0     C55100   9.196   3.844   3.794  1.7132  0.2811  0.5777
  418MOL0     C55101   9.153   3.969   3.830 -0.4254  1.0673 -0.0679
  418MOL0     O55102   9.049   3.977   3.924  0.0731 -0.9258 -0.6913
  418MOL0     C55103   9.088   4.041   4.046 -0.7179 -0.3515  0.1294
  418MOL0     C55104   8.991   4.003   4.152  0.8515 -0.2857  0.0430
  418MOL0     C55105   8.847   4.066   4.157 -0.1082 -0.7494  0.9708
  418MOL0     C55106   8.782   4.000   4.280  0.6270 -0.4901  0.5371
  418MOL0     C55107   8.809   4.071   4.401 -0.0704  0.0787 -0.4639
  418MOL0     C55108   8.840   4.125   4.506  0.5657 -0.0750  0.2519
  418MOL0     C55109   9.220   4.077   3.781  0.4297 -0.1366  0.4629
  418MOL0     C55110   9.333   4.067   3.697  0.3766 -0.5796  0.7097
  418MOL0     H55111   9.791   3.904   3.603  1.5346 -1.6165 -0.3680
  418MOL0     H55112  10.008   3.906   3.490 -0.5525 -0.8797  1.0735
  418MOL0     H55113  10.036   4.133   3.140  2.5738 -0.4726  4.6416
  418MOL0     H55114  10.022   3.985   3.037  1.2515 -0.9641 -0.9190
  418MOL0     H55115  10.264   4.048   3.212 -0.9197 -1.9600  0.7480
  418MOL0     H55116  10.254   4.152   3.073 -0.4328  1.4335  1.8373
  418MOL0     H55117  10.391   3.949   3.041 -0.0047 -2.3660  1.3809
  418MOL0     H55118  10.257   3.948   2.921 -0.3662 -0.8248 -0.1934
  418MOL0     H55119  10.248   3.803   3.196 -0.4020  1.2872  0.6644
  418MOL0     H55120  10.138   3.787   3.063  0.9268 -0.6016 -1.0021
  418MOL0     H55121  10.260   3.596   3.037 -0.1911  0.5961  1.3783
  418MOL0     H55122  10.409   3.677   3.094  0.2725 -2.5820  0.1311
  418MOL0     H55123  10.442   3.768   2.854 -2.0053 -0.1407 -2.1830
  418MOL0     H55124  10.283   3.703   2.805  0.7071  1.3483 -0.9226
  418MOL0     H55125  10.538   3.576   2.827  0.1771  1.3063  0.3303
  418MOL0     H55126  10.417   3.481   2.916 -0.5397 -2.8482 -2.4900
  418MOL0     H55127  10.413   3.562   2.635 -0.8131 -1.6049 -1.1663
  418MOL0     H55128  10.273   3.497   2.719 -1.1607  3.4513 -1.9252
  418MOL0     H55129  10.276   3.250   2.803 -0.9241 -0.8915 -1.2657
  418MOL0     H55130  10.476   2.962   2.821  0.6200 -0.0864 -0.4804
  418MOL0     H55131  10.437   2.948   2.650 -1.6989  0.7926 -1.2646
  418MOL0     H55132  10.245   2.873   2.738 -0.5645 -1.0365  2.6130
  418MOL0     H55133  10.203   3.046   2.704  0.6821  1.3718  0.2166
  418MOL0     H55134  10.255   2.885   2.957 -2.3232 -0.0062  1.1616
  418MOL0     H55135  10.291   3.057   2.970 -1.3452 -0.5629  3.4321
  418MOL0     H55136  10.079   3.119   2.907 -0.0333  0.2843 -1.8065
  418MOL0     H55137  10.074   3.018   3.048 -2.0621 -1.0432  0.1194
  418MOL0     H55138   9.877   3.157   2.902 -1.5494  2.1110 -0.9527
  418MOL0     H55139   9.633   3.189   2.930  0.5149 -0.2836  1.0659
  418MOL0     H55140   9.322   3.239   3.100  0.3385 -4.8424 -0.1132
  418MOL0     H55141   9.079   3.262   3.174 -0.1376 -2.9018  1.4780
  418MOL0     H55142   8.768   3.070   2.944 -0.4036 -0.5992  1.5037
  418MOL0     H55143   8.755   3.215   2.841 -0.0279 -2.0830 -0.6479
  418MOL0     H55144   8.544   3.182   2.942  0.5058 -1.4392  0.1267
  418MOL0     H55145   8.630   3.339   2.987  1.4813  0.6134  4.0135
  418MOL0     H55146   8.676   3.251   3.200  0.6404 -0.1235 -0.9458
  418MOL0     H55147   8.607   3.091   3.167  0.3440 -0.5230  1.3668
  418MOL0     H55148   8.457   3.288   3.272  0.6485 -2.3567  0.4510
  418MOL0     H55149   8.426   3.330   3.102 -0.8907 -1.0222 -1.2934
  418MOL0     H55150   8.382   3.058   3.216 -2.1773  0.0177  0.2891
  418MOL0     H55151   8.362   3.102   3.042  0.7582 -0.7100 -0.2029
  418MOL0     H55152   8.181   3.264   3.107  0.0382  0.2235 -0.9795
  418MOL0     H55153   8.200   3.217   3.273 -2.9650  3.4340 -1.4529
  418MOL0     H55154   8.140   3.000   3.068 -2.2521 -5.1316  1.5274
  418MOL0     H55155   8.132   2.980   3.238 -0.6708  0.5114  1.1560
  418MOL0     H55156   7.918   3.014   3.143  1.3569 -1.1620  2.1249
  418MOL0     H55157   7.968   3.172   3.082  1.5476  1.2031  0.9379
  418MOL0     H55158   8.950   3.082   2.807  2.4235 -0.3569 -2.2922
  418MOL0     H55159   9.176   3.030   2.760 -0.7463 -2.7588  1.5389
  418MOL0     H55160   9.572   2.778   2.813 -0.2129  0.2029  0.2881
  418MOL0     H55161   9.815   2.750   2.785  0.2140  0.9261 -2.9648
  418MOL0     H55162   9.812   4.046   3.137  0.1276 -0.3084 -1.1157
  418MOL0     H55163   9.602   4.064   3.259 -0.9975 -0.3980  1.9777
  418MOL0     H55164   9.343   3.725   3.708 -2.7924 -0.9360  2.3893
  418MOL0     H55165   9.135   3.758   3.818 -0.8178  1.4656 -1.0724
  418MOL0     H55166   9.088   4.149   4.029  1.6293 -0.5328 -1.4612
  418MOL0     H55167   9.184   3.995   4.071 -0.8722 -1.2911 -0.9100
  418MOL0     H55168   8.964   3.901   4.125 -0.0083  0.6727 -3.1904
  418MOL0     H55169   9.041   4.002   4.249  1.7187  1.3084 -0.3369
  418MOL0     H55170   8.789   4.028   4.073  1.4269 -2.3748  0.5752
  418MOL0     H55171   8.852   4.174   4.168  1.3044 -0.2859 -2.8109
  418MOL0     H55172   8.673   3.994   4.269  0.3517  1.4874  1.6225
  418MOL0     H55173   8.816   3.897   4.298  0.9455 -0.4610  0.1193
  418MOL0     H55174   8.865   4.185   4.591  1.3441  0.5873 -0.4273
  418MOL0     H55175   9.184   4.174   3.815 -0.4844  0.4031 -1.8862
  418MOL0     H55176   9.393   4.152   3.667  0.1342 -1.1956 -1.7566
  419MOL0     O55177   3.290   4.404   3.583 -0.6433  0.3523  0.3959
  419MOL0     C55178   3.349   4.451   3.481  1.3635 -0.1370  0.0124
  419MOL0     O55179   3.285   4.506   3.377 -0.3893 -0.1460 -0.2023
  419MOL0     C55180   3.154   4.488   3.371  0.4895 -0.3548 -0.1920
  419MOL0     C55181   3.107   4.418   3.263  0.4485  0.1383  0.4164
  419MOL0     C55182   2.971   4.393   3.244 -0.3513  0.7012  0.5697
  419MOL0     C55183   2.874   4.440   3.334  0.0968  0.5296  0.7732
  419MOL0     O55184   2.734   4.423   3.323  0.0338  0.5592  0.7432
  419MOL0     C55185   2.676   4.416   3.185 -0.6168  0.1690 -0.6448
  419MOL0     C55186   2.533   4.468   3.210  0.5240  0.3528  0.4920
  419MOL0     C55187   2.457   4.453   3.071  0.2121 -1.1817 -0.1766
  419MOL0     C55188   2.307   4.489   3.108 -1.0766  0.3725 -0.0179
  419MOL0     C55189   2.227   4.462   2.988 -0.4644  0.6078 -0.5565
  419MOL0     C55190   2.088   4.533   2.978 -0.5890 -0.2500  0.4593
  419MOL0     C55191   2.026   4.490   2.844 -0.4223 -0.0658  0.3047
  419MOL0     C55192   1.882   4.533   2.830  0.0585 -0.6089 -0.1866
  419MOL0     N55193   1.818   4.462   2.722  0.5865  0.2373 -0.0672
  419MOL0     C55194   1.763   4.338   2.730 -0.1649 -0.3582  0.4083
  419MOL0     C55195   1.696   4.317   2.613  0.7828 -0.0570  0.8730
  419MOL0     C55196   1.618   4.188   2.595 -0.2454 -0.5233 -0.0817
  419MOL0     C55197   1.676   4.096   2.488  0.2475 -0.0172  0.2740
  419MOL0     C55198   1.818   4.063   2.506  0.1227  0.2785 -0.3722
  419MOL0     C55199   1.827   3.988   2.649 -0.5199  0.9641 -0.1118
  419MOL0     O55200   1.955   3.928   2.669 -0.4146 -0.2487  0.4656
  419MOL0     C55201   2.076   3.993   2.671  0.7884 -0.8892  0.3528
  419MOL0     C55202   2.189   3.917   2.684  0.0503  0.6451  0.1788
  419MOL0     C55203   2.313   3.978   2.702 -0.3724  0.1758  1.2849
  419MOL0     C55204   2.331   4.116   2.709  0.2046 -0.9486  0.1151
  419MOL0     C55205   2.464   4.179   2.718 -0.2256  0.6102 -0.3075
  419MOL0     O55206   2.554   4.094   2.774 -0.0042 -0.6426 -0.1066
  419MOL0     C55207   2.678   4.135   2.798  0.8552 -0.9765 -0.3265
  419MOL0     C55208   2.743   4.102   2.915 -0.8737 -0.2433 -0.2242
  419MOL0     C55209   2.876   4.142   2.942 -0.6457 -0.1285  0.0458
  419MOL0     C55210   2.954   4.226   2.852  0.4770 -0.7628 -0.3186
  419MOL0     O55211   3.084   4.264   2.864  0.4971  0.2705  0.6877
  419MOL0     C55212   3.168   4.174   2.937 -0.8810 -0.5426 -0.1326
  419MOL0     C55213   3.314   4.204   2.910  0.1828  0.2640  0.5420
  419MOL0     C55214   3.406   4.144   3.018 -0.4886  0.5862  0.2103
  419MOL0     C55215   3.548   4.188   2.973 -0.6472  0.3012  0.2519
  419MOL0     C55216   3.636   4.186   3.108  0.3318  0.5550  0.6644
  419MOL0     C55217   3.773   4.252   3.088  0.5200 -0.7234 -0.7007
  419MOL0     C55218   3.880   4.166   3.029  0.5864 -0.9079 -0.9488
  419MOL0     C55219   4.020   4.233   3.060  0.6001  0.9711  0.2125
  419MOL0    Cl55220   4.144   4.142   2.951 -0.3118  0.2560 -0.2687
  419MOL0     C55221   2.892   4.247   2.736  0.2788 -0.2781  0.1758
  419MOL0     C55222   2.759   4.205   2.708  0.7655  0.1905 -0.1801
  419MOL0     O55223   2.471   4.303   2.711 -0.3948 -0.0225 -1.0921
  419MOL0     C55224   2.216   4.198   2.690  0.1771 -0.9557  0.1054
  419MOL0     C55225   2.095   4.139   2.660  0.7849  0.2462  0.1113
  419MOL0     N55226   1.719   4.430   2.535  0.2191  0.1050 -0.2279
  419MOL0     N55227   1.789   4.519   2.603  0.3213  0.0993 -0.1488
  419MOL0     C55228   2.924   4.512   3.445 -0.4532 -0.0444 -0.1078
  419MOL0     C55229   3.060   4.538   3.459  0.2176 -0.0778  0.6319
  419MOL0     C55230   3.497   4.429   3.467  0.4229  0.0565  0.5381
  419MOL0     C55231   3.572   4.490   3.367  0.0233 -0.1068 -0.2214
  419MOL0     C55232   3.715   4.462   3.355  0.2872  0.7302 -0.5816
  419MOL0     C55233   3.777   4.367   3.444  0.2703  0.7174  0.2961
  419MOL0     O55234   3.914   4.330   3.452 -0.0606  0.4614 -0.3842
  419MOL0     C55235   4.010   4.424   3.392  0.1412  0.8428  0.0749
  419MOL0     C55236   4.132   4.420   3.479 -0.3367 -0.3023  0.6785
  419MOL0     C55237   4.125   4.462   3.630  0.4708 -0.5576  0.7567
  419MOL0     C55238   4.254   4.449   3.707 -1.1559  0.1551  0.2807
  419MOL0     C55239   4.351   4.541   3.644 -0.4382  0.5141  0.1628
  419MOL0     C55240   4.441   4.603   3.583 -0.4811 -0.4387 -0.6876
  419MOL0     C55241   3.695   4.304   3.538  0.4029  0.2390  0.4778
  419MOL0     C55242   3.558   4.334   3.550  0.7392 -0.2676 -0.2383
  419MOL0     H55243   3.179   4.377   3.193 -1.7391 -1.6021 -0.9758
  419MOL0     H55244   2.931   4.339   3.158 -1.4839  0.5516  1.1783
  419MOL0     H55245   2.687   4.315   3.144 -0.7524 -0.0186 -0.2294
  419MOL0     H55246   2.734   4.484   3.122 -1.0157  0.8832 -0.2434
  419MOL0     H55247   2.541   4.576   3.228  0.4124  0.3780  0.3949
  419MOL0     H55248   2.491   4.418   3.297 -1.0016  1.1349  0.2297
  419MOL0     H55249   2.471   4.350   3.039  0.6549 -0.8452 -1.0758
  419MOL0     H55250   2.490   4.521   2.992  0.2671  0.4038  1.1556
  419MOL0     H55251   2.273   4.419   3.186  2.7872  0.8789  2.4075
  419MOL0     H55252   2.299   4.594   3.137 -0.5063  0.9870 -1.9658
  419MOL0     H55253   2.213   4.353   2.985  1.3426  0.3126  0.1220
  419MOL0     H55254   2.283   4.503   2.903 -0.0134 -1.5198 -1.3553
  419MOL0     H55255   2.094   4.641   2.991  2.2048 -0.1947 -0.6332
  419MOL0     H55256   2.034   4.491   3.064  1.6848 -4.0316  0.2707
  419MOL0     H55257   2.085   4.533   2.763 -1.4495 -0.6725 -0.7995
  419MOL0     H55258   2.026   4.381   2.839 -0.2956 -0.0669  0.3370
  419MOL0     H55259   1.860   4.639   2.810 -1.0706 -1.2325 -2.5663
  419MOL0     H55260   1.830   4.506   2.922  2.6274 -1.2646  1.1761
  419MOL0     H55261   1.765   4.263   2.808  1.3529  0.1489  0.8750
  419MOL0     H55262   1.522   4.225   2.561  0.5301 -0.3530 -2.2078
  419MOL0     H55263   1.609   4.133   2.690 -2.6186  2.4757  1.6174
  419MOL0     H55264   1.650   4.143   2.393 -1.3315  1.5246  1.4126
  419MOL0     H55265   1.623   4.000   2.486 -2.2981  1.2940  0.8207
  419MOL0     H55266   1.836   3.995   2.423 -0.9247  0.0844 -0.4435
  419MOL0     H55267   1.872   4.158   2.500  2.3570 -0.9180 -0.4995
  419MOL0     H55268   1.752   3.909   2.658  0.0079 -0.1788 -3.8157
  419MOL0     H55269   1.802   4.059   2.728 -1.0896 -0.9046  1.4622
  419MOL0     H55270   2.194   3.808   2.685  0.4589  0.6178 -1.6982
  419MOL0     H55271   2.405   3.920   2.706 -1.2862 -1.3571  0.8844
  419MOL0     H55272   2.696   4.045   2.995  0.6535 -1.5274 -0.1984
  419MOL0     H55273   2.924   4.108   3.033  0.5462  0.7256 -0.2414
  419MOL0     H55274   3.151   4.069   2.911 -1.3094 -0.6560  0.5718
  419MOL0     H55275   3.151   4.189   3.044 -0.3976  3.5719 -0.4682
  419MOL0     H55276   3.323   4.312   2.897 -2.3086  0.3884 -0.7174
  419MOL0     H55277   3.339   4.152   2.817 -1.8831 -0.3295  0.2676
  419MOL0     H55278   3.395   4.036   3.034 -1.3040  0.9669  2.8462
  419MOL0     H55279   3.381   4.191   3.114  0.6477 -0.6843  1.1709
  419MOL0     H55280   3.590   4.118   2.901 -1.8552 -0.2917  0.1019
  419MOL0     H55281   3.554   4.285   2.923 -0.9931  0.4683  0.5254
  419MOL0     H55282   3.648   4.084   3.146 -0.7501  0.4475  0.7343
  419MOL0     H55283   3.584   4.245   3.184 -1.6750  0.3836 -0.5259
  419MOL0     H55284   3.803   4.274   3.192  3.3186  0.7798 -1.7112
  419MOL0     H55285   3.764   4.345   3.031 -2.5902 -1.8185 -2.1631
  419MOL0     H55286   3.888   4.072   3.084  0.7994  0.9906  2.5445
  419MOL0     H55287   3.861   4.153   2.922 -0.9534 -0.6764 -0.7388
  419MOL0     H55288   4.062   4.222   3.160 -0.4898  0.6113  0.6535
  419MOL0     H55289   4.031   4.334   3.019  0.9327  1.4872  1.5409
  419MOL0     H55290   2.943   4.287   2.649  1.5946  0.8542  1.4275
  419MOL0     H55291   2.716   4.244   2.617 -2.0556  0.0324  0.9698
  419MOL0     H55292   2.212   4.307   2.691 -1.1739 -0.9722 -0.6632
  419MOL0     H55293   2.017   4.214   2.652 -1.1221 -1.6789 -0.2130
  419MOL0     H55294   2.850   4.557   3.511  0.7652  0.3794  1.0024
  419MOL0     H55295   3.093   4.600   3.542  0.1236 -0.6561  1.1114
  419MOL0     H55296   3.530   4.569   3.306 -1.3532 -0.4937  0.2006
  419MOL0     H55297   3.778   4.520   3.289 -1.6064  0.6802 -2.5257
  419MOL0     H55298   3.980   4.529   3.379 -4.9147 -0.2230  0.9916
  419MOL0     H55299   4.035   4.392   3.291  3.7430 -0.2280  1.1517
  419MOL0     H55300   4.172   4.319   3.469  1.3191  0.5522 -2.7758
  419MOL0     H55301   4.203   4.484   3.426 -0.1003 -0.7192  0.4859
  419MOL0     H55302   4.061   4.385   3.675  1.6486 -2.1428 -0.1465
  419MOL0     H55303   4.093   4.564   3.653 -1.2353 -1.3336  2.0690
  419MOL0     H55304   4.213   4.462   3.807 -2.4752  0.0653 -0.2310
  419MOL0     H55305   4.308   4.355   3.699 -0.0175  0.7835  0.3257
  419MOL0     H55306   4.526   4.648   3.536 -0.6335  0.2485 -0.3286
  419MOL0     H55307   3.749   4.237   3.605  2.1512  0.9936 -0.1264
  419MOL0     H55308   3.501   4.289   3.631 -0.0093  0.9974 -0.0348
  420MOL0     O55309   0.217   4.602   9.806 -0.0518  0.0242 -0.7881
  420MOL0     C55310   0.272   4.613   9.696 -1.0782 -0.2358  0.4740
  420MOL0     O55311   0.243   4.543   9.584 -0.0634 -0.2432 -0.4994
  420MOL0     C55312   0.151   4.441   9.603 -0.4104  0.0663  0.9881
  420MOL0     C55313   0.146   4.355   9.715  0.6355 -0.3981  0.0583
  420MOL0     C55314   0.040   4.267   9.730 -0.0146  1.0004 -0.1699
  420MOL0     C55315  -0.050   4.247   9.618 -0.3939 -0.3228  0.3772
  420MOL0     O55316  -0.130   4.131   9.618  0.0745 -0.3094  0.0880
  420MOL0     C55317  -0.138   4.056   9.736 -0.1597 -0.1693 -0.1689
  420MOL0     C55318  -0.264   3.949   9.721 -1.1732 -0.0866 -0.7147
  420MOL0     C55319  -0.399   4.010   9.716 -0.7141 -0.0193 -0.9286
  420MOL0     C55320  -0.493   3.908   9.650  0.3180 -0.3069 -0.6458
  420MOL0     C55321  -0.639   3.926   9.690  0.2810 -0.0385  0.4220
  420MOL0     C55322  -0.735   3.877   9.581 -1.3445  0.1729 -0.9169
  420MOL0     C55323  -0.873   3.936   9.590 -0.7085 -0.3016  0.2153
  420MOL0     C55324  -0.966   3.902   9.707  0.0645  0.0847 -0.3141
  420MOL0     N55325  -1.100   3.944   9.676 -0.6086  0.3708  0.0665
  420MOL0     C55326  -1.215   3.863   9.666  0.6431 -0.2425 -0.1750
  420MOL0     C55327  -1.296   3.941   9.589  0.4942 -0.3528  0.7173
  420MOL0     C55328  -1.426   3.902   9.545  0.3877 -0.1268 -0.6522
  420MOL0     C55329  -1.454   3.907   9.391 -0.4397 -0.1739 -0.5480
  420MOL0     C55330  -1.508   4.038   9.335  0.0356  0.5996  0.6557
  420MOL0     C55331  -1.635   4.103   9.402 -0.4379  0.9141  1.0279
  420MOL0     O55332  -1.752   4.011   9.410 -0.1181 -0.0812 -0.4706
  420MOL0     C55333  -1.862   4.049   9.483 -0.6037  0.8177  0.1097
  420MOL0     C55334  -1.971   3.961   9.473 -0.3490 -0.9981  0.0355
  420MOL0     C55335  -2.087   3.981   9.548  0.0266 -0.2815 -0.6376
  420MOL0     C55336  -2.109   4.099   9.619 -0.1182  0.5479  0.1711
  420MOL0     C55337  -2.238   4.118   9.703 -0.0183  0.4757  0.6966
  420MOL0     O55338  -2.337   4.024   9.692  0.1276 -0.0661 -0.8747
  420MOL0     C55339  -2.441   4.020   9.791  0.4149 -0.3632  0.2409
  420MOL0     C55340  -2.412   4.007   9.926 -0.8934 -0.3026  0.3559
  420MOL0     C55341  -2.507   4.013  10.032  0.2457  0.6659  0.6727
  420MOL0     C55342  -2.638   4.015   9.994 -0.1821  0.2911  0.0856
  420MOL0     O55343  -2.734   3.994  10.093  0.2798  0.0418 -0.1891
  420MOL0     C55344  -2.864   4.038  10.068 -0.6740  0.0751  0.8835
  420MOL0     C55345  -2.931   4.071  10.204  0.6729 -0.5190  0.9135
  420MOL0     C55346  -3.083   4.107  10.192 -0.7590 -0.1720 -0.2157
  420MOL0     C55347  -3.170   4.066  10.304  0.6713  0.3013 -0.7456
  420MOL0     C55348  -3.314   4.068  10.259 -0.2549  0.5595 -0.3174
  420MOL0     C55349  -3.403   3.978  10.344  0.6820  1.0765  0.4355
  420MOL0     C55350  -3.554   4.000  10.326 -0.1471 -0.4677  0.4936
  420MOL0     C55351  -3.603   3.957  10.192  0.8600 -0.5910  0.9404
  420MOL0    Cl55352  -3.587   3.781  10.195  0.2901 -0.0753 -0.1396
  420MOL0     C55353  -2.671   4.022   9.860  0.2035 -0.2950 -0.3405
  420MOL0     C55354  -2.578   4.022   9.757 -0.1590  0.2613  0.0510
  420MOL0     O55355  -2.243   4.220   9.775 -0.4153 -0.0212 -0.2668
  420MOL0     C55356  -2.000   4.191   9.632 -0.0079  0.6931  0.4930
  420MOL0     C55357  -1.876   4.164   9.560  0.3584  0.2224 -0.2505
  420MOL0     N55358  -1.235   4.062   9.548 -0.0836  0.3302 -0.7040
  420MOL0     N55359  -1.122   4.062   9.611  0.5496  1.1265 -0.0828
  420MOL0     C55360  -0.028   4.314   9.497  0.5121 -0.3515 -0.5076
  420MOL0     C55361   0.072   4.411   9.492 -0.0041 -0.6646 -0.5125
  420MOL0     C55362   0.398   4.697   9.683  0.1602 -0.9115  0.3315
  420MOL0     C55363   0.436   4.775   9.791 -0.1029 -0.5287 -0.7904
  420MOL0     C55364   0.550   4.847   9.790  0.4168 -0.0526  0.7985
  420MOL0     C55365   0.636   4.840   9.676  0.5718  0.1558  0.4536
  420MOL0     O55366   0.745   4.923   9.679 -0.4394  0.4262 -0.1361
  420MOL0     C55367   0.836   4.919   9.564  0.2139  0.4137 -0.6496
  420MOL0     C55368   0.778   4.980   9.433  0.8884 -0.4033  0.1788
  420MOL0     C55369   0.744   5.128   9.455  0.2373  0.8810 -0.1927
  420MOL0     C55370   0.675   5.174   9.329 -0.3581 -1.0448  0.3426
  420MOL0     C55371   0.665   5.317   9.340 -0.0002  0.6946  0.7582
  420MOL0     C55372   0.664   5.436   9.346 -0.4816  0.4310  1.0269
  420MOL0     C55373   0.605   4.753   9.566 -0.2160  0.7287  0.0307
  420MOL0     C55374   0.482   4.686   9.572 -0.2849  0.5595 -0.7989
  420MOL0     H55375   0.225   4.361   9.789 -0.8239 -1.9097  1.8118
  420MOL0     H55376   0.047   4.205   9.819  2.2539  0.5505 -0.6045
  420MOL0     H55377  -0.161   4.124   9.819 -1.5434  1.6968 -1.9582
  420MOL0     H55378  -0.041   4.008   9.753  1.5010  2.1854 -2.2846
  420MOL0     H55379  -0.256   3.887   9.811  0.8520  0.8273 -0.2020
  420MOL0     H55380  -0.236   3.890   9.634 -1.6455 -0.9138 -0.3173
  420MOL0     H55381  -0.398   4.096   9.649 -0.8190 -1.8486 -3.4269
  420MOL0     H55382  -0.434   4.045   9.814  1.0868 -0.7612  0.0333
  420MOL0     H55383  -0.485   3.918   9.541 -1.8337 -1.3949 -0.9430
  420MOL0     H55384  -0.464   3.805   9.671 -3.2009 -1.7032 -1.9948
  420MOL0     H55385  -0.655   4.034   9.695  0.3373  0.0992 -1.6549
  420MOL0     H55386  -0.662   3.878   9.786 -0.5947  0.7449  0.6105
  420MOL0     H55387  -0.732   3.768   9.587  3.2380  0.1648  0.3035
  420MOL0     H55388  -0.703   3.904   9.480  3.0713  2.3125  0.7843
  420MOL0     H55389  -0.874   4.045   9.589  0.2493 -0.2208  2.4196
  420MOL0     H55390  -0.919   3.899   9.498  1.0047 -0.1345 -0.7706
  420MOL0     H55391  -0.934   3.936   9.806  0.7067  2.7340 -1.3535
  420MOL0     H55392  -0.965   3.794   9.721 -1.8757  0.1156  0.3846
  420MOL0     H55393  -1.230   3.763   9.705  1.7434 -1.6764 -3.1844
  420MOL0     H55394  -1.496   3.964   9.602  0.9427  0.7853 -0.9335
  420MOL0     H55395  -1.447   3.803   9.587 -1.8603  0.9542  0.9886
  420MOL0     H55396  -1.530   3.833   9.362 -0.1786  0.4182 -3.0403
  420MOL0     H55397  -1.359   3.881   9.344  0.0833  0.5012  0.1404
  420MOL0     H55398  -1.427   4.110   9.320  1.7711 -1.4803 -0.3454
  420MOL0     H55399  -1.543   4.001   9.238 -1.6655 -0.2256  1.5377
  420MOL0     H55400  -1.665   4.185   9.336 -1.6616 -0.4048 -0.1444
  420MOL0     H55401  -1.601   4.138   9.500 -2.7762  2.5938  1.3246
  420MOL0     H55402  -1.958   3.874   9.410  0.2309 -1.6176  0.9793
  420MOL0     H55403  -2.170   3.911   9.546 -2.6112  2.5911  0.3301
  420MOL0     H55404  -2.309   4.007   9.961 -1.8001  1.0499  3.3397
  420MOL0     H55405  -2.468   3.994  10.132 -3.8460  0.4782  2.4391
  420MOL0     H55406  -2.909   3.962  10.004  0.6755 -2.0108  2.2820
  420MOL0     H55407  -2.852   4.131  10.011  2.7989 -1.0705 -0.5210
  420MOL0     H55408  -2.882   4.155  10.256 -1.3594  1.1995  0.2054
  420MOL0     H55409  -2.919   3.987  10.274 -0.0855  0.3237  2.1093
  420MOL0     H55410  -3.104   4.061  10.095  0.1427 -0.7404 -0.1581
  420MOL0     H55411  -3.092   4.215  10.177 -0.4462 -0.2772 -1.2440
  420MOL0     H55412  -3.148   3.961  10.324 -0.8452  0.0638 -0.2211
  420MOL0     H55413  -3.162   4.137  10.386 -0.6738  0.9951 -1.1747
  420MOL0     H55414  -3.325   4.038  10.154  2.3216 -0.2548 -0.4294
  420MOL0     H55415  -3.343   4.173  10.268 -0.3108  0.5395 -0.2666
  420MOL0     H55416  -3.384   4.010  10.447 -0.3122  0.3186  0.8737
  420MOL0     H55417  -3.381   3.872  10.325 -2.9798  0.1499  0.7618
  420MOL0     H55418  -3.613   3.953  10.405 -1.6473 -0.8203 -0.7809
  420MOL0     H55419  -3.585   4.105  10.340 -3.0039 -1.3015  1.1700
  420MOL0     H55420  -3.552   4.010  10.111 -0.6778 -0.9852 -0.3288
  420MOL0     H55421  -3.708   3.981  10.173  1.3424  0.4298 -0.6130
  420MOL0     H55422  -2.775   4.022   9.829 -0.7349  1.6231  2.3950
  420MOL0     H55423  -2.600   4.018   9.651 -0.1893 -0.2729  0.0739
  420MOL0     H55424  -2.003   4.274   9.702 -0.8513  0.9276  0.1968
  420MOL0     H55425  -1.789   4.228   9.569 -0.0712  0.5222  2.7268
  420MOL0     H55426  -0.092   4.275   9.419 -1.0967  0.0655  0.5294
  420MOL0     H55427   0.083   4.474   9.405  1.9924  0.8266  0.7383
  420MOL0     H55428   0.367   4.779   9.875 -0.1389 -2.6110 -0.6754
  420MOL0     H55429   0.587   4.902   9.877  1.1591  0.1688  0.3562
  420MOL0     H55430   0.879   4.821   9.540  0.5930  0.9077 -2.0739
  420MOL0     H55431   0.925   4.967   9.606 -0.3395 -0.4244  1.6610
  420MOL0     H55432   0.857   4.982   9.357 -1.7587  1.4460 -2.7781
  420MOL0     H55433   0.690   4.925   9.397  0.6996 -0.8242  1.2540
  420MOL0     H55434   0.840   5.181   9.460  1.3397 -0.4666 -3.7749
  420MOL0     H55435   0.684   5.154   9.542 -2.9376 -0.0048 -1.9724
  420MOL0     H55436   0.731   5.154   9.237 -0.0071 -0.4512  0.4276
  420MOL0     H55437   0.575   5.129   9.320 -0.4876 -0.7573  0.3494
  420MOL0     H55438   0.671   5.542   9.355  3.6194  0.2115  2.2695
  420MOL0     H55439   0.663   4.726   9.479  2.1884  0.6543  1.5401
  420MOL0     H55440   0.459   4.631   9.481 -1.0285  1.8646 -1.4275
  421MOL0     O55441   7.361   9.338   8.423  0.3144 -0.5711  0.6824
  421MOL0     C55442   7.431   9.324   8.526 -0.4364 -0.5867  0.3263
  421MOL0     O55443   7.404   9.258   8.638  0.2892 -0.7726 -0.0933
  421MOL0     C55444   7.285   9.202   8.651  0.4004  0.7568  0.3701
  421MOL0     C55445   7.202   9.225   8.758 -0.7760  0.2047  0.6883
  421MOL0     C55446   7.080   9.158   8.783 -0.5351 -0.2462  0.0691
  421MOL0     C55447   7.034   9.066   8.693 -0.0807 -0.0881  0.6302
  421MOL0     O55448   6.907   9.014   8.709  0.0349 -0.1531  0.1929
  421MOL0     C55449   6.819   9.084   8.621  1.2506 -0.6831 -0.2417
  421MOL0     C55450   6.684   9.129   8.680  0.0282  1.1023  0.0025
  421MOL0     C55451   6.582   9.012   8.697  0.1997 -0.4650 -0.5934
  421MOL0     C55452   6.442   9.072   8.751  0.0829  0.0669  0.0570
  421MOL0     C55453   6.324   8.973   8.765 -0.1499  0.3048  0.7739
  421MOL0     C55454   6.321   8.847   8.674 -0.2841  0.1005 -0.1555
  421MOL0     C55455   6.271   8.888   8.541 -1.3871  0.5300 -0.0679
  421MOL0     C55456   6.326   8.780   8.444 -0.1082 -0.0684 -0.2854
  421MOL0     N55457   6.473   8.782   8.431 -0.1874 -0.4768  0.2975
  421MOL0     C55458   6.523   8.829   8.319 -0.4605  0.3905 -0.3064
  421MOL0     C55459   6.656   8.799   8.321 -0.6801 -0.3445  1.0067
  421MOL0     C55460   6.745   8.838   8.208  0.3597  0.0290 -0.6892
  421MOL0     C55461   6.805   8.982   8.215  0.4981  0.1293  0.5461
  421MOL0     C55462   6.876   9.031   8.090 -0.1056  0.2227 -0.2433
  421MOL0     C55463   7.028   9.008   8.106  0.3173 -0.4241  0.0462
  421MOL0     O55464   7.060   8.862   8.108 -0.5991  0.6230  0.0809
  421MOL0     C55465   7.179   8.830   8.155 -0.7859 -0.1199 -0.0013
  421MOL0     C55466   7.178   8.699   8.204 -0.4561  0.6294 -0.3536
  421MOL0     C55467   7.292   8.656   8.267 -0.1021 -0.7330  0.5326
  421MOL0     C55468   7.408   8.734   8.283 -0.1772  0.8262 -0.4161
  421MOL0     C55469   7.518   8.680   8.371 -0.1666 -0.1219  0.1588
  421MOL0     O55470   7.527   8.551   8.389 -0.1411  0.2959  0.2020
  421MOL0     C55471   7.636   8.504   8.463 -0.0572 -0.0664 -0.5631
  421MOL0     C55472   7.768   8.490   8.424  0.8228 -0.0125 -0.0215
  421MOL0     C55473   7.872   8.439   8.504 -0.1249 -0.4068  0.2844
  421MOL0     C55474   7.837   8.404   8.640 -0.5172  0.0846  0.0340
  421MOL0     O55475   7.943   8.368   8.728  0.3094 -0.0369 -0.9043
  421MOL0     C55476   8.041   8.279   8.671  0.2201  0.1023 -0.9688
  421MOL0     C55477   8.102   8.192   8.781 -0.4989  0.2292 -0.3400
  421MOL0     C55478   8.186   8.267   8.880 -0.4418 -0.0757 -0.6127
  421MOL0     C55479   8.322   8.319   8.827  0.8626  0.4970 -0.0534
  421MOL0     C55480   8.427   8.207   8.828 -0.6536 -0.4372  0.0405
  421MOL0     C55481   8.543   8.247   8.732 -0.2579 -0.1113  0.0113
  421MOL0     C55482   8.649   8.134   8.705  0.1254 -0.4080 -0.1776
  421MOL0     C55483   8.770   8.133   8.798 -0.2892 -0.0247  0.5720
  421MOL0    Cl55484   8.902   8.035   8.732 -0.0893 -0.0267  0.0888
  421MOL0     C55485   7.706   8.405   8.681 -0.1970 -0.3131  0.6160
  421MOL0     C55486   7.606   8.459   8.595  0.6309  0.0357  0.8970
  421MOL0     O55487   7.606   8.754   8.392 -0.1747 -0.2165  0.1412
  421MOL0     C55488   7.409   8.868   8.239  0.6051  1.2038  0.2452
  421MOL0     C55489   7.299   8.910   8.164 -0.5828 -0.4584 -0.7692
  421MOL0     N55490   6.681   8.726   8.435  0.1069  0.2342  0.1012
  421MOL0     N55491   6.570   8.723   8.499  0.6047 -0.1934  0.5025
  421MOL0     C55492   7.115   9.037   8.578 -0.7589  0.2875 -0.1877
  421MOL0     C55493   7.240   9.099   8.565  0.8597 -0.2898 -0.2009
  421MOL0     C55494   7.565   9.399   8.522  0.0835  0.4065  0.2364
  421MOL0     C55495   7.601   9.465   8.404 -0.7790 -1.1727 -1.0510
  421MOL0     C55496   7.727   9.523   8.406 -0.1612  0.3369  1.7110
  421MOL0     C55497   7.824   9.506   8.503  0.0582  1.2076  0.5071
  421MOL0     O55498   7.943   9.570   8.483  0.5088  0.1029  0.1280
  421MOL0     C55499   8.064   9.557   8.575 -0.2709 -0.6474 -0.3240
  421MOL0     C55500   8.071   9.661   8.692  0.2743 -0.1002 -0.7405
  421MOL0     C55501   8.035   9.808   8.642 -0.4335  1.1290  0.4176
  421MOL0     C55502   8.031   9.903   8.764  0.7779 -0.2818  0.6571
  421MOL0     C55503   7.996  10.042   8.725 -0.6674  0.1289 -0.3098
  421MOL0     C55504   7.987  10.167   8.707 -0.3511  0.7281  0.5563
  421MOL0     C55505   7.786   9.430   8.616  0.4494  0.2616  0.2886
  421MOL0     C55506   7.654   9.381   8.630 -1.1097 -0.1152 -0.3167
  421MOL0     H55507   7.236   9.284   8.842 -0.4444  0.3696  0.4426
  421MOL0     H55508   7.038   9.168   8.882 -0.5229 -2.6550  0.3836
  421MOL0     H55509   6.784   9.022   8.537 -2.2968 -0.1712  0.6768
  421MOL0     H55510   6.864   9.177   8.586  1.1165 -0.1999  0.8332
  421MOL0     H55511   6.641   9.207   8.617 -0.2040  0.1412 -1.0502
  421MOL0     H55512   6.701   9.166   8.782  0.3059  1.8395 -0.3074
  421MOL0     H55513   6.619   8.937   8.767  0.0640  1.4456  1.6624
  421MOL0     H55514   6.562   8.968   8.599  3.8650  1.2502 -2.3225
  421MOL0     H55515   6.452   9.115   8.851  0.0209 -0.1268  0.1459
  421MOL0     H55516   6.423   9.152   8.678  0.0306  1.0413  1.1023
  421MOL0     H55517   6.232   9.031   8.762  0.5569  1.3976 -0.7937
  421MOL0     H55518   6.345   8.936   8.866 -0.2572 -0.4365  0.5287
  421MOL0     H55519   6.251   8.771   8.712  0.2214 -0.5005 -0.3991
  421MOL0     H55520   6.416   8.792   8.680 -0.5048 -0.3074 -0.3437
  421MOL0     H55521   6.162   8.892   8.550 -1.5492  1.1379 -1.8351
  421MOL0     H55522   6.304   8.986   8.503 -0.4469 -0.7635 -2.8487
  421MOL0     H55523   6.290   8.816   8.347  2.3823  1.5042 -0.7265
  421MOL0     H55524   6.291   8.683   8.480  1.7295 -0.1364  1.5185
  421MOL0     H55525   6.482   8.889   8.238  1.1095  0.6910 -0.9062
  421MOL0     H55526   6.702   8.818   8.109  2.9767 -2.0955 -1.5184
  421MOL0     H55527   6.824   8.763   8.205  0.4303  0.0853 -0.2740
  421MOL0     H55528   6.866   8.995   8.305 -3.1258  4.5965  2.7353
  421MOL0     H55529   6.720   9.049   8.231 -2.3392 -2.9762 -0.4134
  421MOL0     H55530   6.853   8.976   7.998 -0.3247 -0.3096  0.1303
  421MOL0     H55531   6.854   9.138   8.079  1.1478  0.3504 -2.0807
  421MOL0     H55532   7.057   9.051   8.202 -0.3481  1.6365 -0.6034
  421MOL0     H55533   7.070   9.054   8.015 -0.5005  2.4162  0.9924
  421MOL0     H55534   7.089   8.640   8.184 -0.8729  1.3178 -0.5609
  421MOL0     H55535   7.291   8.557   8.312  0.0307 -0.8022  0.3823
  421MOL0     H55536   7.792   8.533   8.327 -0.6096 -0.3209 -0.5406
  421MOL0     H55537   7.976   8.447   8.474 -0.0081  0.2213  0.8283
  421MOL0     H55538   8.116   8.338   8.617  0.9139  0.5563  0.4606
  421MOL0     H55539   8.000   8.209   8.597 -0.6043 -1.0081  0.4978
  421MOL0     H55540   8.165   8.120   8.727  0.6641  1.9172 -1.3113
  421MOL0     H55541   8.025   8.136   8.836  1.2053 -1.9349 -0.0139
  421MOL0     H55542   8.215   8.198   8.960  0.0023  1.0175  0.2002
  421MOL0     H55543   8.129   8.352   8.919  0.3407 -0.0288  0.4814
  421MOL0     H55544   8.302   8.355   8.725  0.2113 -0.0326 -0.1195
  421MOL0     H55545   8.360   8.404   8.885 -0.0152 -0.1757  1.5512
  421MOL0     H55546   8.375   8.116   8.798 -1.9219 -0.2248  1.4593
  421MOL0     H55547   8.464   8.193   8.930 -2.5878  1.3844  1.0701
  421MOL0     H55548   8.594   8.338   8.764 -1.2472  0.5035 -0.1174
  421MOL0     H55549   8.499   8.258   8.633 -2.5449 -2.7584  0.5923
  421MOL0     H55550   8.596   8.038   8.696  2.4787 -1.5941 -3.1450
  421MOL0     H55551   8.695   8.161   8.610 -0.7017 -0.4125 -0.5877
  421MOL0     H55552   8.741   8.072   8.884 -0.6234  0.4799  0.8246
  421MOL0     H55553   8.800   8.234   8.829  0.6168  0.2821 -1.1470
  421MOL0     H55554   7.675   8.369   8.779  0.7366 -2.4990  0.1813
  421MOL0     H55555   7.502   8.471   8.624  0.7086 -0.5314  1.4181
  421MOL0     H55556   7.492   8.938   8.241  0.3670  1.5678 -1.1700
  421MOL0     H55557   7.306   9.013   8.130 -0.4151  0.8665  2.8510
  421MOL0     H55558   7.075   8.966   8.507 -0.3754 -1.4293  1.2574
  421MOL0     H55559   7.304   9.076   8.481  0.8907  1.6067 -0.7324
  421MOL0     H55560   7.533   9.481   8.322 -0.2150  1.2474 -1.1360
  421MOL0     H55561   7.758   9.582   8.320  0.3077 -2.6319 -0.3099
  421MOL0     H55562   8.154   9.563   8.514  0.5061 -0.6374  0.7906
  421MOL0     H55563   8.067   9.455   8.615  3.8375 -0.1509  1.1135
  421MOL0     H55564   7.997   9.645   8.770 -0.3630  3.2985 -0.4944
  421MOL0     H55565   8.168   9.662   8.742 -0.0503  1.5054 -0.0585
  421MOL0     H55566   7.935   9.802   8.599 -0.6093 -1.1552  1.0678
  421MOL0     H55567   8.104   9.842   8.564 -2.7690  0.8501 -1.8972
  421MOL0     H55568   7.952   9.881   8.837  0.1035 -0.7517 -0.1870
  421MOL0     H55569   8.123   9.903   8.824  0.3281  2.0443  1.4516
  421MOL0     H55570   7.992  10.274   8.705  1.6756  0.6752  0.8447
  421MOL0     H55571   7.847   9.424   8.706  0.0120 -1.8395  0.5018
  421MOL0     H55572   7.616   9.334   8.720 -1.1736  2.5049  1.1225
  422MOL0     O55573   6.333   1.067   7.756  0.1200  0.0759 -0.0172
  422MOL0     C55574   6.281   1.177   7.785  0.1774  0.5653  0.3969
  422MOL0     O55575   6.156   1.219   7.760 -0.4213  0.6030  0.6450
  422MOL0     C55576   6.050   1.137   7.721 -1.1963 -0.6159 -0.0251
  422MOL0     C55577   5.946   1.196   7.657  0.0186  0.6382 -0.2320
  422MOL0     C55578   5.847   1.121   7.604  0.0298  0.5570 -0.3092
  422MOL0     C55579   5.849   0.984   7.618 -0.5466  0.3800  0.7852
  422MOL0     O55580   5.748   0.914   7.560 -0.5878 -0.1172 -0.9052
  422MOL0     C55581   5.733   0.772   7.598  0.1824 -0.7055  0.0432
  422MOL0     C55582   5.609   0.718   7.522 -0.2555 -0.0174  0.2601
  422MOL0     C55583   5.594   0.565   7.543 -0.1711 -0.4346 -0.2478
  422MOL0     C55584   5.492   0.516   7.439  1.5063  0.6136  0.5296
  422MOL0     C55585   5.506   0.363   7.428 -0.1920 -0.1259 -0.2545
  422MOL0     C55586   5.444   0.286   7.322 -0.4619 -0.0547 -0.6694
  422MOL0     C55587   5.293   0.297   7.321  0.1920 -0.2477  0.4546
  422MOL0     C55588   5.225   0.259   7.455 -0.4551 -0.9243  0.3364
  422MOL0     N55589   5.081   0.222   7.428 -0.2423 -0.2901  0.4827
  422MOL0     C55590   4.992   0.299   7.370  0.4383 -0.1773  0.0616
  422MOL0     C55591   4.889   0.214   7.332  0.1428 -0.1210  0.0318
  422MOL0     C55592   4.763   0.265   7.272  0.1126 -0.2339  0.1982
  422MOL0     C55593   4.728   0.196   7.138 -0.2830 -0.6085  0.1010
  422MOL0     C55594   4.577   0.208   7.094 -0.3491 -0.0061  0.5007
  422MOL0     C55595   4.483   0.114   7.173 -0.1106 -0.1660  0.3057
  422MOL0     O55596   4.335   0.124   7.134 -0.1667  0.4450 -0.0015
  422MOL0     C55597   4.271   0.234   7.185 -0.0603 -0.3980 -0.2952
  422MOL0     C55598   4.134   0.248   7.159 -0.3189  0.4261  0.1472
  422MOL0     C55599   4.058   0.350   7.213  0.3864 -0.2576  0.5431
  422MOL0     C55600   4.116   0.458   7.285  0.7087 -0.2734 -0.3519
  422MOL0     C55601   4.047   0.573   7.332  0.9924  0.2859  0.1701
  422MOL0     O55602   3.916   0.573   7.294  0.3011 -0.0334 -0.3843
  422MOL0     C55603   3.827   0.665   7.354 -0.8465 -0.4082  1.2485
  422MOL0     C55604   3.709   0.692   7.287  0.2690 -0.6784  0.0516
  422MOL0     C55605   3.622   0.788   7.332  0.6150 -0.3103 -0.0274
  422MOL0     C55606   3.643   0.861   7.451 -0.5224  0.0229 -0.2670
  422MOL0     O55607   3.541   0.947   7.486  0.0273  0.1411 -0.3533
  422MOL0     C55608   3.518   0.968   7.625  0.1030  0.5115 -0.8468
  422MOL0     C55609   3.391   1.052   7.656 -0.1748  0.3696  0.3077
  422MOL0     C55610   3.260   0.983   7.602  0.4485 -0.0926  0.4872
  422MOL0     C55611   3.145   1.068   7.654 -0.1080 -0.6480 -1.0423
  422MOL0     C55612   3.011   1.013   7.611  0.8451  1.0037  0.5037
  422MOL0     C55613   2.893   1.092   7.654  0.2185 -0.7048 -0.3146
  422MOL0     C55614   2.762   1.015   7.651  0.1623 -0.0240  0.0189
  422MOL0     C55615   2.646   1.100   7.692 -0.2373  0.4679 -0.2584
  422MOL0    Cl55616   2.642   1.244   7.592 -0.2043  0.5770 -0.5089
  422MOL0     C55617   3.755   0.830   7.527 -1.1427  0.3979 -0.2363
  422MOL0     C55618   3.846   0.739   7.476  0.7808  0.1847  0.6422
  422MOL0     O55619   4.110   0.667   7.386 -0.5499  0.2157  0.6545
  422MOL0     C55620   4.251   0.445   7.316  0.1244 -0.4172 -0.3907
  422MOL0     C55621   4.330   0.338   7.269 -0.0938  0.1312 -0.1833
  422MOL0     N55622   4.939   0.087   7.364 -0.6509  0.0080 -1.2192
  422MOL0     N55623   5.051   0.090   7.411  0.0231 -0.4936 -0.7495
  422MOL0     C55624   5.948   0.925   7.698  0.1707 -0.4360 -0.3557
  422MOL0     C55625   6.049   1.002   7.753  0.2085  0.3519  0.4572
  422MOL0     C55626   6.363   1.260   7.871 -0.5997  0.5229 -0.4234
  422MOL0     C55627   6.310   1.378   7.930  0.6103 -0.7559 -0.4178
  422MOL0     C55628   6.379   1.456   8.032 -0.1579  0.0426 -0.0048
  422MOL0     C55629   6.518   1.433   8.041 -0.0573 -0.2627  1.0230
  422MOL0     O55630   6.607   1.499   8.120 -0.8261 -0.0391 -0.3581
  422MOL0     C55631   6.587   1.636   8.156 -0.2177 -0.1019 -0.1651
  422MOL0     C55632   6.683   1.681   8.271  1.4747 -0.3672  0.5278
  422MOL0     C55633   6.691   1.575   8.381 -0.5487  0.0912  0.1340
  422MOL0     C55634   6.771   1.650   8.495  0.2995  0.2051  0.6444
  422MOL0     C55635   6.817   1.564   8.593 -1.1478 -0.0074 -0.6831
  422MOL0     C55636   6.858   1.488   8.678 -0.2459  0.3145 -1.0321
  422MOL0     C55637   6.576   1.330   7.960  0.1389  0.4883  0.8220
  422MOL0     C55638   6.501   1.232   7.889 -0.4121 -0.3763 -1.0475
  422MOL0     H55639   5.958   1.303   7.646  0.6718  0.7800  1.5835
  422MOL0     H55640   5.765   1.156   7.542 -0.4120  1.5724  0.8002
  422MOL0     H55641   5.721   0.777   7.706  0.4236  1.4810  0.0291
  422MOL0     H55642   5.824   0.719   7.569  1.4065  0.4513  1.6085
  422MOL0     H55643   5.622   0.734   7.415 -1.6518 -3.0744 -0.4698
  422MOL0     H55644   5.514   0.764   7.552  0.6445  2.2616 -0.1423
  422MOL0     H55645   5.570   0.549   7.649 -1.4211  0.6851 -0.3330
  422MOL0     H55646   5.694   0.523   7.525  0.0134 -0.7732  1.4005
  422MOL0     H55647   5.389   0.550   7.455  1.0055  0.4148 -1.8852
  422MOL0     H55648   5.510   0.546   7.336 -1.6872  0.5333 -0.1521
  422MOL0     H55649   5.473   0.322   7.524 -3.1594 -0.5205 -1.3059
  422MOL0     H55650   5.612   0.338   7.423 -0.5804 -2.8142  2.1349
  422MOL0     H55651   5.470   0.180   7.333  0.5618  0.0656 -1.6970
  422MOL0     H55652   5.492   0.318   7.229  1.9029 -1.0046  0.1263
  422MOL0     H55653   5.274   0.400   7.290 -0.5859 -0.9344 -1.4658
  422MOL0     H55654   5.255   0.236   7.238 -0.2097 -1.3754  1.4374
  422MOL0     H55655   5.234   0.341   7.527  2.1984 -0.4229 -0.4955
  422MOL0     H55656   5.277   0.171   7.495  1.5346  0.2390  0.4217
  422MOL0     H55657   5.000   0.407   7.355 -0.3749  0.3680  2.9496
  422MOL0     H55658   4.780   0.372   7.259 -0.3876 -0.3647 -1.9513
  422MOL0     H55659   4.685   0.241   7.345 -0.7373  2.2903  0.2233
  422MOL0     H55660   4.752   0.091   7.154 -0.0299 -0.6116 -0.3022
  422MOL0     H55661   4.789   0.235   7.056 -1.7830 -0.9344 -1.2137
  422MOL0     H55662   4.533   0.307   7.108 -2.6312 -1.0928  1.5630
  422MOL0     H55663   4.576   0.174   6.991 -1.6956 -0.9435  0.7904
  422MOL0     H55664   4.507   0.127   7.279  3.2875  2.9671 -0.6505
  422MOL0     H55665   4.506   0.009   7.151 -3.2411 -0.8890  0.0675
  422MOL0     H55666   4.091   0.164   7.104 -0.7974 -1.7893  3.5592
  422MOL0     H55667   3.951   0.356   7.195  0.4265  1.4466  0.7592
  422MOL0     H55668   3.683   0.639   7.196 -0.4302 -0.9887  0.4222
  422MOL0     H55669   3.534   0.812   7.274  2.1478 -0.4399 -2.5466
  422MOL0     H55670   3.597   1.022   7.677 -1.4177 -0.2366  2.4689
  422MOL0     H55671   3.508   0.872   7.676 -2.4767  1.7371  1.2035
  422MOL0     H55672   3.398   1.153   7.617 -0.2022  0.2458 -0.0177
  422MOL0     H55673   3.388   1.070   7.764 -0.0318  2.1204  0.0370
  422MOL0     H55674   3.258   0.876   7.623 -1.5433 -0.4084 -0.9695
  422MOL0     H55675   3.271   0.990   7.493 -0.5114  0.3805  0.4070
  422MOL0     H55676   3.147   1.058   7.763 -1.9296 -1.8000 -1.0725
  422MOL0     H55677   3.165   1.172   7.625  1.5478 -0.1814  1.4751
  422MOL0     H55678   3.010   0.914   7.656  1.7015  1.7209  2.1734
  422MOL0     H55679   3.012   1.007   7.501 -1.0862 -0.2568  0.5177
  422MOL0     H55680   2.890   1.182   7.592 -0.0611  0.1707  0.9200
  422MOL0     H55681   2.909   1.124   7.758  0.1628 -0.7170 -0.3018
  422MOL0     H55682   2.745   0.973   7.551  2.1723  1.0465 -0.8346
  422MOL0     H55683   2.760   0.933   7.723 -2.1293 -0.7126 -0.7262
  422MOL0     H55684   2.656   1.127   7.798 -0.1966  4.0174 -1.0409
  422MOL0     H55685   2.551   1.050   7.672 -0.6109  1.3897 -0.8050
  422MOL0     H55686   3.778   0.886   7.617  2.8690 -2.0349  0.5026
  422MOL0     H55687   3.940   0.721   7.528  0.6566  0.6084  1.0164
  422MOL0     H55688   4.298   0.526   7.371 -0.9822  0.2257 -0.3534
  422MOL0     H55689   4.434   0.345   7.297  0.1007 -1.8656 -0.2450
  422MOL0     H55690   5.950   0.817   7.691 -0.9636 -0.3740 -2.1309
  422MOL0     H55691   6.121   0.960   7.823  1.9577  0.9975 -0.8871
  422MOL0     H55692   6.204   1.399   7.918  0.9475  0.7774 -0.9579
  422MOL0     H55693   6.312   1.533   8.070 -1.4159  1.2940 -4.2154
  422MOL0     H55694   6.481   1.654   8.179 -0.1838 -2.3884  2.1529
  422MOL0     H55695   6.605   1.690   8.062 -1.4836 -0.6921 -0.7744
  422MOL0     H55696   6.781   1.699   8.225  2.1432 -0.6244  1.8039
  422MOL0     H55697   6.643   1.775   8.309  1.3750  0.4709 -1.5223
  422MOL0     H55698   6.746   1.488   8.345 -1.8110 -0.4055 -0.6566
  422MOL0     H55699   6.589   1.550   8.412  0.2179 -1.7491  1.3631
  422MOL0     H55700   6.858   1.701   8.453  2.2925 -4.0638 -1.0254
  422MOL0     H55701   6.714   1.728   8.547 -0.0854 -1.3889  2.7975
  422MOL0     H55702   6.894   1.428   8.760 -0.3838  0.5129 -0.8246
  422MOL0     H55703   6.681   1.304   7.967 -0.4843 -1.9515  2.0653
  422MOL0     H55704   6.556   1.151   7.843  3.2873  0.2173  1.8484
  423MOL0     O55705   5.296   1.192  10.131  0.2468 -0.4535  0.1424
  423MOL0     C55706   5.294   1.136  10.016  0.6604 -0.4619  0.5343
  423MOL0     O55707   5.188   1.069   9.958  0.4229  0.2775  0.0148
  423MOL0     C55708   5.075   1.042  10.033 -0.1538 -0.7585  0.7973
  423MOL0     C55709   5.065   1.038  10.177 -0.5762 -0.0193 -0.0482
  423MOL0     C55710   4.947   0.986  10.235 -0.4411 -0.2325 -0.1980
  423MOL0     C55711   4.832   0.944  10.159  0.1440 -0.5719  0.7139
  423MOL0     O55712   4.713   0.907  10.213 -0.3975 -0.5737  0.5994
  423MOL0     C55713   4.672   0.977  10.334  0.2274  0.7014 -0.3046
  423MOL0     C55714   4.532   0.928  10.380  0.1330 -0.9651  0.4836
  423MOL0     C55715   4.421   0.987  10.287 -0.2270 -0.7251 -0.0042
  423MOL0     C55716   4.284   0.923  10.318  0.0995 -0.0791  0.4234
  423MOL0     C55717   4.172   0.950  10.210  0.4208  0.0270  0.2636
  423MOL0     C55718   4.037   0.910  10.250  0.7238 -0.2320  0.6525
  423MOL0     C55719   3.937   0.889  10.136 -0.5479  0.3714 -0.0660
  423MOL0     C55720   3.790   0.882  10.199 -0.6370 -0.1104 -0.3642
  423MOL0     N55721   3.695   0.860  10.092  0.0016  0.0847 -0.5552
  423MOL0     C55722   3.691   0.945   9.985  0.1272 -0.7092  0.2275
  423MOL0     C55723   3.594   0.888   9.898  0.3997  0.0420 -0.5941
  423MOL0     C55724   3.549   0.952   9.773  0.7225 -0.4151  0.4731
  423MOL0     C55725   3.454   0.854   9.689 -0.2223 -0.1913 -0.3020
  423MOL0     C55726   3.435   0.900   9.538  0.3121 -0.1818  0.2539
  423MOL0     C55727   3.534   0.838   9.442 -0.0966 -0.0061 -0.0379
  423MOL0     O55728   3.656   0.912   9.431  0.1428  0.0065  0.4012
  423MOL0     C55729   3.762   0.841   9.382  0.3655 -0.2859  0.4014
  423MOL0     C55730   3.886   0.901   9.399  0.6537 -0.1423 -0.8893
  423MOL0     C55731   4.002   0.845   9.371  0.6266 -0.1391  0.4823
  423MOL0     C55732   4.001   0.715   9.309 -0.1392  0.2433  0.9805
  423MOL0     C55733   4.126   0.665   9.248 -0.1019  0.1915 -0.0277
  423MOL0     O55734   4.240   0.723   9.291 -0.4937 -0.8330  0.1763
  423MOL0     C55735   4.366   0.701   9.229  0.3490 -0.2333  0.3345
  423MOL0     C55736   4.471   0.733   9.316  0.3858 -0.6318 -0.3893
  423MOL0     C55737   4.602   0.733   9.263 -0.3021 -0.0567 -0.2183
  423MOL0     C55738   4.634   0.686   9.137 -0.1415 -0.3631  0.1176
  423MOL0     O55739   4.762   0.684   9.082 -0.0130 -0.1087 -0.7023
  423MOL0     C55740   4.875   0.668   9.177 -0.4557  0.6204 -1.4180
  423MOL0     C55741   5.003   0.639   9.098  0.6133 -0.1987 -0.1664
  423MOL0     C55742   5.057   0.768   9.028 -0.5192  0.0552  0.3952
  423MOL0     C55743   5.207   0.749   8.970  0.5511 -0.4180 -0.5277
  423MOL0     C55744   5.258   0.875   8.903  1.0529 -0.1473 -0.9225
  423MOL0     C55745   5.397   0.855   8.855 -0.2471  0.0799  0.0545
  423MOL0     C55746   5.470   0.977   8.798  0.1461 -1.2408 -0.1319
  423MOL0     C55747   5.597   0.947   8.733 -0.1960 -0.4790  0.6193
  423MOL0    Cl55748   5.712   0.860   8.832  0.1021  0.3168  0.6111
  423MOL0     C55749   4.526   0.646   9.054  0.3589 -1.0556  0.3864
  423MOL0     C55750   4.395   0.660   9.097  0.4414  0.1742  0.5237
  423MOL0     O55751   4.118   0.566   9.173 -0.0016  0.1543  0.1349
  423MOL0     C55752   3.877   0.651   9.288  0.6683  0.0766  1.1636
  423MOL0     C55753   3.761   0.726   9.304  1.2214 -0.1459  0.3190
  423MOL0     N55754   3.554   0.772   9.949  0.1252  0.4248 -0.7118
  423MOL0     N55755   3.619   0.751  10.058  0.3097 -0.5097 -0.4697
  423MOL0     C55756   4.842   0.956  10.021 -0.1975  0.4196 -0.5527
  423MOL0     C55757   4.963   1.001   9.958 -0.2366  0.5044 -0.5537
  423MOL0     C55758   5.408   1.159   9.935 -0.1460 -0.3984  0.4058
  423MOL0     C55759   5.524   1.235   9.980  0.4233  0.2030  0.9697
  423MOL0     C55760   5.633   1.241   9.900  0.0312 -0.0109 -0.2345
  423MOL0     C55761   5.644   1.175   9.777  0.1546  0.5033 -0.2788
  423MOL0     O55762   5.765   1.204   9.726 -0.9319  0.2718  0.8547
  423MOL0     C55763   5.801   1.122   9.618 -0.3706  0.2063  0.9640
  423MOL0     C55764   5.861   0.985   9.662 -0.3324 -0.3447  0.5254
  423MOL0     C55765   6.013   1.001   9.676 -0.0259  0.4140 -0.5350
  423MOL0     C55766   6.073   0.859   9.688  0.1060  0.8325  0.7474
  423MOL0     C55767   6.215   0.871   9.711 -0.8552 -0.0166  0.7075
  423MOL0     C55768   6.340   0.885   9.723  0.1648  0.0301 -0.1639
  423MOL0     C55769   5.533   1.106   9.726 -0.2536 -0.9391 -0.4536
  423MOL0     C55770   5.418   1.105   9.806 -0.3299  1.3923  1.0523
  423MOL0     H55771   5.147   1.062  10.244 -1.4307  1.2142  0.6030
  423MOL0     H55772   4.932   0.965  10.341 -2.6406 -1.8009 -0.7507
  423MOL0     H55773   4.662   1.083  10.307 -0.6019  0.5594 -0.5738
  423MOL0     H55774   4.752   0.964  10.407  1.0219 -0.7581 -1.3792
  423MOL0     H55775   4.518   0.956  10.485  1.5990 -1.3515  0.8017
  423MOL0     H55776   4.528   0.819  10.374 -2.9130 -0.8991 -0.3541
  423MOL0     H55777   4.445   0.961  10.184 -0.7375 -3.0025  0.4047
  423MOL0     H55778   4.402   1.094  10.295 -0.5138 -0.8736  1.7224
  423MOL0     H55779   4.307   0.817  10.337  1.8344  0.0420 -0.7516
  423MOL0     H55780   4.244   0.967  10.409 -0.8172  0.1519 -0.0740
  423MOL0     H55781   4.198   0.901  10.116 -4.0085 -0.8028 -0.7148
  423MOL0     H55782   4.178   1.058  10.195 -2.1059  0.2920  0.7174
  423MOL0     H55783   4.005   0.994  10.313 -2.4435  1.5929 -2.9564
  423MOL0     H55784   4.029   0.830  10.324  2.6181  1.1903  2.5342
  423MOL0     H55785   3.935   0.967  10.059 -3.0569  1.6128  1.1362
  423MOL0     H55786   3.955   0.787  10.099  1.1560 -0.3059  2.4067
  423MOL0     H55787   3.778   0.975  10.256  0.7298 -0.2032  0.1197
  423MOL0     H55788   3.770   0.802  10.272  1.5026 -2.2603 -1.9650
  423MOL0     H55789   3.748   1.036   9.963 -0.7195  0.0598  1.1511
  423MOL0     H55790   3.629   0.995   9.712  0.9882 -0.2588  0.9281
  423MOL0     H55791   3.499   1.046   9.799 -1.1683 -1.4967  0.9065
  423MOL0     H55792   3.359   0.840   9.742 -0.1188 -2.1807 -0.5645
  423MOL0     H55793   3.503   0.757   9.680  1.3843  0.7657 -2.9811
  423MOL0     H55794   3.338   0.856   9.512  1.0438 -2.9017  1.6825
  423MOL0     H55795   3.422   1.008   9.528  0.7938  0.3502  3.8635
  423MOL0     H55796   3.471   0.844   9.352 -1.1186  2.2301  0.7380
  423MOL0     H55797   3.539   0.734   9.476 -0.8130 -0.4202 -1.1345
  423MOL0     H55798   3.880   0.998   9.447 -1.0128  0.9056 -3.0647
  423MOL0     H55799   4.092   0.904   9.387 -1.5773  4.3602 -1.7549
  423MOL0     H55800   4.440   0.770   9.413  0.5244 -0.8294 -0.2680
  423MOL0     H55801   4.678   0.771   9.329  0.1127 -1.5437  0.2046
  423MOL0     H55802   4.853   0.594   9.255  0.2785 -1.0761 -2.7509
  423MOL0     H55803   4.884   0.766   9.224  0.3742  0.3227 -0.9395
  423MOL0     H55804   4.989   0.561   9.023  0.4022 -1.0723  0.7656
  423MOL0     H55805   5.085   0.611   9.165  2.3303 -0.5365 -2.2900
  423MOL0     H55806   5.058   0.856   9.093  0.5311 -1.4737  2.5458
  423MOL0     H55807   5.000   0.780   8.935 -1.7568 -1.2103  0.9536
  423MOL0     H55808   5.275   0.729   9.054  0.3071  4.1173  1.0693
  423MOL0     H55809   5.211   0.664   8.902  0.2565 -1.3909  0.6427
  423MOL0     H55810   5.258   0.957   8.975 -1.0094 -2.6972  2.2315
  423MOL0     H55811   5.188   0.900   8.823  0.1542  0.0390 -0.1027
  423MOL0     H55812   5.393   0.786   8.770  0.5160  1.6988 -1.3633
  423MOL0     H55813   5.459   0.821   8.938  0.7099 -0.1640 -0.7450
  423MOL0     H55814   5.416   1.036   8.724  0.1517  0.3280  1.0536
  423MOL0     H55815   5.488   1.053   8.874  1.5188  2.8734 -4.1220
  423MOL0     H55816   5.644   1.043   8.707 -0.5527 -0.2465  0.8154
  423MOL0     H55817   5.577   0.894   8.640  1.6198 -1.6886  0.8848
  423MOL0     H55818   4.542   0.619   8.950  0.3401 -2.3312  0.7007
  423MOL0     H55819   4.303   0.644   9.041  1.5484 -3.6080 -0.5378
  423MOL0     H55820   3.892   0.554   9.241  0.7848  0.2490  0.8401
  423MOL0     H55821   3.665   0.685   9.273  0.8238 -0.6738  2.0951
  423MOL0     H55822   4.767   0.915   9.954  1.2408 -0.1188 -1.8803
  423MOL0     H55823   4.960   0.996   9.850 -0.5058  2.9441 -0.6992
  423MOL0     H55824   5.521   1.289  10.074 -1.3270  1.7456  0.0872
  423MOL0     H55825   5.715   1.308   9.927 -0.9623  0.6306  1.3625
  423MOL0     H55826   5.871   1.180   9.557 -1.1323 -0.6903 -0.8128
  423MOL0     H55827   5.722   1.105   9.545 -0.9299  0.6671  1.4488
  423MOL0     H55828   5.802   0.949   9.747 -2.0162 -1.5006 -1.0500
  423MOL0     H55829   5.824   0.921   9.581 -1.6654  2.0603 -0.8987
  423MOL0     H55830   6.025   1.063   9.765 -2.1975 -0.3660  0.3715
  423MOL0     H55831   6.058   1.053   9.591  1.8409 -1.1507 -0.5557
  423MOL0     H55832   6.027   0.801   9.768  1.1511 -1.0574  0.0404
  423MOL0     H55833   6.062   0.798   9.597 -0.8690 -0.2437  1.5572
  423MOL0     H55834   6.441   0.920   9.730  0.4163 -0.7155  0.0826
  423MOL0     H55835   5.536   1.064   9.626  1.8556  0.9692 -1.2780
  423MOL0     H55836   5.331   1.050   9.770 -1.0501  4.0870 -1.7674
  424MOL0     O55837   2.103   7.837   8.148  0.2881 -0.1086 -0.2146
  424MOL0     C55838   2.045   7.795   8.248 -0.5370 -0.0586  0.7844
  424MOL0     O55839   2.081   7.684   8.325  0.4351 -0.0191  0.0155
  424MOL0     C55840   2.161   7.593   8.267  0.0073 -0.6465 -0.0202
  424MOL0     C55841   2.111   7.470   8.224 -0.1656  1.0734 -0.3814
  424MOL0     C55842   2.202   7.385   8.166  0.0034  0.4499  0.2163
  424MOL0     C55843   2.337   7.408   8.149  0.7619 -0.7244 -0.1614
  424MOL0     O55844   2.411   7.316   8.077  0.9057 -0.6126  0.7494
  424MOL0     C55845   2.549   7.291   8.118  0.1210  0.0701 -0.1062
  424MOL0     C55846   2.560   7.214   8.247  0.5753  1.1376 -0.0234
  424MOL0     C55847   2.459   7.090   8.242 -0.4559  0.5764  0.1874
  424MOL0     C55848   2.510   6.983   8.342 -0.2587  0.0824 -0.3380
  424MOL0     C55849   2.424   6.856   8.333  0.1291  0.2198 -0.6128
  424MOL0     C55850   2.499   6.758   8.241  1.2393  0.4677 -0.9714
  424MOL0     C55851   2.415   6.625   8.233  0.2195  0.3917 -0.7603
  424MOL0     C55852   2.457   6.533   8.351  0.3665 -0.6095  0.5331
  424MOL0     N55853   2.387   6.405   8.352 -1.2554 -0.3257  0.2581
  424MOL0     C55854   2.275   6.370   8.426  0.4628 -0.0019 -0.0002
  424MOL0     C55855   2.248   6.236   8.392 -0.1449  0.3348 -0.5506
  424MOL0     C55856   2.124   6.174   8.456  0.2852 -0.8862 -0.1491
  424MOL0     C55857   2.012   6.150   8.357  0.1181  0.5032  0.0766
  424MOL0     C55858   1.906   6.070   8.426  0.1835 -0.4234  0.4019
  424MOL0     C55859   1.773   6.068   8.345 -0.9605  0.6575 -0.3939
  424MOL0     O55860   1.681   5.977   8.411 -0.0298  0.4858  0.3483
  424MOL0     C55861   1.560   5.948   8.358  0.2437 -0.0586  0.3641
  424MOL0     C55862   1.500   5.827   8.400  1.1204 -0.4057 -0.1788
  424MOL0     C55863   1.381   5.790   8.332  0.1114 -0.5294  0.8037
  424MOL0     C55864   1.312   5.874   8.236  0.7875  0.7370  0.2452
  424MOL0     C55865   1.183   5.834   8.183 -0.9492 -0.5399 -0.2801
  424MOL0     O55866   1.106   5.932   8.129  0.6184 -0.4952  0.5145
  424MOL0     C55867   0.986   5.895   8.067  0.0520  0.4013 -0.4308
  424MOL0     C55868   0.953   5.982   7.964  0.5843  0.1301  0.5337
  424MOL0     C55869   0.831   5.967   7.887 -0.4930 -0.2214 -0.7206
  424MOL0     C55870   0.751   5.860   7.916  0.0328  0.1240 -0.3728
  424MOL0     O55871   0.620   5.853   7.864  0.1211  0.5305 -0.0126
  424MOL0     C55872   0.570   5.943   7.768  0.6739 -1.4332  0.6537
  424MOL0     C55873   0.421   5.921   7.736  0.6372  0.1327 -0.6129
  424MOL0     C55874   0.373   6.030   7.635 -0.5245 -0.3871  0.1595
  424MOL0     C55875   0.227   6.015   7.607  0.6841 -0.2352 -0.4939
  424MOL0     C55876   0.188   6.111   7.501 -0.6768 -0.4196  0.4838
  424MOL0     C55877   0.049   6.096   7.437  1.0237 -0.2308 -0.3495
  424MOL0     C55878   0.022   5.961   7.382 -0.1374  0.4330  0.3348
  424MOL0     C55879  -0.116   5.950   7.325  0.0991  0.2296 -0.0519
  424MOL0    Cl55880  -0.117   5.805   7.224 -0.1586  0.2632  0.3344
  424MOL0     C55881   0.788   5.768   8.017 -0.1069 -0.7190  0.5324
  424MOL0     C55882   0.902   5.794   8.090 -0.7180  0.6371  0.3700
  424MOL0     O55883   1.155   5.712   8.190  0.1266 -0.6889  0.2742
  424MOL0     C55884   1.371   6.002   8.207 -0.0846 -0.2920  0.0081
  424MOL0     C55885   1.501   6.030   8.264 -0.6527  0.5538  1.0026
  424MOL0     N55886   2.329   6.194   8.288 -0.0726 -0.5232 -0.0687
  424MOL0     N55887   2.420   6.293   8.277 -0.2900 -0.4954  0.1359
  424MOL0     C55888   2.385   7.527   8.191 -0.3748 -0.0694 -0.1020
  424MOL0     C55889   2.302   7.614   8.254  0.5787 -0.5548 -0.8076
  424MOL0     C55890   1.933   7.870   8.293  0.7855  0.9306  0.8503
  424MOL0     C55891   1.915   8.007   8.271 -0.2430  0.8006 -0.1086
  424MOL0     C55892   1.792   8.069   8.306  0.2196  0.1498  0.2634
  424MOL0     C55893   1.683   7.996   8.366 -0.4730 -0.9197 -0.4188
  424MOL0     O55894   1.571   8.061   8.401  0.1735  0.2596 -0.1011
  424MOL0     C55895   1.471   8.080   8.296 -0.6404 -0.1212  0.2269
  424MOL0     C55896   1.434   8.223   8.257  0.5327 -0.6205  0.0667
  424MOL0     C55897   1.550   8.303   8.194 -0.3496 -0.5266 -0.4155
  424MOL0     C55898   1.505   8.413   8.094  0.3358 -0.2082 -0.0504
  424MOL0     C55899   1.411   8.511   8.156 -0.3473 -0.3810  0.1142
  424MOL0     C55900   1.337   8.599   8.207 -0.5282 -0.4412 -0.5362
  424MOL0     C55901   1.704   7.860   8.392 -1.2487 -0.2339 -0.6251
  424MOL0     C55902   1.829   7.804   8.363  0.0508 -0.3549 -0.6564
  424MOL0     H55903   2.005   7.450   8.217 -0.6317  2.8699  0.9928
  424MOL0     H55904   2.180   7.285   8.129 -0.5112  0.5849  0.1483
  424MOL0     H55905   2.611   7.381   8.119  1.3737 -0.6000 -3.5038
  424MOL0     H55906   2.592   7.232   8.036  0.1534  1.9513 -1.5075
  424MOL0     H55907   2.523   7.266   8.336  0.1179  0.4311  0.2150
  424MOL0     H55908   2.668   7.196   8.258  0.5563  1.5117  0.8576
  424MOL0     H55909   2.460   7.052   8.140  0.5053  1.5603 -0.1950
  424MOL0     H55910   2.356   7.119   8.265 -1.3991 -3.0026  1.0064
  424MOL0     H55911   2.617   6.964   8.330 -0.1297 -0.1379  1.0629
  424MOL0     H55912   2.504   7.019   8.445  0.8372 -1.6917  0.3848
  424MOL0     H55913   2.323   6.879   8.298 -0.0676  0.9190  0.3852
  424MOL0     H55914   2.402   6.811   8.431 -1.1307  1.1999 -0.4187
  424MOL0     H55915   2.605   6.753   8.263  0.8318  1.2398  1.4223
  424MOL0     H55916   2.494   6.806   8.142  2.3377  1.0516 -0.7546
  424MOL0     H55917   2.309   6.649   8.247  0.6001  1.1041  1.2226
  424MOL0     H55918   2.423   6.572   8.137  0.0510  1.7757 -1.5700
  424MOL0     H55919   2.430   6.589   8.441 -0.6848 -0.4396  0.1207
  424MOL0     H55920   2.566   6.525   8.347  0.5188  1.4000 -3.1191
  424MOL0     H55921   2.206   6.431   8.484  1.2451  0.5847  0.3433
  424MOL0     H55922   2.088   6.234   8.540 -3.1539 -2.4543 -0.3241
  424MOL0     H55923   2.152   6.077   8.499  1.3804 -0.2470  0.6203
  424MOL0     H55924   2.042   6.091   8.270  0.3515 -2.5206  2.0444
  424MOL0     H55925   1.969   6.245   8.326  0.7018  0.1429 -1.9457
  424MOL0     H55926   1.939   5.968   8.445  2.0485 -0.3668 -2.0733
  424MOL0     H55927   1.886   6.126   8.518 -0.8134  2.0974 -1.2150
  424MOL0     H55928   1.793   6.038   8.242  3.5047 -0.5700  0.6268
  424MOL0     H55929   1.743   6.172   8.334  0.2147  1.2165  1.2161
  424MOL0     H55930   1.544   5.757   8.470  4.0420  0.8543 -0.6342
  424MOL0     H55931   1.345   5.689   8.348 -0.1030 -0.1330  3.0715
  424MOL0     H55932   1.005   6.077   7.954  0.9957 -0.1553 -0.2027
  424MOL0     H55933   0.795   6.031   7.808 -0.4124  1.2801  0.4261
  424MOL0     H55934   0.624   5.944   7.672  2.0644 -1.5718  1.4099
  424MOL0     H55935   0.569   6.039   7.822 -1.6547 -1.0262  0.0026
  424MOL0     H55936   0.356   5.940   7.822  0.0228 -0.2365 -0.9911
  424MOL0     H55937   0.407   5.818   7.701 -0.0647  0.3888 -1.0914
  424MOL0     H55938   0.425   6.025   7.538 -1.0673  1.2207 -0.2416
  424MOL0     H55939   0.389   6.133   7.669 -3.0011  2.4875 -5.7843
  424MOL0     H55940   0.208   5.913   7.572  0.6701 -0.9565  1.4954
  424MOL0     H55941   0.164   6.028   7.695 -2.4917  0.4450 -2.6763
  424MOL0     H55942   0.267   6.123   7.427 -0.8494 -2.8308 -0.1982
  424MOL0     H55943   0.183   6.208   7.551  0.5033  1.2292 -2.3909
  424MOL0     H55944   0.048   6.172   7.358 -0.4427  0.7003  0.5169
  424MOL0     H55945  -0.031   6.118   7.508  0.6130 -2.1269 -0.1598
  424MOL0     H55946   0.092   5.938   7.301  0.0861 -1.5521  1.0350
  424MOL0     H55947   0.042   5.879   7.452 -1.3377  0.2825  0.5187
  424MOL0     H55948  -0.152   6.040   7.273  3.4155 -0.5185 -4.2456
  424MOL0     H55949  -0.189   5.947   7.406  0.0933  0.9685 -0.0198
  424MOL0     H55950   0.722   5.685   8.039  0.8824 -2.0990 -1.4436
  424MOL0     H55951   0.920   5.725   8.172 -1.1893  0.2134  0.1324
  424MOL0     H55952   1.309   6.066   8.145 -3.5339 -1.1263  2.2887
  424MOL0     H55953   1.552   6.117   8.224  0.2792 -0.6017 -0.4489
  424MOL0     H55954   2.487   7.556   8.167 -0.0190 -1.9916 -1.1652
  424MOL0     H55955   2.334   7.712   8.288  2.0077 -1.1548 -0.3334
  424MOL0     H55956   1.995   8.066   8.226  1.6579  1.3811  3.6413
  424MOL0     H55957   1.770   8.175   8.295 -2.1161 -0.2950 -0.0440
  424MOL0     H55958   1.385   8.025   8.337 -1.8241 -0.3465 -2.3808
  424MOL0     H55959   1.501   8.027   8.205  1.5233  0.8514  0.3344
  424MOL0     H55960   1.346   8.219   8.192 -0.1467 -1.5080  1.0054
  424MOL0     H55961   1.397   8.268   8.350  1.8109 -0.2113  0.3961
  424MOL0     H55962   1.619   8.235   8.143 -1.4209 -1.9708 -0.0050
  424MOL0     H55963   1.605   8.355   8.273 -0.4086 -0.1299 -0.6294
  424MOL0     H55964   1.590   8.477   8.070  0.1136 -0.1261 -0.6511
  424MOL0     H55965   1.463   8.373   8.001  1.9243 -0.6457 -0.6129
  424MOL0     H55966   1.301   8.677   8.272 -0.2589 -0.7082 -0.0561
  424MOL0     H55967   1.616   7.811   8.432 -1.0188 -0.4317 -0.3555
  424MOL0     H55968   1.833   7.696   8.375 -2.2116 -0.6062 -1.5317
  425MOL0     O55969   3.433   0.342  10.518  0.1075  0.5990  0.5885
  425MOL0     C55970   3.425   0.261  10.608 -0.6695  0.4650  0.5667
  425MOL0     O55971   3.356   0.144  10.610 -0.8903  0.7346 -0.9893
  425MOL0     C55972   3.276   0.108  10.510 -0.5070 -0.2526 -0.0185
  425MOL0     C55973   3.276  -0.026  10.488 -1.0261 -0.1250 -0.1599
  425MOL0     C55974   3.182  -0.076  10.396  0.7832  0.3873 -0.0881
  425MOL0     C55975   3.101   0.012  10.315  0.5524 -0.1630  0.2354
  425MOL0     O55976   3.032  -0.022  10.207 -0.3190 -0.0040  0.1228
  425MOL0     C55977   3.035  -0.161  10.159  0.1426 -0.2441  0.2005
  425MOL0     C55978   2.922  -0.240  10.231 -0.3173 -0.3234 -0.7411
  425MOL0     C55979   2.789  -0.173  10.209  0.3210 -0.7593 -0.3432
  425MOL0     C55980   2.682  -0.265  10.274 -0.1182  0.0546  0.2013
  425MOL0     C55981   2.540  -0.204  10.250 -0.8494 -0.0314  0.3224
  425MOL0     C55982   2.428  -0.304  10.300 -1.3500 -0.3717 -0.4408
  425MOL0     C55983   2.296  -0.264  10.229  0.3912  0.6707 -0.3456
  425MOL0     C55984   2.191  -0.334  10.313 -0.6647  0.4207 -0.4234
  425MOL0     N55985   2.057  -0.283  10.278  0.7922 -0.0744 -0.0619
  425MOL0     C55986   2.001  -0.155  10.299 -0.1260  0.5483  0.1573
  425MOL0     C55987   1.869  -0.175  10.271 -0.2382  0.1813 -0.3251
  425MOL0     C55988   1.758  -0.074  10.282 -0.4388 -0.3472  0.6145
  425MOL0     C55989   1.750   0.018  10.156  0.8881 -0.1053  0.0912
  425MOL0     C55990   1.665   0.144  10.199 -0.2526  0.2720 -0.5908
  425MOL0     C55991   1.523   0.105  10.252 -0.3170  0.0304 -0.4725
  425MOL0     O55992   1.454   0.006  10.176  0.5419  0.1133 -0.4084
  425MOL0     C55993   1.321  -0.034  10.210  0.3369 -0.8390 -0.6086
  425MOL0     C55994   1.259  -0.134  10.129  0.3779 -0.2220 -0.1689
  425MOL0     C55995   1.132  -0.183  10.170  0.1774 -0.0774  0.1406
  425MOL0     C55996   1.045  -0.110  10.258 -0.0324 -0.3861  0.2933
  425MOL0     C55997   0.907  -0.148  10.272  0.1053 -0.1068  0.1568
  425MOL0     O55998   0.850  -0.137  10.395 -0.6856 -0.4581 -0.5196
  425MOL0     C55999   0.718  -0.147  10.410 -0.2585 -0.2661 -0.8295
  425MOL0     C56000   0.635  -0.058  10.337  0.1971 -0.7849 -0.1495
  425MOL0     C56001   0.493  -0.065  10.354  0.2513  0.2010 -0.6602
  425MOL0     C56002   0.436  -0.157  10.439  0.9541 -0.2179 -0.3293
  425MOL0     O56003   0.299  -0.167  10.432  0.0739 -0.7354  0.2198
  425MOL0     C56004   0.235  -0.261  10.515 -0.0586  1.4011 -0.2116
  425MOL0     C56005   0.084  -0.273  10.480 -0.4691 -0.1948  0.2461
  425MOL0     C56006  -0.006  -0.191  10.566  0.9677 -0.7954  0.0704
  425MOL0     C56007  -0.153  -0.215  10.542  0.1212 -0.8288 -0.3854
  425MOL0     C56008  -0.228  -0.129  10.648  0.4848 -0.4932 -0.1574
  425MOL0     C56009  -0.372  -0.109  10.612 -0.7914  0.2892 -0.0989
  425MOL0     C56010  -0.458  -0.052  10.735 -0.5036 -0.6865 -0.9869
  425MOL0     C56011  -0.422   0.097  10.767  0.2899  0.7337  0.0969
  425MOL0    Cl56012  -0.543   0.149  10.895 -0.5514 -0.1249 -0.2595
  425MOL0     C56013   0.520  -0.255  10.505  0.3114  0.1476 -0.3544
  425MOL0     C56014   0.663  -0.248  10.493 -0.4481 -0.3296  0.5333
  425MOL0     O56015   0.848  -0.179  10.170  0.2401  0.1151  1.1789
  425MOL0     C56016   1.108  -0.001  10.325 -0.3829 -0.6357  0.1926
  425MOL0     C56017   1.245   0.036  10.309 -1.2690  1.1920 -0.7145
  425MOL0     N56018   1.855  -0.307  10.226  0.4843  0.4588  0.3248
  425MOL0     N56019   1.964  -0.365  10.233 -0.2053  0.1337  0.1051
  425MOL0     C56020   3.105   0.147  10.350 -0.2567  0.1569  0.5146
  425MOL0     C56021   3.195   0.198  10.446  0.4250 -0.4618  0.4984
  425MOL0     C56022   3.525   0.277  10.717 -0.1698 -0.4723 -0.5462
  425MOL0     C56023   3.601   0.392  10.730  0.0447 -0.8114  0.1546
  425MOL0     C56024   3.711   0.397  10.814 -0.1509 -1.0074 -0.0543
  425MOL0     C56025   3.744   0.291  10.893 -0.1861  1.4718  0.2961
  425MOL0     O56026   3.856   0.305  10.968 -0.2475 -0.1090  0.1366
  425MOL0     C56027   3.949   0.194  10.985  0.1553 -0.5556  0.0521
  425MOL0     C56028   3.923   0.125  11.117 -0.1511  0.0060  0.0559
  425MOL0     C56029   4.030   0.037  11.166 -0.1677  0.1761  0.3849
  425MOL0     C56030   4.158   0.105  11.221  0.0348 -0.1493 -0.4115
  425MOL0     C56031   4.250   0.017  11.283  0.5038  0.5144 -0.1207
  425MOL0     C56032   4.331  -0.059  11.332  0.8511 -0.2923 -0.0663
  425MOL0     C56033   3.658   0.182  10.903  0.3926  0.2533  0.1818
  425MOL0     C56034   3.553   0.170  10.811  0.5974 -0.2152  0.0906
  425MOL0     H56035   3.343  -0.092  10.542  0.0583 -2.1476 -3.5897
  425MOL0     H56036   3.186  -0.183  10.379  2.1179  0.4113 -0.0190
  425MOL0     H56037   3.132  -0.210  10.173 -0.9439 -2.0652  1.8561
  425MOL0     H56038   3.008  -0.153  10.054 -2.4244  0.6151  0.8527
  425MOL0     H56039   2.940  -0.239  10.339  2.8409  2.7817 -1.1360
  425MOL0     H56040   2.929  -0.339  10.186 -0.4061 -0.6069 -0.1483
  425MOL0     H56041   2.764  -0.144  10.107 -1.3085  2.1483  0.7739
  425MOL0     H56042   2.792  -0.078  10.262  1.6114 -0.8705 -0.1891
  425MOL0     H56043   2.676  -0.367  10.236  1.9917 -0.2346  0.5723
  425MOL0     H56044   2.702  -0.266  10.381  3.5155  0.0824 -0.3715
  425MOL0     H56045   2.523  -0.181  10.144  0.1369 -0.0299  0.1560
  425MOL0     H56046   2.523  -0.107  10.297 -4.3125 -1.8930  3.3987
  425MOL0     H56047   2.418  -0.298  10.409 -1.6751 -2.6152 -0.3049
  425MOL0     H56048   2.460  -0.407  10.281  0.3174  0.5050 -3.0365
  425MOL0     H56049   2.272  -0.157  10.239 -1.5974  0.1433  1.2481
  425MOL0     H56050   2.283  -0.290  10.124 -0.3792  1.9283 -0.5899
  425MOL0     H56051   2.211  -0.323  10.420 -0.4256 -1.7969 -0.1923
  425MOL0     H56052   2.185  -0.442  10.295  1.0194  0.2136  0.1295
  425MOL0     H56053   2.063  -0.073  10.334  1.0532 -0.2939  0.1157
  425MOL0     H56054   1.776  -0.012  10.371  0.7382  0.5007 -0.1870
  425MOL0     H56055   1.670  -0.135  10.305  1.1868 -2.9677  0.3236
  425MOL0     H56056   1.703  -0.039  10.075 -0.3504  1.4446 -0.3342
  425MOL0     H56057   1.842   0.057  10.113 -0.4907  3.2575 -0.1386
  425MOL0     H56058   1.732   0.190  10.272 -1.0183 -0.3037  0.5075
  425MOL0     H56059   1.656   0.213  10.115 -1.9236 -1.6598 -2.1162
  425MOL0     H56060   1.465   0.198  10.246  1.8887  1.5000 -0.4608
  425MOL0     H56061   1.526   0.073  10.356 -0.1848 -0.8379 -0.7376
  425MOL0     H56062   1.314  -0.188  10.052  1.1782  3.0157 -2.0493
  425MOL0     H56063   1.094  -0.266  10.111  2.6075 -1.1584 -0.0011
  425MOL0     H56064   0.673   0.023  10.275 -2.1563 -0.6065 -1.4761
  425MOL0     H56065   0.421   0.006  10.313  0.1160  0.2972 -0.2589
  425MOL0     H56066   0.246  -0.242  10.622  0.9451  1.7672 -0.3657
  425MOL0     H56067   0.266  -0.363  10.491 -4.2532 -0.2277  0.4348
  425MOL0     H56068   0.052  -0.378  10.476  0.4884 -0.5688  1.6388
  425MOL0     H56069   0.065  -0.230  10.381 -0.4680  2.6110  1.3788
  425MOL0     H56070   0.017  -0.086  10.547 -0.6889 -0.0951  1.7129
  425MOL0     H56071   0.010  -0.215  10.671 -1.3055  0.5419  0.7953
  425MOL0     H56072  -0.171  -0.162  10.448 -1.2205  2.4325  1.5621
  425MOL0     H56073  -0.190  -0.318  10.546 -3.4223  0.3166 -0.3912
  425MOL0     H56074  -0.186  -0.029  10.658  0.3261 -0.6609  3.6799
  425MOL0     H56075  -0.234  -0.172  10.749  0.0128 -1.5091 -0.5986
  425MOL0     H56076  -0.417  -0.201  10.573  1.5977 -0.1760 -2.0690
  425MOL0     H56077  -0.362  -0.037  10.530  2.7348 -1.2048 -1.1742
  425MOL0     H56078  -0.563  -0.051  10.704 -0.1211 -4.3160 -2.8938
  425MOL0     H56079  -0.451  -0.120  10.821  0.2870  2.0578  1.2820
  425MOL0     H56080  -0.445   0.156  10.678 -0.1157  0.4141 -0.0109
  425MOL0     H56081  -0.318   0.111  10.800 -0.1934  0.9609  1.6077
  425MOL0     H56082   0.487  -0.350  10.547 -0.5032 -0.1400 -1.5881
  425MOL0     H56083   0.741  -0.311  10.534  1.5042  0.3403 -1.9641
  425MOL0     H56084   1.047   0.044  10.403  0.5235 -1.1890  1.2634
  425MOL0     H56085   1.295   0.112  10.368 -0.5556  0.5280 -0.4484
  425MOL0     H56086   3.066   0.218  10.278  2.9818 -0.1988 -1.7951
  425MOL0     H56087   3.211   0.305  10.450 -0.5702 -0.3227  0.9660
  425MOL0     H56088   3.568   0.483  10.681 -2.5761 -1.6904  0.1766
  425MOL0     H56089   3.779   0.480  10.828 -0.1403 -1.3290  2.2043
  425MOL0     H56090   4.052   0.229  10.979 -0.2394  0.5824 -0.2755
  425MOL0     H56091   3.938   0.116  10.909 -0.7605 -0.7224  0.3360
  425MOL0     H56092   3.925   0.200  11.197 -0.9671  1.8803 -1.5975
  425MOL0     H56093   3.823   0.081  11.123  0.6708 -2.0671 -0.5692
  425MOL0     H56094   4.077  -0.024  11.088 -0.7683  0.5480 -0.2804
  425MOL0     H56095   3.990  -0.033  11.239  1.3483 -3.8601 -2.3026
  425MOL0     H56096   4.205   0.154  11.136  0.3267  1.2053  0.5080
  425MOL0     H56097   4.127   0.181  11.293 -3.2899  0.7340 -2.5253
  425MOL0     H56098   4.393  -0.130  11.383  0.4864 -0.2640  0.4188
  425MOL0     H56099   3.665   0.095  10.967 -0.8285  1.2082  1.6720
  425MOL0     H56100   3.504   0.074  10.793  0.1763 -0.1488  0.8469
  426MOL0     O56101  10.035   5.842   4.587 -0.2962 -0.2038 -0.4871
  426MOL0     C56102  10.130   5.768   4.572 -0.1776 -0.6021  0.2668
  426MOL0     O56103  10.136   5.645   4.621 -0.3752  0.0635  0.2683
  426MOL0     C56104  10.024   5.578   4.619  1.1392 -0.0328 -0.3943
  426MOL0     C56105   9.906   5.624   4.700  0.4610 -0.7190 -0.2989
  426MOL0     C56106   9.794   5.542   4.704  1.0535  0.3196 -0.5512
  426MOL0     C56107   9.794   5.414   4.643  0.2520  0.7768 -0.3403
  426MOL0     O56108   9.688   5.328   4.647  0.3453  0.3307 -0.1058
  426MOL0     C56109   9.641   5.293   4.778 -0.8901  0.2452 -0.8218
  426MOL0     C56110   9.534   5.177   4.776 -0.0501  0.0397 -0.1820
  426MOL0     C56111   9.468   5.155   4.909 -0.1636  0.3507  0.4826
  426MOL0     C56112   9.363   5.273   4.929  0.6072 -0.5508  0.3268
  426MOL0     C56113   9.274   5.260   5.051  0.2836  0.6104 -0.1982
  426MOL0     C56114   9.161   5.155   5.039  0.7145  0.0398 -0.0486
  426MOL0     C56115   9.085   5.119   5.166 -0.5025  0.3787  0.5641
  426MOL0     C56116   9.156   5.024   5.263  0.0519 -0.5293  0.0832
  426MOL0     N56117   9.080   5.004   5.393 -0.0664 -0.3196  0.0687
  426MOL0     C56118   9.102   5.079   5.510  0.1404  0.3363 -0.0690
  426MOL0     C56119   9.005   5.031   5.592  0.2295 -0.1244  0.4371
  426MOL0     C56120   8.976   5.083   5.728 -0.0246 -0.6303  0.6440
  426MOL0     C56121   8.822   5.127   5.751 -1.4849  0.5886 -0.1793
  426MOL0     C56122   8.725   5.024   5.800 -0.0416 -0.1381  0.2211
  426MOL0     C56123   8.706   4.902   5.705 -1.0715 -0.3075  1.3040
  426MOL0     O56124   8.584   4.837   5.754  0.9938 -0.0489  0.4347
  426MOL0     C56125   8.462   4.830   5.681 -0.0848 -0.5395 -0.5030
  426MOL0     C56126   8.357   4.784   5.756 -0.0991  0.6094  0.1333
  426MOL0     C56127   8.227   4.789   5.709  0.3833  0.7507 -0.4031
  426MOL0     C56128   8.200   4.838   5.576 -0.3009  1.4233  0.2198
  426MOL0     C56129   8.057   4.849   5.524  0.5205  0.8722  0.8093
  426MOL0     O56130   8.030   4.937   5.419  0.3085  0.8406  0.5106
  426MOL0     C56131   7.894   4.948   5.390 -0.3720 -0.2528  0.3516
  426MOL0     C56132   7.865   4.935   5.247 -0.2630 -0.7448 -1.1277
  426MOL0     C56133   7.735   4.955   5.210  0.3214  0.3470  0.4463
  426MOL0     C56134   7.635   4.993   5.298  0.3983  0.3677 -0.5993
  426MOL0     O56135   7.516   5.026   5.244  0.1141 -0.1406 -0.7105
  426MOL0     C56136   7.393   5.032   5.326  0.1134  0.0762  0.0978
  426MOL0     C56137   7.287   5.074   5.228  0.8940 -0.1387 -0.3215
  426MOL0     C56138   7.134   5.070   5.255 -0.0104  0.7183 -0.1651
  426MOL0     C56139   7.107   4.927   5.307  0.1820 -0.2737  0.1063
  426MOL0     C56140   6.958   4.893   5.284 -0.0904 -0.5332 -0.3114
  426MOL0     C56141   6.857   5.003   5.338  0.2500 -0.2188 -0.6581
  426MOL0     C56142   6.886   5.043   5.482 -0.7147  0.2732  0.1551
  426MOL0     C56143   6.799   5.163   5.524 -0.6261  0.1983 -0.2853
  426MOL0    Cl56144   6.631   5.111   5.510 -0.1415  0.5207 -0.0265
  426MOL0     C56145   7.661   5.003   5.432  0.3331 -0.9381  0.6972
  426MOL0     C56146   7.792   4.978   5.471  0.0151 -0.6911  0.0539
  426MOL0     O56147   7.974   4.786   5.585 -0.2349  0.2668 -0.3405
  426MOL0     C56148   8.314   4.872   5.497 -0.2106 -0.4929 -1.0131
  426MOL0     C56149   8.441   4.877   5.551 -0.4634  0.2985  0.4531
  426MOL0     N56150   8.936   4.930   5.530  0.1419 -0.0592 -0.7976
  426MOL0     N56151   8.975   4.916   5.409 -0.1698  0.3734 -0.2755
  426MOL0     C56152   9.903   5.373   4.575  0.0084  0.4547 -0.0113
  426MOL0     C56153  10.017   5.451   4.560  0.8122  0.6700 -0.6851
  426MOL0     C56154  10.246   5.831   4.511  0.1981 -0.0364 -0.2039
  426MOL0     C56155  10.239   5.965   4.448  1.2822  1.1083 -0.1288
  426MOL0     C56156  10.348   6.020   4.378 -0.7057 -0.6525 -0.9360
  426MOL0     C56157  10.470   5.952   4.389 -0.0103 -0.0978 -0.2495
  426MOL0     O56158  10.580   5.988   4.322 -0.4075 -0.2605 -0.2486
  426MOL0     C56159  10.620   6.131   4.344 -0.1554  0.7652  0.5220
  426MOL0     C56160  10.751   6.154   4.260 -0.5357  0.3485 -0.5323
  426MOL0     C56161  10.878   6.079   4.295  0.6380 -0.7262 -0.5080
  426MOL0     C56162  10.986   6.121   4.201  0.8872  0.1732  0.2205
  426MOL0     C56163  11.123   6.082   4.242  0.2710  0.1340  0.0572
  426MOL0     C56164  11.235   6.060   4.274  0.0208 -0.7480 -0.1944
  426MOL0     C56165  10.474   5.821   4.446 -0.3415  0.1380 -0.1963
  426MOL0     C56166  10.363   5.763   4.510  1.1086 -0.1640  0.9627
  426MOL0     H56167   9.907   5.717   4.757 -0.0303  0.5101 -2.1937
  426MOL0     H56168   9.706   5.561   4.764 -0.0842 -3.3439 -0.8069
  426MOL0     H56169   9.601   5.380   4.829  1.3790  0.7272  0.2569
  426MOL0     H56170   9.724   5.259   4.840 -1.8549 -1.3014 -0.3299
  426MOL0     H56171   9.579   5.086   4.736  1.8614 -0.2616  2.4065
  426MOL0     H56172   9.454   5.204   4.706  0.1657 -1.4364 -1.0197
  426MOL0     H56173   9.543   5.153   4.988 -0.0743 -1.0910  0.3795
  426MOL0     H56174   9.414   5.060   4.903 -2.7388  1.6930  0.7470
  426MOL0     H56175   9.417   5.365   4.952 -1.6778  1.4416 -1.7500
  426MOL0     H56176   9.305   5.293   4.838 -0.1987 -1.0399  0.7131
  426MOL0     H56177   9.240   5.359   5.082  0.7073  0.9748 -0.8793
  426MOL0     H56178   9.339   5.233   5.135  2.1775 -0.0777 -1.8017
  426MOL0     H56179   9.199   5.061   4.998 -2.0306 -1.0491 -0.3076
  426MOL0     H56180   9.091   5.195   4.965  1.8448 -0.3628 -1.3771
  426MOL0     H56181   9.068   5.216   5.213 -2.1633  0.9313 -1.0393
  426MOL0     H56182   8.988   5.080   5.134 -0.5416 -0.1831  1.3306
  426MOL0     H56183   9.255   5.068   5.278  1.1161 -1.9904 -2.1391
  426MOL0     H56184   9.165   4.927   5.214 -2.2670  1.1702 -4.1844
  426MOL0     H56185   9.179   5.153   5.532 -0.7131  0.7300  1.8081
  426MOL0     H56186   9.045   5.164   5.755 -2.7462  1.5794  1.4204
  426MOL0     H56187   9.004   5.005   5.800  2.2979 -0.8094 -0.3714
  426MOL0     H56188   8.797   5.166   5.652  0.8144 -0.1714 -1.1411
  426MOL0     H56189   8.818   5.214   5.817 -1.0817 -2.1298  3.7787
  426MOL0     H56190   8.763   4.991   5.897 -0.9420  1.8320  1.3163
  426MOL0     H56191   8.635   5.081   5.824 -1.2427 -3.0403  3.3757
  426MOL0     H56192   8.792   4.834   5.710  1.0717  2.0054 -1.0713
  426MOL0     H56193   8.696   4.943   5.604  2.1722  1.6191  1.6331
  426MOL0     H56194   8.366   4.751   5.859 -0.4833  0.1843  0.0330
  426MOL0     H56195   8.148   4.758   5.777  0.5749  3.7816  1.3776
  426MOL0     H56196   7.942   4.931   5.170 -1.3555  1.0251 -2.3738
  426MOL0     H56197   7.717   4.935   5.105  0.0399  0.5544  0.4519
  426MOL0     H56198   7.407   5.090   5.417  5.3864 -0.4421 -0.0572
  426MOL0     H56199   7.374   4.928   5.353  2.5690 -1.5591 -3.6322
  426MOL0     H56200   7.292   5.009   5.140 -0.3334  1.7393 -1.8830
  426MOL0     H56201   7.316   5.178   5.206  0.6824  0.8479  3.3758
  426MOL0     H56202   7.074   5.084   5.165 -3.4440 -1.2668  1.5787
  426MOL0     H56203   7.101   5.139   5.334 -1.1544 -0.2423  0.2246
  426MOL0     H56204   7.173   4.864   5.247 -0.1750  1.3468 -2.1338
  426MOL0     H56205   7.128   4.923   5.415  0.0199  3.0837  0.3587
  426MOL0     H56206   6.939   4.801   5.339  1.4179 -1.7241 -1.6731
  426MOL0     H56207   6.942   4.874   5.178 -1.6393 -0.3119 -0.1366
  426MOL0     H56208   6.759   4.957   5.321  0.2155  0.6431 -3.1898
  426MOL0     H56209   6.869   5.089   5.272  1.9996  2.2603  2.5667
  426MOL0     H56210   6.858   4.960   5.548  0.1437 -0.6065 -0.5668
  426MOL0     H56211   6.990   5.072   5.493 -0.8333  0.6510  0.3114
  426MOL0     H56212   6.823   5.248   5.458  1.5004  0.3665  0.6213
  426MOL0     H56213   6.820   5.198   5.626  0.1957 -0.0669 -0.3525
  426MOL0     H56214   7.584   5.013   5.507  2.3231  1.1280  2.6357
  426MOL0     H56215   7.797   4.982   5.579 -1.1449 -1.4040  0.1459
  426MOL0     H56216   8.296   4.902   5.394  1.4884  1.0664 -0.8956
  426MOL0     H56217   8.516   4.918   5.484 -0.6885  0.4897  0.3159
  426MOL0     H56218   9.893   5.272   4.538 -0.2509  0.0478  1.1429
  426MOL0     H56219  10.109   5.411   4.518  1.6838  1.5556  0.3228
  426MOL0     H56220  10.140   6.011   4.443 -0.3539 -2.2418 -1.1729
  426MOL0     H56221  10.331   6.110   4.319  0.5606 -0.6050 -1.2491
  426MOL0     H56222  10.634   6.153   4.450 -0.6827  1.2036  0.5074
  426MOL0     H56223  10.547   6.208   4.318  0.0239  0.0812 -2.4097
  426MOL0     H56224  10.727   6.125   4.157  0.0193 -1.9633 -0.0662
  426MOL0     H56225  10.780   6.258   4.278  1.3245 -0.3081  0.5269
  426MOL0     H56226  10.856   5.972   4.295 -2.0925 -0.3352 -3.8117
  426MOL0     H56227  10.899   6.109   4.398 -1.5030  1.3456 -0.6012
  426MOL0     H56228  10.969   6.060   4.111  3.8551  0.5257 -0.6626
  426MOL0     H56229  10.995   6.228   4.184  1.4502 -0.0285 -0.8264
  426MOL0     H56230  11.340   6.049   4.295 -0.0125  0.8147  1.0415
  426MOL0     H56231  10.568   5.771   4.426  0.2173  1.0108  0.1775
  426MOL0     H56232  10.383   5.660   4.537  1.0559 -0.0728  1.3551
  427MOL0     O56233   7.332   4.947   5.639  1.2188  0.3510 -0.1049
  427MOL0     C56234   7.274   4.896   5.737  0.5828 -0.4588 -0.3021
  427MOL0     O56235   7.305   4.778   5.801 -0.1546 -0.3536  0.0259
  427MOL0     C56236   7.414   4.694   5.761  0.4906 -0.8292  0.7128
  427MOL0     C56237   7.531   4.743   5.702 -0.3280 -0.8757  0.2414
  427MOL0     C56238   7.636   4.659   5.673  0.2909 -0.2473  0.2952
  427MOL0     C56239   7.624   4.514   5.704  0.8413 -0.5637 -0.1327
  427MOL0     O56240   7.721   4.422   5.673 -0.0255 -0.0160 -0.2872
  427MOL0     C56241   7.858   4.462   5.669  0.1475 -0.0348 -0.0432
  427MOL0     C56242   7.935   4.332   5.665  0.0694  0.0723 -0.1753
  427MOL0     C56243   8.090   4.336   5.679  0.0011  0.4826  0.7202
  427MOL0     C56244   8.154   4.398   5.551 -0.5128  0.3602 -0.7221
  427MOL0     C56245   8.303   4.437   5.574 -0.6252 -0.1078 -0.3954
  427MOL0     C56246   8.368   4.451   5.440 -0.4966  0.2763 -0.1241
  427MOL0     C56247   8.515   4.473   5.461 -0.0190 -0.7232  0.0884
  427MOL0     C56248   8.584   4.497   5.324 -0.2476 -0.0525 -0.8221
  427MOL0     N56249   8.554   4.620   5.253 -0.3091 -0.2751 -0.6077
  427MOL0     C56250   8.632   4.733   5.247 -0.7667  0.3527  0.5881
  427MOL0     C56251   8.568   4.802   5.150 -0.4521 -0.3184  0.5856
  427MOL0     C56252   8.612   4.935   5.082  0.0295  0.2343 -0.3223
  427MOL0     C56253   8.675   5.043   5.171 -0.1528  1.0334  0.1999
  427MOL0     C56254   8.681   5.179   5.098  0.3506 -0.8398 -0.2831
  427MOL0     C56255   8.739   5.288   5.187 -0.5681 -1.3965 -0.8844
  427MOL0     O56256   8.722   5.416   5.119 -0.1467  0.4354 -0.3202
  427MOL0     C56257   8.818   5.479   5.051 -0.6831 -0.6158 -0.0683
  427MOL0     C56258   8.959   5.469   5.089  0.2299 -0.1855 -0.1610
  427MOL0     C56259   9.052   5.534   5.010  0.0384 -0.5257 -0.1806
  427MOL0     C56260   9.016   5.607   4.899 -0.2618  0.0936  0.3190
  427MOL0     C56261   9.110   5.676   4.816 -0.2970  0.3292  0.1428
  427MOL0     O56262   9.244   5.683   4.851 -0.2222  1.0301  0.2751
  427MOL0     C56263   9.327   5.688   4.743 -0.4940  0.0989  0.4007
  427MOL0     C56264   9.430   5.775   4.740 -0.6126 -0.2617  1.0430
  427MOL0     C56265   9.516   5.785   4.638 -0.3231  0.3463 -0.5834
  427MOL0     C56266   9.520   5.685   4.537 -1.0172  0.2019  0.2214
  427MOL0     O56267   9.620   5.676   4.445 -0.0785 -0.1350 -0.2544
  427MOL0     C56268   9.735   5.758   4.438 -0.3141  0.7447 -0.2184
  427MOL0     C56269   9.711   5.888   4.371 -0.1409 -0.3775  1.0438
  427MOL0     C56270   9.661   5.861   4.224 -0.1269  0.0817  0.3880
  427MOL0     C56271   9.688   5.984   4.136 -0.4324  0.3702 -1.0214
  427MOL0     C56272   9.645   5.960   3.990 -0.3565 -0.5122  1.1197
  427MOL0     C56273   9.744   5.869   3.919 -0.2033  0.2938 -0.5207
  427MOL0     C56274   9.723   5.877   3.768 -0.4460 -0.2108  0.0012
  427MOL0     C56275   9.809   5.777   3.686  0.2404 -0.3814 -0.3169
  427MOL0    Cl56276   9.982   5.830   3.701 -0.6394 -0.3285  0.1228
  427MOL0     C56277   9.417   5.588   4.537  0.4564 -0.1136  0.3089
  427MOL0     C56278   9.319   5.590   4.645 -0.1943  0.7066  0.0981
  427MOL0     O56279   9.062   5.726   4.713  0.4387 -0.2117  0.6418
  427MOL0     C56280   8.879   5.612   4.860 -1.3372  0.1230  1.3341
  427MOL0     C56281   8.779   5.553   4.945 -0.1664 -0.0685  0.2767
  427MOL0     N56282   8.448   4.748   5.121 -0.5241  0.0665 -0.3757
  427MOL0     N56283   8.448   4.631   5.169 -0.0656 -0.4296 -0.1692
  427MOL0     C56284   7.511   4.468   5.765 -0.1955 -0.3987  0.4765
  427MOL0     C56285   7.402   4.558   5.787  0.1997  0.2460 -0.1325
  427MOL0     C56286   7.169   4.982   5.806 -0.1130 -0.0752 -0.6072
  427MOL0     C56287   7.136   5.110   5.754 -0.4773  0.1376 -0.3019
  427MOL0     C56288   7.034   5.187   5.818 -0.0344 -0.3024 -0.0821
  427MOL0     C56289   6.973   5.142   5.932 -0.2332  0.5719  0.2814
  427MOL0     O56290   6.875   5.210   6.000 -0.0868  0.5105 -0.2636
  427MOL0     C56291   6.750   5.235   5.935 -0.4768 -0.0187  0.7899
  427MOL0     C56292   6.649   5.126   5.973  0.3962 -0.6459  0.1183
  427MOL0     C56293   6.564   5.071   5.861  1.0297  0.4297 -0.0443
  427MOL0     C56294   6.467   5.181   5.810  0.3083  0.5277 -0.7398
  427MOL0     C56295   6.331   5.163   5.868  0.3351  0.0941  0.9489
  427MOL0     C56296   6.223   5.137   5.920 -0.8304  0.0162  0.8331
  427MOL0     C56297   7.011   5.020   5.995  0.4293 -0.2113  0.8747
  427MOL0     C56298   7.108   4.943   5.927 -0.4489  0.3536  0.1448
  427MOL0     H56299   7.548   4.850   5.692  1.6123 -1.2664 -1.1758
  427MOL0     H56300   7.725   4.694   5.622 -1.6784  2.5944 -1.5683
  427MOL0     H56301   7.889   4.525   5.753 -1.1610  3.2180 -1.7956
  427MOL0     H56302   7.876   4.523   5.579 -1.2080  0.3824 -0.0512
  427MOL0     H56303   7.914   4.279   5.572  3.0162 -3.1877  0.7948
  427MOL0     H56304   7.894   4.269   5.745  4.0109  1.1628  3.1068
  427MOL0     H56305   8.130   4.236   5.690  0.6071  0.7264  0.7453
  427MOL0     H56306   8.112   4.388   5.773  2.0821 -0.1870  0.6477
  427MOL0     H56307   8.142   4.316   5.479 -2.2544 -0.5143  0.5198
  427MOL0     H56308   8.097   4.483   5.513 -0.3568  0.7447 -0.0981
  427MOL0     H56309   8.353   4.357   5.629 -0.4144 -0.6056 -1.3067
  427MOL0     H56310   8.312   4.534   5.625  1.3488  1.0508 -2.7672
  427MOL0     H56311   8.329   4.533   5.380  0.2108 -0.6585 -1.9401
  427MOL0     H56312   8.355   4.359   5.381 -0.2273 -0.0242  0.2772
  427MOL0     H56313   8.541   4.546   5.538 -0.2930 -0.4017 -0.1226
  427MOL0     H56314   8.558   4.379   5.496  0.9853 -0.2027  0.2906
  427MOL0     H56315   8.556   4.417   5.256  1.0835 -4.0783  2.9284
  427MOL0     H56316   8.692   4.488   5.339  0.1328  3.7009 -0.1424
  427MOL0     H56317   8.732   4.753   5.283 -0.6823  1.0719 -0.0319
  427MOL0     H56318   8.523   4.973   5.031  1.0306  1.4602 -1.2535
  427MOL0     H56319   8.684   4.924   4.999 -0.8081  0.6277 -1.1198
  427MOL0     H56320   8.773   5.006   5.202 -0.7177 -1.7642 -1.0281
  427MOL0     H56321   8.621   5.062   5.264 -0.1094 -1.8286  0.8975
  427MOL0     H56322   8.736   5.171   5.004 -0.1827  1.0182 -0.7959
  427MOL0     H56323   8.581   5.214   5.069 -0.2098 -2.1755 -0.0775
  427MOL0     H56324   8.842   5.276   5.224  0.2277  1.3313 -1.9573
  427MOL0     H56325   8.687   5.286   5.283 -1.7128 -0.5886 -1.4711
  427MOL0     H56326   8.974   5.412   5.180 -1.7749 -3.1121 -1.4864
  427MOL0     H56327   9.153   5.540   5.049 -0.3810 -0.0078  0.8592
  427MOL0     H56328   9.426   5.847   4.822  0.3232  0.9688  0.0531
  427MOL0     H56329   9.599   5.855   4.643  0.5425 -0.6508 -0.3698
  427MOL0     H56330   9.818   5.703   4.395  1.1289  1.0041  2.0563
  427MOL0     H56331   9.778   5.780   4.536  1.4670  0.7252 -0.9737
  427MOL0     H56332   9.804   5.945   4.365 -0.9554  0.8218 -1.6071
  427MOL0     H56333   9.643   5.954   4.426  4.0910  3.3952  2.4034
  427MOL0     H56334   9.554   5.836   4.222 -0.4066  1.1799  0.7792
  427MOL0     H56335   9.713   5.772   4.187 -1.8337 -0.6987 -0.2345
  427MOL0     H56336   9.637   6.062   4.194 -0.9717 -2.6510  2.9961
  427MOL0     H56337   9.792   6.018   4.143 -0.1647 -0.6641  0.7285
  427MOL0     H56338   9.650   6.055   3.937  2.5445 -0.0474  2.0454
  427MOL0     H56339   9.544   5.920   3.991 -0.0334 -1.4523 -0.3967
  427MOL0     H56340   9.730   5.767   3.957  1.3384  1.1460  2.6404
  427MOL0     H56341   9.843   5.907   3.948 -0.9269  1.3120  0.7319
  427MOL0     H56342   9.619   5.869   3.736 -0.4386  0.3317 -0.1724
  427MOL0     H56343   9.745   5.979   3.737 -0.2356 -0.0339  0.7173
  427MOL0     H56344   9.773   5.771   3.583  1.7755 -0.5306 -0.8775
  427MOL0     H56345   9.809   5.675   3.724 -1.5450 -0.1827  0.2914
  427MOL0     H56346   9.408   5.518   4.455  2.3955  0.3612 -0.3556
  427MOL0     H56347   9.245   5.512   4.643  0.4232  0.1318 -0.8965
  427MOL0     H56348   8.838   5.670   4.778  1.0360  2.5575  1.7156
  427MOL0     H56349   8.675   5.553   4.913  0.2054  1.9484 -1.0751
  427MOL0     H56350   7.507   4.360   5.782 -1.9207 -0.4350 -0.0245
  427MOL0     H56351   7.314   4.518   5.836  1.8897 -1.1115  2.0085
  427MOL0     H56352   7.179   5.143   5.660 -2.2169  1.0945 -0.8050
  427MOL0     H56353   7.010   5.288   5.783  1.5804  0.0797 -0.1800
  427MOL0     H56354   6.760   5.243   5.826  1.3540 -0.2598  0.9083
  427MOL0     H56355   6.704   5.330   5.967  1.7505  0.5189  2.5962
  427MOL0     H56356   6.703   5.044   6.020  2.4684  0.6714  0.1702
  427MOL0     H56357   6.578   5.166   6.046 -0.2368 -2.0491  0.3101
  427MOL0     H56358   6.498   4.992   5.897 -0.1963  1.4393  0.0181
  427MOL0     H56359   6.636   5.034   5.788  0.5909 -0.6250  0.0496
  427MOL0     H56360   6.507   5.280   5.836 -1.3350  0.9425  0.3999
  427MOL0     H56361   6.444   5.168   5.704 -0.3805 -3.8775 -0.2275
  427MOL0     H56362   6.138   5.102   5.976 -0.9926  3.8770  3.3959
  427MOL0     H56363   6.975   4.993   6.094 -1.5101 -1.5159 -0.1172
  427MOL0     H56364   7.149   4.848   5.960  0.2412  0.5591 -0.1121
  428MOL0     O56365   5.996   7.366   1.698  0.3630 -0.4605 -0.2502
  428MOL0     C56366   6.087   7.343   1.766 -0.5132 -0.7666 -0.6212
  428MOL0     O56367   6.081   7.315   1.900  0.3225  0.2207  0.4769
  428MOL0     C56368   5.958   7.290   1.954  0.1542 -0.6301 -0.0647
  428MOL0     C56369   5.933   7.358   2.074  0.6082 -0.8318  0.5100
  428MOL0     C56370   5.805   7.357   2.135 -0.4875  0.0664  0.2473
  428MOL0     C56371   5.710   7.269   2.091  0.9748  0.6164  0.0733
  428MOL0     O56372   5.586   7.265   2.159 -0.8571  0.0434  0.0264
  428MOL0     C56373   5.480   7.182   2.115 -0.0477  0.2284 -1.0401
  428MOL0     C56374   5.375   7.151   2.228  0.0220 -0.7601 -0.3907
  428MOL0     C56375   5.258   7.259   2.237 -0.8387  0.5710  0.0077
  428MOL0     C56376   5.156   7.242   2.346  0.9517  0.1033  0.2112
  428MOL0     C56377   5.031   7.307   2.294  0.0776 -0.3606  0.1290
  428MOL0     C56378   4.918   7.274   2.392 -0.5198 -0.1356  0.1888
  428MOL0     C56379   4.792   7.355   2.360 -0.9278 -0.7218 -0.1596
  428MOL0     C56380   4.652   7.321   2.431 -0.0187  0.3248  0.0461
  428MOL0     N56381   4.662   7.304   2.582  0.6817 -0.6154  0.6686
  428MOL0     C56382   4.666   7.180   2.644 -0.4906  0.1881 -0.0515
  428MOL0     C56383   4.617   7.202   2.769 -0.3413  0.0400 -0.0377
  428MOL0     C56384   4.588   7.100   2.881 -0.9741 -0.2928 -0.0546
  428MOL0     C56385   4.442   7.063   2.880  0.5513 -0.0214  0.0406
  428MOL0     C56386   4.394   6.985   2.752 -0.2698  0.6556  0.5154
  428MOL0     C56387   4.237   6.968   2.753 -1.2266 -0.4694 -0.0940
  428MOL0     O56388   4.194   6.872   2.652 -0.3556  0.6515  0.2114
  428MOL0     C56389   4.059   6.873   2.615  0.2979 -0.5827  0.3836
  428MOL0     C56390   3.992   6.995   2.570 -0.1053 -0.1031 -0.4566
  428MOL0     C56391   3.866   6.987   2.517  0.2677  0.4603  0.5392
  428MOL0     C56392   3.790   6.865   2.516 -0.5000 -0.7399  0.9869
  428MOL0     C56393   3.651   6.859   2.461 -1.2549 -0.1809  0.4062
  428MOL0     O56394   3.585   6.745   2.484 -0.3465  0.2091  0.0077
  428MOL0     C56395   3.460   6.748   2.421  0.4731  0.4727 -0.4298
  428MOL0     C56396   3.437   6.752   2.282  0.0146  0.0971 -0.3120
  428MOL0     C56397   3.306   6.735   2.234 -0.5322 -1.4502 -0.0848
  428MOL0     C56398   3.191   6.729   2.321 -0.5539 -0.9495 -0.3104
  428MOL0     O56399   3.069   6.731   2.260  0.4247  0.4638  0.3530
  428MOL0     C56400   2.966   6.642   2.313 -0.4944  0.6932 -1.5900
  428MOL0     C56401   3.006   6.496   2.281 -0.1728  0.1295 -0.3501
  428MOL0     C56402   2.891   6.398   2.305  0.0792 -0.9736  0.0661
  428MOL0     C56403   2.861   6.356   2.447  0.5784  0.9709  0.1505
  428MOL0     C56404   2.714   6.295   2.447 -0.0094 -0.4147 -0.5939
  428MOL0     C56405   2.685   6.207   2.570 -0.3474  0.3414 -0.0627
  428MOL0     C56406   2.698   6.281   2.718 -0.4658  0.3026  0.7812
  428MOL0     C56407   2.578   6.366   2.759 -0.4852 -0.0170  0.6711
  428MOL0    Cl56408   2.447   6.266   2.815  0.0816  0.1400 -0.4248
  428MOL0     C56409   3.216   6.729   2.460  0.5422  0.7242  0.1337
  428MOL0     C56410   3.343   6.750   2.507  0.1161 -0.5151  0.5043
  428MOL0     O56411   3.611   6.962   2.397  0.0238 -0.5325  1.0042
  428MOL0     C56412   3.851   6.751   2.565  1.1052 -0.3810 -0.3527
  428MOL0     C56413   3.985   6.750   2.612 -0.5986  0.8049 -0.2274
  428MOL0     N56414   4.603   7.342   2.790 -0.0856 -0.0328  0.5639
  428MOL0     N56415   4.627   7.398   2.677 -0.4286 -0.4662 -0.5134
  428MOL0     C56416   5.747   7.189   1.982 -0.5417  0.1582 -0.0223
  428MOL0     C56417   5.864   7.205   1.908 -0.1365  0.6853  0.8539
  428MOL0     C56418   6.219   7.395   1.715  0.3884  0.5226 -1.6729
  428MOL0     C56419   6.341   7.366   1.782 -1.3114 -0.0237 -0.7383
  428MOL0     C56420   6.463   7.409   1.729 -0.6287 -0.2510 -1.0045
  428MOL0     C56421   6.465   7.484   1.618  0.4555 -0.0661 -0.1245
  428MOL0     O56422   6.586   7.516   1.559  0.5581 -0.4370  0.2402
  428MOL0     C56423   6.713   7.497   1.619 -0.0935  0.2055 -0.1768
  428MOL0     C56424   6.808   7.595   1.549 -0.6129 -0.2497  0.4317
  428MOL0     C56425   6.946   7.528   1.535  0.3145  0.5874  0.2500
  428MOL0     C56426   7.047   7.617   1.466  0.1066 -0.6015  0.3538
  428MOL0     C56427   7.154   7.539   1.400  0.0133  0.0343  0.3444
  428MOL0     C56428   7.247   7.485   1.343 -1.7606 -0.1192  0.1929
  428MOL0     C56429   6.354   7.525   1.551  0.4500 -1.2753 -0.1239
  428MOL0     C56430   6.229   7.483   1.599  0.6590 -0.0230 -0.2370
  428MOL0     H56431   6.009   7.431   2.101 -0.4135  0.3415  0.3081
  428MOL0     H56432   5.786   7.415   2.225  0.6021  0.0464  0.5004
  428MOL0     H56433   5.505   7.084   2.073 -4.3111 -1.3793 -0.3302
  428MOL0     H56434   5.427   7.236   2.037 -0.4306  1.6876  0.1850
  428MOL0     H56435   5.417   7.137   2.327 -1.6087  0.0499  0.4612
  428MOL0     H56436   5.331   7.053   2.206 -0.7401 -0.4788 -0.1670
  428MOL0     H56437   5.215   7.249   2.137  4.4817 -3.1243 -2.4129
  428MOL0     H56438   5.299   7.360   2.242  2.3914 -0.6409  0.3838
  428MOL0     H56439   5.141   7.138   2.375  1.7623 -0.8620 -2.5141
  428MOL0     H56440   5.179   7.301   2.434 -2.4986  0.1000  1.2865
  428MOL0     H56441   4.995   7.269   2.198 -0.6702 -0.6450  0.5117
  428MOL0     H56442   5.036   7.416   2.285  2.2652 -0.2394  1.9335
  428MOL0     H56443   4.947   7.299   2.494  1.3897  2.1221 -0.8092
  428MOL0     H56444   4.916   7.166   2.377  0.9132  0.0747 -2.0931
  428MOL0     H56445   4.809   7.459   2.389  1.3633 -0.7455 -1.2323
  428MOL0     H56446   4.776   7.360   2.252  0.3817  2.2027 -0.3105
  428MOL0     H56447   4.614   7.226   2.392  2.7446 -1.1473  0.6019
  428MOL0     H56448   4.584   7.403   2.408 -0.4338 -0.6360 -2.3536
  428MOL0     H56449   4.686   7.087   2.592 -1.2812  0.2519 -0.5036
  428MOL0     H56450   4.604   7.150   2.977 -0.5018  1.2404 -0.8919
  428MOL0     H56451   4.646   7.008   2.869  0.4305  0.5035  0.3858
  428MOL0     H56452   4.391   7.159   2.890  2.1117  0.6680  2.0697
  428MOL0     H56453   4.425   7.002   2.970 -0.6080 -0.2602 -0.3215
  428MOL0     H56454   4.417   7.034   2.658 -2.8671  0.6205 -0.2198
  428MOL0     H56455   4.436   6.884   2.758 -1.5514  0.0837  0.3914
  428MOL0     H56456   4.197   7.066   2.727  2.8239  1.0407 -1.4249
  428MOL0     H56457   4.203   6.931   2.850  0.9543 -2.6668 -0.0774
  428MOL0     H56458   4.039   7.093   2.564 -0.7643  0.1329 -3.0847
  428MOL0     H56459   3.827   7.077   2.471  1.2170  0.6611  0.0922
  428MOL0     H56460   3.520   6.756   2.212  1.6970  0.1784  1.6025
  428MOL0     H56461   3.288   6.731   2.127 -3.7596  2.1773  0.0987
  428MOL0     H56462   2.865   6.667   2.279 -1.9544 -0.4689  1.4940
  428MOL0     H56463   2.946   6.646   2.421  0.8004 -0.1619 -1.2919
  428MOL0     H56464   3.092   6.474   2.344 -0.3736  2.4106  0.8169
  428MOL0     H56465   3.032   6.471   2.178 -0.0763 -4.6695  0.6045
  428MOL0     H56466   2.908   6.312   2.240  0.9252 -0.2331 -0.7230
  428MOL0     H56467   2.804   6.456   2.274  0.9866 -0.7117 -2.2261
  428MOL0     H56468   2.938   6.283   2.473  2.0927  1.2710 -2.9147
  428MOL0     H56469   2.863   6.445   2.510  1.3347  1.0544  0.0181
  428MOL0     H56470   2.696   6.234   2.358  1.1470 -3.2022  0.9513
  428MOL0     H56471   2.640   6.375   2.449 -0.5391 -0.8808 -1.2112
  428MOL0     H56472   2.761   6.129   2.576 -0.8808 -0.2243 -0.5390
  428MOL0     H56473   2.587   6.161   2.559 -0.3203  0.7130 -2.2477
  428MOL0     H56474   2.707   6.195   2.785  0.9628  0.9981  1.5305
  428MOL0     H56475   2.786   6.346   2.721 -0.3960  0.2738 -0.3051
  428MOL0     H56476   2.545   6.423   2.671 -0.9817  2.2990  2.2814
  428MOL0     H56477   2.615   6.431   2.838 -1.5393  0.1956  1.0023
  428MOL0     H56478   3.131   6.719   2.527  1.8122  0.6768  1.7864
  428MOL0     H56479   3.355   6.762   2.615 -1.3653  0.1035  0.6181
  428MOL0     H56480   3.779   6.670   2.563 -1.0530  1.4287 -2.2265
  428MOL0     H56481   4.040   6.662   2.643 -1.5543  0.5797  0.9020
  428MOL0     H56482   5.673   7.118   1.946 -1.8499  0.3844  2.0172
  428MOL0     H56483   5.886   7.137   1.827 -0.8271 -0.8236  1.8863
  428MOL0     H56484   6.352   7.319   1.879  0.5158 -0.9880 -1.3695
  428MOL0     H56485   6.559   7.379   1.771  0.3906 -0.5868 -3.4024
  428MOL0     H56486   6.743   7.392   1.611 -0.0536  0.3016 -1.5447
  428MOL0     H56487   6.707   7.518   1.726  0.1442 -3.5385  0.7197
  428MOL0     H56488   6.776   7.634   1.452  0.2235  2.1057  1.0164
  428MOL0     H56489   6.820   7.672   1.626  1.1618 -1.1455  1.0988
  428MOL0     H56490   6.936   7.430   1.488  0.9381 -0.5237  2.3195
  428MOL0     H56491   6.987   7.506   1.634  1.7639 -0.7053 -0.5882
  428MOL0     H56492   6.992   7.662   1.383 -0.9593 -1.5773  0.5143
  428MOL0     H56493   7.082   7.695   1.535 -0.2782  0.2391 -0.3704
  428MOL0     H56494   7.330   7.443   1.291 -3.8536 -1.7796 -2.0672
  428MOL0     H56495   6.365   7.584   1.460 -2.3159  0.7822  0.7555
  428MOL0     H56496   6.134   7.512   1.555 -0.9823  0.8036  3.4641
  429MOL0     O56497   6.350   2.855   4.504  1.1476 -0.1046  0.1303
  429MOL0     C56498   6.433   2.882   4.585 -0.6343 -0.3434 -0.6090
  429MOL0     O56499   6.423   2.853   4.718  0.1994  0.2593  0.0869
  429MOL0     C56500   6.301   2.798   4.760  0.3616 -0.1966 -0.3920
  429MOL0     C56501   6.207   2.881   4.823  0.5586 -0.2382 -0.2553
  429MOL0     C56502   6.078   2.829   4.849  0.4372 -0.3029  0.2440
  429MOL0     C56503   6.044   2.698   4.816  0.4649  0.7454  0.5267
  429MOL0     O56504   5.924   2.637   4.842  0.4491 -0.0429  0.4490
  429MOL0     C56505   5.827   2.650   4.741 -0.4583  1.0013 -0.1422
  429MOL0     C56506   5.717   2.545   4.763 -0.0576  0.1364 -0.4998
  429MOL0     C56507   5.586   2.592   4.696 -0.1473  0.1272  0.0977
  429MOL0     C56508   5.477   2.497   4.719 -0.4176 -0.4413 -0.0882
  429MOL0     C56509   5.343   2.546   4.674  0.0317 -0.4719  0.1055
  429MOL0     C56510   5.228   2.466   4.749  0.4581  0.3014 -0.3758
  429MOL0     C56511   5.092   2.513   4.696  0.3870 -0.3867  0.2770
  429MOL0     C56512   4.988   2.410   4.747  0.5663 -0.2525  0.0352
  429MOL0     N56513   4.860   2.466   4.706  1.1028 -0.5240 -0.9373
  429MOL0     C56514   4.794   2.577   4.764  0.1489 -0.2554 -0.2437
  429MOL0     C56515   4.672   2.573   4.705  0.7718 -0.2325 -0.0082
  429MOL0     C56516   4.561   2.671   4.721  0.1580  1.1140 -0.1127
  429MOL0     C56517   4.445   2.621   4.816  0.0430  0.2256 -0.6841
  429MOL0     C56518   4.361   2.523   4.732 -0.1442 -0.6397  0.3623
  429MOL0     C56519   4.252   2.467   4.825 -0.1867  0.1366 -0.5694
  429MOL0     O56520   4.175   2.576   4.879  0.0963 -0.2986 -0.1447
  429MOL0     C56521   4.052   2.536   4.922  0.6118 -0.0104  0.4399
  429MOL0     C56522   4.017   2.403   4.972 -0.3937 -0.6235  0.1908
  429MOL0     C56523   3.888   2.388   5.009  0.8351  0.4288 -0.9143
  429MOL0     C56524   3.799   2.492   5.023 -0.6180  0.5575  0.2868
  429MOL0     C56525   3.658   2.469   5.075  0.6889  0.6991  0.4779
  429MOL0     O56526   3.593   2.570   5.137  0.1688 -0.0402  0.1604
  429MOL0     C56527   3.465   2.548   5.184 -0.4677 -0.7793  0.2097
  429MOL0     C56528   3.457   2.533   5.325  0.0133 -0.4617 -1.0937
  429MOL0     C56529   3.329   2.502   5.378 -0.0862  1.2468  1.2704
  429MOL0     C56530   3.218   2.491   5.298 -1.2461 -0.1116  0.0959
  429MOL0     O56531   3.103   2.481   5.365  0.1139  0.8922 -0.2746
  429MOL0     C56532   2.976   2.486   5.295 -0.2479  0.2856 -0.3382
  429MOL0     C56533   2.852   2.522   5.391 -1.0119  1.3427  0.3705
  429MOL0     C56534   2.709   2.538   5.334 -0.4122 -0.4545 -0.2336
  429MOL0     C56535   2.608   2.564   5.456 -0.3709  0.4196  0.0797
  429MOL0     C56536   2.461   2.593   5.422 -0.0492  0.4397  0.9038
  429MOL0     C56537   2.382   2.572   5.547  0.6519 -0.8254  0.8860
  429MOL0     C56538   2.229   2.594   5.514  0.2957 -0.6151 -0.2808
  429MOL0     C56539   2.150   2.525   5.621 -0.3308  0.2916 -0.2344
  429MOL0    Cl56540   1.985   2.600   5.625 -0.2406 -0.3988  0.3822
  429MOL0     C56541   3.231   2.507   5.164 -0.6164  0.1027 -0.0803
  429MOL0     C56542   3.353   2.537   5.106  0.2845 -0.6651 -0.2322
  429MOL0     O56543   3.609   2.356   5.047  0.0608 -0.0517 -0.0141
  429MOL0     C56544   3.826   2.618   4.985 -0.6092  0.0770 -0.4677
  429MOL0     C56545   3.951   2.635   4.937 -0.5740 -0.3295  0.0799
  429MOL0     N56546   4.672   2.474   4.601 -0.0012 -0.0042 -0.4043
  429MOL0     N56547   4.783   2.415   4.612  0.1891  0.5147 -0.6256
  429MOL0     C56548   6.138   2.619   4.756 -0.4635  0.2872  0.5454
  429MOL0     C56549   6.270   2.662   4.736  0.1521 -0.0545  1.2188
  429MOL0     C56550   6.557   2.951   4.527 -0.1078 -0.1635  0.3797
  429MOL0     C56551   6.580   2.985   4.387  0.0479 -0.1328  0.6543
  429MOL0     C56552   6.705   3.036   4.346  0.3689 -0.1173 -0.4235
  429MOL0     C56553   6.806   3.060   4.437 -0.0233  0.2742 -0.2981
  429MOL0     O56554   6.934   3.104   4.407 -0.0277 -0.1886  0.3622
  429MOL0     C56555   6.981   3.128   4.271 -0.0064  0.6551 -0.8291
  429MOL0     C56556   6.926   3.257   4.215 -0.5787  0.1956 -0.2825
  429MOL0     C56557   6.966   3.381   4.301 -0.0467  0.4006  0.4905
  429MOL0     C56558   6.940   3.514   4.227  0.2744  0.0769  0.5205
  429MOL0     C56559   6.846   3.596   4.296  0.5104 -0.1251 -0.5851
  429MOL0     C56560   6.765   3.669   4.346 -1.2657 -0.1114 -0.7425
  429MOL0     C56561   6.787   3.018   4.574 -0.6119 -0.1514  0.2919
  429MOL0     C56562   6.667   2.963   4.613 -0.1017  0.2655  0.3132
  429MOL0     H56563   6.219   2.986   4.845 -3.2108  0.1742  0.4204
  429MOL0     H56564   6.013   2.893   4.907  1.0902 -0.4852  1.2048
  429MOL0     H56565   5.867   2.646   4.640  2.4156 -1.3635  0.9515
  429MOL0     H56566   5.789   2.751   4.758 -0.0691  1.2150 -0.5204
  429MOL0     H56567   5.692   2.541   4.870 -4.3292  0.7962 -1.2879
  429MOL0     H56568   5.754   2.448   4.728 -0.3443  0.4570 -1.7163
  429MOL0     H56569   5.600   2.609   4.589  0.8706  1.4628  0.4159
  429MOL0     H56570   5.554   2.688   4.738 -0.4954  0.9681 -1.9604
  429MOL0     H56571   5.495   2.417   4.647 -1.4730  2.2820 -3.6723
  429MOL0     H56572   5.479   2.475   4.826  0.5958  0.3768  0.0695
  429MOL0     H56573   5.331   2.514   4.570 -1.0571 -1.2320  0.4509
  429MOL0     H56574   5.336   2.655   4.683  0.7624 -0.3156 -1.0152
  429MOL0     H56575   5.233   2.482   4.857 -2.5867  2.2828 -0.3919
  429MOL0     H56576   5.241   2.358   4.741  1.5368  0.5341 -2.1541
  429MOL0     H56577   5.070   2.617   4.719 -1.2917 -0.6696  0.0424
  429MOL0     H56578   5.098   2.511   4.587  1.1308  0.0807  0.3007
  429MOL0     H56579   4.990   2.404   4.857 -2.1659 -2.9242  0.0419
  429MOL0     H56580   5.004   2.309   4.710 -1.8167 -0.2709 -1.1035
  429MOL0     H56581   4.836   2.654   4.828  2.8759 -0.2667 -1.8428
  429MOL0     H56582   4.524   2.709   4.625  0.0287  1.8273  0.2136
  429MOL0     H56583   4.592   2.761   4.774 -0.7862  0.6908  1.2167
  429MOL0     H56584   4.396   2.714   4.846  3.3899  1.1685  2.6729
  429MOL0     H56585   4.481   2.583   4.911 -0.8039 -0.6782 -0.7132
  429MOL0     H56586   4.321   2.587   4.653  1.2170  0.7219  0.7199
  429MOL0     H56587   4.421   2.444   4.687  1.1194  0.1174  0.6573
  429MOL0     H56588   4.299   2.410   4.905  0.4178 -2.7083 -2.8044
  429MOL0     H56589   4.183   2.401   4.772 -2.7385 -0.0280  2.5823
  429MOL0     H56590   4.090   2.324   4.984 -0.2042 -0.7663 -1.6132
  429MOL0     H56591   3.854   2.286   5.023  0.5549  0.4966 -1.0981
  429MOL0     H56592   3.552   2.541   5.377 -2.0783 -1.9056  3.4399
  429MOL0     H56593   3.318   2.476   5.483  2.7019  1.4590  1.6997
  429MOL0     H56594   2.955   2.392   5.244  0.1550  2.1456 -4.2424
  429MOL0     H56595   2.983   2.562   5.217  0.6881 -0.4549 -0.9984
  429MOL0     H56596   2.884   2.619   5.429  0.0295  1.3405 -0.4649
  429MOL0     H56597   2.849   2.454   5.477  1.6919 -0.6525 -0.9569
  429MOL0     H56598   2.684   2.455   5.267  2.4234 -1.0223 -0.7197
  429MOL0     H56599   2.705   2.631   5.275 -1.5934  0.3384  1.0454
  429MOL0     H56600   2.602   2.469   5.509 -4.4088  1.1639  1.3182
  429MOL0     H56601   2.644   2.643   5.523  2.4024 -0.2777 -0.4684
  429MOL0     H56602   2.425   2.527   5.343 -0.2658  1.4701  0.1217
  429MOL0     H56603   2.439   2.693   5.382  2.4843 -0.8653 -4.6224
  429MOL0     H56604   2.415   2.640   5.625 -0.4882  0.7456  0.0676
  429MOL0     H56605   2.395   2.470   5.585 -0.1853 -0.6972  1.5446
  429MOL0     H56606   2.209   2.699   5.539  2.0138 -0.4099  0.3640
  429MOL0     H56607   2.203   2.559   5.414  3.0832 -3.3606 -0.2026
  429MOL0     H56608   2.201   2.517   5.717  0.2866 -2.6080 -0.7001
  429MOL0     H56609   2.146   2.418   5.598  1.9759  0.2610 -0.8028
  429MOL0     H56610   3.143   2.497   5.102 -2.1012  2.4904  1.4757
  429MOL0     H56611   3.363   2.569   5.002 -0.3777 -1.5914 -0.5982
  429MOL0     H56612   3.760   2.703   5.000  1.5063  1.7636 -0.1822
  429MOL0     H56613   3.981   2.732   4.898 -0.6360 -0.0704  0.6720
  429MOL0     H56614   6.123   2.512   4.742  0.6682  0.3133 -1.1905
  429MOL0     H56615   6.353   2.612   4.688 -0.8947 -0.5398 -0.1910
  429MOL0     H56616   6.503   2.971   4.311  2.3611  1.1106 -2.1127
  429MOL0     H56617   6.727   3.055   4.241  4.6930 -2.8886 -0.2966
  429MOL0     H56618   6.956   3.041   4.209 -0.5941 -0.9639  1.5297
  429MOL0     H56619   7.089   3.141   4.262  0.0782 -0.5670 -1.9190
  429MOL0     H56620   6.982   3.269   4.122  3.1603  0.0011  1.7534
  429MOL0     H56621   6.817   3.246   4.208 -0.6402  1.4530 -2.0299
  429MOL0     H56622   7.072   3.380   4.326 -0.4459  3.3333  2.9409
  429MOL0     H56623   6.908   3.380   4.393  0.3747  2.3805  0.8371
  429MOL0     H56624   7.037   3.565   4.218  0.6415 -0.7071 -0.1244
  429MOL0     H56625   6.888   3.501   4.132 -1.4330  0.0442  1.4261
  429MOL0     H56626   6.685   3.727   4.388 -1.0041  0.6016 -1.2325
  429MOL0     H56627   6.869   3.011   4.645 -0.3578 -1.9177 -0.1306
  429MOL0     H56628   6.662   2.924   4.715  1.5534 -1.3178 -0.1519
  430MOL0     O56629   2.968   1.529   6.606 -0.4890 -0.5934  0.5250
  430MOL0     C56630   3.045   1.626   6.613  1.1612  0.1112  0.3789
  430MOL0     O56631   3.005   1.750   6.636 -0.8412 -0.6800  0.1683
  430MOL0     C56632   2.887   1.781   6.687  1.1389  0.2593 -0.0679
  430MOL0     C56633   2.808   1.701   6.768  0.2140  0.0599  1.3231
  430MOL0     C56634   2.685   1.737   6.819 -0.6897  0.8624  0.0929
  430MOL0     C56635   2.628   1.861   6.782  0.0084  0.5963 -0.4325
  430MOL0     O56636   2.503   1.887   6.838 -0.0229 -0.1188 -0.0302
  430MOL0     C56637   2.434   2.008   6.800 -0.3116 -0.1290 -0.0140
  430MOL0     C56638   2.495   2.129   6.885  0.5129 -0.0464  0.1017
  430MOL0     C56639   2.377   2.223   6.918  0.1413 -0.0754 -0.5530
  430MOL0     C56640   2.432   2.351   6.980  0.3283 -0.3310 -0.0964
  430MOL0     C56641   2.325   2.458   7.023 -0.6603 -0.5114  0.2415
  430MOL0     C56642   2.215   2.472   6.908 -0.1855  0.1507 -0.5468
  430MOL0     C56643   2.282   2.539   6.786  1.0028 -0.7601 -0.8193
  430MOL0     C56644   2.199   2.525   6.661 -0.3721  0.7331 -0.0113
  430MOL0     N56645   2.086   2.624   6.642  0.0974 -0.3221  0.0511
  430MOL0     C56646   2.086   2.758   6.676 -1.0175  0.4735  0.1330
  430MOL0     C56647   1.958   2.798   6.667 -0.3388 -0.5425  0.0199
  430MOL0     C56648   1.914   2.931   6.708  0.2450 -0.3226 -0.4569
  430MOL0     C56649   1.769   2.946   6.758 -0.3543 -0.4556  0.5499
  430MOL0     C56650   1.667   2.926   6.644  0.5821 -0.1626  0.1594
  430MOL0     C56651   1.524   2.896   6.693  0.5197  0.9833 -0.4942
  430MOL0     O56652   1.470   3.009   6.759  0.4598  0.0463  0.1845
  430MOL0     C56653   1.338   3.012   6.783 -0.8855  0.7507  0.0739
  430MOL0     C56654   1.278   3.135   6.822  0.4860  0.3295 -0.3810
  430MOL0     C56655   1.139   3.147   6.870 -0.3065 -0.0992 -0.4127
  430MOL0     C56656   1.050   3.036   6.859 -0.5005  0.5573  0.0214
  430MOL0     C56657   0.908   3.041   6.902  0.7658 -0.7953 -0.6431
  430MOL0     O56658   0.843   2.925   6.919  0.1040  0.9120 -0.4248
  430MOL0     C56659   0.726   2.933   6.990 -0.0446  0.2315  0.3408
  430MOL0     C56660   0.723   2.950   7.136  0.5306 -0.1174 -0.3351
  430MOL0     C56661   0.601   2.959   7.202  0.2140  0.0963 -0.8010
  430MOL0     C56662   0.482   2.951   7.134 -0.4146  0.2170  0.0813
  430MOL0     O56663   0.360   2.944   7.192 -0.0325 -0.1643  0.0120
  430MOL0     C56664   0.337   2.950   7.336 -0.3229  0.4779  0.6083
  430MOL0     C56665   0.204   2.892   7.350 -0.2422 -0.2512 -0.0602
  430MOL0     C56666   0.185   2.751   7.298  0.3600  0.2705  0.4780
  430MOL0     C56667   0.160   2.731   7.146  0.6695 -0.3408  0.5742
  430MOL0     C56668   0.063   2.615   7.119  0.4148  0.4857  0.5690
  430MOL0     C56669  -0.086   2.638   7.156 -0.7963  0.2830  0.2867
  430MOL0     C56670  -0.171   2.550   7.064 -0.4969 -0.3624 -1.6217
  430MOL0     C56671  -0.316   2.566   7.098 -0.0170 -0.4717  0.5097
  430MOL0    Cl56672  -0.370   2.744   7.129  0.2279 -0.1503  0.4728
  430MOL0     C56673   0.490   2.936   6.998 -0.4221  0.5581  0.9882
  430MOL0     C56674   0.603   2.919   6.927 -0.5023 -0.1729  0.8059
  430MOL0     O56675   0.860   3.149   6.925  0.6036  0.1906 -0.0745
  430MOL0     C56676   1.106   2.918   6.804 -0.5301  0.2872  0.1979
  430MOL0     C56677   1.248   2.904   6.772  0.4483  0.3728 -0.3189
  430MOL0     N56678   1.884   2.690   6.620  0.7050  0.0646  0.2078
  430MOL0     N56679   1.964   2.587   6.607  0.4109  0.0778 -0.1906
  430MOL0     C56680   2.708   1.943   6.707  0.3709  0.2801 -0.2684
  430MOL0     C56681   2.835   1.903   6.654  0.8551 -0.1754 -0.3840
  430MOL0     C56682   3.189   1.612   6.617  0.7759 -0.3512  0.4972
  430MOL0     C56683   3.243   1.481   6.593  0.8688  0.1455  0.0968
  430MOL0     C56684   3.382   1.451   6.618  0.4237 -0.2432  0.5653
  430MOL0     C56685   3.464   1.563   6.652  0.5099 -0.6726  0.0287
  430MOL0     O56686   3.597   1.534   6.673 -0.3940  0.4651  0.1425
  430MOL0     C56687   3.698   1.639   6.653 -0.2601 -0.9947  0.2769
  430MOL0     C56688   3.823   1.579   6.599 -0.1848  0.9287  0.3978
  430MOL0     C56689   3.907   1.516   6.712 -0.3124  0.1746 -0.7445
  430MOL0     C56690   3.957   1.594   6.837 -0.6785  0.0442 -0.4825
  430MOL0     C56691   4.060   1.694   6.796  0.3937 -0.2088 -0.4716
  430MOL0     C56692   4.126   1.784   6.760  0.6423 -0.5431  0.4753
  430MOL0     C56693   3.411   1.691   6.672  0.9721  0.6865  0.3186
  430MOL0     C56694   3.274   1.718   6.657  0.6870  1.2734  0.0129
  430MOL0     H56695   2.843   1.600   6.787  1.2475 -1.2709 -5.0690
  430MOL0     H56696   2.617   1.664   6.862 -2.3012  0.9059 -2.1901
  430MOL0     H56697   2.327   1.992   6.811 -0.6475 -0.5689 -3.0601
  430MOL0     H56698   2.443   2.017   6.691 -1.7144 -0.5227 -0.1833
  430MOL0     H56699   2.569   2.183   6.825  1.8137 -1.6768  0.1604
  430MOL0     H56700   2.545   2.091   6.975 -0.7582 -0.6439  0.5700
  430MOL0     H56701   2.301   2.185   6.988 -0.7614  1.9904 -0.3438
  430MOL0     H56702   2.321   2.242   6.826 -1.0649  0.8513  0.3420
  430MOL0     H56703   2.475   2.320   7.076 -2.1414  4.2970  2.9021
  430MOL0     H56704   2.503   2.395   6.910  1.8043  0.3628  1.7446
  430MOL0     H56705   2.366   2.556   7.048  1.3385 -0.9227 -1.2016
  430MOL0     H56706   2.275   2.414   7.111 -2.0855 -2.6714 -1.5396
  430MOL0     H56707   2.137   2.539   6.946  1.0628  1.0203  0.5297
  430MOL0     H56708   2.161   2.378   6.889 -0.5754  0.5171 -1.3379
  430MOL0     H56709   2.296   2.645   6.809  2.1519 -0.9860 -0.3847
  430MOL0     H56710   2.377   2.489   6.767  0.9096 -1.1739 -0.2060
  430MOL0     H56711   2.148   2.429   6.661  1.4689 -0.2946 -0.3000
  430MOL0     H56712   2.268   2.526   6.576  0.5139 -0.3458  0.6554
  430MOL0     H56713   2.167   2.813   6.725 -1.6766 -1.7182  4.1343
  430MOL0     H56714   1.927   3.006   6.630  0.8081  1.5794  1.3503
  430MOL0     H56715   1.983   2.967   6.785  1.2779 -1.4056 -0.8309
  430MOL0     H56716   1.761   3.047   6.799  0.7390 -0.4145  0.6903
  430MOL0     H56717   1.743   2.879   6.840  0.6193 -1.6392 -0.0888
  430MOL0     H56718   1.655   3.007   6.571 -1.2353  0.7864  1.4706
  430MOL0     H56719   1.696   2.843   6.579 -0.3292  0.1957 -0.7235
  430MOL0     H56720   1.510   2.811   6.761 -0.4460  1.4487 -0.0841
  430MOL0     H56721   1.459   2.878   6.606  0.2506  0.0227 -0.1133
  430MOL0     H56722   1.351   3.212   6.842  0.7890 -0.5288  2.2468
  430MOL0     H56723   1.108   3.240   6.915 -0.8125  0.2238 -1.4054
  430MOL0     H56724   0.816   2.939   7.191  1.0902  1.9876 -0.7790
  430MOL0     H56725   0.591   2.964   7.310 -3.7394 -0.7310 -0.9732
  430MOL0     H56726   0.335   3.055   7.369 -2.0899  0.8732 -0.5757
  430MOL0     H56727   0.408   2.887   7.390 -3.1355 -1.2920  2.5009
  430MOL0     H56728   0.128   2.950   7.297 -1.8873 -3.5614 -1.6075
  430MOL0     H56729   0.177   2.889   7.456  0.2083  1.6896  0.1389
  430MOL0     H56730   0.086   2.719   7.333  0.5376 -0.0798  0.6626
  430MOL0     H56731   0.269   2.692   7.336 -0.7440 -0.5174  1.7899
  430MOL0     H56732   0.121   2.828   7.113  2.7845  1.3246  2.5953
  430MOL0     H56733   0.253   2.715   7.091 -0.3386  0.7344 -1.5863
  430MOL0     H56734   0.100   2.523   7.165 -2.9611 -1.1369  0.3117
  430MOL0     H56735   0.062   2.595   7.012 -1.8503  1.1000  0.4340
  430MOL0     H56736  -0.097   2.745   7.139  2.5857  0.9251  1.4539
  430MOL0     H56737  -0.104   2.612   7.261  1.3642 -0.3874  0.5378
  430MOL0     H56738  -0.151   2.566   6.957  1.2993  0.7989 -1.1525
  430MOL0     H56739  -0.145   2.446   7.086 -0.2902  0.3646  2.1770
  430MOL0     H56740  -0.351   2.501   7.178 -0.5518 -1.4168 -0.4539
  430MOL0     H56741  -0.364   2.524   7.009  3.4789 -0.9056 -1.3650
  430MOL0     H56742   0.400   2.915   6.941  1.8577 -1.7046 -2.0753
  430MOL0     H56743   0.614   2.903   6.820  1.7313  3.0850  0.4059
  430MOL0     H56744   1.045   2.828   6.795 -0.3860  0.1356  0.6798
  430MOL0     H56745   1.275   2.809   6.726 -2.3887 -1.7642  2.0588
  430MOL0     H56746   2.675   2.043   6.683  2.3343  1.2576  0.8509
  430MOL0     H56747   2.892   1.977   6.599  0.5192  1.0163  0.8147
  430MOL0     H56748   3.180   1.397   6.565 -0.9096  2.6113 -4.3519
  430MOL0     H56749   3.409   1.346   6.610 -3.0145 -1.1729 -0.6716
  430MOL0     H56750   3.723   1.689   6.747 -1.4093  2.9083 -1.2926
  430MOL0     H56751   3.660   1.721   6.591  2.9507  1.2950  1.0315
  430MOL0     H56752   3.807   1.504   6.521  2.3845 -0.7721  1.3925
  430MOL0     H56753   3.887   1.662   6.565  1.9107  0.4613  2.8867
  430MOL0     H56754   3.992   1.464   6.667 -0.9346 -0.0333 -1.7216
  430MOL0     H56755   3.847   1.434   6.755  0.7148 -0.6625 -0.8781
  430MOL0     H56756   3.875   1.646   6.890  1.9558  3.3400  0.7432
  430MOL0     H56757   3.998   1.514   6.898  0.0969 -0.0906 -1.1757
  430MOL0     H56758   4.190   1.864   6.727 -0.6290 -0.4675 -2.1347
  430MOL0     H56759   3.481   1.766   6.708  2.2078  0.8485 -2.2523
  430MOL0     H56760   3.228   1.813   6.681  0.3128  1.0642  0.1268
  431MOL0     O56761   6.685   7.349   5.791  0.1111  0.0137  0.3309
  431MOL0     C56762   6.805   7.323   5.795  0.2034 -0.1160 -0.4032
  431MOL0     O56763   6.876   7.291   5.914  0.3683 -0.4070  0.7815
  431MOL0     C56764   6.803   7.235   6.018 -0.0855  0.5649 -0.1988
  431MOL0     C56765   6.677   7.275   6.064  0.3977 -0.6335 -0.1908
  431MOL0     C56766   6.602   7.209   6.170  0.0819  0.0129  0.6751
  431MOL0     C56767   6.664   7.102   6.229  0.6706  0.7225  0.8517
  431MOL0     O56768   6.606   7.047   6.337 -0.1391 -0.5701  0.1223
  431MOL0     C56769   6.693   7.000   6.438  0.3109 -0.6569  0.0718
  431MOL0     C56770   6.598   6.953   6.557 -0.4083  0.1685  0.6791
  431MOL0     C56771   6.665   6.959   6.690  0.1538  0.8149 -0.4137
  431MOL0     C56772   6.786   6.864   6.700 -1.1943  0.4703  0.5603
  431MOL0     C56773   6.805   6.811   6.843  0.7615  0.1421  0.5248
  431MOL0     C56774   6.818   6.920   6.955  0.4600 -0.1244  0.0099
  431MOL0     C56775   6.926   7.016   6.917 -0.0021 -0.1495 -0.1531
  431MOL0     C56776   6.992   7.091   7.038  0.0938 -0.5715  0.8914
  431MOL0     N56777   7.057   6.991   7.129 -0.3833  0.1681  0.5209
  431MOL0     C56778   7.118   6.876   7.080 -0.6416  0.5765 -0.6777
  431MOL0     C56779   7.131   6.802   7.191  0.0677 -0.0454  0.0023
  431MOL0     C56780   7.189   6.664   7.210 -0.5871 -0.1662  0.6267
  431MOL0     C56781   7.092   6.575   7.288 -0.1159  1.0705 -0.0428
  431MOL0     C56782   6.947   6.577   7.238  0.3557 -0.4358  0.4396
  431MOL0     C56783   6.858   6.477   7.315  0.0700 -0.3275  1.6212
  431MOL0     O56784   6.913   6.345   7.296 -0.4907  0.0233  0.8253
  431MOL0     C56785   6.838   6.234   7.320  0.0702  0.7189 -0.9213
  431MOL0     C56786   6.732   6.235   7.416 -0.8439 -0.5342  0.6252
  431MOL0     C56787   6.662   6.124   7.464  0.4232 -0.0294 -0.8448
  431MOL0     C56788   6.706   5.999   7.419 -0.4500  0.4935  0.6990
  431MOL0     C56789   6.630   5.870   7.451  0.2917  0.3850  0.1073
  431MOL0     O56790   6.564   5.862   7.578 -0.1646 -0.3084  0.3550
  431MOL0     C56791   6.480   5.764   7.623 -0.3526 -0.4126 -0.7788
  431MOL0     C56792   6.382   5.705   7.548  0.2608 -0.1667 -0.4667
  431MOL0     C56793   6.305   5.597   7.601  0.9137  0.9705 -0.3082
  431MOL0     C56794   6.347   5.538   7.728  0.6215  0.2073  0.3875
  431MOL0     O56795   6.284   5.435   7.792  0.7308  0.2440  0.1823
  431MOL0     C56796   6.145   5.424   7.767  0.1537  0.0687  0.3988
  431MOL0     C56797   6.093   5.319   7.862 -0.2006  0.0025  0.4737
  431MOL0     C56798   5.956   5.257   7.823 -0.5016 -0.1490  0.1663
  431MOL0     C56799   5.940   5.132   7.907  0.0183  0.3675 -0.7352
  431MOL0     C56800   5.792   5.106   7.905  0.3277  0.7813 -1.0347
  431MOL0     C56801   5.747   5.009   8.017 -0.2166  1.3264 -0.6096
  431MOL0     C56802   5.602   4.949   8.012  0.9668  0.7084 -0.6148
  431MOL0     C56803   5.538   4.895   8.141  0.0020 -0.0305 -0.4501
  431MOL0    Cl56804   5.628   4.754   8.203 -0.2967  0.0906 -0.2722
  431MOL0     C56805   6.441   5.595   7.804 -0.3366 -0.3418  0.0809
  431MOL0     C56806   6.505   5.705   7.746  0.2347  0.5766  0.0235
  431MOL0     O56807   6.619   5.782   7.366  0.1702 -0.1675 -0.4416
  431MOL0     C56808   6.817   5.991   7.331 -0.3578  0.0534  0.4739
  431MOL0     C56809   6.886   6.106   7.285 -0.3841  0.5544  0.1451
  431MOL0     N56810   7.098   6.869   7.310  0.3261 -0.1136  0.4288
  431MOL0     N56811   7.060   6.989   7.263  0.6006  0.6541  0.0328
  431MOL0     C56812   6.797   7.067   6.189  0.1735 -0.7489 -0.2388
  431MOL0     C56813   6.866   7.129   6.084  0.2483  0.5517 -0.5438
  431MOL0     C56814   6.872   7.317   5.666 -0.1928  0.6497 -0.2136
  431MOL0     C56815   6.990   7.239   5.649  0.7381 -0.3269  0.1190
  431MOL0     C56816   7.044   7.224   5.526 -0.5990 -0.5303 -0.2707
  431MOL0     C56817   6.998   7.294   5.411  0.1803 -0.4593  0.5406
  431MOL0     O56818   7.041   7.289   5.281 -0.5080  0.3040 -0.6730
  431MOL0     C56819   7.179   7.246   5.269 -0.0008 -0.0238 -0.7502
  431MOL0     C56820   7.227   7.284   5.132  0.3643  0.3092  0.3648
  431MOL0     C56821   7.372   7.242   5.113 -0.5500  0.6469  0.0672
  431MOL0     C56822   7.472   7.316   5.203  0.1780 -0.3873 -0.1867
  431MOL0     C56823   7.609   7.306   5.149  0.2996 -0.6566 -0.3474
  431MOL0     C56824   7.720   7.304   5.100  0.2955  0.7687 -0.4263
  431MOL0     C56825   6.882   7.368   5.426 -0.4825 -0.0469 -0.0908
  431MOL0     C56826   6.820   7.379   5.547 -0.4539 -0.1339 -0.2555
  431MOL0     H56827   6.630   7.361   6.018 -1.2243 -2.4580 -2.1078
  431MOL0     H56828   6.500   7.237   6.196 -0.2685 -1.3834  0.9049
  431MOL0     H56829   6.774   7.069   6.462 -0.5044  0.1901  0.4668
  431MOL0     H56830   6.746   6.910   6.405  0.3959 -0.3704 -0.6031
  431MOL0     H56831   6.577   6.848   6.534  1.1027  0.1115 -0.6677
  431MOL0     H56832   6.504   7.009   6.557 -2.2183 -2.6484 -0.4599
  431MOL0     H56833   6.589   6.931   6.763  1.8789 -1.1199  0.7445
  431MOL0     H56834   6.685   7.059   6.730 -0.1881  0.0591  1.8161
  431MOL0     H56835   6.782   6.781   6.629 -0.4656  0.0840  0.9516
  431MOL0     H56836   6.879   6.914   6.672 -1.3303 -0.0151 -0.8206
  431MOL0     H56837   6.888   6.739   6.845  2.2517  1.6210 -1.9494
  431MOL0     H56838   6.716   6.754   6.869  0.4408  0.0741 -0.6645
  431MOL0     H56839   6.847   6.870   7.048 -1.8896  1.4402  1.7072
  431MOL0     H56840   6.725   6.976   6.972  0.0773  0.0865 -2.4841
  431MOL0     H56841   6.994   6.964   6.850  0.9589 -0.9319  1.3679
  431MOL0     H56842   6.884   7.093   6.852  1.1745  1.0605  0.4665
  431MOL0     H56843   6.920   7.154   7.092  1.1832  1.0100  0.5653
  431MOL0     H56844   7.061   7.174   7.018 -2.6437  1.7224  0.2527
  431MOL0     H56845   7.130   6.836   6.980 -2.1897 -3.0257  0.4325
  431MOL0     H56846   7.289   6.674   7.254  1.0460  1.1059 -2.9199
  431MOL0     H56847   7.207   6.630   7.107 -0.8289  3.1758 -0.6773
  431MOL0     H56848   7.082   6.607   7.392 -1.7682  0.9665 -0.1520
  431MOL0     H56849   7.132   6.474   7.290 -0.5616  0.8745 -0.8589
  431MOL0     H56850   6.907   6.677   7.258 -1.2320 -1.3089  2.0014
  431MOL0     H56851   6.952   6.545   7.134 -0.8023 -0.2820  0.3167
  431MOL0     H56852   6.755   6.485   7.279 -0.1755  0.6671  2.5236
  431MOL0     H56853   6.859   6.505   7.420 -0.0546 -0.1797  1.5823
  431MOL0     H56854   6.695   6.325   7.464 -1.9559 -1.3393  1.3138
  431MOL0     H56855   6.570   6.137   7.519  1.5147  2.6682  0.5559
  431MOL0     H56856   6.353   5.744   7.451 -0.2140  0.8468  0.0729
  431MOL0     H56857   6.236   5.544   7.537  3.6192 -0.8632 -1.9061
  431MOL0     H56858   6.132   5.389   7.664 -0.2132 -0.7659  0.7163
  431MOL0     H56859   6.091   5.518   7.777  0.5032  0.4102 -0.7419
  431MOL0     H56860   6.076   5.364   7.961  0.3317  0.6052  0.2991
  431MOL0     H56861   6.173   5.246   7.875 -0.1707  0.3385  2.6548
  431MOL0     H56862   5.949   5.232   7.717  4.3328  0.6586 -0.5735
  431MOL0     H56863   5.880   5.333   7.842 -0.4120  0.5671 -2.0950
  431MOL0     H56864   6.004   5.047   7.881  0.2914  0.8075 -1.5219
  431MOL0     H56865   5.956   5.154   8.013  1.2148 -0.8678 -0.6362
  431MOL0     H56866   5.760   5.057   7.813 -0.9537  3.1193 -1.9255
  431MOL0     H56867   5.730   5.195   7.913 -2.4894 -0.8505 -3.1802
  431MOL0     H56868   5.772   5.046   8.118 -1.2904 -0.1783  0.2461
  431MOL0     H56869   5.805   4.917   8.007 -1.4495  0.8098 -4.1017
  431MOL0     H56870   5.531   5.022   7.971 -0.6174  0.3961  1.4205
  431MOL0     H56871   5.600   4.861   7.947  0.6301  0.5414 -0.3808
  431MOL0     H56872   5.434   4.866   8.128  0.2863 -0.7005 -1.3353
  431MOL0     H56873   5.548   4.967   8.223  0.9950 -1.6169  0.8829
  431MOL0     H56874   6.470   5.556   7.901  2.5319  0.1580 -0.4936
  431MOL0     H56875   6.596   5.741   7.793 -0.7769 -1.3137  3.8162
  431MOL0     H56876   6.855   5.894   7.302  1.4983  0.6684  0.7545
  431MOL0     H56877   6.975   6.096   7.224 -0.8121 -0.6621 -0.3228
  431MOL0     H56878   6.855   6.985   6.231  1.1242  0.2118  0.3785
  431MOL0     H56879   6.958   7.080   6.052  4.0380  4.7480  2.6178
  431MOL0     H56880   7.039   7.198   5.736 -0.6592  1.3145  1.7592
  431MOL0     H56881   7.133   7.162   5.516 -0.8748 -1.1500  0.9703
  431MOL0     H56882   7.203   7.141   5.289 -3.5957 -1.0515 -1.0259
  431MOL0     H56883   7.237   7.295   5.347 -1.7175  1.4366 -0.3198
  431MOL0     H56884   7.162   7.232   5.061  1.2921 -1.8101  0.9760
  431MOL0     H56885   7.214   7.391   5.118  1.1166  0.2819 -0.6049
  431MOL0     H56886   7.404   7.257   5.009  1.6892  0.8423  0.7255
  431MOL0     H56887   7.384   7.133   5.124  1.7933  0.9639  1.2762
  431MOL0     H56888   7.450   7.422   5.224 -0.2562 -0.2147 -1.4297
  431MOL0     H56889   7.472   7.264   5.299  0.1481 -1.9126 -0.9816
  431MOL0     H56890   7.809   7.300   5.042  0.6666  0.3642  0.1515
  431MOL0     H56891   6.833   7.417   5.342 -1.5292 -2.1200 -0.7347
  431MOL0     H56892   6.734   7.446   5.545 -1.6935 -1.6420  0.6792
  432MOL0     O56893   2.124   8.532   9.268 -0.4181 -0.1328 -0.6158
  432MOL0     C56894   2.236   8.554   9.308 -0.3171 -0.1681  0.1469
  432MOL0     O56895   2.283   8.524   9.431  0.4915 -0.4930  0.1398
  432MOL0     C56896   2.197   8.482   9.533 -0.9311  0.0809 -0.0651
  432MOL0     C56897   2.144   8.357   9.537  0.4805 -0.0445  0.6607
  432MOL0     C56898   2.070   8.299   9.647 -0.1827 -0.2526  0.1642
  432MOL0     C56899   2.041   8.380   9.754 -0.4907  0.5873  0.1544
  432MOL0     O56900   1.981   8.341   9.873  0.5606 -0.0647  0.0718
  432MOL0     C56901   1.945   8.202   9.890  0.2278  0.1305 -0.0051
  432MOL0     C56902   2.051   8.115   9.955  0.1869 -0.1614  0.0299
  432MOL0     C56903   2.078   8.148  10.101  0.1303 -0.1197  0.4009
  432MOL0     C56904   2.172   8.049  10.162 -0.2264  0.3135 -0.0879
  432MOL0     C56905   2.102   7.917  10.192 -0.5421 -1.0818 -0.1847
  432MOL0     C56906   2.200   7.821  10.265 -0.3218 -0.7991 -0.3952
  432MOL0     C56907   2.130   7.695  10.303 -0.2777  0.5533 -0.0378
  432MOL0     C56908   2.077   7.604  10.187  0.1236 -0.8188  0.2035
  432MOL0     N56909   2.045   7.462  10.227  0.2093  0.0965  0.7125
  432MOL0     C56910   1.956   7.414  10.324  0.4692 -0.3949  1.1100
  432MOL0     C56911   1.948   7.281  10.311 -0.2803 -0.5899  0.0791
  432MOL0     C56912   1.877   7.171  10.390 -0.0936 -0.0680  0.4916
  432MOL0     C56913   1.963   7.077  10.474  0.1434 -0.1113  0.3655
  432MOL0     C56914   2.079   7.000  10.397  0.2050  0.3493  0.1933
  432MOL0     C56915   2.016   6.906  10.291  1.0185 -0.0032  0.9458
  432MOL0     O56916   1.952   6.789  10.350  0.4270 -0.2834 -0.0160
  432MOL0     C56917   1.907   6.685  10.280 -0.4485  0.2961  0.1234
  432MOL0     C56918   1.914   6.669  10.144  0.6702 -0.1909 -0.0011
  432MOL0     C56919   1.888   6.544  10.088  0.0927  0.9386  0.5501
  432MOL0     C56920   1.847   6.435  10.164  0.4970  0.5955 -0.0210
  432MOL0     C56921   1.826   6.300  10.101 -0.5775 -0.9823  0.0840
  432MOL0     O56922   1.770   6.293   9.980  0.1171  0.8838  0.3470
  432MOL0     C56923   1.762   6.172   9.921  0.3409  1.1603 -1.4320
  432MOL0     C56924   1.844   6.138   9.816 -0.6193 -0.7237 -0.2202
  432MOL0     C56925   1.829   6.019   9.756 -0.7732  0.4323 -0.1323
  432MOL0     C56926   1.739   5.921   9.812 -0.3102  1.6699 -0.7282
  432MOL0     O56927   1.728   5.792   9.771 -0.5537 -0.1427 -0.6422
  432MOL0     C56928   1.826   5.743   9.678  0.5328 -0.5081  0.6354
  432MOL0     C56929   1.763   5.599   9.627 -0.2926 -0.6013 -0.2423
  432MOL0     C56930   1.674   5.638   9.510 -0.3009  0.6292 -0.7687
  432MOL0     C56931   1.619   5.515   9.448  0.8612  0.8417  0.8523
  432MOL0     C56932   1.722   5.452   9.351 -0.2534 -0.4412  0.5641
  432MOL0     C56933   1.679   5.328   9.260  1.0493 -0.9242  0.4775
  432MOL0     C56934   1.605   5.382   9.138 -0.4570  0.6267  0.3603
  432MOL0     C56935   1.575   5.276   9.036 -0.0087 -0.3891 -0.4563
  432MOL0    Cl56936   1.477   5.336   8.907 -0.2943 -0.1420 -0.1201
  432MOL0     C56937   1.656   5.951   9.921 -0.5944 -0.3468 -0.7922
  432MOL0     C56938   1.667   6.079   9.969  0.3243 -0.1096 -0.9317
  432MOL0     O56939   1.868   6.206  10.164  0.0219  0.2719 -0.0267
  432MOL0     C56940   1.835   6.457  10.300  0.5398 -0.4344 -0.0694
  432MOL0     C56941   1.858   6.581  10.359 -0.2182 -0.3122  0.3242
  432MOL0     N56942   2.030   7.250  10.212 -0.7414 -0.3853  0.1333
  432MOL0     N56943   2.080   7.352  10.155  0.1205 -0.0294  0.4952
  432MOL0     C56944   2.087   8.511   9.749 -0.2469 -0.3944  0.0786
  432MOL0     C56945   2.158   8.560   9.640  0.5593 -0.3563  0.2147
  432MOL0     C56946   2.337   8.610   9.210  0.1050  0.0994 -0.3596
  432MOL0     C56947   2.300   8.626   9.077 -0.0311  0.1766 -0.1754
  432MOL0     C56948   2.389   8.687   8.995  0.0702 -0.4914  0.7605
  432MOL0     C56949   2.519   8.730   9.032  0.4226  0.0342  0.4243
  432MOL0     O56950   2.616   8.757   8.938  0.1705  0.1366  0.2594
  432MOL0     C56951   2.703   8.647   8.891 -0.6773  0.9248 -0.4554
  432MOL0     C56952   2.627   8.523   8.854 -0.1476  0.2887 -0.0960
  432MOL0     C56953   2.724   8.396   8.849  0.0832 -0.0481 -0.1898
  432MOL0     C56954   2.654   8.295   8.763 -0.9880 -0.3259 -0.3275
  432MOL0     C56955   2.745   8.177   8.752  0.8797 -0.1696 -0.3717
  432MOL0     C56956   2.808   8.075   8.739 -0.8388  1.0397  0.6899
  432MOL0     C56957   2.558   8.706   9.167  0.1574  0.1664 -0.4395
  432MOL0     C56958   2.472   8.634   9.253  0.7539 -0.0574 -0.1797
  432MOL0     H56959   2.168   8.278   9.466 -2.2050 -1.5533  1.2619
  432MOL0     H56960   2.032   8.198   9.639 -3.2295  0.7651  0.4962
  432MOL0     H56961   1.920   8.160   9.792 -2.1833  1.0016  0.1577
  432MOL0     H56962   1.854   8.195   9.951  0.6481 -1.8336  0.4669
  432MOL0     H56963   2.141   8.119   9.894  1.3628  1.7537  1.7634
  432MOL0     H56964   2.007   8.015   9.960 -1.9789  0.6695 -1.1602
  432MOL0     H56965   1.995   8.162  10.170  1.2450 -1.4969  2.1145
  432MOL0     H56966   2.135   8.241  10.093  3.8964 -2.0011  2.3713
  432MOL0     H56967   2.261   8.033  10.100 -1.8718 -0.7148 -2.3361
  432MOL0     H56968   2.201   8.081  10.262  0.4700 -3.6641  1.1502
  432MOL0     H56969   2.076   7.862  10.101  0.3568  1.5480 -2.1466
  432MOL0     H56970   2.008   7.937  10.244  0.8693  0.1259  2.0268
  432MOL0     H56971   2.241   7.867  10.355 -0.9498 -3.8404  1.5976
  432MOL0     H56972   2.284   7.804  10.198 -0.4455  1.0581 -1.0937
  432MOL0     H56973   2.197   7.640  10.370 -1.4703  0.4760  1.1605
  432MOL0     H56974   2.049   7.732  10.368  1.1510  1.5979  1.2115
  432MOL0     H56975   2.140   7.618  10.099  0.2575  2.8020  0.7312
  432MOL0     H56976   1.981   7.644  10.155  0.2375 -0.1013  0.7322
  432MOL0     H56977   1.902   7.483  10.388 -0.6876  0.0021 -0.2416
  432MOL0     H56978   1.830   7.117  10.307  0.5604  1.4207 -0.8918
  432MOL0     H56979   1.795   7.215  10.446  0.7124  4.5489 -1.4915
  432MOL0     H56980   1.906   6.998  10.525  1.1332  0.8526  3.1172
  432MOL0     H56981   2.000   7.140  10.555  0.8831 -0.8500  0.6244
  432MOL0     H56982   2.151   7.071  10.357  1.9323 -1.0146  0.7279
  432MOL0     H56983   2.134   6.945  10.474  1.0973 -1.9543 -1.9459
  432MOL0     H56984   2.092   6.871  10.220  0.5363  1.1974 -0.2124
  432MOL0     H56985   1.950   6.970  10.230  1.7390 -1.0452 -1.0241
  432MOL0     H56986   1.948   6.750  10.081  0.9805  0.3955  0.9107
  432MOL0     H56987   1.897   6.528   9.981  0.3156 -1.3294  0.8703
  432MOL0     H56988   1.927   6.199   9.783  0.5988 -1.9671  0.4653
  432MOL0     H56989   1.899   5.990   9.678 -1.4811 -2.6124  0.2336
  432MOL0     H56990   1.920   5.729   9.733  2.0726  0.2361 -1.6839
  432MOL0     H56991   1.851   5.803   9.591  0.4913  0.6743  1.4194
  432MOL0     H56992   1.719   5.533   9.702  1.6733  0.5309  2.0211
  432MOL0     H56993   1.850   5.544   9.591  1.2769  1.7016 -0.1648
  432MOL0     H56994   1.743   5.692   9.445  3.7697 -0.3619  2.3103
  432MOL0     H56995   1.588   5.695   9.548  0.9573  0.4921  2.6699
  432MOL0     H56996   1.575   5.444   9.519  1.7585 -0.8350 -0.2089
  432MOL0     H56997   1.536   5.548   9.385 -0.2364 -0.3754  1.5920
  432MOL0     H56998   1.817   5.422   9.396 -0.1408 -1.1253 -0.1139
  432MOL0     H56999   1.750   5.540   9.291 -0.0843  0.8436  2.4330
  432MOL0     H57000   1.611   5.259   9.311 -2.8823  0.8256 -1.8504
  432MOL0     H57001   1.770   5.275   9.232  1.7800  0.4748  0.0964
  432MOL0     H57002   1.507   5.423   9.165 -1.0210 -1.1242  1.0590
  432MOL0     H57003   1.669   5.454   9.085  0.1682 -1.2167 -1.5190
  432MOL0     H57004   1.524   5.195   9.087 -0.3406  2.5460  4.4539
  432MOL0     H57005   1.668   5.241   8.990 -0.4518 -0.8079 -1.0492
  432MOL0     H57006   1.579   5.886   9.961  0.6309 -0.6809  1.1359
  432MOL0     H57007   1.600   6.114  10.047 -0.1723 -1.7755 -0.5697
  432MOL0     H57008   1.801   6.375  10.362  1.1303 -0.0935  0.7210
  432MOL0     H57009   1.844   6.584  10.467  0.9823 -0.5237  0.5011
  432MOL0     H57010   2.061   8.580   9.829  0.6696 -0.4629  0.4386
  432MOL0     H57011   2.193   8.663   9.652 -1.4823  0.1361  2.6317
  432MOL0     H57012   2.200   8.593   9.052 -1.0040  1.9550  1.0829
  432MOL0     H57013   2.359   8.698   8.891 -0.5707 -0.3889  0.9478
  432MOL0     H57014   2.781   8.622   8.964 -0.3863  0.7566 -0.8188
  432MOL0     H57015   2.756   8.685   8.803 -0.4530  0.5263 -0.4984
  432MOL0     H57016   2.548   8.509   8.928 -1.2632 -1.8726 -1.5703
  432MOL0     H57017   2.583   8.548   8.757 -0.2367 -0.1349 -0.1669
  432MOL0     H57018   2.746   8.365   8.951  1.8153  3.7620  0.7868
  432MOL0     H57019   2.823   8.418   8.808  0.9097  0.7682  2.0926
  432MOL0     H57020   2.554   8.276   8.804 -0.5406  0.7829  1.3746
  432MOL0     H57021   2.632   8.332   8.663  0.6134  1.4950 -0.0620
  432MOL0     H57022   2.857   7.981   8.723 -2.7328  0.0007  0.6863
  432MOL0     H57023   2.658   8.728   9.204  0.1029 -0.4828  0.1192
  432MOL0     H57024   2.505   8.632   9.356 -1.4066  2.4250  0.6599
  433MOL0     O57025   6.752   4.479   3.911 -0.0840  0.1441  0.1452
  433MOL0     C57026   6.709   4.416   3.810 -0.1374  0.2860 -0.0988
  433MOL0     O57027   6.779   4.328   3.728  0.4685 -0.1541  0.4716
  433MOL0     C57028   6.904   4.364   3.685  0.1621  0.1853  0.5475
  433MOL0     C57029   6.999   4.263   3.667  0.8756 -0.0898 -0.9690
  433MOL0     C57030   7.133   4.297   3.641 -0.0258  0.5340  0.2443
  433MOL0     C57031   7.190   4.429   3.640  0.2502  1.1269 -1.2722
  433MOL0     O57032   7.323   4.446   3.618 -0.3873  0.0377  0.1013
  433MOL0     C57033   7.371   4.578   3.590  0.0436 -0.3461  0.0095
  433MOL0     C57034   7.517   4.573   3.563  0.2139  0.5679  0.7889
  433MOL0     C57035   7.573   4.658   3.452  0.4119 -0.1077  1.2507
  433MOL0     C57036   7.726   4.643   3.435  0.3829  0.0224  0.1865
  433MOL0     C57037   7.780   4.756   3.344 -0.2833 -0.0682  0.5062
  433MOL0     C57038   7.924   4.739   3.304 -0.3320  0.8726 -0.2509
  433MOL0     C57039   8.018   4.704   3.414 -0.1868 -0.3944 -0.1730
  433MOL0     C57040   8.157   4.703   3.343  0.0662  0.1898  0.1470
  433MOL0     N57041   8.269   4.663   3.436  0.4649 -0.0644  0.9243
  433MOL0     C57042   8.316   4.735   3.547  0.6780 -0.8706 -0.4042
  433MOL0     C57043   8.395   4.650   3.617 -0.3399  0.4443  0.1084
  433MOL0     C57044   8.475   4.667   3.748  0.1273 -0.3873  0.0424
  433MOL0     C57045   8.458   4.552   3.854  0.5283 -0.8451  0.4045
  433MOL0     C57046   8.318   4.510   3.887  0.3466 -0.1784 -0.1036
  433MOL0     C57047   8.256   4.597   3.998 -0.0639 -0.1188  0.3097
  433MOL0     O57048   8.259   4.747   3.979 -0.5906 -0.6248 -0.4627
  433MOL0     C57049   8.149   4.802   3.921  0.3209 -0.1006  0.4970
  433MOL0     C57050   8.055   4.738   3.833 -0.4872  0.2485 -0.8473
  433MOL0     C57051   7.952   4.811   3.768  0.2600  0.3394  0.3329
  433MOL0     C57052   7.939   4.945   3.780 -0.4903  0.5396 -0.9898
  433MOL0     C57053   7.822   5.026   3.732 -0.5398 -0.0686  1.2557
  433MOL0     O57054   7.805   5.153   3.784 -0.5179 -0.3113  0.2832
  433MOL0     C57055   7.713   5.231   3.707 -0.6860  0.2607  0.4056
  433MOL0     C57056   7.752   5.334   3.624 -0.0317 -0.2100  0.3446
  433MOL0     C57057   7.663   5.417   3.555  0.7822  0.3078  0.1571
  433MOL0     C57058   7.527   5.388   3.570 -0.7462  0.1018  0.1653
  433MOL0     O57059   7.439   5.467   3.508  0.3877  0.0729  0.6958
  433MOL0     C57060   7.354   5.538   3.603 -0.0752 -0.5792 -0.1699
  433MOL0     C57061   7.343   5.689   3.577 -0.5839 -0.3875 -0.5981
  433MOL0     C57062   7.482   5.749   3.554  0.6334  0.2351 -0.9511
  433MOL0     C57063   7.573   5.750   3.681  0.2178 -0.2707 -0.4170
  433MOL0     C57064   7.711   5.800   3.670 -0.5390  0.0791  0.4265
  433MOL0     C57065   7.806   5.765   3.786  0.3491  0.0893 -0.1883
  433MOL0     C57066   7.947   5.827   3.783  0.0489 -0.6770  0.2775
  433MOL0     C57067   8.022   5.794   3.655 -0.8986  0.2369 -0.4857
  433MOL0    Cl57068   8.015   5.610   3.653  0.2852  0.0872  0.1290
  433MOL0     C57069   7.488   5.280   3.652  0.3779 -0.4274 -0.4290
  433MOL0     C57070   7.578   5.215   3.730  0.1429  0.3389 -0.5326
  433MOL0     O57071   7.736   4.974   3.666 -0.2683 -0.3589 -0.0670
  433MOL0     C57072   8.040   5.008   3.856 -0.1030 -0.6589 -0.1763
  433MOL0     C57073   8.137   4.941   3.931  0.3497 -0.3876  1.0871
  433MOL0     N57074   8.416   4.538   3.531  0.1343  0.0016  0.3543
  433MOL0     N57075   8.334   4.549   3.426 -0.2325 -0.7467  0.1118
  433MOL0     C57076   7.088   4.529   3.651  0.6664  0.3327  0.2881
  433MOL0     C57077   6.950   4.505   3.674  0.9895  0.6761  0.0343
  433MOL0     C57078   6.558   4.428   3.800  0.4070 -0.0216 -0.2384
  433MOL0     C57079   6.478   4.490   3.894 -0.3261 -0.2276 -0.7781
  433MOL0     C57080   6.345   4.511   3.865  0.1780 -0.0603  0.4409
  433MOL0     C57081   6.278   4.457   3.751 -0.4385 -0.0621  0.7236
  433MOL0     O57082   6.143   4.448   3.718 -0.1186  0.3667 -0.6568
  433MOL0     C57083   6.062   4.514   3.807 -0.1549 -1.0583  0.7475
  433MOL0     C57084   5.928   4.562   3.740 -0.6963  0.4854 -0.3450
  433MOL0     C57085   5.852   4.439   3.682  0.0282 -0.0776 -0.3475
  433MOL0     C57086   5.743   4.481   3.582  0.4784 -0.1139 -0.2028
  433MOL0     C57087   5.639   4.568   3.633  0.3568 -0.0737  0.0056
  433MOL0     C57088   5.549   4.636   3.678 -0.5468  0.2128  0.4301
  433MOL0     C57089   6.364   4.394   3.660  0.3702  0.8292  0.3600
  433MOL0     C57090   6.497   4.371   3.683 -0.7140  0.4173 -0.5326
  433MOL0     H57091   6.963   4.161   3.661 -0.3982  0.2739  0.0872
  433MOL0     H57092   7.205   4.220   3.617 -0.9207 -0.2244 -0.1076
  433MOL0     H57093   7.341   4.652   3.664  0.8327  0.2358 -0.2458
  433MOL0     H57094   7.338   4.619   3.494  1.6620  2.6191  0.6289
  433MOL0     H57095   7.536   4.474   3.520 -0.9351  1.2820 -1.4722
  433MOL0     H57096   7.581   4.586   3.651  1.3140 -1.5302  0.3669
  433MOL0     H57097   7.561   4.765   3.472  1.7472  0.5837 -1.3263
  433MOL0     H57098   7.516   4.645   3.360  1.1341  1.2310  0.5843
  433MOL0     H57099   7.753   4.647   3.541 -2.9120  3.4468  1.1269
  433MOL0     H57100   7.759   4.546   3.398  0.5784  0.5366 -1.0294
  433MOL0     H57101   7.778   4.851   3.399 -0.6186 -0.6610  1.5360
  433MOL0     H57102   7.728   4.768   3.248  0.5976  1.2466  0.1595
  433MOL0     H57103   7.958   4.832   3.259  0.2874  0.6391 -0.2726
  433MOL0     H57104   7.932   4.663   3.226  0.9377  0.7778 -0.0498
  433MOL0     H57105   8.017   4.780   3.491  0.7717 -0.6586  0.1231
  433MOL0     H57106   7.996   4.611   3.467 -0.5214 -0.1334  0.1506
  433MOL0     H57107   8.181   4.799   3.297 -4.0219  1.3787  0.1232
  433MOL0     H57108   8.138   4.626   3.267 -0.8031 -0.2235  0.7595
  433MOL0     H57109   8.289   4.836   3.574  0.3077 -0.9296 -0.5337
  433MOL0     H57110   8.460   4.768   3.787  2.7757  0.6107 -1.2774
  433MOL0     H57111   8.584   4.669   3.738  0.0722  3.0502 -1.1144
  433MOL0     H57112   8.497   4.587   3.951  0.0461 -0.3335  0.4212
  433MOL0     H57113   8.501   4.456   3.824  0.5054 -1.7138  2.9278
  433MOL0     H57114   8.257   4.516   3.796  1.2667 -1.6040 -0.8558
  433MOL0     H57115   8.316   4.409   3.930 -6.1512  0.3792  2.1502
  433MOL0     H57116   8.312   4.574   4.089 -2.7016 -1.8965  1.6287
  433MOL0     H57117   8.156   4.558   4.020 -1.2615  2.1146 -0.8932
  433MOL0     H57118   8.052   4.631   3.817 -1.8198  0.2166 -0.5234
  433MOL0     H57119   7.868   4.752   3.733  1.6838 -1.3715 -0.3692
  433MOL0     H57120   7.853   5.357   3.591 -0.1551  1.4098  1.0109
  433MOL0     H57121   7.692   5.502   3.493  1.6521  0.0652  0.2296
  433MOL0     H57122   7.387   5.534   3.707 -1.8768  0.6141  0.5013
  433MOL0     H57123   7.259   5.483   3.606 -1.1190  1.0791 -1.0319
  433MOL0     H57124   7.301   5.736   3.666  1.3869  0.2826  0.0322
  433MOL0     H57125   7.271   5.720   3.500 -0.3449  0.0671 -0.6450
  433MOL0     H57126   7.473   5.854   3.523  1.5277  0.1550 -1.5376
  433MOL0     H57127   7.532   5.689   3.477  2.5826  1.6589 -0.8832
  433MOL0     H57128   7.523   5.807   3.760 -0.4007  0.9073 -1.6171
  433MOL0     H57129   7.568   5.646   3.715  0.3708  0.3572  1.6520
  433MOL0     H57130   7.704   5.909   3.664  0.6907  0.0659 -2.0645
  433MOL0     H57131   7.744   5.757   3.576  0.1601  0.8068  0.3310
  433MOL0     H57132   7.816   5.657   3.798  1.0600  0.1964  0.2335
  433MOL0     H57133   7.754   5.800   3.876  0.2468  0.6525 -0.4661
  433MOL0     H57134   7.947   5.937   3.789 -0.1587 -0.7099  0.9552
  433MOL0     H57135   7.993   5.789   3.874 -1.3308 -1.6250  0.6073
  433MOL0     H57136   8.123   5.834   3.662 -1.0838  0.4754  1.6747
  433MOL0     H57137   7.973   5.844   3.571 -0.6155  1.7524  0.2103
  433MOL0     H57138   7.384   5.255   3.674  0.0840  1.0848 -0.0339
  433MOL0     H57139   7.550   5.141   3.804  0.7500  1.4907  0.9132
  433MOL0     H57140   8.031   5.116   3.857  0.8666 -0.5621 -0.6509
  433MOL0     H57141   8.204   4.990   4.001  1.6707 -2.0508  1.0483
  433MOL0     H57142   7.119   4.632   3.639  1.0868  0.3265  1.2112
  433MOL0     H57143   6.881   4.589   3.671  1.6420  1.2483  0.7167
  433MOL0     H57144   6.519   4.529   3.986 -0.1901 -1.4143 -0.3284
  433MOL0     H57145   6.290   4.552   3.949  0.6417 -1.0861  1.2727
  433MOL0     H57146   6.108   4.603   3.852 -2.7590 -0.0683  1.6276
  433MOL0     H57147   6.032   4.450   3.890 -1.5064 -0.2659  0.8969
  433MOL0     H57148   5.864   4.612   3.813 -1.4586  0.6621 -1.1201
  433MOL0     H57149   5.951   4.632   3.660 -0.2021  0.7546  0.0271
  433MOL0     H57150   5.799   4.386   3.761 -2.0062  0.2795 -1.3851
  433MOL0     H57151   5.917   4.371   3.627 -1.9500 -1.7868 -0.7148
  433MOL0     H57152   5.778   4.539   3.496  0.4574 -2.6427 -2.0223
  433MOL0     H57153   5.700   4.388   3.543  0.8273  0.2723 -1.5581
  433MOL0     H57154   5.470   4.688   3.726 -2.0327 -1.2854 -0.2717
  433MOL0     H57155   6.312   4.354   3.573  0.2546  0.2734  0.6773
  433MOL0     H57156   6.563   4.321   3.613  0.5308  4.5770 -2.6287
  434MOL0     O57157  10.786   9.860   4.068  0.3194  0.2328  0.1290
  434MOL0     C57158  10.740   9.902   4.173  0.5007 -0.0112 -0.3202
  434MOL0     O57159  10.814   9.925   4.287  0.8748 -0.4384 -0.2713
  434MOL0     C57160  10.945   9.925   4.286 -0.1432 -0.9617 -0.1534
  434MOL0     C57161  11.016   9.814   4.328 -0.8013  0.5382 -0.5027
  434MOL0     C57162  11.161   9.817   4.343 -0.5429  0.5742  0.6417
  434MOL0     C57163  11.238   9.931   4.313 -0.0364  0.3921 -0.2456
  434MOL0     O57164  11.374   9.918   4.325  0.2527  0.0265  0.2121
  434MOL0     C57165  11.461  10.039   4.332 -0.6145  0.8110  0.5384
  434MOL0     C57166  11.616  10.007   4.329  0.2327 -0.1162  0.0032
  434MOL0     C57167  11.656   9.955   4.476  0.3676 -0.5620 -0.1429
  434MOL0     C57168  11.808   9.955   4.502 -0.3543  0.2629 -0.3191
  434MOL0     C57169  11.894   9.862   4.408  0.4814 -0.6697  0.4041
  434MOL0     C57170  11.865   9.712   4.433  0.3002  0.1627  0.5658
  434MOL0     C57171  11.956   9.622   4.344  0.0697 -0.1149  0.3244
  434MOL0     C57172  11.927   9.624   4.193 -0.2825  1.3800  0.1722
  434MOL0     N57173  12.023   9.551   4.119  0.9596  0.4129 -0.0707
  434MOL0     C57174  12.152   9.523   4.163 -0.2773 -0.7854 -0.4282
  434MOL0     C57175  12.197   9.430   4.085  0.0299 -0.1054 -0.5517
  434MOL0     C57176  12.329   9.354   4.094  0.3178 -0.6778 -0.2258
  434MOL0     C57177  12.317   9.262   4.210 -0.5291 -0.2830  0.6705
  434MOL0     C57178  12.298   9.314   4.353 -0.0854 -0.0909  0.4417
  434MOL0     C57179  12.345   9.225   4.466 -0.1122 -0.6540  0.6162
  434MOL0     O57180  12.365   9.299   4.584 -0.8870 -0.0438 -0.6300
  434MOL0     C57181  12.253   9.355   4.642  0.9207 -0.0237  0.9432
  434MOL0     C57182  12.272   9.464   4.734  0.2645 -0.0180  0.7251
  434MOL0     C57183  12.167   9.516   4.812 -0.6536 -0.0068 -0.1720
  434MOL0     C57184  12.042   9.466   4.801  1.0834  0.6454  0.7895
  434MOL0     C57185  11.928   9.523   4.882  0.1114 -0.5476 -0.0703
  434MOL0     O57186  11.962   9.634   4.952  0.3694  0.1953 -0.2656
  434MOL0     C57187  11.868   9.711   5.021  0.1845  0.0091  0.1673
  434MOL0     C57188  11.772   9.786   4.952  0.2917  0.3292 -0.5343
  434MOL0     C57189  11.677   9.855   5.027  0.4352  0.5470 -0.2103
  434MOL0     C57190  11.687   9.862   5.169  0.6570 -0.1797  0.2825
  434MOL0     O57191  11.596   9.927   5.244  0.3355 -0.4553  0.4921
  434MOL0     C57192  11.459   9.926   5.206 -0.3654 -0.4206  0.0780
  434MOL0     C57193  11.379   9.888   5.335  0.4297 -0.3930 -0.5954
  434MOL0     C57194  11.407   9.739   5.372 -0.0916 -0.3768 -0.5244
  434MOL0     C57195  11.296   9.676   5.467  0.7850  0.3123 -0.4756
  434MOL0     C57196  11.317   9.527   5.487  0.5060 -0.2638  0.6443
  434MOL0     C57197  11.308   9.488   5.639 -1.0290 -0.4479  0.6416
  434MOL0     C57198  11.270   9.348   5.658 -0.0584 -0.1157 -0.6576
  434MOL0     C57199  11.129   9.311   5.627  0.4094  0.2613 -0.5467
  434MOL0    Cl57200  11.107   9.133   5.642 -0.4517 -0.3879  0.1501
  434MOL0     C57201  11.800   9.800   5.232 -0.3794  0.1423  0.3555
  434MOL0     C57202  11.886   9.725   5.160 -0.1074 -0.1155 -0.6227
  434MOL0     O57203  11.817   9.476   4.869  0.2339 -0.4313  0.0568
  434MOL0     C57204  12.025   9.350   4.719  0.9080 -0.2468 -0.4954
  434MOL0     C57205  12.124   9.295   4.637 -1.1475 -0.2564  0.5019
  434MOL0     N57206  12.094   9.398   3.997 -0.8272 -0.5542 -0.4575
  434MOL0     N57207  11.990   9.479   4.010 -0.3969  0.6034 -0.6504
  434MOL0     C57208  11.170  10.041   4.265 -0.3951  0.8545 -0.5466
  434MOL0     C57209  11.027  10.034   4.255 -0.3743  0.0277 -0.5011
  434MOL0     C57210  10.592   9.889   4.182 -1.3137 -0.2741 -0.5759
  434MOL0     C57211  10.515   9.840   4.073  0.6944 -0.4088 -0.0137
  434MOL0     C57212  10.378   9.844   4.086 -0.3376  0.6361  0.3893
  434MOL0     C57213  10.306   9.888   4.202  0.0765  0.5720  0.0225
  434MOL0     O57214  10.170   9.899   4.214 -0.0733  0.6954  0.1138
  434MOL0     C57215  10.090   9.855   4.101  0.1516  0.7515  0.5747
  434MOL0     C57216   9.945   9.881   4.155  0.3798  0.6135  0.9900
  434MOL0     C57217   9.845   9.901   4.034  0.6858  0.3701  0.3046
  434MOL0     C57218   9.702   9.847   4.070 -0.3525 -0.0922 -0.8997
  434MOL0     C57219   9.599   9.882   3.968  0.2037  0.5154 -0.2907
  434MOL0     C57220   9.511   9.908   3.885 -0.0989  0.3836 -0.0724
  434MOL0     C57221  10.391   9.929   4.306  0.0861  0.0880  0.3402
  434MOL0     C57222  10.531   9.926   4.304  0.2388  0.5781 -0.2143
  434MOL0     H57223  10.959   9.725   4.355  1.1934 -0.8230 -0.4938
  434MOL0     H57224  11.212   9.731   4.385 -0.3106  0.0527 -0.6675
  434MOL0     H57225  11.444  10.094   4.425 -0.2038 -1.2288  1.8968
  434MOL0     H57226  11.448  10.109   4.249  0.1081  2.1425  1.5087
  434MOL0     H57227  11.671  10.100   4.313 -0.8741  0.4010 -1.0446
  434MOL0     H57228  11.628   9.926   4.256 -0.5863 -0.1641 -0.0920
  434MOL0     H57229  11.614   9.857   4.503 -3.0627  0.8284  0.0203
  434MOL0     H57230  11.619  10.028   4.548  1.2180  2.2947 -2.4150
  434MOL0     H57231  11.839  10.060   4.501  1.7859 -0.2989  0.6951
  434MOL0     H57232  11.819   9.919   4.605 -1.7683  2.3680  0.6336
  434MOL0     H57233  11.998   9.881   4.434 -0.4203  0.7680  3.5264
  434MOL0     H57234  11.876   9.889   4.304  2.6107 -1.4469 -0.2155
  434MOL0     H57235  11.763   9.700   4.394  0.2074  2.2549  0.0595
  434MOL0     H57236  11.868   9.675   4.536 -5.6650  0.4198  1.2326
  434MOL0     H57237  12.049   9.678   4.361 -0.3324  0.1815  1.6600
  434MOL0     H57238  11.963   9.521   4.386  0.7424 -0.3074 -0.2320
  434MOL0     H57239  11.923   9.727   4.157 -0.8862  0.6438 -2.0362
  434MOL0     H57240  11.826   9.586   4.174  0.2760  0.2289 -0.6217
  434MOL0     H57241  12.198   9.576   4.245 -2.6780  2.2817 -0.8753
  434MOL0     H57242  12.404   9.430   4.116 -0.4683  0.2617 -0.7121
  434MOL0     H57243  12.346   9.302   4.000  1.8254  0.1323 -0.4356
  434MOL0     H57244  12.411   9.205   4.214  0.5408  0.8889 -3.2255
  434MOL0     H57245  12.238   9.189   4.193 -2.2823  1.1743  2.1788
  434MOL0     H57246  12.360   9.404   4.361  1.9011 -1.5249  3.1468
  434MOL0     H57247  12.193   9.338   4.367  0.4240  1.9341  1.0856
  434MOL0     H57248  12.433   9.165   4.440 -2.9512 -4.5769 -0.7655
  434MOL0     H57249  12.263   9.154   4.478  0.5867 -1.8625 -1.2744
  434MOL0     H57250  12.372   9.504   4.722  0.3555 -0.4416  0.0801
  434MOL0     H57251  12.190   9.611   4.859  0.2868  0.3400 -1.2750
  434MOL0     H57252  11.760   9.763   4.846  0.9721 -3.1548  0.0049
  434MOL0     H57253  11.598   9.903   4.970  0.5546 -0.8137 -1.6033
  434MOL0     H57254  11.430   9.853   5.130  0.4405  0.1077 -0.7496
  434MOL0     H57255  11.427  10.025   5.171 -1.9741 -0.9054  0.0677
  434MOL0     H57256  11.272   9.887   5.313  0.1514  1.1176  0.5337
  434MOL0     H57257  11.400   9.954   5.420  0.0689 -0.2629 -0.6067
  434MOL0     H57258  11.506   9.723   5.416 -0.3573 -1.2735 -0.2256
  434MOL0     H57259  11.396   9.683   5.279 -0.4149 -0.8926 -0.1822
  434MOL0     H57260  11.308   9.718   5.567  0.0227  1.9150 -1.0117
  434MOL0     H57261  11.197   9.703   5.430  0.5643  1.6445  0.9854
  434MOL0     H57262  11.416   9.503   5.446  1.1817  0.1263  2.0008
  434MOL0     H57263  11.241   9.471   5.431 -0.3063 -0.8787  2.2935
  434MOL0     H57264  11.232   9.552   5.685  0.5332  3.1337 -1.3776
  434MOL0     H57265  11.406   9.504   5.686  0.9604 -1.4963 -2.7641
  434MOL0     H57266  11.338   9.283   5.601  1.0665  1.3475 -1.0448
  434MOL0     H57267  11.285   9.332   5.765  2.7429  0.7627 -0.8476
  434MOL0     H57268  11.108   9.350   5.527 -3.9448  0.3405  0.2214
  434MOL0     H57269  11.056   9.355   5.696 -1.8902 -2.9006 -0.7424
  434MOL0     H57270  11.821   9.806   5.339 -1.6073  2.2914  0.5366
  434MOL0     H57271  11.977   9.680   5.197 -1.4181 -0.1496  2.8609
  434MOL0     H57272  11.922   9.316   4.729  0.3058  1.9121  1.7069
  434MOL0     H57273  12.103   9.200   4.590 -0.8875  0.3242 -0.8566
  434MOL0     H57274  11.231  10.126   4.238 -1.4671  1.1185 -2.2788
  434MOL0     H57275  10.966  10.109   4.206 -2.2546 -2.4204 -2.1885
  434MOL0     H57276  10.566   9.815   3.980 -0.4012  2.4537 -1.5024
  434MOL0     H57277  10.332   9.821   3.990 -0.4912  2.2052  0.0544
  434MOL0     H57278  10.101   9.752   4.065  1.2245  0.4638  1.6808
  434MOL0     H57279  10.107   9.925   4.019 -1.2765 -0.0827 -0.4899
  434MOL0     H57280   9.914   9.792   4.210 -1.8450 -0.6645 -2.0796
  434MOL0     H57281   9.938   9.972   4.215  1.3301  1.1089  0.3929
  434MOL0     H57282   9.884   9.854   3.944 -1.6585 -3.3865  1.0400
  434MOL0     H57283   9.842  10.008   4.011  0.1705  0.1257 -0.7935
  434MOL0     H57284   9.705   9.740   4.094  2.9430 -0.4889 -2.5780
  434MOL0     H57285   9.667   9.895   4.161  1.7454 -2.5338  1.3425
  434MOL0     H57286   9.450   9.924   3.798  1.3423 -2.6813 -1.8123
  434MOL0     H57287  10.334   9.988   4.377 -1.8259 -0.5746 -0.5772
  434MOL0     H57288  10.578   9.962   4.395 -3.0563  2.2730  1.0125
  435MOL0     O57289   9.482   7.479  10.067 -0.3548  0.3329  0.1191
  435MOL0     C57290   9.539   7.516  10.172  0.1712 -0.5981 -0.3175
  435MOL0     O57291   9.474   7.576  10.273  0.5348 -0.4257 -0.0577
  435MOL0     C57292   9.342   7.619  10.268  0.3064 -0.3125 -0.0969
  435MOL0     C57293   9.240   7.544  10.205 -0.1060  0.0991  0.3167
  435MOL0     C57294   9.104   7.573  10.221 -0.0205 -0.0804 -0.6197
  435MOL0     C57295   9.061   7.693  10.283 -0.4818 -0.0045 -0.3507
  435MOL0     O57296   8.935   7.747  10.289  0.3124 -0.2419 -0.0300
  435MOL0     C57297   8.832   7.651  10.268  0.2606 -0.1203  0.7647
  435MOL0     C57298   8.696   7.711  10.311  0.1558  0.5814  0.3707
  435MOL0     C57299   8.586   7.609  10.267  0.2225  0.4823 -0.0439
  435MOL0     C57300   8.456   7.640  10.340 -0.0710  0.1232  0.3314
  435MOL0     C57301   8.346   7.535  10.306  0.5998  0.6272 -0.2437
  435MOL0     C57302   8.222   7.579  10.389  0.5969  0.7994 -0.3916
  435MOL0     C57303   8.097   7.493  10.330  0.2572 -0.4861  0.4789
  435MOL0     C57304   7.965   7.549  10.383  0.1584  0.5454 -0.5524
  435MOL0     N57305   7.846   7.487  10.311  0.3512 -0.2513  0.1667
  435MOL0     C57306   7.801   7.509  10.179 -0.1927  0.2318 -0.3142
  435MOL0     C57307   7.676   7.459  10.181  0.4780  0.3663 -0.3809
  435MOL0     C57308   7.572   7.469  10.076 -0.7928  0.2723 -0.2680
  435MOL0     C57309   7.553   7.323  10.014 -0.6950 -0.5109  0.0407
  435MOL0     C57310   7.446   7.319   9.901 -0.3125  0.5110 -0.3964
  435MOL0     C57311   7.299   7.322   9.965  0.2064  0.2207  0.4877
  435MOL0     O57312   7.292   7.185  10.015  0.1261  0.8158 -0.0918
  435MOL0     C57313   7.168   7.136  10.062 -0.1680 -0.1463  0.3134
  435MOL0     C57314   7.167   7.012  10.128 -0.1179  0.5161  1.1062
  435MOL0     C57315   7.043   6.941  10.149 -0.2488 -0.9750  0.5579
  435MOL0     C57316   6.918   7.003  10.122  0.5454  0.4073 -0.4890
  435MOL0     C57317   6.782   6.944  10.165 -0.5132  0.4732 -0.4042
  435MOL0     O57318   6.669   7.018  10.155 -0.1393  0.0618 -0.1526
  435MOL0     C57319   6.563   6.992  10.237  0.2030 -0.3322  0.1379
  435MOL0     C57320   6.545   7.058  10.356  0.0520 -0.2129  0.3012
  435MOL0     C57321   6.433   7.026  10.430  0.2107 -0.1054  0.2751
  435MOL0     C57322   6.344   6.925  10.394 -0.9198  0.3727 -0.4643
  435MOL0     O57323   6.236   6.878  10.459  0.0034  0.8959 -0.1210
  435MOL0     C57324   6.189   6.960  10.571 -0.3317  0.6144  0.2051
  435MOL0     C57325   6.045   6.922  10.622  0.3546  0.2251 -0.6868
  435MOL0     C57326   5.948   6.942  10.505  0.9206  0.1571  0.0956
  435MOL0     C57327   5.953   6.840  10.389  0.3274  0.4875 -0.2215
  435MOL0     C57328   5.817   6.829  10.313 -0.2294  0.4276  0.4564
  435MOL0     C57329   5.820   6.712  10.214 -0.7405 -0.2287  0.4499
  435MOL0     C57330   5.686   6.703  10.142  0.0570 -0.5514 -0.1469
  435MOL0     C57331   5.678   6.582  10.046 -0.6436 -0.3129  0.0785
  435MOL0    Cl57332   5.509   6.551   9.985  0.0181  0.0043  0.0512
  435MOL0     C57333   6.371   6.854  10.276  0.1488 -0.6781 -0.2762
  435MOL0     C57334   6.482   6.882  10.201 -0.2822  0.0174  0.0695
  435MOL0     O57335   6.790   6.833  10.214  0.0644 -1.0755  0.1968
  435MOL0     C57336   6.921   7.123  10.048 -0.3858 -0.6955 -0.4702
  435MOL0     C57337   7.050   7.191  10.026  0.7438  0.6662  0.6693
  435MOL0     N57338   7.650   7.400  10.302 -0.3869  0.8888  0.2547
  435MOL0     N57339   7.749   7.422  10.379 -0.2603  0.5207 -0.0744
  435MOL0     C57340   9.164   7.778  10.340 -0.1168 -0.1802  0.8206
  435MOL0     C57341   9.302   7.737  10.335 -0.5675  0.0748 -0.0589
  435MOL0     C57342   9.680   7.482  10.180 -0.2837 -0.4793 -0.5326
  435MOL0     C57343   9.755   7.518  10.296  0.3444 -0.9547  0.0065
  435MOL0     C57344   9.892   7.492  10.301  0.5883  0.5325  0.3260
  435MOL0     C57345   9.955   7.410  10.204  0.1391  0.1884  0.2253
  435MOL0     O57346  10.089   7.373  10.233  0.2585  0.6947 -0.6689
  435MOL0     C57347  10.162   7.321  10.128 -0.1112  0.1000 -0.0155
  435MOL0     C57348  10.303   7.298  10.183  0.1134  0.6721  0.3206
  435MOL0     C57349  10.324   7.216  10.311  0.2496 -1.1443 -0.1537
  435MOL0     C57350  10.464   7.255  10.366  0.8427  0.5106  0.2678
  435MOL0     C57351  10.494   7.395  10.370  0.1609 -0.1547 -0.8571
  435MOL0     C57352  10.517   7.511  10.369 -0.2938 -1.0871 -0.1578
  435MOL0     C57353   9.874   7.366  10.092  0.0479  0.5826 -0.2882
  435MOL0     C57354   9.740   7.401  10.081  0.0261  0.1232 -1.2389
  435MOL0     H57355   9.249   7.460  10.137 -5.1016  0.5828 -1.3465
  435MOL0     H57356   9.035   7.505  10.172 -1.2930  1.2296 -0.7009
  435MOL0     H57357   8.837   7.569  10.340  0.3186 -2.2175 -1.4942
  435MOL0     H57358   8.841   7.613  10.166  2.7334 -0.6197  1.0991
  435MOL0     H57359   8.672   7.805  10.262  0.9759  1.3243  1.3493
  435MOL0     H57360   8.689   7.739  10.417 -2.2506 -2.2044  1.1059
  435MOL0     H57361   8.622   7.510  10.298  1.6039  0.8918 -0.2822
  435MOL0     H57362   8.578   7.595  10.159  1.1946 -0.6326  0.0008
  435MOL0     H57363   8.473   7.643  10.448  0.1039  1.2915  0.2934
  435MOL0     H57364   8.419   7.742  10.323 -2.7199 -0.8042  0.2270
  435MOL0     H57365   8.370   7.433  10.336  2.3710  0.3882 -2.2405
  435MOL0     H57366   8.318   7.530  10.201 -0.7167  0.8746  0.0839
  435MOL0     H57367   8.208   7.687  10.389  1.3918  0.9086  0.2142
  435MOL0     H57368   8.236   7.551  10.494  0.8833 -1.3741 -0.9500
  435MOL0     H57369   8.088   7.510  10.223 -1.2178 -1.7996  0.3456
  435MOL0     H57370   8.105   7.384  10.338 -0.3116 -0.7869 -2.2773
  435MOL0     H57371   7.952   7.657  10.379  1.9162  0.7657 -1.1030
  435MOL0     H57372   7.957   7.520  10.488 -2.9421 -2.6570 -1.4599
  435MOL0     H57373   7.844   7.569  10.099 -0.0157  0.1045 -0.3123
  435MOL0     H57374   7.619   7.539  10.005  1.9015 -0.3871  0.7432
  435MOL0     H57375   7.485   7.509  10.128  0.0267  1.7111  0.0603
  435MOL0     H57376   7.526   7.248  10.089  0.8142  0.7045  1.8733
  435MOL0     H57377   7.651   7.293   9.976  0.3401  2.8739 -0.3460
  435MOL0     H57378   7.461   7.404   9.833  1.2679  1.3914  0.9571
  435MOL0     H57379   7.457   7.232   9.837 -0.0216  2.2843 -2.9300
  435MOL0     H57380   7.223   7.339   9.888 -0.4445 -0.3818  0.9868
  435MOL0     H57381   7.286   7.396  10.045 -2.7373  1.4664 -0.9434
  435MOL0     H57382   7.265   6.968  10.141  0.6902  2.2336  1.0637
  435MOL0     H57383   7.049   6.848  10.204 -1.3134  0.2584  2.9240
  435MOL0     H57384   6.621   7.128  10.389  0.8797 -1.6541  1.6070
  435MOL0     H57385   6.399   7.082  10.516  0.3673 -1.3565  1.1921
  435MOL0     H57386   6.171   7.057  10.525 -4.4560 -0.4834 -0.8623
  435MOL0     H57387   6.258   6.958  10.656  1.4912 -0.6116 -1.2289
  435MOL0     H57388   6.015   6.987  10.704 -1.1915  1.0448 -1.8508
  435MOL0     H57389   6.049   6.819  10.659  0.9685  0.0206 -1.2889
  435MOL0     H57390   5.953   7.044  10.465  0.5685  1.0772  2.2414
  435MOL0     H57391   5.847   6.928  10.545  0.8560  1.3597  0.3881
  435MOL0     H57392   6.030   6.865  10.316 -1.2611  1.2114 -1.7401
  435MOL0     H57393   5.977   6.742  10.432  0.1916  0.3229 -0.5151
  435MOL0     H57394   5.800   6.924  10.260  0.1633 -0.1710 -0.7690
  435MOL0     H57395   5.724   6.809  10.367 -0.2648 -0.5911  0.0299
  435MOL0     H57396   5.849   6.616  10.258  0.6695 -1.6270 -3.1028
  435MOL0     H57397   5.901   6.737  10.145  0.6589 -1.7552  1.4528
  435MOL0     H57398   5.598   6.703  10.206 -0.0313  1.7993 -0.1681
  435MOL0     H57399   5.694   6.792  10.078 -0.0326  0.7559  1.6056
  435MOL0     H57400   5.699   6.495  10.109 -1.4922 -0.3601  0.3093
  435MOL0     H57401   5.755   6.589   9.968 -0.4221  1.5672  0.4369
  435MOL0     H57402   6.302   6.774  10.253  1.0359 -1.2996 -0.8305
  435MOL0     H57403   6.513   6.818  10.119 -0.5954  3.3702 -2.8590
  435MOL0     H57404   6.827   7.173  10.028 -1.1905 -1.8882  0.2000
  435MOL0     H57405   7.032   7.292   9.989  2.9123  1.4605  1.6479
  435MOL0     H57406   9.135   7.865  10.399  1.3077 -0.4663  1.9966
  435MOL0     H57407   9.379   7.791  10.390  2.4058 -2.2290 -1.6829
  435MOL0     H57408   9.696   7.567  10.372  0.6158 -0.8254  0.1350
  435MOL0     H57409   9.951   7.530  10.384  0.5708  0.1839  0.5014
  435MOL0     H57410  10.165   7.395  10.047  0.6607  0.2417  0.1371
  435MOL0     H57411  10.108   7.229  10.100 -0.6595  0.5833 -0.5979
  435MOL0     H57412  10.345   7.234  10.104 -1.0536  0.9582 -0.5571
  435MOL0     H57413  10.354   7.395  10.181  2.3165 -0.4187 -0.5209
  435MOL0     H57414  10.331   7.114  10.271  0.6283 -0.1421 -2.8199
  435MOL0     H57415  10.245   7.224  10.387  2.1878  0.8046  1.8143
  435MOL0     H57416  10.474   7.213  10.467 -0.3024 -0.9845 -0.2075
  435MOL0     H57417  10.541   7.212  10.302 -1.3584  1.9709 -3.6465
  435MOL0     H57418  10.538   7.616  10.373 -0.7590 -1.0262  1.7192
  435MOL0     H57419   9.917   7.310  10.010 -0.3933 -0.2874  0.0616
  435MOL0     H57420   9.684   7.354  10.000 -2.7810 -0.9257  1.1483
  436MOL0     O57421   2.498   1.422   0.038  0.6531  0.2371  0.4825
  436MOL0     C57422   2.517   1.419   0.159 -0.1982  0.3199 -1.2147
  436MOL0     O57423   2.423   1.455   0.247 -0.4053 -0.0329 -0.3993
  436MOL0     C57424   2.292   1.467   0.208  0.1701  0.5458  0.3843
  436MOL0     C57425   2.226   1.589   0.216 -0.2278  0.8528 -0.7958
  436MOL0     C57426   2.085   1.597   0.195  1.0627 -0.1130  0.4957
  436MOL0     C57427   2.020   1.485   0.149  0.8613 -0.2749  0.7437
  436MOL0     O57428   1.887   1.496   0.129 -0.0588  1.0199  0.1751
  436MOL0     C57429   1.810   1.541   0.239 -0.6240 -0.3523 -0.0637
  436MOL0     C57430   1.685   1.453   0.270  0.4179 -0.8990 -0.2782
  436MOL0     C57431   1.560   1.479   0.176  0.3339  0.0141 -0.4484
  436MOL0     C57432   1.499   1.619   0.204 -0.6737 -0.0838 -0.0803
  436MOL0     C57433   1.352   1.617   0.159 -0.6770  0.3607 -0.5891
  436MOL0     C57434   1.278   1.739   0.159  0.2406 -1.0432 -0.0539
  436MOL0     C57435   1.131   1.709   0.157  0.7789 -0.7724 -0.6141
  436MOL0     C57436   1.075   1.636   0.028  0.0782 -0.5411  0.1118
  436MOL0     N57437   0.931   1.652   0.011 -0.1609  0.6629 -0.4485
  436MOL0     C57438   0.872   1.766  -0.043  0.3700 -0.1682  0.5711
  436MOL0     C57439   0.742   1.732  -0.058  0.4009  0.6462 -0.4348
  436MOL0     C57440   0.634   1.825  -0.109 -1.1968 -0.3764 -0.4189
  436MOL0     C57441   0.561   1.764  -0.229  0.2497  0.6212 -0.1892
  436MOL0     C57442   0.471   1.868  -0.290 -0.4623  0.5838  0.7166
  436MOL0     C57443   0.329   1.872  -0.244 -1.3488 -0.4846 -0.5573
  436MOL0     O57444   0.307   1.805  -0.126  0.7704  0.0263  0.1390
  436MOL0     C57445   0.176   1.767  -0.093 -0.5150 -0.2197  0.8951
  436MOL0     C57446   0.156   1.721   0.038 -0.2441 -0.2895  0.3679
  436MOL0     C57447   0.033   1.683   0.085 -0.0857  0.2075 -0.3614
  436MOL0     C57448  -0.082   1.688   0.003  0.3107 -0.0405 -0.5371
  436MOL0     C57449  -0.216   1.661   0.056 -0.3631  0.1188  1.1428
  436MOL0     O57450  -0.322   1.688  -0.034 -0.1933  0.5305  0.0612
  436MOL0     C57451  -0.446   1.652   0.017 -0.5469 -0.2742 -0.3307
  436MOL0     C57452  -0.530   1.739   0.097 -0.8177 -0.5708 -0.2354
  436MOL0     C57453  -0.637   1.680   0.153  0.7841 -0.2401  0.0956
  436MOL0     C57454  -0.690   1.557   0.138 -0.0922 -0.1362  1.0526
  436MOL0     O57455  -0.806   1.519   0.208 -0.3380 -0.5628  0.5962
  436MOL0     C57456  -0.891   1.421   0.146  0.3370  0.1433 -0.1485
  436MOL0     C57457  -1.033   1.423   0.198  0.1454  0.5556  0.0542
  436MOL0     C57458  -1.129   1.379   0.092 -0.2251  0.5119 -0.1925
  436MOL0     C57459  -1.272   1.373   0.143  0.4574  0.5424 -0.1532
  436MOL0     C57460  -1.359   1.296   0.044  0.2191 -0.7896  0.2485
  436MOL0     C57461  -1.508   1.294   0.060 -0.2794  0.0895  0.0344
  436MOL0     C57462  -1.557   1.256   0.204 -0.6143 -0.1839  0.3860
  436MOL0     C57463  -1.520   1.121   0.254 -0.3219 -0.1714  0.4983
  436MOL0    Cl57464  -1.653   1.073   0.364  0.0724  0.0960 -0.0339
  436MOL0     C57465  -0.605   1.471   0.056  0.6312 -0.2299 -0.2467
  436MOL0     C57466  -0.489   1.514  -0.004  0.4556 -0.1641 -0.2068
  436MOL0     O57467  -0.228   1.602   0.161 -0.0543  0.4247 -1.0268
  436MOL0     C57468  -0.066   1.733  -0.129  0.2250 -0.3309  0.4844
  436MOL0     C57469   0.065   1.779  -0.174  0.3688  0.4916 -0.2063
  436MOL0     N57470   0.725   1.595  -0.018 -0.2361 -0.1816 -0.5645
  436MOL0     N57471   0.839   1.551   0.021 -0.1620 -0.6760  0.4842
  436MOL0     C57472   2.087   1.369   0.123  0.0009  0.5180  0.0363
  436MOL0     C57473   2.219   1.365   0.152 -0.3151 -0.0804 -0.0358
  436MOL0     C57474   2.656   1.396   0.204  0.0822  0.2259 -0.6193
  436MOL0     C57475   2.707   1.438   0.331  0.4188 -0.0873 -0.3980
  436MOL0     C57476   2.852   1.432   0.356  0.3280  0.7004 -0.0994
  436MOL0     C57477   2.946   1.397   0.264 -0.4388  0.2511 -0.3846
  436MOL0     O57478   3.083   1.416   0.299  0.3133 -0.2815  0.2289
  436MOL0     C57479   3.186   1.379   0.196 -0.1270 -0.2128 -0.3707
  436MOL0     C57480   3.232   1.515   0.136 -0.0629  0.1742 -0.1409
  436MOL0     C57481   3.330   1.591   0.226  1.1047 -0.1707 -0.4603
  436MOL0     C57482   3.282   1.624   0.370 -0.1143  0.4576 -0.8536
  436MOL0     C57483   3.171   1.720   0.365  0.0700 -0.3281  0.1529
  436MOL0     C57484   3.079   1.797   0.378 -0.3721 -0.6876  0.0096
  436MOL0     C57485   2.896   1.369   0.139  0.1863 -0.5857 -0.1451
  436MOL0     C57486   2.756   1.359   0.106  0.4483 -0.0978  0.0398
  436MOL0     H57487   2.286   1.674   0.245 -0.7247  2.0096 -3.0135
  436MOL0     H57488   2.026   1.688   0.194 -1.3031 -1.5338 -2.2455
  436MOL0     H57489   1.791   1.643   0.202  1.8563 -0.3772 -1.6380
  436MOL0     H57490   1.871   1.560   0.328  2.6587  0.3127 -2.2847
  436MOL0     H57491   1.663   1.472   0.375 -2.0237  0.9276 -1.0403
  436MOL0     H57492   1.722   1.350   0.258  1.8678 -0.3806 -0.4897
  436MOL0     H57493   1.491   1.396   0.197  1.2465 -1.0687 -1.5428
  436MOL0     H57494   1.595   1.468   0.073 -0.5775  0.7262 -0.8426
  436MOL0     H57495   1.507   1.639   0.311 -0.1004 -0.9633  0.0517
  436MOL0     H57496   1.551   1.700   0.153 -0.2238 -0.8962 -0.9280
  436MOL0     H57497   1.299   1.546   0.224 -2.1957  0.6264 -1.4803
  436MOL0     H57498   1.340   1.566   0.062 -1.7072 -0.4699 -0.0450
  436MOL0     H57499   1.306   1.793   0.069  0.5475  0.4017  0.8755
  436MOL0     H57500   1.297   1.794   0.252  0.3508 -3.0152  1.1521
  436MOL0     H57501   1.102   1.650   0.244 -3.5080  1.3927 -0.3506
  436MOL0     H57502   1.079   1.799   0.190  1.1951 -1.7542  3.1873
  436MOL0     H57503   1.100   1.529   0.028  1.2282 -0.3239 -1.7132
  436MOL0     H57504   1.131   1.679  -0.055 -0.7571  1.4985  0.5583
  436MOL0     H57505   0.927   1.857  -0.064  1.5646 -1.1547 -0.7679
  436MOL0     H57506   0.686   1.916  -0.142 -0.5855 -1.4212 -2.5366
  436MOL0     H57507   0.570   1.852  -0.024 -1.1468  2.3021 -1.1287
  436MOL0     H57508   0.495   1.680  -0.205  0.5310  0.9783  2.1006
  436MOL0     H57509   0.634   1.718  -0.296  1.4945 -0.3663  1.7597
  436MOL0     H57510   0.524   1.964  -0.284 -1.6626  1.3789 -0.6093
  436MOL0     H57511   0.476   1.843  -0.396  1.2594  1.8526  0.4515
  436MOL0     H57512   0.279   1.816  -0.324 -1.1071  0.7892 -1.6329
  436MOL0     H57513   0.290   1.974  -0.247 -0.1011  0.2095  2.7065
  436MOL0     H57514   0.242   1.702   0.102 -0.5109 -2.7052  0.1100
  436MOL0     H57515   0.027   1.663   0.192  2.8494 -1.0513 -0.3368
  436MOL0     H57516  -0.511   1.845   0.109  2.2286 -0.9795 -0.6931
  436MOL0     H57517  -0.695   1.757   0.203 -0.2227 -0.9764  0.0738
  436MOL0     H57518  -0.859   1.317   0.157 -1.0487 -0.3592 -0.6753
  436MOL0     H57519  -0.896   1.442   0.038  0.5095 -1.7333 -0.5540
  436MOL0     H57520  -1.050   1.526   0.232 -1.0514  1.2216 -2.3309
  436MOL0     H57521  -1.042   1.354   0.282 -1.4580 -1.0630 -1.3531
  436MOL0     H57522  -1.094   1.282   0.054 -3.3374 -0.7840 -0.0173
  436MOL0     H57523  -1.132   1.440   0.001 -0.6542  0.5735 -0.1370
  436MOL0     H57524  -1.273   1.315   0.235 -0.6236  2.1707  0.9139
  436MOL0     H57525  -1.308   1.475   0.156  0.1489  0.3610  0.4765
  436MOL0     H57526  -1.326   1.195   0.021  0.6101 -0.5326 -0.3333
  436MOL0     H57527  -1.342   1.340  -0.054 -3.6045 -1.5581 -0.9294
  436MOL0     H57528  -1.556   1.223  -0.008 -1.0412 -1.4419  2.0807
  436MOL0     H57529  -1.541   1.397   0.042  2.2373  1.4189  2.3563
  436MOL0     H57530  -1.515   1.333   0.270 -0.8070  0.8214 -0.6145
  436MOL0     H57531  -1.666   1.265   0.213 -0.4806  1.3091  0.8621
  436MOL0     H57532  -1.423   1.119   0.304  1.5734 -1.3065 -2.8510
  436MOL0     H57533  -1.515   1.049   0.171 -2.5758  0.2669 -0.0843
  436MOL0     H57534  -0.641   1.370   0.041 -0.1311  0.2876 -2.2026
  436MOL0     H57535  -0.427   1.444  -0.058 -0.7355 -1.9486  0.6502
  436MOL0     H57536  -0.156   1.741  -0.189 -0.4342 -0.3762  1.4463
  436MOL0     H57537   0.082   1.829  -0.269  3.4133 -1.5260 -0.8792
  436MOL0     H57538   2.039   1.276   0.096  2.4820 -2.0262  3.4847
  436MOL0     H57539   2.269   1.273   0.123  1.1124  0.4697  0.5972
  436MOL0     H57540   2.642   1.480   0.406 -1.3750 -0.9576 -1.3976
  436MOL0     H57541   2.885   1.474   0.450 -0.8783  1.5871 -0.0394
  436MOL0     H57542   3.140   1.318   0.118 -1.8541  0.2339  0.2596
  436MOL0     H57543   3.272   1.335   0.248 -0.5423 -0.6121 -0.0155
  436MOL0     H57544   3.280   1.479   0.044  0.0870 -1.2955  0.4880
  436MOL0     H57545   3.148   1.579   0.109  0.0675 -0.1963 -1.4992
  436MOL0     H57546   3.344   1.687   0.176 -1.6565  0.0817 -0.9329
  436MOL0     H57547   3.424   1.538   0.241  0.6878 -0.4399  1.6062
  436MOL0     H57548   3.255   1.532   0.422  1.0049  0.7717  0.3389
  436MOL0     H57549   3.366   1.651   0.435 -1.7341 -0.1157  1.5892
  436MOL0     H57550   2.999   1.858   0.415 -0.9298 -2.0626  1.1747
  436MOL0     H57551   2.956   1.351   0.051 -2.4075  0.8765 -2.3816
  436MOL0     H57552   2.722   1.335   0.006 -2.7916  1.7748  0.5413
  437MOL0     O57553   4.498  10.599  10.627 -0.0289  0.2659 -0.3244
  437MOL0     C57554   4.610  10.630  10.666 -0.0444  0.9281 -0.4964
  437MOL0     O57555   4.676  10.572  10.767  0.1652 -0.3035 -0.2604
  437MOL0     C57556   4.628  10.452  10.810  0.3151  0.4312 -0.1818
  437MOL0     C57557   4.501  10.439  10.870 -0.2303  0.0588  0.3181
  437MOL0     C57558   4.469  10.314  10.915  0.3816 -0.4210  0.0381
  437MOL0     C57559   4.553  10.199  10.905  0.0838 -0.2169  1.0730
  437MOL0     O57560   4.516  10.076  10.963 -0.1706 -1.1096 -0.7401
  437MOL0     C57561   4.594   9.966  10.929 -0.2623 -0.1449  0.0244
  437MOL0     C57562   4.501   9.849  10.960  0.0426  0.5677  0.6693
  437MOL0     C57563   4.563   9.710  10.926  0.9363  0.8497  0.1845
  437MOL0     C57564   4.468   9.609  10.989 -0.1317 -1.0947  0.2022
  437MOL0     C57565   4.535   9.469  10.998 -1.0838 -0.1769 -0.0716
  437MOL0     C57566   4.564   9.404  10.858  0.0245  0.2108 -0.4011
  437MOL0     C57567   4.624   9.262  10.867  0.2655  0.4126  0.6952
  437MOL0     C57568   4.633   9.212  10.720 -0.2277  0.1886 -0.4304
  437MOL0     N57569   4.770   9.163  10.695 -1.1481 -0.2485  0.8170
  437MOL0     C57570   4.808   9.032  10.659 -0.1156  0.1143 -0.1037
  437MOL0     C57571   4.946   9.037  10.662  0.5091  0.1247 -0.1898
  437MOL0     C57572   5.042   8.920  10.632 -0.5146  0.0321  0.0460
  437MOL0     C57573   5.131   8.897  10.750 -0.0830 -0.1076  0.4229
  437MOL0     C57574   5.262   8.974  10.739  0.1915  0.4009 -0.6320
  437MOL0     C57575   5.349   8.966  10.862  0.1160 -0.1186  0.0127
  437MOL0     O57576   5.467   9.042  10.825 -0.1482 -0.2983  0.6814
  437MOL0     C57577   5.569   9.022  10.918 -0.0713 -0.4074  0.0067
  437MOL0     C57578   5.554   9.048  11.052  0.8126 -0.3443 -0.6686
  437MOL0     C57579   5.664   9.014  11.141 -0.8573  0.2821 -0.5628
  437MOL0     C57580   5.788   8.971  11.096  0.4192 -0.1757 -0.1449
  437MOL0     C57581   5.897   8.914  11.184 -0.0513 -0.4368 -0.3412
  437MOL0     O57582   6.020   8.873  11.123 -0.4914 -0.1557 -0.2326
  437MOL0     C57583   6.117   8.830  11.208  0.1390 -0.3918  0.5198
  437MOL0     C57584   6.180   8.928  11.291 -0.3852  0.6033  0.8000
  437MOL0     C57585   6.292   8.880  11.369  0.0622  0.1839  0.8529
  437MOL0     C57586   6.332   8.740  11.371  0.3767 -0.4475 -1.1375
  437MOL0     O57587   6.442   8.694  11.447  0.5173 -0.1968  0.1497
  437MOL0     C57588   6.481   8.771  11.561 -0.4862  0.3836  0.0612
  437MOL0     C57589   6.554   8.678  11.665 -0.4801 -0.2197  0.4008
  437MOL0     C57590   6.682   8.735  11.728 -0.1447 -0.3688 -0.4448
  437MOL0     C57591   6.724   8.680  11.865  0.3447  0.8826  1.0489
  437MOL0     C57592   6.848   8.763  11.923  0.0292  0.4089 -0.2684
  437MOL0     C57593   6.845   8.758  12.081 -0.4842 -0.1984 -0.1462
  437MOL0     C57594   6.865   8.611  12.127  0.7141  0.4517 -0.0226
  437MOL0     C57595   6.854   8.611  12.275  0.5846 -0.4023 -0.3209
  437MOL0    Cl57596   6.920   8.461  12.334  0.2647  0.5791 -0.0945
  437MOL0     C57597   6.260   8.656  11.289  0.2078  0.1845  0.1390
  437MOL0     C57598   6.155   8.699  11.204 -0.4318  0.0850 -0.6799
  437MOL0     O57599   5.872   8.897  11.304  0.0491  0.3913 -0.1017
  437MOL0     C57600   5.810   8.972  10.962  1.0794 -0.2349 -0.0766
  437MOL0     C57601   5.700   8.996  10.876  0.2833 -0.6446  0.4825
  437MOL0     N57602   4.986   9.165  10.699  0.8587  0.4909  0.0624
  437MOL0     N57603   4.879   9.240  10.715  0.4261 -0.1333  0.3354
  437MOL0     C57604   4.686  10.223  10.860  0.0760  0.6822 -0.1562
  437MOL0     C57605   4.714  10.348  10.812  0.0592 -0.4625  0.0641
  437MOL0     C57606   4.689  10.739  10.600  0.5278 -0.8797 -0.2199
  437MOL0     C57607   4.823  10.774  10.635  0.7470  0.1069 -0.2323
  437MOL0     C57608   4.886  10.878  10.571 -0.4070 -0.6563 -0.2417
  437MOL0     C57609   4.819  10.957  10.477 -0.2684 -0.0638  0.1429
  437MOL0     O57610   4.870  11.047  10.391  0.8466  0.1671 -0.2852
  437MOL0     C57611   4.984  11.129  10.429  0.1707 -0.5683 -0.6332
  437MOL0     C57612   5.113  11.073  10.370 -0.4059  1.1343  0.5327
  437MOL0     C57613   5.237  11.149  10.415 -0.3500  0.3963  0.0287
  437MOL0     C57614   5.361  11.091  10.353 -0.1342  0.5792  0.1428
  437MOL0     C57615   5.484  11.167  10.388 -0.0668 -0.0378 -0.8549
  437MOL0     C57616   5.585  11.229  10.421  0.3254 -1.0108 -1.0030
  437MOL0     C57617   4.689  10.918  10.441  0.0561  0.5523 -0.7383
  437MOL0     C57618   4.627  10.806  10.494  1.0899  0.4134  0.4805
  437MOL0     H57619   4.439  10.527  10.881 -1.1048 -0.1322 -2.2827
  437MOL0     H57620   4.380  10.299  10.976  0.8797  2.8125  1.7587
  437MOL0     H57621   4.684   9.946  10.989  0.6209  0.1502 -1.1538
  437MOL0     H57622   4.623   9.955  10.824  0.4575 -0.7918  0.2813
  437MOL0     H57623   4.407   9.848  10.904 -0.3501 -3.3018  1.1038
  437MOL0     H57624   4.463   9.862  11.062  0.6143 -2.4385  1.3598
  437MOL0     H57625   4.664   9.706  10.968  1.2230  0.9137 -0.4927
  437MOL0     H57626   4.565   9.705  10.817  0.6149  3.4860  0.0011
  437MOL0     H57627   4.434   9.633  11.090 -0.5502 -0.5310 -0.0670
  437MOL0     H57628   4.372   9.608  10.936  0.2658  1.2583 -0.7007
  437MOL0     H57629   4.472   9.397  11.050  1.1280 -1.2580  1.2485
  437MOL0     H57630   4.627   9.468  11.056 -1.0092 -3.0122 -0.1060
  437MOL0     H57631   4.631   9.475  10.808  1.5167 -1.4288 -0.8504
  437MOL0     H57632   4.465   9.389  10.814 -1.5504 -1.6839  3.3205
  437MOL0     H57633   4.722   9.264  10.914 -0.4894 -1.2290  2.4977
  437MOL0     H57634   4.561   9.195  10.927 -1.9350 -0.6488 -2.4903
  437MOL0     H57635   4.634   9.295  10.648  5.3589  1.0687  0.2666
  437MOL0     H57636   4.569   9.124  10.714  0.8044 -0.7244  1.1578
  437MOL0     H57637   4.754   8.944  10.627 -0.4879  0.4197 -0.3242
  437MOL0     H57638   5.093   8.937  10.537 -1.2837  0.4426 -0.3073
  437MOL0     H57639   4.975   8.837  10.606 -0.0853 -0.1651 -0.4536
  437MOL0     H57640   5.148   8.789  10.755  1.0584  0.0899  1.2557
  437MOL0     H57641   5.086   8.923  10.846  0.6844 -0.4706  0.8905
  437MOL0     H57642   5.326   8.922  10.666  0.0639  0.2888 -0.6637
  437MOL0     H57643   5.254   9.079  10.709  0.2579  0.7461  0.5192
  437MOL0     H57644   5.374   8.863  10.887  5.2323  0.9942  0.7616
  437MOL0     H57645   5.305   9.017  10.949 -1.7141  0.1979 -1.0480
  437MOL0     H57646   5.462   9.081  11.099  1.4760 -2.7997  2.7234
  437MOL0     H57647   5.654   9.014  11.250  2.8138 -2.7919 -0.0271
  437MOL0     H57648   6.140   9.029  11.291 -1.1633  0.5764 -4.4358
  437MOL0     H57649   6.353   8.949  11.427  1.6877 -1.4618  1.2341
  437MOL0     H57650   6.388   8.798  11.612 -0.1857  0.0952  0.7657
  437MOL0     H57651   6.536   8.863  11.541  0.6436 -0.5408 -1.3299
  437MOL0     H57652   6.584   8.580  11.625  1.0783  0.3457  0.0755
  437MOL0     H57653   6.483   8.653  11.743  0.3730 -0.0889  1.2386
  437MOL0     H57654   6.684   8.842  11.750 -0.2038 -0.9062  2.6118
  437MOL0     H57655   6.761   8.715  11.654  2.5547 -0.8425  2.3410
  437MOL0     H57656   6.638   8.689  11.932 -1.6606 -1.4814 -1.0540
  437MOL0     H57657   6.746   8.573  11.856 -0.1337  0.9672 -2.6047
  437MOL0     H57658   6.857   8.861  11.875 -5.0029  0.1600 -2.3163
  437MOL0     H57659   6.940   8.709  11.896 -1.2990 -3.5983  2.2779
  437MOL0     H57660   6.749   8.798  12.115  0.1198 -0.5994  2.1436
  437MOL0     H57661   6.930   8.815  12.120 -0.0716 -0.6467 -0.3843
  437MOL0     H57662   6.780   8.551  12.094  1.4223  0.8807 -2.9019
  437MOL0     H57663   6.953   8.560  12.088  1.5691  1.8521  0.0192
  437MOL0     H57664   6.749   8.629  12.298  0.6487  0.7889 -0.9029
  437MOL0     H57665   6.916   8.688  12.322 -0.9214  0.3189  0.5507
  437MOL0     H57666   6.289   8.552  11.293 -0.0891 -0.0719 -2.5895
  437MOL0     H57667   6.106   8.629  11.139  2.2637 -3.8689  1.1438
  437MOL0     H57668   5.897   8.946  10.901 -0.9502  1.7253 -4.2587
  437MOL0     H57669   5.724   9.000  10.770  0.2707 -2.4670  0.3752
  437MOL0     H57670   4.759  10.143  10.859  2.4552  2.5674  3.1051
  437MOL0     H57671   4.814  10.373  10.777 -1.3767  2.8065 -2.1481
  437MOL0     H57672   4.877  10.724  10.715  1.7654 -0.7563 -1.4267
  437MOL0     H57673   4.982  10.911  10.611 -0.4728 -1.2318  0.3952
  437MOL0     H57674   4.999  11.125  10.537 -2.2187 -1.6223 -0.2823
  437MOL0     H57675   4.970  11.230  10.390  2.6701 -0.0032 -0.2801
  437MOL0     H57676   5.124  10.971  10.406  2.2130  1.8024  1.9019
  437MOL0     H57677   5.122  11.064  10.261  0.4616  3.7920  0.3158
  437MOL0     H57678   5.252  11.160  10.523 -4.8627 -1.2865  1.0734
  437MOL0     H57679   5.221  11.250  10.376 -0.7713  0.6060  0.7244
  437MOL0     H57680   5.375  10.985  10.375  0.2793  0.7898  0.9491
  437MOL0     H57681   5.351  11.097  10.244 -0.0831 -2.1555 -0.0875
  437MOL0     H57682   5.666  11.294  10.445 -1.1087  0.1307  1.0240
  437MOL0     H57683   4.640  10.978  10.364 -0.5231 -4.2967 -4.6123
  437MOL0     H57684   4.528  10.782  10.458 -0.6020  1.1904  4.1487
  438MOL0     O57685  10.801  10.472   2.074  0.2686 -0.4984 -0.3035
  438MOL0     C57686  10.813  10.352   2.069 -0.5338  0.2372  0.5711
  438MOL0     O57687  10.728  10.265   2.135 -0.5145  0.2369  0.2602
  438MOL0     C57688  10.635  10.324   2.218  0.0401 -0.2047 -0.1876
  438MOL0     C57689  10.494  10.314   2.179 -0.4721  0.3251  0.3546
  438MOL0     C57690  10.396  10.360   2.264 -0.3988 -0.3372  0.5018
  438MOL0     C57691  10.432  10.431   2.392  0.1746 -0.0043  0.2686
  438MOL0     O57692  10.337  10.487   2.466 -0.2091  0.3558 -0.6239
  438MOL0     C57693  10.221  10.413   2.490  0.9232 -0.3649 -0.6506
  438MOL0     C57694  10.112  10.505   2.525 -0.0812 -0.2138 -0.5417
  438MOL0     C57695   9.976  10.432   2.510 -0.4017 -0.2893  0.1932
  438MOL0     C57696   9.864  10.530   2.549 -0.7072 -0.6036 -0.5922
  438MOL0     C57697   9.732  10.464   2.601 -0.9264  0.5430 -0.2962
  438MOL0     C57698   9.678  10.351   2.515 -0.3788 -0.1084  0.4011
  438MOL0     C57699   9.584  10.255   2.591  0.4309  0.2083  0.5160
  438MOL0     C57700   9.537  10.139   2.499 -0.5078  0.7048 -0.4772
  438MOL0     N57701   9.415  10.070   2.554  0.0032 -0.6226  0.2903
  438MOL0     C57702   9.420  10.000   2.664  1.4742  0.0377  0.1067
  438MOL0     C57703   9.299   9.935   2.671 -0.2547  0.0717 -0.8242
  438MOL0     C57704   9.276   9.832   2.778  0.2833  0.1834  1.3770
  438MOL0     C57705   9.258   9.904   2.918  0.2748  0.1308  0.6755
  438MOL0     C57706   9.176   9.812   3.017 -0.4689  0.1336  0.3161
  438MOL0     C57707   9.175   9.870   3.157  0.1961 -0.2109  0.4606
  438MOL0     O57708   9.082   9.978   3.184 -0.5721 -0.4189  0.0050
  438MOL0     C57709   8.951   9.940   3.203 -0.2837  0.1058  0.4443
  438MOL0     C57710   8.926   9.839   3.292 -0.9332  0.0272  0.3204
  438MOL0     C57711   8.793   9.801   3.315 -0.1915 -0.0822 -0.1249
  438MOL0     C57712   8.692   9.860   3.228  0.1075 -0.8740  0.7360
  438MOL0     C57713   8.551   9.800   3.227 -0.9739  0.6127  0.3517
  438MOL0     O57714   8.512   9.721   3.333 -0.0722  0.2875  0.9116
  438MOL0     C57715   8.386   9.667   3.322 -0.1447  0.5381 -0.0420
  438MOL0     C57716   8.356   9.539   3.273 -0.0589 -0.1604  0.3852
  438MOL0     C57717   8.224   9.502   3.255 -0.0925 -0.4051 -0.2331
  438MOL0     C57718   8.120   9.586   3.299  0.7073 -0.8484  0.1855
  438MOL0     O57719   7.987   9.563   3.283 -0.1985  0.6028 -0.3740
  438MOL0     C57720   7.955   9.425   3.295 -0.9101 -0.6306  0.0230
  438MOL0     C57721   7.807   9.421   3.306 -0.0401 -0.0885  0.7581
  438MOL0     C57722   7.756   9.501   3.428  0.2261 -0.4946  0.2462
  438MOL0     C57723   7.617   9.451   3.476 -0.1817  0.3156 -0.1597
  438MOL0     C57724   7.618   9.406   3.619  0.2316 -0.0151 -0.1421
  438MOL0     C57725   7.491   9.347   3.651  0.8945  0.6910  0.7244
  438MOL0     C57726   7.471   9.326   3.801 -0.4130 -0.8604 -0.2593
  438MOL0     C57727   7.341   9.245   3.829  0.5223  0.1088  0.2844
  438MOL0    Cl57728   7.197   9.339   3.791 -0.1316 -0.2603  0.3498
  438MOL0     C57729   8.154   9.712   3.357  0.2393  0.0267 -0.7138
  438MOL0     C57730   8.287   9.751   3.362 -0.1346 -0.2274 -0.1049
  438MOL0     O57731   8.475   9.827   3.128  0.2474  0.1266 -0.3211
  438MOL0     C57732   8.719   9.963   3.138  0.1581  0.0136  0.0764
  438MOL0     C57733   8.854  10.000   3.122  0.1266 -0.0136 -0.4290
  438MOL0     N57734   9.217   9.981   2.570 -0.3012 -0.2818  0.0877
  438MOL0     N57735   9.287  10.075   2.509 -0.9401 -0.8412  0.0597
  438MOL0     C57736  10.569  10.447   2.421  1.1302 -0.5095 -0.3396
  438MOL0     C57737  10.664  10.392   2.341 -0.6039  0.2171 -0.2653
  438MOL0     C57738  10.921  10.289   1.988  0.7038  0.3602 -0.9150
  438MOL0     C57739  11.036  10.368   1.946  0.1116 -0.2456  0.0765
  438MOL0     C57740  11.152  10.308   1.890 -0.5721  0.1608  0.4049
  438MOL0     C57741  11.146  10.174   1.852 -0.3344  0.3161 -0.3775
  438MOL0     O57742  11.238  10.115   1.773 -0.2473  0.1832 -0.3140
  438MOL0     C57743  11.375  10.124   1.820 -0.3281 -0.4530 -0.4215
  438MOL0     C57744  11.476  10.050   1.740 -0.8209  0.4941  0.4780
  438MOL0     C57745  11.464  10.090   1.596  0.0793 -0.0485  0.8826
  438MOL0     C57746  11.552   9.997   1.503  0.1942 -0.7070  1.6067
  438MOL0     C57747  11.552  10.034   1.360  0.4357 -0.2486  0.1213
  438MOL0     C57748  11.516  10.078   1.251  0.0174  0.6238 -0.0863
  438MOL0     C57749  11.028  10.099   1.874  0.1515  0.2626 -0.3090
  438MOL0     C57750  10.919  10.155   1.946  0.1506  0.1359 -0.0540
  438MOL0     H57751  10.481  10.258   2.087  1.0148 -2.8436  1.9100
  438MOL0     H57752  10.296  10.342   2.226  0.1624  0.3503 -1.4223
  438MOL0     H57753  10.240  10.342   2.570  0.6312 -0.9499 -1.0901
  438MOL0     H57754  10.189  10.357   2.401 -1.9498 -1.3616  0.8835
  438MOL0     H57755  10.098  10.585   2.451 -0.5177 -0.6281 -0.9221
  438MOL0     H57756  10.121  10.555   2.622 -0.4198 -0.0256 -0.6035
  438MOL0     H57757   9.970  10.345   2.575  0.4613 -0.1085  0.5348
  438MOL0     H57758   9.964  10.397   2.407 -0.4354 -0.1809  0.1602
  438MOL0     H57759   9.895  10.606   2.621 -1.9755 -1.2993  0.7392
  438MOL0     H57760   9.843  10.585   2.456 -0.1156 -2.2559 -1.7576
  438MOL0     H57761   9.650  10.537   2.603 -2.1483 -0.7790 -0.4475
  438MOL0     H57762   9.766  10.420   2.695  2.2053 -1.5703 -2.2165
  438MOL0     H57763   9.759  10.299   2.464 -3.2802 -2.1018 -2.5799
  438MOL0     H57764   9.626  10.384   2.425 -1.2973 -2.6674 -0.1199
  438MOL0     H57765   9.620  10.220   2.688 -1.4805 -1.9428  0.5323
  438MOL0     H57766   9.498  10.320   2.611  0.4141  0.9263 -1.6004
  438MOL0     H57767   9.609  10.056   2.496 -2.0363 -0.7423  0.7169
  438MOL0     H57768   9.527  10.182   2.399 -1.5378  0.7890 -0.3459
  438MOL0     H57769   9.506   9.987   2.728 -0.6879  1.0469  3.5015
  438MOL0     H57770   9.353   9.755   2.782 -0.2101 -0.3805  0.4188
  438MOL0     H57771   9.184   9.777   2.755  1.1743 -2.3359  3.4058
  438MOL0     H57772   9.193   9.991   2.908  0.9492  0.5320 -0.3990
  438MOL0     H57773   9.361   9.933   2.943  0.1341  1.0290  0.2584
  438MOL0     H57774   9.075   9.797   2.979 -0.2104 -0.2138 -0.2456
  438MOL0     H57775   9.217   9.710   3.021 -2.5775 -0.9308 -2.1881
  438MOL0     H57776   9.276   9.905   3.183 -0.1577  0.4407  0.9839
  438MOL0     H57777   9.158   9.782   3.220 -2.9403 -1.4581 -1.8527
  438MOL0     H57778   9.004   9.816   3.364 -2.5581  1.0975  2.5394
  438MOL0     H57779   8.763   9.723   3.384 -2.8436 -2.0871 -3.2637
  438MOL0     H57780   8.447   9.486   3.247  0.1936  0.4761 -0.0509
  438MOL0     H57781   8.203   9.402   3.217  2.4713 -0.7662 -0.8596
  438MOL0     H57782   7.998   9.387   3.388 -2.0901  0.9206  1.2453
  438MOL0     H57783   7.995   9.364   3.212  1.7435  0.6904  0.2080
  438MOL0     H57784   7.770   9.318   3.305  1.9719 -0.8619 -1.1641
  438MOL0     H57785   7.763   9.473   3.221 -0.2796  1.1512  1.6096
  438MOL0     H57786   7.756   9.610   3.412  0.1363 -0.7307 -1.6841
  438MOL0     H57787   7.835   9.495   3.503  3.3556 -0.9149 -2.8072
  438MOL0     H57788   7.548   9.533   3.455 -0.1672  0.2891 -0.3060
  438MOL0     H57789   7.573   9.377   3.410 -0.5552  0.2539  0.1556
  438MOL0     H57790   7.645   9.491   3.683  0.5289  1.5159 -2.1797
  438MOL0     H57791   7.696   9.331   3.629  1.4951  1.4454  1.7617
  438MOL0     H57792   7.492   9.252   3.597 -0.4992  2.3595 -2.5097
  438MOL0     H57793   7.405   9.407   3.620  0.1382  0.8533  2.9922
  438MOL0     H57794   7.553   9.271   3.847 -0.8270 -2.2218 -1.1088
  438MOL0     H57795   7.476   9.426   3.846  2.5241 -1.8407  1.9001
  438MOL0     H57796   7.334   9.222   3.936  1.0543  1.7443  0.7105
  438MOL0     H57797   7.334   9.154   3.769  1.9201 -0.0801  0.3815
  438MOL0     H57798   8.063   9.761   3.392 -0.5041 -1.0782 -1.0395
  438MOL0     H57799   8.312   9.851   3.397  3.2609 -0.8932 -0.3482
  438MOL0     H57800   8.645   9.996   3.066  0.7751 -3.1579 -2.2067
  438MOL0     H57801   8.884  10.074   3.049  1.6385 -0.7429 -0.5843
  438MOL0     H57802  10.589  10.501   2.513 -1.3948 -0.3075  0.1751
  438MOL0     H57803  10.768  10.410   2.369  0.0565  1.0305 -2.9590
  438MOL0     H57804  11.032  10.473   1.972  0.9119  0.1100 -1.1231
  438MOL0     H57805  11.235  10.373   1.868  0.5743 -1.5913 -0.7347
  438MOL0     H57806  11.369  10.094   1.925 -1.5759  1.7627  0.1856
  438MOL0     H57807  11.406  10.229   1.824 -2.0788  0.0450  1.9608
  438MOL0     H57808  11.571  10.084   1.783  0.1922 -1.9405  0.3481
  438MOL0     H57809  11.470   9.941   1.741  0.5850  0.2858 -2.6925
  438MOL0     H57810  11.499  10.193   1.589 -0.5588  0.1876  1.1599
  438MOL0     H57811  11.360  10.086   1.562  0.0271  2.3699  0.5829
  438MOL0     H57812  11.656  10.000   1.537  2.8375 -0.2340 -5.0698
  438MOL0     H57813  11.524   9.891   1.508 -0.0089 -0.8639 -1.2848
  438MOL0     H57814  11.492  10.101   1.149 -1.7376  1.3898  0.4589
  438MOL0     H57815  11.016   9.997   1.838  1.0443  0.5114 -1.3648
  438MOL0     H57816  10.834  10.092   1.969 -1.1087  1.7204 -0.2161
  439MOL0     O57817   6.820   8.335   1.825  0.0825 -0.1104  0.2279
  439MOL0     C57818   6.803   8.374   1.706 -1.2313  0.0881  0.2625
  439MOL0     O57819   6.706   8.335   1.617  0.1510 -0.1741  0.5542
  439MOL0     C57820   6.622   8.223   1.634  0.1594 -0.1137  0.4578
  439MOL0     C57821   6.657   8.114   1.704  0.2785  0.0520 -0.3299
  439MOL0     C57822   6.569   8.008   1.731 -0.0665  0.3609  0.3557
  439MOL0     C57823   6.439   8.010   1.691 -0.4978  0.1286  0.0208
  439MOL0     O57824   6.368   7.915   1.754  0.3995  0.1549  0.0062
  439MOL0     C57825   6.246   7.965   1.817 -0.4479  0.3656  0.1237
  439MOL0     C57826   6.168   7.862   1.898  0.2759 -0.4152 -0.4276
  439MOL0     C57827   6.050   7.805   1.818  0.1628 -0.3724 -0.1355
  439MOL0     C57828   5.999   7.682   1.878 -0.6042  0.5742 -0.4554
  439MOL0     C57829   5.871   7.626   1.811 -0.1026  0.2295 -0.2554
  439MOL0     C57830   5.747   7.717   1.823  0.7923 -0.0020  0.6454
  439MOL0     C57831   5.616   7.649   1.772 -0.0799 -0.1428  0.0970
  439MOL0     C57832   5.599   7.518   1.849  0.6842  0.4355  0.3527
  439MOL0     N57833   5.461   7.477   1.838 -0.0132 -0.2585 -0.0637
  439MOL0     C57834   5.408   7.421   1.726 -0.0653 -0.4627 -0.7394
  439MOL0     C57835   5.283   7.386   1.767 -0.7838  0.3037  0.0543
  439MOL0     C57836   5.186   7.305   1.689  0.3465 -0.1581 -0.2315
  439MOL0     C57837   5.126   7.389   1.578  0.0867 -0.1315 -0.8301
  439MOL0     C57838   5.046   7.511   1.622 -0.0782 -0.0157 -0.2266
  439MOL0     C57839   4.915   7.477   1.676 -0.1208 -0.5038  0.3395
  439MOL0     O57840   4.834   7.597   1.708  0.5065 -0.2000  0.0238
  439MOL0     C57841   4.700   7.592   1.685  0.1405  0.7575 -0.3851
  439MOL0     C57842   4.629   7.473   1.674  0.5292 -0.1966  0.3197
  439MOL0     C57843   4.492   7.478   1.683  0.0910 -0.2231  0.7201
  439MOL0     C57844   4.423   7.600   1.680  0.2609  0.7471  0.7808
  439MOL0     C57845   4.275   7.600   1.682 -0.1823  0.1340  0.7213
  439MOL0     O57846   4.215   7.475   1.666  0.0646 -0.2912 -0.4297
  439MOL0     C57847   4.079   7.462   1.676  0.3082  0.3494 -0.2741
  439MOL0     C57848   4.033   7.433   1.807  0.0803  0.5562 -0.0264
  439MOL0     C57849   3.889   7.420   1.825  0.1382  0.2176  1.1599
  439MOL0     C57850   3.792   7.440   1.717 -0.2274 -0.8110  0.3055
  439MOL0     O57851   3.657   7.413   1.742  0.1765 -0.2998 -0.2032
  439MOL0     C57852   3.562   7.502   1.687 -1.2366  1.1896  0.6955
  439MOL0     C57853   3.438   7.504   1.776 -0.3171 -0.0750 -0.3880
  439MOL0     C57854   3.342   7.589   1.706  0.7925  0.5080  0.2360
  439MOL0     C57855   3.199   7.578   1.758 -0.6363  0.2197 -0.6262
  439MOL0     C57856   3.118   7.698   1.720  0.3942 -0.0157  0.6752
  439MOL0     C57857   2.960   7.678   1.751  0.5830  0.3390 -1.4255
  439MOL0     C57858   2.889   7.605   1.638 -0.0417  0.3286  0.1365
  439MOL0     C57859   2.737   7.580   1.652  0.1573  0.1891  0.1980
  439MOL0    Cl57860   2.646   7.732   1.683 -0.3776  0.2283  0.0200
  439MOL0     C57861   3.843   7.468   1.590  0.2363  0.2354 -0.3206
  439MOL0     C57862   3.985   7.479   1.572  0.0617 -0.0562  0.3148
  439MOL0     O57863   4.212   7.702   1.709 -0.2188  0.3104  0.6709
  439MOL0     C57864   4.497   7.719   1.682  0.4094  0.4850 -0.0779
  439MOL0     C57865   4.637   7.712   1.680  0.6889  0.2113  0.0291
  439MOL0     N57866   5.257   7.446   1.887  0.7100  0.2325 -0.4873
  439MOL0     N57867   5.370   7.500   1.934 -0.2308  0.0431  0.1948
  439MOL0     C57868   6.396   8.121   1.618  0.3152 -0.6177  0.1606
  439MOL0     C57869   6.482   8.225   1.591 -0.0847 -0.1703  0.0763
  439MOL0     C57870   6.906   8.467   1.653 -0.1055 -0.2690  0.1139
  439MOL0     C57871   6.916   8.476   1.510  0.1131 -0.3975 -0.4256
  439MOL0     C57872   6.996   8.584   1.459  0.3009 -0.2321  0.3673
  439MOL0     C57873   7.078   8.663   1.541 -0.5190  0.7698  0.3197
  439MOL0     O57874   7.165   8.759   1.488  0.1846  0.3156  0.2789
  439MOL0     C57875   7.128   8.828   1.370  0.2428 -1.2892  0.2623
  439MOL0     C57876   6.997   8.908   1.403  0.1185 -0.8626 -0.1341
  439MOL0     C57877   7.037   9.017   1.500  0.2961  0.3606  0.0799
  439MOL0     C57878   6.928   9.118   1.523  0.0999 -0.6002 -0.3199
  439MOL0     C57879   6.817   9.065   1.596 -0.2965 -1.3347 -0.3595
  439MOL0     C57880   6.716   9.023   1.639 -0.0397 -0.9385 -0.5168
  439MOL0     C57881   7.071   8.646   1.682  0.3551 -0.3169 -0.4940
  439MOL0     C57882   6.986   8.552   1.740 -0.2281  0.3395  0.1502
  439MOL0     H57883   6.751   8.097   1.757 -0.6884 -1.6321  0.9612
  439MOL0     H57884   6.597   7.926   1.797  1.7641 -0.6261 -1.5189
  439MOL0     H57885   6.174   7.998   1.741 -0.6271  0.2054  0.2234
  439MOL0     H57886   6.281   8.054   1.870  0.3447 -0.1346  0.4734
  439MOL0     H57887   6.122   7.918   1.980 -1.6171  1.1610 -2.4413
  439MOL0     H57888   6.234   7.784   1.936 -2.8283 -1.7875  2.7689
  439MOL0     H57889   6.090   7.776   1.720  1.0472 -0.1401  0.1514
  439MOL0     H57890   5.971   7.879   1.801  1.9715  1.0513 -3.0699
  439MOL0     H57891   6.074   7.603   1.876 -1.5136 -0.4448  1.8140
  439MOL0     H57892   5.994   7.699   1.986 -0.3934 -3.5748  0.3570
  439MOL0     H57893   5.856   7.521   1.838  4.6203 -1.4962 -3.0272
  439MOL0     H57894   5.888   7.619   1.703 -3.1879  0.1240 -0.8144
  439MOL0     H57895   5.773   7.805   1.762 -0.1112 -1.0725 -1.3924
  439MOL0     H57896   5.730   7.750   1.926 -0.1277 -1.0432  0.8356
  439MOL0     H57897   5.535   7.720   1.790  0.9917  1.5044 -1.2645
  439MOL0     H57898   5.611   7.629   1.665  0.4434  0.4302 -0.0407
  439MOL0     H57899   5.611   7.530   1.957  0.7070  2.2252  0.1816
  439MOL0     H57900   5.662   7.440   1.803  0.0683 -0.4688  0.9955
  439MOL0     H57901   5.451   7.384   1.634 -0.1742 -2.1706 -0.1493
  439MOL0     H57902   5.114   7.254   1.754 -1.4887  1.3994 -0.9602
  439MOL0     H57903   5.251   7.228   1.646  0.6597  0.5545 -1.0639
  439MOL0     H57904   5.061   7.318   1.525 -1.5121  0.0526  0.7866
  439MOL0     H57905   5.210   7.419   1.515  0.4308 -0.1091 -0.3618
  439MOL0     H57906   5.108   7.566   1.694  0.9259  1.2074 -1.9637
  439MOL0     H57907   5.041   7.574   1.533  0.0500  3.8689  2.2555
  439MOL0     H57908   4.916   7.415   1.766 -1.0886 -0.4279  0.4140
  439MOL0     H57909   4.870   7.421   1.594 -0.4825  0.8610 -0.4240
  439MOL0     H57910   4.684   7.379   1.667  0.4543 -0.1442 -2.0039
  439MOL0     H57911   4.436   7.385   1.682 -0.1924 -0.0818 -1.5503
  439MOL0     H57912   4.104   7.429   1.888 -0.1830 -0.1862  0.1749
  439MOL0     H57913   3.843   7.387   1.918 -0.2018  0.7410  1.1875
  439MOL0     H57914   3.535   7.466   1.587  0.0158  2.4545 -0.1315
  439MOL0     H57915   3.605   7.603   1.686  3.8477 -0.6731 -0.4552
  439MOL0     H57916   3.466   7.543   1.874 -1.3316  1.9495 -0.8595
  439MOL0     H57917   3.409   7.399   1.783  0.4892 -0.5625 -3.1920
  439MOL0     H57918   3.348   7.564   1.600  1.5378  2.7313 -0.3088
  439MOL0     H57919   3.379   7.692   1.712  0.1889  0.7428  0.0387
  439MOL0     H57920   3.153   7.484   1.728 -0.2678 -0.2494  0.2423
  439MOL0     H57921   3.206   7.582   1.867 -0.2533  1.2788 -0.6802
  439MOL0     H57922   3.131   7.726   1.615  0.8101  2.1146  1.2564
  439MOL0     H57923   3.161   7.787   1.766  1.1300  0.3072 -0.5739
  439MOL0     H57924   2.913   7.776   1.757  3.1438  1.6384 -0.9271
  439MOL0     H57925   2.948   7.627   1.848  0.2311  3.7872  0.4862
  439MOL0     H57926   2.903   7.671   1.551 -0.5380  3.5899  2.3412
  439MOL0     H57927   2.928   7.504   1.623 -0.9414 -0.5533  3.0305
  439MOL0     H57928   2.717   7.501   1.724  2.7708 -0.1784  0.6099
  439MOL0     H57929   2.708   7.547   1.552  2.4105  1.1313 -0.8358
  439MOL0     H57930   3.781   7.471   1.501  0.1197  2.6269 -0.2354
  439MOL0     H57931   4.029   7.481   1.473  2.3622  2.5260  1.2320
  439MOL0     H57932   4.445   7.814   1.677  0.3610  0.4087 -4.4130
  439MOL0     H57933   4.704   7.796   1.685  2.8466 -1.4654  1.1406
  439MOL0     H57934   6.291   8.131   1.591  0.4580  0.9035  0.0764
  439MOL0     H57935   6.444   8.307   1.531 -3.0154 -1.9595 -0.7303
  439MOL0     H57936   6.865   8.408   1.443 -1.7096  0.4757  0.0047
  439MOL0     H57937   7.002   8.603   1.352  0.7382  0.0050  0.4306
  439MOL0     H57938   7.116   8.765   1.282 -1.1352 -0.7419  0.0333
  439MOL0     H57939   7.206   8.898   1.340  0.0004  0.3843  3.1116
  439MOL0     H57940   6.960   8.951   1.310 -0.7996  2.1032  1.4603
  439MOL0     H57941   6.919   8.855   1.458 -0.7727  2.3587  2.0428
  439MOL0     H57942   7.124   9.065   1.456 -0.8350 -0.0351 -2.7694
  439MOL0     H57943   7.062   8.986   1.602  3.2403 -0.8820 -0.9020
  439MOL0     H57944   6.969   9.203   1.579 -2.4533  0.9464 -0.6542
  439MOL0     H57945   6.906   9.173   1.431  0.2925  1.5534  0.8666
  439MOL0     H57946   6.630   8.967   1.670 -0.5669 -1.2178 -2.3689
  439MOL0     H57947   7.134   8.707   1.746  1.4683 -0.1327 -1.7191
  439MOL0     H57948   6.986   8.534   1.847 -1.3887  1.8479  0.4266
  440MOL0     O57949   5.989   8.498   5.511  0.1191  0.6028 -0.3134
  440MOL0     C57950   5.979   8.386   5.547 -0.3060  0.7394 -0.5142
  440MOL0     O57951   5.863   8.331   5.586 -0.5837  0.0034 -0.0564
  440MOL0     C57952   5.739   8.399   5.587 -0.7377 -0.6347 -0.1011
  440MOL0     C57953   5.658   8.380   5.696  0.3894 -0.7145 -0.5205
  440MOL0     C57954   5.539   8.460   5.712 -0.5008 -0.5544 -0.4271
  440MOL0     C57955   5.497   8.530   5.603  0.1896  0.7169 -0.3865
  440MOL0     O57956   5.370   8.586   5.599  0.0683  0.4588  0.3986
  440MOL0     C57957   5.254   8.492   5.602  0.9835 -0.1743  0.2160
  440MOL0     C57958   5.131   8.581   5.566 -0.6685  0.1828  0.3164
  440MOL0     C57959   4.991   8.520   5.561  0.3306  0.1401 -0.1927
  440MOL0     C57960   4.964   8.432   5.440  0.1493  0.1459 -0.1527
  440MOL0     C57961   4.810   8.410   5.409 -0.1948  0.6168  0.9670
  440MOL0     C57962   4.740   8.537   5.356  0.0251  0.2135  0.0645
  440MOL0     C57963   4.596   8.514   5.341  0.3732 -0.0116 -0.5996
  440MOL0     C57964   4.571   8.452   5.194  0.1901  0.0824 -0.5154
  440MOL0     N57965   4.426   8.408   5.182  0.1473  0.4682  0.1786
  440MOL0     C57966   4.371   8.295   5.237  0.1788 -0.1858  0.7487
  440MOL0     C57967   4.233   8.306   5.211 -0.6871 -0.1911  0.5112
  440MOL0     C57968   4.133   8.212   5.274  0.1849 -0.0016  0.4693
  440MOL0     C57969   4.014   8.187   5.180 -0.4161  0.2993  0.1632
  440MOL0     C57970   3.888   8.153   5.250 -0.8209  0.1156  0.3563
  440MOL0     C57971   3.786   8.139   5.137 -0.3456  0.0581  0.2992
  440MOL0     O57972   3.797   8.010   5.068 -0.3197 -0.1393 -0.1102
  440MOL0     C57973   3.719   7.983   4.960  0.4795  0.3237 -0.2468
  440MOL0     C57974   3.697   7.851   4.923 -0.1368  0.3596  0.2024
  440MOL0     C57975   3.593   7.821   4.839 -0.5130 -0.0300  0.1320
  440MOL0     C57976   3.514   7.916   4.780 -0.4262 -0.5082  0.4402
  440MOL0     C57977   3.399   7.881   4.703 -1.0415  0.4033 -0.5450
  440MOL0     O57978   3.318   7.981   4.669  1.1144 -0.4353 -0.4077
  440MOL0     C57979   3.204   7.959   4.590 -0.4123  0.2442 -0.0455
  440MOL0     C57980   3.079   7.998   4.643 -0.1769 -0.0645 -0.0009
  440MOL0     C57981   2.961   7.968   4.567 -0.1231  0.0585 -0.3833
  440MOL0     C57982   2.973   7.905   4.436 -0.1426 -0.5266  0.1387
  440MOL0     O57983   2.862   7.881   4.354 -1.0652  0.1303 -0.0099
  440MOL0     C57984   2.727   7.908   4.407 -0.6196 -0.3986 -0.3423
  440MOL0     C57985   2.637   7.835   4.308 -0.2846 -0.3260 -0.2718
  440MOL0     C57986   2.487   7.863   4.339  0.1347  0.7950  0.7404
  440MOL0     C57987   2.433   7.832   4.479  0.5742 -0.3776  0.5866
  440MOL0     C57988   2.278   7.832   4.480  0.7465  0.6085  0.4350
  440MOL0     C57989   2.200   7.787   4.606  0.2707 -0.0656 -0.3472
  440MOL0     C57990   2.050   7.753   4.573 -0.1145  0.2394 -0.4476
  440MOL0     C57991   1.946   7.777   4.684  0.2998  0.2937  0.1932
  440MOL0    Cl57992   1.806   7.671   4.632  0.1084  0.2010 -0.1290
  440MOL0     C57993   3.102   7.873   4.394 -0.2017  0.6714  0.2612
  440MOL0     C57994   3.216   7.902   4.463  0.2129 -0.2259 -0.3077
  440MOL0     O57995   3.388   7.764   4.664 -0.1684 -0.5287  0.4746
  440MOL0     C57996   3.552   8.050   4.805  0.0178  0.4347  0.3033
  440MOL0     C57997   3.654   8.090   4.893  0.1727  0.3361 -1.0597
  440MOL0     N57998   4.210   8.429   5.143  0.6877  0.2975 -1.0521
  440MOL0     N57999   4.330   8.485   5.126 -0.2416 -0.3085 -0.9051
  440MOL0     C58000   5.580   8.544   5.490 -0.1518 -0.2705  0.7228
  440MOL0     C58001   5.702   8.488   5.483  0.0338  0.4230 -0.0567
  440MOL0     C58002   6.100   8.314   5.571 -0.1826 -0.1760  0.2679
  440MOL0     C58003   6.227   8.367   5.547 -0.6469 -0.0975  0.3039
  440MOL0     C58004   6.353   8.298   5.570  0.6656  0.2052 -0.4964
  440MOL0     C58005   6.343   8.167   5.616 -0.4781 -0.4092  1.2943
  440MOL0     O58006   6.469   8.107   5.639 -0.9944  0.8177 -0.2144
  440MOL0     C58007   6.470   7.982   5.727  0.6764 -0.1116  0.3009
  440MOL0     C58008   6.613   7.937   5.761  0.0423  0.6438  0.2910
  440MOL0     C58009   6.611   7.788   5.807 -0.0950  0.5927 -0.3689
  440MOL0     C58010   6.681   7.701   5.715  0.5481  0.6887 -0.1180
  440MOL0     C58011   6.620   7.689   5.580  0.1780  0.5747  0.3701
  440MOL0     C58012   6.560   7.684   5.477 -0.6300  0.1832  0.6175
  440MOL0     C58013   6.222   8.112   5.637  1.0651  0.5382  0.9700
  440MOL0     C58014   6.095   8.178   5.612  0.6755 -0.8868 -0.2446
  440MOL0     H58015   5.704   8.337   5.784 -1.6444  0.6584  1.3213
  440MOL0     H58016   5.495   8.465   5.811 -0.1545  0.1993 -0.2970
  440MOL0     H58017   5.247   8.432   5.693 -0.4189 -0.6347 -0.1582
  440MOL0     H58018   5.266   8.420   5.520  1.4128  0.6018 -0.4122
  440MOL0     H58019   5.146   8.629   5.469  0.7080  0.6554  0.7396
  440MOL0     H58020   5.124   8.656   5.645  0.8798 -0.8490  1.4900
  440MOL0     H58021   4.915   8.599   5.566  0.2854  0.0218  2.5819
  440MOL0     H58022   4.974   8.464   5.653  0.7094  1.8595  0.9829
  440MOL0     H58023   5.011   8.483   5.355  1.0123 -1.6218 -0.7754
  440MOL0     H58024   5.014   8.336   5.455 -1.2750 -0.2626  2.6702
  440MOL0     H58025   4.764   8.379   5.504 -2.2512  1.6469  0.3486
  440MOL0     H58026   4.796   8.330   5.336 -0.6030  2.5816 -1.2117
  440MOL0     H58027   4.788   8.565   5.262  1.0578 -1.8788 -0.1046
  440MOL0     H58028   4.746   8.621   5.425 -2.5358  0.2132  0.3688
  440MOL0     H58029   4.560   8.445   5.417  2.6334 -3.0238 -2.0000
  440MOL0     H58030   4.546   8.610   5.352 -0.6015  0.0661 -4.2970
  440MOL0     H58031   4.628   8.360   5.204 -0.4501 -0.0929  2.3602
  440MOL0     H58032   4.604   8.520   5.114 -0.1510  2.7734  1.4917
  440MOL0     H58033   4.415   8.219   5.302 -3.3671 -1.7908  1.5467
  440MOL0     H58034   4.094   8.261   5.363 -0.7636 -1.1501  0.7132
  440MOL0     H58035   4.183   8.116   5.292  1.5691 -0.0041 -2.6071
  440MOL0     H58036   4.038   8.098   5.122  3.0715 -0.1083  1.9713
  440MOL0     H58037   3.998   8.269   5.110 -2.6380 -1.2723 -1.2997
  440MOL0     H58038   3.903   8.059   5.303 -0.7463  0.4034  0.8564
  440MOL0     H58039   3.860   8.224   5.329 -0.8057 -1.2574  1.6313
  440MOL0     H58040   3.800   8.220   5.064 -2.8032 -0.4676 -0.8379
  440MOL0     H58041   3.682   8.152   5.170 -0.6751 -1.5290 -0.0623
  440MOL0     H58042   3.735   7.774   4.989 -2.5808 -0.2976  0.9751
  440MOL0     H58043   3.573   7.716   4.821  0.7866 -0.5912  1.6839
  440MOL0     H58044   3.063   8.042   4.741 -2.5928 -0.0906 -0.3285
  440MOL0     H58045   2.868   8.001   4.612  0.6052  0.8240  0.5877
  440MOL0     H58046   2.713   8.016   4.418 -1.4772 -0.7510  3.1670
  440MOL0     H58047   2.704   7.877   4.509 -0.1134  3.6242  1.1700
  440MOL0     H58048   2.663   7.730   4.319  0.2459 -0.0026  1.8624
  440MOL0     H58049   2.660   7.865   4.205 -1.8278 -3.2231 -1.6031
  440MOL0     H58050   2.446   7.800   4.260  1.4322  0.9111 -0.0593
  440MOL0     H58051   2.462   7.966   4.312  3.2408  0.6205 -3.9343
  440MOL0     H58052   2.483   7.739   4.509  1.2258  0.3411  1.8062
  440MOL0     H58053   2.475   7.907   4.547  1.4377 -1.4243  1.2488
  440MOL0     H58054   2.254   7.749   4.413 -0.4966  1.2110  0.0973
  440MOL0     H58055   2.228   7.920   4.438 -0.3720 -0.2526 -0.0945
  440MOL0     H58056   2.190   7.865   4.683 -2.3726 -0.4341 -0.2146
  440MOL0     H58057   2.244   7.698   4.651  0.6522  0.8374  1.1366
  440MOL0     H58058   2.018   7.808   4.484  0.4682 -1.6316 -1.8762
  440MOL0     H58059   2.049   7.648   4.544 -2.1897  0.4070 -1.1356
  440MOL0     H58060   1.918   7.883   4.688 -1.1541 -0.0425 -0.4953
  440MOL0     H58061   1.993   7.760   4.781  0.6334  0.5027  0.0681
  440MOL0     H58062   3.119   7.836   4.294 -1.2380  0.6781  0.0716
  440MOL0     H58063   3.314   7.866   4.432  0.4918 -1.7034  2.0727
  440MOL0     H58064   3.499   8.119   4.741  0.5495  1.4751  0.9591
  440MOL0     H58065   3.681   8.196   4.891  4.7044 -0.6053 -0.9731
  440MOL0     H58066   5.546   8.609   5.410  0.6655 -2.2826 -1.3911
  440MOL0     H58067   5.757   8.507   5.391  1.4325  0.2119  0.6985
  440MOL0     H58068   6.229   8.475   5.535  1.4675 -0.1267 -0.0278
  440MOL0     H58069   6.449   8.348   5.571  0.8044 -0.0287  1.2458
  440MOL0     H58070   6.412   7.891   5.705 -1.0698  0.6022  1.7543
  440MOL0     H58071   6.429   8.015   5.822  2.3501  1.5266  0.5119
  440MOL0     H58072   6.675   7.941   5.671  0.3233 -1.7312  0.3263
  440MOL0     H58073   6.656   7.997   5.842 -0.2096  0.1263  0.8207
  440MOL0     H58074   6.515   7.746   5.839 -0.3804  2.6359  1.7665
  440MOL0     H58075   6.680   7.790   5.892 -0.9595  0.0628  0.3608
  440MOL0     H58076   6.782   7.742   5.708  2.0352 -2.3548  1.5445
  440MOL0     H58077   6.685   7.610   5.775 -0.3177  1.6889  1.5076
  440MOL0     H58078   6.527   7.680   5.375  1.8390 -1.1615 -0.2050
  440MOL0     H58079   6.213   8.011   5.675 -2.3482 -0.4822 -2.0034
  440MOL0     H58080   6.000   8.127   5.627  0.2922  0.4686  2.6855
  441MOL0     O58081   5.213   5.683   5.848 -0.3689  0.8379  0.2484
  441MOL0     C58082   5.191   5.777   5.774 -0.0391  0.7636  0.0136
  441MOL0     O58083   5.099   5.781   5.664 -1.0778  0.2961 -0.1276
  441MOL0     C58084   5.064   5.656   5.608  0.4675  0.1752 -0.8903
  441MOL0     C58085   5.164   5.558   5.611 -0.0999 -0.2971 -0.4099
  441MOL0     C58086   5.154   5.426   5.566  0.3458 -0.6012  0.8908
  441MOL0     C58087   5.023   5.398   5.515 -0.4298 -0.0981  0.3992
  441MOL0     O58088   4.991   5.266   5.471  0.1638 -0.1845 -0.4826
  441MOL0     C58089   4.956   5.172   5.582  0.1414 -0.4424 -0.5480
  441MOL0     C58090   4.836   5.080   5.546  0.1154 -0.5143  0.3716
  441MOL0     C58091   4.852   4.999   5.420 -0.1204  0.6018  0.2500
  441MOL0     C58092   4.728   4.913   5.390  0.1780 -0.3231  1.7510
  441MOL0     C58093   4.587   4.977   5.375  0.0291 -0.0344 -0.0187
  441MOL0     C58094   4.568   5.116   5.313  0.3705  0.8336 -0.4639
  441MOL0     C58095   4.602   5.108   5.162  0.2628 -0.1782 -0.5360
  441MOL0     C58096   4.611   5.246   5.108 -0.0131 -0.7939  0.5810
  441MOL0     N58097   4.568   5.261   4.969 -0.1678 -0.8095  0.0017
  441MOL0     C58098   4.472   5.355   4.937  0.8817  0.1234  0.9634
  441MOL0     C58099   4.490   5.377   4.798 -0.3319 -0.6427 -0.7020
  441MOL0     C58100   4.394   5.464   4.706 -0.7120  0.3371 -0.6785
  441MOL0     C58101   4.285   5.373   4.661  0.6604  0.0322  0.2908
  441MOL0     C58102   4.244   5.389   4.514 -1.3060 -1.3799 -0.7793
  441MOL0     C58103   4.186   5.528   4.479 -0.1991  0.2398  0.0412
  441MOL0     O58104   4.110   5.516   4.359 -0.2147  0.1304 -0.1682
  441MOL0     C58105   4.017   5.616   4.327  0.4539  0.2381  0.2728
  441MOL0     C58106   3.922   5.583   4.227 -0.8763 -0.1316  0.0889
  441MOL0     C58107   3.836   5.675   4.176 -0.1475  0.7863 -0.2335
  441MOL0     C58108   3.827   5.803   4.232  0.6243  0.3049  0.5929
  441MOL0     C58109   3.729   5.903   4.187 -0.7563  0.3422 -1.1828
  441MOL0     O58110   3.603   5.853   4.169 -0.5367  0.2496  0.3523
  441MOL0     C58111   3.506   5.947   4.134  0.2537  0.0544 -0.5178
  441MOL0     C58112   3.443   6.016   4.237 -0.3875 -0.6026  0.7305
  441MOL0     C58113   3.333   6.094   4.216 -0.0961 -0.4073 -0.1805
  441MOL0     C58114   3.277   6.110   4.091 -0.4356  0.6201  0.1470
  441MOL0     O58115   3.162   6.186   4.068  0.7817  0.3982 -0.7830
  441MOL0     C58116   3.091   6.238   4.183  0.5131  0.2911 -0.2589
  441MOL0     C58117   2.950   6.296   4.160 -0.5882  0.9349 -0.4730
  441MOL0     C58118   2.962   6.417   4.064 -0.1689  1.0408  0.4531
  441MOL0     C58119   2.821   6.462   4.039  0.4935 -0.1465  0.2590
  441MOL0     C58120   2.789   6.546   3.907 -0.8590  0.6066 -0.4390
  441MOL0     C58121   2.643   6.580   3.914 -0.0199  0.2883 -0.1972
  441MOL0     C58122   2.545   6.460   3.918 -0.3054 -0.1488 -0.3433
  441MOL0     C58123   2.518   6.405   3.775  0.8102  1.0632 -0.8950
  441MOL0    Cl58124   2.441   6.519   3.656  0.3496  0.5674 -0.4280
  441MOL0     C58125   3.329   6.041   3.977 -0.0701  0.9407 -0.2216
  441MOL0     C58126   3.440   5.960   4.008 -0.4280 -0.5831 -1.1563
  441MOL0     O58127   3.759   6.023   4.182 -0.4336  0.3135  0.2011
  441MOL0     C58128   3.930   5.841   4.323  0.2482 -0.7234 -1.1224
  441MOL0     C58129   4.026   5.745   4.367  0.5591 -1.1287 -0.1720
  441MOL0     N58130   4.595   5.300   4.756 -0.3666  0.4394 -0.1246
  441MOL0     N58131   4.646   5.235   4.862 -0.2860  0.0211 -0.2239
  441MOL0     C58132   4.921   5.492   5.514  0.2750  0.0252  0.4537
  441MOL0     C58133   4.939   5.625   5.557 -0.0255  0.4182  0.1484
  441MOL0     C58134   5.290   5.888   5.787 -0.9262 -0.0077 -0.7507
  441MOL0     C58135   5.259   6.014   5.742 -1.5448 -0.3950  0.1003
  441MOL0     C58136   5.351   6.118   5.744  0.0163  0.3231  0.0730
  441MOL0     C58137   5.478   6.105   5.800  0.1987 -0.2737 -0.1094
  441MOL0     O58138   5.560   6.217   5.805 -0.4079  0.8347  0.5290
  441MOL0     C58139   5.597   6.256   5.936 -0.4839  0.1828 -0.1189
  441MOL0     C58140   5.754   6.253   5.955 -0.5079  0.6568 -0.2522
  441MOL0     C58141   5.828   6.361   5.871 -0.1616  0.5659  0.0888
  441MOL0     C58142   5.838   6.346   5.719  0.1219  0.1130  0.0111
  441MOL0     C58143   5.930   6.238   5.687  0.9709 -1.0386 -0.1883
  441MOL0     C58144   6.016   6.157   5.645  0.8450  0.1210 -0.1030
  441MOL0     C58145   5.509   5.973   5.848  0.4033 -0.7621  0.1509
  441MOL0     C58146   5.417   5.872   5.850  0.5609  0.1988  1.7139
  441MOL0     H58147   5.265   5.575   5.647 -0.6936  1.1304  0.6619
  441MOL0     H58148   5.237   5.356   5.566 -0.4649 -1.5937  1.2540
  441MOL0     H58149   4.944   5.222   5.679 -0.0460 -1.8081  0.1489
  441MOL0     H58150   5.042   5.106   5.596 -1.5297 -2.1299  3.6417
  441MOL0     H58151   4.743   5.137   5.549 -0.1485 -0.9916  2.6845
  441MOL0     H58152   4.810   5.003   5.619 -0.9692  0.0975  0.6485
  441MOL0     H58153   4.926   4.920   5.428 -1.0516 -0.3185 -0.0665
  441MOL0     H58154   4.887   5.061   5.337  2.6578 -0.6528  0.3888
  441MOL0     H58155   4.760   4.870   5.295  1.3776  1.2122  1.4188
  441MOL0     H58156   4.727   4.831   5.463 -2.5491 -0.2156  1.9426
  441MOL0     H58157   4.546   4.987   5.476 -0.4075  0.8266 -0.2705
  441MOL0     H58158   4.521   4.909   5.320  1.5783 -3.1340  1.7180
  441MOL0     H58159   4.622   5.190   5.372  2.9484 -1.1939 -0.1366
  441MOL0     H58160   4.459   5.131   5.318  0.0273 -1.3978 -0.4252
  441MOL0     H58161   4.702   5.063   5.158  0.2909 -0.3540  1.2705
  441MOL0     H58162   4.526   5.047   5.113 -0.6328  0.3224  0.1930
  441MOL0     H58163   4.705   5.299   5.127 -0.9657  1.3570 -0.3480
  441MOL0     H58164   4.531   5.295   5.164 -0.4617 -1.1083  0.2309
  441MOL0     H58165   4.381   5.382   4.989 -0.6540 -0.8893 -1.0324
  441MOL0     H58166   4.450   5.491   4.617  0.6859  0.3620  0.1772
  441MOL0     H58167   4.368   5.553   4.764  0.6004 -0.3340  1.0178
  441MOL0     H58168   4.198   5.391   4.725  1.3980  1.0152  1.0518
  441MOL0     H58169   4.308   5.267   4.673 -1.7792 -0.4282  1.6888
  441MOL0     H58170   4.339   5.383   4.461 -0.2079  0.8158  0.7710
  441MOL0     H58171   4.180   5.311   4.473 -0.9338 -0.4545 -3.2492
  441MOL0     H58172   4.265   5.602   4.464 -0.7089  1.6553  3.4303
  441MOL0     H58173   4.121   5.555   4.563  0.4040 -0.1241  0.6382
  441MOL0     H58174   3.925   5.488   4.175 -3.8400  1.1136 -2.6897
  441MOL0     H58175   3.779   5.649   4.087  0.2056 -1.5171  0.1418
  441MOL0     H58176   3.485   6.009   4.337  3.4667 -2.2581 -0.8198
  441MOL0     H58177   3.300   6.135   4.311  0.7707  0.5543 -0.2778
  441MOL0     H58178   3.156   6.317   4.222  1.2326  0.2338 -1.3046
  441MOL0     H58179   3.076   6.158   4.255 -4.0763  3.1345  2.4184
  441MOL0     H58180   2.907   6.329   4.255  1.4902 -0.6512  1.1022
  441MOL0     H58181   2.883   6.218   4.123 -0.3865  1.2966 -1.6416
  441MOL0     H58182   3.007   6.388   3.969 -1.4961  2.9701 -0.8494
  441MOL0     H58183   3.021   6.497   4.109 -0.1071  0.6007  1.1682
  441MOL0     H58184   2.754   6.375   4.034  0.5791 -0.1365 -1.4913
  441MOL0     H58185   2.807   6.525   4.128  1.6370 -0.2609  0.5330
  441MOL0     H58186   2.817   6.476   3.827  0.8197 -3.1565  3.0472
  441MOL0     H58187   2.855   6.633   3.908  1.0961 -0.7896  0.8883
  441MOL0     H58188   2.607   6.645   3.833  0.2329 -0.3443 -0.8360
  441MOL0     H58189   2.629   6.648   3.998  0.4943  0.1525 -0.0008
  441MOL0     H58190   2.563   6.383   3.993 -0.1762 -0.6606 -0.8886
  441MOL0     H58191   2.451   6.499   3.957 -0.1202  2.1089 -1.9425
  441MOL0     H58192   2.446   6.324   3.791 -0.7153  2.2713 -1.4445
  441MOL0     H58193   2.612   6.364   3.734  0.7656  0.9858 -0.9202
  441MOL0     H58194   3.284   6.042   3.878  2.3938  1.2506 -1.4186
  441MOL0     H58195   3.473   5.898   3.925 -0.1188 -1.2603 -0.5393
  441MOL0     H58196   3.942   5.943   4.358 -0.9573 -0.9614  0.0691
  441MOL0     H58197   4.099   5.774   4.441  0.1763 -1.3507  0.3019
  441MOL0     H58198   4.820   5.475   5.478  0.0278  1.3691  0.4661
  441MOL0     H58199   4.863   5.701   5.543 -0.4724 -0.1258 -0.4492
  441MOL0     H58200   5.163   6.036   5.696  0.0441  1.5847 -2.5975
  441MOL0     H58201   5.316   6.213   5.705  0.6350  0.7573  0.5543
  441MOL0     H58202   5.571   6.176   6.006 -1.3261  1.0220  0.5623
  441MOL0     H58203   5.551   6.351   5.965  0.4406  0.3466  0.8832
  441MOL0     H58204   5.766   6.280   6.060  0.1018 -0.8331  0.0910
  441MOL0     H58205   5.808   6.160   5.931  1.2418  1.2609  1.1178
  441MOL0     H58206   5.930   6.364   5.910 -0.9364  0.2289  2.2821
  441MOL0     H58207   5.797   6.462   5.898  0.0750  0.5327  0.4951
  441MOL0     H58208   5.741   6.329   5.672  0.4995 -2.1782 -0.0951
  441MOL0     H58209   5.884   6.436   5.676 -4.0524  2.3822 -0.2032
  441MOL0     H58210   6.094   6.088   5.623 -1.2133 -1.3284 -3.6574
  441MOL0     H58211   5.599   5.939   5.900 -1.2807 -2.1264  2.3850
  441MOL0     H58212   5.440   5.774   5.891  0.7842 -1.3695 -1.7542
  442MOL0     O58213   0.611   1.438   6.045  0.1680 -0.7541 -0.4368
  442MOL0     C58214   0.551   1.453   5.936 -0.4776  0.2572 -0.0465
  442MOL0     O58215   0.605   1.515   5.820 -0.2247 -0.1682  0.0302
  442MOL0     C58216   0.716   1.593   5.827  0.5808 -0.0650 -0.5493
  442MOL0     C58217   0.808   1.573   5.722 -0.5429  0.1978 -0.2392
  442MOL0     C58218   0.924   1.658   5.730  0.1111  0.0403  0.7267
  442MOL0     C58219   0.941   1.766   5.814 -0.4794  0.3975 -0.0095
  442MOL0     O58220   1.034   1.857   5.776 -0.7346 -0.4984  0.3216
  442MOL0     C58221   1.067   1.964   5.865  0.6792  0.2156  0.7638
  442MOL0     C58222   1.210   2.028   5.832 -0.6051  0.0046 -0.7755
  442MOL0     C58223   1.230   2.069   5.686 -0.3433  1.4880 -0.7530
  442MOL0     C58224   1.363   2.146   5.667  0.3589 -0.0204  0.2627
  442MOL0     C58225   1.336   2.286   5.616 -0.3547 -0.1274  0.1299
  442MOL0     C58226   1.293   2.294   5.472  0.1540 -0.4577  0.0857
  442MOL0     C58227   1.245   2.431   5.432  0.3553 -0.1410 -0.0423
  442MOL0     C58228   1.103   2.434   5.374 -0.0699 -0.8389 -0.8152
  442MOL0     N58229   1.003   2.383   5.477 -0.9077  0.5529  0.2401
  442MOL0     C58230   0.942   2.260   5.466  0.3956  0.2782  0.7932
  442MOL0     C58231   0.881   2.237   5.581  0.6406  0.2597 -0.7441
  442MOL0     C58232   0.794   2.108   5.625 -0.3611 -0.1839 -0.4220
  442MOL0     C58233   0.645   2.132   5.645 -0.6135  0.7530 -0.7938
  442MOL0     C58234   0.567   2.114   5.511 -0.0407  0.6382  0.4631
  442MOL0     C58235   0.423   2.150   5.536 -0.1274  0.5105  0.3504
  442MOL0     O58236   0.413   2.293   5.539 -0.0200  0.2530 -0.9150
  442MOL0     C58237   0.301   2.352   5.595 -1.2776  0.5728 -0.2720
  442MOL0     C58238   0.171   2.291   5.596 -0.0564  0.2852  0.2950
  442MOL0     C58239   0.063   2.336   5.680 -0.3069 -0.1050  0.9829
  442MOL0     C58240   0.081   2.465   5.736  0.7721  0.4838  0.4889
  442MOL0     C58241  -0.041   2.529   5.800 -0.7337  0.2059  0.3485
  442MOL0     O58242  -0.152   2.455   5.835 -0.3508  0.4802  0.1291
  442MOL0     C58243  -0.237   2.524   5.922 -0.9143 -0.0732 -0.1068
  442MOL0     C58244  -0.251   2.468   6.045  0.3679  0.1205  0.1153
  442MOL0     C58245  -0.336   2.525   6.137 -0.2711 -0.3175  0.8045
  442MOL0     C58246  -0.403   2.648   6.110  0.1173  0.0341  0.5022
  442MOL0     O58247  -0.484   2.720   6.203 -0.2050 -0.1351 -0.0992
  442MOL0     C58248  -0.622   2.684   6.190 -0.1236 -0.2297  1.2535
  442MOL0     C58249  -0.683   2.761   6.074  0.2079  0.0785  0.2929
  442MOL0     C58250  -0.831   2.716   6.041  0.1729  0.7772  0.2360
  442MOL0     C58251  -0.925   2.742   6.162 -0.2370 -0.0168 -0.0410
  442MOL0     C58252  -1.066   2.692   6.129  0.2101  0.4653 -0.0086
  442MOL0     C58253  -1.164   2.728   6.252 -0.4746 -0.5998  0.1219
  442MOL0     C58254  -1.308   2.681   6.226  0.0572 -0.3501 -0.5449
  442MOL0     C58255  -1.398   2.743   6.334  0.3600 -0.6271 -0.4027
  442MOL0    Cl58256  -1.569   2.693   6.324 -0.4117 -0.0740 -0.2563
  442MOL0     C58257  -0.380   2.709   5.987  0.0470  0.2268  0.2796
  442MOL0     C58258  -0.305   2.640   5.885  1.0269  0.1313  0.1340
  442MOL0     O58259  -0.024   2.645   5.824  0.4473 -0.4636  0.8309
  442MOL0     C58260   0.197   2.542   5.728  0.3583 -0.4761  0.7609
  442MOL0     C58261   0.313   2.477   5.665 -0.0179 -0.7676  0.0370
  442MOL0     N58262   0.906   2.351   5.657  0.4187  0.4003 -0.5496
  442MOL0     N58263   0.982   2.438   5.597 -0.3479 -0.0339 -0.0677
  442MOL0     C58264   0.839   1.788   5.903 -0.1635  0.4720 -0.0772
  442MOL0     C58265   0.737   1.697   5.919  1.0584 -0.2445 -0.4371
  442MOL0     C58266   0.412   1.402   5.926 -0.2134 -0.8787  0.4110
  442MOL0     C58267   0.361   1.322   6.030  0.3496  0.4017  0.0403
  442MOL0     C58268   0.233   1.278   6.024  0.5833  0.9817  0.1080
  442MOL0     C58269   0.148   1.315   5.919 -0.0385 -0.1121  0.8096
  442MOL0     O58270   0.023   1.272   5.894  0.7824 -0.2567 -0.2743
  442MOL0     C58271  -0.032   1.157   5.973 -0.6033 -0.1617  0.4676
  442MOL0     C58272  -0.154   1.089   5.915 -0.7402 -0.5072  0.6961
  442MOL0     C58273  -0.183   0.969   5.996 -0.1229 -0.1367 -0.4983
  442MOL0     C58274  -0.317   0.917   5.984 -0.2659  0.0460  0.3785
  442MOL0     C58275  -0.343   0.796   6.062  0.5983  0.0266 -0.3830
  442MOL0     C58276  -0.356   0.696   6.124 -0.3378 -0.4064  0.7305
  442MOL0     C58277   0.187   1.414   5.826 -0.5196  0.3599 -1.0365
  442MOL0     C58278   0.322   1.449   5.826 -0.5467  0.2441  0.7965
  442MOL0     H58279   0.788   1.485   5.661 -0.6213 -0.1156  0.2292
  442MOL0     H58280   0.980   1.635   5.640 -2.9298 -2.0354 -0.8266
  442MOL0     H58281   1.066   1.931   5.969  1.5182  1.1508  1.0905
  442MOL0     H58282   0.990   2.041   5.851 -1.5544 -2.1153 -0.5376
  442MOL0     H58283   1.292   1.962   5.862 -0.4814  0.5589  0.1675
  442MOL0     H58284   1.219   2.121   5.889 -1.7130  1.3676 -2.7129
  442MOL0     H58285   1.141   2.123   5.652 -3.0180 -1.7095  0.5839
  442MOL0     H58286   1.239   1.984   5.618 -0.9798  1.5550 -0.9329
  442MOL0     H58287   1.419   2.163   5.759 -1.0942  0.2782  1.1221
  442MOL0     H58288   1.427   2.093   5.595 -1.2598  0.7970 -1.8824
  442MOL0     H58289   1.431   2.337   5.633  0.0582 -0.9219  0.2266
  442MOL0     H58290   1.254   2.330   5.674 -0.7729  1.1032 -1.3107
  442MOL0     H58291   1.214   2.220   5.455 -2.2139  1.6517  1.1453
  442MOL0     H58292   1.373   2.263   5.404  1.2722 -1.5003  1.8077
  442MOL0     H58293   1.271   2.497   5.514  0.8296 -1.9490  1.3298
  442MOL0     H58294   1.300   2.457   5.341 -1.0072 -1.8038 -1.4346
  442MOL0     H58295   1.102   2.374   5.283  0.1600 -1.0079 -0.7073
  442MOL0     H58296   1.075   2.533   5.336 -3.5367 -1.3818 -0.0343
  442MOL0     H58297   0.964   2.184   5.392 -0.5761  0.6456  0.0958
  442MOL0     H58298   0.834   2.063   5.717  1.0508  0.6213 -0.6088
  442MOL0     H58299   0.820   2.027   5.557 -1.7434 -0.7900 -0.2485
  442MOL0     H58300   0.641   2.227   5.700 -2.3183  0.9929 -1.2669
  442MOL0     H58301   0.602   2.060   5.716  0.6741  1.8575  1.2006
  442MOL0     H58302   0.601   2.186   5.436 -2.5407  0.2822 -1.1033
  442MOL0     H58303   0.577   2.014   5.468  3.6222  0.2775  1.7970
  442MOL0     H58304   0.381   2.096   5.621 -1.1071 -0.0505 -0.4748
  442MOL0     H58305   0.351   2.130   5.455  1.2236 -0.0640 -0.7421
  442MOL0     H58306   0.150   2.201   5.540  0.2441  0.2745  0.1986
  442MOL0     H58307  -0.034   2.289   5.691 -2.2369  3.6612  2.0894
  442MOL0     H58308  -0.200   2.373   6.058  1.1837  0.3667 -1.1108
  442MOL0     H58309  -0.343   2.463   6.226  0.4422 -0.9136  0.4572
  442MOL0     H58310  -0.671   2.718   6.282 -0.6011  2.1242  0.1928
  442MOL0     H58311  -0.636   2.578   6.169 -0.3129  0.1835 -0.9394
  442MOL0     H58312  -0.636   2.743   5.978 -1.6205 -4.6773  0.0291
  442MOL0     H58313  -0.675   2.869   6.092  0.6846 -0.1402  1.5234
  442MOL0     H58314  -0.833   2.609   6.016 -1.7922  1.2279 -1.8961
  442MOL0     H58315  -0.872   2.771   5.955 -0.5642  0.1429  0.1639
  442MOL0     H58316  -0.885   2.697   6.253 -0.4089  0.4511  0.2753
  442MOL0     H58317  -0.939   2.849   6.178 -2.8197 -0.3159  0.1966
  442MOL0     H58318  -1.058   2.585   6.107  1.7834  0.4418  0.5337
  442MOL0     H58319  -1.107   2.749   6.045 -0.1753  0.8697  0.4455
  442MOL0     H58320  -1.156   2.836   6.266  1.3217 -0.6991  0.0133
  442MOL0     H58321  -1.126   2.684   6.344  0.5777  0.7854  0.3710
  442MOL0     H58322  -1.345   2.721   6.131 -0.5473  0.2633 -0.0570
  442MOL0     H58323  -1.315   2.572   6.221  2.3039 -0.8024  3.0118
  442MOL0     H58324  -1.400   2.851   6.315  1.5385 -0.7491 -1.3428
  442MOL0     H58325  -1.359   2.732   6.435  0.2648  3.4342  0.2419
  442MOL0     H58326  -0.440   2.798   5.973 -1.4496 -0.7892  0.0332
  442MOL0     H58327  -0.295   2.681   5.785  1.3534 -1.4709 -0.5263
  442MOL0     H58328   0.199   2.638   5.779 -0.5352 -1.6380  3.0912
  442MOL0     H58329   0.405   2.534   5.675 -1.8106  2.1716  1.4872
  442MOL0     H58330   0.852   1.870   5.973 -2.0611 -0.2882  1.2426
  442MOL0     H58331   0.671   1.714   6.003  1.7836  0.7972 -0.0585
  442MOL0     H58332   0.425   1.270   6.100 -1.3159  1.1803  2.2354
  442MOL0     H58333   0.200   1.201   6.093  0.1355 -0.3346 -1.5047
  442MOL0     H58334  -0.056   1.196   6.073  2.5150 -2.1095  2.1665
  442MOL0     H58335   0.046   1.081   5.987 -0.7260 -0.8967 -2.3571
  442MOL0     H58336  -0.246   1.148   5.921 -0.8697 -0.8383  3.8223
  442MOL0     H58337  -0.144   1.062   5.809 -1.8301  0.5177  0.3078
  442MOL0     H58338  -0.158   0.990   6.100  0.9297  0.6091 -0.8759
  442MOL0     H58339  -0.116   0.885   5.976  1.0049  1.3194 -3.5023
  442MOL0     H58340  -0.385   0.997   6.015 -0.8521  0.5645 -2.0531
  442MOL0     H58341  -0.342   0.883   5.884 -2.3769 -1.6843  1.4154
  442MOL0     H58342  -0.375   0.614   6.190  4.5517  0.6476  3.9797
  442MOL0     H58343   0.102   1.457   5.774 -0.7946  1.1795  0.0552
  442MOL0     H58344   0.355   1.523   5.754  3.7216 -0.8650  1.3438
  443MOL0     O58345   5.596   5.496   5.924 -0.1287  0.1341 -0.7050
  443MOL0     C58346   5.612   5.412   5.833  0.3412  0.9110 -0.0008
  443MOL0     O58347   5.527   5.302   5.798 -0.5941 -0.8022  0.1862
  443MOL0     C58348   5.404   5.284   5.853  0.0708  0.9717 -0.1400
  443MOL0     C58349   5.340   5.158   5.848  0.5681 -0.2372  0.0590
  443MOL0     C58350   5.204   5.142   5.883 -0.0550 -0.0911  0.1653
  443MOL0     C58351   5.131   5.244   5.945 -0.0038  0.6906  0.2911
  443MOL0     O58352   4.996   5.214   5.984 -0.4397 -0.7680  0.5699
  443MOL0     C58353   4.913   5.332   6.011  0.0345  0.2461  0.8586
  443MOL0     C58354   4.843   5.376   5.874  1.4008 -0.6957 -0.2608
  443MOL0     C58355   4.746   5.487   5.910  0.2875 -0.9421  0.4852
  443MOL0     C58356   4.665   5.531   5.794  0.7265  0.2516  0.0062
  443MOL0     C58357   4.556   5.629   5.824  0.3391  0.4762 -0.4627
  443MOL0     C58358   4.493   5.678   5.699  0.0302 -1.7452  0.6716
  443MOL0     C58359   4.353   5.731   5.729 -0.0693 -0.0753 -0.1107
  443MOL0     C58360   4.285   5.773   5.595  0.1687 -0.1011  0.1447
  443MOL0     N58361   4.140   5.797   5.615  0.4436  0.1476  0.5147
  443MOL0     C58362   4.074   5.880   5.697  0.3449  0.0843 -0.8954
  443MOL0     C58363   3.944   5.852   5.687  0.1141 -0.5313  0.8595
  443MOL0     C58364   3.837   5.932   5.765  0.1149 -0.2634 -0.2845
  443MOL0     C58365   3.837   6.085   5.725  1.0336 -0.7352 -0.4678
  443MOL0     C58366   3.794   6.103   5.585  1.0530 -0.2148 -0.5295
  443MOL0     C58367   3.641   6.110   5.563  0.0561 -1.0214 -1.0840
  443MOL0     O58368   3.632   6.135   5.425 -0.1833  0.2446 -0.7655
  443MOL0     C58369   3.510   6.180   5.385 -0.2052 -0.5004 -0.4637
  443MOL0     C58370   3.395   6.193   5.471 -0.0817  0.0079  0.3147
  443MOL0     C58371   3.276   6.242   5.423 -0.5589 -0.4584  0.6849
  443MOL0     C58372   3.267   6.280   5.282 -0.0575  0.6923 -0.7367
  443MOL0     C58373   3.140   6.342   5.231  0.1111  1.2509  0.3845
  443MOL0     O58374   3.117   6.292   5.105 -0.0069 -0.2005 -0.1715
  443MOL0     C58375   2.993   6.305   5.044 -1.0083 -1.0655 -0.8734
  443MOL0     C58376   2.876   6.295   5.118  0.6435  0.0925 -0.0809
  443MOL0     C58377   2.752   6.300   5.055  0.4477 -0.0227  1.5811
  443MOL0     C58378   2.742   6.312   4.921  0.0140  0.1989 -0.1081
  443MOL0     O58379   2.618   6.278   4.872 -1.0922 -0.3496  0.1870
  443MOL0     C58380   2.600   6.308   4.733  0.3328  0.2587  0.3571
  443MOL0     C58381   2.457   6.295   4.689 -0.6417  0.8591  0.6846
  443MOL0     C58382   2.429   6.326   4.545 -0.4113  0.3564 -0.8291
  443MOL0     C58383   2.427   6.485   4.536 -0.1489 -0.3553 -0.1022
  443MOL0     C58384   2.386   6.523   4.396 -0.2807  0.2329 -0.4755
  443MOL0     C58385   2.320   6.664   4.382 -0.3022  0.9246  0.1267
  443MOL0     C58386   2.418   6.777   4.426  0.1239  0.7653 -0.0092
  443MOL0     C58387   2.321   6.888   4.477  0.6127 -0.0350  0.2038
  443MOL0    Cl58388   2.246   6.854   4.632  0.0713  0.1519 -0.4454
  443MOL0     C58389   2.865   6.308   4.840  1.0144 -0.4310  0.3060
  443MOL0     C58390   2.988   6.310   4.906 -0.4780 -0.5186  0.2342
  443MOL0     O58391   3.083   6.431   5.294 -0.3622 -0.1608  0.4478
  443MOL0     C58392   3.373   6.262   5.198 -0.1790  0.0721  0.1915
  443MOL0     C58393   3.500   6.219   5.250  0.0595 -0.3300  0.3501
  443MOL0     N58394   3.924   5.763   5.589 -0.8368 -0.2357  0.1990
  443MOL0     N58395   4.043   5.736   5.547 -0.9966 -0.7278  0.2899
  443MOL0     C58396   5.193   5.368   5.960 -0.6113  0.0430  0.1059
  443MOL0     C58397   5.328   5.385   5.913 -0.0534 -0.9954 -0.6080
  443MOL0     C58398   5.724   5.410   5.747 -0.2906  0.3187 -0.1388
  443MOL0     C58399   5.852   5.397   5.801  0.6624  0.0016  0.2352
  443MOL0     C58400   5.961   5.356   5.722 -0.5571 -0.0838 -0.5639
  443MOL0     C58401   5.943   5.317   5.586 -0.8926 -0.2853  0.3102
  443MOL0     O58402   6.046   5.266   5.511  0.9343 -0.5964 -0.8541
  443MOL0     C58403   6.161   5.200   5.567  0.3401 -0.6442  0.8273
  443MOL0     C58404   6.248   5.145   5.452  0.8139  1.3132  0.1762
  443MOL0     C58405   6.162   5.051   5.361  0.3319  0.1074 -0.3564
  443MOL0     C58406   6.232   4.999   5.223 -0.7807 -0.0307 -0.2864
  443MOL0     C58407   6.333   4.898   5.262  0.0073  0.1850 -0.3377
  443MOL0     C58408   6.412   4.808   5.292  0.0768 -0.1225  0.4979
  443MOL0     C58409   5.816   5.353   5.533 -0.1037  0.7932 -0.1563
  443MOL0     C58410   5.705   5.402   5.608 -0.2709  0.0936 -0.5839
  443MOL0     H58411   5.396   5.074   5.807 -1.9471 -0.9072 -2.3349
  443MOL0     H58412   5.151   5.052   5.855 -1.0217  1.8764 -5.9939
  443MOL0     H58413   4.969   5.407   6.066  3.2132 -1.3377  0.0136
  443MOL0     H58414   4.835   5.281   6.068  1.2696 -0.7663  1.6764
  443MOL0     H58415   4.795   5.284   5.841 -0.6806  0.0303  0.5732
  443MOL0     H58416   4.915   5.401   5.796  2.7483 -0.3978  1.0218
  443MOL0     H58417   4.807   5.574   5.938  2.0275 -2.4325  1.6267
  443MOL0     H58418   4.685   5.452   5.994  3.2562 -0.2074  3.1837
  443MOL0     H58419   4.738   5.577   5.726  0.6011  1.1724  0.4812
  443MOL0     H58420   4.624   5.440   5.750  0.1371 -0.4821  1.9429
  443MOL0     H58421   4.587   5.714   5.887 -2.3348  0.3115  1.2335
  443MOL0     H58422   4.477   5.576   5.878 -2.0523 -0.5265 -4.5667
  443MOL0     H58423   4.485   5.606   5.618  0.4381 -1.0860  0.0334
  443MOL0     H58424   4.554   5.755   5.652 -0.8104 -1.1360  0.5472
  443MOL0     H58425   4.301   5.653   5.784 -0.4015  1.6839  2.1842
  443MOL0     H58426   4.371   5.814   5.798  2.1336 -0.2558 -0.3878
  443MOL0     H58427   4.287   5.699   5.514  1.4803  1.5936 -1.4671
  443MOL0     H58428   4.339   5.859   5.555  1.1177 -0.7363  0.0270
  443MOL0     H58429   4.113   5.948   5.772 -0.9306  1.6272 -1.5675
  443MOL0     H58430   3.858   5.922   5.872 -2.3026 -0.6478  0.2184
  443MOL0     H58431   3.737   5.889   5.754 -0.3694  0.7513  0.0071
  443MOL0     H58432   3.940   6.119   5.739  0.4966  0.7661  0.0683
  443MOL0     H58433   3.780   6.152   5.791  1.8247 -0.8617  0.3732
  443MOL0     H58434   3.840   6.196   5.551 -0.3259  1.0720  0.9325
  443MOL0     H58435   3.825   6.019   5.522 -2.1127 -1.2649 -0.8654
  443MOL0     H58436   3.605   6.187   5.632  4.8639 -2.1340  3.2670
  443MOL0     H58437   3.608   6.007   5.578 -0.5432 -0.7128 -0.1948
  443MOL0     H58438   3.405   6.174   5.577 -2.1825  0.2177  0.5990
  443MOL0     H58439   3.197   6.257   5.497 -2.8706 -0.0356 -1.7166
  443MOL0     H58440   2.884   6.274   5.225 -0.1103  1.1995  0.2035
  443MOL0     H58441   2.659   6.284   5.110 -0.5610 -1.0553 -0.3202
  443MOL0     H58442   2.663   6.248   4.667  0.2619  0.9441 -0.3484
  443MOL0     H58443   2.640   6.409   4.720  0.6827  0.2117  1.0094
  443MOL0     H58444   2.391   6.356   4.752 -0.4950 -2.1118  3.9702
  443MOL0     H58445   2.417   6.194   4.701  0.9723  0.2593  1.3312
  443MOL0     H58446   2.335   6.282   4.510 -0.4959  1.1010 -1.5642
  443MOL0     H58447   2.495   6.278   4.473 -1.9076  0.3554 -2.2486
  443MOL0     H58448   2.346   6.520   4.602 -2.1716 -3.4834 -0.6863
  443MOL0     H58449   2.518   6.535   4.570 -1.1520  1.6412 -0.2296
  443MOL0     H58450   2.311   6.451   4.361 -1.6123  0.2648  2.0510
  443MOL0     H58451   2.472   6.511   4.330 -1.4594 -0.8813 -1.8744
  443MOL0     H58452   2.227   6.664   4.440 -0.6898 -2.8032 -0.2633
  443MOL0     H58453   2.284   6.679   4.280 -1.8440 -1.5426  0.2052
  443MOL0     H58454   2.495   6.735   4.491  3.4042  0.5935 -3.6641
  443MOL0     H58455   2.484   6.801   4.343  0.1661  1.1642  0.1376
  443MOL0     H58456   2.242   6.905   4.402 -0.6371  2.7300  1.9963
  443MOL0     H58457   2.379   6.980   4.481  1.3074 -0.4430 -0.3101
  443MOL0     H58458   2.868   6.314   4.731 -1.4016  0.2006  0.2090
  443MOL0     H58459   3.082   6.299   4.853  0.6241  3.5179  0.9603
  443MOL0     H58460   3.367   6.298   5.095 -0.9997  0.3402  0.3182
  443MOL0     H58461   3.587   6.215   5.186 -0.9348  3.0950 -1.4102
  443MOL0     H58462   5.137   5.452   6.000 -1.0098  0.2290 -0.8094
  443MOL0     H58463   5.349   5.491   5.924 -3.1807 -0.4270  1.3058
  443MOL0     H58464   5.867   5.423   5.905  3.2846 -0.9498  0.1804
  443MOL0     H58465   6.055   5.349   5.777 -1.9185 -2.0960  1.7018
  443MOL0     H58466   6.137   5.126   5.643 -0.7405 -1.9207 -0.7030
  443MOL0     H58467   6.212   5.290   5.604 -0.3568  0.8096 -1.5178
  443MOL0     H58468   6.275   5.236   5.396  0.5971  1.8580  0.9361
  443MOL0     H58469   6.337   5.094   5.488  0.1234  0.1222  0.2588
  443MOL0     H58470   6.071   5.102   5.327 -1.0208 -1.8365  0.1067
  443MOL0     H58471   6.130   4.961   5.415 -3.5686  1.2378 -0.4408
  443MOL0     H58472   6.157   4.955   5.157  0.2163 -1.9827 -0.1725
  443MOL0     H58473   6.279   5.086   5.176  3.2381 -2.8834 -2.0319
  443MOL0     H58474   6.470   4.721   5.315 -0.8382 -0.1937  2.7947
  443MOL0     H58475   5.799   5.336   5.427 -3.3366  1.6355  0.1234
  443MOL0     H58476   5.610   5.422   5.560  0.4308  1.8535 -1.3506
  444MOL0     O58477  10.941   8.939   4.114 -0.0219 -0.4926  0.4891
  444MOL0     C58478  10.868   9.039   4.116 -0.0363 -0.7731  0.2652
  444MOL0     O58479  10.891   9.156   4.065  0.5171 -0.2910 -0.3775
  444MOL0     C58480  11.001   9.174   3.989 -0.0609  0.0788  1.0688
  444MOL0     C58481  11.028   9.089   3.878 -0.7636 -0.4508  0.6424
  444MOL0     C58482  11.138   9.117   3.786  0.2899 -0.3771  0.4738
  444MOL0     C58483  11.195   9.243   3.781  0.0180  0.5970  0.1899
  444MOL0     O58484  11.278   9.265   3.679  0.3064 -0.1730  0.4182
  444MOL0     C58485  11.345   9.390   3.688 -1.1053 -0.5019  0.6366
  444MOL0     C58486  11.441   9.409   3.566 -0.2701 -0.1462  0.1252
  444MOL0     C58487  11.474   9.550   3.525 -0.8905 -0.2149  0.2392
  444MOL0     C58488  11.540   9.626   3.645  0.1795 -0.2346  0.0325
  444MOL0     C58489  11.679   9.559   3.680  0.5198 -0.4542  0.1941
  444MOL0     C58490  11.789   9.556   3.577 -0.3595 -0.2732  0.5221
  444MOL0     C58491  11.920   9.493   3.613 -0.1910  0.2008  0.8946
  444MOL0     C58492  11.914   9.349   3.666  0.4696 -0.1422  0.4716
  444MOL0     N58493  12.041   9.284   3.627  0.1592 -0.0372 -0.7162
  444MOL0     C58494  12.168   9.329   3.677 -0.1792  0.0432  0.4697
  444MOL0     C58495  12.257   9.250   3.610 -0.2813 -0.2036  0.3448
  444MOL0     C58496  12.403   9.235   3.628 -0.3568 -0.3141 -0.6636
  444MOL0     C58497  12.483   9.280   3.504  0.0072  0.3582  0.0137
  444MOL0     C58498  12.474   9.429   3.481 -0.1919 -0.0647 -0.1928
  444MOL0     C58499  12.365   9.473   3.377 -0.0259  0.6757  0.3561
  444MOL0     O58500  12.365   9.622   3.362  1.8078 -0.3049 -0.1305
  444MOL0     C58501  12.451   9.673   3.272  1.2684  0.1457  0.1039
  444MOL0     C58502  12.415   9.702   3.138 -0.0345  0.1650 -0.6803
  444MOL0     C58503  12.505   9.743   3.037  0.3428 -0.6443  0.4435
  444MOL0     C58504  12.645   9.758   3.075  0.5888  0.3367  0.2691
  444MOL0     C58505  12.737   9.787   2.963 -0.3117  0.5279 -0.5596
  444MOL0     O58506  12.700   9.876   2.861  0.0840  0.1185  0.0354
  444MOL0     C58507  12.784   9.881   2.754  0.2078  0.1267  0.1319
  444MOL0     C58508  12.901   9.964   2.751 -0.0934  0.6696 -0.0897
  444MOL0     C58509  12.989   9.977   2.642  0.2982  0.0905 -0.7928
  444MOL0     C58510  12.945   9.912   2.527 -0.2572 -0.0027  0.4136
  444MOL0     O58511  13.039   9.949   2.427 -0.2545 -0.0258  0.0710
  444MOL0     C58512  13.013   9.925   2.291  0.8321  0.6675 -0.6689
  444MOL0     C58513  13.147   9.937   2.220  0.1550 -0.0487 -0.9995
  444MOL0     C58514  13.225  10.068   2.219  0.3418 -0.2937  0.1935
  444MOL0     C58515  13.351  10.049   2.132  0.5646  0.0486  0.3740
  444MOL0     C58516  13.447  10.168   2.142  0.9617 -0.8375  0.1570
  444MOL0     C58517  13.581  10.148   2.062 -0.1449  0.3678  0.3044
  444MOL0     C58518  13.644  10.017   2.103  0.1699 -0.0288 -0.3848
  444MOL0     C58519  13.799  10.017   2.092 -0.0277  0.3618  0.2822
  444MOL0    Cl58520  13.857   9.969   1.924 -0.9495 -0.1715 -0.1343
  444MOL0     C58521  12.836   9.831   2.521 -0.7604  0.1932  0.3112
  444MOL0     C58522  12.761   9.807   2.634 -0.3657 -0.3932 -0.2321
  444MOL0     O58523  12.849   9.738   2.978  0.4390  0.3674 -0.0354
  444MOL0     C58524  12.685   9.729   3.207  0.7903 -0.6571 -0.2007
  444MOL0     C58525  12.590   9.696   3.301 -0.2014  1.0810 -0.8249
  444MOL0     N58526  12.188   9.162   3.523 -0.5672 -0.0442  0.3188
  444MOL0     N58527  12.059   9.179   3.538  0.4950 -0.4582  0.5382
  444MOL0     C58528  11.155   9.334   3.880 -0.0542  0.0650 -0.5254
  444MOL0     C58529  11.061   9.299   3.979 -0.0637 -0.5815 -0.6316
  444MOL0     C58530  10.738   9.039   4.185 -1.3625  0.8205 -0.1257
  444MOL0     C58531  10.703   8.915   4.247  0.0684 -0.2243 -1.1037
  444MOL0     C58532  10.576   8.895   4.313  0.2401 -0.0986 -0.8127
  444MOL0     C58533  10.503   9.008   4.331 -0.1094  0.0082 -0.0803
  444MOL0     O58534  10.386   9.000   4.401  0.5425 -0.5042 -0.0008
  444MOL0     C58535  10.293   8.892   4.377  0.5232 -0.1988  0.2011
  444MOL0     C58536  10.150   8.915   4.428  0.1205  0.3482  0.8129
  444MOL0     C58537  10.136   8.887   4.573 -0.0589 -0.3884 -0.1077
  444MOL0     C58538   9.988   8.861   4.605  0.0193 -0.3947 -0.4014
  444MOL0     C58539   9.909   8.983   4.575  0.1670 -1.1468 -0.7511
  444MOL0     C58540   9.837   9.087   4.554 -0.1730 -1.1557 -0.4005
  444MOL0     C58541  10.541   9.132   4.275  0.2608 -0.2636  0.6933
  444MOL0     C58542  10.653   9.147   4.201  0.2674 -0.2707  0.4406
  444MOL0     H58543  10.969   9.001   3.852 -1.1517  0.2395 -0.9947
  444MOL0     H58544  11.160   9.049   3.704 -2.3099  0.7987 -1.3471
  444MOL0     H58545  11.406   9.398   3.779  1.5570 -1.8933 -0.9081
  444MOL0     H58546  11.283   9.480   3.683  1.1933  1.1083 -1.4832
  444MOL0     H58547  11.380   9.367   3.485 -3.1821  1.6722  1.2432
  444MOL0     H58548  11.534   9.355   3.589 -0.0735  0.1204 -0.0435
  444MOL0     H58549  11.386   9.605   3.490 -2.0737 -0.7796  2.2058
  444MOL0     H58550  11.538   9.535   3.437 -0.1308  1.8147  0.3842
  444MOL0     H58551  11.549   9.728   3.607 -0.5563 -0.7124 -1.4971
  444MOL0     H58552  11.468   9.620   3.728  1.0414 -0.3851  0.7932
  444MOL0     H58553  11.667   9.463   3.730  2.1103 -1.3337 -1.0295
  444MOL0     H58554  11.716   9.628   3.757  1.0375  1.1375 -1.4057
  444MOL0     H58555  11.796   9.660   3.544 -0.9109  0.8403  3.6051
  444MOL0     H58556  11.761   9.490   3.495  1.3929 -1.5897  0.9114
  444MOL0     H58557  11.996   9.516   3.538 -1.3015  1.7683  0.2076
  444MOL0     H58558  11.951   9.548   3.703 -3.3836  0.7528  1.7655
  444MOL0     H58559  11.824   9.301   3.628  0.7202  0.0641 -0.4051
  444MOL0     H58560  11.913   9.363   3.775  1.2900  3.3848  0.1415
  444MOL0     H58561  12.201   9.404   3.747 -1.2430  1.5118 -0.5292
  444MOL0     H58562  12.424   9.130   3.652 -3.4473  0.0972  6.5221
  444MOL0     H58563  12.438   9.287   3.717  2.8453  0.0740 -2.0193
  444MOL0     H58564  12.443   9.223   3.420 -2.0817  0.2486  1.0404
  444MOL0     H58565  12.587   9.253   3.525  1.3118  3.6400 -1.4671
  444MOL0     H58566  12.460   9.485   3.574 -3.9915  0.3804 -0.8497
  444MOL0     H58567  12.568   9.453   3.431  1.2131 -1.0261  1.8732
  444MOL0     H58568  12.263   9.441   3.401 -1.5275  1.7660 -3.6815
  444MOL0     H58569  12.372   9.427   3.278 -3.5121  4.0159 -1.7435
  444MOL0     H58570  12.310   9.700   3.112  0.3198  0.1710 -2.2008
  444MOL0     H58571  12.470   9.776   2.940 -0.0293  0.3577  0.9106
  444MOL0     H58572  12.934  10.012   2.843  2.0281 -0.0732 -0.4078
  444MOL0     H58573  13.082  10.032   2.653  0.2950  1.2811 -5.0710
  444MOL0     H58574  12.955  10.011   2.257 -0.1702  0.5988  0.7820
  444MOL0     H58575  12.964   9.830   2.268  0.7195  0.7086 -0.6005
  444MOL0     H58576  13.136   9.910   2.114  2.2481 -1.2455 -0.9776
  444MOL0     H58577  13.210   9.860   2.266  0.3068  0.8864  0.3913
  444MOL0     H58578  13.259  10.096   2.319  0.0468  0.2041  0.1581
  444MOL0     H58579  13.161  10.154   2.196 -1.0615 -1.0353  1.1150
  444MOL0     H58580  13.394   9.952   2.156 -1.4733 -0.5851  1.7621
  444MOL0     H58581  13.322  10.041   2.027  2.7464  2.1958 -0.4895
  444MOL0     H58582  13.470  10.181   2.248  0.6045 -2.3211  0.4323
  444MOL0     H58583  13.392  10.258   2.115  3.3244  1.0649  1.2578
  444MOL0     H58584  13.652  10.230   2.079 -1.1484  1.1109  1.0765
  444MOL0     H58585  13.551  10.146   1.957 -1.2091 -0.7128  0.6087
  444MOL0     H58586  13.617   9.996   2.207  1.0880  1.4433  0.1902
  444MOL0     H58587  13.607   9.933   2.045  0.4023  0.2568 -0.9544
  444MOL0     H58588  13.845   9.932   2.142  1.6421  0.7626 -0.5138
  444MOL0     H58589  13.841  10.110   2.131 -0.4142  0.0021  1.5972
  444MOL0     H58590  12.812   9.783   2.427 -0.5138 -1.2467  0.9611
  444MOL0     H58591  12.679   9.735   2.635  0.3621 -1.2478 -0.0125
  444MOL0     H58592  12.789   9.732   3.241  0.0407 -0.8226  2.3467
  444MOL0     H58593  12.637   9.676   3.396  1.9358  1.7997 -1.6709
  444MOL0     H58594  11.188   9.438   3.876  0.1973 -0.0490 -2.0825
  444MOL0     H58595  11.024   9.362   4.059  0.6366 -1.1929  0.1933
  444MOL0     H58596  10.769   8.830   4.244 -0.2962 -0.4908 -2.4266
  444MOL0     H58597  10.545   8.807   4.368  1.2411 -1.8358 -2.8486
  444MOL0     H58598  10.333   8.803   4.424  0.4227 -0.0367  0.5963
  444MOL0     H58599  10.280   8.881   4.269  0.7017  2.6270 -0.2046
  444MOL0     H58600  10.124   9.020   4.413  0.1165  0.7858  3.3966
  444MOL0     H58601  10.081   8.853   4.370  1.2851 -0.8307  0.6328
  444MOL0     H58602  10.182   8.975   4.619 -1.7677  1.5538 -1.9414
  444MOL0     H58603  10.185   8.795   4.606  0.9020 -0.4981 -1.7567
  444MOL0     H58604   9.952   8.787   4.532  0.0709  1.0502 -1.9477
  444MOL0     H58605   9.971   8.832   4.709 -0.1533  3.7820  0.9062
  444MOL0     H58606   9.775   9.169   4.528  2.1999 -0.3824 -4.4461
  444MOL0     H58607  10.473   9.216   4.285  1.7469  1.0603  0.0865
  444MOL0     H58608  10.674   9.243   4.154  3.4289 -0.5639  1.0594
  445MOL0     O58609   8.629  10.507   7.751  0.1456 -0.3994  0.5471
  445MOL0     C58610   8.679  10.502   7.639  0.1223  0.6409 -1.3238
  445MOL0     O58611   8.617  10.540   7.524 -0.4869 -0.2121 -0.0051
  445MOL0     C58612   8.474  10.547   7.525 -0.1798  0.7718  0.4507
  445MOL0     C58613   8.387  10.597   7.620  0.3029  0.0317  0.3064
  445MOL0     C58614   8.254  10.619   7.590 -0.4766 -0.1135 -0.7391
  445MOL0     C58615   8.193  10.559   7.484 -0.2134 -0.3015 -0.4807
  445MOL0     O58616   8.056  10.571   7.468  0.0717 -0.5262 -0.1888
  445MOL0     C58617   7.966  10.566   7.577  1.0605  0.1622  0.9340
  445MOL0     C58618   7.830  10.507   7.531 -0.4757 -0.1551  0.3728
  445MOL0     C58619   7.713  10.537   7.620 -0.0010 -0.2487  0.4246
  445MOL0     C58620   7.735  10.478   7.757 -0.2929  0.1448 -0.3947
  445MOL0     C58621   7.615  10.504   7.851  0.1924 -0.2822  0.6144
  445MOL0     C58622   7.472  10.470   7.804  0.3244 -0.4218  0.3255
  445MOL0     C58623   7.463  10.319   7.777 -0.1627  0.0656  0.2466
  445MOL0     C58624   7.328  10.292   7.710 -0.6871  0.5282  0.0237
  445MOL0     N58625   7.214  10.314   7.793  0.5227 -0.4798  0.0792
  445MOL0     C58626   7.152  10.232   7.892  0.6769  0.1987  0.6862
  445MOL0     C58627   7.060  10.314   7.950  0.6228  0.9692 -0.1355
  445MOL0     C58628   6.964  10.274   8.065 -0.0161  0.1620 -0.6272
  445MOL0     C58629   6.993  10.347   8.194  0.0401 -0.4766 -0.5198
  445MOL0     C58630   6.879  10.325   8.294 -0.5372  0.9600 -0.2086
  445MOL0     C58631   6.751  10.377   8.248 -0.0339 -0.2419  0.8706
  445MOL0     O58632   6.668  10.392   8.362 -0.0063 -0.5338 -0.2602
  445MOL0     C58633   6.542  10.432   8.325 -0.1523  0.1615 -0.3078
  445MOL0     C58634   6.453  10.397   8.421 -0.6260 -0.6098  0.3994
  445MOL0     C58635   6.320  10.418   8.415  0.3694 -0.2010  0.0079
  445MOL0     C58636   6.260  10.487   8.306  0.1067  0.6211 -0.4211
  445MOL0     C58637   6.114  10.523   8.309 -0.1217 -0.3635 -0.3132
  445MOL0     O58638   6.040  10.482   8.420 -0.0072 -0.4979 -0.1161
  445MOL0     C58639   5.907  10.521   8.424  0.2075 -0.0811 -0.1999
  445MOL0     C58640   5.813  10.443   8.355  0.5760  0.6214  0.4871
  445MOL0     C58641   5.673  10.463   8.365 -0.2818  0.1504 -0.0715
  445MOL0     C58642   5.637  10.554   8.473  0.1625  1.0250  0.0995
  445MOL0     O58643   5.508  10.567   8.500  0.5799 -0.2970  0.5187
  445MOL0     C58644   5.457  10.651   8.602 -0.0166  0.0731  0.4067
  445MOL0     C58645   5.317  10.643   8.629  0.3516  0.7402  0.0528
  445MOL0     C58646   5.273  10.511   8.671  0.3540 -0.0877  0.0921
  445MOL0     C58647   5.124  10.523   8.714  0.7163  0.1423  0.2549
  445MOL0     C58648   5.085  10.411   8.805 -0.4691  0.0541  0.1374
  445MOL0     C58649   5.179  10.396   8.927 -0.0162  0.8502  0.2154
  445MOL0     C58650   5.088  10.344   9.046  0.1739 -0.8403 -0.2358
  445MOL0     C58651   5.064  10.196   9.037  0.9950 -0.1551  0.4975
  445MOL0    Cl58652   5.210  10.121   9.110 -0.0724  0.4350 -0.1579
  445MOL0     C58653   5.735  10.630   8.537 -0.0968 -0.0616  0.0068
  445MOL0     C58654   5.871  10.624   8.506  0.4299  0.7188  0.0222
  445MOL0     O58655   6.065  10.574   8.205 -0.7421 -0.3443  1.1937
  445MOL0     C58656   6.350  10.530   8.208  0.2595  0.8962  0.5015
  445MOL0     C58657   6.488  10.503   8.214 -0.1211 -0.1275  0.0813
  445MOL0     N58658   7.055  10.432   7.881 -0.4297 -0.5016 -0.0173
  445MOL0     N58659   7.144  10.427   7.787 -0.4851 -0.1857 -0.5438
  445MOL0     C58660   8.274  10.507   7.384 -0.0570  0.5969 -0.2132
  445MOL0     C58661   8.410  10.509   7.405  1.6259  0.5002  0.7230
  445MOL0     C58662   8.799  10.426   7.624  0.2408  0.1678  0.0072
  445MOL0     C58663   8.895  10.404   7.728  0.8370 -0.3489 -0.1541
  445MOL0     C58664   9.012  10.338   7.703  0.5541 -0.4428  0.0528
  445MOL0     C58665   9.047  10.296   7.578  0.1420 -0.2765  0.2593
  445MOL0     O58666   9.170  10.236   7.554  0.1551  0.1330 -0.0149
  445MOL0     C58667   9.261  10.206   7.662 -0.1236 -0.1431  0.4480
  445MOL0     C58668   9.360  10.100   7.611 -0.0454 -0.1389  0.5167
  445MOL0     C58669   9.294   9.972   7.549  0.4495 -0.1890 -0.3981
  445MOL0     C58670   9.169   9.928   7.632 -0.0081 -1.2534 -0.3757
  445MOL0     C58671   9.117   9.797   7.588  0.3955  0.1486 -0.0532
  445MOL0     C58672   9.035   9.628   7.528 -0.0776 -0.4831  0.3633
  445MOL0     C58673   8.949  10.300   7.473  0.2528  0.1089 -0.0947
  445MOL0     C58674   8.824  10.363   7.504 -0.1991 -0.0868  0.1579
  445MOL0     H58675   8.419  10.639   7.714  0.1279  0.2797  0.2568
  445MOL0     H58676   8.196  10.672   7.666 -1.0898  1.5540 -2.2735
  445MOL0     H58677   7.954  10.663   7.626 -1.5579 -0.5069  1.7482
  445MOL0     H58678   7.998  10.493   7.653 -0.0917 -0.7819  0.5316
  445MOL0     H58679   7.843  10.399   7.522 -0.3278 -0.1679  0.6959
  445MOL0     H58680   7.802  10.539   7.431 -0.6409 -0.0695  0.4466
  445MOL0     H58681   7.618  10.489   7.592  0.0073 -1.0279  1.6896
  445MOL0     H58682   7.703  10.646   7.625 -0.4183 -0.3239  1.2832
  445MOL0     H58683   7.757  10.371   7.747 -0.9164 -0.3679  2.7067
  445MOL0     H58684   7.828  10.517   7.799 -0.1543  0.7950 -1.2732
  445MOL0     H58685   7.613  10.611   7.873  2.1066 -0.0711 -0.0678
  445MOL0     H58686   7.636  10.456   7.947 -1.1064 -0.9605  0.5822
  445MOL0     H58687   7.437  10.529   7.720  1.0776 -1.6908 -0.9274
  445MOL0     H58688   7.402  10.495   7.884 -0.9476 -0.1499 -0.8398
  445MOL0     H58689   7.542  10.279   7.712  0.5844 -2.5884  2.5648
  445MOL0     H58690   7.482  10.267   7.872  0.5030 -0.1143  0.0160
  445MOL0     H58691   7.327  10.193   7.663  1.0916 -0.2145  1.4053
  445MOL0     H58692   7.320  10.359   7.625  0.5951 -0.5000 -0.9423
  445MOL0     H58693   7.189  10.135   7.924  0.2587 -0.7234 -1.4248
  445MOL0     H58694   6.970  10.167   8.086 -2.1198  0.4592  2.0939
  445MOL0     H58695   6.862  10.291   8.029 -0.6532  0.0893  1.0352
  445MOL0     H58696   7.013  10.450   8.165  0.5367 -0.7565 -1.1977
  445MOL0     H58697   7.079  10.304   8.246  0.1110  2.2439  1.8110
  445MOL0     H58698   6.868  10.221   8.327  0.1096  1.6315  2.2866
  445MOL0     H58699   6.900  10.378   8.387 -2.1484  0.1551  0.6680
  445MOL0     H58700   6.702  10.312   8.175 -1.1596  2.1871 -0.6774
  445MOL0     H58701   6.770  10.469   8.192  1.5313 -0.0233  1.7084
  445MOL0     H58702   6.497  10.333   8.497 -0.5113  0.2620  1.0853
  445MOL0     H58703   6.262  10.376   8.497  1.1278 -0.8210  0.2327
  445MOL0     H58704   5.842  10.361   8.290 -3.3078 -1.2702  0.8201
  445MOL0     H58705   5.598  10.402   8.316  1.5415 -4.2570  2.1160
  445MOL0     H58706   5.472  10.750   8.558  0.4733 -0.5874 -0.9819
  445MOL0     H58707   5.521  10.639   8.690  1.4302 -2.5387 -0.9082
  445MOL0     H58708   5.272  10.670   8.533  1.0838 -1.9138 -1.1247
  445MOL0     H58709   5.292  10.715   8.707 -0.7093 -0.7192  1.1002
  445MOL0     H58710   5.333  10.486   8.760 -0.5421 -1.5487  0.3230
  445MOL0     H58711   5.288  10.454   8.578 -1.0130 -0.2794 -0.0235
  445MOL0     H58712   5.121  10.610   8.781 -1.6169  1.0941 -0.9450
  445MOL0     H58713   5.048  10.545   8.638  0.0865 -0.8615  0.5789
  445MOL0     H58714   5.050  10.319   8.759 -2.1827 -0.3923  2.1620
  445MOL0     H58715   4.990  10.451   8.841 -0.6841  3.1692 -3.3319
  445MOL0     H58716   5.215  10.494   8.959 -1.1429  1.0303  1.0092
  445MOL0     H58717   5.265  10.330   8.912  0.6683  1.6407  0.6113
  445MOL0     H58718   5.137  10.365   9.141 -2.5118 -2.3258  1.5933
  445MOL0     H58719   4.985  10.382   9.046  0.2994 -0.3798  1.6533
  445MOL0     H58720   5.039  10.154   8.940 -0.4285  2.0530 -0.1686
  445MOL0     H58721   4.977  10.170   9.098 -0.1722 -1.1779 -1.5265
  445MOL0     H58722   5.724  10.708   8.611  0.6664 -0.3059  0.3919
  445MOL0     H58723   5.952  10.676   8.556  1.2216 -1.1251  0.7553
  445MOL0     H58724   6.309  10.589   8.127  0.6330  0.7976  0.2374
  445MOL0     H58725   6.556  10.534   8.136 -1.8077 -2.1608 -2.3705
  445MOL0     H58726   8.231  10.477   7.288  2.9975 -2.2828 -0.8534
  445MOL0     H58727   8.488  10.484   7.333  0.8529  0.1764 -0.0168
  445MOL0     H58728   8.876  10.458   7.820  2.4934  1.0977 -0.6190
  445MOL0     H58729   9.068  10.312   7.792 -0.1139  0.2156  0.6787
  445MOL0     H58730   9.210  10.162   7.748 -1.8767  0.9674  0.0274
  445MOL0     H58731   9.316  10.296   7.692 -0.0324  0.3659 -1.1258
  445MOL0     H58732   9.426  10.137   7.532 -1.4289 -0.9619 -1.1037
  445MOL0     H58733   9.425  10.072   7.694  2.3844 -0.2313 -1.2812
  445MOL0     H58734   9.365   9.889   7.545  0.2826 -0.3183 -0.7101
  445MOL0     H58735   9.267  10.002   7.447 -2.5572  4.3370  1.4065
  445MOL0     H58736   9.182   9.940   7.740  1.3554  0.1606 -0.6646
  445MOL0     H58737   9.093  10.001   7.605  0.6401 -0.2819  0.3529
  445MOL0     H58738   8.994   9.539   7.485  2.5944 -1.8061  0.3231
  445MOL0     H58739   8.966  10.278   7.369  0.4930  2.6882 -0.6714
  445MOL0     H58740   8.745  10.370   7.430 -0.6061 -0.6476  0.5239
  446MOL0     O58741   7.398   0.553   2.138 -0.5907  0.6000 -0.2179
  446MOL0     C58742   7.397   0.449   2.211  0.6417  0.1530 -0.4353
  446MOL0     O58743   7.290   0.396   2.280  0.2445  0.3947 -0.4534
  446MOL0     C58744   7.176   0.463   2.272  0.5762  0.0312 -0.0471
  446MOL0     C58745   7.158   0.606   2.289 -0.0263 -0.7113  0.2001
  446MOL0     C58746   7.028   0.664   2.272  0.7763  0.6389 -0.1162
  446MOL0     C58747   6.915   0.579   2.252  0.5490  0.6460  0.4163
  446MOL0     O58748   6.785   0.619   2.247  0.7930 -0.2088 -0.2367
  446MOL0     C58749   6.770   0.763   2.250 -0.4836  0.0020 -0.0450
  446MOL0     C58750   6.617   0.788   2.275 -0.5700  0.2666 -0.1073
  446MOL0     C58751   6.597   0.935   2.227 -0.6269  0.1836  0.0413
  446MOL0     C58752   6.449   0.966   2.241  0.9175  0.6064 -0.2994
  446MOL0     C58753   6.409   1.107   2.190  0.0599  0.1494 -0.4752
  446MOL0     C58754   6.264   1.142   2.231 -0.1683  0.0429 -0.2299
  446MOL0     C58755   6.158   1.119   2.120 -0.1043  0.6511  0.1380
  446MOL0     C58756   6.165   0.971   2.061  0.0257  0.5948 -0.5758
  446MOL0     N58757   6.062   0.957   1.962 -0.4775  0.4254  0.0732
  446MOL0     C58758   6.084   0.919   1.833  0.0364 -0.3861  0.4588
  446MOL0     C58759   5.959   0.929   1.774 -0.4923 -0.2490  0.1209
  446MOL0     C58760   5.930   0.923   1.625  0.2324  0.4526  0.1945
  446MOL0     C58761   6.051   0.933   1.527  0.5400 -0.6931  0.4346
  446MOL0     C58762   6.006   0.970   1.389  0.8921 -1.0368 -0.2600
  446MOL0     C58763   6.126   0.975   1.298 -0.3457  0.1681  0.1960
  446MOL0     O58764   6.186   0.843   1.281  0.5552  0.0683  0.1966
  446MOL0     C58765   6.324   0.826   1.301  0.2877  0.7215 -0.2109
  446MOL0     C58766   6.400   0.911   1.376  0.3299 -0.0916 -0.1728
  446MOL0     C58767   6.532   0.896   1.395 -0.4607 -0.0840 -0.6098
  446MOL0     C58768   6.592   0.780   1.338 -0.1213 -0.6653  0.6479
  446MOL0     C58769   6.736   0.743   1.352  0.3564 -0.1489  0.2992
  446MOL0     O58770   6.794   0.645   1.276  0.5311 -0.7612  0.5403
  446MOL0     C58771   6.921   0.601   1.295 -0.5279 -0.6672  0.7777
  446MOL0     C58772   6.955   0.467   1.317 -0.2341  0.4099 -0.6392
  446MOL0     C58773   7.087   0.414   1.318  0.9879 -1.0714 -0.4150
  446MOL0     C58774   7.189   0.503   1.287  0.1067  0.4230 -0.0056
  446MOL0     O58775   7.325   0.472   1.299  0.2416  0.4766  0.3180
  446MOL0     C58776   7.387   0.427   1.178  1.0837  0.4828 -0.5940
  446MOL0     C58777   7.531   0.385   1.198 -1.2855 -0.3204  0.3617
  446MOL0     C58778   7.609   0.513   1.226  0.3718  0.3388 -0.9195
  446MOL0     C58779   7.759   0.480   1.226  0.2594  0.2402  1.0979
  446MOL0     C58780   7.835   0.606   1.220 -0.0100  0.6881 -0.1616
  446MOL0     C58781   7.984   0.588   1.193 -0.1047 -0.3142  0.3537
  446MOL0     C58782   8.079   0.670   1.281 -0.5142 -0.2437  0.2759
  446MOL0     C58783   8.218   0.615   1.268 -0.5982 -0.2653 -0.1622
  446MOL0    Cl58784   8.318   0.702   1.392  0.3089  0.8086  0.4248
  446MOL0     C58785   7.157   0.639   1.272  0.1258  0.0579 -0.4652
  446MOL0     C58786   7.032   0.690   1.266  1.4149 -0.5808 -0.5138
  446MOL0     O58787   6.796   0.827   1.419  0.5155 -0.0925  0.2248
  446MOL0     C58788   6.510   0.695   1.271 -0.0014  0.3564  0.3876
  446MOL0     C58789   6.378   0.711   1.255  0.5649  0.1386  0.0677
  446MOL0     N58790   5.864   0.966   1.866  0.3071 -0.8076 -0.1588
  446MOL0     N58791   5.928   0.975   1.983 -0.4950  0.6701 -0.3687
  446MOL0     C58792   6.930   0.440   2.255  0.6950  0.2403  0.1204
  446MOL0     C58793   7.058   0.382   2.262  0.0994 -0.8453  0.9994
  446MOL0     C58794   7.516   0.359   2.203 -0.5332 -0.7128 -0.5137
  446MOL0     C58795   7.546   0.268   2.304  0.1726 -0.2654  0.0090
  446MOL0     C58796   7.660   0.181   2.294  0.4983  0.1668 -0.0015
  446MOL0     C58797   7.742   0.187   2.185  0.7336  1.0476 -0.3509
  446MOL0     O58798   7.853   0.105   2.181  0.3021 -0.9254 -0.3672
  446MOL0     C58799   7.972   0.162   2.133 -0.4390 -0.0198 -0.1125
  446MOL0     C58800   8.079   0.060   2.126  0.2616  0.6642  0.4128
  446MOL0     C58801   8.142   0.020   2.261 -0.0725  0.0830  0.5718
  446MOL0     C58802   8.263  -0.067   2.226 -0.1215 -0.5869 -0.5633
  446MOL0     C58803   8.323  -0.095   2.358  0.7777 -0.4113  0.1366
  446MOL0     C58804   8.390  -0.095   2.461  0.0170 -1.1315  0.0106
  446MOL0     C58805   7.718   0.285   2.088  1.0202 -0.2579 -0.0489
  446MOL0     C58806   7.599   0.357   2.093  0.2411 -0.1151  1.2283
  446MOL0     H58807   7.244   0.672   2.296 -0.1024 -0.3482 -1.7187
  446MOL0     H58808   7.018   0.772   2.274 -1.0273  0.5337 -1.1781
  446MOL0     H58809   6.804   0.803   2.153  1.8545 -0.9822  0.3111
  446MOL0     H58810   6.809   0.818   2.337 -0.5158  0.3917 -0.2727
  446MOL0     H58811   6.587   0.768   2.378 -1.8130  0.1121 -0.4875
  446MOL0     H58812   6.561   0.721   2.209  1.7327  0.2320 -2.1477
  446MOL0     H58813   6.638   0.958   2.128 -1.1346  1.0757  0.0243
  446MOL0     H58814   6.648   1.001   2.298 -1.7658  1.2209 -0.0809
  446MOL0     H58815   6.389   0.887   2.193  1.1256 -1.3428  2.4396
  446MOL0     H58816   6.431   0.963   2.348  2.1100  0.8718 -0.0808
  446MOL0     H58817   6.431   1.119   2.084  1.0838 -0.0197 -0.3007
  446MOL0     H58818   6.482   1.173   2.239  0.1450 -0.7378  0.6591
  446MOL0     H58819   6.262   1.244   2.270  2.0715 -1.1459  3.5375
  446MOL0     H58820   6.232   1.076   2.312  1.9386 -2.3491 -1.2285
  446MOL0     H58821   6.059   1.138   2.161  0.8572 -0.3412  3.1945
  446MOL0     H58822   6.182   1.197   2.047  0.8083  1.5580  1.3458
  446MOL0     H58823   6.156   0.893   2.137 -1.7449 -0.0350 -1.3987
  446MOL0     H58824   6.255   0.937   2.009  1.6781  2.0848  1.1308
  446MOL0     H58825   6.180   0.891   1.791  1.2967  3.5322  0.2440
  446MOL0     H58826   5.858   1.003   1.606  0.8083  0.8750 -0.2567
  446MOL0     H58827   5.868   0.836   1.602 -2.3904  1.6598  2.2490
  446MOL0     H58828   6.123   0.850   1.533  2.7891  1.2552  2.3894
  446MOL0     H58829   6.106   1.021   1.561  0.0319 -1.0779  2.3952
  446MOL0     H58830   5.946   0.891   1.344 -0.6313 -0.0042 -0.1363
  446MOL0     H58831   5.950   1.064   1.398 -0.0496 -1.7847  3.7678
  446MOL0     H58832   6.194   1.051   1.337 -0.7499  0.4622  0.3435
  446MOL0     H58833   6.092   1.010   1.200  0.4280  0.8996  0.1758
  446MOL0     H58834   6.356   0.998   1.422 -0.8976 -0.0139 -1.4212
  446MOL0     H58835   6.567   0.980   1.455 -3.7588  1.1329 -0.1573
  446MOL0     H58836   6.879   0.390   1.329  0.3352 -0.3014 -1.5306
  446MOL0     H58837   7.111   0.309   1.333  0.4601 -1.1096  0.1944
  446MOL0     H58838   7.373   0.509   1.107  0.7224  0.7398 -0.2321
  446MOL0     H58839   7.335   0.340   1.134  0.4863  1.1680 -1.2835
  446MOL0     H58840   7.577   0.343   1.109 -1.5914  2.1441 -1.0592
  446MOL0     H58841   7.537   0.316   1.283 -1.1627 -0.1523  0.4895
  446MOL0     H58842   7.579   0.557   1.321 -1.9116 -0.4651 -1.2115
  446MOL0     H58843   7.585   0.585   1.147 -2.4557  0.9706  0.4149
  446MOL0     H58844   7.782   0.413   1.310  0.0362 -1.0855  0.1238
  446MOL0     H58845   7.781   0.425   1.134 -1.3874 -1.9790  1.9529
  446MOL0     H58846   7.816   0.665   1.310  0.4082  1.5519 -0.6226
  446MOL0     H58847   7.795   0.669   1.140 -1.5517  1.6395  1.2862
  446MOL0     H58848   8.012   0.607   1.089  1.0685  1.9487  1.0228
  446MOL0     H58849   8.000   0.482   1.213 -1.7117 -0.3564  1.6657
  446MOL0     H58850   8.075   0.776   1.253  0.6170  0.1377  1.4427
  446MOL0     H58851   8.052   0.667   1.387 -0.2124  0.4806  0.3813
  446MOL0     H58852   8.268   0.628   1.172  0.8826  2.1864  0.8326
  446MOL0     H58853   8.219   0.507   1.284 -0.1976 -0.4417 -1.3165
  446MOL0     H58854   7.243   0.705   1.266  0.7114 -0.7249 -0.7545
  446MOL0     H58855   7.013   0.796   1.264  3.4898 -0.1714 -0.8478
  446MOL0     H58856   6.542   0.596   1.241 -1.6035 -0.2991  0.7202
  446MOL0     H58857   6.324   0.629   1.208  1.5959 -0.5073  0.0015
  446MOL0     H58858   6.840   0.384   2.276  1.6085 -1.3273  0.0769
  446MOL0     H58859   7.055   0.274   2.256 -3.4055 -0.8304  0.3050
  446MOL0     H58860   7.484   0.272   2.393  0.3200  1.5775  0.0617
  446MOL0     H58861   7.670   0.113   2.379 -2.1244  0.1288  0.3786
  446MOL0     H58862   8.016   0.246   2.189  1.2707  0.6629 -2.3033
  446MOL0     H58863   7.945   0.197   2.033 -2.2421 -1.4192 -0.1608
  446MOL0     H58864   8.043  -0.031   2.077  2.8917  0.0056 -0.4639
  446MOL0     H58865   8.149   0.103   2.054  0.9949  1.7788  1.7550
  446MOL0     H58866   8.073  -0.027   2.332 -2.8705  0.7721 -1.5289
  446MOL0     H58867   8.173   0.119   2.296 -0.7488  0.4105  0.2790
  446MOL0     H58868   8.241  -0.166   2.186  1.9405 -1.7791  1.0840
  446MOL0     H58869   8.323  -0.013   2.152  1.3454 -2.3868 -0.7459
  446MOL0     H58870   8.455  -0.100   2.546 -0.7530  1.8901  0.9129
  446MOL0     H58871   7.776   0.290   1.997  0.7008 -0.2301 -0.2515
  446MOL0     H58872   7.579   0.427   2.012 -1.2126  0.3141  1.9245
  447MOL0     O58873  10.077   1.788   7.605  0.3508 -0.0934  0.5750
  447MOL0     C58874  10.127   1.682   7.651  0.4591 -0.6230 -0.1554
  447MOL0     O58875  10.090   1.556   7.621  0.3018  0.5479  0.4597
  447MOL0     C58876   9.999   1.544   7.519  0.5339 -0.0873 -0.3025
  447MOL0     C58877   9.862   1.568   7.545  0.0345 -0.2650  0.3145
  447MOL0     C58878   9.767   1.568   7.438  0.1076 -0.8557 -0.5235
  447MOL0     C58879   9.805   1.542   7.308  0.0190 -0.2066  0.7360
  447MOL0     O58880   9.715   1.549   7.204 -0.2068  0.0141  0.9158
  447MOL0     C58881   9.585   1.488   7.206 -1.0084 -1.3345  0.0063
  447MOL0     C58882   9.584   1.334   7.192 -0.1972  0.0435  0.5939
  447MOL0     C58883   9.435   1.287   7.182  0.4591  0.9097 -0.6263
  447MOL0     C58884   9.348   1.351   7.078 -0.2023  0.1356  1.3151
  447MOL0     C58885   9.226   1.261   7.051  0.0923 -0.4175 -0.3566
  447MOL0     C58886   9.132   1.259   7.161  0.7031  0.4569  0.3824
  447MOL0     C58887   8.991   1.193   7.147 -0.2011  0.3689  0.8876
  447MOL0     C58888   8.905   1.271   7.041 -0.3745 -0.2108 -0.4273
  447MOL0     N58889   8.768   1.235   7.040 -0.0062 -0.2836 -1.0313
  447MOL0     C58890   8.695   1.203   7.156 -0.2589 -0.1641  0.3969
  447MOL0     C58891   8.571   1.167   7.109 -0.5653  0.4926  0.4532
  447MOL0     C58892   8.463   1.108   7.194  0.0854  0.8430  0.3979
  447MOL0     C58893   8.432   0.963   7.149 -0.7399  1.0804 -0.8248
  447MOL0     C58894   8.311   0.910   7.229  0.3770 -0.0126  0.9817
  447MOL0     C58895   8.262   0.772   7.193 -0.2847 -0.0619  0.5820
  447MOL0     O58896   8.212   0.779   7.066 -0.3418  0.1196 -0.2384
  447MOL0     C58897   8.075   0.801   7.046  0.2149  0.0710 -0.5126
  447MOL0     C58898   7.987   0.833   7.150 -0.7542 -0.3741 -0.9062
  447MOL0     C58899   7.854   0.852   7.114  0.5732 -0.2283  0.6600
  447MOL0     C58900   7.809   0.847   6.979  0.1606  0.1995  0.0616
  447MOL0     C58901   7.673   0.887   6.943  0.1689 -0.2100 -0.1005
  447MOL0     O58902   7.616   0.823   6.838  0.2160 -0.6654 -0.1109
  447MOL0     C58903   7.490   0.863   6.791  0.4172 -0.0486 -0.0009
  447MOL0     C58904   7.476   0.876   6.651  0.1936 -0.1587 -0.8439
  447MOL0     C58905   7.356   0.920   6.590 -0.4991 -0.2543  0.2843
  447MOL0     C58906   7.250   0.953   6.676  0.0215 -0.9871 -0.4625
  447MOL0     O58907   7.131   1.005   6.632 -0.4318 -0.3933 -0.4162
  447MOL0     C58908   7.019   0.913   6.621 -0.3825  0.1856  0.8506
  447MOL0     C58909   6.898   0.995   6.673  0.2427  0.6504 -0.3524
  447MOL0     C58910   6.765   0.928   6.693  0.2785  0.3867 -0.4434
  447MOL0     C58911   6.663   1.013   6.777  0.2468 -0.7967 -0.0880
  447MOL0     C58912   6.536   0.942   6.766 -0.1438  0.0048  0.1728
  447MOL0     C58913   6.418   1.020   6.830  0.3650  0.8613 -0.9350
  447MOL0     C58914   6.284   0.966   6.775  0.6112 -0.2173  0.0940
  447MOL0     C58915   6.175   0.970   6.875 -0.2410 -0.3938  0.1074
  447MOL0    Cl58916   6.030   0.903   6.802 -0.0441 -0.0961 -0.2926
  447MOL0     C58917   7.272   0.953   6.818 -0.5101  0.5696 -0.2500
  447MOL0     C58918   7.381   0.895   6.876  0.3170 -1.1794 -0.4113
  447MOL0     O58919   7.628   0.987   7.000  0.4301 -0.6921 -0.2201
  447MOL0     C58920   7.901   0.817   6.878 -0.1119  0.6346 -0.5589
  447MOL0     C58921   8.035   0.788   6.909  0.4034  0.3174  0.1442
  447MOL0     N58922   8.582   1.179   6.968 -0.3849 -0.7307  0.7783
  447MOL0     N58923   8.690   1.225   6.932 -0.2167  0.0429  0.3526
  447MOL0     C58924   9.944   1.521   7.284  0.5344 -0.1388  0.1082
  447MOL0     C58925  10.039   1.522   7.389 -0.1852 -0.5644  0.2217
  447MOL0     C58926  10.225   1.697   7.760 -1.0011 -0.8831  0.5843
  447MOL0     C58927  10.311   1.597   7.804 -0.2523  0.5511  0.0973
  447MOL0     C58928  10.404   1.619   7.911 -0.1663  0.3316 -0.0660
  447MOL0     C58929  10.433   1.750   7.947 -0.0151  0.0703  0.1785
  447MOL0     O58930  10.537   1.767   8.034  0.9311  0.1683  0.3824
  447MOL0     C58931  10.571   1.899   8.092  0.2599  1.2343  0.5671
  447MOL0     C58932  10.512   1.917   8.229  0.0569 -0.6889  0.6534
  447MOL0     C58933  10.560   1.814   8.331  0.7852 -0.0279  0.0946
  447MOL0     C58934  10.513   1.851   8.471 -0.3917  0.7115  0.7012
  447MOL0     C58935  10.615   1.923   8.543 -0.0291  0.0837  0.0283
  447MOL0     C58936  10.705   1.982   8.606  0.8199 -0.3207 -1.0420
  447MOL0     C58937  10.347   1.850   7.890 -0.2592  0.6285  0.2155
  447MOL0     C58938  10.243   1.822   7.809 -0.2561  0.3213 -0.1292
  447MOL0     H58939   9.819   1.576   7.645  0.8267  1.0748  0.5783
  447MOL0     H58940   9.666   1.606   7.454  0.4816  0.0503 -0.2664
  447MOL0     H58941   9.525   1.537   7.128 -0.5130 -0.8141 -0.0548
  447MOL0     H58942   9.549   1.521   7.304  0.7246  0.9462 -0.0415
  447MOL0     H58943   9.618   1.291   7.286  2.2829 -1.7854 -1.0146
  447MOL0     H58944   9.648   1.289   7.115 -0.5557 -0.3274  0.5068
  447MOL0     H58945   9.390   1.314   7.279 -0.4217 -0.5162 -0.6109
  447MOL0     H58946   9.433   1.178   7.184 -2.7470  0.8684 -0.3552
  447MOL0     H58947   9.311   1.446   7.115 -2.6331 -0.5186  0.7317
  447MOL0     H58948   9.406   1.369   6.987  1.2426  2.0284  2.5378
  447MOL0     H58949   9.235   1.160   7.009 -0.6276  0.5844 -3.1075
  447MOL0     H58950   9.170   1.321   6.978 -0.9574 -0.2835  0.5462
  447MOL0     H58951   9.109   1.362   7.191 -3.1014  1.0590 -3.5146
  447MOL0     H58952   9.182   1.214   7.247  0.5786 -0.9472 -0.2573
  447MOL0     H58953   8.988   1.086   7.125  2.2451 -0.0248  2.0913
  447MOL0     H58954   8.952   1.199   7.249  0.5976  0.7939  1.1833
  447MOL0     H58955   8.942   1.239   6.943 -0.2723 -0.8941 -0.1700
  447MOL0     H58956   8.919   1.379   7.051 -1.1346 -0.2692  1.9613
  447MOL0     H58957   8.716   1.217   7.262  1.6020  2.5609 -0.2553
  447MOL0     H58958   8.371   1.165   7.183 -0.6403 -0.7632 -4.3691
  447MOL0     H58959   8.497   1.097   7.297 -0.6474 -0.2766  0.5461
  447MOL0     H58960   8.522   0.907   7.173 -2.9729 -2.0646  0.9736
  447MOL0     H58961   8.414   0.955   7.041  2.7385  0.3835 -1.4740
  447MOL0     H58962   8.348   0.909   7.332  3.9576  4.2957  0.0419
  447MOL0     H58963   8.226   0.979   7.222 -0.6079 -1.1501  1.2412
  447MOL0     H58964   8.191   0.729   7.265 -0.6312 -0.5573 -0.0480
  447MOL0     H58965   8.349   0.706   7.189  0.1499  0.5541 -0.7736
  447MOL0     H58966   8.008   0.827   7.256 -1.7115 -0.3625 -0.7078
  447MOL0     H58967   7.785   0.873   7.194  0.6599 -3.0995  1.6196
  447MOL0     H58968   7.563   0.866   6.586  0.2257 -2.3693 -0.5175
  447MOL0     H58969   7.339   0.938   6.485  0.9498  1.2532  0.2686
  447MOL0     H58970   7.027   0.817   6.673  3.1056 -0.4096 -0.5013
  447MOL0     H58971   7.011   0.887   6.515 -2.9432 -1.6730  1.3940
  447MOL0     H58972   6.885   1.082   6.609  1.9149  1.8057  0.8119
  447MOL0     H58973   6.921   1.036   6.772 -0.5241 -0.9119  0.5162
  447MOL0     H58974   6.783   0.833   6.745 -1.0237  0.4451  0.1459
  447MOL0     H58975   6.733   0.909   6.590 -0.9639  0.5287 -0.1012
  447MOL0     H58976   6.695   1.019   6.882 -2.1389 -2.4710  0.8409
  447MOL0     H58977   6.652   1.110   6.728 -1.3721 -0.3223  1.1154
  447MOL0     H58978   6.535   0.840   6.806  1.9716  0.2837  1.0110
  447MOL0     H58979   6.520   0.930   6.658  2.8902 -0.9589 -0.2676
  447MOL0     H58980   6.427   1.129   6.827  1.0599  0.9215  1.4328
  447MOL0     H58981   6.418   0.994   6.937  0.5607 -4.2636 -1.9177
  447MOL0     H58982   6.263   1.014   6.679  3.3708 -1.2963 -1.1452
  447MOL0     H58983   6.300   0.859   6.756 -1.8108 -0.3684 -1.5317
  447MOL0     H58984   6.154   1.075   6.896  0.7675 -0.3150  0.7708
  447MOL0     H58985   6.200   0.917   6.968 -2.9875 -1.9780  0.0549
  447MOL0     H58986   7.179   0.975   6.869 -1.1260 -0.1929 -1.0122
  447MOL0     H58987   7.387   0.886   6.984  1.8032 -2.7149 -0.5902
  447MOL0     H58988   7.873   0.813   6.774 -0.6203  1.8688 -0.4847
  447MOL0     H58989   8.112   0.752   6.842 -1.6400 -1.4066 -1.3798
  447MOL0     H58990   9.981   1.512   7.183 -1.1633 -1.1366 -0.4659
  447MOL0     H58991  10.146   1.520   7.373 -0.2378  1.6026 -0.6871
  447MOL0     H58992  10.303   1.494   7.770 -1.0409  0.3417  0.8748
  447MOL0     H58993  10.457   1.533   7.949 -0.3209  0.5611  0.6710
  447MOL0     H58994  10.523   1.981   8.039 -1.3550  0.0493  0.1333
  447MOL0     H58995  10.679   1.914   8.102  0.3263 -0.3296  3.1191
  447MOL0     H58996  10.544   2.017   8.259 -1.1499  0.4749 -1.6936
  447MOL0     H58997  10.404   1.909   8.216  0.1170  1.2012 -1.9579
  447MOL0     H58998  10.668   1.797   8.333  0.9795  1.0828  3.1484
  447MOL0     H58999  10.502   1.725   8.303  0.4399 -0.2176  1.3625
  447MOL0     H59000  10.414   1.896   8.457 -0.1661  0.6282 -1.5086
  447MOL0     H59001  10.480   1.760   8.521 -2.9891  0.0941 -1.8662
  447MOL0     H59002  10.780   2.036   8.659 -1.3379 -1.1826  3.3589
  447MOL0     H59003  10.360   1.957   7.909 -0.8752  1.0120 -1.3753
  447MOL0     H59004  10.168   1.895   7.781 -0.9413  1.2549  3.6109
  448MOL0     O59005   5.089  10.873   6.406 -0.2036 -0.2463 -0.5128
  448MOL0     C59006   5.157  10.832   6.500 -0.2065 -0.5485  0.1650
  448MOL0     O59007   5.116  10.738   6.591 -0.4614  0.0486 -0.7748
  448MOL0     C59008   5.002  10.663   6.582 -0.0942  0.3522  0.8058
  448MOL0     C59009   5.015  10.521   6.594 -1.0177 -0.3371  0.3534
  448MOL0     C59010   4.907  10.444   6.577  0.2751 -0.3172 -0.1303
  448MOL0     C59011   4.782  10.504   6.541 -1.3090 -0.0564 -0.3013
  448MOL0     O59012   4.681  10.412   6.516 -0.4958  0.1457  0.0443
  448MOL0     C59013   4.548  10.472   6.521 -0.8025  0.2872  0.1164
  448MOL0     C59014   4.445  10.362   6.521 -0.3839  0.0071 -0.1923
  448MOL0     C59015   4.301  10.388   6.551  0.6054  0.1715  0.4839
  448MOL0     C59016   4.207  10.271   6.551  0.1706  0.3627 -0.5546
  448MOL0     C59017   4.069  10.308   6.583 -0.4392  0.3954 -0.5862
  448MOL0     C59018   4.046  10.366   6.719 -0.0086 -1.3901 -0.0084
  448MOL0     C59019   3.899  10.387   6.733  0.3776  0.4938  0.0491
  448MOL0     C59020   3.859  10.455   6.863  0.2953  0.1605  0.5815
  448MOL0     N59021   3.854  10.599   6.862 -0.1536  0.2435  0.0416
  448MOL0     C59022   3.771  10.687   6.789 -0.5727  1.5505  0.1198
  448MOL0     C59023   3.805  10.810   6.826  0.3896  0.0169  0.2685
  448MOL0     C59024   3.753  10.936   6.774 -0.4002  0.1484 -0.0575
  448MOL0     C59025   3.602  10.936   6.801 -0.1594  0.2646  0.6155
  448MOL0     C59026   3.565  11.081   6.819 -0.2199 -0.6396  0.4785
  448MOL0     C59027   3.414  11.111   6.807 -0.1100 -0.0597 -0.1409
  448MOL0     O59028   3.397  11.252   6.805 -0.6532 -0.3037  0.4614
  448MOL0     C59029   3.267  11.293   6.794  0.1405  0.2446  0.0814
  448MOL0     C59030   3.249  11.430   6.752  0.1431 -0.4744  0.5783
  448MOL0     C59031   3.122  11.486   6.744 -0.3748  0.6256 -0.4408
  448MOL0     C59032   3.004  11.400   6.743  0.7815  0.2650  0.0834
  448MOL0     C59033   2.870  11.454   6.717  0.7097  0.2560  0.0039
  448MOL0     O59034   2.768  11.364   6.707 -0.1145  0.3577  0.2245
  448MOL0     C59035   2.652  11.408   6.661  0.8043 -0.4807 -0.9976
  448MOL0     C59036   2.594  11.358   6.542  0.2520  0.1326  0.4545
  448MOL0     C59037   2.468  11.408   6.513  0.4885  0.1022  0.5666
  448MOL0     C59038   2.402  11.509   6.581  0.8626  0.3015  0.5365
  448MOL0     O59039   2.267  11.540   6.564 -0.5941 -0.8923  0.0370
  448MOL0     C59040   2.224  11.581   6.435 -0.4258 -0.0989  0.4230
  448MOL0     C59041   2.220  11.731   6.398 -0.2381 -0.3544 -0.0497
  448MOL0     C59042   2.131  11.812   6.490 -0.2301 -0.0068 -0.4065
  448MOL0     C59043   1.984  11.790   6.461  0.1436  0.0082 -0.8392
  448MOL0     C59044   1.893  11.885   6.537  0.3088 -0.6467 -1.0462
  448MOL0     C59045   1.882  11.853   6.698  0.2931 -0.0245  0.3946
  448MOL0     C59046   1.838  11.705   6.721 -0.5690 -0.2598  0.0743
  448MOL0     C59047   1.708  11.655   6.651 -0.0372  0.4665 -0.2499
  448MOL0    Cl59048   1.675  11.490   6.701 -0.2322  0.0850 -0.1578
  448MOL0     C59049   2.460  11.560   6.694  0.6375 -0.1555  0.7763
  448MOL0     C59050   2.574  11.508   6.734  0.1332 -0.2440 -0.9618
  448MOL0     O59051   2.866  11.569   6.673  0.8064 -0.4309  0.3637
  448MOL0     C59052   3.026  11.269   6.775 -0.1958 -1.2437 -0.4761
  448MOL0     C59053   3.149  11.215   6.809  0.3545  0.5933 -0.2847
  448MOL0     N59054   3.909  10.804   6.914  0.3360  0.1110  0.5588
  448MOL0     N59055   3.937  10.680   6.936  0.3417  0.6722  0.6041
  448MOL0     C59056   4.769  10.643   6.526  0.1360  0.4503  0.3876
  448MOL0     C59057   4.881  10.720   6.546  0.1793 -0.3239  0.2591
  448MOL0     C59058   5.284  10.899   6.528 -0.3829  0.4203  0.0736
  448MOL0     C59059   5.371  10.856   6.637  0.7732 -0.1415  0.5091
  448MOL0     C59060   5.502  10.911   6.636  0.3465  0.2127  0.4784
  448MOL0     C59061   5.549  10.999   6.537 -0.7080 -0.7816  0.0726
  448MOL0     O59062   5.682  11.046   6.539  0.0785  0.4112  0.4737
  448MOL0     C59063   5.695  11.186   6.504  0.3435 -0.2901  0.0088
  448MOL0     C59064   5.829  11.249   6.512  1.5826 -0.0727 -0.0662
  448MOL0     C59065   5.899  11.234   6.648  0.9140 -0.4417 -1.1569
  448MOL0     C59066   6.038  11.287   6.657  0.2975 -0.3184  0.1903
  448MOL0     C59067   6.116  11.186   6.580 -0.7222  0.9200 -0.0288
  448MOL0     C59068   6.189  11.098   6.524 -0.3284  0.8494  0.5983
  448MOL0     C59069   5.463  11.031   6.430  0.5801 -0.0598 -0.5709
  448MOL0     C59070   5.334  10.989   6.430  0.3783  1.4276 -1.2782
  448MOL0     H59071   5.117  10.491   6.615 -1.5228 -1.3317  1.5072
  448MOL0     H59072   4.913  10.336   6.584  2.6004 -0.2096  0.2933
  448MOL0     H59073   4.526  10.532   6.432 -0.4698  0.6031  0.2467
  448MOL0     H59074   4.536  10.539   6.607  0.1267 -0.7530  1.0893
  448MOL0     H59075   4.480  10.280   6.585 -4.9578 -1.2218  1.1003
  448MOL0     H59076   4.452  10.322   6.420  0.4002 -0.3431 -0.0102
  448MOL0     H59077   4.273  10.475   6.490 -3.7976  0.5125  2.6182
  448MOL0     H59078   4.300  10.437   6.650  0.3239  3.3286 -0.9446
  448MOL0     H59079   4.210  10.227   6.451  1.3832  1.6324 -1.1065
  448MOL0     H59080   4.251  10.199   6.621  0.0571  2.7381  2.1328
  448MOL0     H59081   3.999  10.224   6.582 -1.2985  1.0407  1.2421
  448MOL0     H59082   4.029  10.380   6.511 -0.4551  3.7104  2.4465
  448MOL0     H59083   4.096  10.459   6.746  0.7465 -2.0115  0.7882
  448MOL0     H59084   4.082  10.293   6.792  0.3234 -1.2474 -0.0293
  448MOL0     H59085   3.864  10.447   6.648 -2.9226  0.5291  1.2836
  448MOL0     H59086   3.855  10.289   6.714  1.5994 -0.0864  0.1465
  448MOL0     H59087   3.924  10.414   6.942  1.5902 -1.2332 -1.1237
  448MOL0     H59088   3.760  10.421   6.893  0.4530  1.3150  2.5468
  448MOL0     H59089   3.697  10.657   6.716  1.5729 -2.7686 -0.6595
  448MOL0     H59090   3.780  10.961   6.672 -0.6537  4.0867  0.6940
  448MOL0     H59091   3.784  11.022   6.833 -4.4905  1.0994  1.0685
  448MOL0     H59092   3.582  10.872   6.887  2.2586 -3.4641 -1.3102
  448MOL0     H59093   3.551  10.891   6.715  1.5199  1.1537 -0.9182
  448MOL0     H59094   3.594  11.119   6.917 -1.1306 -0.8764  0.8480
  448MOL0     H59095   3.616  11.144   6.745 -2.4748 -0.2171 -0.8167
  448MOL0     H59096   3.367  11.058   6.891 -0.7922 -2.5889 -1.9798
  448MOL0     H59097   3.369  11.078   6.714 -3.2207 -1.1927  1.6174
  448MOL0     H59098   3.328  11.502   6.735 -1.5469  0.8985 -2.1643
  448MOL0     H59099   3.112  11.592   6.722  0.2059  0.3147 -2.4370
  448MOL0     H59100   2.652  11.290   6.481  0.2167  1.7757 -1.4766
  448MOL0     H59101   2.415  11.372   6.425 -1.8216 -0.4882  2.1183
  448MOL0     H59102   2.120  11.549   6.431 -0.4146 -0.1787  0.7286
  448MOL0     H59103   2.274  11.521   6.358 -2.0554 -1.0206  0.0293
  448MOL0     H59104   2.172  11.742   6.300  2.1196  0.8986 -1.1348
  448MOL0     H59105   2.323  11.767   6.392  0.6198 -2.1593  2.3669
  448MOL0     H59106   2.152  11.919   6.489 -3.6876  0.7998  0.2913
  448MOL0     H59107   2.149  11.783   6.594 -1.1956  1.7164  0.2854
  448MOL0     H59108   1.978  11.829   6.359  1.9083  0.2389 -0.8921
  448MOL0     H59109   1.946  11.687   6.465 -1.9227  0.7179  3.2021
  448MOL0     H59110   1.792  11.880   6.495 -0.3618  0.9457  0.2515
  448MOL0     H59111   1.931  11.987   6.531  0.4541 -0.4917  1.3518
  448MOL0     H59112   1.820  11.930   6.745 -2.2345  0.2232 -2.9510
  448MOL0     H59113   1.985  11.863   6.735  0.5188  1.5648 -0.5735
  448MOL0     H59114   1.919  11.634   6.700 -3.2706 -2.5256 -4.0310
  448MOL0     H59115   1.822  11.696   6.829 -0.7889  3.5298  0.4931
  448MOL0     H59116   1.725  11.655   6.543  1.9652 -0.7019  0.0272
  448MOL0     H59117   1.624  11.723   6.673  0.0977 -0.0418  2.0349
  448MOL0     H59118   2.413  11.632   6.761 -0.4064 -0.3499  0.2837
  448MOL0     H59119   2.609  11.558   6.824 -1.8882  0.4382 -0.5019
  448MOL0     H59120   2.943  11.199   6.773 -0.7725 -0.5947 -2.6911
  448MOL0     H59121   3.144  11.111   6.840  0.4427  0.4682 -0.6865
  448MOL0     H59122   4.677  10.692   6.494  0.8323  0.9689 -0.8828
  448MOL0     H59123   4.877  10.828   6.537  0.3952 -0.2535  0.9424
  448MOL0     H59124   5.328  10.786   6.708 -3.5563  1.9886  0.3377
  448MOL0     H59125   5.574  10.888   6.715  1.1143  2.8341  0.6464
  448MOL0     H59126   5.620  11.244   6.559 -1.2666 -0.9623 -1.3954
  448MOL0     H59127   5.667  11.194   6.399  3.0191 -0.5552 -0.7931
  448MOL0     H59128   5.890  11.204   6.433 -1.3170 -1.6402 -1.5642
  448MOL0     H59129   5.811  11.356   6.499  0.2344 -0.3576 -0.7602
  448MOL0     H59130   5.899  11.130   6.682  1.0497  0.3315  1.3913
  448MOL0     H59131   5.844  11.285   6.727  4.1120  0.0252  0.9531
  448MOL0     H59132   6.042  11.376   6.595 -2.0422 -1.7423 -2.2023
  448MOL0     H59133   6.082  11.314   6.753  0.4833 -3.2382  1.0306
  448MOL0     H59134   6.262  11.038   6.473 -2.8690 -3.1461  1.2883
  448MOL0     H59135   5.502  11.090   6.348  0.4024 -1.4508 -1.7084
  448MOL0     H59136   5.266  11.023   6.352 -3.5713 -3.0786 -0.2287
  449MOL0     O59137   3.684   1.391   8.008 -0.3396  0.4683 -0.3290
  449MOL0     C59138   3.737   1.462   7.921  0.0919  0.0446 -0.3894
  449MOL0     O59139   3.676   1.551   7.843 -0.1090  0.1858 -0.0301
  449MOL0     C59140   3.540   1.585   7.851  0.2898  0.8181  0.5753
  449MOL0     C59141   3.509   1.669   7.752 -0.3802  0.0585 -0.3527
  449MOL0     C59142   3.384   1.724   7.740 -0.0702 -0.3928  0.4999
  449MOL0     C59143   3.277   1.667   7.803 -0.1030 -0.2042 -0.1668
  449MOL0     O59144   3.150   1.693   7.748  0.5504 -0.5023  0.2076
  449MOL0     C59145   3.038   1.686   7.829  0.2165 -0.6012 -0.4282
  449MOL0     C59146   2.977   1.549   7.812  0.6569  0.5571 -0.2258
  449MOL0     C59147   2.915   1.498   7.949 -0.2573  0.1508 -0.0021
  449MOL0     C59148   2.827   1.363   7.914 -0.4090  0.2898 -1.1023
  449MOL0     C59149   2.752   1.308   8.037 -0.0509  0.4242 -0.0858
  449MOL0     C59150   2.622   1.379   8.063 -0.5746 -0.1065 -0.5328
  449MOL0     C59151   2.567   1.342   8.197 -0.7825  1.1457  0.4865
  449MOL0     C59152   2.428   1.410   8.215 -0.1501  0.1700  0.3539
  449MOL0     N59153   2.372   1.361   8.336 -0.1635  0.3090  0.6676
  449MOL0     C59154   2.316   1.230   8.345  1.2819  0.0197 -0.0249
  449MOL0     C59155   2.249   1.237   8.462 -0.0885  0.2094 -0.1277
  449MOL0     C59156   2.185   1.121   8.522  0.3357  0.2279 -0.1143
  449MOL0     C59157   2.274   1.069   8.628 -0.0331 -0.7266 -0.5744
  449MOL0     C59158   2.261   0.925   8.673 -0.2498  1.0813 -0.2194
  449MOL0     C59159   2.115   0.886   8.690 -0.3323 -0.0215 -0.9390
  449MOL0     O59160   2.039   0.971   8.779  0.1439  0.3270  0.3548
  449MOL0     C59161   1.907   0.949   8.788  0.0949 -0.2503 -0.0051
  449MOL0     C59162   1.819   0.909   8.698 -0.8012 -0.3091 -0.2163
  449MOL0     C59163   1.685   0.897   8.728  0.5043 -0.0117 -0.0790
  449MOL0     C59164   1.634   0.937   8.849  0.2168 -0.5987 -0.5819
  449MOL0     C59165   1.488   0.958   8.885  0.9870  0.3862  0.1135
  449MOL0     O59166   1.407   0.938   8.777  1.0734  0.1082 -0.6367
  449MOL0     C59167   1.269   0.966   8.803 -1.0339  0.1640  0.7012
  449MOL0     C59168   1.190   0.869   8.865  0.2283  0.9747  0.8974
  449MOL0     C59169   1.058   0.898   8.884 -0.3797  0.4121  0.4232
  449MOL0     C59170   1.004   1.024   8.850 -0.2419  0.5451  0.6787
  449MOL0     O59171   0.876   1.051   8.883 -0.0714 -0.3168  0.3285
  449MOL0     C59172   0.851   1.165   8.965 -0.0533  0.2056  0.0358
  449MOL0     C59173   0.698   1.190   8.948 -0.1545  0.6505 -0.1324
  449MOL0     C59174   0.641   1.288   9.050 -0.6943  0.3076 -0.2144
  449MOL0     C59175   0.516   1.364   9.009 -0.0312 -0.3800  0.0074
  449MOL0     C59176   0.390   1.278   9.004  0.2596  0.1347  0.9542
  449MOL0     C59177   0.265   1.361   8.988 -0.5111 -0.7082  0.6077
  449MOL0     C59178   0.139   1.267   8.988 -0.2352  1.3094  0.3146
  449MOL0     C59179  -0.003   1.331   8.999  0.4663 -0.4184  0.1241
  449MOL0    Cl59180  -0.145   1.219   8.981  0.3474  0.7664  0.2609
  449MOL0     C59181   1.083   1.119   8.795  0.3821 -0.0094  0.2975
  449MOL0     C59182   1.215   1.094   8.765 -0.7836 -0.6465 -0.3382
  449MOL0     O59183   1.452   0.985   9.002 -0.6400 -0.0229 -0.3975
  449MOL0     C59184   1.719   0.996   8.945 -0.1103  0.7237 -0.5611
  449MOL0     C59185   1.855   0.987   8.917 -0.6765  0.8191 -0.8227
  449MOL0     N59186   2.273   1.358   8.522 -0.4277 -0.3254  0.0823
  449MOL0     N59187   2.354   1.426   8.452  0.3577  0.4733 -0.6897
  449MOL0     C59188   3.305   1.571   7.901 -0.1934  0.0098  0.2004
  449MOL0     C59189   3.439   1.533   7.931 -0.7379  0.1318 -0.1050
  449MOL0     C59190   3.883   1.442   7.901 -0.6632  0.0358 -0.1668
  449MOL0     C59191   3.961   1.522   7.812 -0.3098 -0.1714  0.0907
  449MOL0     C59192   4.090   1.489   7.783 -0.6731  0.3101 -0.5966
  449MOL0     C59193   4.159   1.382   7.841 -0.7848 -0.2343 -0.7578
  449MOL0     O59194   4.284   1.345   7.801  0.7425  0.3426 -0.6472
  449MOL0     C59195   4.376   1.266   7.882  0.6175 -0.3972  0.3558
  449MOL0     C59196   4.497   1.240   7.797 -0.2204 -0.4314 -0.7512
  449MOL0     C59197   4.566   1.371   7.760 -0.1633  0.2155 -0.1641
  449MOL0     C59198   4.698   1.357   7.690 -0.0007 -0.4437  0.7174
  449MOL0     C59199   4.805   1.316   7.790 -0.5535  0.0356  0.2710
  449MOL0     C59200   4.889   1.280   7.867  0.0773  0.1257  0.8523
  449MOL0     C59201   4.091   1.312   7.940  0.4045 -0.5704  0.0538
  449MOL0     C59202   3.957   1.336   7.964 -0.1394 -0.1154 -0.2246
  449MOL0     H59203   3.594   1.691   7.688 -0.9423 -0.5665 -1.3494
  449MOL0     H59204   3.366   1.800   7.664 -1.4065 -1.5363 -0.3810
  449MOL0     H59205   2.968   1.761   7.789 -0.6738 -1.2426 -0.1160
  449MOL0     H59206   3.055   1.708   7.935  1.3721 -1.4921 -0.4118
  449MOL0     H59207   3.061   1.485   7.785  1.3985 -0.3741  3.6724
  449MOL0     H59208   2.899   1.543   7.737 -1.2388  1.1004  1.6020
  449MOL0     H59209   2.857   1.577   7.998 -0.9727 -0.3548 -0.0203
  449MOL0     H59210   2.990   1.452   8.015 -1.2772 -1.4156  0.1304
  449MOL0     H59211   2.770   1.374   7.821  0.8629  0.2663 -1.9068
  449MOL0     H59212   2.902   1.286   7.896 -0.5576 -0.1407  0.0480
  449MOL0     H59213   2.820   1.329   8.119 -1.5787  1.9269  0.8535
  449MOL0     H59214   2.739   1.200   8.027 -4.8448  0.9640 -2.6309
  449MOL0     H59215   2.559   1.372   7.974 -4.0142 -0.7757  1.7607
  449MOL0     H59216   2.645   1.485   8.077 -2.1543  0.2502 -0.4746
  449MOL0     H59217   2.555   1.234   8.198  1.9907  0.7414  2.1536
  449MOL0     H59218   2.642   1.352   8.277 -0.0864 -1.1796  0.2004
  449MOL0     H59219   2.363   1.392   8.129 -0.1635  4.1657 -0.6344
  449MOL0     H59220   2.449   1.517   8.213  0.1757  0.0951 -0.9906
  449MOL0     H59221   2.319   1.150   8.272 -1.5715 -0.8790  0.7145
  449MOL0     H59222   2.178   1.041   8.448  1.8372 -0.6997  0.6959
  449MOL0     H59223   2.088   1.149   8.565  1.0047  1.2713  0.7789
  449MOL0     H59224   2.251   1.122   8.720  0.8210 -1.9088  0.3513
  449MOL0     H59225   2.381   1.084   8.615  0.8254 -1.8198  3.7031
  449MOL0     H59226   2.311   0.855   8.607  0.6623 -0.0472  1.5939
  449MOL0     H59227   2.311   0.899   8.767 -0.1332  0.0666 -0.5492
  449MOL0     H59228   2.088   0.788   8.732 -0.2444  0.0637 -0.6868
  449MOL0     H59229   2.069   0.884   8.590 -0.8318 -0.1852 -0.7105
  449MOL0     H59230   1.862   0.896   8.599  0.4575  0.3484  0.2226
  449MOL0     H59231   1.611   0.879   8.651 -0.3897 -3.3299  1.3520
  449MOL0     H59232   1.218   0.767   8.888 -2.5583 -1.0857 -3.4217
  449MOL0     H59233   0.986   0.834   8.933 -0.0820 -1.7255 -1.7248
  449MOL0     H59234   0.903   1.254   8.929 -0.6981  1.4167  1.9349
  449MOL0     H59235   0.870   1.161   9.073 -4.0305 -0.9269  0.8415
  449MOL0     H59236   0.636   1.102   8.963  1.2735 -0.1776  1.3578
  449MOL0     H59237   0.686   1.230   8.847 -0.8995  2.3964  0.5973
  449MOL0     H59238   0.726   1.357   9.053 -0.4678  0.0304 -0.1664
  449MOL0     H59239   0.632   1.242   9.149 -1.4801 -1.4316 -1.0512
  449MOL0     H59240   0.494   1.450   9.073 -1.0791  1.6411 -2.8567
  449MOL0     H59241   0.527   1.408   8.910 -1.0731  0.8343  0.4148
  449MOL0     H59242   0.363   1.206   9.082 -1.4018 -2.4311 -1.7750
  449MOL0     H59243   0.404   1.217   8.915  0.0237 -0.6177  1.4252
  449MOL0     H59244   0.272   1.415   8.893  0.9879  0.2270  1.2000
  449MOL0     H59245   0.256   1.439   9.064  0.1923  0.1704 -0.1694
  449MOL0     H59246   0.134   1.207   8.897 -1.4986 -1.8104  2.2457
  449MOL0     H59247   0.147   1.198   9.073 -1.6286 -0.3917 -0.8655
  449MOL0     H59248  -0.016   1.405   8.920 -2.6262 -1.8698 -0.8863
  449MOL0     H59249  -0.017   1.376   9.098  1.9988  0.8929 -0.2182
  449MOL0     H59250   1.043   1.214   8.762 -2.1640 -1.1178 -0.0542
  449MOL0     H59251   1.290   1.155   8.716 -0.3237 -0.9218  0.0242
  449MOL0     H59252   1.679   1.035   9.038  2.3562  3.3243 -0.4574
  449MOL0     H59253   1.928   1.010   8.994 -1.7040 -0.3875  0.5811
  449MOL0     H59254   3.228   1.534   7.968  1.3700  0.4004  2.3091
  449MOL0     H59255   3.448   1.462   8.013 -0.5962 -2.3791 -2.1447
  449MOL0     H59256   3.920   1.614   7.772  1.1652  0.2902 -0.4396
  449MOL0     H59257   4.145   1.552   7.714  2.6547 -1.2728  0.4226
  449MOL0     H59258   4.343   1.170   7.924  0.3235 -0.2910  0.3680
  449MOL0     H59259   4.408   1.321   7.970  0.6580  1.0493 -0.5359
  449MOL0     H59260   4.561   1.175   7.856 -0.1029  0.6260  0.3064
  449MOL0     H59261   4.474   1.175   7.711  2.6660 -3.3234  0.4589
  449MOL0     H59262   4.574   1.433   7.851  1.9646 -0.6571  0.2883
  449MOL0     H59263   4.514   1.431   7.685  3.1138  2.7263 -0.6733
  449MOL0     H59264   4.684   1.289   7.605 -1.1560 -0.7320  1.1201
  449MOL0     H59265   4.729   1.451   7.644 -2.2909 -0.2671 -0.6550
  449MOL0     H59266   4.964   1.248   7.937  1.1796  0.1924 -0.2684
  449MOL0     H59267   4.142   1.231   7.992 -1.3300 -0.2888  2.3433
  449MOL0     H59268   3.900   1.273   8.032  1.7890 -3.4963 -1.4928
  450MOL0     O59269   4.052   1.362  10.606  0.0031 -0.5529  0.5644
  450MOL0     C59270   4.142   1.420  10.541  0.1769  0.1296 -0.4081
  450MOL0     O59271   4.109   1.509  10.441 -0.0059  0.4713 -0.5125
  450MOL0     C59272   3.979   1.556  10.414  0.3080  0.2811  0.4530
  450MOL0     C59273   3.975   1.605  10.280  0.5694 -0.0230 -0.1709
  450MOL0     C59274   3.854   1.651  10.229 -0.4289  0.0882 -0.2789
  450MOL0     C59275   3.735   1.647  10.308  0.5081  0.3719  0.8312
  450MOL0     O59276   3.620   1.682  10.252  1.0760 -0.5190 -0.2632
  450MOL0     C59277   3.593   1.820  10.279 -0.0098 -0.2702  0.2531
  450MOL0     C59278   3.445   1.863  10.253 -0.2372 -0.2221 -0.4195
  450MOL0     C59279   3.335   1.773  10.311  0.2198 -0.1570  0.3087
  450MOL0     C59280   3.306   1.783  10.462  0.0513 -0.4595  0.3732
  450MOL0     C59281   3.214   1.674  10.509 -0.0234 -0.1850 -0.1323
  450MOL0     C59282   3.268   1.534  10.510  0.0541  0.1696 -0.0792
  450MOL0     C59283   3.182   1.442  10.595  0.5426  0.9200 -0.1348
  450MOL0     C59284   3.234   1.306  10.590 -0.2724 -0.4411 -0.5970
  450MOL0     N59285   3.374   1.307  10.639 -0.2158  0.1445 -0.5662
  450MOL0     C59286   3.480   1.276  10.563 -0.0941  0.2209 -0.1635
  450MOL0     C59287   3.577   1.254  10.648 -0.0408  0.0149 -0.5744
  450MOL0     C59288   3.721   1.228  10.613  0.7225  0.0315 -0.2327
  450MOL0     C59289   3.755   1.085  10.655  1.5669  0.5920  0.5084
  450MOL0     C59290   3.897   1.086  10.707  0.0702  0.5169  1.2912
  450MOL0     C59291   3.923   0.945  10.732 -0.3081  0.8248 -0.4678
  450MOL0     O59292   4.056   0.935  10.786  0.3572 -0.3286 -0.3756
  450MOL0     C59293   4.096   0.814  10.841 -0.3910 -0.6141 -0.4095
  450MOL0     C59294   4.233   0.829  10.890 -0.8695 -0.2874  0.0759
  450MOL0     C59295   4.291   0.712  10.948 -0.3141  1.4101  0.5235
  450MOL0     C59296   4.232   0.590  10.948 -0.5284  0.2732 -0.2735
  450MOL0     C59297   4.311   0.468  10.978  0.6194 -1.5551 -0.9742
  450MOL0     O59298   4.440   0.485  10.977 -0.1518 -0.0870 -0.3220
  450MOL0     C59299   4.535   0.381  10.987 -1.0369  0.5575 -0.3726
  450MOL0     C59300   4.668   0.423  11.010  0.0065 -0.2880 -0.3114
  450MOL0     C59301   4.774   0.330  11.023  0.4574 -0.6054 -0.4985
  450MOL0     C59302   4.749   0.192  11.005  0.7370  0.7758 -0.9926
  450MOL0     O59303   4.855   0.112  11.024  0.2445 -0.0944  1.4606
  450MOL0     C59304   4.844  -0.025  11.064 -0.0327 -0.8405  0.4594
  450MOL0     C59305   4.775  -0.044  11.190 -0.3972 -0.2913  0.3434
  450MOL0     C59306   4.798  -0.185  11.242  0.0982 -0.2738  0.4233
  450MOL0     C59307   4.932  -0.196  11.316  0.0621  0.2624 -0.6460
  450MOL0     C59308   4.953  -0.338  11.369 -0.1700 -0.1469 -0.4821
  450MOL0     C59309   5.079  -0.351  11.457 -0.2928  0.6982 -0.3506
  450MOL0     C59310   5.207  -0.375  11.370  0.3749  0.2352 -0.3153
  450MOL0     C59311   5.178  -0.499  11.291  0.3273 -0.0960  0.5567
  450MOL0    Cl59312   5.324  -0.595  11.257  0.1170  0.1989  0.4541
  450MOL0     C59313   4.618   0.141  10.967 -0.2614  0.5788  0.4713
  450MOL0     C59314   4.515   0.239  10.958  0.7012 -0.4427 -0.7501
  450MOL0     O59315   4.249   0.368  11.008  0.3076 -0.8286 -0.2357
  450MOL0     C59316   4.102   0.581  10.904 -0.0995  0.9060  0.0599
  450MOL0     C59317   4.031   0.689  10.847  0.0378 -0.3853  0.1852
  450MOL0     N59318   3.526   1.278  10.777 -0.4956  0.5792  0.6136
  450MOL0     N59319   3.406   1.307  10.770  0.4281  0.3108  0.3847
  450MOL0     C59320   3.746   1.604  10.442 -0.1003 -0.0619  0.2113
  450MOL0     C59321   3.863   1.553  10.491  0.5750 -0.1191  0.0701
  450MOL0     C59322   4.282   1.373  10.550 -0.0554  0.1330  0.3795
  450MOL0     C59323   4.383   1.455  10.492 -0.2587  0.9638  0.1428
  450MOL0     C59324   4.514   1.433  10.532 -1.6109 -0.1548  0.8642
  450MOL0     C59325   4.554   1.333  10.621 -0.9204 -0.2686  0.5879
  450MOL0     O59326   4.676   1.294  10.658  0.2895  0.0934 -0.6860
  450MOL0     C59327   4.796   1.379  10.644  0.5169  0.8849  0.0648
  450MOL0     C59328   4.898   1.361  10.757 -0.1160 -0.4888 -0.0864
  450MOL0     C59329   4.980   1.234  10.726 -0.3781 -0.0417  0.3952
  450MOL0     C59330   5.082   1.219  10.838  0.1576  0.0072 -0.6545
  450MOL0     C59331   5.178   1.107  10.808  0.8145 -0.6778 -1.0274
  450MOL0     C59332   5.260   1.021  10.772  0.5142  0.4611 -0.5140
  450MOL0     C59333   4.456   1.254  10.681 -0.1394  0.4406 -0.6847
  450MOL0     C59334   4.316   1.269  10.638 -0.5424 -0.2717 -0.1569
  450MOL0     H59335   4.067   1.599  10.222  0.0592  1.0044 -1.1018
  450MOL0     H59336   3.857   1.663  10.121  3.4041 -2.0189 -0.5570
  450MOL0     H59337   3.668   1.881  10.228  0.5881  0.6665  2.1591
  450MOL0     H59338   3.591   1.835  10.387  1.2677 -0.2777  0.2894
  450MOL0     H59339   3.430   1.878  10.146 -2.0302  1.3703  0.0023
  450MOL0     H59340   3.431   1.961  10.300  1.2683 -0.8159  1.4112
  450MOL0     H59341   3.365   1.669  10.295  0.6522  0.2555 -1.9443
  450MOL0     H59342   3.237   1.785  10.263  0.2701 -0.7746  0.0402
  450MOL0     H59343   3.403   1.777  10.511  0.4633 -0.3597 -0.4133
  450MOL0     H59344   3.258   1.879  10.480 -1.9054 -1.0943 -1.1207
  450MOL0     H59345   3.119   1.674  10.455  0.1140 -1.4728 -0.4117
  450MOL0     H59346   3.188   1.695  10.613 -0.5249 -1.8334  0.0931
  450MOL0     H59347   3.368   1.530  10.554 -0.2125 -0.9953  0.4669
  450MOL0     H59348   3.259   1.502  10.406 -1.3226  1.4815 -0.4061
  450MOL0     H59349   3.182   1.477  10.698  0.2280 -0.1243  0.2330
  450MOL0     H59350   3.083   1.455  10.548  2.0720  1.6851 -3.4835
  450MOL0     H59351   3.219   1.270  10.488  1.3910  0.8968 -1.3716
  450MOL0     H59352   3.179   1.240  10.658  2.4969 -2.4206 -0.0563
  450MOL0     H59353   3.485   1.256  10.456  3.3266  0.6064 -0.1858
  450MOL0     H59354   3.790   1.304  10.650 -1.8629  3.2405 -1.5033
  450MOL0     H59355   3.730   1.247  10.505  1.5246  0.4502 -0.0983
  450MOL0     H59356   3.745   1.019  10.568  0.0056  2.1625 -0.5881
  450MOL0     H59357   3.684   1.061  10.736 -1.7384  3.7979 -1.1519
  450MOL0     H59358   3.966   1.115  10.627  2.6851 -1.4083  2.6818
  450MOL0     H59359   3.915   1.147  10.795  0.9145  1.8167  0.2493
  450MOL0     H59360   3.922   0.902  10.631 -0.3517  4.0680 -2.0022
  450MOL0     H59361   3.846   0.892  10.788  1.8578 -0.9821  0.9777
  450MOL0     H59362   4.285   0.924  10.899  0.2181 -0.4145 -3.4037
  450MOL0     H59363   4.391   0.725  10.986  0.1893 -2.7340  0.9935
  450MOL0     H59364   4.676   0.526  11.043  1.2092 -0.5834  0.3771
  450MOL0     H59365   4.873   0.356  11.059  1.6862 -3.6703 -1.3347
  450MOL0     H59366   4.944  -0.069  11.066  0.2521 -0.2459 -0.1364
  450MOL0     H59367   4.787  -0.083  10.990  1.0314 -1.4794  0.1147
  450MOL0     H59368   4.668  -0.023  11.186  0.1428  2.9102 -3.6420
  450MOL0     H59369   4.821   0.023  11.264  0.3721  1.5991 -1.7319
  450MOL0     H59370   4.790  -0.268  11.171  0.9748  2.5249 -3.2676
  450MOL0     H59371   4.718  -0.211  11.312 -0.5184  0.4777  0.0144
  450MOL0     H59372   5.015  -0.161  11.254 -0.7893 -1.6803 -3.0145
  450MOL0     H59373   4.939  -0.130  11.404  0.6330  0.8876 -1.1534
  450MOL0     H59374   4.949  -0.404  11.281 -0.0850  0.5999 -1.0520
  450MOL0     H59375   4.868  -0.359  11.435 -1.4025  1.4972 -1.4600
  450MOL0     H59376   5.054  -0.428  11.530  1.0453  0.1469 -0.4534
  450MOL0     H59377   5.075  -0.262  11.521 -0.6327  0.3230  0.1534
  450MOL0     H59378   5.216  -0.286  11.308 -2.8190  0.6147 -0.3698
  450MOL0     H59379   5.300  -0.388  11.426 -0.9598  0.5065  2.1217
  450MOL0     H59380   5.122  -0.470  11.201 -0.0307  3.2825  1.7287
  450MOL0     H59381   5.111  -0.564  11.349  0.3692  0.4032  1.1699
  450MOL0     H59382   4.603   0.036  10.947  0.2617  0.7354 -0.8076
  450MOL0     H59383   4.413   0.208  10.939  0.5323  0.7718 -2.0200
  450MOL0     H59384   4.053   0.484  10.909  2.5048 -0.4614  0.7554
  450MOL0     H59385   3.935   0.673  10.800  0.3134  2.1870 -1.4788
  450MOL0     H59386   3.664   1.600  10.512  1.2875 -0.0214  1.9181
  450MOL0     H59387   3.863   1.522  10.595  0.5357 -3.7053 -0.8511
  450MOL0     H59388   4.355   1.538  10.428  0.1264  1.1032  0.1499
  450MOL0     H59389   4.578   1.503  10.480 -1.6767  1.0659  2.3777
  450MOL0     H59390   4.772   1.485  10.656 -2.6813  0.3809 -0.9126
  450MOL0     H59391   4.844   1.350  10.551  2.5165 -1.4583  1.6795
  450MOL0     H59392   4.958   1.452  10.760  0.0563 -0.5095 -1.6966
  450MOL0     H59393   4.840   1.337  10.846  0.0395  0.0261  0.1519
  450MOL0     H59394   5.029   1.253  10.630  1.6981 -3.1261  0.7411
  450MOL0     H59395   4.919   1.144  10.719 -0.6269  0.0933  0.7895
  450MOL0     H59396   5.131   1.316  10.853 -0.4529  0.0040  1.5865
  450MOL0     H59397   5.033   1.206  10.934  0.4346 -2.2834 -0.7841
  450MOL0     H59398   5.334   0.955  10.733 -2.2258 -2.8579 -0.5347
  450MOL0     H59399   4.481   1.174  10.749 -0.5137  1.7462  1.0704
  450MOL0     H59400   4.236   1.206  10.677  0.1168  0.9207  3.5403
  451MOL0     O59401   2.514   1.095   3.892  0.4815 -0.2899 -0.0896
  451MOL0     C59402   2.504   1.137   3.775 -0.1734 -0.6426 -0.1617
  451MOL0     O59403   2.600   1.147   3.681  0.1845 -0.2260  0.8943
  451MOL0     C59404   2.718   1.084   3.702  0.0268 -0.0983 -0.5861
  451MOL0     C59405   2.734   0.949   3.739 -0.6761 -0.5041  0.2586
  451MOL0     C59406   2.866   0.900   3.747  0.4496  0.1213 -0.9486
  451MOL0     C59407   2.981   0.972   3.718  0.4134 -0.8585 -0.2153
  451MOL0     O59408   3.097   0.903   3.739  0.2192  0.3873  0.4170
  451MOL0     C59409   3.217   0.955   3.687  0.1822 -0.8265 -0.4553
  451MOL0     C59410   3.329   0.858   3.684 -0.5793 -0.9658 -0.2441
  451MOL0     C59411   3.469   0.912   3.669  0.0219  1.0778 -0.7842
  451MOL0     C59412   3.570   0.822   3.741 -0.2349  0.4228 -0.2867
  451MOL0     C59413   3.713   0.865   3.713  0.0529  0.4755  0.2741
  451MOL0     C59414   3.812   0.755   3.757  1.0505 -0.1274 -0.3754
  451MOL0     C59415   3.838   0.653   3.640  0.0204 -0.4531  0.2606
  451MOL0     C59416   3.987   0.637   3.611  0.1972  0.5895  0.2733
  451MOL0     N59417   4.037   0.559   3.724 -0.4781 -0.7636 -0.0461
  451MOL0     C59418   4.078   0.610   3.842  0.5649 -0.6316  0.1307
  451MOL0     C59419   4.106   0.504   3.918  0.2782 -0.5581  0.1257
  451MOL0     C59420   4.164   0.502   4.057 -0.3967  0.1957  0.0065
  451MOL0     C59421   4.095   0.413   4.161 -0.1588 -0.5213 -0.4003
  451MOL0     C59422   3.951   0.446   4.178  0.4633 -0.2181 -0.4149
  451MOL0     C59423   3.915   0.443   4.328  0.1039 -0.2293 -0.5422
  451MOL0     O59424   3.771   0.469   4.347 -0.4357 -0.1524 -0.7040
  451MOL0     C59425   3.681   0.378   4.295 -0.5560 -1.2483 -0.4421
  451MOL0     C59426   3.555   0.437   4.277  0.1992  0.4809  0.3812
  451MOL0     C59427   3.456   0.359   4.227  0.1388  0.3819  0.3883
  451MOL0     C59428   3.467   0.227   4.193  0.0971 -0.6814  0.3076
  451MOL0     C59429   3.362   0.157   4.124 -0.3983  0.1868  0.5497
  451MOL0     O59430   3.370   0.016   4.118 -0.0594 -0.6559  0.2884
  451MOL0     C59431   3.259  -0.057   4.083  0.1916  0.5979 -0.4869
  451MOL0     C59432   3.206  -0.054   3.962  0.0416 -0.6339 -0.7212
  451MOL0     C59433   3.103  -0.138   3.927  0.1325  0.6773 -0.3594
  451MOL0     C59434   3.038  -0.225   4.017  0.0444 -0.1722 -1.2178
  451MOL0     O59435   2.938  -0.302   3.971 -0.4129 -0.0875 -0.4854
  451MOL0     C59436   2.855  -0.372   4.059 -0.7495 -0.1790 -0.4213
  451MOL0     C59437   2.707  -0.366   4.025 -1.2349  0.5525 -0.8616
  451MOL0     C59438   2.635  -0.447   4.131  0.0473 -0.0024  0.1037
  451MOL0     C59439   2.491  -0.476   4.096  0.1085  1.5848 -0.4471
  451MOL0     C59440   2.418  -0.549   4.211  0.6249 -0.3847 -0.0322
  451MOL0     C59441   2.310  -0.640   4.160 -0.5228  0.2403 -0.8311
  451MOL0     C59442   2.232  -0.710   4.274 -0.1381 -0.3931 -0.3772
  451MOL0     C59443   2.136  -0.625   4.352  0.5075 -0.5900  0.0150
  451MOL0    Cl59444   1.998  -0.585   4.249  0.4369 -0.3495 -0.1476
  451MOL0     C59445   3.096  -0.231   4.144 -0.5602  0.8258  0.6039
  451MOL0     C59446   3.212  -0.152   4.177  0.9495 -0.3458 -0.2545
  451MOL0     O59447   3.282   0.219   4.063  0.1624 -0.3037 -0.2804
  451MOL0     C59448   3.590   0.170   4.224  0.2488 -0.1708  0.1017
  451MOL0     C59449   3.701   0.245   4.268 -0.3307 -0.4303  0.0366
  451MOL0     N59450   4.105   0.392   3.838 -0.0870  0.2835 -0.4517
  451MOL0     N59451   4.064   0.424   3.721 -0.6968  0.7488 -0.0664
  451MOL0     C59452   2.961   1.105   3.683 -0.3609  0.4316  0.3674
  451MOL0     C59453   2.834   1.157   3.667  0.1375  0.4486 -0.1908
  451MOL0     C59454   2.370   1.187   3.734 -0.2605 -0.1281  0.0389
  451MOL0     C59455   2.341   1.190   3.602 -0.2777 -0.5651  0.4130
  451MOL0     C59456   2.214   1.234   3.552 -0.7369  1.0564  0.4748
  451MOL0     C59457   2.112   1.253   3.655  0.5523  0.3968  0.5491
  451MOL0     O59458   1.989   1.296   3.600  0.0213  0.4599  0.2893
  451MOL0     C59459   1.908   1.378   3.672 -0.1936  0.0935 -0.6524
  451MOL0     C59460   1.791   1.400   3.579  0.9945 -0.6855 -0.2936
  451MOL0     C59461   1.836   1.498   3.462  0.5575 -0.1368  0.0108
  451MOL0     C59462   1.764   1.457   3.338  0.0720 -0.0919 -0.3296
  451MOL0     C59463   1.622   1.494   3.344 -0.6259 -0.2047 -0.7021
  451MOL0     C59464   1.503   1.516   3.351 -0.5019 -0.1408  0.2572
  451MOL0     C59465   2.144   1.244   3.786 -0.2570  0.3779 -0.6418
  451MOL0     C59466   2.271   1.210   3.827 -1.0444  0.1385 -0.1114
  451MOL0     H59467   2.651   0.886   3.768 -0.9220  0.9391  2.9424
  451MOL0     H59468   2.868   0.792   3.759  0.7837  0.1709 -0.5493
  451MOL0     H59469   3.245   1.037   3.755 -1.0753  0.3977 -1.3449
  451MOL0     H59470   3.210   0.995   3.586  0.8863 -0.2198 -0.2770
  451MOL0     H59471   3.316   0.788   3.601  0.5918 -1.5765  0.0677
  451MOL0     H59472   3.320   0.812   3.782  0.3358  0.4455  0.5390
  451MOL0     H59473   3.472   1.010   3.717  1.4321 -0.1732  1.8741
  451MOL0     H59474   3.507   0.916   3.567  0.3892  3.0367 -0.6032
  451MOL0     H59475   3.548   0.837   3.847  2.5696  2.6203  0.0842
  451MOL0     H59476   3.557   0.718   3.709  2.0714  0.4286 -1.4623
  451MOL0     H59477   3.736   0.965   3.751  0.8345  0.4064 -0.0008
  451MOL0     H59478   3.723   0.877   3.605 -0.3851  0.1920  0.2013
  451MOL0     H59479   3.776   0.697   3.842 -1.2000  0.9337 -0.5151
  451MOL0     H59480   3.897   0.807   3.801 -1.2578  0.1106  4.3910
  451MOL0     H59481   3.809   0.549   3.659 -0.3037 -0.4010  0.0499
  451MOL0     H59482   3.776   0.682   3.555 -0.4311 -2.3846 -0.1129
  451MOL0     H59483   4.025   0.739   3.601 -1.3827  1.1200 -0.6740
  451MOL0     H59484   3.992   0.592   3.512 -1.3788  2.7425 -0.8843
  451MOL0     H59485   4.082   0.712   3.880 -1.5364 -0.0827 -0.9675
  451MOL0     H59486   4.175   0.607   4.086  2.8387 -0.2726  0.8679
  451MOL0     H59487   4.268   0.467   4.054 -0.4606 -0.6671  3.7614
  451MOL0     H59488   4.142   0.429   4.258 -0.7946 -2.9878  0.4056
  451MOL0     H59489   4.092   0.305   4.142 -0.1360 -1.7666  5.0684
  451MOL0     H59490   3.933   0.541   4.128 -0.2113  1.2732  2.4218
  451MOL0     H59491   3.884   0.375   4.129  0.5070 -0.3156 -0.3359
  451MOL0     H59492   3.977   0.511   4.387  0.0198 -0.3023 -0.3698
  451MOL0     H59493   3.931   0.340   4.361 -1.4954 -1.8143 -4.1826
  451MOL0     H59494   3.538   0.542   4.296  0.9408  0.2283  2.7052
  451MOL0     H59495   3.370   0.417   4.193 -0.4374 -1.3606 -1.3469
  451MOL0     H59496   3.266   0.013   3.902  1.0897  0.8085  1.7989
  451MOL0     H59497   3.075  -0.138   3.822 -2.3101 -3.1937  0.1023
  451MOL0     H59498   2.864  -0.340   4.164 -0.5838 -0.5449 -0.3193
  451MOL0     H59499   2.894  -0.473   4.078  1.5881  1.2202  3.5559
  451MOL0     H59500   2.680  -0.416   3.931 -3.1625 -0.1344 -0.0121
  451MOL0     H59501   2.675  -0.261   4.021  0.5567  1.0989 -2.8609
  451MOL0     H59502   2.627  -0.399   4.229  1.8282  0.0062  0.2872
  451MOL0     H59503   2.676  -0.546   4.150 -1.9480 -0.9741 -0.4624
  451MOL0     H59504   2.428  -0.399   4.050 -2.6100 -1.2565 -1.8362
  451MOL0     H59505   2.499  -0.555   4.021 -0.1741  0.7776  0.3588
  451MOL0     H59506   2.374  -0.472   4.275  0.3356  0.8449 -1.6373
  451MOL0     H59507   2.486  -0.607   4.274 -0.8266 -2.7261 -0.5186
  451MOL0     H59508   2.358  -0.715   4.097  0.5423 -0.9302  1.2947
  451MOL0     H59509   2.235  -0.595   4.094 -2.2576 -1.4836 -0.1528
  451MOL0     H59510   2.169  -0.790   4.235 -0.8058 -0.6909  1.2211
  451MOL0     H59511   2.303  -0.764   4.338  2.0053  0.9396 -1.5033
  451MOL0     H59512   2.176  -0.536   4.402  1.2960 -0.4089 -0.9174
  451MOL0     H59513   2.102  -0.692   4.431  2.5292 -1.5062  0.1658
  451MOL0     H59514   3.076  -0.314   4.211 -0.2035 -0.0683 -0.3784
  451MOL0     H59515   3.269  -0.157   4.270 -0.9390  0.7040  1.0301
  451MOL0     H59516   3.599   0.063   4.205 -0.9803 -0.7212  2.2851
  451MOL0     H59517   3.793   0.188   4.271 -1.6095 -2.7775 -1.4623
  451MOL0     H59518   3.051   1.164   3.670  0.1532 -0.1403  1.2296
  451MOL0     H59519   2.809   1.254   3.623 -1.0306  1.3290  2.2327
  451MOL0     H59520   2.423   1.173   3.532  0.0488  2.6538 -0.1648
  451MOL0     H59521   2.191   1.230   3.446 -0.1907 -4.4034  0.2496
  451MOL0     H59522   1.956   1.471   3.702  1.0243  0.0313 -2.2499
  451MOL0     H59523   1.883   1.317   3.759  0.0007  0.3309 -0.4295
  451MOL0     H59524   1.751   1.306   3.540 -0.6960  0.4688 -1.4675
  451MOL0     H59525   1.715   1.454   3.635  1.1308  0.5272 -1.2283
  451MOL0     H59526   1.941   1.472   3.443  0.3591 -0.0352 -1.3636
  451MOL0     H59527   1.827   1.605   3.481  0.1873 -0.1379 -0.1542
  451MOL0     H59528   1.821   1.506   3.258 -0.5736  2.5909  0.7720
  451MOL0     H59529   1.765   1.347   3.334 -1.2956 -0.1601  0.6747
  451MOL0     H59530   1.399   1.538   3.366 -0.4504  1.2126 -1.1653
  451MOL0     H59531   2.060   1.263   3.852 -0.9980 -0.2602 -1.3736
  451MOL0     H59532   2.292   1.206   3.933  1.5553 -0.7207 -0.5861
  452MOL0     O59533   9.735  10.059   5.762  0.2526 -0.0252  0.7738
  452MOL0     C59534   9.729   9.941   5.788 -0.4551  0.0124 -0.5336
  452MOL0     O59535   9.614   9.873   5.815 -0.2989 -0.0857 -0.1327
  452MOL0     C59536   9.491   9.934   5.788 -0.8235 -0.1964 -0.3808
  452MOL0     C59537   9.409   9.850   5.713  0.5277  0.8495  0.5130
  452MOL0     C59538   9.275   9.888   5.681 -0.4852  0.3726  0.2427
  452MOL0     C59539   9.232  10.011   5.723 -0.3047 -0.3595  0.0265
  452MOL0     O59540   9.107  10.062   5.705  0.0505 -0.6639 -0.2339
  452MOL0     C59541   9.042  10.017   5.581  0.1660  0.0799  0.4176
  452MOL0     C59542   8.975  10.139   5.524 -1.2438  0.3662 -0.3666
  452MOL0     C59543   8.860  10.105   5.437 -0.2663 -0.6390  0.0982
  452MOL0     C59544   8.802  10.235   5.384  0.1725 -0.7524 -0.7446
  452MOL0     C59545   8.686  10.221   5.287 -0.8566 -0.4394 -0.5958
  452MOL0     C59546   8.560  10.149   5.339  0.3926  0.2290  0.4718
  452MOL0     C59547   8.443  10.176   5.244  0.5574  0.4931 -0.4627
  452MOL0     C59548   8.318  10.085   5.269  0.0027 -0.0131  0.4873
  452MOL0     N59549   8.219  10.102   5.162  0.0468 -0.3711  0.1450
  452MOL0     C59550   8.227  10.084   5.029  0.0770 -0.0784  0.1633
  452MOL0     C59551   8.097  10.087   4.984  0.1705 -0.2141  0.2121
  452MOL0     C59552   8.062  10.067   4.839 -0.2981 -0.1109  0.7703
  452MOL0     C59553   8.033   9.919   4.808 -0.0051 -0.2603  0.2761
  452MOL0     C59554   7.890   9.865   4.853  0.0351 -0.6993  0.5005
  452MOL0     C59555   7.775   9.856   4.749 -0.1813 -0.7150 -0.5964
  452MOL0     O59556   7.734   9.986   4.695 -0.4763 -0.6238 -0.2741
  452MOL0     C59557   7.606  10.004   4.645  0.5956  0.1104 -0.4487
  452MOL0     C59558   7.557   9.901   4.564  0.9929  0.2130 -0.2788
  452MOL0     C59559   7.428   9.918   4.510  0.0173  0.7859 -0.4889
  452MOL0     C59560   7.352  10.030   4.526 -0.2197 -0.2168  1.0600
  452MOL0     C59561   7.218  10.034   4.464 -0.3737  0.2842 -0.9302
  452MOL0     O59562   7.182   9.931   4.395 -0.3218 -0.3989  0.1478
  452MOL0     C59563   7.053   9.916   4.346  0.0386  0.7007 -0.3535
  452MOL0     C59564   6.935   9.943   4.430 -0.4253 -0.9814 -0.4589
  452MOL0     C59565   6.805   9.947   4.369  0.0830 -0.1481 -0.3899
  452MOL0     C59566   6.780   9.910   4.239 -0.4010  0.5264 -0.6751
  452MOL0     O59567   6.651   9.889   4.210 -0.0424 -0.4030  0.3125
  452MOL0     C59568   6.626   9.829   4.081 -0.0136  0.3533 -0.5719
  452MOL0     C59569   6.481   9.857   4.056 -0.4597 -0.2860 -0.5435
  452MOL0     C59570   6.416   9.789   3.938  1.0420 -0.1738 -0.6799
  452MOL0     C59571   6.493   9.803   3.801  0.7352 -0.1295  0.0705
  452MOL0     C59572   6.436   9.708   3.704 -0.0933  0.1064  0.3710
  452MOL0     C59573   6.289   9.720   3.666 -0.1563  0.2454 -0.4113
  452MOL0     C59574   6.253   9.604   3.570  0.5266 -0.0186  0.9701
  452MOL0     C59575   6.111   9.611   3.544  0.5712 -0.5275  0.3458
  452MOL0    Cl59576   6.056   9.471   3.447 -0.2334  0.5014 -0.1031
  452MOL0     C59577   6.892   9.866   4.166  0.1792  0.2559 -0.1996
  452MOL0     C59578   7.029   9.864   4.218  0.9646  0.2377  0.5778
  452MOL0     O59579   7.154  10.136   4.482  0.3190 -0.0748  0.6445
  452MOL0     C59580   7.414  10.143   4.595  0.3864  0.3657 -0.4047
  452MOL0     C59581   7.539  10.124   4.656  0.1696  0.6891 -0.6280
  452MOL0     N59582   8.012  10.124   5.084 -0.3208  0.3519 -0.3387
  452MOL0     N59583   8.087  10.139   5.184 -0.6420  0.0988 -0.5806
  452MOL0     C59584   9.320  10.107   5.788 -0.2264  0.1618  0.4810
  452MOL0     C59585   9.447  10.061   5.818 -1.1115 -0.5820 -0.3823
  452MOL0     C59586   9.848   9.859   5.774 -0.0527  0.5346 -0.5152
  452MOL0     C59587   9.986   9.904   5.785 -0.1610 -0.6222  0.5304
  452MOL0     C59588  10.096   9.813   5.799 -0.6340  0.3079 -0.4970
  452MOL0     C59589  10.074   9.673   5.790  0.3546  0.0257  0.8041
  452MOL0     O59590  10.179   9.582   5.802  0.1492 -0.2732  0.0508
  452MOL0     C59591  10.153   9.450   5.846 -0.0017 -0.0673  0.4155
  452MOL0     C59592  10.287   9.377   5.862  0.7823  0.1690 -0.1363
  452MOL0     C59593  10.358   9.352   5.736 -0.7230  0.4182  0.6514
  452MOL0     C59594  10.470   9.247   5.753  0.3698 -0.2562  0.1036
  452MOL0     C59595  10.600   9.303   5.787  0.3298  0.5981 -0.1433
  452MOL0     C59596  10.701   9.348   5.831  0.3576  0.8490 -0.4247
  452MOL0     C59597   9.941   9.633   5.773  1.0512 -0.1893 -0.3341
  452MOL0     C59598   9.832   9.721   5.774 -0.2457  0.4876  0.2795
  452MOL0     H59599   9.436   9.751   5.677 -3.2372  0.0209 -0.5191
  452MOL0     H59600   9.216   9.818   5.623 -0.1935 -0.9218  1.4294
  452MOL0     H59601   8.973   9.937   5.606  2.3623 -1.7069  1.1358
  452MOL0     H59602   9.102   9.970   5.502 -2.4009 -1.6304 -0.6199
  452MOL0     H59603   9.046  10.193   5.462 -0.3975 -0.5953 -0.2616
  452MOL0     H59604   8.945  10.195   5.613 -1.3249 -0.8979  0.4274
  452MOL0     H59605   8.785  10.041   5.482 -1.1461 -0.7149 -1.4173
  452MOL0     H59606   8.900  10.060   5.345  1.4815  0.0474  0.4771
  452MOL0     H59607   8.753  10.286   5.468  1.4151  2.1804 -1.6729
  452MOL0     H59608   8.878  10.302   5.345 -1.5256  2.1391  0.5655
  452MOL0     H59609   8.731  10.168   5.202  0.5608  0.2378 -0.2960
  452MOL0     H59610   8.658  10.321   5.252  1.2675 -0.4338 -2.5610
  452MOL0     H59611   8.523  10.190   5.433 -0.6927 -2.5895  1.3662
  452MOL0     H59612   8.568  10.042   5.356 -1.3295 -0.6510 -3.2348
  452MOL0     H59613   8.417  10.282   5.253 -0.6103  0.2405 -0.7012
  452MOL0     H59614   8.472  10.154   5.141  1.8759  1.7352 -0.3929
  452MOL0     H59615   8.274  10.098   5.368  1.0745 -2.0288  1.2816
  452MOL0     H59616   8.354   9.981   5.268 -2.5084 -1.0634 -3.3938
  452MOL0     H59617   8.316  10.058   4.974 -0.8259 -2.5566 -0.2875
  452MOL0     H59618   8.145  10.097   4.775 -0.4244 -1.9924 -0.3368
  452MOL0     H59619   7.978  10.135   4.819 -1.2734 -1.1960  1.0533
  452MOL0     H59620   8.111   9.852   4.845 -0.4729  0.4162  2.7090
  452MOL0     H59621   8.028   9.919   4.699 -0.8568  1.2718  0.2762
  452MOL0     H59622   7.908   9.764   4.891  1.0736 -0.3825  0.9087
  452MOL0     H59623   7.856   9.929   4.935  1.1770 -0.2652  0.6576
  452MOL0     H59624   7.688   9.813   4.800  0.6105 -1.9547 -0.2475
  452MOL0     H59625   7.797   9.788   4.666 -1.3662 -2.3316  0.3625
  452MOL0     H59626   7.599   9.801   4.559 -0.8004 -0.7106  1.5143
  452MOL0     H59627   7.394   9.833   4.451  3.9848 -1.4782  0.1362
  452MOL0     H59628   6.949   9.962   4.536 -1.6601 -0.9364 -0.2933
  452MOL0     H59629   6.719   9.959   4.434 -0.7165 -0.7579 -1.3042
  452MOL0     H59630   6.649   9.723   4.083 -1.6752 -0.0213  1.1067
  452MOL0     H59631   6.681   9.877   3.999  0.0785 -1.1530 -1.4213
  452MOL0     H59632   6.467   9.963   4.032  1.0426  0.1515  0.3227
  452MOL0     H59633   6.430   9.824   4.147 -1.0360 -0.3792 -0.8958
  452MOL0     H59634   6.317   9.835   3.940  1.2567  0.3707  2.5118
  452MOL0     H59635   6.403   9.683   3.961  0.5473  0.0586  0.1569
  452MOL0     H59636   6.473   9.905   3.768 -0.1191 -0.7847 -1.5699
  452MOL0     H59637   6.600   9.783   3.810  0.8628  1.0020  1.3101
  452MOL0     H59638   6.445   9.606   3.741 -1.2691 -0.0611  0.2459
  452MOL0     H59639   6.481   9.700   3.604 -1.5108 -0.2293 -0.2843
  452MOL0     H59640   6.259   9.812   3.614  2.5010 -0.6178 -3.7803
  452MOL0     H59641   6.232   9.724   3.760 -0.9662 -1.1008 -0.8174
  452MOL0     H59642   6.303   9.618   3.474 -2.0229 -1.4988 -0.6761
  452MOL0     H59643   6.268   9.506   3.615 -2.7599 -0.6555  0.9003
  452MOL0     H59644   6.091   9.702   3.487  2.9510 -2.0308 -3.2602
  452MOL0     H59645   6.053   9.612   3.637 -0.2134 -2.3477 -0.0693
  452MOL0     H59646   6.871   9.819   4.070 -1.2484  1.1780 -0.3867
  452MOL0     H59647   7.105   9.846   4.143 -0.3038  3.8738 -1.8533
  452MOL0     H59648   7.358  10.236   4.604  0.1108  0.1502  0.2257
  452MOL0     H59649   7.587  10.203   4.712  2.7906 -2.2700  1.6071
  452MOL0     H59650   9.282  10.201   5.825 -2.0967  0.1574 -1.2503
  452MOL0     H59651   9.517  10.131   5.864 -1.9090 -0.6238  0.9518
  452MOL0     H59652  10.005  10.011   5.792  0.6011 -0.7228  0.0833
  452MOL0     H59653  10.196   9.855   5.812 -1.4536  2.0203  0.8119
  452MOL0     H59654  10.086   9.398   5.777  0.8968 -2.7214  1.3912
  452MOL0     H59655  10.103   9.442   5.943 -3.3228 -2.0564 -1.2792
  452MOL0     H59656  10.353   9.421   5.937 -1.2056  1.6404  0.8733
  452MOL0     H59657  10.255   9.279   5.901  1.2949 -0.3419 -0.9858
  452MOL0     H59658  10.399   9.446   5.698 -0.0935  0.4721  1.4237
  452MOL0     H59659  10.281   9.314   5.669 -2.6340  0.4821  2.6785
  452MOL0     H59660  10.446   9.171   5.828  3.7207 -1.4282  0.1658
  452MOL0     H59661  10.473   9.197   5.655  0.9533  0.1406 -0.0858
  452MOL0     H59662  10.800   9.369   5.862  0.8939  0.8764 -2.0336
  452MOL0     H59663   9.914   9.530   5.753 -3.9752  0.5255  1.2577
  452MOL0     H59664   9.734   9.676   5.766 -0.7483  1.1409  2.3392
  453MOL0     O59665  10.825   7.867   8.890 -0.3151  0.2891 -0.7540
  453MOL0     C59666  10.896   7.908   8.806 -0.9151  0.3337 -0.0365
  453MOL0     O59667  10.869   7.906   8.673  1.0928  0.3607  0.1938
  453MOL0     C59668  10.736   7.913   8.620 -0.4171  1.3486 -1.0138
  453MOL0     C59669  10.725   7.887   8.487  0.4605 -0.6080  0.2391
  453MOL0     C59670  10.598   7.866   8.429  0.5494  0.1977  0.1166
  453MOL0     C59671  10.485   7.875   8.506  0.2989 -0.7354 -1.2323
  453MOL0     O59672  10.369   7.849   8.435  0.0242 -0.3517 -0.6031
  453MOL0     C59673  10.244   7.904   8.488  0.2993  0.1222  0.4541
  453MOL0     C59674  10.139   7.853   8.395  0.6875 -0.6206  0.0484
  453MOL0     C59675  10.003   7.912   8.435 -0.7983 -0.6135 -0.0096
  453MOL0     C59676   9.910   7.843   8.340  0.3868 -0.3582 -0.1325
  453MOL0     C59677   9.764   7.897   8.349 -0.1702  0.0474  0.4228
  453MOL0     C59678   9.661   7.832   8.442 -0.1164 -0.3443  0.7847
  453MOL0     C59679   9.515   7.888   8.414 -0.8917  0.4179  0.7873
  453MOL0     C59680   9.500   8.040   8.441  0.5115  0.6997 -0.6257
  453MOL0     N59681   9.363   8.081   8.450  0.8283 -0.2074 -0.2076
  453MOL0     C59682   9.268   8.082   8.354 -0.1671  0.9097  0.1051
  453MOL0     C59683   9.154   8.125   8.419 -0.1363 -0.0204 -0.1707
  453MOL0     C59684   9.029   8.147   8.350  0.1893  0.4909  0.3553
  453MOL0     C59685   9.001   8.299   8.364  0.2638  0.8050 -0.3599
  453MOL0     C59686   8.885   8.348   8.279  0.1440 -0.3846 -0.2416
  453MOL0     C59687   8.823   8.473   8.351 -0.4036  0.2493  0.3543
  453MOL0     O59688   8.682   8.475   8.363  0.1476 -0.2889  0.4274
  453MOL0     C59689   8.596   8.491   8.254  0.0069  0.3997 -0.5303
  453MOL0     C59690   8.632   8.511   8.118  0.5526 -0.3308  1.1658
  453MOL0     C59691   8.536   8.528   8.019 -0.4315 -0.2846  0.0574
  453MOL0     C59692   8.396   8.518   8.050  0.2633  0.5345 -0.0076
  453MOL0     C59693   8.288   8.525   7.956 -0.7506  1.4026 -0.6095
  453MOL0     O59694   8.161   8.515   8.009 -0.9411  0.1994 -0.6355
  453MOL0     C59695   8.056   8.567   7.942 -0.0808 -0.1837 -0.5279
  453MOL0     C59696   7.992   8.507   7.827 -0.3537  0.4880  0.4472
  453MOL0     C59697   7.885   8.574   7.760 -0.5647  0.4468  0.1884
  453MOL0     C59698   7.834   8.695   7.811 -0.2587  0.5335 -0.4791
  453MOL0     O59699   7.724   8.755   7.756 -0.4632  0.2444  0.1856
  453MOL0     C59700   7.594   8.722   7.807  0.2256  0.0378 -0.2073
  453MOL0     C59701   7.473   8.776   7.720 -0.1244  0.1733 -0.2757
  453MOL0     C59702   7.346   8.689   7.753  0.0033  0.7911  0.1270
  453MOL0     C59703   7.234   8.750   7.661 -0.0089 -0.1239 -0.0877
  453MOL0     C59704   7.094   8.691   7.684  0.6587 -0.3298  0.6798
  453MOL0     C59705   7.033   8.703   7.825 -0.3310 -0.3826  0.0593
  453MOL0     C59706   6.893   8.650   7.851 -0.0760  0.0333 -0.3726
  453MOL0     C59707   6.787   8.698   7.755 -0.5126  0.6004  0.4809
  453MOL0    Cl59708   6.633   8.622   7.805  0.0993  0.3612 -0.0508
  453MOL0     C59709   7.895   8.755   7.920 -0.3530  0.8382 -0.4910
  453MOL0     C59710   8.005   8.692   7.987 -0.5415  0.6575 -0.1718
  453MOL0     O59711   8.315   8.559   7.841  0.2586  0.1352  0.4318
  453MOL0     C59712   8.366   8.493   8.183 -0.3670 -0.4814 -0.0082
  453MOL0     C59713   8.458   8.482   8.285 -0.0590  0.1208 -0.3336
  453MOL0     N59714   9.189   8.170   8.545  0.2624 -0.2695  0.0471
  453MOL0     N59715   9.313   8.144   8.560 -0.5966  0.8049 -0.0709
  453MOL0     C59716  10.501   7.915   8.644 -0.2296 -0.6003  0.9989
  453MOL0     C59717  10.619   7.930   8.699 -0.4658  0.5274  0.1945
  453MOL0     C59718  11.031   7.957   8.854  0.4500  0.7216  0.3429
  453MOL0     C59719  11.100   7.907   8.967  0.2626  0.5229 -0.8867
  453MOL0     C59720  11.227   7.942   9.007  0.5370 -0.4918  0.6077
  453MOL0     C59721  11.294   8.033   8.923 -0.5400 -0.2274 -0.5089
  453MOL0     O59722  11.423   8.076   8.948 -0.4902 -0.0844  0.2817
  453MOL0     C59723  11.521   7.977   8.980 -0.2752 -0.2820 -0.4352
  453MOL0     C59724  11.526   7.854   8.885 -0.6871 -0.7527  0.9862
  453MOL0     C59725  11.536   7.880   8.731  0.5784 -1.0850  0.2126
  453MOL0     C59726  11.615   8.004   8.687 -0.2989  0.2596 -0.1951
  453MOL0     C59727  11.586   8.072   8.562  0.2420  0.0371 -0.8597
  453MOL0     C59728  11.588   8.142   8.462  0.8330  0.7207  0.5112
  453MOL0     C59729  11.232   8.085   8.814 -0.1816  0.0671 -0.1003
  453MOL0     C59730  11.109   8.044   8.771  1.0179  0.2146  0.2552
  453MOL0     H59731  10.811   7.874   8.421 -0.6064  2.3694 -1.9725
  453MOL0     H59732  10.595   7.836   8.325  1.7832 -1.8870  0.6352
  453MOL0     H59733  10.242   8.012   8.502 -1.4359  0.0590  0.9574
  453MOL0     H59734  10.222   7.857   8.585 -0.1348  0.5599  0.5681
  453MOL0     H59735  10.126   7.746   8.415 -2.9491 -0.8842 -2.7046
  453MOL0     H59736  10.149   7.866   8.287 -0.9832 -1.0795 -0.2054
  453MOL0     H59737   9.983   8.020   8.428 -2.3888 -0.7077  2.1755
  453MOL0     H59738   9.986   7.884   8.539  2.0763  0.7448  0.9482
  453MOL0     H59739   9.939   7.847   8.234 -0.7133  1.5567 -0.4097
  453MOL0     H59740   9.907   7.739   8.373  0.8851 -0.3076  0.0820
  453MOL0     H59741   9.718   7.891   8.250 -0.5275  2.4568  0.4018
  453MOL0     H59742   9.769   8.006   8.355  0.8424  0.0302  0.0790
  453MOL0     H59743   9.695   7.852   8.544 -1.3332  4.0872  0.5103
  453MOL0     H59744   9.664   7.725   8.417  2.9150  0.0776 -1.1299
  453MOL0     H59745   9.480   7.859   8.315 -2.1386 -1.3390  1.6845
  453MOL0     H59746   9.451   7.836   8.486 -1.5463 -0.3337 -0.3111
  453MOL0     H59747   9.553   8.092   8.360  2.9435  4.1186  2.7965
  453MOL0     H59748   9.569   8.056   8.525 -0.2507 -1.7639  0.5677
  453MOL0     H59749   9.277   8.050   8.251  0.1757  0.7438  0.1811
  453MOL0     H59750   8.947   8.091   8.394 -0.1837  1.3488  0.7804
  453MOL0     H59751   9.045   8.118   8.246  2.3345  1.9965  0.1876
  453MOL0     H59752   9.089   8.359   8.342  1.0669  0.1725  0.9886
  453MOL0     H59753   8.982   8.312   8.471  2.8753  0.4031  0.2203
  453MOL0     H59754   8.910   8.376   8.176 -0.7013  1.5494  0.0254
  453MOL0     H59755   8.813   8.266   8.274  0.7542 -0.9289 -0.2839
  453MOL0     H59756   8.859   8.557   8.292  2.8358 -1.0822  0.2436
  453MOL0     H59757   8.860   8.484   8.454 -0.3863 -0.5407  0.4409
  453MOL0     H59758   8.735   8.505   8.084 -0.1343 -2.2665 -0.7637
  453MOL0     H59759   8.559   8.544   7.914 -2.3386 -0.6016 -0.4434
  453MOL0     H59760   8.036   8.411   7.803 -0.9814  0.1213  0.7433
  453MOL0     H59761   7.847   8.519   7.675 -0.8303  0.1220  0.5082
  453MOL0     H59762   7.587   8.761   7.909 -1.9037  1.8769 -0.9766
  453MOL0     H59763   7.584   8.613   7.811  1.1546 -0.0225  1.8257
  453MOL0     H59764   7.499   8.763   7.615 -2.6716  2.0160 -1.2441
  453MOL0     H59765   7.459   8.883   7.739 -0.8884  0.1570 -0.7187
  453MOL0     H59766   7.326   8.704   7.860  1.1992 -1.9955  0.8497
  453MOL0     H59767   7.359   8.583   7.728 -0.1114  0.9770 -0.7549
  453MOL0     H59768   7.224   8.858   7.669 -2.7012 -0.3199 -0.0351
  453MOL0     H59769   7.269   8.719   7.562 -1.0745 -3.0759  0.3537
  453MOL0     H59770   7.096   8.583   7.668  0.7023 -0.2260 -0.0701
  453MOL0     H59771   7.017   8.729   7.616 -0.0903 -0.0349  1.6676
  453MOL0     H59772   7.042   8.806   7.860 -1.1603 -0.1890 -0.2767
  453MOL0     H59773   7.097   8.649   7.896  0.9927  0.5976 -0.3626
  453MOL0     H59774   6.878   8.542   7.856 -1.1668  0.1511 -0.9550
  453MOL0     H59775   6.870   8.685   7.952 -5.3160  1.5119 -1.7946
  453MOL0     H59776   6.812   8.671   7.652  2.3513  3.2039  0.3494
  453MOL0     H59777   6.782   8.807   7.757  1.2208  0.7393 -0.6277
  453MOL0     H59778   7.856   8.846   7.964 -0.2008  0.8701 -0.4216
  453MOL0     H59779   8.062   8.743   8.064  2.1105  1.2659 -2.3650
  453MOL0     H59780   8.262   8.495   8.215 -0.8812 -3.1181 -1.1976
  453MOL0     H59781   8.419   8.465   8.385  0.0043  0.8243 -0.1800
  453MOL0     H59782  10.409   7.918   8.702  0.2570  0.1610  1.7475
  453MOL0     H59783  10.612   7.967   8.800  0.5792 -0.5540  0.6882
  453MOL0     H59784  11.047   7.837   9.032  0.2023 -0.0439 -1.5299
  453MOL0     H59785  11.267   7.911   9.104 -1.0712 -2.5085  0.6891
  453MOL0     H59786  11.500   7.940   9.080  1.6321 -1.9729 -0.5930
  453MOL0     H59787  11.616   8.032   8.985 -1.5237  2.0713 -0.9557
  453MOL0     H59788  11.620   7.805   8.912 -0.0067  1.3213  2.6360
  453MOL0     H59789  11.446   7.783   8.910 -0.7504 -0.7768  0.7233
  453MOL0     H59790  11.432   7.888   8.700  1.0925  0.4223 -1.3694
  453MOL0     H59791  11.571   7.789   8.681 -3.2093 -1.7741 -1.5262
  453MOL0     H59792  11.611   8.085   8.760 -2.0703  0.8980 -0.9364
  453MOL0     H59793  11.715   7.964   8.670 -1.7238 -2.6099 -2.8051
  453MOL0     H59794  11.603   8.205   8.376  0.2496 -0.4958 -0.5076
  453MOL0     H59795  11.287   8.153   8.750 -0.0155 -0.6087 -0.6878
  453MOL0     H59796  11.066   8.070   8.675  2.3919  1.4892 -0.0673
  454MOL0     O59797   4.189   5.770   6.003  0.4806  0.0764  0.0262
  454MOL0     C59798   4.177   5.701   6.108 -0.4337 -0.0097  0.3051
  454MOL0     O59799   4.056   5.642   6.158 -0.6895  0.4761  0.1359
  454MOL0     C59800   3.961   5.614   6.065  0.3263  0.0957 -0.1529
  454MOL0     C59801   3.850   5.698   6.050 -0.2218 -0.2768 -0.4283
  454MOL0     C59802   3.748   5.673   5.952 -0.4819  1.0272  0.6174
  454MOL0     C59803   3.767   5.552   5.868  0.2883 -0.7183 -0.5244
  454MOL0     O59804   3.665   5.505   5.784  0.3285 -0.5462 -0.8190
  454MOL0     C59805   3.674   5.522   5.639  0.0464  0.4879  0.4956
  454MOL0     C59806   3.541   5.522   5.571 -0.2043  0.3314 -0.4960
  454MOL0     C59807   3.466   5.651   5.606  0.5830  0.5327 -0.5222
  454MOL0     C59808   3.347   5.669   5.505 -0.3997  0.9020  0.0776
  454MOL0     C59809   3.313   5.821   5.504  0.1863  1.0204  0.1124
  454MOL0     C59810   3.164   5.852   5.446 -0.4912 -0.3716 -0.1670
  454MOL0     C59811   3.144   5.802   5.297 -0.3080  1.3548 -0.6860
  454MOL0     C59812   3.219   5.890   5.190  0.3233 -0.2811  0.0679
  454MOL0     N59813   3.170   5.880   5.052 -0.5313  0.3166 -0.4620
  454MOL0     C59814   3.053   5.920   5.009  0.1133  0.1572  0.7575
  454MOL0     C59815   3.033   5.859   4.889  0.0249  0.5558 -0.2036
  454MOL0     C59816   2.905   5.868   4.815 -0.1932  0.3381  0.1590
  454MOL0     C59817   2.780   5.873   4.904  0.8146  0.0692  0.0629
  454MOL0     C59818   2.648   5.864   4.829 -0.2943  0.5178 -0.1078
  454MOL0     C59819   2.536   5.918   4.920  0.2739  0.2906  0.6082
  454MOL0     O59820   2.428   5.933   4.826  0.6237 -0.1185 -0.2808
  454MOL0     C59821   2.309   5.993   4.874  0.3535 -0.1835 -0.2891
  454MOL0     C59822   2.282   6.038   5.005  0.2942  0.7480  0.2660
  454MOL0     C59823   2.160   6.093   5.042 -0.1357  1.7221 -0.1387
  454MOL0     C59824   2.061   6.122   4.943  0.1310 -0.6143  0.0395
  454MOL0     C59825   1.937   6.202   4.968  0.2477  0.3716 -0.0012
  454MOL0     O59826   1.929   6.258   5.089 -0.1569  0.2759  0.2398
  454MOL0     C59827   1.812   6.329   5.110  0.0323 -0.5254  0.9446
  454MOL0     C59828   1.807   6.468   5.074  0.5402  0.4446  0.5388
  454MOL0     C59829   1.694   6.540   5.110  0.1046 -0.0370 -0.3373
  454MOL0     C59830   1.589   6.480   5.182 -0.7745  0.3712  0.4065
  454MOL0     O59831   1.483   6.568   5.184 -0.2519 -0.0113 -0.8977
  454MOL0     C59832   1.386   6.558   5.283  0.4916 -0.3124  0.2854
  454MOL0     C59833   1.270   6.658   5.263  0.3110 -0.1423  0.2166
  454MOL0     C59834   1.139   6.616   5.331 -0.8122 -0.5441  0.6908
  454MOL0     C59835   1.022   6.713   5.311 -0.0984  0.2548 -0.1475
  454MOL0     C59836   0.907   6.677   5.416  0.8499 -0.3151 -0.8130
  454MOL0     C59837   0.779   6.768   5.410 -0.1678 -0.0929  0.5816
  454MOL0     C59838   0.683   6.726   5.520  0.7373 -0.3447 -0.1242
  454MOL0     C59839   0.536   6.774   5.487 -0.2214 -0.2660  0.4332
  454MOL0    Cl59840   0.536   6.945   5.446  0.0227 -0.0209  0.2732
  454MOL0     C59841   1.592   6.339   5.204  0.0800  0.1345 -0.5024
  454MOL0     C59842   1.703   6.265   5.169  0.5937 -0.9037 -0.4840
  454MOL0     O59843   1.846   6.181   4.885  0.2104 -0.1628 -0.1709
  454MOL0     C59844   2.087   6.081   4.805 -0.9023 -0.3523  0.1258
  454MOL0     C59845   2.211   6.021   4.771 -0.0003  1.1291 -1.0043
  454MOL0     N59846   3.142   5.780   4.864  0.0623 -0.3899  0.4570
  454MOL0     N59847   3.223   5.790   4.967 -0.2825  0.5948 -0.4776
  454MOL0     C59848   3.876   5.467   5.889 -0.2535 -0.0025 -0.0386
  454MOL0     C59849   3.969   5.501   5.983 -0.2998  0.4292  0.7317
  454MOL0     C59850   4.295   5.676   6.182 -0.1282  0.0317 -0.0986
  454MOL0     C59851   4.422   5.740   6.170  0.0185 -0.6194  0.3240
  454MOL0     C59852   4.535   5.698   6.232  0.2376 -0.6116 -0.2132
  454MOL0     C59853   4.535   5.587   6.305 -0.8804 -0.1079 -0.9887
  454MOL0     O59854   4.643   5.526   6.365 -0.3901 -0.0006 -0.8670
  454MOL0     C59855   4.772   5.529   6.302  0.0530 -0.1451 -0.6817
  454MOL0     C59856   4.868   5.424   6.370 -0.0320 -0.0227  0.2749
  454MOL0     C59857   4.937   5.477   6.493  0.2778  0.2378 -0.4591
  454MOL0     C59858   5.032   5.376   6.559  0.0873  0.1340  0.2326
  454MOL0     C59859   5.144   5.348   6.465 -0.8429  0.5270  0.2261
  454MOL0     C59860   5.213   5.318   6.362  0.7795  1.0141  0.2046
  454MOL0     C59861   4.411   5.525   6.327  0.3942  1.0743  0.4972
  454MOL0     C59862   4.294   5.570   6.273 -0.0595  0.4702  0.4492
  454MOL0     H59863   3.849   5.777   6.124  0.0799  0.0722 -0.7929
  454MOL0     H59864   3.662   5.733   5.924 -0.3224 -0.4777 -3.9171
  454MOL0     H59865   3.734   5.445   5.589 -1.4134  0.1271 -0.7989
  454MOL0     H59866   3.726   5.615   5.612 -2.0111  1.7315  0.6177
  454MOL0     H59867   3.485   5.430   5.590 -0.0404 -0.3697 -2.9439
  454MOL0     H59868   3.559   5.506   5.464 -2.6841 -1.3860 -0.7404
  454MOL0     H59869   3.526   5.742   5.620 -2.3992  2.4137  1.2084
  454MOL0     H59870   3.430   5.640   5.708 -0.6910  0.5250 -0.9546
  454MOL0     H59871   3.383   5.637   5.407  5.5867  0.2276  2.0523
  454MOL0     H59872   3.253   5.622   5.534 -3.7063  4.6597 -3.2194
  454MOL0     H59873   3.376   5.877   5.435 -0.2350  2.2475  0.6800
  454MOL0     H59874   3.335   5.860   5.604  2.6296 -1.4818  0.6930
  454MOL0     H59875   3.148   5.960   5.448  0.6941 -0.1913  0.6460
  454MOL0     H59876   3.095   5.800   5.512 -0.3237  0.8922  1.0418
  454MOL0     H59877   3.174   5.697   5.289 -0.9745  0.9367  1.4712
  454MOL0     H59878   3.036   5.815   5.286 -0.3734  1.5456  0.0994
  454MOL0     H59879   3.326   5.872   5.202  0.5764  1.0640 -0.0096
  454MOL0     H59880   3.206   5.996   5.214  0.1777 -0.4484  0.7577
  454MOL0     H59881   2.978   5.984   5.055  0.4594 -0.5633  2.3840
  454MOL0     H59882   2.901   5.778   4.752  0.3357  1.7415 -2.0060
  454MOL0     H59883   2.910   5.959   4.754 -0.9122 -0.1433 -0.6332
  454MOL0     H59884   2.779   5.966   4.961  1.2012 -1.4832  2.7605
  454MOL0     H59885   2.777   5.796   4.982 -0.5060  0.5896  0.5511
  454MOL0     H59886   2.652   5.916   4.733 -1.6217  1.2064  0.1894
  454MOL0     H59887   2.619   5.761   4.806  0.1679  0.2584  0.4367
  454MOL0     H59888   2.566   6.015   4.960  1.2389  1.4142 -2.5348
  454MOL0     H59889   2.519   5.850   5.004  0.3356 -0.2188  0.2170
  454MOL0     H59890   2.360   6.038   5.081 -1.5083  2.5112  2.2578
  454MOL0     H59891   2.148   6.113   5.148  1.0142 -1.9524  0.8291
  454MOL0     H59892   1.900   6.503   5.029  0.5976  0.0106  0.3086
  454MOL0     H59893   1.685   6.645   5.083 -0.2201  0.4528  1.5252
  454MOL0     H59894   1.414   6.566   5.389 -1.6426 -0.8453  0.9476
  454MOL0     H59895   1.338   6.460   5.278  0.5458 -0.3035 -0.4470
  454MOL0     H59896   1.254   6.663   5.155  1.1351 -2.5280 -0.0825
  454MOL0     H59897   1.294   6.757   5.302  2.3014 -0.9106  1.0854
  454MOL0     H59898   1.146   6.598   5.438 -4.1400  0.8045  1.2752
  454MOL0     H59899   1.112   6.516   5.294  1.9135 -0.8122 -0.8137
  454MOL0     H59900   1.058   6.815   5.326  1.1852 -0.0922 -0.7061
  454MOL0     H59901   0.978   6.703   5.211  1.4497 -0.5750 -0.7803
  454MOL0     H59902   0.957   6.688   5.513  0.2434 -0.5983 -0.4619
  454MOL0     H59903   0.884   6.571   5.410 -0.3873 -0.6115  4.3704
  454MOL0     H59904   0.731   6.738   5.316 -1.1609 -2.6623  1.7994
  454MOL0     H59905   0.808   6.873   5.407  0.4370 -0.2541  0.7413
  454MOL0     H59906   0.691   6.618   5.534  0.5233 -0.0928  2.3401
  454MOL0     H59907   0.708   6.767   5.619 -0.6218  1.1874 -0.3848
  454MOL0     H59908   0.472   6.763   5.575 -2.1940  2.8618 -0.4598
  454MOL0     H59909   0.483   6.723   5.406 -2.1681  0.8533  0.9368
  454MOL0     H59910   1.515   6.282   5.255 -0.3885  0.5148 -0.7769
  454MOL0     H59911   1.705   6.157   5.180  2.1492 -0.8141  0.3655
  454MOL0     H59912   2.025   6.110   4.721 -2.4398  0.1049  1.3719
  454MOL0     H59913   2.251   5.997   4.673 -1.7141 -0.1312 -1.4365
  454MOL0     H59914   3.895   5.377   5.833  1.3018 -1.9366  3.2776
  454MOL0     H59915   4.063   5.451   6.002 -0.6717 -0.6041 -0.1175
  454MOL0     H59916   4.431   5.833   6.116 -0.0050 -0.3515  0.7787
  454MOL0     H59917   4.630   5.749   6.222 -0.3437  0.1419 -2.8275
  454MOL0     H59918   4.806   5.631   6.321 -1.1815  0.2787 -0.6784
  454MOL0     H59919   4.757   5.512   6.195 -2.8727  1.6550 -0.6585
  454MOL0     H59920   4.819   5.328   6.386  3.0078 -2.1626 -1.9633
  454MOL0     H59921   4.936   5.392   6.290 -1.3368 -0.6945 -0.6158
  454MOL0     H59922   4.856   5.508   6.560  0.6742  0.5293 -0.1090
  454MOL0     H59923   4.998   5.562   6.463  0.2033 -0.3137 -2.2900
  454MOL0     H59924   5.069   5.425   6.649  3.1064  1.8674 -1.7857
  454MOL0     H59925   4.975   5.285   6.581 -1.0358  0.2989 -1.7258
  454MOL0     H59926   5.265   5.293   6.272 -0.1202  2.9513 -0.9289
  454MOL0     H59927   4.423   5.430   6.378 -0.9319  0.6484  0.0719
  454MOL0     H59928   4.205   5.508   6.284  0.2915 -0.0139  0.5784
  455MOL0     O59929   0.293   4.432   8.198  0.0613 -0.2416  0.7097
  455MOL0     C59930   0.319   4.539   8.135 -0.9448  0.9819 -0.3187
  455MOL0     O59931   0.243   4.608   8.056 -0.0164  0.8129  1.1329
  455MOL0     C59932   0.125   4.557   8.021  0.7076 -0.3228 -1.0425
  455MOL0     C59933   0.013   4.654   8.028 -0.0546  0.6491 -0.6444
  455MOL0     C59934  -0.111   4.616   7.987  0.1985  0.3253 -0.1816
  455MOL0     C59935  -0.126   4.492   7.925 -0.0996 -0.4662 -0.5114
  455MOL0     O59936  -0.242   4.454   7.865  0.5691  0.5363 -0.9634
  455MOL0     C59937  -0.370   4.471   7.943 -0.9119  0.4305 -0.0282
  455MOL0     C59938  -0.458   4.535   7.840 -0.5358 -0.1776 -0.5950
  455MOL0     C59939  -0.594   4.590   7.892  0.0068  0.4626 -0.0842
  455MOL0     C59940  -0.714   4.499   7.931  0.3768 -0.3354  0.8156
  455MOL0     C59941  -0.846   4.567   7.963 -0.5642 -0.8300 -0.0359
  455MOL0     C59942  -0.933   4.467   8.044  0.1465 -0.3000 -0.1885
  455MOL0     C59943  -1.075   4.521   8.047 -0.5935  0.0225  0.1258
  455MOL0     C59944  -1.172   4.442   8.139  0.2708 -0.1574  0.8056
  455MOL0     N59945  -1.311   4.484   8.116  0.0949 -0.1908  0.1263
  455MOL0     C59946  -1.383   4.468   7.998  0.5804 -0.4411 -0.6607
  455MOL0     C59947  -1.503   4.524   8.030 -0.0645 -0.8332  0.2295
  455MOL0     C59948  -1.614   4.544   7.940 -0.2418  0.2207 -0.5811
  455MOL0     C59949  -1.747   4.500   8.002 -0.6570 -0.0664 -1.4281
  455MOL0     C59950  -1.854   4.535   7.900 -0.0463  0.4102  0.7385
  455MOL0     C59951  -1.997   4.527   7.956 -0.0611  0.9154 -0.5258
  455MOL0     O59952  -2.092   4.549   7.851  0.2812  0.5916  0.1320
  455MOL0     C59953  -2.222   4.501   7.874  0.1380 -0.4784  0.3389
  455MOL0     C59954  -2.280   4.456   7.761  0.4865 -0.3698  0.0614
  455MOL0     C59955  -2.402   4.379   7.763  0.1638 -1.2056 -0.3155
  455MOL0     C59956  -2.477   4.365   7.880  0.5401 -0.6667 -0.2126
  455MOL0     C59957  -2.610   4.298   7.881  1.0933 -0.1096  0.0261
  455MOL0     O59958  -2.678   4.323   7.763  0.1714 -0.0069 -0.3159
  455MOL0     C59959  -2.814   4.297   7.772  0.1891  0.2214 -0.0658
  455MOL0     C59960  -2.902   4.408   7.755 -0.2999  1.0857 -0.0086
  455MOL0     C59961  -3.033   4.403   7.771 -0.0701 -0.0817  0.0471
  455MOL0     C59962  -3.093   4.280   7.788  0.4095 -1.2348 -0.3669
  455MOL0     O59963  -3.230   4.298   7.820  0.5079  0.1550  0.2263
  455MOL0     C59964  -3.310   4.180   7.828 -0.3656  0.2385  0.3623
  455MOL0     C59965  -3.422   4.196   7.920  0.3144 -0.6776 -0.9341
  455MOL0     C59966  -3.531   4.102   7.888  0.0051 -0.0808  0.0696
  455MOL0     C59967  -3.634   4.087   7.999  0.7466  0.0404 -0.5038
  455MOL0     C59968  -3.743   3.979   7.953  0.1402 -0.2616  0.3986
  455MOL0     C59969  -3.863   3.976   8.045 -0.2052  0.1874  0.7487
  455MOL0     C59970  -3.998   3.940   7.986  0.1160 -0.6307  0.3741
  455MOL0     C59971  -4.116   3.940   8.086  0.0287 -0.4377 -0.6849
  455MOL0    Cl59972  -4.112   3.810   8.200 -0.4051  0.0979 -0.3400
  455MOL0     C59973  -3.016   4.160   7.795  0.4740  1.3901 -0.0907
  455MOL0     C59974  -2.871   4.169   7.782 -0.6693  0.5352  0.1575
  455MOL0     O59975  -2.655   4.263   7.988  0.5093 -0.0875  0.3940
  455MOL0     C59976  -2.424   4.423   7.998 -0.1830  0.3141  0.1841
  455MOL0     C59977  -2.296   4.492   7.989 -0.2742  0.0318 -0.0627
  455MOL0     N59978  -1.495   4.580   8.158 -0.9878 -0.2043 -0.7600
  455MOL0     N59979  -1.385   4.554   8.207  0.3045  0.0355  0.4354
  455MOL0     C59980  -0.019   4.401   7.915 -0.0928 -0.5113  0.4128
  455MOL0     C59981   0.102   4.430   7.975 -0.1085 -0.0343  0.6084
  455MOL0     C59982   0.461   4.581   8.133 -1.0776  0.4071 -0.4050
  455MOL0     C59983   0.504   4.693   8.051  0.6616 -0.3458 -0.0670
  455MOL0     C59984   0.637   4.733   8.069 -0.4578 -0.1030  0.0651
  455MOL0     C59985   0.728   4.676   8.159  0.8251 -0.6931 -0.0545
  455MOL0     O59986   0.850   4.716   8.191  0.4734 -0.4538 -0.5165
  455MOL0     C59987   0.875   4.855   8.192 -1.1574 -0.2013 -0.0150
  455MOL0     C59988   0.938   4.911   8.064 -0.7236  0.0294  0.1000
  455MOL0     C59989   1.057   4.846   7.993  0.0506 -0.0006 -0.1127
  455MOL0     C59990   1.174   4.841   8.084 -0.4097  0.3659 -0.1722
  455MOL0     C59991   1.296   4.781   8.025  0.1018  0.3218  0.2398
  455MOL0     C59992   1.396   4.741   7.974  0.8746  0.7140 -0.5565
  455MOL0     C59993   0.685   4.563   8.231 -1.3648  0.0365  1.4009
  455MOL0     C59994   0.555   4.514   8.220  0.6453 -0.6666  0.5969
  455MOL0     H59995   0.035   4.754   8.063  1.5926 -0.5665  2.1520
  455MOL0     H59996  -0.192   4.686   8.006 -0.7684 -1.1544  1.4331
  455MOL0     H59997  -0.364   4.544   8.024 -2.1815  0.1115  0.3874
  455MOL0     H59998  -0.419   4.381   7.980 -1.3043  0.5939 -0.1370
  455MOL0     H59999  -0.479   4.455   7.768 -0.3327 -0.7828  0.0148
  455MOL0     H60000  -0.413   4.620   7.789 -0.5682 -0.4719 -1.1216
  455MOL0     H60001  -0.638   4.648   7.811 -1.3518 -1.0550 -0.4717
  455MOL0     H60002  -0.580   4.660   7.975 -0.2354  0.2946  0.0976
  455MOL0     H60003  -0.731   4.419   7.859 -0.7894  1.5172 -1.0872
  455MOL0     H60004  -0.687   4.460   8.030  1.5979  0.1224  0.6911
  455MOL0     H60005  -0.887   4.594   7.865  0.2639 -3.9650 -1.3809
  455MOL0     H60006  -0.827   4.657   8.022  3.7389 -1.6140  0.1285
  455MOL0     H60007  -0.886   4.468   8.143  0.5962  2.7444 -0.3310
  455MOL0     H60008  -0.924   4.364   8.011 -0.4745 -0.7300  0.9437
  455MOL0     H60009  -1.061   4.619   8.091  0.8797 -0.0220 -0.1835
  455MOL0     H60010  -1.116   4.526   7.945  0.2119  0.7924 -0.1664
  455MOL0     H60011  -1.137   4.469   8.239  2.0458  1.4149 -0.1768
  455MOL0     H60012  -1.159   4.334   8.129  2.2688 -0.4455  4.6316
  455MOL0     H60013  -1.355   4.428   7.901  0.5003 -1.6135 -0.2207
  455MOL0     H60014  -1.599   4.479   7.854 -0.9201 -0.0772 -0.4739
  455MOL0     H60015  -1.619   4.648   7.908 -2.4730  0.4643  0.3768
  455MOL0     H60016  -1.764   4.562   8.090  0.8674  4.7722 -4.1292
  455MOL0     H60017  -1.739   4.393   8.023  1.5428 -0.5550 -4.1066
  455MOL0     H60018  -1.841   4.639   7.869 -3.0969  1.0075  1.1358
  455MOL0     H60019  -1.848   4.466   7.815 -1.0626  0.1705  0.8402
  455MOL0     H60020  -2.001   4.603   8.035  2.6461  2.2893 -1.5829
  455MOL0     H60021  -2.018   4.422   7.978 -1.5203  0.8459 -2.0380
  455MOL0     H60022  -2.239   4.480   7.663 -2.1563  0.6612 -0.8673
  455MOL0     H60023  -2.435   4.339   7.668 -0.7340  1.7082 -1.3467
  455MOL0     H60024  -2.854   4.504   7.738  0.1835  0.5132 -2.2331
  455MOL0     H60025  -3.095   4.492   7.770  0.9863  0.7802  2.8055
  455MOL0     H60026  -3.244   4.111   7.881  1.5351  1.5744 -0.1429
  455MOL0     H60027  -3.340   4.148   7.728 -2.8072 -0.4840  1.2611
  455MOL0     H60028  -3.456   4.299   7.933 -1.2943 -1.2861 -0.1326
  455MOL0     H60029  -3.386   4.176   8.022  2.7606 -1.2672 -1.8345
  455MOL0     H60030  -3.480   4.007   7.869  1.1986  0.1918  1.7080
  455MOL0     H60031  -3.578   4.138   7.796  0.0500  3.0833  1.1430
  455MOL0     H60032  -3.585   4.064   8.094 -0.6693 -0.5214  0.1184
  455MOL0     H60033  -3.676   4.188   8.000  0.8976  0.1229 -1.5257
  455MOL0     H60034  -3.687   3.885   7.949 -0.6981 -0.7631  0.3829
  455MOL0     H60035  -3.754   4.018   7.851  1.5292  0.8613  0.6438
  455MOL0     H60036  -3.875   4.071   8.099 -0.5271 -0.5205  1.9670
  455MOL0     H60037  -3.845   3.905   8.126 -4.1549  0.9510  2.5539
  455MOL0     H60038  -4.036   4.014   7.914 -2.0981 -0.5209  1.5754
  455MOL0     H60039  -3.999   3.841   7.938 -3.7149 -0.2646 -0.6581
  455MOL0     H60040  -4.214   3.945   8.038 -0.1472  3.3520 -0.2323
  455MOL0     H60041  -4.108   4.035   8.140 -0.6530 -0.4164 -0.6065
  455MOL0     H60042  -3.067   4.064   7.794 -1.2235  2.2415  0.4676
  455MOL0     H60043  -2.809   4.080   7.788  0.5166  1.4165  1.8031
  455MOL0     H60044  -2.465   4.405   8.097  1.3789 -1.2026  0.5956
  455MOL0     H60045  -2.270   4.545   8.081 -1.2020 -0.1649  0.3248
  455MOL0     H60046  -0.032   4.303   7.871  1.9918 -1.5499  1.8969
  455MOL0     H60047   0.180   4.355   7.974  0.0821  0.0897 -2.2886
  455MOL0     H60048   0.429   4.747   7.993  0.0030 -1.9072 -0.7380
  455MOL0     H60049   0.677   4.818   8.014  0.5389 -1.1031 -0.8161
  455MOL0     H60050   0.932   4.883   8.281 -2.6553  1.6420  0.4162
  455MOL0     H60051   0.785   4.915   8.207  1.1445  3.4872  0.2864
  455MOL0     H60052   0.866   4.904   7.982  2.3250 -0.3278 -2.7677
  455MOL0     H60053   0.959   5.015   8.088  2.6260 -0.1742 -1.4298
  455MOL0     H60054   1.082   4.914   7.911 -2.8595 -1.0781 -2.0370
  455MOL0     H60055   1.040   4.744   7.956  0.7194 -1.5440  3.4686
  455MOL0     H60056   1.197   4.944   8.111 -0.1017  0.2773 -0.0926
  455MOL0     H60057   1.166   4.776   8.172  1.3241  0.5470  0.1648
  455MOL0     H60058   1.479   4.703   7.916  2.2342  2.2813  0.2685
  455MOL0     H60059   0.744   4.506   8.303  2.3476 -1.1049 -2.1671
  455MOL0     H60060   0.526   4.432   8.285 -0.3954  0.8060  2.0682
  456MOL0     O60061   3.981   6.469   0.647  0.1057 -0.4782  0.1673
  456MOL0     C60062   3.957   6.589   0.630 -1.1000  0.1208  0.5030
  456MOL0     O60063   4.052   6.691   0.602  0.1067  0.7787  0.4536
  456MOL0     C60064   4.185   6.669   0.587  0.8034  0.2877 -0.0263
  456MOL0     C60065   4.232   6.559   0.511  0.4044  0.2268 -0.2062
  456MOL0     C60066   4.365   6.545   0.488  0.1320 -0.1815 -0.1153
  456MOL0     C60067   4.459   6.630   0.554 -0.0908  0.3382  0.3309
  456MOL0     O60068   4.584   6.612   0.509 -0.2370  0.0879  0.1809
  456MOL0     C60069   4.668   6.728   0.512  0.7265 -0.1963  0.0381
  456MOL0     C60070   4.804   6.699   0.456  0.6104  0.3795 -0.0630
  456MOL0     C60071   4.871   6.594   0.533 -0.0985 -0.2479  0.4430
  456MOL0     C60072   4.891   6.620   0.684 -0.0583 -0.5076  0.5684
  456MOL0     C60073   4.957   6.490   0.751  0.0605  0.4080 -0.2804
  456MOL0     C60074   4.868   6.360   0.737 -0.1134 -0.4120  0.0273
  456MOL0     C60075   4.719   6.380   0.769  0.8329 -0.1841 -0.2363
  456MOL0     C60076   4.643   6.245   0.793  1.3262 -0.5413 -0.5547
  456MOL0     N60077   4.613   6.180   0.667  0.2337 -0.1545 -0.1731
  456MOL0     C60078   4.497   6.208   0.596  0.1726  0.1296 -0.1588
  456MOL0     C60079   4.515   6.149   0.471  1.1959 -0.4150  0.4295
  456MOL0     C60080   4.420   6.142   0.354 -0.3914 -0.8244 -0.3414
  456MOL0     C60081   4.289   6.086   0.402 -0.8127  0.3124  0.1024
  456MOL0     C60082   4.191   6.051   0.292 -0.3480 -0.0669  0.2424
  456MOL0     C60083   4.056   6.042   0.343  0.6029  0.5211 -1.0831
  456MOL0     O60084   3.972   6.075   0.229  0.2799  0.0609 -1.1125
  456MOL0     C60085   3.834   6.095   0.253 -0.9680  0.4451  0.3049
  456MOL0     C60086   3.765   6.082   0.372  0.0887  0.4367 -0.3849
  456MOL0     C60087   3.632   6.107   0.377  0.7621  0.5364  0.3283
  456MOL0     C60088   3.554   6.145   0.269 -0.4461  0.0092  0.6162
  456MOL0     C60089   3.414   6.193   0.272  0.1088  0.7804 -0.1445
  456MOL0     O60090   3.344   6.176   0.156 -0.0657 -0.9124 -0.4987
  456MOL0     C60091   3.207   6.204   0.154 -0.0499  0.1539  0.1875
  456MOL0     C60092   3.156   6.329   0.106  0.0626 -0.5808 -0.7750
  456MOL0     C60093   3.022   6.344   0.090 -0.7357 -1.1018 -1.2352
  456MOL0     C60094   2.931   6.236   0.121 -0.2494 -0.1703  0.1211
  456MOL0     O60095   2.793   6.251   0.110 -0.3053  0.1325 -0.3271
  456MOL0     C60096   2.716   6.158   0.036  0.0536 -0.3845 -0.0092
  456MOL0     C60097   2.585   6.219  -0.015 -0.1514  0.3889  0.7028
  456MOL0     C60098   2.517   6.325   0.079  0.9552  0.2382 -0.3272
  456MOL0     C60099   2.442   6.250   0.189  0.0463 -0.1350 -0.7495
  456MOL0     C60100   2.316   6.327   0.231  0.6942 -0.7624  0.1540
  456MOL0     C60101   2.264   6.287   0.369 -0.4741  0.4321  0.8596
  456MOL0     C60102   2.151   6.371   0.417 -1.3881 -0.1849 -0.7843
  456MOL0     C60103   2.023   6.326   0.346 -0.5692 -0.5380 -0.7290
  456MOL0    Cl60104   1.976   6.160   0.401 -0.4123 -0.1113  0.1025
  456MOL0     C60105   2.984   6.114   0.156  0.1801  0.7666  0.1805
  456MOL0     C60106   3.122   6.096   0.166 -0.1091 -1.2092 -0.2427
  456MOL0     O60107   3.371   6.229   0.385 -0.8932  0.8293  0.1211
  456MOL0     C60108   3.624   6.156   0.152 -0.7398  0.0251  0.0756
  456MOL0     C60109   3.763   6.129   0.142  0.9120  1.0789  0.1869
  456MOL0     N60110   4.640   6.093   0.473  0.4507  0.4774  0.5684
  456MOL0     N60111   4.695   6.114   0.586 -0.6003 -0.0138 -0.1268
  456MOL0     C60112   4.416   6.716   0.646  0.4435 -0.5218 -0.1938
  456MOL0     C60113   4.280   6.745   0.658  0.1172 -0.0307 -0.5998
  456MOL0     C60114   3.810   6.627   0.601  0.3395 -0.7320 -1.2290
  456MOL0     C60115   3.777   6.759   0.591 -0.2524  0.0719  0.0484
  456MOL0     C60116   3.636   6.798   0.579  0.0774  0.5600 -0.2031
  456MOL0     C60117   3.531   6.703   0.592 -0.6644  0.0194 -0.3892
  456MOL0     O60118   3.399   6.745   0.586 -0.3613 -0.6687 -0.6378
  456MOL0     C60119   3.286   6.655   0.584 -0.1589  0.1366 -0.6333
  456MOL0     C60120   3.174   6.720   0.507 -0.5627  0.9609 -0.1102
  456MOL0     C60121   3.106   6.615   0.407  0.0912  0.1204 -0.1346
  456MOL0     C60122   3.034   6.688   0.290  0.7124  0.0859 -0.8520
  456MOL0     C60123   2.910   6.744   0.331  0.1467 -0.0710  0.2322
  456MOL0     C60124   2.793   6.789   0.347 -0.0875  1.1142 -0.5130
  456MOL0     C60125   3.576   6.576   0.620  0.1405  0.1613  0.8830
  456MOL0     C60126   3.705   6.533   0.615 -0.4759  0.2040  0.1447
  456MOL0     H60127   4.171   6.497   0.445  0.3377  1.5887 -1.4835
  456MOL0     H60128   4.402   6.466   0.423 -1.2782 -0.4085 -0.6628
  456MOL0     H60129   4.687   6.764   0.613 -0.6064 -1.4141  0.7644
  456MOL0     H60130   4.622   6.800   0.443 -1.5362 -0.9157  0.6998
  456MOL0     H60131   4.872   6.784   0.451  0.9040  0.1071 -1.0329
  456MOL0     H60132   4.800   6.662   0.353 -1.4332  0.7874 -0.1594
  456MOL0     H60133   4.975   6.589   0.500  0.0512 -0.8099  0.9746
  456MOL0     H60134   4.824   6.496   0.519  0.7526 -0.2972 -2.8794
  456MOL0     H60135   4.964   6.701   0.683  0.3851 -0.8880 -1.2375
  456MOL0     H60136   4.796   6.638   0.737  0.7258 -1.1782  2.2774
  456MOL0     H60137   4.975   6.516   0.856  2.4484  0.6823 -0.6963
  456MOL0     H60138   5.058   6.467   0.714  0.1182  0.2306 -0.0202
  456MOL0     H60139   4.900   6.284   0.809 -0.0445 -1.0324 -0.6377
  456MOL0     H60140   4.871   6.314   0.638 -0.1267 -0.0787 -0.1297
  456MOL0     H60141   4.704   6.440   0.860 -1.8615 -1.2960  0.1366
  456MOL0     H60142   4.672   6.429   0.684  1.0463 -1.4179 -1.0873
  456MOL0     H60143   4.547   6.266   0.841  2.0580 -1.7419  1.5673
  456MOL0     H60144   4.708   6.182   0.855  0.4955 -1.1887 -0.3293
  456MOL0     H60145   4.414   6.272   0.623  0.3349  0.1164  0.3888
  456MOL0     H60146   4.464   6.084   0.272  1.8551 -1.2616  1.0982
  456MOL0     H60147   4.402   6.241   0.310  1.8534  0.4910  1.4902
  456MOL0     H60148   4.242   6.159   0.468 -3.4781  0.1744 -1.4748
  456MOL0     H60149   4.299   5.995   0.462 -1.3104 -0.7483 -1.3475
  456MOL0     H60150   4.197   6.132   0.220  2.2930  0.6788  1.1698
  456MOL0     H60151   4.226   5.956   0.250  1.3364  1.0086 -0.9286
  456MOL0     H60152   4.060   6.121   0.419  2.4909  0.1154 -0.7089
  456MOL0     H60153   4.024   5.946   0.386 -5.9151  1.1953 -3.3178
  456MOL0     H60154   3.813   6.050   0.464 -0.4044 -0.1390 -0.3214
  456MOL0     H60155   3.583   6.111   0.474 -0.6332 -0.3511 -0.3003
  456MOL0     H60156   3.233   6.401   0.080  1.5697 -1.7180  0.3547
  456MOL0     H60157   2.977   6.439   0.064  1.6897  1.1717  2.0062
  456MOL0     H60158   2.670   6.091   0.109 -3.1247  1.3498 -0.2383
  456MOL0     H60159   2.771   6.100  -0.039 -2.6030 -0.2277 -2.1936
  456MOL0     H60160   2.505   6.155  -0.053 -1.1566  1.4367  0.9660
  456MOL0     H60161   2.618   6.271  -0.105  0.8773 -1.4391 -0.0058
  456MOL0     H60162   2.448   6.386   0.020 -0.3811 -2.6306 -1.9291
  456MOL0     H60163   2.580   6.397   0.132 -1.5416  0.8990  1.9278
  456MOL0     H60164   2.408   6.151   0.156 -2.2143  0.6758 -1.0364
  456MOL0     H60165   2.507   6.247   0.277  2.2779  0.3093 -2.3013
  456MOL0     H60166   2.234   6.312   0.161  0.7703  1.1641 -0.4172
  456MOL0     H60167   2.337   6.435   0.232 -0.7669 -0.3779 -2.0466
  456MOL0     H60168   2.347   6.290   0.439  1.1287 -1.1451 -0.8404
  456MOL0     H60169   2.231   6.182   0.368  0.1545  0.2325  0.5539
  456MOL0     H60170   2.148   6.357   0.526  0.8977  0.2538 -0.6223
  456MOL0     H60171   2.161   6.479   0.399 -1.3945 -0.0654 -0.1275
  456MOL0     H60172   2.043   6.337   0.239  3.1555  0.9697 -0.0535
  456MOL0     H60173   1.939   6.393   0.366  0.3392 -0.2003  2.5378
  456MOL0     H60174   2.916   6.031   0.175  2.3290 -1.3412 -0.8628
  456MOL0     H60175   3.140   5.990   0.186 -3.3150 -1.8291 -0.0693
  456MOL0     H60176   3.570   6.187   0.064 -1.7306  0.6995  0.8999
  456MOL0     H60177   3.815   6.136   0.047 -0.5525 -1.7713 -0.9431
  456MOL0     H60178   4.489   6.769   0.707  1.4071 -0.8140 -1.0833
  456MOL0     H60179   4.235   6.820   0.723  1.0943 -0.5410  0.7283
  456MOL0     H60180   3.858   6.828   0.571  1.7753 -2.6691 -2.0203
  456MOL0     H60181   3.602   6.900   0.561 -0.4776  0.7796  1.9036
  456MOL0     H60182   3.260   6.634   0.688 -0.3954  0.7615 -0.5644
  456MOL0     H60183   3.325   6.567   0.532  2.1200  0.5632  0.2319
  456MOL0     H60184   3.100   6.745   0.584  0.5599  0.2198  1.2380
  456MOL0     H60185   3.199   6.811   0.452 -0.1923 -0.0103 -1.6260
  456MOL0     H60186   3.034   6.545   0.451  1.9974 -1.7406  0.2625
  456MOL0     H60187   3.178   6.543   0.366 -1.0546 -1.9775  1.2820
  456MOL0     H60188   3.091   6.752   0.221 -2.9641  0.5428 -3.7661
  456MOL0     H60189   2.995   6.613   0.222  0.4105  1.3030 -2.0641
  456MOL0     H60190   2.696   6.825   0.374 -1.4847 -0.3085 -3.2356
  456MOL0     H60191   3.496   6.504   0.634  1.3799 -1.1076  1.7357
  456MOL0     H60192   3.736   6.431   0.634 -0.0208  0.7011  2.3271
  457MOL0     O60193  10.333   3.511   8.499 -0.0837 -0.0739 -0.0606
  457MOL0     C60194  10.320   3.503   8.379  0.9056  0.1843  0.7158
  457MOL0     O60195  10.200   3.515   8.311 -0.1522  0.6134 -0.3255
  457MOL0     C60196  10.087   3.522   8.393 -0.3684  0.5538  0.0542
  457MOL0     C60197  10.061   3.641   8.460 -0.0330 -0.2534 -0.2007
  457MOL0     C60198   9.936   3.659   8.527 -0.1936 -0.2343  0.5141
  457MOL0     C60199   9.833   3.558   8.527  0.1202 -0.0605 -0.2914
  457MOL0     O60200   9.705   3.571   8.574  0.8141  0.2781  0.0119
  457MOL0     C60201   9.638   3.695   8.547 -1.1412 -0.3433  0.8036
  457MOL0     C60202   9.498   3.677   8.605 -0.3451 -0.5004  0.9885
  457MOL0     C60203   9.427   3.815   8.602  0.9209 -0.1411 -0.2847
  457MOL0     C60204   9.284   3.796   8.659 -0.6916 -0.4491 -0.7178
  457MOL0     C60205   9.195   3.903   8.597 -0.3856  0.2748  0.8394
  457MOL0     C60206   9.056   3.872   8.643  0.7423  0.4273 -0.7547
  457MOL0     C60207   8.942   3.946   8.570 -0.2389  0.4855  0.4273
  457MOL0     C60208   8.970   4.097   8.550  0.0695 -0.2925  0.0050
  457MOL0     N60209   8.973   4.172   8.673 -0.5016 -0.0420 -1.1010
  457MOL0     C60210   8.893   4.155   8.786 -0.6140 -0.5492 -0.3061
  457MOL0     C60211   8.914   4.270   8.860 -0.3761  0.1387 -0.0244
  457MOL0     C60212   8.849   4.324   8.987  0.3727  0.0176 -0.5394
  457MOL0     C60213   8.722   4.390   8.953 -0.4605  0.2754  0.0433
  457MOL0     C60214   8.611   4.379   9.060 -0.4329  0.4143  0.4550
  457MOL0     C60215   8.564   4.239   9.063 -0.2668  0.4538 -0.1371
  457MOL0     O60216   8.443   4.229   9.152  0.2181 -0.6382 -0.1324
  457MOL0     C60217   8.322   4.283   9.106  0.2665 -0.1240 -0.8446
  457MOL0     C60218   8.291   4.314   8.975  0.2112  0.7845  0.3068
  457MOL0     C60219   8.162   4.374   8.953 -0.1590 -0.7875  0.0542
  457MOL0     C60220   8.067   4.384   9.055  0.7007 -0.1425  0.4806
  457MOL0     C60221   7.927   4.431   9.025 -0.4050  0.4651  0.3049
  457MOL0     O60222   7.851   4.470   9.133  0.0346 -0.2281  0.1922
  457MOL0     C60223   7.738   4.539   9.108  0.8009  0.4030  0.1007
  457MOL0     C60224   7.630   4.486   9.173 -0.2654 -0.2834  0.0277
  457MOL0     C60225   7.505   4.557   9.174 -0.1275  0.8884 -0.5687
  457MOL0     C60226   7.488   4.677   9.111 -0.0335 -0.2682 -0.1436
  457MOL0     O60227   7.369   4.744   9.086  0.1140  0.1144  0.2473
  457MOL0     C60228   7.242   4.680   9.122 -0.5954 -0.5976  0.1992
  457MOL0     C60229   7.141   4.781   9.059 -0.2944 -0.4759  0.1568
  457MOL0     C60230   7.008   4.712   9.045  0.7643 -0.1443 -0.5138
  457MOL0     C60231   6.895   4.807   8.990 -0.3154  0.8650  0.4830
  457MOL0     C60232   6.758   4.746   9.012  0.2208  0.1881  0.4273
  457MOL0     C60233   6.733   4.593   8.972  0.2609  0.0126 -0.0866
  457MOL0     C60234   6.590   4.549   9.007 -0.3780 -0.1593 -0.7222
  457MOL0     C60235   6.557   4.421   8.929 -0.3798 -0.0099  0.6753
  457MOL0    Cl60236   6.384   4.384   8.925  0.3501  0.1508 -0.2406
  457MOL0     C60237   7.601   4.728   9.052  0.1605 -1.5255 -0.5852
  457MOL0     C60238   7.728   4.669   9.058 -0.5388  0.2655 -0.4281
  457MOL0     O60239   7.889   4.435   8.908 -0.8697  0.1317 -0.4400
  457MOL0     C60240   8.091   4.360   9.189  0.0801 -0.5621 -0.3309
  457MOL0     C60241   8.227   4.311   9.213  0.3902  0.2322  0.4683
  457MOL0     N60242   9.014   4.345   8.798 -0.7923  1.1633 -0.3532
  457MOL0     N60243   9.054   4.280   8.694  0.5944  0.0611 -0.2148
  457MOL0     C60244   9.858   3.439   8.465 -0.6830  0.6623 -0.0099
  457MOL0     C60245   9.985   3.417   8.398 -0.3992  0.5944  1.0024
  457MOL0     C60246  10.436   3.484   8.289 -0.7834  0.2226  0.3614
  457MOL0     C60247  10.566   3.487   8.339 -0.8894  0.2415  0.0663
  457MOL0     C60248  10.685   3.491   8.256  1.1140  0.1190 -0.4648
  457MOL0     C60249  10.664   3.485   8.117 -0.3205 -0.3223  0.1540
  457MOL0     O60250  10.781   3.499   8.039  0.2062 -0.2673  0.1388
  457MOL0     C60251  10.759   3.481   7.905  0.5763  0.0401  1.3394
  457MOL0     C60252  10.896   3.489   7.838  0.4617 -0.0485  0.7826
  457MOL0     C60253  10.976   3.350   7.826 -0.7745  0.4583  0.2773
  457MOL0     C60254  11.029   3.287   7.958  0.5659 -1.0340 -0.7155
  457MOL0     C60255  11.050   3.144   7.933 -0.2782  0.0921  0.8024
  457MOL0     C60256  11.063   3.024   7.905 -0.1566 -0.7162 -0.0114
  457MOL0     C60257  10.532   3.474   8.067 -0.1440  0.6292 -0.7064
  457MOL0     C60258  10.423   3.469   8.150 -0.3866 -0.2447  0.3930
  457MOL0     H60259  10.123   3.729   8.467 -1.6960  1.1257 -1.8997
  457MOL0     H60260   9.920   3.751   8.583 -2.3652 -0.9795  1.2008
  457MOL0     H60261   9.638   3.716   8.440 -0.1051 -3.4421  0.0697
  457MOL0     H60262   9.683   3.780   8.599 -0.0228 -1.3851  1.6173
  457MOL0     H60263   9.494   3.635   8.705  0.7576 -0.3494  1.1069
  457MOL0     H60264   9.442   3.614   8.535 -0.3101  0.6347 -0.1037
  457MOL0     H60265   9.423   3.853   8.499 -0.9722 -1.9503 -0.9365
  457MOL0     H60266   9.480   3.880   8.673 -0.2191 -0.1247  0.5679
  457MOL0     H60267   9.251   3.696   8.631 -1.9680 -0.9433  2.1817
  457MOL0     H60268   9.282   3.802   8.768 -1.2018  2.6544 -0.8136
  457MOL0     H60269   9.198   3.903   8.488 -0.3231 -3.9008  0.7002
  457MOL0     H60270   9.222   3.997   8.647 -0.2922  1.0446 -0.6087
  457MOL0     H60271   9.043   3.892   8.750  1.7243 -0.4051 -0.4695
  457MOL0     H60272   9.026   3.767   8.635 -0.1872  0.5575  0.6494
  457MOL0     H60273   8.931   3.898   8.473  0.5138  0.1837  0.4885
  457MOL0     H60274   8.848   3.932   8.626 -1.2252 -2.8886 -1.7694
  457MOL0     H60275   8.897   4.137   8.478  2.1679  2.4331 -0.7895
  457MOL0     H60276   9.065   4.111   8.497 -1.1947  1.5888 -1.9550
  457MOL0     H60277   8.807   4.089   8.790  0.3905 -1.8517  0.9761
  457MOL0     H60278   8.915   4.392   9.042  1.1818 -0.4877 -0.8599
  457MOL0     H60279   8.834   4.239   9.055 -0.6781  0.5424 -0.0941
  457MOL0     H60280   8.673   4.361   8.859 -2.4200 -0.0739  1.1275
  457MOL0     H60281   8.750   4.495   8.939  0.0022  0.5534  2.6303
  457MOL0     H60282   8.660   4.410   9.153  5.7478 -2.3627 -1.4003
  457MOL0     H60283   8.534   4.452   9.033 -1.7646 -1.0166  0.2075
  457MOL0     H60284   8.637   4.175   9.114 -3.1245 -2.0909  1.0835
  457MOL0     H60285   8.558   4.197   8.962  2.9384  1.9552 -1.0879
  457MOL0     H60286   8.361   4.290   8.896  1.8255  2.5128  1.1232
  457MOL0     H60287   8.140   4.388   8.847  2.6244 -1.1789 -0.6787
  457MOL0     H60288   7.645   4.392   9.226  0.5682 -1.7566 -2.5926
  457MOL0     H60289   7.424   4.500   9.219 -1.0419  0.3446 -2.8160
  457MOL0     H60290   7.230   4.671   9.231  2.3077 -1.1412  0.5592
  457MOL0     H60291   7.231   4.583   9.073  0.1858 -0.2387 -0.7189
  457MOL0     H60292   7.174   4.815   8.960 -0.0260  1.0727  0.7490
  457MOL0     H60293   7.126   4.870   9.120 -1.1212 -0.8464  0.5126
  457MOL0     H60294   6.984   4.692   9.150  0.3246  3.9571  0.3120
  457MOL0     H60295   7.020   4.624   8.980 -2.3489 -0.3697 -0.9235
  457MOL0     H60296   6.899   4.900   9.048 -0.2700  0.4809  1.0968
  457MOL0     H60297   6.909   4.836   8.885 -1.3718  0.6078  0.2584
  457MOL0     H60298   6.687   4.801   8.949  0.7283 -2.9319 -3.2670
  457MOL0     H60299   6.728   4.753   9.116 -0.8557 -0.3082  0.1613
  457MOL0     H60300   6.791   4.518   9.026 -2.7524 -2.0877  0.4720
  457MOL0     H60301   6.738   4.580   8.864  1.1872 -0.6226  0.0186
  457MOL0     H60302   6.579   4.530   9.114 -2.9669 -0.8011 -1.0233
  457MOL0     H60303   6.521   4.627   8.972 -0.5026  0.5648  1.0549
  457MOL0     H60304   6.618   4.335   8.959  3.8634  1.6732 -2.1774
  457MOL0     H60305   6.593   4.438   8.827 -1.1417  0.0154  0.4071
  457MOL0     H60306   7.577   4.814   8.992 -2.1175 -0.7107  1.3132
  457MOL0     H60307   7.820   4.703   9.012 -0.2829  0.4331  0.1949
  457MOL0     H60308   8.023   4.377   9.272  0.8753  3.6626 -0.3329
  457MOL0     H60309   8.249   4.291   9.317  0.1884 -3.6906 -0.0864
  457MOL0     H60310   9.775   3.369   8.457 -0.5152  0.4772 -0.1693
  457MOL0     H60311   9.996   3.319   8.352 -2.0530  0.5245  0.6792
  457MOL0     H60312  10.585   3.490   8.446  2.6647  0.7804 -0.4267
  457MOL0     H60313  10.781   3.502   8.306  0.3691  1.1717  0.7970
  457MOL0     H60314  10.708   3.567   7.860 -0.2003 -1.6270 -1.1955
  457MOL0     H60315  10.704   3.389   7.882 -1.9775  1.8742 -0.5238
  457MOL0     H60316  10.878   3.526   7.736  1.1507  2.6482  1.5846
  457MOL0     H60317  10.962   3.561   7.887 -0.6097  0.4973  1.4425
  457MOL0     H60318  11.056   3.364   7.754 -0.3587 -3.5480 -0.2409
  457MOL0     H60319  10.910   3.287   7.766  0.3827  0.3377 -0.9103
  457MOL0     H60320  11.122   3.335   7.988  1.3664 -2.8887 -0.0949
  457MOL0     H60321  10.960   3.290   8.042 -1.3017 -2.0672 -2.1252
  457MOL0     H60322  11.079   2.923   7.873  0.3826 -0.8597  0.6866
  457MOL0     H60323  10.506   3.465   7.961 -2.0195  1.2356 -0.3458
  457MOL0     H60324  10.323   3.465   8.106 -0.7161 -0.2625  1.1268
  458MOL0     O60325   1.086   0.538   2.417 -0.7235 -0.3506  0.5068
  458MOL0     C60326   1.169   0.635   2.420  0.0123  0.0456 -0.1336
  458MOL0     O60327   1.143   0.776   2.420  0.5213  0.1443 -0.3632
  458MOL0     C60328   1.020   0.833   2.418  0.7138 -0.0969  0.1238
  458MOL0     C60329   0.901   0.780   2.465  0.2133  0.2864  1.1747
  458MOL0     C60330   0.780   0.846   2.457  0.2943  0.5456 -1.2162
  458MOL0     C60331   0.783   0.974   2.401 -0.3378  0.1015  0.3401
  458MOL0     O60332   0.667   1.049   2.384 -0.7453 -0.0668  0.0726
  458MOL0     C60333   0.543   0.983   2.418 -0.3029  0.3846  0.1092
  458MOL0     C60334   0.434   1.083   2.404 -0.5155  0.2833 -0.9128
  458MOL0     C60335   0.289   1.034   2.405  0.6808  0.2990  0.4787
  458MOL0     C60336   0.203   1.157   2.395 -0.2294 -0.4049 -0.0301
  458MOL0     C60337   0.052   1.127   2.414  0.1172  0.5318 -0.1257
  458MOL0     C60338  -0.049   1.221   2.357 -0.2820 -0.2415  0.0676
  458MOL0     C60339  -0.074   1.221   2.211  0.4065  0.0313  0.9687
  458MOL0     C60340  -0.123   1.363   2.161  0.1025  0.8469  0.0913
  458MOL0     N60341  -0.249   1.400   2.229 -0.4419 -0.0720  0.3613
  458MOL0     C60342  -0.369   1.321   2.228  0.2506 -0.8382 -0.1268
  458MOL0     C60343  -0.432   1.375   2.332 -0.3817 -0.2830  0.0011
  458MOL0     C60344  -0.558   1.317   2.389  0.1296  0.4967 -0.3164
  458MOL0     C60345  -0.691   1.333   2.319  1.2274  0.2303 -0.2094
  458MOL0     C60346  -0.730   1.205   2.247 -0.7754 -0.2701  0.1873
  458MOL0     C60347  -0.821   1.218   2.132 -0.9126  0.1338  0.6088
  458MOL0     O60348  -0.930   1.312   2.155 -0.1676 -0.0909 -0.1335
  458MOL0     C60349  -1.037   1.279   2.234 -0.0682  0.1254  0.1524
  458MOL0     C60350  -1.064   1.147   2.283  0.4201 -0.2163 -0.0313
  458MOL0     C60351  -1.192   1.110   2.321 -0.3566  0.1488 -0.1218
  458MOL0     C60352  -1.294   1.212   2.325 -0.1600  0.7388 -0.0551
  458MOL0     C60353  -1.435   1.167   2.345  0.3313  0.6402  0.5308
  458MOL0     O60354  -1.526   1.261   2.384  0.7250 -0.8814 -0.0601
  458MOL0     C60355  -1.662   1.243   2.366  0.0367  1.0172  0.0231
  458MOL0     C60356  -1.742   1.222   2.483  0.6729  0.2302  0.5183
  458MOL0     C60357  -1.875   1.187   2.469  0.1569  0.0309  0.0572
  458MOL0     C60358  -1.935   1.193   2.339  0.6398  0.4209 -1.1251
  458MOL0     O60359  -2.073   1.193   2.318 -0.0120  0.5061  0.1843
  458MOL0     C60360  -2.144   1.114   2.412  0.5866 -0.0394 -0.2679
  458MOL0     C60361  -2.279   1.072   2.360  0.1655  0.4237 -0.1065
  458MOL0     C60362  -2.374   1.191   2.368 -0.4665  0.4195 -0.5992
  458MOL0     C60363  -2.511   1.178   2.305  0.1369 -0.3686 -1.0499
  458MOL0     C60364  -2.628   1.128   2.390 -0.2619  0.1484 -0.3118
  458MOL0     C60365  -2.763   1.108   2.312  0.2126  0.1139 -1.0176
  458MOL0     C60366  -2.858   1.007   2.374 -0.3329  0.3141  0.0298
  458MOL0     C60367  -2.893   1.028   2.521  0.1643  0.4345 -0.4016
  458MOL0    Cl60368  -3.014   0.900   2.569 -0.2550 -0.0450  0.2459
  458MOL0     C60369  -1.861   1.225   2.231  0.0679  0.2045  0.6823
  458MOL0     C60370  -1.730   1.257   2.242 -0.8913 -0.5098  0.1514
  458MOL0     O60371  -1.460   1.053   2.315  0.2235  0.6618 -0.0946
  458MOL0     C60372  -1.260   1.339   2.294  0.1206 -0.4379 -0.1682
  458MOL0     C60373  -1.135   1.376   2.257 -1.8330 -0.1599 -0.0143
  458MOL0     N60374  -0.363   1.468   2.402  0.4282 -0.9154 -0.5374
  458MOL0     N60375  -0.261   1.490   2.332  0.5970  0.1467  0.1366
  458MOL0     C60376   0.896   1.035   2.362 -0.5316 -0.3879  0.4068
  458MOL0     C60377   1.019   0.970   2.378  0.0644 -0.5601 -0.1619
  458MOL0     C60378   1.312   0.591   2.422  0.2071 -0.6048  0.2514
  458MOL0     C60379   1.407   0.697   2.434 -0.1951 -0.0804 -0.1788
  458MOL0     C60380   1.546   0.665   2.453  0.9562 -0.4761  0.8890
  458MOL0     C60381   1.590   0.534   2.451  0.2817  0.5771  0.2075
  458MOL0     O60382   1.730   0.513   2.453 -0.0380 -0.2242  0.0164
  458MOL0     C60383   1.804   0.554   2.342  0.0878  0.2277 -0.1693
  458MOL0     C60384   1.946   0.494   2.333 -0.1374 -0.3014 -0.1162
  458MOL0     C60385   2.024   0.518   2.475  0.8987  0.0843 -0.1263
  458MOL0     C60386   2.166   0.474   2.472  0.2280 -0.2534  0.3156
  458MOL0     C60387   2.220   0.419   2.594 -0.8656 -0.2412  0.4913
  458MOL0     C60388   2.270   0.358   2.681 -0.0250  1.0356  0.5790
  458MOL0     C60389   1.494   0.426   2.432  0.1435  0.0064  0.4311
  458MOL0     C60390   1.355   0.459   2.421 -0.3478  0.1709 -0.6083
  458MOL0     H60391   0.909   0.684   2.514  1.8674  1.1841  2.8023
  458MOL0     H60392   0.693   0.802   2.505 -1.1880  4.5914  0.2368
  458MOL0     H60393   0.544   0.953   2.523 -0.0199 -0.4070 -0.1190
  458MOL0     H60394   0.514   0.901   2.352 -1.7383  1.1454 -0.2557
  458MOL0     H60395   0.463   1.138   2.314  1.7794 -0.3879 -0.6437
  458MOL0     H60396   0.444   1.159   2.482  1.0934 -0.0763 -0.7360
  458MOL0     H60397   0.278   0.989   2.504  3.3257  0.4953  0.9585
  458MOL0     H60398   0.266   0.969   2.320  0.5774  2.8692 -1.5647
  458MOL0     H60399   0.238   1.220   2.478 -0.2281 -2.3441  1.5400
  458MOL0     H60400   0.217   1.215   2.303  2.3393 -2.3849 -1.0183
  458MOL0     H60401   0.045   1.111   2.522  0.0083 -1.2641 -0.3697
  458MOL0     H60402   0.038   1.025   2.376  2.2541 -0.0429  0.4642
  458MOL0     H60403  -0.006   1.321   2.372  0.7013 -0.5228 -0.7847
  458MOL0     H60404  -0.144   1.206   2.410 -0.1603 -0.3803  0.2462
  458MOL0     H60405   0.023   1.193   2.167 -0.3447 -2.4784  0.7675
  458MOL0     H60406  -0.137   1.138   2.180  3.0118 -1.3310 -1.0788
  458MOL0     H60407  -0.152   1.362   2.055 -2.0899 -2.0343  0.5923
  458MOL0     H60408  -0.040   1.429   2.185  0.7190 -0.3234  1.2708
  458MOL0     H60409  -0.408   1.238   2.171 -0.9209 -0.9240  0.7728
  458MOL0     H60410  -0.569   1.360   2.489  1.4203 -0.4444  0.2545
  458MOL0     H60411  -0.541   1.212   2.414 -1.3220  0.0007 -1.2319
  458MOL0     H60412  -0.699   1.422   2.256  0.3511 -0.2590 -0.8212
  458MOL0     H60413  -0.767   1.341   2.396  1.4345 -1.7054  0.2384
  458MOL0     H60414  -0.642   1.147   2.217 -2.3218 -1.7897 -1.6653
  458MOL0     H60415  -0.769   1.138   2.323 -1.0803  0.4672  0.6826
  458MOL0     H60416  -0.851   1.122   2.088  1.4038  1.0412 -3.4653
  458MOL0     H60417  -0.752   1.266   2.062  0.7255 -3.1379 -0.2352
  458MOL0     H60418  -0.989   1.069   2.276  0.7667  0.2655 -3.6739
  458MOL0     H60419  -1.199   1.003   2.339  0.9706 -0.4906 -2.8404
  458MOL0     H60420  -1.695   1.232   2.581  3.0226  3.1499 -0.7614
  458MOL0     H60421  -1.940   1.159   2.552 -0.1426 -1.1133 -0.5389
  458MOL0     H60422  -2.157   1.161   2.510  1.3862 -0.7056  0.1704
  458MOL0     H60423  -2.082   1.026   2.432 -1.5936 -0.8053  4.3640
  458MOL0     H60424  -2.315   0.985   2.416 -0.4100 -0.4406 -1.7474
  458MOL0     H60425  -2.271   1.035   2.257 -0.8537  1.3245 -0.5203
  458MOL0     H60426  -2.336   1.277   2.312 -2.9532  0.9954 -1.5041
  458MOL0     H60427  -2.378   1.221   2.473  0.2074 -0.0419 -0.4358
  458MOL0     H60428  -2.545   1.279   2.280 -1.0182 -1.0864 -2.4694
  458MOL0     H60429  -2.499   1.125   2.210  1.4727  0.4283 -1.3568
  458MOL0     H60430  -2.634   1.197   2.474 -0.5902  1.4783 -1.3802
  458MOL0     H60431  -2.594   1.031   2.427  2.2917  2.1619  3.0917
  458MOL0     H60432  -2.733   1.066   2.216 -1.2798  0.5067 -1.6902
  458MOL0     H60433  -2.818   1.202   2.303 -1.0872 -0.4447  0.4961
  458MOL0     H60434  -2.954   1.013   2.322 -1.5412  1.5828  2.2354
  458MOL0     H60435  -2.824   0.903   2.374 -0.9233  0.0307  2.9144
  458MOL0     H60436  -2.930   1.131   2.527  0.6109  0.6931 -1.8491
  458MOL0     H60437  -2.813   1.019   2.596  0.7991 -0.6067 -1.1841
  458MOL0     H60438  -1.914   1.235   2.137 -0.4184 -1.4901  0.7442
  458MOL0     H60439  -1.672   1.276   2.152 -0.9145  1.5264  0.5084
  458MOL0     H60440  -1.340   1.412   2.293 -0.8705 -1.4814 -1.5045
  458MOL0     H60441  -1.099   1.474   2.226  5.1758 -2.5083 -1.0565
  458MOL0     H60442   0.891   1.136   2.325  1.5162  1.1033  3.6863
  458MOL0     H60443   1.103   1.033   2.348 -0.6722 -0.0002 -1.1144
  458MOL0     H60444   1.375   0.800   2.449 -4.4522 -1.5450  2.9795
  458MOL0     H60445   1.626   0.737   2.447  0.7856 -0.4086 -2.9705
  458MOL0     H60446   1.810   0.663   2.351  1.1446  0.0820  1.2643
  458MOL0     H60447   1.754   0.531   2.248 -0.3865  1.7909 -0.3351
  458MOL0     H60448   1.937   0.390   2.302 -0.1379 -0.0562 -0.9596
  458MOL0     H60449   2.003   0.543   2.253 -0.0892 -0.0681  0.0587
  458MOL0     H60450   1.971   0.463   2.553 -2.5615  1.2443 -1.4169
  458MOL0     H60451   2.013   0.623   2.503  1.1966  0.3262 -0.8847
  458MOL0     H60452   2.179   0.389   2.405 -0.3537 -1.4318  1.6459
  458MOL0     H60453   2.228   0.546   2.417 -1.9278 -0.3982 -2.4936
  458MOL0     H60454   2.311   0.287   2.749 -1.7437  0.1723  0.7727
  458MOL0     H60455   1.530   0.324   2.420  0.9872  0.4834 -1.2860
  458MOL0     H60456   1.291   0.378   2.389  2.6790 -2.4003 -0.7309
  459MOL0     O60457   3.993   4.017   6.170  0.4783 -0.1078 -0.1849
  459MOL0     C60458   4.072   4.105   6.129  0.1013 -0.1092  0.4169
  459MOL0     O60459   4.051   4.187   6.020 -0.1639 -0.5257  0.9163
  459MOL0     C60460   3.935   4.187   5.939 -0.6412  0.0729  0.0476
  459MOL0     C60461   3.818   4.231   5.995 -0.4876  0.0334  0.0304
  459MOL0     C60462   3.697   4.231   5.926 -0.1487  0.5962  0.9384
  459MOL0     C60463   3.686   4.177   5.796  0.0036  0.4334 -0.3026
  459MOL0     O60464   3.577   4.153   5.720 -0.2047  0.5430  0.2576
  459MOL0     C60465   3.446   4.144   5.785 -0.2898  0.2719  0.2200
  459MOL0     C60466   3.326   4.119   5.686 -0.3521 -0.2431  0.1651
  459MOL0     C60467   3.195   4.198   5.721  0.3579 -0.1385  0.1435
  459MOL0     C60468   3.094   4.201   5.602  0.1936  0.1373 -0.2856
  459MOL0     C60469   2.952   4.242   5.651 -0.2796 -0.4444  0.4631
  459MOL0     C60470   2.853   4.255   5.540 -0.5496  0.5880 -0.0092
  459MOL0     C60471   2.722   4.265   5.601  0.5843 -0.6796 -0.1914
  459MOL0     C60472   2.623   4.174   5.516  0.0270 -0.5061 -1.1158
  459MOL0     N60473   2.593   4.231   5.383  0.0479  0.5822  0.7935
  459MOL0     C60474   2.666   4.196   5.272  0.0285  0.1168  0.6012
  459MOL0     C60475   2.609   4.271   5.174  0.1130 -0.0751  0.9569
  459MOL0     C60476   2.646   4.260   5.025  0.1902 -0.2593  0.5409
  459MOL0     C60477   2.733   4.385   4.987 -0.4108 -0.6534 -0.3973
  459MOL0     C60478   2.768   4.385   4.839 -0.0360 -0.0238  0.3869
  459MOL0     C60479   2.812   4.524   4.787  0.4055  0.2455  0.2344
  459MOL0     O60480   2.871   4.526   4.655  0.2066 -0.4974 -0.2139
  459MOL0     C60481   2.795   4.470   4.549 -0.3234 -0.7480 -0.4431
  459MOL0     C60482   2.830   4.345   4.501  0.3082 -0.6589 -0.8399
  459MOL0     C60483   2.759   4.292   4.396 -0.5971 -0.4390  0.0815
  459MOL0     C60484   2.651   4.355   4.337 -0.2346  0.2220  0.1641
  459MOL0     C60485   2.563   4.291   4.234  0.4614 -0.5650  0.4262
  459MOL0     O60486   2.442   4.353   4.201 -0.1301 -0.2477  0.5392
  459MOL0     C60487   2.347   4.289   4.124 -0.0145  0.0576 -0.1278
  459MOL0     C60488   2.364   4.186   4.032  0.3292  0.0315  0.2642
  459MOL0     C60489   2.253   4.115   3.973 -0.4105 -0.2873  0.2751
  459MOL0     C60490   2.123   4.163   3.994 -0.0114 -0.6690 -0.5936
  459MOL0     O60491   2.021   4.095   3.930 -0.1902  0.0543  0.4471
  459MOL0     C60492   1.913   4.052   4.010  0.1240 -0.2810  0.0054
  459MOL0     C60493   1.825   3.965   3.912  0.3745  0.8917 -0.2110
  459MOL0     C60494   1.703   3.922   3.999 -0.0694  0.6211 -0.1440
  459MOL0     C60495   1.612   3.869   3.890  0.3025  0.1376  0.4363
  459MOL0     C60496   1.487   3.808   3.948  0.3520  0.4293  0.5140
  459MOL0     C60497   1.361   3.852   3.893 -0.0150  1.1486  0.8413
  459MOL0     C60498   1.239   3.802   3.978  0.1878  0.1812 -0.4557
  459MOL0     C60499   1.107   3.805   3.903 -0.4386 -0.3643 -0.2791
  459MOL0    Cl60500   1.110   3.958   3.800  0.0492 -0.3253 -0.2185
  459MOL0     C60501   2.105   4.284   4.071 -0.3586  0.2903 -0.5210
  459MOL0     C60502   2.218   4.342   4.134  0.1043 -0.4445 -0.0819
  459MOL0     O60503   2.597   4.179   4.195 -0.5444  0.2408  0.3324
  459MOL0     C60504   2.626   4.481   4.379  0.0486 -0.2204 -0.7190
  459MOL0     C60505   2.692   4.537   4.486  0.0017 -0.0236 -1.4328
  459MOL0     N60506   2.499   4.339   5.230 -0.3354  0.7019  0.5961
  459MOL0     N60507   2.496   4.321   5.354 -0.9826 -0.2305 -0.4002
  459MOL0     C60508   3.804   4.135   5.739  0.1421 -0.8405 -0.1795
  459MOL0     C60509   3.923   4.129   5.813  0.6893  0.0839  0.2647
  459MOL0     C60510   4.207   4.106   6.196 -1.0083  0.0894  0.3947
  459MOL0     C60511   4.252   3.989   6.274  0.6198 -0.3863 -0.5477
  459MOL0     C60512   4.382   3.981   6.325 -0.2401  0.1383 -0.0671
  459MOL0     C60513   4.465   4.096   6.307 -0.6051 -1.4283 -0.3753
  459MOL0     O60514   4.586   4.118   6.374 -0.1405  0.0182  0.1725
  459MOL0     C60515   4.630   4.015   6.463  0.2572 -0.0351  0.0168
  459MOL0     C60516   4.773   4.058   6.497  0.1423 -0.2614  0.8347
  459MOL0     C60517   4.777   4.169   6.607  0.2612 -0.2336  0.6115
  459MOL0     C60518   4.918   4.235   6.620 -0.7526  0.4525  0.7496
  459MOL0     C60519   4.994   4.139   6.697 -0.2627 -0.1944  0.3120
  459MOL0     C60520   5.052   4.053   6.760 -0.2242  0.0183 -0.3168
  459MOL0     C60521   4.433   4.207   6.221  0.1685 -0.1458  0.3729
  459MOL0     C60522   4.299   4.209   6.171  0.2439  0.1780 -0.1908
  459MOL0     H60523   3.811   4.269   6.096  0.2947 -0.9836  0.4800
  459MOL0     H60524   3.602   4.270   5.960 -1.9823 -2.7203  0.0658
  459MOL0     H60525   3.436   4.233   5.848 -0.3854 -0.6329  1.5246
  459MOL0     H60526   3.443   4.068   5.863 -4.7150  0.0223  0.0563
  459MOL0     H60527   3.311   4.011   5.693  0.8681 -0.4557 -0.1762
  459MOL0     H60528   3.371   4.138   5.588 -1.0238 -3.4373 -0.8766
  459MOL0     H60529   3.221   4.300   5.752 -2.7344  0.9343 -0.3961
  459MOL0     H60530   3.151   4.140   5.802  0.0312 -0.6909 -0.4149
  459MOL0     H60531   3.133   4.264   5.522  2.3021 -2.4727 -1.4782
  459MOL0     H60532   3.087   4.102   5.557  0.1581 -0.1097  0.2457
  459MOL0     H60533   2.958   4.341   5.699  3.0150  0.7353 -2.0085
  459MOL0     H60534   2.929   4.158   5.717 -1.1109 -1.6923 -1.3463
  459MOL0     H60535   2.867   4.169   5.474 -2.2412 -0.3990  0.8497
  459MOL0     H60536   2.878   4.344   5.481  2.3473  1.8212  2.7779
  459MOL0     H60537   2.714   4.229   5.704  3.6764  0.4520  0.5311
  459MOL0     H60538   2.697   4.371   5.608  0.7128 -0.6919  0.5379
  459MOL0     H60539   2.528   4.169   5.571  0.9075 -1.3838  0.4038
  459MOL0     H60540   2.653   4.069   5.514  1.1841 -0.2070 -0.3428
  459MOL0     H60541   2.760   4.142   5.273 -0.2488 -0.3866  0.3362
  459MOL0     H60542   2.561   4.254   4.957  0.1840 -1.4119  0.6258
  459MOL0     H60543   2.707   4.170   5.009  1.3096  0.7458 -1.0982
  459MOL0     H60544   2.823   4.389   5.049 -1.1005 -0.9937  0.6408
  459MOL0     H60545   2.669   4.473   4.997  1.0923  0.3586  0.7515
  459MOL0     H60546   2.834   4.300   4.821 -0.1277 -0.2325  1.0066
  459MOL0     H60547   2.682   4.352   4.780 -0.8034  0.5218  1.1710
  459MOL0     H60548   2.880   4.568   4.861  0.0835  1.0939  0.0414
  459MOL0     H60549   2.723   4.587   4.794  0.0127 -0.3629  0.8885
  459MOL0     H60550   2.924   4.304   4.535  0.3402 -1.2898 -1.6543
  459MOL0     H60551   2.780   4.194   4.352 -4.4085 -1.3929  0.0244
  459MOL0     H60552   2.462   4.142   4.016 -0.3147 -1.1330 -0.6825
  459MOL0     H60553   2.266   4.031   3.905 -0.9263 -1.7855  1.9605
  459MOL0     H60554   1.848   4.127   4.056 -1.7480 -1.7376 -0.1337
  459MOL0     H60555   1.942   3.983   4.089  0.7449  0.2469  0.2463
  459MOL0     H60556   1.881   3.875   3.883 -2.1328 -0.0480 -2.5718
  459MOL0     H60557   1.806   4.014   3.816  4.7340 -1.2269 -2.4960
  459MOL0     H60558   1.649   4.002   4.050  0.5340 -0.0309  1.5990
  459MOL0     H60559   1.730   3.855   4.081 -3.0808  0.2658  0.6670
  459MOL0     H60560   1.595   3.949   3.818  0.4030 -2.1765 -2.3299
  459MOL0     H60561   1.663   3.794   3.830  2.6494  2.5961 -0.8185
  459MOL0     H60562   1.489   3.809   4.058 -0.5651 -2.2404  0.6354
  459MOL0     H60563   1.498   3.701   3.928 -1.2466 -0.1299  2.2636
  459MOL0     H60564   1.349   3.810   3.793  1.9614 -0.2550  1.1508
  459MOL0     H60565   1.359   3.961   3.888 -0.1002  1.1063 -3.0981
  459MOL0     H60566   1.249   3.698   4.011 -3.9645 -0.7786 -1.6647
  459MOL0     H60567   1.222   3.869   4.063 -1.5721 -0.8093  0.0201
  459MOL0     H60568   1.013   3.801   3.959 -1.4134 -1.8064 -1.9325
  459MOL0     H60569   1.090   3.719   3.837 -2.3986 -1.4860  1.5536
  459MOL0     H60570   2.005   4.323   4.088  0.1803  1.2322  0.6011
  459MOL0     H60571   2.206   4.427   4.201 -0.4574 -1.4792  1.1823
  459MOL0     H60572   2.532   4.528   4.352  0.5210  1.0011 -0.3060
  459MOL0     H60573   2.655   4.630   4.528 -0.8004 -0.6336 -0.7555
  459MOL0     H60574   3.803   4.102   5.636  2.3273  1.6338 -1.1262
  459MOL0     H60575   4.009   4.080   5.768 -0.5151 -1.9134 -0.0058
  459MOL0     H60576   4.184   3.908   6.295  0.6909  0.2600  2.6950
  459MOL0     H60577   4.421   3.898   6.384  0.7104 -0.0488 -0.9283
  459MOL0     H60578   4.636   3.917   6.414 -0.5197 -0.8837  1.5294
  459MOL0     H60579   4.565   4.011   6.551  1.1966  1.1440  0.8007
  459MOL0     H60580   4.819   3.968   6.538 -1.6931 -0.5382  2.4930
  459MOL0     H60581   4.825   4.092   6.407  1.1441 -1.0831  1.0890
  459MOL0     H60582   4.738   4.129   6.701 -1.1866 -1.6621 -0.5490
  459MOL0     H60583   4.708   4.249   6.580  1.5941  1.3763  1.7127
  459MOL0     H60584   4.961   4.266   6.525  1.0300 -1.4085  0.9002
  459MOL0     H60585   4.904   4.325   6.681 -1.3541  0.5483  0.4851
  459MOL0     H60586   5.102   3.974   6.812  0.2285  0.1914 -0.4852
  459MOL0     H60587   4.512   4.277   6.197 -0.4852 -0.0753 -1.8050
  459MOL0     H60588   4.282   4.294   6.106 -0.4723 -0.3549 -0.7160
  460MOL0     O60589   2.156   1.155   4.495 -0.3877  0.7094 -0.2368
  460MOL0     C60590   2.248   1.214   4.546 -0.4520  0.3808 -1.0547
  460MOL0     O60591   2.252   1.242   4.674 -0.6700  0.4812  0.3967
  460MOL0     C60592   2.148   1.216   4.764 -0.4751  0.3836 -0.2958
  460MOL0     C60593   2.010   1.228   4.734 -0.8212  0.5592  0.1081
  460MOL0     C60594   1.918   1.200   4.830 -0.4741  0.5530  0.2486
  460MOL0     C60595   1.960   1.157   4.955 -0.6605 -1.1189 -0.5798
  460MOL0     O60596   1.850   1.129   5.032  0.2828  0.5218  0.0166
  460MOL0     C60597   1.868   1.113   5.171  0.1094 -1.2465 -0.6860
  460MOL0     C60598   1.737   1.067   5.226 -0.6605  0.2544 -1.0910
  460MOL0     C60599   1.692   0.929   5.183 -0.0229  0.0433  0.0679
  460MOL0     C60600   1.548   0.921   5.242  0.2035 -0.1355 -0.2618
  460MOL0     C60601   1.493   0.785   5.204  0.3477 -0.4888  0.4965
  460MOL0     C60602   1.350   0.770   5.236 -0.7615 -0.9399 -0.5204
  460MOL0     C60603   1.293   0.635   5.205  0.5817  0.3449 -0.1374
  460MOL0     C60604   1.192   0.601   5.322  0.0085 -1.0878 -0.4207
  460MOL0     N60605   1.070   0.543   5.289  0.0042 -0.8876  0.4653
  460MOL0     C60606   0.981   0.592   5.192  0.4054  0.4168 -0.4210
  460MOL0     C60607   0.875   0.511   5.205 -0.8013 -0.9345  0.3236
  460MOL0     C60608   0.759   0.519   5.118  0.4379 -0.2311 -0.6783
  460MOL0     C60609   0.662   0.622   5.182  0.4710  1.0537 -0.1039
  460MOL0     C60610   0.522   0.595   5.132 -0.1537 -0.0749  1.1388
  460MOL0     C60611   0.526   0.653   4.990 -0.0128  0.0707  0.0367
  460MOL0     O60612   0.413   0.596   4.922 -0.3604 -0.3910 -0.0675
  460MOL0     C60613   0.290   0.616   4.968  0.3557 -0.3848  0.2392
  460MOL0     C60614   0.243   0.752   5.000 -0.0438  0.1671 -0.9765
  460MOL0     C60615   0.111   0.772   5.035  0.7446 -0.1128  0.3364
  460MOL0     C60616   0.018   0.667   5.032  0.5602 -0.0156 -0.5235
  460MOL0     C60617  -0.118   0.684   5.069 -0.0801 -0.0165 -0.5336
  460MOL0     O60618  -0.192   0.569   5.080 -0.3210  0.7338  0.4626
  460MOL0     C60619  -0.312   0.595   5.130  0.8962  0.5184 -0.3219
  460MOL0     C60620  -0.327   0.634   5.270 -0.5541 -0.2289 -0.0989
  460MOL0     C60621  -0.453   0.674   5.319  0.2560 -0.2423  0.3710
  460MOL0     C60622  -0.573   0.674   5.246 -0.2835 -0.1647 -0.3364
  460MOL0     O60623  -0.695   0.723   5.296 -0.1226  0.5765 -0.0382
  460MOL0     C60624  -0.698   0.802   5.410 -0.2243 -0.3137  0.2105
  460MOL0     C60625  -0.845   0.838   5.445 -0.2867 -0.4474 -0.3719
  460MOL0     C60626  -0.903   0.953   5.363  0.2789 -0.0056 -0.3640
  460MOL0     C60627  -0.939   0.901   5.219 -0.0275  0.5841 -0.8642
  460MOL0     C60628  -1.018   1.006   5.152  1.1160 -0.5280 -0.1103
  460MOL0     C60629  -1.031   0.955   5.009  0.2594  0.7605 -0.2099
  460MOL0     C60630  -1.115   1.050   4.923  0.1455 -0.4415  0.8766
  460MOL0     C60631  -1.139   0.994   4.785 -0.3610  0.4149 -1.1280
  460MOL0    Cl60632  -0.981   0.984   4.701  0.3142  0.0619 -0.2008
  460MOL0     C60633  -0.564   0.621   5.117 -0.7674 -0.2803 -0.1823
  460MOL0     C60634  -0.437   0.582   5.062 -0.7335  0.6007  0.3085
  460MOL0     O60635  -0.153   0.794   5.103  0.0685 -0.4662 -0.2554
  460MOL0     C60636   0.062   0.538   4.990  0.2901 -0.4108  0.5239
  460MOL0     C60637   0.198   0.518   4.959 -0.5107  0.8637 -0.7318
  460MOL0     N60638   0.896   0.411   5.298  0.1548 -0.7280  0.4387
  460MOL0     N60639   1.014   0.430   5.338  0.0291 -0.4060 -0.6172
  460MOL0     C60640   2.097   1.129   4.985 -0.2561 -0.5368  0.2733
  460MOL0     C60641   2.191   1.161   4.887  0.4997  0.4345 -0.2393
  460MOL0     C60642   2.353   1.268   4.459 -0.2665  0.2496  0.5139
  460MOL0     C60643   2.346   1.239   4.326 -0.8662  0.3894  0.3015
  460MOL0     C60644   2.445   1.293   4.238  0.4060 -0.8474 -0.2065
  460MOL0     C60645   2.549   1.370   4.282 -0.4476  0.3471 -0.0547
  460MOL0     O60646   2.649   1.416   4.193  0.3443  0.0985  0.2363
  460MOL0     C60647   2.705   1.542   4.213 -0.1671 -0.4760  0.4037
  460MOL0     C60648   2.812   1.569   4.109  0.3623 -0.1275  0.2036
  460MOL0     C60649   2.761   1.543   3.961 -0.7927 -0.6255 -0.2693
  460MOL0     C60650   2.874   1.596   3.860  0.7660 -0.8000 -0.6344
  460MOL0     C60651   2.993   1.506   3.873 -0.2122 -0.6808 -0.0598
  460MOL0     C60652   3.084   1.440   3.910  0.1694  0.5257 -0.8647
  460MOL0     C60653   2.557   1.393   4.420 -0.0550 -0.3662  0.1495
  460MOL0     C60654   2.459   1.346   4.511  0.4403 -0.2446  0.0928
  460MOL0     H60655   1.981   1.269   4.638  2.1927 -1.5975 -1.9063
  460MOL0     H60656   1.812   1.210   4.806 -0.3888  2.7410  0.5349
  460MOL0     H60657   1.884   1.213   5.212  0.3257 -1.2907 -0.6572
  460MOL0     H60658   1.957   1.057   5.203  0.7437 -0.7957 -1.6382
  460MOL0     H60659   1.672   1.147   5.190  2.5733  2.1291 -3.2716
  460MOL0     H60660   1.748   1.055   5.334  0.4261 -1.9977 -1.3935
  460MOL0     H60661   1.755   0.844   5.211 -0.3087 -0.6240 -1.2175
  460MOL0     H60662   1.682   0.930   5.074 -0.6705  0.9258  0.1238
  460MOL0     H60663   1.555   0.929   5.351  0.3645  0.1812 -0.2942
  460MOL0     H60664   1.478   0.996   5.203 -1.5214 -1.5170  0.0394
  460MOL0     H60665   1.548   0.703   5.252 -0.9742 -1.6422  0.0916
  460MOL0     H60666   1.508   0.770   5.096 -0.2807 -3.7024  0.7674
  460MOL0     H60667   1.292   0.847   5.184  0.7667  1.0870  0.6397
  460MOL0     H60668   1.343   0.798   5.342 -5.0248 -0.0413 -0.8303
  460MOL0     H60669   1.238   0.637   5.110 -2.3080  0.8460  1.4245
  460MOL0     H60670   1.382   0.573   5.195  0.8297  0.6201  0.3525
  460MOL0     H60671   1.174   0.690   5.383 -0.4627 -0.1745 -1.8474
  460MOL0     H60672   1.240   0.534   5.395 -0.0884 -0.2277  0.4513
  460MOL0     H60673   0.993   0.672   5.119  0.6607 -0.1121 -0.9624
  460MOL0     H60674   0.716   0.419   5.109 -3.5678  1.1409  0.8978
  460MOL0     H60675   0.790   0.554   5.019  0.8769 -1.0034 -0.8180
  460MOL0     H60676   0.701   0.722   5.162  1.5737  1.1385  2.1184
  460MOL0     H60677   0.661   0.604   5.290  2.3469  5.6247  0.9011
  460MOL0     H60678   0.507   0.487   5.136  3.4068 -0.7031  1.2981
  460MOL0     H60679   0.448   0.650   5.191 -0.3256 -3.2065  4.1835
  460MOL0     H60680   0.616   0.636   4.930  0.7258  2.0917  0.4926
  460MOL0     H60681   0.522   0.762   4.983  1.8421  0.1727  0.2009
  460MOL0     H60682   0.314   0.834   4.990  2.9143 -2.2705 -1.7346
  460MOL0     H60683   0.088   0.874   5.065  1.3472  0.8232 -2.1822
  460MOL0     H60684  -0.243   0.664   5.332 -2.3237 -2.9564  4.0396
  460MOL0     H60685  -0.448   0.715   5.420 -0.7244  1.5594 -0.2614
  460MOL0     H60686  -0.637   0.890   5.391 -0.2914 -0.4822 -0.8222
  460MOL0     H60687  -0.664   0.734   5.489 -1.1525 -1.1900 -0.1232
  460MOL0     H60688  -0.850   0.859   5.552  0.8940  0.8335 -0.5360
  460MOL0     H60689  -0.894   0.742   5.433 -1.1273 -0.3474  1.8461
  460MOL0     H60690  -0.828   1.031   5.343 -3.9308  4.1035 -1.9253
  460MOL0     H60691  -0.988   0.991   5.420 -0.0225 -1.2352  0.0245
  460MOL0     H60692  -0.847   0.888   5.163  0.1302  1.7076 -0.8928
  460MOL0     H60693  -0.991   0.805   5.227  0.6364  0.3561  2.3823
  460MOL0     H60694  -0.965   1.101   5.153 -1.7988  1.2761 -1.6372
  460MOL0     H60695  -1.108   1.029   5.211  2.1049 -1.3811  1.8322
  460MOL0     H60696  -1.089   0.862   5.012  1.2348  0.1324  3.2425
  460MOL0     H60697  -0.934   0.925   4.967 -0.4148  0.6274 -1.7321
  460MOL0     H60698  -1.214   1.068   4.967  0.2051  3.4821 -0.1919
  460MOL0     H60699  -1.063   1.145   4.912 -4.0785  1.9273 -1.2610
  460MOL0     H60700  -1.197   1.066   4.726  1.1285  2.5513 -0.1372
  460MOL0     H60701  -1.189   0.898   4.802  0.4518  0.2282  0.4548
  460MOL0     H60702  -0.657   0.618   5.061  0.0599 -1.6051 -1.5454
  460MOL0     H60703  -0.440   0.530   4.967  0.0482 -3.7919  2.4220
  460MOL0     H60704  -0.004   0.453   4.971 -0.4714 -0.3275  2.5430
  460MOL0     H60705   0.229   0.415   4.945 -1.7126  0.1406  1.5621
  460MOL0     H60706   2.121   1.091   5.084  0.1283  3.7800  2.0579
  460MOL0     H60707   2.297   1.145   4.900  0.2430 -0.6718  0.6003
  460MOL0     H60708   2.267   1.176   4.287  0.5349 -0.2852 -1.5471
  460MOL0     H60709   2.433   1.277   4.132  1.7564  0.5452 -0.6106
  460MOL0     H60710   2.753   1.553   4.311 -0.2269  0.3920  0.3359
  460MOL0     H60711   2.620   1.610   4.214 -0.7689 -1.1617  2.4888
  460MOL0     H60712   2.852   1.671   4.113 -2.1861  0.9747 -0.4948
  460MOL0     H60713   2.892   1.496   4.128 -0.2963 -0.7151  0.7313
  460MOL0     H60714   2.671   1.600   3.936  0.0551 -0.1686 -2.4794
  460MOL0     H60715   2.731   1.440   3.942 -0.4828 -0.7093 -0.2998
  460MOL0     H60716   2.840   1.591   3.757  0.9049 -2.3683 -0.6225
  460MOL0     H60717   2.900   1.700   3.884  0.2223 -0.9128  0.5115
  460MOL0     H60718   3.170   1.379   3.927 -0.0170  0.4877 -0.0260
  460MOL0     H60719   2.641   1.447   4.463  1.8630 -2.8557 -0.2408
  460MOL0     H60720   2.470   1.379   4.614  3.4996 -1.3558  0.2228
  461MOL0     O60721   5.319   9.171   4.268 -0.7631 -0.1556 -0.3831
  461MOL0     C60722   5.366   9.241   4.178  0.8692 -1.0244 -0.5541
  461MOL0     O60723   5.305   9.268   4.058 -0.0018 -0.2379 -0.2499
  461MOL0     C60724   5.195   9.205   4.009 -0.2621 -0.4378 -0.6621
  461MOL0     C60725   5.144   9.086   4.060 -0.4036  0.1702  0.0095
  461MOL0     C60726   5.026   9.035   4.008  0.3968  0.8395 -0.1039
  461MOL0     C60727   4.957   9.093   3.898  0.1535 -0.1129  1.4202
  461MOL0     O60728   4.847   9.029   3.842 -0.1499 -0.2698  0.6446
  461MOL0     C60729   4.790   8.905   3.881 -0.0984  0.1270 -0.4302
  461MOL0     C60730   4.645   8.888   3.829  1.2458 -0.7338 -0.6340
  461MOL0     C60731   4.583   8.758   3.889 -0.1961 -0.1736 -0.0720
  461MOL0     C60732   4.443   8.729   3.831  0.3261  0.5684  0.6026
  461MOL0     C60733   4.362   8.633   3.914  0.2019  0.0806 -0.2458
  461MOL0     C60734   4.273   8.707   4.021 -0.8223  0.4256 -0.5189
  461MOL0     C60735   4.141   8.624   4.032 -1.1610  0.1270 -0.2665
  461MOL0     C60736   4.027   8.687   3.946  0.8723 -0.6750 -0.1604
  461MOL0     N60737   3.888   8.621   3.957 -0.6879 -0.1400  0.3438
  461MOL0     C60738   3.815   8.598   3.838  0.7693  0.4983 -0.8548
  461MOL0     C60739   3.691   8.570   3.879 -0.2883  0.2598  0.2466
  461MOL0     C60740   3.583   8.518   3.784 -0.1519 -0.7434 -1.0774
  461MOL0     C60741   3.446   8.547   3.854  0.3485  0.0521  0.6686
  461MOL0     C60742   3.331   8.506   3.765 -0.3585 -0.5812 -0.0782
  461MOL0     C60743   3.193   8.533   3.837 -1.4344 -0.7260  0.7588
  461MOL0     O60744   3.092   8.459   3.763  0.1227  1.1791 -0.1378
  461MOL0     C60745   2.966   8.458   3.820 -0.1502  0.5460 -0.7246
  461MOL0     C60746   2.921   8.527   3.927  0.5561 -0.6228 -0.2379
  461MOL0     C60747   2.783   8.528   3.962  0.2046  0.5166  0.4099
  461MOL0     C60748   2.694   8.448   3.897  0.6562 -0.2559  0.7321
  461MOL0     C60749   2.550   8.446   3.940  0.0883 -0.1784 -0.3324
  461MOL0     O60750   2.515   8.492   4.068 -0.4509 -0.0840 -0.1249
  461MOL0     C60751   2.381   8.496   4.115 -0.4955  0.1635 -0.0875
  461MOL0     C60752   2.267   8.520   4.030  0.4634  0.3833 -0.2646
  461MOL0     C60753   2.138   8.519   4.087  0.3878 -0.6350 -0.0214
  461MOL0     C60754   2.112   8.496   4.221  0.1816  0.2197 -0.6485
  461MOL0     O60755   1.992   8.493   4.288  0.2607  0.5242 -0.4264
  461MOL0     C60756   1.873   8.540   4.215 -0.1456 -0.8319  0.0143
  461MOL0     C60757   1.764   8.527   4.308 -0.0590 -0.6192 -0.4429
  461MOL0     C60758   1.623   8.548   4.247  0.1149  0.2232 -0.4170
  461MOL0     C60759   1.522   8.524   4.361  0.1910 -0.6673 -0.6523
  461MOL0     C60760   1.380   8.546   4.301 -0.4781  0.6282 -0.2534
  461MOL0     C60761   1.273   8.524   4.395  0.0282 -0.7328 -0.5135
  461MOL0     C60762   1.240   8.375   4.403  0.3757  0.6458 -0.4001
  461MOL0     C60763   1.169   8.325   4.533 -0.2361 -0.8280 -0.0367
  461MOL0    Cl60764   1.175   8.144   4.515  0.2976 -0.3814 -0.1414
  461MOL0     C60765   2.224   8.481   4.304 -0.6252  0.2743  0.1564
  461MOL0     C60766   2.359   8.481   4.249  0.2957 -0.0356  0.1934
  461MOL0     O60767   2.471   8.398   3.862 -0.5268 -0.4957 -0.4239
  461MOL0     C60768   2.736   8.377   3.787 -0.7821  0.3814  0.2913
  461MOL0     C60769   2.872   8.378   3.755 -0.1201  0.1184 -0.1534
  461MOL0     N60770   3.692   8.578   4.008 -0.5500  0.3606 -0.4222
  461MOL0     N60771   3.808   8.600   4.056  0.4496 -0.0517 -0.9007
  461MOL0     C60772   5.005   9.217   3.850  1.2159  0.1384  0.1397
  461MOL0     C60773   5.119   9.275   3.905  0.4018  0.5744 -0.1694
  461MOL0     C60774   5.490   9.311   4.213 -0.6138 -0.2219  0.3827
  461MOL0     C60775   5.552   9.388   4.110 -0.8097  0.1163 -0.1498
  461MOL0     C60776   5.674   9.450   4.143 -0.0245 -0.2148 -0.1702
  461MOL0     C60777   5.740   9.425   4.268  0.1900 -0.2701  0.2666
  461MOL0     O60778   5.859   9.481   4.298  0.1610 -0.7168  0.5021
  461MOL0     C60779   5.868   9.622   4.311 -0.2517  0.0557  0.1908
  461MOL0     C60780   6.019   9.663   4.306 -0.2575  0.1861 -0.3503
  461MOL0     C60781   6.035   9.810   4.274  1.5205  1.4541  0.1331
  461MOL0     C60782   6.006   9.890   4.404 -0.3257  0.3890  0.3903
  461MOL0     C60783   6.027  10.039   4.397 -0.5049 -0.6418 -0.5562
  461MOL0     C60784   6.047  10.164   4.415 -0.7007 -0.0124  0.3384
  461MOL0     C60785   5.674   9.348   4.360  0.3001 -0.2955  0.3081
  461MOL0     C60786   5.549   9.297   4.335  0.1663 -0.4480 -0.0926
  461MOL0     H60787   5.174   9.024   4.145 -3.4047 -1.6004 -0.0723
  461MOL0     H60788   4.985   8.943   4.050  0.3309 -0.1963 -2.2804
  461MOL0     H60789   4.792   8.896   3.990  1.2461  0.6622 -0.3954
  461MOL0     H60790   4.841   8.816   3.843 -1.0111 -0.0481 -1.2842
  461MOL0     H60791   4.646   8.871   3.721  1.7259 -0.6923 -0.6383
  461MOL0     H60792   4.592   8.981   3.851  2.3566 -0.3470  0.4950
  461MOL0     H60793   4.574   8.780   3.995 -0.4842 -0.4732 -0.0333
  461MOL0     H60794   4.647   8.670   3.885 -0.6369 -0.4915 -3.6740
  461MOL0     H60795   4.385   8.818   3.803 -0.0510 -0.1673 -1.0764
  461MOL0     H60796   4.451   8.679   3.734 -3.8425 -1.0392  0.8708
  461MOL0     H60797   4.439   8.571   3.961  0.9698  1.3853  0.2591
  461MOL0     H60798   4.307   8.564   3.848  0.2524  1.2579 -1.5691
  461MOL0     H60799   4.250   8.811   3.996  0.8384  0.6849 -1.1187
  461MOL0     H60800   4.318   8.712   4.121 -1.0058 -2.3986 -0.2116
  461MOL0     H60801   4.142   8.518   4.002  1.6687 -0.5072  1.6276
  461MOL0     H60802   4.107   8.628   4.136  2.2162 -1.6161  1.0735
  461MOL0     H60803   4.058   8.703   3.842 -1.1046 -0.5095 -0.7495
  461MOL0     H60804   4.021   8.791   3.980 -0.8439 -1.4890  2.2881
  461MOL0     H60805   3.857   8.595   3.738  2.0259  3.0852 -0.4899
  461MOL0     H60806   3.596   8.412   3.760  1.7444 -0.7065 -0.3297
  461MOL0     H60807   3.588   8.574   3.690  0.2591 -0.7828 -1.0797
  461MOL0     H60808   3.438   8.656   3.865 -1.7641 -0.0300  0.4901
  461MOL0     H60809   3.441   8.495   3.950  1.7358 -2.1626 -0.3827
  461MOL0     H60810   3.342   8.558   3.669 -2.8125 -2.4785 -1.5065
  461MOL0     H60811   3.333   8.397   3.751 -2.8900 -0.5261 -1.5166
  461MOL0     H60812   3.177   8.641   3.835 -0.1692 -0.4997 -1.5447
  461MOL0     H60813   3.198   8.498   3.940 -2.5820 -2.9513  0.1136
  461MOL0     H60814   2.992   8.604   3.957  0.2492  0.0342 -1.1446
  461MOL0     H60815   2.738   8.594   4.035 -1.0173  1.9459 -1.5402
  461MOL0     H60816   2.283   8.522   3.923 -0.9341 -2.3531 -0.6282
  461MOL0     H60817   2.058   8.541   4.017  1.2386  1.2699 -0.4426
  461MOL0     H60818   1.860   8.477   4.127  0.4909  0.9854 -1.4253
  461MOL0     H60819   1.879   8.647   4.191 -1.3246 -0.4566  1.2345
  461MOL0     H60820   1.786   8.586   4.398 -2.5229  1.3630 -1.0406
  461MOL0     H60821   1.762   8.421   4.334 -0.7781 -0.3330  0.7744
  461MOL0     H60822   1.620   8.471   4.169  1.4058  0.8860 -1.1596
  461MOL0     H60823   1.613   8.641   4.189  0.4207 -0.0474 -0.9149
  461MOL0     H60824   1.533   8.426   4.408 -3.0687 -0.7922  0.0879
  461MOL0     H60825   1.544   8.596   4.440 -3.3764  0.8628 -0.8462
  461MOL0     H60826   1.375   8.479   4.214 -0.8007 -0.2214  0.3963
  461MOL0     H60827   1.367   8.644   4.256 -1.3781  1.4048  1.5880
  461MOL0     H60828   1.188   8.579   4.354 -1.3668 -0.9675  1.8349
  461MOL0     H60829   1.294   8.571   4.492  0.5210 -0.4798 -0.7398
  461MOL0     H60830   1.173   8.347   4.321 -0.0006 -1.1547  0.4676
  461MOL0     H60831   1.334   8.318   4.397  1.5476  2.2988  1.1275
  461MOL0     H60832   1.068   8.362   4.549 -0.1014 -1.2523  2.0002
  461MOL0     H60833   1.226   8.349   4.624 -3.2589 -0.4506  1.8812
  461MOL0     H60834   2.219   8.469   4.412 -0.5214 -0.0096  0.1325
  461MOL0     H60835   2.436   8.489   4.324 -2.0153  2.3820  2.5302
  461MOL0     H60836   2.677   8.314   3.721  0.6729 -0.0360 -0.6722
  461MOL0     H60837   2.915   8.314   3.679 -0.5728 -2.9095  1.9613
  461MOL0     H60838   4.961   9.252   3.757  1.6112  0.7945  0.1959
  461MOL0     H60839   5.156   9.368   3.864  0.4329 -0.4492 -2.6228
  461MOL0     H60840   5.500   9.416   4.018 -1.9255 -0.0364  0.4145
  461MOL0     H60841   5.717   9.522   4.074 -2.2584  1.7619  0.3591
  461MOL0     H60842   5.832   9.654   4.409 -0.4938 -0.0237  0.1266
  461MOL0     H60843   5.812   9.678   4.235 -0.5379  0.1772  0.4907
  461MOL0     H60844   6.079   9.635   4.393  1.7413  2.6170 -0.8513
  461MOL0     H60845   6.055   9.598   4.225 -0.8851 -0.9188  0.2332
  461MOL0     H60846   5.958   9.838   4.201  0.2878 -1.5908  0.1189
  461MOL0     H60847   6.140   9.813   4.241  2.0377 -0.6476  1.4159
  461MOL0     H60848   5.901   9.877   4.432 -0.0844  1.5436  1.9465
  461MOL0     H60849   6.069   9.849   4.483  0.3446  2.0778  0.7580
  461MOL0     H60850   6.073  10.266   4.433  1.4436 -0.5067  0.3396
  461MOL0     H60851   5.735   9.333   4.448  4.6526 -0.6732 -2.5042
  461MOL0     H60852   5.513   9.227   4.408  3.1067  0.0212  2.0018
  462MOL0     O60853   8.802   2.628   0.768 -0.2630 -0.0718 -0.2064
  462MOL0     C60854   8.801   2.731   0.832  0.2406 -0.4844 -0.1874
  462MOL0     O60855   8.690   2.807   0.872 -0.9049 -0.5034  0.2103
  462MOL0     C60856   8.572   2.778   0.817  0.4687 -0.0191 -0.2754
  462MOL0     C60857   8.459   2.778   0.899  0.4010 -1.0237  0.1241
  462MOL0     C60858   8.331   2.745   0.860 -0.4894  0.5513 -0.5067
  462MOL0     C60859   8.301   2.730   0.719 -0.5132  0.8386 -0.1750
  462MOL0     O60860   8.179   2.680   0.684  0.1743 -0.2247 -0.2964
  462MOL0     C60861   8.073   2.765   0.738 -0.2248 -0.0601  0.9554
  462MOL0     C60862   7.949   2.712   0.679  0.7776  0.1329 -0.0991
  462MOL0     C60863   7.815   2.784   0.724 -0.1296 -0.5079  0.0913
  462MOL0     C60864   7.690   2.730   0.658  0.0273  0.4878  0.1544
  462MOL0     C60865   7.574   2.829   0.692  0.9839 -0.4164  0.7871
  462MOL0     C60866   7.452   2.803   0.597 -0.3164  0.1606 -0.7358
  462MOL0     C60867   7.328   2.890   0.640  0.5144  0.5464 -0.8205
  462MOL0     C60868   7.324   3.042   0.619 -0.1308 -0.3344 -0.1010
  462MOL0     N60869   7.183   3.077   0.628  0.3661  0.4049 -0.3436
  462MOL0     C60870   7.093   3.083   0.529  0.5157  0.1114  0.2721
  462MOL0     C60871   6.979   3.138   0.579 -0.1608 -1.1835 -0.0621
  462MOL0     C60872   6.862   3.155   0.496 -0.9727  0.1786 -0.3841
  462MOL0     C60873   6.742   3.176   0.588  0.2405 -0.1250  0.6873
  462MOL0     C60874   6.618   3.195   0.497  0.4046  0.2219  0.0921
  462MOL0     C60875   6.484   3.200   0.576  0.3957 -0.1500 -0.6904
  462MOL0     O60876   6.376   3.196   0.487  0.3496  0.3001  0.3458
  462MOL0     C60877   6.251   3.208   0.537  0.3280  0.5442 -0.2252
  462MOL0     C60878   6.213   3.220   0.675 -0.2125 -0.2252  0.0974
  462MOL0     C60879   6.078   3.236   0.716 -0.4433  0.6863  0.3334
  462MOL0     C60880   5.982   3.253   0.621 -1.0711  0.8963 -0.3370
  462MOL0     C60881   5.838   3.257   0.665 -0.3985 -0.2630  0.8610
  462MOL0     O60882   5.744   3.237   0.564  0.0821  0.8221  1.0816
  462MOL0     C60883   5.614   3.218   0.612  0.0358 -0.4795 -0.2598
  462MOL0     C60884   5.554   3.316   0.697  0.6151 -0.1029 -0.0978
  462MOL0     C60885   5.426   3.308   0.736  0.4301  0.9158  0.3977
  462MOL0     C60886   5.354   3.196   0.698  0.0940 -0.4290 -0.4760
  462MOL0     O60887   5.226   3.171   0.746 -0.0858  0.1697  0.6719
  462MOL0     C60888   5.146   3.267   0.820 -1.1918 -0.2062 -0.2211
  462MOL0     C60889   5.005   3.219   0.838 -0.5462 -0.1827  0.4915
  462MOL0     C60890   4.897   3.311   0.882 -0.2838 -0.9907 -1.3600
  462MOL0     C60891   4.888   3.328   1.034 -0.2841 -0.1116  0.0377
  462MOL0     C60892   4.771   3.423   1.070  0.3520  0.2239  0.6555
  462MOL0     C60893   4.635   3.385   1.017  0.1613 -0.4158  0.2984
  462MOL0     C60894   4.518   3.464   1.085 -0.7948 -0.0667 -0.1101
  462MOL0     C60895   4.375   3.420   1.038 -0.8490  0.3637 -0.3915
  462MOL0    Cl60896   4.257   3.529   1.116  0.3719 -0.1837 -0.1250
  462MOL0     C60897   5.410   3.097   0.617 -0.5992  1.0607  0.6686
  462MOL0     C60898   5.541   3.113   0.564 -0.0122  0.2969  0.5095
  462MOL0     O60899   5.824   3.268   0.787  0.6014 -0.1778  0.3463
  462MOL0     C60900   6.016   3.232   0.483 -0.8950  0.3345  0.4556
  462MOL0     C60901   6.146   3.202   0.442  0.0344 -0.7930  0.8264
  462MOL0     N60902   7.009   3.178   0.708  0.7866 -0.2818 -0.0606
  462MOL0     N60903   7.133   3.149   0.733 -0.6372 -0.2517 -0.5334
  462MOL0     C60904   8.412   2.723   0.636 -0.2363  0.2021  0.4492
  462MOL0     C60905   8.546   2.746   0.681  0.0462  0.1336  1.0792
  462MOL0     C60906   8.938   2.755   0.890  0.4190  0.0060 -0.1572
  462MOL0     C60907   9.055   2.722   0.816  0.6760  0.4958 -0.1817
  462MOL0     C60908   9.180   2.736   0.873 -0.4541 -0.1292  0.2718
  462MOL0     C60909   9.198   2.794   1.000  1.1572 -0.1452  0.1835
  462MOL0     O60910   9.311   2.776   1.068 -0.3506 -0.6777  0.4867
  462MOL0     C60911   9.415   2.841   1.002  0.1815  0.0024 -1.0576
  462MOL0     C60912   9.552   2.800   1.067 -0.5491 -0.0496  0.0642
  462MOL0     C60913   9.683   2.849   0.997  0.1926  0.5883 -1.1156
  462MOL0     C60914   9.719   2.996   1.029 -0.0828 -0.0921 -0.3628
  462MOL0     C60915   9.833   3.043   0.949 -0.2184 -0.4138  0.3345
  462MOL0     C60916   9.917   3.096   0.878  1.4216  0.2655  0.1992
  462MOL0     C60917   9.078   2.831   1.064 -0.7491 -0.3201 -0.1727
  462MOL0     C60918   8.955   2.807   1.016  0.2025 -0.4763  0.2362
  462MOL0     H60919   8.471   2.809   1.002  1.4966  1.4915 -0.6658
  462MOL0     H60920   8.255   2.737   0.936  0.5848  2.7647  0.8917
  462MOL0     H60921   8.088   2.872   0.724  2.9685 -0.5102  0.2563
  462MOL0     H60922   8.064   2.741   0.844  2.4150 -2.8586  0.6908
  462MOL0     H60923   7.945   2.609   0.717  1.8384 -0.1834 -0.7950
  462MOL0     H60924   7.949   2.704   0.570  0.6266  2.1315 -0.2794
  462MOL0     H60925   7.818   2.892   0.705 -0.3083 -0.7403 -1.4514
  462MOL0     H60926   7.804   2.764   0.831 -3.5368  1.5999  0.3016
  462MOL0     H60927   7.695   2.712   0.551 -0.2318  1.8690 -0.1195
  462MOL0     H60928   7.655   2.634   0.695 -1.5949  0.2743 -1.7704
  462MOL0     H60929   7.600   2.934   0.676 -0.4043  0.2781  2.6022
  462MOL0     H60930   7.540   2.816   0.795 -0.3906 -0.6281  0.3349
  462MOL0     H60931   7.417   2.699   0.599  0.2622 -0.0314  1.1603
  462MOL0     H60932   7.479   2.834   0.496 -0.8372 -1.3805 -1.3899
  462MOL0     H60933   7.247   2.850   0.577 -0.4967  3.0501 -1.2231
  462MOL0     H60934   7.309   2.867   0.745  0.7962  2.3023 -0.3675
  462MOL0     H60935   7.364   3.073   0.522  0.6963 -1.6717 -0.2153
  462MOL0     H60936   7.384   3.088   0.698  0.8316 -1.1134 -0.3440
  462MOL0     H60937   7.103   3.053   0.425  1.3153  2.6483 -0.4760
  462MOL0     H60938   6.837   3.070   0.432  0.6421 -0.2913 -0.4247
  462MOL0     H60939   6.877   3.246   0.437  0.8263  0.5362  0.5817
  462MOL0     H60940   6.767   3.264   0.648  2.1032  1.3169 -1.9797
  462MOL0     H60941   6.728   3.088   0.651  0.6885 -0.5890  0.1496
  462MOL0     H60942   6.631   3.292   0.446 -4.4471 -0.2047 -2.4713
  462MOL0     H60943   6.605   3.108   0.433  1.0606  0.4360 -0.3425
  462MOL0     H60944   6.468   3.284   0.645 -0.5026 -2.0707  1.5732
  462MOL0     H60945   6.469   3.113   0.641 -2.2017 -0.3612 -1.4494
  462MOL0     H60946   6.285   3.217   0.756 -0.2578 -0.7880  0.1203
  462MOL0     H60947   6.051   3.226   0.821  1.4758 -1.7924  0.6829
  462MOL0     H60948   5.615   3.399   0.730 -1.3191  0.2680  2.9612
  462MOL0     H60949   5.377   3.388   0.790  2.4732  1.3572  1.6807
  462MOL0     H60950   5.135   3.362   0.766 -2.9440  0.6032  1.4004
  462MOL0     H60951   5.189   3.271   0.921  1.3873 -2.3530 -1.1373
  462MOL0     H60952   5.000   3.141   0.915 -4.9349  0.0750  0.7079
  462MOL0     H60953   4.983   3.169   0.743  0.2778 -2.0990  1.2461
  462MOL0     H60954   4.805   3.267   0.842  0.4259 -2.8986 -0.9970
  462MOL0     H60955   4.909   3.412   0.842 -1.5311 -0.1155  0.3252
  462MOL0     H60956   4.857   3.233   1.080  0.1331  0.2578  1.1074
  462MOL0     H60957   4.979   3.364   1.082 -0.0587 -0.3137 -0.2317
  462MOL0     H60958   4.782   3.526   1.034  3.0201 -0.3834 -0.4999
  462MOL0     H60959   4.756   3.439   1.177 -0.2162  1.2568  0.4415
  462MOL0     H60960   4.613   3.280   1.040  1.6623 -0.9401 -0.5182
  462MOL0     H60961   4.627   3.393   0.908 -2.0864 -0.9378  0.3706
  462MOL0     H60962   4.517   3.463   1.195  0.9276  1.4216 -0.0316
  462MOL0     H60963   4.532   3.568   1.053 -1.6419  0.7153  1.8783
  462MOL0     H60964   4.353   3.316   1.066 -0.0775 -0.1741 -1.6917
  462MOL0     H60965   4.367   3.429   0.929  0.0755 -0.3368 -0.5323
  462MOL0     H60966   5.361   3.000   0.608  0.8280  0.4754 -1.6666
  462MOL0     H60967   5.583   3.039   0.497  0.3566  0.6942  0.3010
  462MOL0     H60968   5.932   3.226   0.414 -0.7173 -0.1670  0.2759
  462MOL0     H60969   6.165   3.196   0.335 -1.4357  1.7956  0.3403
  462MOL0     H60970   8.391   2.707   0.531  1.7657 -0.8985  0.1651
  462MOL0     H60971   8.628   2.751   0.610 -0.6912 -1.0503  0.0872
  462MOL0     H60972   9.046   2.667   0.723  0.2228 -0.7392  0.5696
  462MOL0     H60973   9.259   2.677   0.828 -2.2020 -2.7262  0.3429
  462MOL0     H60974   9.401   2.949   1.010  0.2410  0.0208 -1.2085
  462MOL0     H60975   9.422   2.805   0.899 -1.5470 -4.1154  0.0324
  462MOL0     H60976   9.564   2.845   1.166  3.2471  2.6364 -1.3873
  462MOL0     H60977   9.559   2.691   1.060 -0.8584  0.0225 -1.8419
  462MOL0     H60978   9.667   2.845   0.889 -0.3119 -3.1054 -1.0364
  462MOL0     H60979   9.759   2.782   1.037  0.3444  0.5953 -1.3910
  462MOL0     H60980   9.637   3.065   1.007 -0.0669  0.1382  0.2787
  462MOL0     H60981   9.739   3.017   1.135 -0.9321 -0.5623 -0.1064
  462MOL0     H60982   9.995   3.134   0.815  1.4074 -4.0655 -2.9598
  462MOL0     H60983   9.092   2.864   1.166 -3.3203  1.8844 -0.4120
  462MOL0     H60984   8.875   2.844   1.080  1.9387 -0.3742  2.4892
  463MOL0     O60985   9.964   3.400   1.931  0.9505 -0.4930 -0.3292
  463MOL0     C60986  10.047   3.355   1.846  0.0574 -0.8111  0.5402
  463MOL0     O60987  10.024   3.248   1.765 -0.2752  0.5379  0.1390
  463MOL0     C60988   9.895   3.202   1.773  0.9012  0.1974  0.8143
  463MOL0     C60989   9.866   3.105   1.868 -0.6583 -0.2110  0.2084
  463MOL0     C60990   9.730   3.066   1.893 -0.4341  0.8424 -0.5189
  463MOL0     C60991   9.627   3.106   1.804 -0.7298  0.0047 -0.1116
  463MOL0     O60992   9.511   3.033   1.817  0.0538  0.1275  0.3938
  463MOL0     C60993   9.404   3.056   1.735 -0.1608 -0.0313 -1.2562
  463MOL0     C60994   9.310   3.160   1.803 -0.3305  0.3590 -0.1816
  463MOL0     C60995   9.292   3.169   1.954 -0.0121  0.5882  0.0477
  463MOL0     C60996   9.201   3.289   1.990  0.2092  0.4976 -0.0326
  463MOL0     C60997   9.170   3.302   2.141  0.3078  0.4727  0.0479
  463MOL0     C60998   9.046   3.218   2.180 -0.5675 -0.1906  0.0641
  463MOL0     C60999   8.923   3.269   2.098  0.3761  0.4848  0.3792
  463MOL0     C61000   8.790   3.257   2.178  0.7204  0.0718  0.9496
  463MOL0     N61001   8.675   3.269   2.093 -1.2990 -0.4374  1.0411
  463MOL0     C61002   8.645   3.370   2.009  0.5364 -0.4291  0.7397
  463MOL0     C61003   8.533   3.326   1.937 -0.3663 -0.1785 -0.3489
  463MOL0     C61004   8.443   3.396   1.829  0.0681  0.2953 -0.1554
  463MOL0     C61005   8.460   3.548   1.847  0.5193  0.5230  0.0319
  463MOL0     C61006   8.392   3.618   1.724 -0.0017  0.7722  0.6768
  463MOL0     C61007   8.474   3.640   1.601  0.7872  0.0930 -0.8678
  463MOL0     O61008   8.593   3.713   1.633 -0.5645 -0.4548  0.3954
  463MOL0     C61009   8.690   3.725   1.537  0.2838 -0.5502 -1.3365
  463MOL0     C61010   8.805   3.792   1.571 -0.6234  0.1909 -0.3017
  463MOL0     C61011   8.915   3.793   1.484  0.1790  0.0371 -0.6132
  463MOL0     C61012   8.892   3.744   1.356 -0.6722  0.0294 -0.3389
  463MOL0     C61013   9.006   3.756   1.261  0.9870 -0.1397  0.5597
  463MOL0     O61014   9.135   3.751   1.313  0.1374  0.5374 -0.3505
  463MOL0     C61015   9.256   3.729   1.237 -0.6796 -0.3632 -0.8176
  463MOL0     C61016   9.271   3.644   1.128  0.0730 -0.6103 -0.7690
  463MOL0     C61017   9.397   3.637   1.066  0.1509 -0.9600  0.3756
  463MOL0     C61018   9.515   3.693   1.116 -0.1428 -0.2463  0.2604
  463MOL0     O61019   9.635   3.687   1.051 -0.5399  0.1554 -0.0916
  463MOL0     C61020   9.754   3.755   1.116 -0.3943  0.0439 -0.1908
  463MOL0     C61021   9.864   3.767   1.010 -0.1417 -0.7337  0.5102
  463MOL0     C61022   9.933   3.634   0.989  0.2389 -0.0083 -0.5057
  463MOL0     C61023  10.036   3.635   0.876  0.0331 -0.8666  0.9805
  463MOL0     C61024  10.146   3.527   0.877  0.2004  0.3336 -0.7593
  463MOL0     C61025  10.215   3.528   0.735 -0.4266  0.2114  0.3869
  463MOL0     C61026  10.121   3.483   0.627 -0.7830 -0.4221  0.0018
  463MOL0     C61027  10.180   3.423   0.497 -0.1151 -0.2211  0.2462
  463MOL0    Cl61028  10.060   3.458   0.365  0.2136  0.3489 -0.4564
  463MOL0     C61029   9.499   3.763   1.234  0.1911  0.4164  0.2653
  463MOL0     C61030   9.378   3.775   1.295  0.8865 -0.5912  0.3492
  463MOL0     O61031   8.973   3.755   1.142  0.0241  0.6183  0.6147
  463MOL0     C61032   8.775   3.679   1.314 -0.2943  0.7168 -0.0873
  463MOL0     C61033   8.671   3.671   1.410  0.1339  0.1293 -1.0645
  463MOL0     N61034   8.507   3.197   1.983  0.2032  0.3650 -0.4900
  463MOL0     N61035   8.586   3.166   2.082  0.1767  0.6120  0.4664
  463MOL0     C61036   9.658   3.195   1.698 -1.3616 -0.1340  0.2987
  463MOL0     C61037   9.792   3.243   1.683 -0.1110 -0.0891 -0.4638
  463MOL0     C61038  10.174   3.425   1.824  0.1576  0.5251  0.3484
  463MOL0     C61039  10.189   3.562   1.854 -0.2757  0.1568 -0.4832
  463MOL0     C61040  10.312   3.630   1.833  0.2220 -0.2608 -0.3716
  463MOL0     C61041  10.418   3.561   1.785 -0.6291  0.4848 -1.6673
  463MOL0     O61042  10.517   3.637   1.727 -0.4751 -0.0475 -0.5269
  463MOL0     C61043  10.648   3.600   1.787 -0.5994  0.8393  0.0018
  463MOL0     C61044  10.705   3.740   1.804  0.1200  0.5606 -0.2186
  463MOL0     C61045  10.699   3.826   1.672  0.3549 -0.1241  0.6145
  463MOL0     C61046  10.771   3.767   1.550 -0.3309 -0.9235  0.4508
  463MOL0     C61047  10.779   3.856   1.432 -0.0605 -0.2528  0.4433
  463MOL0     C61048  10.789   3.920   1.329  0.2786  0.0690  0.3695
  463MOL0     C61049  10.414   3.422   1.759  0.4170 -0.6231 -0.2065
  463MOL0     C61050  10.287   3.355   1.778 -0.4945  0.3834 -0.2531
  463MOL0     H61051   9.946   3.082   1.937 -1.2462  1.8390  1.6911
  463MOL0     H61052   9.727   2.996   1.976  0.3815  1.3541 -0.0450
  463MOL0     H61053   9.360   2.956   1.735  2.9277 -1.5122 -0.5901
  463MOL0     H61054   9.432   3.080   1.632 -0.4454  3.4142 -0.6636
  463MOL0     H61055   9.211   3.145   1.759 -0.3005 -0.9293  0.1473
  463MOL0     H61056   9.342   3.262   1.780 -1.0773  0.3315 -1.4132
  463MOL0     H61057   9.384   3.195   2.006 -1.9818  2.3771  2.9053
  463MOL0     H61058   9.248   3.076   1.989  0.2918  0.4130 -0.0389
  463MOL0     H61059   9.256   3.379   1.960  1.1188 -0.2057 -0.5323
  463MOL0     H61060   9.111   3.275   1.930  2.6962 -2.9512 -3.4737
  463MOL0     H61061   9.174   3.400   2.190  2.5664  0.1816  0.5689
  463MOL0     H61062   9.266   3.270   2.182  0.9689  0.8585 -1.1719
  463MOL0     H61063   9.032   3.225   2.288 -1.2485  1.4937 -0.1023
  463MOL0     H61064   9.057   3.111   2.158 -1.2979  0.2938 -3.1275
  463MOL0     H61065   8.946   3.373   2.073 -0.8150  0.9665  1.1931
  463MOL0     H61066   8.912   3.202   2.012 -0.6969 -0.6351  1.3545
  463MOL0     H61067   8.784   3.333   2.257  1.6163  0.5899  0.5347
  463MOL0     H61068   8.783   3.158   2.223 -2.7066 -0.9937 -1.5600
  463MOL0     H61069   8.699   3.464   2.009  0.1102 -0.0975 -1.8638
  463MOL0     H61070   8.336   3.374   1.835  0.3721 -1.2578  0.0514
  463MOL0     H61071   8.484   3.373   1.730  1.6678  1.6198  0.1581
  463MOL0     H61072   8.566   3.572   1.860  0.6963  0.5432 -1.2640
  463MOL0     H61073   8.402   3.574   1.936 -0.1761 -0.9167  0.0252
  463MOL0     H61074   8.311   3.550   1.697  2.1317 -1.2387 -0.9869
  463MOL0     H61075   8.352   3.711   1.768  1.6816  1.5587  0.6127
  463MOL0     H61076   8.413   3.686   1.523 -1.0422 -0.5528  0.1248
  463MOL0     H61077   8.503   3.544   1.558  2.5521  0.6599 -1.0189
  463MOL0     H61078   8.816   3.848   1.663 -0.8808  2.6005 -1.6556
  463MOL0     H61079   9.011   3.830   1.517 -1.0483  2.3698  0.5927
  463MOL0     H61080   9.193   3.582   1.084  1.0646 -2.6460  0.2111
  463MOL0     H61081   9.390   3.577   0.976 -0.1047 -2.6868  1.5090
  463MOL0     H61082   9.781   3.705   1.210 -3.4345  0.2419  0.8983
  463MOL0     H61083   9.730   3.857   1.146  3.3082  0.6117  1.3331
  463MOL0     H61084   9.935   3.842   1.047  0.3253  0.1680 -2.0175
  463MOL0     H61085   9.826   3.809   0.917  2.1975 -1.1881 -0.7291
  463MOL0     H61086   9.858   3.557   0.970  1.3612 -0.8139 -1.8698
  463MOL0     H61087   9.980   3.604   1.083  0.7496  0.2078 -0.6906
  463MOL0     H61088   9.978   3.622   0.784  2.5570  2.4618 -1.3122
  463MOL0     H61089  10.092   3.728   0.879  1.2274 -1.5449  0.4754
  463MOL0     H61090  10.109   3.428   0.907 -1.2710  1.0777 -0.0379
  463MOL0     H61091  10.224   3.554   0.949  0.5022 -2.2997  0.0110
  463MOL0     H61092  10.304   3.464   0.746  1.3250  2.5168  0.5174
  463MOL0     H61093  10.249   3.626   0.699  0.5071 -1.1575 -2.8425
  463MOL0     H61094  10.044   3.420   0.672 -0.7846 -0.4124  0.0135
  463MOL0     H61095  10.068   3.576   0.602  1.6375  1.2388  0.6848
  463MOL0     H61096  10.201   3.316   0.509  0.1110 -0.2523 -0.4010
  463MOL0     H61097  10.273   3.478   0.479  1.6669 -1.7713  3.7213
  463MOL0     H61098   9.586   3.803   1.285  1.4645  1.7438 -2.7101
  463MOL0     H61099   9.372   3.840   1.381 -3.6836  1.1909 -0.9871
  463MOL0     H61100   8.762   3.645   1.212 -0.2258  2.3428 -0.6612
  463MOL0     H61101   8.577   3.635   1.368 -0.2009 -1.4724  0.8878
  463MOL0     H61102   9.578   3.241   1.640 -1.8546 -0.7269  0.5056
  463MOL0     H61103   9.814   3.316   1.606  0.7016  1.0873  0.8152
  463MOL0     H61104  10.111   3.623   1.899 -0.6648 -0.6621 -0.0254
  463MOL0     H61105  10.314   3.737   1.851 -0.3561 -0.5067  1.3371
  463MOL0     H61106  10.697   3.543   1.708 -1.9696 -0.4745  0.0436
  463MOL0     H61107  10.657   3.531   1.871 -0.0785  1.6583  0.6367
  463MOL0     H61108  10.632   3.794   1.865  0.2822  0.5663 -0.0311
  463MOL0     H61109  10.802   3.746   1.854 -0.7055  0.4851  1.4664
  463MOL0     H61110  10.751   3.919   1.697  0.7229 -0.7701  2.4715
  463MOL0     H61111  10.601   3.861   1.637  0.1665 -0.7988  0.4578
  463MOL0     H61112  10.870   3.734   1.580  1.0869  2.3888 -0.1974
  463MOL0     H61113  10.716   3.678   1.517  0.7770 -1.0882 -1.0005
  463MOL0     H61114  10.791   3.989   1.248  1.9721 -0.5513 -0.1509
  463MOL0     H61115  10.497   3.355   1.740 -1.3386 -3.3569  1.1418
  463MOL0     H61116  10.280   3.249   1.754 -0.0235  0.1197  0.7302
  464MOL0     O61117   2.140   4.892   6.451 -0.7705 -0.6065  0.9838
  464MOL0     C61118   2.191   4.787   6.495  0.1770  0.7198  0.1826
  464MOL0     O61119   2.129   4.698   6.578 -0.1258  0.4298  0.2688
  464MOL0     C61120   2.005   4.735   6.618 -0.4958 -0.6968  0.5044
  464MOL0     C61121   1.987   4.771   6.756  0.0600  0.1617 -0.5532
  464MOL0     C61122   1.852   4.802   6.792  0.0877  0.2357  0.6099
  464MOL0     C61123   1.741   4.800   6.699  0.7577 -0.0678 -0.3671
  464MOL0     O61124   1.616   4.831   6.749 -0.5178  0.1649  0.2010
  464MOL0     C61125   1.523   4.893   6.658  0.6123 -0.0316  0.0021
  464MOL0     C61126   1.403   4.893   6.750 -0.1024 -0.4984 -0.3322
  464MOL0     C61127   1.283   4.963   6.685  0.3511 -0.5444 -0.9252
  464MOL0     C61128   1.307   5.111   6.661 -0.1561  0.2009 -0.0697
  464MOL0     C61129   1.180   5.185   6.652  0.6862 -0.7399  0.2960
  464MOL0     C61130   1.091   5.135   6.541 -0.0036  0.1500  0.2403
  464MOL0     C61131   0.974   5.244   6.519 -0.0943 -0.1000  0.0275
  464MOL0     C61132   0.896   5.208   6.389  0.5621  0.6612  0.5286
  464MOL0     N61133   0.758   5.265   6.389 -0.5095  0.8949  0.7226
  464MOL0     C61134   0.720   5.398   6.415  0.9931  0.6296  0.4818
  464MOL0     C61135   0.587   5.407   6.368  0.6956 -0.6371 -0.5503
  464MOL0     C61136   0.505   5.529   6.382 -1.0802  0.6561  0.6128
  464MOL0     C61137   0.390   5.490   6.472  0.0704 -0.3942  0.2279
  464MOL0     C61138   0.296   5.598   6.526  0.1037  0.2434  0.0832
  464MOL0     C61139   0.155   5.545   6.524  0.1766  0.0282 -1.1384
  464MOL0     O61140   0.064   5.659   6.529 -0.6488 -0.2340 -0.4550
  464MOL0     C61141  -0.077   5.643   6.521  0.5475 -0.2968  0.2833
  464MOL0     C61142  -0.161   5.747   6.486  0.2645  0.2256 -0.0722
  464MOL0     C61143  -0.294   5.746   6.464  0.5348  0.1710  0.6124
  464MOL0     C61144  -0.356   5.625   6.463 -0.4205 -0.1998  0.3567
  464MOL0     C61145  -0.501   5.607   6.427 -0.3168 -0.8725 -0.3768
  464MOL0     O61146  -0.559   5.492   6.464 -0.3192 -0.5252 -0.5568
  464MOL0     C61147  -0.692   5.471   6.424  0.1502 -0.5335  0.9153
  464MOL0     C61148  -0.711   5.362   6.336 -0.9185  0.0203 -0.1956
  464MOL0     C61149  -0.831   5.319   6.308 -0.5415  0.6503 -0.1935
  464MOL0     C61150  -0.944   5.389   6.359  0.2866 -0.1134 -0.3953
  464MOL0     O61151  -1.078   5.345   6.344 -0.0458 -0.2431 -0.2693
  464MOL0     C61152  -1.112   5.285   6.216 -0.3434  0.4681 -0.3182
  464MOL0     C61153  -1.240   5.358   6.185  0.3441  0.7474  0.0308
  464MOL0     C61154  -1.377   5.298   6.243  0.1333  0.2403 -0.3039
  464MOL0     C61155  -1.498   5.393   6.235 -0.2997  0.4661 -0.2288
  464MOL0     C61156  -1.495   5.509   6.331 -0.1298  0.1018 -0.3091
  464MOL0     C61157  -1.506   5.467   6.483  0.4184 -0.1413 -0.2002
  464MOL0     C61158  -1.637   5.396   6.526 -0.3085 -0.5983 -0.1448
  464MOL0     C61159  -1.645   5.367   6.682 -0.2270 -0.3651 -0.3622
  464MOL0    Cl61160  -1.637   5.524   6.773 -0.2587  0.0314 -0.2425
  464MOL0     C61161  -0.925   5.499   6.442 -0.7159  0.2903  0.1343
  464MOL0     C61162  -0.800   5.540   6.482  0.3289  0.0916 -0.0649
  464MOL0     O61163  -0.557   5.688   6.356  0.5554 -0.5126 -0.7675
  464MOL0     C61164  -0.274   5.505   6.495 -0.1391 -0.4035 -0.1057
  464MOL0     C61165  -0.135   5.512   6.531  0.5794 -0.1767  0.5349
  464MOL0     N61166   0.547   5.284   6.339 -0.0082  0.0313  0.4379
  464MOL0     N61167   0.644   5.194   6.351 -0.1974 -0.4730  0.4886
  464MOL0     C61168   1.766   4.761   6.571 -0.2824 -0.0929 -0.2928
  464MOL0     C61169   1.897   4.735   6.530  0.1322 -0.7466 -0.2059
  464MOL0     C61170   2.326   4.750   6.461 -0.2595  0.6318  0.0909
  464MOL0     C61171   2.384   4.808   6.354  0.5065  0.1087  0.5427
  464MOL0     C61172   2.516   4.778   6.321  0.4544 -0.2455  0.1768
  464MOL0     C61173   2.590   4.680   6.389  0.0208 -0.0062  0.1746
  464MOL0     O61174   2.724   4.683   6.353 -0.3433 -0.3247 -0.3261
  464MOL0     C61175   2.814   4.587   6.416  1.2811 -0.0357  0.6209
  464MOL0     C61176   2.949   4.598   6.369 -1.0601 -0.0232  1.0832
  464MOL0     C61177   2.970   4.612   6.218 -0.8583  0.3815 -0.3952
  464MOL0     C61178   2.909   4.497   6.139  0.0456  0.0716 -0.8676
  464MOL0     C61179   2.900   4.540   5.998 -0.9015  0.1385  0.1009
  464MOL0     C61180   2.904   4.590   5.886  0.4945 -0.2206  0.3693
  464MOL0     C61181   2.524   4.614   6.493  0.0774  1.3009 -0.7682
  464MOL0     C61182   2.392   4.643   6.524 -0.3177 -0.0017  0.0819
  464MOL0     H61183   2.060   4.762   6.836 -2.1778 -1.9472  1.4163
  464MOL0     H61184   1.823   4.807   6.897 -0.2206  3.2450  0.4925
  464MOL0     H61185   1.502   4.828   6.573  2.1544 -1.7870  0.9003
  464MOL0     H61186   1.540   4.997   6.628 -2.9986  0.0125 -2.5697
  464MOL0     H61187   1.438   4.936   6.844 -0.7578 -0.4490 -0.1056
  464MOL0     H61188   1.367   4.794   6.781 -3.1683  0.6364  0.0716
  464MOL0     H61189   1.197   4.954   6.752  0.4990  0.3266 -0.6065
  464MOL0     H61190   1.252   4.916   6.591 -2.4662  1.3079 -1.0260
  464MOL0     H61191   1.365   5.165   6.736 -2.5381  0.5420  1.6473
  464MOL0     H61192   1.366   5.112   6.569 -0.4173 -2.1326 -0.3134
  464MOL0     H61193   1.201   5.291   6.636  0.2386 -0.9145 -1.7325
  464MOL0     H61194   1.119   5.190   6.742 -2.4994 -0.2460 -1.7375
  464MOL0     H61195   1.043   5.037   6.553 -1.3842  0.5821 -1.3153
  464MOL0     H61196   1.148   5.130   6.447 -0.4530 -0.0943 -0.0234
  464MOL0     H61197   0.911   5.249   6.608  1.6615  5.0886  1.3655
  464MOL0     H61198   1.001   5.350   6.506 -0.5730  0.3554  2.3776
  464MOL0     H61199   0.899   5.100   6.369  2.7915  0.9928 -1.3262
  464MOL0     H61200   0.945   5.243   6.298  0.0651  2.1814  0.8208
  464MOL0     H61201   0.784   5.475   6.456  1.0886  1.5618 -1.3197
  464MOL0     H61202   0.472   5.560   6.283 -0.7003 -2.6604 -0.6523
  464MOL0     H61203   0.556   5.617   6.423 -0.8600  1.0436 -0.4658
  464MOL0     H61204   0.433   5.440   6.560  0.8881 -1.2094 -0.6210
  464MOL0     H61205   0.327   5.415   6.425 -0.1987  1.2060 -2.1426
  464MOL0     H61206   0.321   5.630   6.628  1.2637  1.3261 -0.5271
  464MOL0     H61207   0.290   5.678   6.452  0.6550 -1.3795 -1.8191
  464MOL0     H61208   0.135   5.474   6.606 -0.0926  1.2931 -0.0786
  464MOL0     H61209   0.138   5.481   6.437 -2.0270 -2.2909  0.8147
  464MOL0     H61210  -0.103   5.839   6.481  4.0218 -2.0223 -1.4808
  464MOL0     H61211  -0.345   5.837   6.430  2.2660  0.8641 -0.2530
  464MOL0     H61212  -0.628   5.298   6.306 -1.9567 -0.6380 -1.8442
  464MOL0     H61213  -0.842   5.229   6.248  0.8367  1.1828 -1.2846
  464MOL0     H61214  -1.133   5.178   6.226 -2.2040  0.9116  1.0171
  464MOL0     H61215  -1.041   5.305   6.136  0.9350  0.2261  0.7149
  464MOL0     H61216  -1.257   5.345   6.078 -0.3744  0.3508  0.1894
  464MOL0     H61217  -1.233   5.465   6.204 -1.3484  0.7649  0.7147
  464MOL0     H61218  -1.368   5.259   6.344 -1.3847 -3.6946 -1.4740
  464MOL0     H61219  -1.402   5.209   6.184 -0.3349 -0.2642  0.6453
  464MOL0     H61220  -1.491   5.424   6.130 -1.3168 -0.7759 -0.6998
  464MOL0     H61221  -1.598   5.349   6.235  0.0445 -0.3685  1.0847
  464MOL0     H61222  -1.577   5.580   6.321  0.1200  0.8470  2.3190
  464MOL0     H61223  -1.393   5.549   6.320  0.0003 -0.3616 -0.8559
  464MOL0     H61224  -1.496   5.557   6.544  2.2470 -1.2590  1.2685
  464MOL0     H61225  -1.422   5.399   6.503  0.8553 -0.4904 -2.8021
  464MOL0     H61226  -1.722   5.462   6.508 -1.2145 -0.7791  2.8871
  464MOL0     H61227  -1.662   5.310   6.463 -2.2406 -0.0793 -0.1374
  464MOL0     H61228  -1.574   5.292   6.720  2.3879  2.2397  0.2252
  464MOL0     H61229  -1.740   5.321   6.710 -2.3471  3.3313 -0.8171
  464MOL0     H61230  -1.008   5.546   6.494  1.4219  0.8510  3.3421
  464MOL0     H61231  -0.784   5.628   6.543 -0.9291 -1.1519  2.1681
  464MOL0     H61232  -0.318   5.406   6.502 -2.7002  0.6620  0.1379
  464MOL0     H61233  -0.079   5.419   6.541  1.2318  0.0900 -0.4574
  464MOL0     H61234   1.686   4.752   6.499 -0.9140  2.0588  0.0766
  464MOL0     H61235   1.906   4.707   6.425 -0.8746  0.3324 -0.6074
  464MOL0     H61236   2.329   4.884   6.298 -1.3763 -0.0789  2.0205
  464MOL0     H61237   2.555   4.836   6.237  0.0927  1.2376  0.9962
  464MOL0     H61238   2.776   4.485   6.406 -0.3027  0.5760 -0.0062
  464MOL0     H61239   2.813   4.614   6.522  3.1410 -1.3237  1.0194
  464MOL0     H61240   2.990   4.687   6.416 -1.2385 -0.0674  1.3255
  464MOL0     H61241   3.017   4.523   6.411  0.2172  0.5305  0.0902
  464MOL0     H61242   3.078   4.614   6.203 -0.5729  0.1931  1.4033
  464MOL0     H61243   2.934   4.713   6.195 -0.0175  1.2598  1.8593
  464MOL0     H61244   2.965   4.403   6.138 -1.5462 -0.9425  0.2079
  464MOL0     H61245   2.812   4.468   6.179 -0.0982  1.2406 -0.3306
  464MOL0     H61246   2.912   4.626   5.786 -1.1215 -2.1724 -0.5408
  464MOL0     H61247   2.574   4.545   6.559 -3.2139 -1.6475 -1.0689
  464MOL0     H61248   2.343   4.584   6.600  1.0983 -0.8103  0.4097
  465MOL0     O61249  10.282   2.222   5.456 -0.2517 -0.4338  0.3559
  465MOL0     C61250  10.346   2.232   5.348 -0.9411  0.1230  0.2686
  465MOL0     O61251  10.313   2.301   5.239 -0.4109 -0.7708  0.1841
  465MOL0     C61252  10.192   2.365   5.257  0.1308 -0.0536  0.7021
  465MOL0     C61253  10.073   2.304   5.224  0.2846 -0.1822  0.3640
  465MOL0     C61254   9.947   2.360   5.253  0.8800 -0.6872  0.2414
  465MOL0     C61255   9.948   2.492   5.299 -0.2257 -0.0727  0.0087
  465MOL0     O61256   9.836   2.551   5.351 -0.7792  0.2406  0.2337
  465MOL0     C61257   9.750   2.628   5.269  0.0448 -0.2675  0.3236
  465MOL0     C61258   9.702   2.754   5.339  0.6632 -0.5979  0.6424
  465MOL0     C61259   9.835   2.841   5.368  0.3756  0.1415  0.5439
  465MOL0     C61260   9.803   2.986   5.390 -0.3790 -1.0463  0.4555
  465MOL0     C61261   9.925   3.061   5.451  0.3085 -0.0830 -0.2130
  465MOL0     C61262  10.029   3.090   5.333  0.4228 -0.2383  0.1956
  465MOL0     C61263  10.163   3.142   5.371  0.7094  0.0148 -0.3729
  465MOL0     C61264  10.279   3.046   5.358 -1.0123 -0.2356 -0.4756
  465MOL0     N61265  10.399   3.095   5.429  1.0191 -0.0127  0.1570
  465MOL0     C61266  10.477   3.192   5.371  0.3417 -0.2923  0.7097
  465MOL0     C61267  10.567   3.220   5.464  0.0168 -0.1962 -0.0513
  465MOL0     C61268  10.668   3.335   5.469  0.0012 -0.0882  0.8381
  465MOL0     C61269  10.812   3.291   5.434  0.1738  0.4537 -0.2274
  465MOL0     C61270  10.920   3.398   5.492 -0.2803 -0.2739  0.7239
  465MOL0     C61271  11.048   3.401   5.408 -0.2817  0.4488  0.0057
  465MOL0     O61272  11.139   3.490   5.473  0.6705  0.1186  0.5267
  465MOL0     C61273  11.258   3.524   5.407 -0.5647  0.0161 -0.6209
  465MOL0     C61274  11.343   3.615   5.458  0.0655 -0.3756 -0.9794
  465MOL0     C61275  11.473   3.640   5.404 -0.4556  0.1939 -0.2597
  465MOL0     C61276  11.514   3.567   5.299 -0.6076  0.0751 -0.2830
  465MOL0     C61277  11.655   3.602   5.255 -0.3944  0.1980  0.4178
  465MOL0     O61278  11.715   3.719   5.302 -0.0486  0.3243  1.0891
  465MOL0     C61279  11.839   3.768   5.266 -0.3629  0.6717  0.2216
  465MOL0     C61280  11.943   3.671   5.253 -0.6995  0.1251  0.5675
  465MOL0     C61281  12.069   3.719   5.221  0.7427 -0.3230  0.0857
  465MOL0     C61282  12.091   3.855   5.184 -0.2710 -0.6321 -0.3079
  465MOL0     O61283  12.214   3.898   5.132  0.6116 -0.3611 -0.0588
  465MOL0     C61284  12.271   4.012   5.194  0.1774  0.1792  0.5162
  465MOL0     C61285  12.421   4.007   5.207  0.2475 -0.4326  0.3321
  465MOL0     C61286  12.488   3.872   5.275 -0.3835  0.5282 -0.1992
  465MOL0     C61287  12.638   3.889   5.277 -0.3108 -0.5638 -0.1745
  465MOL0     C61288  12.717   3.783   5.349  0.2178 -0.5733 -0.0589
  465MOL0     C61289  12.866   3.835   5.348  0.6645  0.5519 -0.4751
  465MOL0     C61290  12.957   3.726   5.401 -1.0660 -0.8304 -0.3351
  465MOL0     C61291  13.051   3.668   5.289 -0.0445  0.6436 -1.4302
  465MOL0    Cl61292  13.164   3.810   5.250 -0.5619 -0.0566 -0.3128
  465MOL0     C61293  11.991   3.943   5.207 -0.6236 -0.2926 -0.0744
  465MOL0     C61294  11.864   3.903   5.247 -0.0092  0.3481 -0.2169
  465MOL0     O61295  11.691   3.539   5.155 -0.1591  0.0165 -0.0654
  465MOL0     C61296  11.427   3.481   5.238 -0.3519  0.1919 -0.2938
  465MOL0     C61297  11.305   3.457   5.297  0.6035 -1.3322  0.7144
  465MOL0     N61298  10.546   3.140   5.577  0.2830 -0.0674 -0.4078
  465MOL0     N61299  10.437   3.077   5.552  0.3182  0.5512 -0.7439
  465MOL0     C61300  10.066   2.554   5.333 -0.7289  0.4608  0.0682
  465MOL0     C61301  10.180   2.492   5.311 -0.4333  0.8663 -0.3757
  465MOL0     C61302  10.484   2.171   5.344  0.2484 -0.0208  0.4663
  465MOL0     C61303  10.519   2.048   5.394  0.2081  0.2030 -0.3600
  465MOL0     C61304  10.646   1.984   5.378  0.2768 -0.6484  0.4079
  465MOL0     C61305  10.740   2.047   5.292 -0.0066  0.7648 -0.1993
  465MOL0     O61306  10.847   1.968   5.255 -0.1998 -0.7893 -0.7950
  465MOL0     C61307  10.937   2.027   5.155 -0.6027  0.0424 -0.3350
  465MOL0     C61308  11.066   1.949   5.138  0.4515 -0.0468 -0.2260
  465MOL0     C61309  11.140   1.894   5.260 -0.2398 -0.6104 -0.0180
  465MOL0     C61310  11.275   1.975   5.290  1.5231  0.1401  0.3366
  465MOL0     C61311  11.245   2.118   5.312  0.3250 -0.6864 -0.4791
  465MOL0     C61312  11.247   2.240   5.327  0.3244  0.2877  0.1877
  465MOL0     C61313  10.710   2.178   5.240  0.4664  0.2230 -0.2060
  465MOL0     C61314  10.585   2.236   5.267  1.2272  1.2404 -0.3084
  465MOL0     H61315  10.082   2.209   5.171  1.5291 -0.6475  1.3561
  465MOL0     H61316   9.855   2.310   5.222  0.6693  1.2760 -2.8073
  465MOL0     H61317   9.658   2.571   5.249  0.6177 -0.8729 -0.6636
  465MOL0     H61318   9.799   2.658   5.176 -0.3923 -1.0406 -0.1716
  465MOL0     H61319   9.640   2.734   5.426  0.0786 -2.5368 -0.1710
  465MOL0     H61320   9.631   2.806   5.274 -1.0516 -2.2270  1.1425
  465MOL0     H61321   9.909   2.831   5.287 -1.1577  1.2066 -1.0790
  465MOL0     H61322   9.885   2.809   5.459 -1.2563  1.2086  1.8657
  465MOL0     H61323   9.771   3.042   5.302  1.1300  2.2727  1.8443
  465MOL0     H61324   9.727   2.993   5.468  0.2170 -3.7878  1.4122
  465MOL0     H61325   9.977   3.002   5.526 -1.6584  2.1357  3.1524
  465MOL0     H61326   9.889   3.147   5.508  0.5570  0.5224 -0.9429
  465MOL0     H61327   9.981   3.167   5.272 -0.4727 -0.3050  0.7877
  465MOL0     H61328  10.041   3.003   5.268  2.1444 -1.7315  2.3710
  465MOL0     H61329  10.199   3.227   5.313  2.2034 -0.0989  0.3589
  465MOL0     H61330  10.160   3.181   5.472  0.6883  1.2040 -0.8234
  465MOL0     H61331  10.304   3.036   5.252 -0.6277  0.3210 -0.4413
  465MOL0     H61332  10.256   2.946   5.396 -0.0839  0.4816  2.1981
  465MOL0     H61333  10.455   3.244   5.279 -1.1545 -0.7643  0.7757
  465MOL0     H61334  10.661   3.369   5.573  1.2871 -1.1874  1.3157
  465MOL0     H61335  10.627   3.413   5.404 -0.3036 -1.5811 -0.8414
  465MOL0     H61336  10.819   3.292   5.325  1.3068  2.0365 -0.1778
  465MOL0     H61337  10.835   3.197   5.485 -0.4015  1.6768  2.4577
  465MOL0     H61338  10.871   3.496   5.493 -0.7757 -0.5151  0.7161
  465MOL0     H61339  10.936   3.369   5.596  1.6995  0.3117  0.6106
  465MOL0     H61340  11.030   3.420   5.302  0.1027 -4.3859 -1.1759
  465MOL0     H61341  11.084   3.298   5.415  0.8603  0.9081  1.2539
  465MOL0     H61342  11.320   3.669   5.549  0.8662 -1.2095 -0.2797
  465MOL0     H61343  11.543   3.713   5.443  0.2234  0.6092 -2.1205
  465MOL0     H61344  11.911   3.571   5.279 -2.8098  0.7477  0.5664
  465MOL0     H61345  12.165   3.672   5.238  1.2678  0.1301 -1.4376
  465MOL0     H61346  12.220   4.034   5.288  0.0358 -2.1656  1.0452
  465MOL0     H61347  12.250   4.097   5.129 -1.0922  0.2311  0.9738
  465MOL0     H61348  12.459   4.098   5.257  0.0407 -0.0270 -0.2461
  465MOL0     H61349  12.450   4.001   5.102  3.0922 -0.5021  1.0115
  465MOL0     H61350  12.464   3.786   5.212 -1.5838 -0.0628  1.0306
  465MOL0     H61351  12.449   3.853   5.375  2.5212 -1.3645  0.7098
  465MOL0     H61352  12.666   3.895   5.172 -0.0885  1.3168 -0.0404
  465MOL0     H61353  12.667   3.981   5.329  2.8503 -1.1198 -0.6938
  465MOL0     H61354  12.712   3.691   5.289 -0.5058 -0.8289  0.3898
  465MOL0     H61355  12.688   3.753   5.450  0.2765 -0.5977 -0.0489
  465MOL0     H61356  12.871   3.927   5.407  0.8668  1.4738 -1.8611
  465MOL0     H61357  12.896   3.865   5.247 -0.8063 -0.3883 -1.2295
  465MOL0     H61358  13.012   3.773   5.483  0.1247 -2.4272 -0.1605
  465MOL0     H61359  12.903   3.645   5.452  0.6037 -2.1419 -0.5330
  465MOL0     H61360  12.996   3.644   5.197  0.6211 -2.1167 -1.1808
  465MOL0     H61361  13.114   3.587   5.325 -2.0485 -0.6019 -0.5646
  465MOL0     H61362  11.989   4.049   5.184 -3.1245 -0.6327 -1.8267
  465MOL0     H61363  11.781   3.973   5.257 -0.4017  0.2560 -2.4394
  465MOL0     H61364  11.457   3.431   5.147 -1.0503  1.9153 -1.5228
  465MOL0     H61365  11.238   3.385   5.252 -2.6862  2.1563 -0.5038
  465MOL0     H61366  10.067   2.656   5.371 -0.0415  0.7935 -0.8048
  465MOL0     H61367  10.272   2.548   5.325  2.2181 -3.4826  1.7818
  465MOL0     H61368  10.456   1.992   5.463  2.4063  0.1959  1.7395
  465MOL0     H61369  10.653   1.885   5.423  2.8618 -1.6005 -1.8601
  465MOL0     H61370  10.959   2.129   5.188  0.3547  0.0486 -0.9431
  465MOL0     H61371  10.895   2.039   5.054  1.6703  2.9158 -1.0818
  465MOL0     H61372  11.040   1.859   5.083 -0.7372  1.2036 -1.7978
  465MOL0     H61373  11.129   2.009   5.071  1.2336 -0.2978  0.2634
  465MOL0     H61374  11.160   1.786   5.256  0.2391 -0.5917  1.4563
  465MOL0     H61375  11.074   1.904   5.346 -0.5198 -2.0105 -0.0421
  465MOL0     H61376  11.331   1.932   5.374 -1.0256 -1.0398  1.5547
  465MOL0     H61377  11.339   1.961   5.203  0.2108 -0.8088 -0.5127
  465MOL0     H61378  11.254   2.346   5.336 -1.7430  0.5846 -1.1210
  465MOL0     H61379  10.774   2.225   5.166  2.2537 -0.7977  0.6487
  465MOL0     H61380  10.543   2.328   5.227  2.2533  0.9683 -2.0980
  466MOL0     O61381   4.312   9.525   4.125  0.5877 -0.0077 -0.2280
  466MOL0     C61382   4.249   9.518   4.230 -0.1633  0.4215  0.4389
  466MOL0     O61383   4.289   9.557   4.352 -0.9966 -0.5183  0.1337
  466MOL0     C61384   4.418   9.602   4.380 -0.1336 -0.0136  0.1051
  466MOL0     C61385   4.438   9.677   4.492  0.9155 -0.3653 -0.8213
  466MOL0     C61386   4.562   9.721   4.537 -0.4064  0.6311  0.4523
  466MOL0     C61387   4.674   9.700   4.463 -0.2798  0.0575 -0.4988
  466MOL0     O61388   4.785   9.774   4.496 -0.2494  0.0223  0.8176
  466MOL0     C61389   4.914   9.730   4.457  0.0657  0.4212  0.1389
  466MOL0     C61390   5.037   9.813   4.500 -0.2717 -0.0070  0.0596
  466MOL0     C61391   5.049   9.930   4.410 -0.2556 -0.2900  0.3246
  466MOL0     C61392   5.116  10.035   4.503  0.1169 -0.1529 -0.1718
  466MOL0     C61393   5.164  10.156   4.416  0.4492  0.7087 -1.0997
  466MOL0     C61394   5.050  10.242   4.352  0.6592 -0.5558 -0.1355
  466MOL0     C61395   5.110  10.326   4.239  0.4027 -0.5854 -0.2984
  466MOL0     C61396   5.223  10.430   4.282 -0.6999 -0.1047  0.3100
  466MOL0     N61397   5.192  10.511   4.398 -0.3677 -0.5406 -0.3384
  466MOL0     C61398   5.095  10.606   4.416 -0.3743 -1.4460  0.1931
  466MOL0     C61399   5.105  10.648   4.546  0.3674 -0.1383  0.3863
  466MOL0     C61400   5.021  10.759   4.612 -0.6258  0.1759  0.0741
  466MOL0     C61401   4.868  10.749   4.584 -0.2418  0.4540  0.6367
  466MOL0     C61402   4.808  10.609   4.627  0.1746  0.1338  0.0489
  466MOL0     C61403   4.653  10.610   4.646  0.1084 -0.0737 -0.7527
  466MOL0     O61404   4.617  10.714   4.744  0.1972  1.1576 -0.1927
  466MOL0     C61405   4.479  10.715   4.776 -0.3613  0.0282  0.0452
  466MOL0     C61406   4.408  10.604   4.811 -0.2589 -0.5447  0.0349
  466MOL0     C61407   4.276  10.617   4.850  0.4033  0.4641  0.4140
  466MOL0     C61408   4.208  10.739   4.854  1.3305  0.2766  0.9754
  466MOL0     C61409   4.074  10.746   4.899  0.3939 -0.8235  0.8326
  466MOL0     O61410   4.032  10.645   4.978 -1.3637 -0.1162 -0.5526
  466MOL0     C61411   3.902  10.651   5.029  0.3093  0.1711  0.0109
  466MOL0     C61412   3.853  10.747   5.116  0.5941 -0.0815 -0.0808
  466MOL0     C61413   3.737  10.729   5.184 -0.6491 -0.2702  0.3165
  466MOL0     C61414   3.663  10.618   5.165  0.4147  0.1282  0.7620
  466MOL0     O61415   3.557  10.601   5.250 -0.1456 -0.5461  0.2083
  466MOL0     C61416   3.442  10.534   5.204 -0.3274 -0.4686 -0.0409
  466MOL0     C61417   3.332  10.538   5.307  0.3468 -0.4153 -0.4635
  466MOL0     C61418   3.211  10.461   5.264  0.1200  0.2082  0.0455
  466MOL0     C61419   3.116  10.426   5.380 -0.2350  0.5395 -0.1454
  466MOL0     C61420   2.984  10.363   5.331 -0.2231  0.3712 -0.2131
  466MOL0     C61421   2.875  10.381   5.443 -0.1157  0.0746  0.2014
  466MOL0     C61422   2.731  10.356   5.391 -0.0865  0.6245  0.3482
  466MOL0     C61423   2.621  10.346   5.503 -0.3291  0.6103 -0.5422
  466MOL0    Cl61424   2.469  10.281   5.419 -0.4254 -0.0797 -0.2158
  466MOL0     C61425   3.691  10.530   5.060  0.7378  0.3885  0.3897
  466MOL0     C61426   3.815  10.541   5.001  0.8080 -0.4218 -0.2395
  466MOL0     O61427   4.004  10.843   4.855 -0.6612  0.4101 -0.0859
  466MOL0     C61428   4.278  10.854   4.823 -0.7994  1.1262  0.3985
  466MOL0     C61429   4.413  10.843   4.787 -0.6026 -0.4076  0.4112
  466MOL0     N61430   5.212  10.578   4.601 -0.3357  0.1432  0.3861
  466MOL0     N61431   5.254  10.484   4.517 -0.9761 -0.4534  0.1893
  466MOL0     C61432   4.666   9.621   4.350 -0.1398  0.4283  0.2637
  466MOL0     C61433   4.537   9.566   4.307  0.2238 -0.3714 -0.8450
  466MOL0     C61434   4.110   9.462   4.218 -0.5280  0.7686 -0.4333
  466MOL0     C61435   4.076   9.383   4.106 -0.5993 -0.5123 -0.2230
  466MOL0     C61436   3.950   9.331   4.082  0.0188 -0.1674 -0.2473
  466MOL0     C61437   3.852   9.360   4.180 -0.8394 -0.0216  0.0920
  466MOL0     O61438   3.727   9.307   4.152 -0.2939  0.7413 -0.3298
  466MOL0     C61439   3.617   9.305   4.243 -0.6919 -0.2956  0.3796
  466MOL0     C61440   3.541   9.442   4.218 -0.5396  1.0469  0.3519
  466MOL0     C61441   3.416   9.457   4.301  0.0449 -0.6656  0.7823
  466MOL0     C61442   3.306   9.355   4.269 -0.1061  0.3657  0.6603
  466MOL0     C61443   3.192   9.391   4.348  0.4269 -0.5639 -0.5618
  466MOL0     C61444   3.079   9.414   4.398 -0.5164 -0.4444 -0.2915
  466MOL0     C61445   3.893   9.444   4.295  0.1723  0.2831  0.4279
  466MOL0     C61446   4.019   9.489   4.317  0.2506 -0.0417 -0.1666
  466MOL0     H61447   4.352   9.689   4.556 -0.2823  0.2845 -2.4852
  466MOL0     H61448   4.565   9.783   4.626  1.5967 -0.3778  1.1605
  466MOL0     H61449   4.927   9.732   4.348 -0.3944 -0.4600  0.0489
  466MOL0     H61450   4.928   9.631   4.502  0.1310  0.8077  0.9763
  466MOL0     H61451   5.124   9.747   4.489 -0.4121 -0.1046 -0.5469
  466MOL0     H61452   5.031   9.839   4.606 -0.2756  2.2134 -0.4188
  466MOL0     H61453   4.955   9.977   4.379  0.2377  1.1944  1.0058
  466MOL0     H61454   5.115   9.900   4.328  0.9535 -0.9689  1.4900
  466MOL0     H61455   5.039  10.062   4.577 -1.1762 -1.7336 -0.8902
  466MOL0     H61456   5.203   9.986   4.549  0.7248  0.2370 -0.8918
  466MOL0     H61457   5.229  10.122   4.335 -2.5874  0.3696 -3.5832
  466MOL0     H61458   5.212  10.226   4.485 -2.3549  0.5122  1.2903
  466MOL0     H61459   5.007  10.308   4.428 -1.4972  0.3468 -2.0382
  466MOL0     H61460   4.965  10.179   4.325 -2.4616  2.1874  2.3411
  466MOL0     H61461   5.151  10.260   4.162  3.0896  1.0663 -0.4169
  466MOL0     H61462   5.017  10.375   4.213  1.2971  1.4739  0.1761
  466MOL0     H61463   5.252  10.496   4.200  0.6216 -0.3454  0.5598
  466MOL0     H61464   5.313  10.370   4.302 -0.8018 -1.2283 -2.1779
  466MOL0     H61465   5.022  10.642   4.345  0.1023 -3.0585 -1.1879
  466MOL0     H61466   5.062  10.859   4.595  1.4660 -0.7716 -0.7649
  466MOL0     H61467   5.033  10.737   4.718 -1.4850  0.4114  0.2254
  466MOL0     H61468   4.855  10.772   4.478  2.6231  1.0060  0.3480
  466MOL0     H61469   4.814  10.824   4.644  0.5304 -0.1796  2.1640
  466MOL0     H61470   4.827  10.537   4.547 -5.8352  0.4209 -2.1761
  466MOL0     H61471   4.855  10.574   4.719 -0.3166 -1.4804 -0.2821
  466MOL0     H61472   4.624  10.513   4.689  2.7692  0.1097  1.7970
  466MOL0     H61473   4.599  10.620   4.551 -0.5938  2.6748 -0.1555
  466MOL0     H61474   4.455  10.508   4.828  1.2312 -0.2442 -2.0117
  466MOL0     H61475   4.219  10.528   4.879  1.4129 -0.6864 -0.9750
  466MOL0     H61476   3.922  10.829   5.134  0.3528  0.2653 -0.7020
  466MOL0     H61477   3.705  10.792   5.266  0.0581 -0.5622  0.8243
  466MOL0     H61478   3.457  10.426   5.193 -0.4617 -0.3913 -1.1087
  466MOL0     H61479   3.402  10.579   5.112 -0.0003 -2.6231 -1.3135
  466MOL0     H61480   3.296  10.640   5.324  0.6813 -0.4550  0.5573
  466MOL0     H61481   3.372  10.496   5.400  1.2018 -1.4504 -1.2784
  466MOL0     H61482   3.241  10.366   5.220 -1.0569  0.2856 -0.9797
  466MOL0     H61483   3.146  10.513   5.193  0.2288  1.6234  0.9455
  466MOL0     H61484   3.165  10.347   5.437  0.4891 -0.6499 -2.2771
  466MOL0     H61485   3.086  10.516   5.433 -3.5580 -0.8696  0.5862
  466MOL0     H61486   3.001  10.259   5.302 -0.2801  0.3569 -0.1913
  466MOL0     H61487   2.952  10.412   5.238 -0.0773 -0.6517 -0.8262
  466MOL0     H61488   2.874  10.484   5.481  2.6067  0.0558  0.5732
  466MOL0     H61489   2.900  10.311   5.523  1.8221 -2.0079 -2.0495
  466MOL0     H61490   2.706  10.434   5.319  1.0530 -0.6267 -1.4914
  466MOL0     H61491   2.733  10.262   5.336 -0.5071 -0.9388  2.8089
  466MOL0     H61492   2.598  10.445   5.544  3.7711  1.2015  0.7510
  466MOL0     H61493   2.642  10.283   5.590 -0.2461 -0.3101 -1.2132
  466MOL0     H61494   3.639  10.438   5.035  1.7108  0.3129 -1.5622
  466MOL0     H61495   3.842  10.451   4.945  0.2079 -0.9847  0.3547
  466MOL0     H61496   4.221  10.947   4.822  2.0631  3.1823  3.8871
  466MOL0     H61497   4.469  10.936   4.781 -1.8898  0.7115  3.4796
  466MOL0     H61498   4.757   9.579   4.309 -1.2363 -1.3918 -0.4426
  466MOL0     H61499   4.538   9.517   4.211  2.5696  1.3009 -1.7343
  466MOL0     H61500   4.147   9.370   4.025  0.9369 -0.5918  1.0675
  466MOL0     H61501   3.930   9.269   3.996  1.0836 -0.3691 -0.3720
  466MOL0     H61502   3.658   9.298   4.344 -0.6566 -0.4397  0.3548
  466MOL0     H61503   3.555   9.217   4.226  3.3677 -3.0963 -1.5045
  466MOL0     H61504   3.614   9.518   4.246  1.6808 -0.0428 -2.1092
  466MOL0     H61505   3.524   9.444   4.110  1.9989 -2.5193 -0.2697
  466MOL0     H61506   3.380   9.559   4.283  2.8692  0.2316 -0.4800
  466MOL0     H61507   3.449   9.453   4.405  1.5914 -0.7889  0.3172
  466MOL0     H61508   3.279   9.370   4.164  2.3120  0.4615 -0.0230
  466MOL0     H61509   3.345   9.259   4.301  2.5186  0.9877 -0.3976
  466MOL0     H61510   2.976   9.408   4.424 -1.0393  1.7299 -1.6628
  466MOL0     H61511   3.817   9.471   4.368 -2.1845  0.4184 -1.9320
  466MOL0     H61512   4.039   9.551   4.404  1.7720  2.0705 -1.8932
  467MOL0     O61513   0.316   3.977   2.416  0.3167  1.0458 -0.2138
  467MOL0     C61514   0.331   4.081   2.484 -0.6499  0.3542  0.4800
  467MOL0     O61515   0.237   4.168   2.516 -0.6794 -0.5709 -0.1699
  467MOL0     C61516   0.124   4.161   2.439 -0.8236 -0.1032 -0.4509
  467MOL0     C61517  -0.001   4.168   2.491  0.7864  0.6110  0.5974
  467MOL0     C61518  -0.115   4.185   2.405 -0.1875  0.8756 -0.2594
  467MOL0     C61519  -0.103   4.186   2.259  0.1945 -0.0333 -1.3584
  467MOL0     O61520  -0.208   4.194   2.173  0.4482  0.2324  0.0247
  467MOL0     C61521  -0.344   4.224   2.215 -0.2171  0.5210  0.7634
  467MOL0     C61522  -0.404   4.088   2.247  0.4684 -0.5129  0.3082
  467MOL0     C61523  -0.552   4.095   2.285  0.2031  0.3542 -0.9290
  467MOL0     C61524  -0.604   3.947   2.275 -0.6905  0.0897 -0.1056
  467MOL0     C61525  -0.740   3.934   2.331 -0.3634  0.3086 -0.6599
  467MOL0     C61526  -0.792   3.786   2.318  0.6526  0.8068  0.7960
  467MOL0     C61527  -0.939   3.784   2.357  0.4302 -0.2930  0.6196
  467MOL0     C61528  -1.012   3.657   2.341  0.0863  0.4459  0.2396
  467MOL0     N61529  -1.153   3.683   2.359  0.3033  0.5502 -0.2454
  467MOL0     C61530  -1.237   3.649   2.257 -0.6278 -0.7814  0.9617
  467MOL0     C61531  -1.367   3.634   2.308  0.3925 -0.2293 -0.4513
  467MOL0     C61532  -1.484   3.594   2.222 -0.1497 -0.3536  0.2381
  467MOL0     C61533  -1.607   3.661   2.263  0.1997 -0.4438 -0.8190
  467MOL0     C61534  -1.724   3.642   2.160 -0.3230 -0.6517  0.3333
  467MOL0     C61535  -1.851   3.722   2.192 -0.3848 -0.3649  0.3912
  467MOL0     O61536  -1.953   3.676   2.104 -0.4310 -0.4803  0.1237
  467MOL0     C61537  -2.082   3.718   2.113  0.9703  0.4222 -0.8626
  467MOL0     C61538  -2.123   3.815   2.202  0.3684 -0.1337 -0.3856
  467MOL0     C61539  -2.254   3.847   2.219  0.6066  0.1193 -0.9089
  467MOL0     C61540  -2.349   3.793   2.129  0.8560 -0.5420  0.7880
  467MOL0     C61541  -2.492   3.826   2.129 -0.0452 -0.1539  0.1435
  467MOL0     O61542  -2.532   3.895   2.240 -0.3121 -0.8791  0.2708
  467MOL0     C61543  -2.659   3.935   2.251  0.5785  0.8421  0.7927
  467MOL0     C61544  -2.746   3.832   2.261  0.0973 -0.1242  0.0003
  467MOL0     C61545  -2.884   3.863   2.282  0.7198 -0.0545  0.2419
  467MOL0     C61546  -2.932   3.989   2.301  0.0325  0.3063 -0.1730
  467MOL0     O61547  -3.065   4.027   2.319  0.2609  0.1311 -0.3199
  467MOL0     C61548  -3.146   3.948   2.400 -0.2681  0.3792 -0.9856
  467MOL0     C61549  -3.292   3.998   2.405  0.3097 -0.0342  0.7597
  467MOL0     C61550  -3.379   3.905   2.484  0.3526  0.8463 -1.2276
  467MOL0     C61551  -3.509   3.978   2.521  0.8573 -0.1351  0.4615
  467MOL0     C61552  -3.598   3.868   2.591 -0.8385  0.2421 -0.7636
  467MOL0     C61553  -3.735   3.926   2.627  0.8832 -0.1283 -0.0470
  467MOL0     C61554  -3.861   3.829   2.643 -0.1649 -0.1817 -0.4671
  467MOL0     C61555  -3.833   3.722   2.749  0.0699 -1.0888  0.2216
  467MOL0    Cl61556  -3.917   3.573   2.715  0.5737  0.8238 -0.2042
  467MOL0     C61557  -2.837   4.089   2.275  0.6181  0.4034 -1.0627
  467MOL0     C61558  -2.704   4.062   2.260  0.1779 -0.8942  0.4105
  467MOL0     O61559  -2.564   3.795   2.032  0.3699 -0.6069  0.0872
  467MOL0     C61560  -2.309   3.691   2.041 -0.8724  0.2158  0.4647
  467MOL0     C61561  -2.175   3.652   2.033  0.0557  0.0161 -0.1145
  467MOL0     N61562  -1.355   3.664   2.444 -0.2920 -0.4619 -0.2062
  467MOL0     N61563  -1.224   3.693   2.473 -0.2238 -0.6691  0.5163
  467MOL0     C61564   0.026   4.187   2.212 -0.6077  0.9228  0.6399
  467MOL0     C61565   0.142   4.176   2.301  0.5974  0.1859  0.3800
  467MOL0     C61566   0.468   4.110   2.533  0.1522  0.0203 -0.5832
  467MOL0     C61567   0.578   4.020   2.504 -0.7399  0.7581  0.0065
  467MOL0     C61568   0.710   4.049   2.547 -0.3695 -0.9917  0.3492
  467MOL0     C61569   0.734   4.162   2.631  0.8983 -0.3301  0.0303
  467MOL0     O61570   0.847   4.204   2.698  0.2538 -0.4752  0.0449
  467MOL0     C61571   0.959   4.117   2.700 -0.0964  0.7067  0.2701
  467MOL0     C61572   1.060   4.152   2.592 -0.1078  0.3737  0.2666
  467MOL0     C61573   1.189   4.061   2.585 -0.1130 -0.7480 -1.0518
  467MOL0     C61574   1.221   3.963   2.696  0.3855 -0.8902 -0.5060
  467MOL0     C61575   1.350   3.894   2.673  0.0119  0.1396  0.2174
  467MOL0     C61576   1.459   3.846   2.653 -0.0271  0.0238 -0.7164
  467MOL0     C61577   0.627   4.241   2.667  0.2264 -0.3744 -0.3266
  467MOL0     C61578   0.495   4.218   2.612 -0.5515  0.1929 -0.6446
  467MOL0     H61579  -0.018   4.160   2.597 -1.2036 -1.3600  0.2048
  467MOL0     H61580  -0.213   4.192   2.452  0.4660  3.1987  0.9260
  467MOL0     H61581  -0.391   4.258   2.123 -0.4540 -1.7852 -0.0180
  467MOL0     H61582  -0.350   4.294   2.299 -0.5234 -0.2353  1.3906
  467MOL0     H61583  -0.356   4.036   2.331  0.7372  3.3776  2.8446
  467MOL0     H61584  -0.387   4.022   2.162 -3.4720 -2.5661  0.8799
  467MOL0     H61585  -0.611   4.155   2.215 -0.8095 -1.4748 -1.7189
  467MOL0     H61586  -0.563   4.133   2.387  1.9364  2.8868 -1.5746
  467MOL0     H61587  -0.604   3.911   2.172  0.3711 -1.2400  0.3417
  467MOL0     H61588  -0.534   3.881   2.327 -1.4027 -0.1005  0.6397
  467MOL0     H61589  -0.818   3.998   2.289 -1.3193 -0.6689 -0.4179
  467MOL0     H61590  -0.724   3.955   2.437 -1.0158  0.5925 -0.6094
  467MOL0     H61591  -0.734   3.717   2.380  0.0511 -1.9625 -1.4638
  467MOL0     H61592  -0.783   3.756   2.213 -1.7346 -0.7302  0.9322
  467MOL0     H61593  -0.958   3.832   2.454  0.8773  2.2906 -0.4732
  467MOL0     H61594  -0.971   3.855   2.280  3.9465  0.7482 -0.0595
  467MOL0     H61595  -0.975   3.588   2.416  0.5975  1.5169  1.0015
  467MOL0     H61596  -0.994   3.628   2.237 -1.5007  2.8059 -0.8033
  467MOL0     H61597  -1.210   3.645   2.152  0.7472  0.2457  1.2511
  467MOL0     H61598  -1.497   3.486   2.215  1.8428 -0.5765 -5.2333
  467MOL0     H61599  -1.465   3.616   2.116  0.7880  0.5549  0.5737
  467MOL0     H61600  -1.589   3.767   2.283  1.2363 -0.0826 -3.4023
  467MOL0     H61601  -1.637   3.614   2.358  1.7003 -2.0598 -1.1087
  467MOL0     H61602  -1.687   3.690   2.069  1.9560  0.8278  1.9436
  467MOL0     H61603  -1.753   3.537   2.148  1.0664 -1.0884  0.5423
  467MOL0     H61604  -1.831   3.829   2.200 -1.2080 -0.3202  3.0024
  467MOL0     H61605  -1.886   3.695   2.293 -2.2790  0.2093 -0.0641
  467MOL0     H61606  -2.052   3.870   2.264 -0.8126  1.7300 -0.5867
  467MOL0     H61607  -2.271   3.930   2.287 -3.7293 -0.0314 -1.4951
  467MOL0     H61608  -2.709   3.731   2.269  3.3147  0.7314 -2.0630
  467MOL0     H61609  -2.952   3.779   2.287  0.2342 -0.1653 -4.4212
  467MOL0     H61610  -3.105   3.939   2.501 -0.8668 -0.3481 -0.8027
  467MOL0     H61611  -3.140   3.848   2.356  1.7840 -0.1801  0.3993
  467MOL0     H61612  -3.323   3.984   2.301  1.9287 -2.6664  0.5495
  467MOL0     H61613  -3.299   4.103   2.436  0.1347  0.4425 -0.7823
  467MOL0     H61614  -3.331   3.883   2.580 -2.3206 -2.6334 -0.4872
  467MOL0     H61615  -3.394   3.804   2.443  1.0438 -0.1617  0.8533
  467MOL0     H61616  -3.499   4.061   2.591 -0.7834  1.2997 -0.9000
  467MOL0     H61617  -3.557   4.011   2.428  1.4465 -0.6650 -0.0426
  467MOL0     H61618  -3.538   3.844   2.680  1.1508  0.9397 -1.8427
  467MOL0     H61619  -3.614   3.775   2.535 -2.2103  0.0238 -0.0392
  467MOL0     H61620  -3.757   3.996   2.546  1.6434 -1.6201 -1.5804
  467MOL0     H61621  -3.739   3.991   2.716 -0.6326  0.4401 -0.4960
  467MOL0     H61622  -3.947   3.893   2.662 -0.2535  0.8911 -3.8318
  467MOL0     H61623  -3.873   3.779   2.547  1.4484 -0.1989 -0.6922
  467MOL0     H61624  -3.859   3.763   2.847  2.2041  1.5657 -0.2161
  467MOL0     H61625  -3.725   3.702   2.751  0.8209  2.3649 -0.8327
  467MOL0     H61626  -2.873   4.190   2.257  1.3953  0.3174 -3.4951
  467MOL0     H61627  -2.632   4.140   2.236  0.2523 -1.1303 -0.1314
  467MOL0     H61628  -2.374   3.648   1.965  1.2717  3.2953 -3.4956
  467MOL0     H61629  -2.141   3.572   1.968  1.5433  0.7432 -0.2679
  467MOL0     H61630   0.035   4.195   2.104 -0.1387  1.7921  0.7330
  467MOL0     H61631   0.237   4.188   2.249 -0.5084  5.0288 -0.9994
  467MOL0     H61632   0.565   3.932   2.443  1.2810  1.4799 -1.5898
  467MOL0     H61633   0.788   3.978   2.523  2.2624  1.5358  0.9572
  467MOL0     H61634   0.928   4.012   2.700 -0.3797  0.7786  1.5729
  467MOL0     H61635   1.007   4.139   2.795  1.1470  1.3418 -0.4708
  467MOL0     H61636   1.018   4.152   2.491 -2.1068  0.0183  1.0468
  467MOL0     H61637   1.084   4.257   2.615  1.3856  0.1486 -0.1821
  467MOL0     H61638   1.270   4.135   2.583 -0.2763 -0.4345  1.1214
  467MOL0     H61639   1.192   4.009   2.489  2.8133  1.1109 -2.1023
  467MOL0     H61640   1.238   4.021   2.787  1.1741 -2.6669  0.5423
  467MOL0     H61641   1.137   3.897   2.720 -0.8281  1.5266  2.4442
  467MOL0     H61642   1.556   3.805   2.634 -0.1141 -0.2020 -0.6752
  467MOL0     H61643   0.647   4.317   2.741  1.9363 -0.8072 -0.2952
  467MOL0     H61644   0.415   4.287   2.634  0.8285  1.9284 -0.8334
  468MOL0     O61645   0.275   5.663   6.111  0.1985 -0.3513  0.1422
  468MOL0     C61646   0.351   5.748   6.081  0.0664 -0.5994 -0.4353
  468MOL0     O61647   0.336   5.885   6.111  0.2714 -0.5205 -0.0023
  468MOL0     C61648   0.225   5.927   6.175  0.4840  0.0392  0.5444
  468MOL0     C61649   0.233   6.019   6.277  0.7072  0.0885 -0.0583
  468MOL0     C61650   0.123   6.092   6.319 -0.5130 -0.3121 -0.1188
  468MOL0     C61651  -0.006   6.057   6.283  0.2438 -0.2297 -0.7384
  468MOL0     O61652  -0.106   6.129   6.346 -0.3397  0.7458  0.2544
  468MOL0     C61653  -0.240   6.128   6.293 -0.0149  0.4236  0.1776
  468MOL0     C61654  -0.329   6.202   6.384 -0.6480 -0.8205  0.6256
  468MOL0     C61655  -0.470   6.199   6.327 -0.6197 -1.0496  0.2600
  468MOL0     C61656  -0.575   6.224   6.437 -0.2101 -0.5034 -0.1505
  468MOL0     C61657  -0.720   6.240   6.394 -0.0831  0.2810  0.7583
  468MOL0     C61658  -0.727   6.353   6.291  0.9719 -0.3344  0.8363
  468MOL0     C61659  -0.863   6.397   6.272  0.3523 -0.4018  0.9134
  468MOL0     C61660  -0.876   6.528   6.180 -0.2653 -0.4010 -0.0186
  468MOL0     N61661  -1.020   6.557   6.151  0.4506 -0.3887  0.1415
  468MOL0     C61662  -1.126   6.568   6.242  0.3793  0.0077  0.1518
  468MOL0     C61663  -1.236   6.577   6.162  0.6917 -0.3898 -0.6449
  468MOL0     C61664  -1.372   6.576   6.236 -0.4832 -0.0440  0.7472
  468MOL0     C61665  -1.484   6.579   6.130  0.4921 -0.4575  0.6336
  468MOL0     C61666  -1.501   6.712   6.060 -1.0879  0.7483 -0.3397
  468MOL0     C61667  -1.615   6.705   5.952  0.5467 -0.2283  0.3638
  468MOL0     O61668  -1.740   6.699   6.016  0.0513  0.8067  0.1576
  468MOL0     C61669  -1.853   6.723   5.941  0.2279  0.4022 -0.4594
  468MOL0     C61670  -1.981   6.682   5.990 -0.3126  0.1110  0.7478
  468MOL0     C61671  -2.103   6.709   5.923 -0.1391  0.4619 -0.0240
  468MOL0     C61672  -2.103   6.773   5.797 -0.8375 -0.1694 -0.0335
  468MOL0     C61673  -2.233   6.797   5.721 -0.5232  0.6132 -0.5240
  468MOL0     O61674  -2.344   6.791   5.795  0.2078 -0.3693  0.1743
  468MOL0     C61675  -2.476   6.806   5.756  0.6327  0.2644  0.0616
  468MOL0     C61676  -2.527   6.865   5.635 -1.2831  1.1480 -0.0972
  468MOL0     C61677  -2.665   6.872   5.615  0.5137  0.2282 -0.5899
  468MOL0     C61678  -2.755   6.803   5.705  0.0846  0.5913 -0.3268
  468MOL0     O61679  -2.887   6.785   5.684 -0.1990 -0.8284  0.2062
  468MOL0     C61680  -2.964   6.907   5.666 -0.7374  0.3627  0.3676
  468MOL0     C61681  -2.983   6.984   5.793  0.8145  0.0755 -0.0390
  468MOL0     C61682  -3.061   6.898   5.894 -0.1160  0.3611  0.4554
  468MOL0     C61683  -3.206   6.870   5.849 -1.4835  0.2553 -0.8727
  468MOL0     C61684  -3.279   6.845   5.977 -0.3462  0.1020 -0.2240
  468MOL0     C61685  -3.416   6.800   5.963 -0.3939 -0.1074 -0.2019
  468MOL0     C61686  -3.475   6.743   6.088 -0.9752  0.1060 -0.1757
  468MOL0     C61687  -3.596   6.656   6.057  0.6594  0.2074 -0.4693
  468MOL0    Cl61688  -3.652   6.566   6.204  0.2386  0.2525 -0.1386
  468MOL0     C61689  -2.692   6.738   5.818 -0.1861 -0.7795 -0.8858
  468MOL0     C61690  -2.559   6.742   5.839 -0.3163 -0.7964  0.4508
  468MOL0     O61691  -2.223   6.815   5.603  0.1964 -0.0375  0.1941
  468MOL0     C61692  -1.979   6.805   5.742  0.4774 -0.2747  0.3198
  468MOL0     C61693  -1.854   6.784   5.808 -0.0401  0.8095  1.0575
  468MOL0     N61694  -1.199   6.571   6.025 -0.2196  0.5210 -0.2361
  468MOL0     N61695  -1.070   6.563   6.022 -0.4796 -0.2921 -0.7011
  468MOL0     C61696  -0.022   5.962   6.184 -0.1823  0.3677  0.0352
  468MOL0     C61697   0.095   5.901   6.128  0.2858  0.0255 -1.2134
  468MOL0     C61698   0.477   5.704   6.012 -0.4671  0.1249 -0.8086
  468MOL0     C61699   0.509   5.567   5.996  0.5623 -0.6676  0.4557
  468MOL0     C61700   0.621   5.524   5.919 -0.7155 -0.1424  0.0607
  468MOL0     C61701   0.709   5.617   5.853 -0.5637 -0.6183 -0.1018
  468MOL0     O61702   0.817   5.586   5.777 -0.9515  0.5064  0.1843
  468MOL0     C61703   0.842   5.444   5.743 -0.0835 -0.4656 -0.1480
  468MOL0     C61704   0.732   5.391   5.647 -0.0267 -0.1335 -0.0329
  468MOL0     C61705   0.796   5.272   5.557 -0.6279  0.1105 -0.0331
  468MOL0     C61706   0.706   5.243   5.432 -0.1855  0.8320  0.2571
  468MOL0     C61707   0.750   5.336   5.326  0.1983  0.2868 -0.1859
  468MOL0     C61708   0.804   5.390   5.237  0.3955 -0.2519 -0.0175
  468MOL0     C61709   0.680   5.756   5.880 -0.2536 -0.6058 -0.5598
  468MOL0     C61710   0.563   5.792   5.949 -0.3063 -1.6364 -0.3484
  468MOL0     H61711   0.334   6.039   6.312  1.1430 -0.2206 -1.1256
  468MOL0     H61712   0.131   6.171   6.393 -1.7794  0.0904 -0.3981
  468MOL0     H61713  -0.273   6.024   6.293  0.9673 -0.0347 -3.4808
  468MOL0     H61714  -0.241   6.183   6.198 -2.1875  0.2282  0.0542
  468MOL0     H61715  -0.299   6.303   6.414 -1.6901 -0.6650  1.1785
  468MOL0     H61716  -0.332   6.145   6.477 -2.3661 -2.7811 -0.5633
  468MOL0     H61717  -0.490   6.103   6.279 -0.7195 -0.5825 -0.6656
  468MOL0     H61718  -0.477   6.257   6.234  1.0751 -1.8162 -0.3853
  468MOL0     H61719  -0.564   6.134   6.499  1.8468 -0.5264 -0.4856
  468MOL0     H61720  -0.537   6.315   6.484  1.7966 -0.4701 -1.7221
  468MOL0     H61721  -0.786   6.254   6.480 -3.6409  0.5592 -1.8111
  468MOL0     H61722  -0.757   6.149   6.345 -0.0870  0.4018  0.5358
  468MOL0     H61723  -0.686   6.318   6.196 -0.5050 -1.4765  0.5891
  468MOL0     H61724  -0.667   6.439   6.321 -0.7918  1.3475 -0.2085
  468MOL0     H61725  -0.909   6.316   6.215  0.4289 -0.0358  0.3123
  468MOL0     H61726  -0.918   6.416   6.364 -1.8540  0.2102 -0.4635
  468MOL0     H61727  -0.825   6.513   6.084 -1.5135  0.2227 -0.8060
  468MOL0     H61728  -0.826   6.616   6.221  0.8296  0.0285 -2.1459
  468MOL0     H61729  -1.120   6.575   6.350 -2.4738 -0.5657  0.4279
  468MOL0     H61730  -1.386   6.648   6.318  0.5011 -2.4027  3.1154
  468MOL0     H61731  -1.371   6.480   6.288  2.8566  1.1259  3.1893
  468MOL0     H61732  -1.573   6.553   6.189 -2.4090  0.2292 -3.0391
  468MOL0     H61733  -1.451   6.509   6.053  0.6801 -0.9022  1.1138
  468MOL0     H61734  -1.534   6.794   6.125 -1.1442  0.3393  0.1621
  468MOL0     H61735  -1.412   6.731   6.000 -1.3638  1.4465 -0.5398
  468MOL0     H61736  -1.594   6.618   5.889  0.5773  1.2963 -1.8376
  468MOL0     H61737  -1.611   6.790   5.884 -1.6541 -0.3242  0.0621
  468MOL0     H61738  -1.993   6.635   6.087 -1.8800  0.4182  0.7387
  468MOL0     H61739  -2.197   6.685   5.971 -0.0117 -0.7722 -0.3360
  468MOL0     H61740  -2.447   6.908   5.575  1.5924 -0.5279  2.2393
  468MOL0     H61741  -2.701   6.908   5.519  1.4513 -2.0217 -1.8803
  468MOL0     H61742  -3.067   6.897   5.630 -0.4763  3.0227 -1.4520
  468MOL0     H61743  -2.928   6.979   5.591 -0.4513 -0.0510  0.1049
  468MOL0     H61744  -3.038   7.075   5.766  0.3508  0.2492  1.3936
  468MOL0     H61745  -2.885   7.022   5.823  0.2779  0.6281  1.0749
  468MOL0     H61746  -3.065   6.961   5.984  0.5813  1.3899 -0.2181
  468MOL0     H61747  -3.013   6.804   5.921  0.3425  0.4889  0.0933
  468MOL0     H61748  -3.256   6.957   5.804 -2.7394  0.4719  0.8051
  468MOL0     H61749  -3.203   6.784   5.782  2.6220 -3.2132  3.1442
  468MOL0     H61750  -3.280   6.934   6.041  1.2780  0.6367 -0.9047
  468MOL0     H61751  -3.227   6.765   6.030 -1.7330  0.6355  2.1014
  468MOL0     H61752  -3.418   6.735   5.874 -1.2837  0.2910 -0.4914
  468MOL0     H61753  -3.467   6.895   5.943  1.7982  1.2235  0.2696
  468MOL0     H61754  -3.406   6.679   6.145  0.6600 -0.4113 -2.5486
  468MOL0     H61755  -3.504   6.833   6.142 -2.5141  0.9290 -2.2088
  468MOL0     H61756  -3.557   6.582   5.986 -0.2293  0.4576 -1.2464
  468MOL0     H61757  -3.677   6.720   6.018  0.1808  0.3216  0.6946
  468MOL0     H61758  -2.758   6.687   5.888 -0.8828  0.9629 -0.2272
  468MOL0     H61759  -2.515   6.697   5.928  0.3520 -0.4085  0.3306
  468MOL0     H61760  -1.980   6.842   5.640  0.5421 -2.2147 -0.4337
  468MOL0     H61761  -1.765   6.805   5.751 -1.4078  2.5423 -0.5356
  468MOL0     H61762  -0.119   5.925   6.151 -0.1494  0.0896  0.2544
  468MOL0     H61763   0.075   5.823   6.055 -2.3551 -2.0557  1.4704
  468MOL0     H61764   0.449   5.494   6.050  0.5987 -1.4552 -0.5542
  468MOL0     H61765   0.637   5.416   5.923  1.3167  0.1556  2.4205
  468MOL0     H61766   0.845   5.371   5.824  0.1147  0.6511  0.8821
  468MOL0     H61767   0.940   5.442   5.693  0.6552 -2.1037  1.2870
  468MOL0     H61768   0.648   5.355   5.707  1.6704 -0.8737  1.9888
  468MOL0     H61769   0.702   5.469   5.576  1.6936  0.1797 -0.4720
  468MOL0     H61770   0.803   5.182   5.619  2.8535 -0.1832 -0.6929
  468MOL0     H61771   0.901   5.284   5.529 -0.7808 -3.6443 -3.0830
  468MOL0     H61772   0.720   5.141   5.397 -2.7311  0.7459 -0.7284
  468MOL0     H61773   0.600   5.267   5.440 -0.2555  0.5940  0.0214
  468MOL0     H61774   0.837   5.440   5.148 -1.6649 -2.0326 -1.9346
  468MOL0     H61775   0.737   5.833   5.829  4.4459 -1.2486  3.0448
  468MOL0     H61776   0.537   5.898   5.954  1.3828 -1.2075 -0.0040
  469MOL0     O61777   2.912  10.860   9.173 -0.4973  0.0702 -0.1089
  469MOL0     C61778   2.943  10.961   9.235  0.0533  0.6979 -0.6111
  469MOL0     O61779   3.032  11.054   9.195  0.8670 -0.5081  0.5461
  469MOL0     C61780   3.118  11.045   9.089  0.7905 -0.3346 -0.0041
  469MOL0     C61781   3.157  11.165   9.024  0.0276  0.5052 -0.5301
  469MOL0     C61782   3.226  11.153   8.903 -0.2100  0.4171 -0.2626
  469MOL0     C61783   3.268  11.027   8.849 -0.8202 -0.0082  0.0940
  469MOL0     O61784   3.352  11.017   8.735  0.2799  0.2424 -0.7263
  469MOL0     C61785   3.292  11.080   8.624  0.0202  0.3482  0.3251
  469MOL0     C61786   3.353  11.028   8.496  0.0360 -0.8304 -0.2881
  469MOL0     C61787   3.318  10.877   8.467  0.6837 -0.5375  0.0344
  469MOL0     C61788   3.165  10.865   8.441  0.8701  0.3536 -0.3380
  469MOL0     C61789   3.097  10.735   8.382  0.6087 -0.3431  0.2731
  469MOL0     C61790   3.169  10.679   8.257  0.2145 -0.6382  0.4373
  469MOL0     C61791   3.086  10.598   8.163  0.0355  0.1507  0.0671
  469MOL0     C61792   2.951  10.664   8.126  0.5295 -0.4929  0.4534
  469MOL0     N61793   2.904  10.593   8.003  0.6078 -0.4210  0.6678
  469MOL0     C61794   2.855  10.658   7.891 -0.2645  0.6592  0.1130
  469MOL0     C61795   2.821  10.562   7.809 -0.0306 -0.1233  0.4612
  469MOL0     C61796   2.780  10.593   7.673 -0.6866  1.0744  0.6441
  469MOL0     C61797   2.623  10.615   7.660  0.0609  0.3682 -0.8348
  469MOL0     C61798   2.591  10.633   7.510 -0.9203  0.2735  0.8585
  469MOL0     C61799   2.451  10.684   7.499 -0.0479 -0.3797 -0.1712
  469MOL0     O61800   2.451  10.819   7.537 -0.6104 -0.0302 -0.5001
  469MOL0     C61801   2.341  10.880   7.596 -1.0721 -0.5500 -0.4245
  469MOL0     C61802   2.316  11.017   7.561  0.6949 -0.0507  0.1349
  469MOL0     C61803   2.200  11.084   7.602 -0.4802 -0.3151  0.2887
  469MOL0     C61804   2.106  11.024   7.693 -1.0164 -0.8061 -0.0925
  469MOL0     C61805   1.982  11.099   7.734  0.0997  0.0064  0.2531
  469MOL0     O61806   1.910  11.043   7.835  0.1817 -0.2123 -0.3765
  469MOL0     C61807   1.779  11.086   7.843  0.9955 -0.8618 -0.5266
  469MOL0     C61808   1.749  11.207   7.908  0.0642  0.1337  0.2617
  469MOL0     C61809   1.617  11.248   7.923  0.0186  0.1162  0.3100
  469MOL0     C61810   1.518  11.181   7.853  0.9821  0.1840  0.1077
  469MOL0     O61811   1.387  11.224   7.860 -1.0076  0.1369  0.3709
  469MOL0     C61812   1.364  11.361   7.811 -0.7022  0.1427  0.0034
  469MOL0     C61813   1.367  11.383   7.663 -0.1182 -0.6166  0.3531
  469MOL0     C61814   1.297  11.500   7.602  1.0872 -0.3728 -0.3765
  469MOL0     C61815   1.266  11.471   7.455 -0.1049  0.1457 -0.0216
  469MOL0     C61816   1.145  11.555   7.385 -0.2953 -0.7984 -0.1053
  469MOL0     C61817   1.139  11.706   7.403 -0.5840  0.2298 -0.1007
  469MOL0     C61818   1.008  11.766   7.341 -0.1679  0.8198 -0.0794
  469MOL0     C61819   0.914  11.807   7.455 -0.7530 -0.7457  0.3458
  469MOL0    Cl61820   0.977  11.946   7.549  0.0508  0.0096 -0.5851
  469MOL0     C61821   1.541  11.055   7.796  0.0304  0.1815 -0.1462
  469MOL0     C61822   1.676  11.012   7.788  0.5552 -0.2482  0.1972
  469MOL0     O61823   1.957  11.204   7.677  0.2709 -1.0158 -0.4956
  469MOL0     C61824   2.132  10.889   7.723  0.1042 -0.0080 -0.0559
  469MOL0     C61825   2.253  10.820   7.677 -0.1410  0.1315 -0.8940
  469MOL0     N61826   2.836  10.438   7.875 -0.7212  0.4111 -0.2616
  469MOL0     N61827   2.893  10.459   7.985 -0.3992  0.0968 -0.1761
  469MOL0     C61828   3.241  10.913   8.921  1.2566  0.2210  1.2334
  469MOL0     C61829   3.162  10.925   9.038 -0.6035  0.4882  0.0636
  469MOL0     C61830   2.872  10.991   9.364  0.1966 -0.0565  0.3648
  469MOL0     C61831   2.934  11.085   9.459  0.4723  0.4244  0.1766
  469MOL0     C61832   2.856  11.125   9.567 -0.0743  0.1789  0.1621
  469MOL0     C61833   2.730  11.069   9.595  0.7818 -0.2184  0.2016
  469MOL0     O61834   2.658  11.113   9.706 -0.2305  0.4802  0.5683
  469MOL0     C61835   2.649  11.250   9.733  0.1756  0.6003 -0.4345
  469MOL0     C61836   2.563  11.269   9.849 -0.8447 -0.7757 -0.4702
  469MOL0     C61837   2.425  11.222   9.820  0.3869 -0.0230  0.0487
  469MOL0     C61838   2.346  11.279   9.936 -0.1140  0.2966  0.4163
  469MOL0     C61839   2.210  11.216   9.941 -0.0157 -0.0530 -0.8603
  469MOL0     C61840   2.112  11.151   9.940 -0.0223 -0.1139  0.5569
  469MOL0     C61841   2.674  10.985   9.505  1.4993 -0.5047  0.3792
  469MOL0     C61842   2.740  10.946   9.388 -0.4991 -0.9436  1.0627
  469MOL0     H61843   3.128  11.259   9.070 -0.7856 -1.4932  3.5298
  469MOL0     H61844   3.238  11.239   8.838 -2.5967  0.3326 -0.9032
  469MOL0     H61845   3.312  11.186   8.641  0.8813  0.1101  0.8153
  469MOL0     H61846   3.183  11.071   8.627 -0.1169  0.8424 -1.6145
  469MOL0     H61847   3.460  11.034   8.519  0.6879 -4.0189 -1.8972
  469MOL0     H61848   3.330  11.094   8.411  0.5944 -3.3369 -2.5028
  469MOL0     H61849   3.347  10.805   8.543  1.0550 -3.0698 -2.3530
  469MOL0     H61850   3.376  10.856   8.376  3.4614  2.1743  1.0038
  469MOL0     H61851   3.122  10.882   8.540  1.9567  0.5162  0.1167
  469MOL0     H61852   3.117  10.943   8.381  0.0962  0.1251 -0.0351
  469MOL0     H61853   2.995  10.765   8.355  1.5075  2.5993 -0.2069
  469MOL0     H61854   3.106  10.664   8.464  1.9431 -0.7939 -0.2348
  469MOL0     H61855   3.248  10.608   8.284  0.4754 -0.1907  0.8647
  469MOL0     H61856   3.229  10.752   8.201 -1.4097  2.0726  2.0347
  469MOL0     H61857   3.155  10.573   8.082  2.2876  3.7349  0.6292
  469MOL0     H61858   3.070  10.507   8.222 -1.8219  1.4513  1.7077
  469MOL0     H61859   2.957  10.772   8.107 -0.9975 -0.2809  1.0552
  469MOL0     H61860   2.879  10.652   8.207  0.0732  0.0228  0.1318
  469MOL0     H61861   2.849  10.763   7.866  0.4182  1.0695  1.5241
  469MOL0     H61862   2.813  10.511   7.609  0.4096 -0.1942  2.7275
  469MOL0     H61863   2.830  10.684   7.637 -0.4098  2.3010  3.7972
  469MOL0     H61864   2.594  10.697   7.727 -3.6698  1.3511 -3.3694
  469MOL0     H61865   2.585  10.522   7.703  1.8379  0.7670  1.9380
  469MOL0     H61866   2.661  10.692   7.450  1.5257 -2.9500  0.3146
  469MOL0     H61867   2.601  10.535   7.463  1.9179  0.8972 -0.0722
  469MOL0     H61868   2.393  10.607   7.552 -1.5896 -0.0303 -1.2817
  469MOL0     H61869   2.407  10.688   7.398  0.8318  1.1669 -0.5107
  469MOL0     H61870   2.372  11.076   7.490  0.3077  1.9188  1.3899
  469MOL0     H61871   2.196  11.186   7.565  0.6547 -0.6707 -0.9113
  469MOL0     H61872   1.829  11.269   7.946  0.2926  0.5509 -0.8674
  469MOL0     H61873   1.592  11.333   7.986 -2.0212 -0.8061  0.8163
  469MOL0     H61874   1.432  11.432   7.859  2.3515 -1.0989 -2.1379
  469MOL0     H61875   1.266  11.390   7.850 -1.3948 -0.8792 -0.8968
  469MOL0     H61876   1.333  11.294   7.609  0.3203  0.2110 -1.3691
  469MOL0     H61877   1.471  11.401   7.637  0.0804 -3.1402 -0.9011
  469MOL0     H61878   1.357  11.590   7.619 -1.4090  1.8505 -2.4829
  469MOL0     H61879   1.206  11.514   7.660  1.4255  1.7227 -0.2603
  469MOL0     H61880   1.356  11.495   7.398  1.1970 -1.8533  1.0422
  469MOL0     H61881   1.245  11.363   7.458 -0.6030  0.2486  2.6841
  469MOL0     H61882   1.049  11.521   7.425  0.6255 -2.1542  1.0565
  469MOL0     H61883   1.145  11.532   7.278 -1.4197 -0.2831 -0.2290
  469MOL0     H61884   1.228  11.750   7.358 -0.9634 -0.4885 -1.6475
  469MOL0     H61885   1.146  11.710   7.512  0.0102 -0.8642 -0.0911
  469MOL0     H61886   1.032  11.851   7.276 -2.8325  0.1372 -2.1386
  469MOL0     H61887   0.955  11.696   7.276  2.9330 -4.0295  2.0663
  469MOL0     H61888   0.900  11.716   7.513  3.6504 -4.6908 -3.7776
  469MOL0     H61889   0.823  11.833   7.401 -0.2976  2.1036  0.7684
  469MOL0     H61890   1.460  10.993   7.758 -0.8828  1.4207 -0.2484
  469MOL0     H61891   1.714  10.918   7.749 -0.8167 -1.0446  0.7113
  469MOL0     H61892   2.057  10.841   7.785 -1.2541  1.8941 -0.1278
  469MOL0     H61893   2.272  10.724   7.723  2.5501  2.5981  3.9429
  469MOL0     H61894   3.270  10.813   8.890  3.3848  1.8917 -3.0027
  469MOL0     H61895   3.139  10.844   9.107 -3.0502  0.7400 -0.3432
  469MOL0     H61896   3.035  11.122   9.446  0.7362 -0.1766  0.4647
  469MOL0     H61897   2.901  11.195   9.637  0.6038  0.0987 -0.1887
  469MOL0     H61898   2.608  11.305   9.648 -1.7217 -0.0013  0.0344
  469MOL0     H61899   2.752  11.284   9.748  1.0951 -2.1028 -0.0382
  469MOL0     H61900   2.619  11.230   9.934  1.8141  2.0560 -0.7405
  469MOL0     H61901   2.570  11.378   9.847  0.1993 -0.8376 -2.7131
  469MOL0     H61902   2.428  11.112   9.815 -0.7984 -0.0488 -0.2765
  469MOL0     H61903   2.379  11.270   9.733 -0.5015  0.5344  0.8161
  469MOL0     H61904   2.393  11.262  10.034 -0.4595 -0.7673  0.4056
  469MOL0     H61905   2.340  11.386   9.915  0.4923  0.2450 -0.0348
  469MOL0     H61906   2.022  11.095   9.923 -0.5109  1.4923 -2.9148
  469MOL0     H61907   2.569  10.959   9.513  0.6297  3.1920  3.8991
  469MOL0     H61908   2.678  10.884   9.324 -1.9965 -0.3248  1.8488
  470MOL0     O61909   9.225   6.589   7.772  0.3081 -1.0545 -0.3067
  470MOL0     C61910   9.233   6.664   7.873  0.1609 -0.6793 -0.0007
  470MOL0     O61911   9.140   6.758   7.913  0.1861  0.1409  0.4235
  470MOL0     C61912   9.014   6.745   7.861 -0.4710 -1.3535  0.6468
  470MOL0     C61913   8.908   6.763   7.954 -0.7951  0.7023  0.8300
  470MOL0     C61914   8.778   6.738   7.927 -0.2887  0.8890 -0.1375
  470MOL0     C61915   8.744   6.692   7.797  0.9730 -0.0526 -0.7765
  470MOL0     O61916   8.620   6.649   7.757 -0.0432  1.0605 -0.0453
  470MOL0     C61917   8.510   6.729   7.804  0.2513 -0.1580  0.0803
  470MOL0     C61918   8.379   6.700   7.717 -0.4446 -0.4742  0.2527
  470MOL0     C61919   8.408   6.757   7.571  0.4262 -0.9122 -0.5533
  470MOL0     C61920   8.301   6.748   7.476  0.5278 -0.0693 -0.5101
  470MOL0     C61921   8.169   6.820   7.499  0.0008 -0.7794 -0.5978
  470MOL0     C61922   8.081   6.808   7.367 -0.6390 -0.8615 -0.0467
  470MOL0     C61923   7.944   6.886   7.388 -0.1219 -0.2586  0.7387
  470MOL0     C61924   7.856   6.827   7.502 -0.4224  0.1625 -0.1444
  470MOL0     N61925   7.837   6.683   7.499 -0.3928  0.4099 -0.5592
  470MOL0     C61926   7.913   6.591   7.575  0.4848 -0.8738 -0.0324
  470MOL0     C61927   7.882   6.474   7.520  0.5111  0.5225 -0.7635
  470MOL0     C61928   7.941   6.337   7.553 -0.6776 -0.4221 -0.6038
  470MOL0     C61929   8.086   6.325   7.499  0.1051 -0.6428 -0.2722
  470MOL0     C61930   8.097   6.321   7.349  0.6486 -0.6540  0.8121
  470MOL0     C61931   8.230   6.380   7.303 -0.6423 -0.1318 -0.3963
  470MOL0     O61932   8.343   6.344   7.384  0.0044 -0.3031 -0.4690
  470MOL0     C61933   8.458   6.416   7.370  0.9766  0.3429  0.0630
  470MOL0     C61934   8.570   6.386   7.441 -0.4202  0.6634  0.0175
  470MOL0     C61935   8.696   6.445   7.411  0.2411  0.6817  0.4498
  470MOL0     C61936   8.707   6.540   7.303 -0.2156  0.3200  0.4687
  470MOL0     C61937   8.832   6.591   7.262  0.1611  1.0933 -0.4358
  470MOL0     O61938   8.925   6.626   7.361  0.3758  0.8572  0.1430
  470MOL0     C61939   9.060   6.636   7.332  1.1572 -0.7459  0.4076
  470MOL0     C61940   9.093   6.735   7.231 -0.1294  0.3170 -0.4130
  470MOL0     C61941   9.228   6.772   7.212  0.2841 -0.2943  0.1894
  470MOL0     C61942   9.332   6.698   7.276  0.6477  0.3434 -0.9918
  470MOL0     O61943   9.461   6.730   7.245  0.5684  0.2583 -0.3311
  470MOL0     C61944   9.571   6.670   7.336  0.5293 -0.8133 -0.1113
  470MOL0     C61945   9.715   6.710   7.274  1.0385 -0.2488 -0.1186
  470MOL0     C61946   9.753   6.857   7.299 -0.0353  0.0612  0.7278
  470MOL0     C61947   9.882   6.883   7.210  0.7778  0.1226  0.1999
  470MOL0     C61948   9.943   7.019   7.260  0.7588  0.2280 -0.1636
  470MOL0     C61949  10.064   7.057   7.184 -0.2675  0.0411 -0.2552
  470MOL0     C61950  10.039   7.101   7.034  0.0995 -0.8189  0.4355
  470MOL0     C61951  10.161   7.067   6.947  0.3124  0.3880  0.0299
  470MOL0    Cl61952  10.198   6.888   6.952  0.1064 -0.3270  0.0602
  470MOL0     C61953   9.293   6.606   7.382  0.7580  0.1636  1.2426
  470MOL0     C61954   9.155   6.583   7.409 -0.4283  0.8477  0.0011
  470MOL0     O61955   8.850   6.594   7.146 -0.6433  0.5712  0.0766
  470MOL0     C61956   8.593   6.573   7.227 -0.2604  0.6684 -0.4643
  470MOL0     C61957   8.475   6.515   7.270  0.0700  1.0326  0.4603
  470MOL0     N61958   7.799   6.500   7.408 -0.1624  0.3203  0.5670
  470MOL0     N61959   7.778   6.627   7.394  0.4034 -0.2278  0.3224
  470MOL0     C61960   8.843   6.681   7.705  0.5633  0.6851  0.2735
  470MOL0     C61961   8.974   6.701   7.738 -0.5314  0.4361 -0.1768
  470MOL0     C61962   9.371   6.671   7.928  0.1932 -0.1365 -0.2097
  470MOL0     C61963   9.400   6.756   8.034 -0.5153 -0.5452 -0.0888
  470MOL0     C61964   9.538   6.753   8.080  0.5771  1.0790 -0.5530
  470MOL0     C61965   9.636   6.661   8.035 -0.7472 -0.6866 -0.0319
  470MOL0     O61966   9.748   6.656   8.104  0.8988 -0.0330 -0.5096
  470MOL0     C61967   9.871   6.617   8.037 -0.4449  0.2104 -0.7753
  470MOL0     C61968   9.989   6.653   8.134  0.7642  1.4769 -0.1849
  470MOL0     C61969  10.116   6.657   8.056  0.1039  0.3384  0.2641
  470MOL0     C61970  10.231   6.670   8.151 -0.1955  0.6978 -0.0258
  470MOL0     C61971  10.260   6.539   8.204  0.0016 -0.5621  0.3534
  470MOL0     C61972  10.287   6.421   8.234 -0.7368  0.4840 -0.4936
  470MOL0     C61973   9.602   6.589   7.925  0.6918 -0.5240 -0.7898
  470MOL0     C61974   9.472   6.594   7.876  1.0249 -0.1372  0.0869
  470MOL0     H61975   8.937   6.794   8.054  3.5513 -0.3543  0.0975
  470MOL0     H61976   8.701   6.754   8.002  0.3763  1.8272  0.3694
  470MOL0     H61977   8.551   6.830   7.792  1.8726 -1.0866 -3.6168
  470MOL0     H61978   8.482   6.725   7.909 -1.6855  0.8673 -0.3508
  470MOL0     H61979   8.294   6.760   7.751  2.8051  3.8181  1.7430
  470MOL0     H61980   8.359   6.593   7.729 -0.3121 -0.4587  0.6488
  470MOL0     H61981   8.490   6.698   7.530  1.8031  0.7583 -0.3595
  470MOL0     H61982   8.447   6.859   7.578 -0.7950 -0.4523 -0.1397
  470MOL0     H61983   8.336   6.791   7.382 -1.1523 -0.6541 -1.4376
  470MOL0     H61984   8.288   6.640   7.463 -0.8133 -0.1952  1.4650
  470MOL0     H61985   8.190   6.925   7.523  1.0138 -0.9618 -0.6517
  470MOL0     H61986   8.118   6.779   7.586  0.4390 -0.4953 -0.2045
  470MOL0     H61987   8.049   6.704   7.355 -2.2414 -0.4537  0.4410
  470MOL0     H61988   8.117   6.847   7.271 -0.5733 -0.7343  0.0296
  470MOL0     H61989   7.974   6.989   7.408  0.5400 -0.4092  0.5541
  470MOL0     H61990   7.889   6.883   7.293  1.7616  0.5734 -0.4260
  470MOL0     H61991   7.759   6.878   7.503 -1.4210 -1.4357 -2.9742
  470MOL0     H61992   7.911   6.862   7.589  2.8713 -3.0514 -0.7318
  470MOL0     H61993   7.964   6.610   7.669 -1.7279  1.6565  0.7887
  470MOL0     H61994   7.869   6.263   7.518  0.0234 -1.4109 -0.0314
  470MOL0     H61995   7.944   6.315   7.660  0.6957 -0.5344 -0.6431
  470MOL0     H61996   8.143   6.242   7.543 -0.8108 -0.4507  1.3674
  470MOL0     H61997   8.150   6.405   7.538 -0.7142 -1.5558  3.2854
  470MOL0     H61998   8.092   6.220   7.309  1.3315 -0.2217 -0.3923
  470MOL0     H61999   8.021   6.377   7.294 -0.0507 -4.0009 -1.9226
  470MOL0     H62000   8.215   6.488   7.315 -3.3541 -0.4898  0.2557
  470MOL0     H62001   8.245   6.365   7.195  0.2290  1.4102 -0.5139
  470MOL0     H62002   8.575   6.305   7.513 -1.8383 -3.1252 -3.6959
  470MOL0     H62003   8.784   6.413   7.465 -0.0597 -2.6424 -0.8310
  470MOL0     H62004   9.019   6.788   7.172 -1.4597 -0.8946  0.0996
  470MOL0     H62005   9.245   6.853   7.141 -2.2628 -1.4679 -1.9204
  470MOL0     H62006   9.568   6.561   7.327  1.1934 -0.7658 -0.9617
  470MOL0     H62007   9.575   6.711   7.438  3.5057 -0.1375 -0.4147
  470MOL0     H62008   9.695   6.693   7.168 -0.4597 -1.2048  0.2922
  470MOL0     H62009   9.790   6.642   7.315  2.6194 -0.5325 -3.2245
  470MOL0     H62010   9.777   6.883   7.402  0.2312  5.0983 -0.3508
  470MOL0     H62011   9.666   6.912   7.264 -0.8697 -2.3116 -1.2125
  470MOL0     H62012   9.958   6.804   7.205  1.7977  0.9330  2.0367
  470MOL0     H62013   9.847   6.893   7.107  2.1150  0.5022 -0.2446
  470MOL0     H62014   9.959   7.005   7.368 -1.8935  0.8260  0.3805
  470MOL0     H62015   9.861   7.092   7.259 -0.1451 -0.7083  0.9581
  470MOL0     H62016  10.127   6.968   7.183 -0.2542  0.0325  0.6448
  470MOL0     H62017  10.117   7.142   7.229  0.2132 -0.0740 -0.5943
  470MOL0     H62018   9.952   7.050   6.992 -1.8598  2.1188  0.6607
  470MOL0     H62019  10.025   7.209   7.030  0.2440 -0.6515  3.1015
  470MOL0     H62020  10.251   7.123   6.972  1.2075 -1.6222  1.5895
  470MOL0     H62021  10.145   7.084   6.840  2.8548  0.0439 -0.4609
  470MOL0     H62022   9.358   6.538   7.437 -1.3079 -3.5118 -0.4456
  470MOL0     H62023   9.119   6.523   7.492 -0.7557 -0.1150 -0.8250
  470MOL0     H62024   8.603   6.639   7.141  2.0246 -1.2930 -1.8473
  470MOL0     H62025   8.398   6.550   7.202  1.0124  0.8027 -0.7573
  470MOL0     H62026   8.821   6.635   7.609  0.9770 -0.2953  0.6243
  470MOL0     H62027   9.038   6.700   7.650 -3.3780  2.5444 -2.4835
  470MOL0     H62028   9.329   6.825   8.080  0.7126 -0.6851  2.1940
  470MOL0     H62029   9.575   6.819   8.158  2.1308  0.6366 -0.8852
  470MOL0     H62030   9.874   6.685   7.952 -1.6982  3.8638  1.8233
  470MOL0     H62031   9.876   6.518   7.991  3.3592 -0.7253  1.1821
  470MOL0     H62032   9.974   6.756   8.169  0.2208  1.3788 -0.1243
  470MOL0     H62033   9.996   6.583   8.218  1.3729  0.0576 -1.3911
  470MOL0     H62034  10.129   6.742   7.989 -0.3680  1.7398  1.8574
  470MOL0     H62035  10.121   6.569   7.992 -2.8323  0.9374 -0.9574
  470MOL0     H62036  10.319   6.698   8.093 -1.0384  0.0682 -1.6476
  470MOL0     H62037  10.224   6.748   8.228  2.5678  0.0974  0.9801
  470MOL0     H62038  10.306   6.316   8.245 -0.3995  0.4745 -1.1353
  470MOL0     H62039   9.674   6.527   7.872  1.6951  1.5446 -1.9726
  470MOL0     H62040   9.459   6.528   7.791  1.2170  1.3169 -1.1183
  471MOL0     O62041   7.393   2.577   7.001  0.2618  0.4033  0.1085
  471MOL0     C62042   7.449   2.532   7.100 -0.1803  0.0648 -0.6419
  471MOL0     O62043   7.395   2.455   7.197 -0.0062  0.2630  0.0360
  471MOL0     C62044   7.287   2.374   7.164  0.5843 -0.0797  0.3711
  471MOL0     C62045   7.160   2.423   7.129 -0.3360  0.1099 -0.1598
  471MOL0     C62046   7.049   2.339   7.114 -0.0137 -0.5365 -0.8609
  471MOL0     C62047   7.056   2.198   7.129 -0.4740 -0.8300  0.5706
  471MOL0     O62048   6.964   2.100   7.121 -0.3609 -0.0164 -0.3760
  471MOL0     C62049   6.829   2.139   7.142 -1.0835  0.2958 -0.4418
  471MOL0     C62050   6.783   2.194   7.007  0.4091  0.3089  0.4716
  471MOL0     C62051   6.640   2.159   6.983 -0.1873 -0.4574  0.2948
  471MOL0     C62052   6.583   2.220   6.851  0.4949 -0.7142 -0.5961
  471MOL0     C62053   6.434   2.196   6.828 -0.4047 -0.3918 -0.1381
  471MOL0     C62054   6.359   2.296   6.918 -0.8425 -0.9117  0.2355
  471MOL0     C62055   6.204   2.317   6.904 -0.5517 -0.0443 -0.2519
  471MOL0     C62056   6.132   2.192   6.928  0.6081 -1.0188 -0.0421
  471MOL0     N62057   5.989   2.221   6.900 -0.1943 -0.2793 -0.4288
  471MOL0     C62058   5.942   2.297   6.796  0.3160  0.0477 -0.0241
  471MOL0     C62059   5.808   2.276   6.792  0.2883 -0.0574 -0.1012
  471MOL0     C62060   5.709   2.326   6.702 -0.1338  0.2378 -0.2858
  471MOL0     C62061   5.568   2.305   6.762  0.2168  0.1344 -0.0195
  471MOL0     C62062   5.475   2.349   6.649 -1.0091 -0.0975 -0.1987
  471MOL0     C62063   5.332   2.306   6.680  0.4292 -0.2166  0.0785
  471MOL0     O62064   5.234   2.354   6.587 -0.0153 -0.0887  0.1468
  471MOL0     C62065   5.110   2.293   6.580 -0.1155  0.2019 -0.4793
  471MOL0     C62066   5.084   2.155   6.602  0.0216 -0.2142 -0.0585
  471MOL0     C62067   4.948   2.117   6.597 -0.3816  0.9402  0.0583
  471MOL0     C62068   4.845   2.200   6.564 -0.0803 -0.7293  0.1075
  471MOL0     C62069   4.707   2.159   6.566  0.6497 -0.2083  1.0027
  471MOL0     O62070   4.607   2.250   6.548  0.1471 -0.4933 -0.1092
  471MOL0     C62071   4.479   2.208   6.540 -0.1313 -0.2605  0.3190
  471MOL0     C62072   4.378   2.307   6.557  0.1776 -0.1550  0.4378
  471MOL0     C62073   4.243   2.282   6.566  0.6949 -0.2871  0.8578
  471MOL0     C62074   4.195   2.149   6.555  0.0307 -0.3535 -1.2254
  471MOL0     O62075   4.066   2.122   6.574 -0.0199 -0.4692 -0.3418
  471MOL0     C62076   3.995   2.072   6.462 -0.4083  1.0286 -0.7095
  471MOL0     C62077   3.843   2.073   6.496 -0.9493  0.2988  0.5398
  471MOL0     C62078   3.748   2.020   6.383 -0.1066 -0.5773  0.3051
  471MOL0     C62079   3.610   1.986   6.439 -1.0767 -0.1832  0.3767
  471MOL0     C62080   3.516   1.965   6.315  0.2672  0.5110  0.5969
  471MOL0     C62081   3.371   1.926   6.363 -1.0102 -0.3736 -0.0166
  471MOL0     C62082   3.272   1.942   6.248  0.0061 -0.1513 -0.1174
  471MOL0     C62083   3.142   1.864   6.268 -0.1154  0.4969 -1.0584
  471MOL0    Cl62084   3.013   1.970   6.329  0.5121  0.0490 -0.2440
  471MOL0     C62085   4.297   2.045   6.539 -0.0669  0.9566 -0.1528
  471MOL0     C62086   4.437   2.073   6.534 -0.0149  0.7363  0.2569
  471MOL0     O62087   4.693   2.049   6.616  0.6093  0.3364 -0.6147
  471MOL0     C62088   4.875   2.340   6.553  0.5671 -0.2055 -0.1578
  471MOL0     C62089   5.007   2.383   6.559  0.0574  0.6254 -0.5458
  471MOL0     N62090   5.779   2.197   6.905  0.0205 -0.3069  0.3320
  471MOL0     N62091   5.889   2.166   6.963 -0.0818 -0.3735 -0.0197
  471MOL0     C62092   7.189   2.149   7.146  0.0967  0.2392  0.3634
  471MOL0     C62093   7.295   2.231   7.166  0.0238 -0.1529  0.4745
  471MOL0     C62094   7.594   2.569   7.116  1.0092  0.1004  0.3520
  471MOL0     C62095   7.648   2.655   7.017 -0.2382  0.5643 -0.2036
  471MOL0     C62096   7.790   2.686   7.028 -0.2884 -0.4005  0.1768
  471MOL0     C62097   7.877   2.637   7.124 -0.1567 -0.7052 -0.8738
  471MOL0     O62098   8.009   2.668   7.111  0.3611 -0.1381 -0.2519
  471MOL0     C62099   8.110   2.624   7.213  0.0662 -0.1848 -0.3181
  471MOL0     C62100   8.239   2.705   7.189 -0.3480 -0.6775  0.1042
  471MOL0     C62101   8.224   2.858   7.219  0.4160  0.3998  0.5863
  471MOL0     C62102   8.347   2.933   7.174  0.0578  0.6453  0.1513
  471MOL0     C62103   8.320   3.070   7.207 -0.0530 -1.4617 -0.2479
  471MOL0     C62104   8.297   3.186   7.234 -0.7960 -0.5676  0.2644
  471MOL0     C62105   7.820   2.563   7.231  0.7877 -1.0818 -0.3383
  471MOL0     C62106   7.677   2.534   7.226 -0.1946  0.0680  0.0446
  471MOL0     H62107   7.155   2.531   7.115  0.3279  0.0317 -1.2175
  471MOL0     H62108   6.963   2.404   7.103  0.4107 -0.2301 -2.6778
  471MOL0     H62109   6.819   2.231   7.201 -0.3221  0.7619 -1.0286
  471MOL0     H62110   6.775   2.056   7.189  4.5067 -2.8683  1.3866
  471MOL0     H62111   6.849   2.151   6.931  0.7305  2.0591 -0.2868
  471MOL0     H62112   6.787   2.303   6.996 -1.8931  0.2847 -1.3959
  471MOL0     H62113   6.575   2.169   7.070 -0.9115 -1.6460 -0.0955
  471MOL0     H62114   6.631   2.051   6.968 -0.9991 -0.5575  1.3898
  471MOL0     H62115   6.610   2.325   6.837 -3.0561  0.2583 -1.1520
  471MOL0     H62116   6.642   2.177   6.770  1.2985  0.8494 -0.8867
  471MOL0     H62117   6.410   2.090   6.843 -2.0374 -0.0812 -0.3880
  471MOL0     H62118   6.410   2.220   6.724 -0.6608  1.1300  0.2398
  471MOL0     H62119   6.402   2.395   6.902 -2.2167 -0.1131  1.2885
  471MOL0     H62120   6.379   2.250   7.015 -0.2146 -1.0357  0.0519
  471MOL0     H62121   6.173   2.401   6.967  2.1035  0.5040  0.4342
  471MOL0     H62122   6.194   2.362   6.804 -0.8480  2.2767  0.7633
  471MOL0     H62123   6.143   2.169   7.034  0.5435 -0.4575  0.0868
  471MOL0     H62124   6.167   2.124   6.849  0.8758  0.8774 -1.6269
  471MOL0     H62125   6.000   2.354   6.724  0.5704  2.2867  1.8200
  471MOL0     H62126   5.728   2.268   6.611  1.5292  0.0890  0.1143
  471MOL0     H62127   5.723   2.431   6.676  0.3562  0.7184  1.7700
  471MOL0     H62128   5.562   2.368   6.851 -2.7330 -0.3073  0.1915
  471MOL0     H62129   5.548   2.200   6.786 -1.0796  0.3477 -0.1054
  471MOL0     H62130   5.482   2.457   6.642 -3.9776  0.1862 -0.1341
  471MOL0     H62131   5.515   2.318   6.552 -0.8842  5.1040 -2.0721
  471MOL0     H62132   5.299   2.326   6.783  0.6740 -0.6396  0.2423
  471MOL0     H62133   5.325   2.199   6.657 -1.5128 -0.2040  0.3616
  471MOL0     H62134   5.160   2.083   6.628 -0.2244  0.5149  3.0259
  471MOL0     H62135   4.941   2.009   6.609 -1.0893  0.9864  0.1126
  471MOL0     H62136   4.403   2.413   6.548 -1.2154  0.0444 -1.8980
  471MOL0     H62137   4.179   2.369   6.577 -0.4940 -1.2832  2.1567
  471MOL0     H62138   4.031   1.973   6.433  1.8890  2.0312 -1.4822
  471MOL0     H62139   4.013   2.138   6.376 -4.1301  1.6529 -1.1767
  471MOL0     H62140   3.823   2.179   6.516  0.2589  0.4373  1.1258
  471MOL0     H62141   3.826   2.009   6.583  0.5373  1.2739  1.6044
  471MOL0     H62142   3.791   1.925   6.350  1.5716 -0.0211  0.7918
  471MOL0     H62143   3.746   2.095   6.303 -1.8632  1.2366  1.9439
  471MOL0     H62144   3.612   1.897   6.503 -2.9546  0.5808  1.6069
  471MOL0     H62145   3.579   2.069   6.504  0.7393  1.2805 -0.5170
  471MOL0     H62146   3.555   1.885   6.250 -1.3672 -1.0320  1.4186
  471MOL0     H62147   3.524   2.056   6.256 -1.2327 -0.7665 -1.7523
  471MOL0     H62148   3.353   1.984   6.454  2.1612 -2.6880  2.3190
  471MOL0     H62149   3.362   1.820   6.388 -2.7113  0.1558  1.9145
  471MOL0     H62150   3.255   2.050   6.242  2.4043  0.2503 -0.8711
  471MOL0     H62151   3.314   1.902   6.155 -0.0972 -1.8380  0.5343
  471MOL0     H62152   3.151   1.772   6.327 -0.2041  1.2202  0.1120
  471MOL0     H62153   3.110   1.820   6.174  0.5944 -1.7225 -0.3268
  471MOL0     H62154   4.267   1.941   6.534  1.8130  0.4033 -0.4518
  471MOL0     H62155   4.499   1.984   6.530  0.3888  1.0291 -0.0918
  471MOL0     H62156   4.800   2.417   6.538 -0.4257 -0.9817  0.7129
  471MOL0     H62157   5.024   2.491   6.555 -1.1539  0.8333 -0.3496
  471MOL0     H62158   7.190   2.041   7.152  1.3696  0.0957 -1.4695
  471MOL0     H62159   7.395   2.198   7.195  0.0414  0.2967  0.9513
  471MOL0     H62160   7.591   2.689   6.931 -1.3808  0.4282  0.4662
  471MOL0     H62161   7.830   2.748   6.948 -2.2116 -1.4561 -1.7125
  471MOL0     H62162   8.147   2.522   7.199  3.3888  0.9086 -0.5037
  471MOL0     H62163   8.092   2.638   7.319 -0.7742 -0.7363 -0.3806
  471MOL0     H62164   8.323   2.663   7.245 -0.7144  0.1630  1.3355
  471MOL0     H62165   8.251   2.698   7.080 -2.5529  2.0089 -0.4491
  471MOL0     H62166   8.205   2.870   7.326  0.0103 -2.4925  0.9175
  471MOL0     H62167   8.137   2.903   7.171 -2.4487 -0.6284  4.3384
  471MOL0     H62168   8.434   2.901   7.233  0.7420  0.1794 -1.0907
  471MOL0     H62169   8.373   2.920   7.069 -0.2713 -0.1030  0.1587
  471MOL0     H62170   8.285   3.292   7.244 -0.2138 -0.1313 -2.5610
  471MOL0     H62171   7.883   2.525   7.311 -0.0756 -4.9694 -1.3146
  471MOL0     H62172   7.631   2.475   7.305 -1.8319  0.6913 -0.3952
  472MOL0     O62173   1.586   5.577   7.781  0.0470  1.0834 -0.2199
  472MOL0     C62174   1.568   5.654   7.878  0.1039  0.8872  0.3613
  472MOL0     O62175   1.449   5.718   7.920  0.6344  1.0158  0.6098
  472MOL0     C62176   1.327   5.691   7.851  0.1906  0.1701  0.9307
  472MOL0     C62177   1.237   5.792   7.829 -0.0358 -0.5111  0.7118
  472MOL0     C62178   1.113   5.772   7.763  0.6981 -0.6567 -0.4059
  472MOL0     C62179   1.080   5.649   7.712  0.0256 -0.2931 -0.3154
  472MOL0     O62180   0.980   5.644   7.626 -0.6198  0.1828  0.0376
  472MOL0     C62181   0.868   5.581   7.687  0.1614  0.3401 -0.8028
  472MOL0     C62182   0.738   5.609   7.613  0.6547  0.4995  0.3510
  472MOL0     C62183   0.734   5.569   7.464  0.0088  0.5097  0.2093
  472MOL0     C62184   0.770   5.416   7.436  0.2811 -0.3491 -0.3991
  472MOL0     C62185   0.671   5.322   7.504 -0.0114 -0.2751  0.1582
  472MOL0     C62186   0.524   5.343   7.461 -0.0399  0.0876 -0.1641
  472MOL0     C62187   0.435   5.240   7.529 -0.0425  0.2574  0.6753
  472MOL0     C62188   0.287   5.252   7.481 -0.3728  0.1123  1.3282
  472MOL0     N62189   0.273   5.150   7.382  0.2054 -0.4091 -0.0151
  472MOL0     C62190   0.228   5.025   7.400  0.1745  0.0242 -0.3366
  472MOL0     C62191   0.233   4.967   7.279 -0.2584  0.6469  0.3215
  472MOL0     C62192   0.186   4.827   7.252 -0.1276  0.0344  0.6635
  472MOL0     C62193   0.031   4.839   7.244  0.3516  0.5920  0.0856
  472MOL0     C62194  -0.023   4.920   7.126  0.9806 -0.3320 -0.4080
  472MOL0     C62195  -0.175   4.937   7.142  0.1163 -0.7911 -0.2690
  472MOL0     O62196  -0.231   4.807   7.111  0.1349 -0.7087 -0.2020
  472MOL0     C62197  -0.369   4.810   7.109 -0.2673 -0.0126 -0.0002
  472MOL0     C62198  -0.450   4.926   7.120 -0.0816 -0.0406  0.6915
  472MOL0     C62199  -0.587   4.918   7.107  0.4531 -0.6511 -0.0847
  472MOL0     C62200  -0.650   4.798   7.093  0.1442  0.4599  0.2095
  472MOL0     C62201  -0.809   4.787   7.084 -0.1352  0.2070 -0.4195
  472MOL0     O62202  -0.861   4.669   7.114 -0.1220  0.9139  0.3700
  472MOL0     C62203  -0.994   4.653   7.139  0.3691  0.1167  0.1367
  472MOL0     C62204  -1.088   4.687   7.042 -0.0655  0.4733 -0.3434
  472MOL0     C62205  -1.223   4.646   7.066 -0.2272 -0.3537 -0.2467
  472MOL0     C62206  -1.248   4.563   7.176 -0.3336 -0.3282 -0.6368
  472MOL0     O62207  -1.378   4.521   7.206  0.1210 -0.9679 -0.3505
  472MOL0     C62208  -1.477   4.524   7.104 -0.0494  0.5750 -0.4778
  472MOL0     C62209  -1.584   4.417   7.135  0.3432 -0.2627  0.4553
  472MOL0     C62210  -1.689   4.439   7.031  0.3392  0.4033 -0.3669
  472MOL0     C62211  -1.795   4.323   7.041  0.0651  0.5509 -1.0131
  472MOL0     C62212  -1.889   4.324   6.916  0.5125  0.2496 -0.0776
  472MOL0     C62213  -1.983   4.202   6.911 -0.0537  0.7102 -0.1892
  472MOL0     C62214  -2.075   4.199   6.790  0.5121 -0.4537 -0.0227
  472MOL0     C62215  -2.177   4.089   6.779 -1.0972  0.1979 -0.7566
  472MOL0    Cl62216  -2.295   4.103   6.927 -0.0944 -0.0482  0.6821
  472MOL0     C62217  -1.150   4.516   7.259  0.8557 -0.6892 -0.2524
  472MOL0     C62218  -1.020   4.561   7.238 -0.1097 -1.4262  0.1218
  472MOL0     O62219  -0.866   4.900   7.085 -0.1663 -0.2351 -0.9504
  472MOL0     C62220  -0.575   4.679   7.075 -0.4175 -0.2212 -0.7541
  472MOL0     C62221  -0.434   4.696   7.082 -0.2528 -0.4685  0.0327
  472MOL0     N62222   0.285   5.062   7.193  0.6346  0.3085 -0.7275
  472MOL0     N62223   0.310   5.173   7.256  0.5187 -0.3727 -0.1893
  472MOL0     C62224   1.169   5.541   7.725  0.1903 -0.3191 -0.5007
  472MOL0     C62225   1.281   5.560   7.807 -0.7375 -0.3261  0.4955
  472MOL0     C62226   1.687   5.689   7.961  0.1547  0.5620  0.0786
  472MOL0     C62227   1.817   5.680   7.904 -0.4784 -0.5008  0.0008
  472MOL0     C62228   1.930   5.710   7.976  0.2745  0.5856 -0.9986
  472MOL0     C62229   1.917   5.760   8.105 -1.1408 -0.8935  0.2429
  472MOL0     O62230   2.019   5.810   8.191 -0.2005  0.1018  0.1606
  472MOL0     C62231   2.149   5.764   8.166  0.7319  0.3795  0.5101
  472MOL0     C62232   2.228   5.830   8.280  0.3351 -0.1935 -0.3247
  472MOL0     C62233   2.373   5.765   8.299 -0.2942  0.4514 -0.4365
  472MOL0     C62234   2.444   5.818   8.425 -0.4777 -0.4815  0.0903
  472MOL0     C62235   2.369   5.787   8.550 -0.3387 -0.5409 -0.3092
  472MOL0     C62236   2.312   5.742   8.651 -0.9461  0.4749 -0.1571
  472MOL0     C62237   1.790   5.772   8.157 -0.4259 -0.5510  0.6050
  472MOL0     C62238   1.671   5.731   8.094 -0.2143  0.4780 -0.4991
  472MOL0     H62239   1.268   5.891   7.862  1.7269 -0.6751 -0.3783
  472MOL0     H62240   1.052   5.860   7.744  2.4958  1.0328  1.2953
  472MOL0     H62241   0.854   5.613   7.791  0.6396 -2.8375  0.3676
  472MOL0     H62242   0.874   5.472   7.694 -3.3707  0.0084 -1.1344
  472MOL0     H62243   0.726   5.717   7.616 -3.1212  0.3498 -2.7433
  472MOL0     H62244   0.663   5.549   7.667  1.1212  1.2238  1.8708
  472MOL0     H62245   0.803   5.632   7.407  1.0110 -0.9452 -0.2543
  472MOL0     H62246   0.629   5.583   7.435 -0.3629 -1.3543  0.5369
  472MOL0     H62247   0.769   5.383   7.332  0.1432 -1.1822 -0.1377
  472MOL0     H62248   0.870   5.396   7.477 -0.0714 -0.4225  0.4633
  472MOL0     H62249   0.676   5.335   7.613  2.0502  1.3401 -0.0839
  472MOL0     H62250   0.701   5.219   7.482 -1.6346 -0.4852 -1.2859
  472MOL0     H62251   0.531   5.328   7.353 -0.2460  0.2904 -0.2082
  472MOL0     H62252   0.477   5.439   7.486  2.5701  1.4928 -0.2755
  472MOL0     H62253   0.494   5.148   7.520  1.5108  1.0543  2.2542
  472MOL0     H62254   0.420   5.274   7.632 -4.0307  0.8986  0.0571
  472MOL0     H62255   0.251   5.349   7.446 -1.1041 -1.0725 -1.5568
  472MOL0     H62256   0.218   5.232   7.564 -1.6277 -1.1196  0.0504
  472MOL0     H62257   0.190   4.987   7.494  1.9868 -1.5708 -0.1807
  472MOL0     H62258   0.207   4.769   7.343 -1.2980 -0.3813  0.6892
  472MOL0     H62259   0.220   4.774   7.163  1.5359  0.8083  0.7910
  472MOL0     H62260  -0.018   4.874   7.335 -1.9349 -1.2977 -0.3246
  472MOL0     H62261  -0.004   4.735   7.242 -0.4662  0.7472  2.7424
  472MOL0     H62262   0.022   5.019   7.132  1.8659 -0.7176 -0.5568
  472MOL0     H62263   0.008   4.877   7.030 -0.9469 -1.9331 -0.3823
  472MOL0     H62264  -0.198   5.012   7.067  1.4042 -1.6558 -1.5971
  472MOL0     H62265  -0.201   4.973   7.242  0.6760 -0.1779 -0.3352
  472MOL0     H62266  -0.406   5.022   7.144 -0.1004 -0.1332  1.1051
  472MOL0     H62267  -0.640   5.012   7.106  1.5233  0.1072  2.9561
  472MOL0     H62268  -1.066   4.731   6.946 -1.5573  2.1383  0.0230
  472MOL0     H62269  -1.301   4.668   6.994 -0.4029  1.6107  0.4925
  472MOL0     H62270  -1.424   4.493   7.014  1.1429 -0.9116  0.6968
  472MOL0     H62271  -1.526   4.622   7.094 -1.4778 -0.0062  0.4520
  472MOL0     H62272  -1.638   4.427   7.229 -1.0158  0.7131 -0.3937
  472MOL0     H62273  -1.541   4.317   7.131 -1.6583 -1.1606 -0.5005
  472MOL0     H62274  -1.646   4.440   6.931  0.0423  0.7361 -0.4918
  472MOL0     H62275  -1.734   4.537   7.049  1.1549  0.6037  0.7113
  472MOL0     H62276  -1.746   4.226   7.047 -1.0743  0.0448  0.8084
  472MOL0     H62277  -1.853   4.337   7.133  2.6092  2.5572  0.4171
  472MOL0     H62278  -1.827   4.323   6.826  2.1309  1.4883  0.9591
  472MOL0     H62279  -1.941   4.419   6.930  0.8960  0.1545  2.6270
  472MOL0     H62280  -2.052   4.193   6.995 -1.0097 -1.7150 -1.1369
  472MOL0     H62281  -1.923   4.110   6.913  1.2284  1.5075  2.3821
  472MOL0     H62282  -2.128   4.294   6.783  2.1205  0.5161  0.4508
  472MOL0     H62283  -2.020   4.184   6.697  0.5905 -0.7760  0.0749
  472MOL0     H62284  -2.125   3.993   6.776  0.7162  1.0929  0.3873
  472MOL0     H62285  -2.236   4.093   6.687  1.8233 -1.6642 -2.8648
  472MOL0     H62286  -1.167   4.443   7.338  2.0677 -0.2585  0.4298
  472MOL0     H62287  -0.933   4.528   7.293  1.5372  2.3779  0.1269
  472MOL0     H62288  -0.612   4.579   7.056 -0.3392 -0.5143  0.5245
  472MOL0     H62289  -0.371   4.609   7.069 -2.9802 -2.5209 -0.2978
  472MOL0     H62290   1.151   5.443   7.682  1.1237 -0.6100 -0.2690
  472MOL0     H62291   1.347   5.476   7.828  0.2448  0.5393  0.9819
  472MOL0     H62292   1.825   5.650   7.800 -1.8008 -0.2424 -0.1924
  472MOL0     H62293   2.018   5.710   7.914 -0.0098  2.4000 -1.4575
  472MOL0     H62294   2.189   5.783   8.066  2.5931 -2.2847  0.6325
  472MOL0     H62295   2.159   5.656   8.174 -0.4950  0.3628  2.1928
  472MOL0     H62296   2.243   5.935   8.255 -1.2149  0.5430  1.5254
  472MOL0     H62297   2.174   5.830   8.375 -0.1885 -0.6368 -0.6180
  472MOL0     H62298   2.429   5.790   8.209 -1.9059  0.2114 -1.5538
  472MOL0     H62299   2.378   5.657   8.317  0.0921  0.6379  0.6256
  472MOL0     H62300   2.544   5.773   8.419  0.4208  1.3202  0.8335
  472MOL0     H62301   2.455   5.926   8.414 -1.8654 -0.0898  1.9984
  472MOL0     H62302   2.272   5.689   8.735 -1.8431  1.6849  0.2101
  472MOL0     H62303   1.775   5.809   8.258  1.3576  1.4587  0.2151
  472MOL0     H62304   1.576   5.741   8.145  0.7022  0.8525  1.1846
  473MOL0     O62305  10.219   0.911   3.996 -0.2257  0.0706  0.0711
  473MOL0     C62306  10.224   0.917   4.121 -0.8011  0.2559  0.2471
  473MOL0     O62307  10.119   0.939   4.200 -0.2502 -0.8236 -0.2004
  473MOL0     C62308   9.989   0.915   4.152  0.2556 -1.2324 -0.6583
  473MOL0     C62309   9.884   1.004   4.183 -0.3698 -0.5093 -0.1470
  473MOL0     C62310   9.757   0.979   4.126 -0.5035  1.0965  0.3561
  473MOL0     C62311   9.733   0.876   4.038  0.0552 -0.4044  0.6274
  473MOL0     O62312   9.604   0.870   3.985 -0.4319 -0.2596  0.3173
  473MOL0     C62313   9.585   0.786   3.868  0.0883 -0.0444  0.3367
  473MOL0     C62314   9.504   0.652   3.894 -0.5317  0.0237 -0.1950
  473MOL0     C62315   9.374   0.685   3.959  0.0693  0.3802 -0.3812
  473MOL0     C62316   9.286   0.759   3.856 -1.1476  0.0444  0.6839
  473MOL0     C62317   9.170   0.836   3.918  0.0886  0.3467  0.0845
  473MOL0     C62318   9.095   0.903   3.803 -0.1702  0.1199 -0.0418
  473MOL0     C62319   8.978   0.979   3.847  0.9418 -1.0794 -0.2081
  473MOL0     C62320   8.875   1.009   3.728  0.3713  0.1410 -0.0356
  473MOL0     N62321   8.750   1.058   3.777 -0.5598  0.3506 -1.0490
  473MOL0     C62322   8.649   0.980   3.824 -0.1425  0.3972 -0.1010
  473MOL0     C62323   8.545   1.067   3.852 -0.2786  0.1693 -0.2662
  473MOL0     C62324   8.435   1.035   3.950 -0.4485 -0.3444  0.4556
  473MOL0     C62325   8.354   0.909   3.906  0.2578 -0.1684  0.6598
  473MOL0     C62326   8.229   0.905   3.989  0.4614  0.2937 -0.9819
  473MOL0     C62327   8.140   0.795   3.939  0.0161 -0.6728 -0.3082
  473MOL0     O62328   8.015   0.780   4.021 -0.5835 -0.1000  0.3823
  473MOL0     C62329   7.895   0.798   3.956  0.2999 -0.0241 -0.0205
  473MOL0     C62330   7.807   0.894   3.984 -0.7421 -0.7072 -0.3203
  473MOL0     C62331   7.684   0.909   3.927  0.1243 -0.6291  0.3772
  473MOL0     C62332   7.649   0.818   3.824 -0.3578 -0.7896  0.0070
  473MOL0     C62333   7.521   0.843   3.753 -0.0732  1.3947  0.0840
  473MOL0     O62334   7.486   0.755   3.654 -0.1828 -0.5559  0.3491
  473MOL0     C62335   7.360   0.764   3.609  0.1590  0.2648 -0.2187
  473MOL0     C62336   7.246   0.694   3.658  0.0240  0.9155 -1.0479
  473MOL0     C62337   7.128   0.711   3.593  0.6659 -1.1558  0.2730
  473MOL0     C62338   7.101   0.787   3.480 -0.4080  0.3955  0.2834
  473MOL0     O62339   6.980   0.781   3.422  0.2309 -0.3173  0.8820
  473MOL0     C62340   6.938   0.865   3.313 -0.4931  0.0346 -0.1894
  473MOL0     C62341   6.789   0.829   3.294 -0.1337  0.0808  0.5407
  473MOL0     C62342   6.733   0.883   3.155  0.1073 -0.0443  0.0533
  473MOL0     C62343   6.603   0.814   3.135 -0.2085  0.1601 -0.5443
  473MOL0     C62344   6.493   0.830   3.240  1.0021  0.3686  0.8084
  473MOL0     C62345   6.360   0.766   3.200  0.3494 -0.3216  0.9956
  473MOL0     C62346   6.244   0.828   3.286  0.2400 -0.2049  0.5180
  473MOL0     C62347   6.129   0.729   3.289 -0.0733  0.0126  0.6352
  473MOL0    Cl62348   6.040   0.809   3.416 -0.0953 -0.3583  0.0636
  473MOL0     C62349   7.216   0.846   3.427 -0.1375 -0.0219 -0.4089
  473MOL0     C62350   7.339   0.836   3.490  0.3205  0.6643 -0.7493
  473MOL0     O62351   7.443   0.923   3.803 -0.4682 -0.3458 -0.0050
  473MOL0     C62352   7.736   0.723   3.786 -0.0558 -0.7918 -0.5257
  473MOL0     C62353   7.855   0.716   3.852 -0.2438 -0.0376 -0.0331
  473MOL0     N62354   8.591   1.196   3.820 -1.0102 -0.4156 -0.0494
  473MOL0     N62355   8.720   1.186   3.790  0.1294 -0.9739  0.0109
  473MOL0     C62356   9.828   0.784   4.033  0.2011 -0.1155 -0.2023
  473MOL0     C62357   9.961   0.801   4.085  0.6453 -0.0270 -0.0549
  473MOL0     C62358  10.356   0.911   4.189 -0.9604 -0.0649 -0.4585
  473MOL0     C62359  10.369   0.952   4.323  0.1148  0.1765 -0.4941
  473MOL0     C62360  10.495   0.942   4.391  0.7016  0.3008 -0.2982
  473MOL0     C62361  10.606   0.906   4.320 -0.3691  0.3383  0.1413
  473MOL0     O62362  10.724   0.914   4.393  0.5058  0.7889 -0.0871
  473MOL0     C62363  10.852   0.900   4.331  0.5702  0.3084 -0.4347
  473MOL0     C62364  10.906   1.034   4.275 -0.1901 -0.2654  0.8716
  473MOL0     C62365  11.052   1.024   4.250 -0.0206 -0.3559 -0.2797
  473MOL0     C62366  11.118   1.149   4.180 -0.8072  0.8733 -0.1950
  473MOL0     C62367  11.264   1.141   4.199  0.0652 -0.0022 -0.7058
  473MOL0     C62368  11.378   1.126   4.249  0.3079 -0.5286  0.1171
  473MOL0     C62369  10.596   0.883   4.180 -0.5415  0.7722 -0.2006
  473MOL0     C62370  10.477   0.878   4.122 -0.5638  0.2510 -0.0904
  473MOL0     H62371   9.901   1.086   4.252 -2.7345 -0.4259  0.4143
  473MOL0     H62372   9.664   1.032   4.140 -3.3770 -3.0467 -1.1794
  473MOL0     H62373   9.679   0.757   3.820  1.0814  3.1392  0.1482
  473MOL0     H62374   9.544   0.843   3.785  1.5105 -0.4275 -0.6546
  473MOL0     H62375   9.566   0.590   3.960  1.3589  1.8024 -0.2214
  473MOL0     H62376   9.488   0.602   3.798 -2.5877 -1.1375  0.6759
  473MOL0     H62377   9.403   0.736   4.051 -2.8781 -1.4788  1.7497
  473MOL0     H62378   9.321   0.600   4.003 -0.5848  1.2499  0.5496
  473MOL0     H62379   9.342   0.830   3.794 -1.1190 -1.1640 -0.7366
  473MOL0     H62380   9.253   0.683   3.785 -0.8209  0.9021 -0.4124
  473MOL0     H62381   9.210   0.911   3.986 -0.3139 -0.2834  1.0361
  473MOL0     H62382   9.110   0.758   3.966 -2.5760  2.0033 -0.3713
  473MOL0     H62383   9.062   0.828   3.731  0.9178 -0.2987 -0.1193
  473MOL0     H62384   9.167   0.963   3.747 -0.3347 -0.8554 -1.3239
  473MOL0     H62385   8.919   0.923   3.921  1.6465  1.3291  2.3560
  473MOL0     H62386   9.009   1.073   3.894  1.5737 -1.1945 -0.3908
  473MOL0     H62387   8.871   0.920   3.664 -0.2542 -2.5002  3.3832
  473MOL0     H62388   8.911   1.095   3.671 -1.8629  2.0173  1.2463
  473MOL0     H62389   8.647   0.872   3.835  0.8494  0.4762  1.0007
  473MOL0     H62390   8.381   1.130   3.953  3.2382  1.9384  0.9461
  473MOL0     H62391   8.477   1.017   4.049 -2.3288  1.1162  1.5879
  473MOL0     H62392   8.414   0.819   3.926  2.7737  1.8523  3.0126
  473MOL0     H62393   8.332   0.899   3.799 -0.0598 -1.9008  0.8510
  473MOL0     H62394   8.250   0.881   4.093  1.8248  4.0241 -0.2438
  473MOL0     H62395   8.169   0.997   3.997 -2.7735 -1.8371  3.5412
  473MOL0     H62396   8.196   0.701   3.947 -0.6501 -1.0883 -0.3843
  473MOL0     H62397   8.116   0.824   3.836 -3.2072 -0.6336  0.3565
  473MOL0     H62398   7.844   0.980   4.040  1.0403 -1.5943 -0.0745
  473MOL0     H62399   7.626   0.997   3.955  0.9714  0.1371 -0.2388
  473MOL0     H62400   7.247   0.629   3.746 -2.2308 -0.0242 -1.6580
  473MOL0     H62401   7.037   0.673   3.639 -2.3792  1.6681 -2.8163
  473MOL0     H62402   6.998   0.848   3.224 -1.8977  0.9496 -1.3614
  473MOL0     H62403   6.948   0.972   3.335  2.1341 -0.4925  1.6171
  473MOL0     H62404   6.733   0.881   3.372 -1.9005  0.7223 -1.0720
  473MOL0     H62405   6.772   0.721   3.292 -1.4198  0.0989 -5.0166
  473MOL0     H62406   6.792   0.863   3.065  0.3523 -1.2293  0.4489
  473MOL0     H62407   6.705   0.988   3.153  1.0516  0.2262  0.1797
  473MOL0     H62408   6.563   0.840   3.037  0.5674  2.2425 -0.3576
  473MOL0     H62409   6.631   0.708   3.138  2.6072  0.8420  1.9893
  473MOL0     H62410   6.469   0.937   3.241 -2.1014 -0.1369 -1.7593
  473MOL0     H62411   6.527   0.803   3.339 -3.1961  1.2982  2.7483
  473MOL0     H62412   6.377   0.658   3.207  1.5564 -0.2178 -0.0573
  473MOL0     H62413   6.336   0.786   3.096  2.4695  0.6117  0.6251
  473MOL0     H62414   6.291   0.857   3.381  4.6460 -0.5157 -1.3184
  473MOL0     H62415   6.206   0.920   3.241  0.5099 -0.8339 -1.0587
  473MOL0     H62416   6.170   0.634   3.324  0.3664 -0.8079 -1.9356
  473MOL0     H62417   6.079   0.712   3.193  0.8527 -0.8223  0.2915
  473MOL0     H62418   7.207   0.896   3.331 -1.1507  0.0755 -0.2665
  473MOL0     H62419   7.430   0.861   3.436  2.8696 -2.6116  1.5567
  473MOL0     H62420   7.713   0.659   3.701 -3.4266  0.8917 -1.0500
  473MOL0     H62421   7.931   0.641   3.830  2.0839  1.9266  0.9172
  473MOL0     H62422   9.817   0.690   3.981  1.0253  0.1866 -0.9544
  473MOL0     H62423  10.038   0.727   4.069 -1.2625 -2.0822 -0.2358
  473MOL0     H62424  10.300   1.007   4.387  2.8858  2.3927  0.8217
  473MOL0     H62425  10.506   0.976   4.494 -2.4768  2.8487 -0.6078
  473MOL0     H62426  10.851   0.816   4.261 -2.5234  0.7425 -1.0693
  473MOL0     H62427  10.906   0.867   4.421 -3.5269 -0.6448  1.9250
  473MOL0     H62428  10.869   1.079   4.182  1.7378  0.4545  0.4217
  473MOL0     H62429  10.895   1.105   4.357 -2.2128  1.3048 -0.6420
  473MOL0     H62430  11.071   0.943   4.178  0.6579 -0.1418 -0.3556
  473MOL0     H62431  11.100   0.996   4.345  0.9324 -2.4719 -1.3070
  473MOL0     H62432  11.097   1.166   4.074  3.0207  4.8248 -0.6088
  473MOL0     H62433  11.085   1.238   4.234 -0.3404  0.8261  0.1767
  473MOL0     H62434  11.476   1.117   4.293  0.5244  0.6457 -0.0695
  473MOL0     H62435  10.687   0.850   4.132 -0.7020 -1.4834  0.9109
  473MOL0     H62436  10.479   0.846   4.018  2.8532 -1.1593  0.2768
  474MOL0     O62437   1.000   8.752   3.637  0.2093 -0.1855  0.0199
  474MOL0     C62438   1.107   8.808   3.671 -0.3158 -0.8602 -0.4880
  474MOL0     O62439   1.137   8.867   3.797 -0.2771  0.6146  1.3605
  474MOL0     C62440   1.040   8.896   3.890  0.4444 -0.2854 -0.4827
  474MOL0     C62441   1.070   8.881   4.027  0.9199 -1.1210 -0.1667
  474MOL0     C62442   0.972   8.915   4.121  0.0301 -0.2634  0.3061
  474MOL0     C62443   0.857   8.990   4.082 -0.2119  0.7371 -0.4946
  474MOL0     O62444   0.783   9.033   4.192 -0.0880  0.1894  0.1276
  474MOL0     C62445   0.677   9.125   4.174 -0.2458  0.7840  0.1544
  474MOL0     C62446   0.622   9.154   4.317  0.0802  0.5470  0.5808
  474MOL0     C62447   0.529   9.275   4.318  0.8424  0.5704  0.3645
  474MOL0     C62448   0.488   9.297   4.464  0.2301 -0.2041 -0.3450
  474MOL0     C62449   0.366   9.392   4.467 -0.1441  0.3945  0.2388
  474MOL0     C62450   0.318   9.426   4.611 -0.0119 -0.7909 -0.3962
  474MOL0     C62451   0.276   9.565   4.637 -0.2654 -0.4106 -0.8614
  474MOL0     C62452   0.179   9.568   4.757  0.2810  0.1733 -0.3987
  474MOL0     N62453   0.141   9.705   4.793  0.4580 -0.3646 -0.2230
  474MOL0     C62454   0.127   9.806   4.703 -0.1079 -1.0661  0.9180
  474MOL0     C62455   0.087   9.915   4.777  0.1910 -0.0539  0.3307
  474MOL0     C62456   0.050  10.057   4.733 -0.5648 -0.3981  0.0238
  474MOL0     C62457  -0.097  10.052   4.687 -0.2870 -0.2916 -0.1045
  474MOL0     C62458  -0.123  10.186   4.628  0.3218 -0.1355 -0.5709
  474MOL0     C62459  -0.264  10.201   4.557 -0.5402  0.2190 -0.7532
  474MOL0     O62460  -0.369  10.224   4.653  0.4906 -0.1267  0.5456
  474MOL0     C62461  -0.497  10.237   4.606  0.6121  0.0422  0.4588
  474MOL0     C62462  -0.595  10.255   4.707  0.8321 -0.5827  0.0080
  474MOL0     C62463  -0.729  10.288   4.663 -0.0586  0.1464  0.2215
  474MOL0     C62464  -0.766  10.285   4.522  0.5883 -0.5918 -0.3956
  474MOL0     C62465  -0.905  10.311   4.482 -0.4853  0.5620  0.3571
  474MOL0     O62466  -0.941  10.282   4.349  0.0266 -0.1485 -0.0393
  474MOL0     C62467  -1.074  10.297   4.325 -0.5211  0.0687  0.5944
  474MOL0     C62468  -1.178  10.219   4.386 -0.1644 -0.3264 -0.1884
  474MOL0     C62469  -1.311  10.242   4.341  0.0214  0.6900 -0.4475
  474MOL0     C62470  -1.343  10.332   4.238  0.9651  0.0468  0.6680
  474MOL0     O62471  -1.466  10.344   4.182  0.3593  0.4793 -0.7465
  474MOL0     C62472  -1.558  10.227   4.194  0.4208 -0.8629  0.6318
  474MOL0     C62473  -1.681  10.269   4.111  0.2998  1.1661  0.5530
  474MOL0     C62474  -1.663  10.286   3.957 -0.2197  0.0013  0.1514
  474MOL0     C62475  -1.788  10.361   3.898  1.6642 -0.8256 -0.9401
  474MOL0     C62476  -1.784  10.380   3.745 -0.4975 -0.0798  1.0119
  474MOL0     C62477  -1.738  10.248   3.674  1.1829 -0.8785 -0.4156
  474MOL0     C62478  -1.732  10.248   3.515 -0.0914  0.0202  0.1043
  474MOL0     C62479  -1.864  10.267   3.433 -0.5090  0.3053 -0.4420
  474MOL0    Cl62480  -1.968  10.116   3.426  0.0551  0.5004  0.2279
  474MOL0     C62481  -1.234  10.404   4.185  0.9148 -0.8154 -0.2550
  474MOL0     C62482  -1.104  10.394   4.232  0.6056 -0.5360 -0.3615
  474MOL0     O62483  -0.976  10.342   4.573  0.6875  0.2147  0.1246
  474MOL0     C62484  -0.669  10.257   4.435  0.5968 -1.0724  0.1920
  474MOL0     C62485  -0.542  10.239   4.470 -0.1082  1.5563 -0.1688
  474MOL0     N62486   0.083   9.878   4.913  0.0021 -1.0251 -0.3495
  474MOL0     N62487   0.123   9.753   4.919  0.4625  0.1780 -0.4210
  474MOL0     C62488   0.826   9.004   3.943  0.2225 -1.2675 -0.2538
  474MOL0     C62489   0.916   8.956   3.846 -0.8672 -1.5073  0.6204
  474MOL0     C62490   1.223   8.770   3.587  0.3975 -0.7228  0.4914
  474MOL0     C62491   1.345   8.756   3.642  0.5365 -0.0281 -0.5413
  474MOL0     C62492   1.454   8.720   3.563  0.8411  0.3081 -0.9585
  474MOL0     C62493   1.442   8.696   3.427  0.1700  0.0783  0.3310
  474MOL0     O62494   1.538   8.651   3.343 -0.4187 -0.0514 -0.1287
  474MOL0     C62495   1.653   8.583   3.402 -0.2722  0.3907  0.3629
  474MOL0     C62496   1.767   8.678   3.410  0.9174 -0.8575  0.1202
  474MOL0     C62497   1.799   8.727   3.259 -0.3488  0.1651 -0.3934
  474MOL0     C62498   1.856   8.629   3.164  0.1690  0.0177  0.6342
  474MOL0     C62499   1.965   8.561   3.223 -0.3519  0.5253  0.5023
  474MOL0     C62500   2.053   8.501   3.278  0.0339  0.2866 -0.2800
  474MOL0     C62501   1.313   8.704   3.372  0.6134 -0.0246  0.6246
  474MOL0     C62502   1.205   8.741   3.453  0.1408  0.1180  0.1831
  474MOL0     H62503   1.160   8.839   4.070  2.9203  2.7656 -0.1571
  474MOL0     H62504   0.982   8.892   4.227 -0.3160 -2.4438 -0.0939
  474MOL0     H62505   0.598   9.097   4.103 -0.9230  0.2655  1.0874
  474MOL0     H62506   0.716   9.221   4.138  0.7354 -0.6183 -2.9083
  474MOL0     H62507   0.699   9.160   4.395  0.8134  0.4058 -0.1146
  474MOL0     H62508   0.556   9.070   4.341 -1.3925 -0.5838 -5.6174
  474MOL0     H62509   0.446   9.241   4.255 -0.2474  3.1339  0.2876
  474MOL0     H62510   0.585   9.358   4.273  2.1105 -0.8204 -0.7185
  474MOL0     H62511   0.459   9.203   4.512 -1.0528  0.7467  0.8371
  474MOL0     H62512   0.587   9.325   4.502  1.4783 -2.0299 -2.0528
  474MOL0     H62513   0.280   9.354   4.413 -0.0901 -1.0931  1.1588
  474MOL0     H62514   0.386   9.488   4.417 -1.6340  0.6482  0.0945
  474MOL0     H62515   0.409   9.417   4.671  0.1192 -1.3679 -0.6718
  474MOL0     H62516   0.242   9.349   4.626 -1.1867 -0.0128 -2.0606
  474MOL0     H62517   0.373   9.615   4.645 -0.4523  0.0511 -1.3427
  474MOL0     H62518   0.242   9.613   4.544  4.4559  0.0791 -2.6027
  474MOL0     H62519   0.231   9.518   4.839 -0.7729  2.7896  2.0189
  474MOL0     H62520   0.085   9.515   4.745 -0.9079  2.3438 -1.2295
  474MOL0     H62521   0.136   9.806   4.595 -2.1335  3.1701  0.5312
  474MOL0     H62522   0.107  10.081   4.643 -1.3872 -0.2334 -0.4609
  474MOL0     H62523   0.066  10.122   4.820 -0.0442  0.8444 -0.9757
  474MOL0     H62524  -0.171  10.031   4.765 -0.3083  2.5024  0.7236
  474MOL0     H62525  -0.119   9.977   4.609 -1.7835  2.0329 -2.0636
  474MOL0     H62526  -0.121  10.254   4.713 -1.1570 -0.8777  0.0972
  474MOL0     H62527  -0.048  10.216   4.554  0.7404  2.3662  0.7707
  474MOL0     H62528  -0.289  10.106   4.510 -0.0198 -1.1878  1.6862
  474MOL0     H62529  -0.265  10.278   4.479  0.6260  0.0778 -0.9207
  474MOL0     H62530  -0.577  10.276   4.812  0.3147  2.4054 -0.3904
  474MOL0     H62531  -0.811  10.307   4.731 -1.4760 -0.2127 -1.3335
  474MOL0     H62532  -1.137  10.136   4.443  3.3098  1.7356  0.6143
  474MOL0     H62533  -1.389  10.183   4.390 -2.1606  1.8278 -2.3530
  474MOL0     H62534  -1.597  10.205   4.293 -2.8783 -1.9373 -0.7789
  474MOL0     H62535  -1.507  10.139   4.151  1.3657 -0.7687  1.5149
  474MOL0     H62536  -1.702  10.369   4.148  2.8605  2.2321 -0.6379
  474MOL0     H62537  -1.767  10.212   4.147  1.2655 -2.3040 -2.0969
  474MOL0     H62538  -1.653  10.189   3.908  1.8719 -0.0391  0.5549
  474MOL0     H62539  -1.573  10.344   3.937 -1.6232  1.1092 -3.8545
  474MOL0     H62540  -1.873  10.296   3.917  1.4671 -0.8209 -1.7774
  474MOL0     H62541  -1.808  10.459   3.943  2.0734  0.0081 -2.4824
  474MOL0     H62542  -1.712  10.461   3.730  0.6541 -1.3729 -0.8964
  474MOL0     H62543  -1.883  10.411   3.710 -0.3652 -0.5777  0.1732
  474MOL0     H62544  -1.806  10.170   3.709 -0.8894  0.5106 -1.1589
  474MOL0     H62545  -1.634  10.229   3.703  0.0634 -1.7367  3.5355
  474MOL0     H62546  -1.659  10.322   3.481  0.9395 -0.9259  0.1774
  474MOL0     H62547  -1.686  10.157   3.474 -1.3340  0.1902 -1.7529
  474MOL0     H62548  -1.848  10.295   3.329 -1.5860  1.2253 -0.3784
  474MOL0     H62549  -1.922  10.343   3.486 -1.7166 -1.6666  1.2573
  474MOL0     H62550  -1.269  10.466   4.102  1.3936 -1.5550 -1.0227
  474MOL0     H62551  -1.027  10.455   4.185 -0.3863  3.4137  2.5891
  474MOL0     H62552  -0.690  10.250   4.329  1.1343 -1.2147  0.0889
  474MOL0     H62553  -0.462  10.219   4.399  1.4871  1.1325  1.6437
  474MOL0     H62554   0.735   9.051   3.906  2.8652  4.3095 -0.6641
  474MOL0     H62555   0.895   8.973   3.741 -1.3275 -0.4855  0.8643
  474MOL0     H62556   1.360   8.772   3.749  0.6243 -3.6726  0.1345
  474MOL0     H62557   1.541   8.697   3.624 -1.9094 -3.2227  2.1139
  474MOL0     H62558   1.685   8.493   3.349 -0.8196  0.5853 -0.3058
  474MOL0     H62559   1.640   8.544   3.504 -1.4081  0.3093  0.1945
  474MOL0     H62560   1.741   8.766   3.469  0.1025 -0.0304 -1.4143
  474MOL0     H62561   1.853   8.632   3.460  1.2993 -1.4139 -1.0063
  474MOL0     H62562   1.873   8.804   3.280 -0.7934 -0.0505  2.2147
  474MOL0     H62563   1.713   8.778   3.215 -0.3107  0.5690 -0.0033
  474MOL0     H62564   1.771   8.566   3.136 -1.7207  3.2740 -1.5800
  474MOL0     H62565   1.902   8.682   3.079  0.6801 -3.4850 -1.5138
  474MOL0     H62566   2.126   8.451   3.338 -1.9378 -3.6317 -0.8833
  474MOL0     H62567   1.281   8.693   3.268 -1.3269 -0.9105  1.2699
  474MOL0     H62568   1.109   8.762   3.406  0.2174 -0.0084 -0.0349
  475MOL0     O62569  10.094   8.006   6.816  0.5464 -0.1410  0.2141
  475MOL0     C62570  10.144   7.908   6.775 -0.5677  0.0109 -0.1816
  475MOL0     O62571  10.091   7.819   6.692 -0.0701 -0.6899  0.1343
  475MOL0     C62572   9.964   7.844   6.636 -0.0872 -0.4887  0.2064
  475MOL0     C62573   9.846   7.858   6.710 -0.7395  0.4874 -0.2325
  475MOL0     C62574   9.718   7.873   6.666  0.2923 -1.0000  0.1504
  475MOL0     C62575   9.708   7.887   6.526 -0.3294 -0.7237 -0.0432
  475MOL0     O62576   9.587   7.916   6.463 -0.2428 -1.0893  0.1685
  475MOL0     C62577   9.468   7.916   6.542  0.0700 -0.3213 -0.4753
  475MOL0     C62578   9.365   7.982   6.461 -0.3791  0.0975 -0.0584
  475MOL0     C62579   9.236   8.017   6.545 -0.3671  0.2229  0.1875
  475MOL0     C62580   9.131   8.098   6.473  0.5307  0.1274  0.6107
  475MOL0     C62581   9.012   8.017   6.413  0.2352 -0.2089 -0.8266
  475MOL0     C62582   8.887   8.107   6.409  0.4648 -0.7735 -0.0544
  475MOL0     C62583   8.822   8.122   6.542  1.0314  0.6561 -0.4855
  475MOL0     C62584   8.696   8.210   6.545  0.5383 -0.0233 -1.1541
  475MOL0     N62585   8.604   8.177   6.432  0.3068 -0.5681  0.2659
  475MOL0     C62586   8.524   8.071   6.417  0.1499 -0.9866 -0.2849
  475MOL0     C62587   8.449   8.102   6.311  0.8191  0.5976  1.2263
  475MOL0     C62588   8.348   7.994   6.267 -0.0867 -0.0299 -0.4009
  475MOL0     C62589   8.209   8.039   6.304 -0.0944 -0.0433 -0.0244
  475MOL0     C62590   8.169   7.991   6.447  0.0803 -0.3638 -0.3548
  475MOL0     C62591   8.081   8.089   6.517 -0.5652 -0.6859 -0.1925
  475MOL0     O62592   8.061   8.041   6.652  0.7166 -0.9504 -0.1016
  475MOL0     C62593   8.160   8.064   6.744 -0.4242  0.1911  0.2307
  475MOL0     C62594   8.270   8.152   6.749  0.0275 -0.1110  0.4141
  475MOL0     C62595   8.343   8.160   6.866 -0.1938 -0.5429 -0.6213
  475MOL0     C62596   8.326   8.084   6.983  0.1355 -0.4221  0.8496
  475MOL0     C62597   8.380   8.109   7.103  0.7072 -0.5188  0.1424
  475MOL0     O62598   8.369   8.011   7.196  0.3205  0.6856 -0.4531
  475MOL0     C62599   8.406   8.040   7.326  0.6031  0.5355 -0.1880
  475MOL0     C62600   8.315   8.120   7.403  0.0508  0.6977 -0.1142
  475MOL0     C62601   8.325   8.140   7.540 -1.2997 -0.0023  0.8638
  475MOL0     C62602   8.442   8.091   7.602  0.2050 -0.3594  0.1235
  475MOL0     O62603   8.465   8.109   7.735 -0.1046 -0.3682  0.2795
  475MOL0     C62604   8.376   8.169   7.824 -0.6744  0.3981 -0.5837
  475MOL0     C62605   8.448   8.199   7.963  0.5617  0.5575  1.1373
  475MOL0     C62606   8.498   8.071   8.022 -1.3562  0.3951  0.5536
  475MOL0     C62607   8.541   8.091   8.168  0.7551 -0.7885  0.0055
  475MOL0     C62608   8.588   7.963   8.238 -0.6050  0.0707  0.0795
  475MOL0     C62609   8.735   7.928   8.214  0.2358  0.0387  0.1153
  475MOL0     C62610   8.781   7.819   8.315  0.5688 -0.6690  0.3118
  475MOL0     C62611   8.896   7.732   8.255 -0.3200  1.1365  0.5412
  475MOL0    Cl62612   9.030   7.825   8.180  0.0689 -0.3593  0.3015
  475MOL0     C62613   8.538   8.018   7.524  0.3630  0.0683 -0.5297
  475MOL0     C62614   8.521   7.988   7.392  0.3405  0.7802  0.5250
  475MOL0     O62615   8.439   8.222   7.116 -0.3953  0.1632 -0.0286
  475MOL0     C62616   8.217   7.988   6.977 -0.2185 -0.3313  0.4852
  475MOL0     C62617   8.138   7.979   6.854  0.4192 -0.5335 -0.6043
  475MOL0     N62618   8.469   8.233   6.272 -0.6323  0.9368  0.5306
  475MOL0     N62619   8.564   8.276   6.345  0.9005 -0.4472 -0.2410
  475MOL0     C62620   9.818   7.853   6.448 -0.4003 -0.1545  0.9654
  475MOL0     C62621   9.951   7.834   6.501  0.2320  0.0664  0.3548
  475MOL0     C62622  10.287   7.885   6.820  0.2360  0.1599  0.2428
  475MOL0     C62623  10.344   7.956   6.926 -0.3524 -0.9546  0.8603
  475MOL0     C62624  10.467   7.939   6.982 -0.2277  0.6900  0.7800
  475MOL0     C62625  10.552   7.861   6.909  0.7409 -0.6093  0.4468
  475MOL0     O62626  10.679   7.861   6.957 -0.1175  0.0002 -0.3739
  475MOL0     C62627  10.794   7.809   6.882 -0.1808 -0.0788  0.3615
  475MOL0     C62628  10.927   7.840   6.947 -0.3290 -0.4922  0.7897
  475MOL0     C62629  11.050   7.779   6.874  0.3693 -0.5947  0.6122
  475MOL0     C62630  11.173   7.795   6.965  1.2254 -0.5685  0.4623
  475MOL0     C62631  11.274   7.714   6.901 -0.1177  0.0710  0.0117
  475MOL0     C62632  11.362   7.651   6.850  0.3938  0.3667 -0.3763
  475MOL0     C62633  10.511   7.796   6.787 -0.0920  0.9992  0.1782
  475MOL0     C62634  10.377   7.807   6.744  0.6643  0.1760  0.2437
  475MOL0     H62635   9.854   7.825   6.813  0.3576 -0.6622 -0.6530
  475MOL0     H62636   9.647   7.882   6.748  0.6821 -0.6217  0.4481
  475MOL0     H62637   9.477   7.972   6.636 -2.2144 -1.0029  0.2169
  475MOL0     H62638   9.430   7.819   6.573  0.8527 -0.1578  1.0862
  475MOL0     H62639   9.335   7.905   6.391  1.0646 -1.5652  1.0634
  475MOL0     H62640   9.399   8.072   6.409 -2.2853  2.8093  2.9415
  475MOL0     H62641   9.272   8.081   6.626  0.2480 -1.9671  1.7387
  475MOL0     H62642   9.197   7.923   6.587 -2.1820  0.1321 -1.5725
  475MOL0     H62643   9.094   8.180   6.535  0.8436  0.2909  0.5799
  475MOL0     H62644   9.176   8.148   6.387  0.9458 -0.5681  0.4141
  475MOL0     H62645   8.993   7.934   6.482 -0.4699  3.1708  3.5053
  475MOL0     H62646   9.040   7.990   6.311 -0.4185  2.2873 -1.7467
  475MOL0     H62647   8.820   8.061   6.336  0.4683  1.8883 -1.8681
  475MOL0     H62648   8.919   8.201   6.364  0.9087 -1.2260 -0.6949
  475MOL0     H62649   8.788   8.022   6.571  2.6780 -0.7132 -2.8925
  475MOL0     H62650   8.891   8.151   6.622  0.1410 -0.7323  0.8340
  475MOL0     H62651   8.710   8.318   6.554 -2.5122  0.2558  2.4722
  475MOL0     H62652   8.637   8.182   6.633 -0.1168  0.3101 -1.4799
  475MOL0     H62653   8.531   7.987   6.485 -1.6662 -1.0122 -0.0784
  475MOL0     H62654   8.368   7.896   6.311 -2.2858  0.5953  2.3238
  475MOL0     H62655   8.359   7.981   6.159  0.0077  0.7985 -0.5031
  475MOL0     H62656   8.125   8.002   6.245 -0.9871  1.9741 -0.1125
  475MOL0     H62657   8.205   8.147   6.289  1.7865  0.0183 -0.3208
  475MOL0     H62658   8.120   7.894   6.433  2.2373 -1.4441 -0.9035
  475MOL0     H62659   8.258   7.977   6.510 -1.6212 -0.5754  2.1730
  475MOL0     H62660   7.987   8.104   6.462 -0.3058 -0.3320 -0.5422
  475MOL0     H62661   8.119   8.191   6.507  3.0182 -1.9906 -1.4956
  475MOL0     H62662   8.290   8.215   6.663  1.1499 -1.3245 -0.2571
  475MOL0     H62663   8.419   8.239   6.870  0.1792 -0.9394  1.8778
  475MOL0     H62664   8.222   8.158   7.363 -0.0641  1.2991  0.7009
  475MOL0     H62665   8.245   8.196   7.588 -2.6215  0.6914 -1.9214
  475MOL0     H62666   8.293   8.099   7.835 -1.8835  1.4599 -2.4331
  475MOL0     H62667   8.331   8.263   7.792 -1.9616 -1.1479 -3.6967
  475MOL0     H62668   8.390   8.247   8.043 -0.8364  1.0057 -0.1095
  475MOL0     H62669   8.529   8.267   7.932 -3.0371  4.0717 -1.6399
  475MOL0     H62670   8.581   8.027   7.967 -0.7766  0.1475  1.5882
  475MOL0     H62671   8.416   7.999   8.031  0.1952 -1.4398  0.8231
  475MOL0     H62672   8.625   8.161   8.174  0.9431 -1.1339  1.9251
  475MOL0     H62673   8.458   8.136   8.223  2.2859  1.8166  0.3487
  475MOL0     H62674   8.519   7.880   8.219 -0.3360 -0.2643  0.5184
  475MOL0     H62675   8.574   7.979   8.346 -0.4496  0.5474  0.0277
  475MOL0     H62676   8.795   8.017   8.240 -0.7023  0.3813  1.2172
  475MOL0     H62677   8.746   7.897   8.110 -1.0003 -0.1677  0.0370
  475MOL0     H62678   8.812   7.879   8.401 -3.2789  0.7839  0.8989
  475MOL0     H62679   8.691   7.759   8.327 -0.4778  0.2425 -2.2084
  475MOL0     H62680   8.862   7.659   8.182  1.2257 -2.3953  3.0668
  475MOL0     H62681   8.939   7.674   8.338 -1.5795 -1.7867 -0.7429
  475MOL0     H62682   8.630   7.984   7.571 -0.1740  0.3102  0.7475
  475MOL0     H62683   8.591   7.927   7.336 -1.3560  1.3100 -2.3642
  475MOL0     H62684   8.197   7.931   7.068  0.0969  0.7448  1.2459
  475MOL0     H62685   8.052   7.918   6.876  0.3337  0.7704  3.3984
  475MOL0     H62686   9.805   7.847   6.341  0.5309  0.4534  0.8080
  475MOL0     H62687  10.045   7.822   6.448  2.2240 -1.0785  3.8112
  475MOL0     H62688  10.284   8.020   6.990 -0.5659  0.1596 -0.3963
  475MOL0     H62689  10.503   7.977   7.077  0.4338 -0.7349  1.1239
  475MOL0     H62690  10.803   7.855   6.784  3.6260  4.4577  2.4312
  475MOL0     H62691  10.788   7.704   6.852  1.9640  0.0315 -0.6553
  475MOL0     H62692  10.937   7.949   6.947 -0.4348 -0.4580 -0.7889
  475MOL0     H62693  10.920   7.793   7.045  0.9785  2.6527  2.5376
  475MOL0     H62694  11.061   7.838   6.783 -0.7385  0.6945  1.2801
  475MOL0     H62695  11.036   7.675   6.842  0.8184  0.0947 -2.0731
  475MOL0     H62696  11.199   7.901   6.967  1.2154 -0.5496 -0.1724
  475MOL0     H62697  11.141   7.776   7.068 -0.0060  0.9184  0.3972
  475MOL0     H62698  11.437   7.606   6.788  0.7604  0.8726 -0.3027
  475MOL0     H62699  10.579   7.730   6.736 -1.8021 -0.1360 -0.7164
  475MOL0     H62700  10.340   7.745   6.662  0.8745 -1.1708  1.1234
  476MOL0     O62701   0.663   2.119   3.868  0.8027  0.5849  0.9195
  476MOL0     C62702   0.717   2.084   3.763 -0.0968 -0.4172  2.1727
  476MOL0     O62703   0.721   2.160   3.647  0.0273  0.1664 -0.1208
  476MOL0     C62704   0.632   2.256   3.624  0.8375 -1.0327 -0.5627
  476MOL0     C62705   0.656   2.320   3.500  0.7833  0.2394 -0.3396
  476MOL0     C62706   0.585   2.435   3.456  0.2886  0.0407  0.0027
  476MOL0     C62707   0.484   2.499   3.525  0.1937 -0.3186 -0.8556
  476MOL0     O62708   0.428   2.610   3.463 -0.0319  0.2289 -0.4289
  476MOL0     C62709   0.311   2.669   3.528  0.2031  0.6168 -0.2032
  476MOL0     C62710   0.263   2.795   3.470  0.1215  0.3541 -0.0044
  476MOL0     C62711   0.155   2.874   3.554 -0.5518 -0.9038 -0.3215
  476MOL0     C62712   0.132   3.018   3.508  0.3213 -0.2567  0.1958
  476MOL0     C62713   0.041   3.101   3.599 -1.1002  0.7591  0.0547
  476MOL0     C62714  -0.095   3.044   3.580 -0.2544  0.2411 -0.0792
  476MOL0     C62715  -0.199   3.130   3.640 -0.8478 -0.4974  0.3520
  476MOL0     C62716  -0.197   3.114   3.792 -0.4302 -0.4504  0.9085
  476MOL0     N62717  -0.302   3.200   3.847  0.0944  0.3807  0.0556
  476MOL0     C62718  -0.432   3.164   3.842  0.0782 -0.1802 -0.2849
  476MOL0     C62719  -0.493   3.280   3.866 -0.6282 -1.0277  0.6550
  476MOL0     C62720  -0.636   3.295   3.869 -0.0652 -0.5795  0.3034
  476MOL0     C62721  -0.695   3.297   4.011 -0.4283  0.1820 -0.3658
  476MOL0     C62722  -0.840   3.287   4.012  0.0242  0.3512 -0.0840
  476MOL0     C62723  -0.895   3.319   4.150 -0.3063 -0.6087  0.2302
  476MOL0     O62724  -1.033   3.312   4.134  0.0189  0.6321 -0.6423
  476MOL0     C62725  -1.111   3.261   4.243  0.5587  0.3690  1.1019
  476MOL0     C62726  -1.078   3.229   4.376 -0.2473  0.0276  0.8228
  476MOL0     C62727  -1.174   3.156   4.454  0.4830 -0.1508 -0.7436
  476MOL0     C62728  -1.306   3.125   4.408  0.5282  0.2691 -0.6759
  476MOL0     C62729  -1.403   3.058   4.495 -0.1447  0.4640  0.0146
  476MOL0     O62730  -1.521   3.011   4.430 -0.1322  0.4066  0.3801
  476MOL0     C62731  -1.628   2.964   4.509  0.8897 -0.3001 -0.6516
  476MOL0     C62732  -1.679   2.840   4.469  0.2941 -0.1889  0.4756
  476MOL0     C62733  -1.801   2.792   4.521 -0.6144 -1.0246  0.9476
  476MOL0     C62734  -1.870   2.867   4.618  0.1337  0.0751  0.5140
  476MOL0     O62735  -1.985   2.827   4.680 -0.3512 -0.3994  0.0463
  476MOL0     C62736  -2.087   2.763   4.604  0.3209 -1.5307  0.2213
  476MOL0     C62737  -2.182   2.871   4.547 -0.0793  0.6645  0.7869
  476MOL0     C62738  -2.307   2.806   4.476 -0.8157  0.5954 -0.9768
  476MOL0     C62739  -2.398   2.906   4.396 -0.2333  0.2806 -0.3637
  476MOL0     C62740  -2.545   2.863   4.394 -0.2366  0.6009  1.1090
  476MOL0     C62741  -2.614   2.956   4.294  0.6088 -0.1442  0.0141
  476MOL0     C62742  -2.762   2.927   4.268 -0.3429  0.0484  0.3568
  476MOL0     C62743  -2.843   3.055   4.263 -0.1124  0.2623  0.3184
  476MOL0    Cl62744  -2.973   3.043   4.398  0.1407 -0.2747  0.0523
  476MOL0     C62745  -1.808   2.981   4.664 -0.0889 -1.1072 -0.2371
  476MOL0     C62746  -1.681   3.026   4.617  0.3077  0.3668 -0.4531
  476MOL0     O62747  -1.381   3.051   4.619 -0.4398 -0.4554 -0.0006
  476MOL0     C62748  -1.340   3.158   4.274 -0.4013  0.4764 -0.0678
  476MOL0     C62749  -1.236   3.215   4.194 -0.5993  0.6022 -0.2991
  476MOL0     N62750  -0.401   3.387   3.894  0.6415  0.0230  0.4412
  476MOL0     N62751  -0.280   3.332   3.876  1.1379  0.2338  0.2158
  476MOL0     C62752   0.464   2.436   3.656  0.5863 -0.4402 -0.1635
  476MOL0     C62753   0.525   2.314   3.699  0.6958  0.0840  0.7102
  476MOL0     C62754   0.786   1.954   3.767  0.2190 -0.1684  0.7661
  476MOL0     C62755   0.822   1.882   3.876  0.6468 -0.8421  0.0359
  476MOL0     C62756   0.883   1.757   3.870  0.6933 -0.3313  0.6450
  476MOL0     C62757   0.910   1.693   3.751 -0.3110 -0.5981  0.0372
  476MOL0     O62758   0.976   1.576   3.749  0.1070  0.4365 -0.1544
  476MOL0     C62759   1.021   1.512   3.628 -0.1582  0.1926 -0.2636
  476MOL0     C62760   1.150   1.574   3.583 -0.2238 -0.5008  0.6344
  476MOL0     C62761   1.259   1.582   3.681 -0.4042 -0.0839  0.1035
  476MOL0     C62762   1.314   1.445   3.728  0.1935  0.2996  0.1549
  476MOL0     C62763   1.431   1.466   3.817  0.1179  0.2955 -0.4477
  476MOL0     C62764   1.522   1.482   3.896  0.1151  0.0571  0.0994
  476MOL0     C62765   0.882   1.767   3.634  0.0344 -0.0258 -0.4011
  476MOL0     C62766   0.809   1.894   3.643  0.1186  0.4142  0.4322
  476MOL0     H62767   0.742   2.283   3.444 -1.5074 -2.6737 -2.2903
  476MOL0     H62768   0.606   2.482   3.360  0.3074  1.5402  0.6987
  476MOL0     H62769   0.348   2.695   3.628  0.6615  2.2024 -0.7469
  476MOL0     H62770   0.226   2.601   3.534  0.8320 -0.3423 -1.6893
  476MOL0     H62771   0.215   2.764   3.377 -3.6884 -2.2425  2.5487
  476MOL0     H62772   0.352   2.855   3.448 -0.0601  0.8140  0.4863
  476MOL0     H62773   0.180   2.888   3.659 -2.9582  3.3564 -0.0850
  476MOL0     H62774   0.064   2.813   3.557 -0.6434 -0.9584 -2.3260
  476MOL0     H62775   0.225   3.074   3.521 -0.1468 -0.0239  3.0783
  476MOL0     H62776   0.106   3.023   3.401  0.5108 -1.8713  0.0440
  476MOL0     H62777   0.045   3.205   3.565 -0.8582  1.1058  1.1144
  476MOL0     H62778   0.068   3.100   3.705  0.4943 -1.9830 -0.2946
  476MOL0     H62779  -0.098   2.942   3.621 -1.9890  0.8003  1.2892
  476MOL0     H62780  -0.113   3.033   3.472  2.4020 -1.8095 -0.4317
  476MOL0     H62781  -0.181   3.236   3.618 -2.7743 -0.1644  0.2198
  476MOL0     H62782  -0.299   3.117   3.597 -1.8422 -0.3527  2.5043
  476MOL0     H62783  -0.107   3.151   3.842 -2.1244  0.6604  3.3452
  476MOL0     H62784  -0.201   3.010   3.824  1.6409 -0.9617 -0.3460
  476MOL0     H62785  -0.492   3.075   3.821 -2.7061  0.8729  2.3798
  476MOL0     H62786  -0.687   3.219   3.808  0.3372 -0.8262  0.2747
  476MOL0     H62787  -0.652   3.397   3.830 -1.2227 -0.8178  0.1021
  476MOL0     H62788  -0.659   3.381   4.072  3.7466 -2.1631  0.7379
  476MOL0     H62789  -0.654   3.212   4.066 -1.0557  0.2601  0.2313
  476MOL0     H62790  -0.879   3.352   3.933  0.6929 -0.5838 -1.2221
  476MOL0     H62791  -0.873   3.185   3.988  1.7615 -0.9536  2.6412
  476MOL0     H62792  -0.867   3.419   4.182 -2.2663  0.8533 -2.2091
  476MOL0     H62793  -0.856   3.247   4.223 -0.6748  1.4105  2.5397
  476MOL0     H62794  -0.980   3.261   4.411 -0.7805  0.8812  1.5653
  476MOL0     H62795  -1.141   3.130   4.554  0.5642  0.5061 -0.5983
  476MOL0     H62796  -1.631   2.787   4.388 -0.3576  1.9704 -1.4343
  476MOL0     H62797  -1.835   2.694   4.488  2.5214 -1.0993 -2.6971
  476MOL0     H62798  -2.149   2.694   4.662  0.5290 -0.9971  1.0781
  476MOL0     H62799  -2.036   2.705   4.526  1.6434  0.4004 -0.4246
  476MOL0     H62800  -2.131   2.940   4.479 -0.3105 -1.3198 -1.5453
  476MOL0     H62801  -2.215   2.927   4.636 -0.0303 -0.5126  1.5727
  476MOL0     H62802  -2.370   2.764   4.555 -2.1707  1.4956 -1.5536
  476MOL0     H62803  -2.269   2.730   4.407 -0.5263  0.3717 -0.5776
  476MOL0     H62804  -2.387   3.001   4.449  0.2995  0.0520 -0.0496
  476MOL0     H62805  -2.351   2.915   4.298  1.2298 -1.4709  0.1150
  476MOL0     H62806  -2.588   2.860   4.494  1.7405  0.8792  2.0095
  476MOL0     H62807  -2.554   2.759   4.359 -0.7252 -0.1473  3.2789
  476MOL0     H62808  -2.565   2.951   4.197 -3.3477 -0.3183 -2.1998
  476MOL0     H62809  -2.594   3.061   4.314  3.3977 -0.7521  0.7776
  476MOL0     H62810  -2.755   2.876   4.172  0.4130 -3.6035  2.1585
  476MOL0     H62811  -2.802   2.864   4.348 -1.0099  0.8769  0.6892
  476MOL0     H62812  -2.900   3.046   4.170  0.1946 -1.7309  0.2616
  476MOL0     H62813  -2.785   3.147   4.261  0.4567 -0.1113 -1.2315
  476MOL0     H62814  -1.856   3.030   4.748 -0.1586 -0.7301 -0.4935
  476MOL0     H62815  -1.637   3.114   4.663 -2.7021  1.0783  1.4104
  476MOL0     H62816  -1.430   3.116   4.230  1.5884 -2.1288 -1.9701
  476MOL0     H62817  -1.255   3.229   4.088 -1.4676  1.7282 -0.0075
  476MOL0     H62818   0.397   2.488   3.725  1.6797  2.1992 -0.9825
  476MOL0     H62819   0.497   2.272   3.795  1.8511  0.5029  1.2514
  476MOL0     H62820   0.816   1.931   3.973  1.2392  2.8804 -1.6457
  476MOL0     H62821   0.908   1.696   3.957  2.1904  3.3121  3.0526
  476MOL0     H62822   0.940   1.505   3.555 -2.8843  0.1273  2.5504
  476MOL0     H62823   1.048   1.410   3.657  2.0234  0.7319 -0.1557
  476MOL0     H62824   1.185   1.520   3.495 -1.7982 -0.7303  0.1161
  476MOL0     H62825   1.131   1.680   3.563  0.3392  0.0554  2.7927
  476MOL0     H62826   1.227   1.641   3.767  0.7962  2.9808 -1.3572
  476MOL0     H62827   1.341   1.645   3.644 -2.2028  1.1505 -2.0842
  476MOL0     H62828   1.231   1.397   3.780 -1.3973  1.8609 -0.8379
  476MOL0     H62829   1.354   1.391   3.641  1.5743  2.3006 -0.5265
  476MOL0     H62830   1.608   1.494   3.958 -1.3126 -0.2115  2.2254
  476MOL0     H62831   0.898   1.709   3.543  0.2429  0.4944 -0.6979
  476MOL0     H62832   0.779   1.943   3.551 -2.0074  2.6475  2.1704
  477MOL0     O62833   4.407   8.482   5.818  0.3069  0.2903 -0.1470
  477MOL0     C62834   4.445   8.592   5.776  0.0489 -0.4246 -0.0071
  477MOL0     O62835   4.365   8.683   5.714  0.5577  0.3831  0.8283
  477MOL0     C62836   4.249   8.642   5.655  0.3063  0.0856  0.4184
  477MOL0     C62837   4.246   8.643   5.517 -0.2495 -0.6745  0.4349
  477MOL0     C62838   4.131   8.615   5.440  0.1858 -0.3894 -1.1492
  477MOL0     C62839   4.015   8.555   5.508 -0.1308  0.4605 -0.4142
  477MOL0     O62840   3.903   8.511   5.443  0.3979 -0.1172  0.5507
  477MOL0     C62841   3.882   8.535   5.300  0.0605  0.0744 -0.7475
  477MOL0     C62842   3.734   8.512   5.281  0.2338  0.3799  0.3542
  477MOL0     C62843   3.700   8.517   5.129 -0.3706 -0.2001  0.0388
  477MOL0     C62844   3.560   8.470   5.103  0.0604  0.1109 -1.1855
  477MOL0     C62845   3.517   8.507   4.960  0.1500 -0.3395 -0.7116
  477MOL0     C62846   3.382   8.446   4.928 -0.5927  0.4053 -0.1941
  477MOL0     C62847   3.342   8.466   4.774 -0.6448 -0.3567 -0.1791
  477MOL0     C62848   3.223   8.372   4.753 -0.4720 -0.2238 -0.0860
  477MOL0     N62849   3.096   8.383   4.831 -0.0701 -0.1454 -0.7239
  477MOL0     C62850   3.044   8.503   4.881 -0.3568 -0.1128 -0.2860
  477MOL0     C62851   2.949   8.468   4.966 -0.1205 -0.5333  0.2018
  477MOL0     C62852   2.857   8.564   5.036 -0.6567 -0.2441 -0.6401
  477MOL0     C62853   2.796   8.666   4.944  0.6244  0.2050 -0.1317
  477MOL0     C62854   2.682   8.611   4.864 -0.3699 -0.3271  0.0526
  477MOL0     C62855   2.618   8.716   4.780  0.5042  0.2741  0.0155
  477MOL0     O62856   2.509   8.660   4.700  0.6919 -0.3623 -0.5361
  477MOL0     C62857   2.385   8.621   4.744  0.8157 -0.0861 -0.1646
  477MOL0     C62858   2.332   8.668   4.867  1.2800 -0.1490 -0.0097
  477MOL0     C62859   2.201   8.643   4.914 -0.4992 -0.0657 -0.9217
  477MOL0     C62860   2.120   8.553   4.839 -0.3018  0.2162 -0.3304
  477MOL0     C62861   1.990   8.512   4.896  0.2508 -0.4286 -0.1432
  477MOL0     O62862   1.909   8.437   4.811  0.4830  0.9897  0.6928
  477MOL0     C62863   1.768   8.427   4.832  0.3128  0.1138 -0.3518
  477MOL0     C62864   1.689   8.501   4.749 -0.1508 -0.7093 -0.1436
  477MOL0     C62865   1.550   8.507   4.761 -0.0653 -0.6126 -0.4626
  477MOL0     C62866   1.491   8.435   4.869 -0.3336 -0.2901  0.0041
  477MOL0     O62867   1.358   8.444   4.879  0.8018 -0.0387 -0.2202
  477MOL0     C62868   1.296   8.395   5.001 -0.0853 -1.8747  0.1422
  477MOL0     C62869   1.144   8.395   4.985 -0.0926  1.1166 -0.4230
  477MOL0     C62870   1.095   8.538   4.959  0.6182  0.1888  1.0916
  477MOL0     C62871   0.944   8.532   4.957 -0.2863  0.6175 -0.0604
  477MOL0     C62872   0.888   8.643   5.050  0.1701 -0.1837  0.0038
  477MOL0     C62873   0.736   8.663   5.064  0.4007  0.2983 -0.0160
  477MOL0     C62874   0.695   8.780   5.162 -0.1478 -0.6900  0.2727
  477MOL0     C62875   0.569   8.845   5.112  0.0122  0.3669  0.5180
  477MOL0    Cl62876   0.429   8.721   5.130  0.4309  0.0937 -0.2110
  477MOL0     C62877   1.577   8.361   4.950 -0.1851  0.4493  0.2794
  477MOL0     C62878   1.707   8.352   4.934  0.8412 -0.9215 -0.4290
  477MOL0     O62879   1.954   8.560   4.999 -0.2187  0.0448  0.0933
  477MOL0     C62880   2.176   8.493   4.719 -0.3002 -0.1136  0.7483
  477MOL0     C62881   2.306   8.525   4.677 -0.0005  0.6850  0.8648
  477MOL0     N62882   2.940   8.334   4.968  0.4699  0.2366 -1.0407
  477MOL0     N62883   3.028   8.275   4.893 -0.1129 -0.4551  0.3442
  477MOL0     C62884   4.023   8.544   5.646 -1.3082  0.0912 -0.2376
  477MOL0     C62885   4.136   8.593   5.716  0.2428 -0.3612 -0.3269
  477MOL0     C62886   4.589   8.625   5.791 -0.0687 -0.1078 -0.1128
  477MOL0     C62887   4.671   8.564   5.880  0.3489 -0.0658 -0.2991
  477MOL0     C62888   4.800   8.592   5.903 -0.3001  0.2578  0.3779
  477MOL0     C62889   4.861   8.704   5.831  0.6744  0.0240  0.4641
  477MOL0     O62890   4.990   8.739   5.832 -0.5322 -0.1670 -0.0556
  477MOL0     C62891   5.078   8.673   5.932  0.2197 -0.3815  0.7021
  477MOL0     C62892   5.213   8.757   5.931  0.3277 -0.1825 -0.4516
  477MOL0     C62893   5.323   8.678   5.986 -0.2254  0.3353  0.1858
  477MOL0     C62894   5.442   8.764   5.972  0.0364  0.3864 -0.3537
  477MOL0     C62895   5.564   8.707   6.030  0.1594  0.2123 -0.2780
  477MOL0     C62896   5.663   8.661   6.086  0.2898  0.7431  0.2838
  477MOL0     C62897   4.782   8.766   5.738  0.6755 -0.4436  0.1459
  477MOL0     C62898   4.651   8.725   5.714  0.0312 -0.6359 -0.4662
  477MOL0     H62899   4.330   8.679   5.457 -1.4476  1.0898 -0.2792
  477MOL0     H62900   4.135   8.642   5.335 -1.7659  0.4224 -1.0652
  477MOL0     H62901   3.944   8.469   5.238  1.3647  0.7308 -0.1790
  477MOL0     H62902   3.912   8.632   5.259 -0.9441  0.6136 -0.2320
  477MOL0     H62903   3.677   8.582   5.343  1.4779  1.8830 -0.1376
  477MOL0     H62904   3.705   8.411   5.311  0.5667 -0.5028 -2.0917
  477MOL0     H62905   3.776   8.473   5.065 -0.6069 -1.7927  0.8008
  477MOL0     H62906   3.708   8.623   5.104  1.5714 -0.5312 -0.8983
  477MOL0     H62907   3.565   8.362   5.120  4.8354  0.1691 -0.8314
  477MOL0     H62908   3.501   8.505   5.188  2.2023  2.2065 -0.4302
  477MOL0     H62909   3.596   8.466   4.897  0.7452  1.4570 -1.1753
  477MOL0     H62910   3.517   8.615   4.944  1.1740 -0.4660 -1.6885
  477MOL0     H62911   3.301   8.479   4.994  0.4124 -1.5416  2.1354
  477MOL0     H62912   3.393   8.340   4.950  3.4591  0.7962  0.3856
  477MOL0     H62913   3.314   8.570   4.753  2.2237  0.7270  0.7740
  477MOL0     H62914   3.430   8.450   4.711  2.4297  0.5656  3.5057
  477MOL0     H62915   3.260   8.270   4.770 -1.9805 -0.6640  0.6929
  477MOL0     H62916   3.188   8.377   4.649 -0.4300  3.3365 -0.0399
  477MOL0     H62917   3.078   8.600   4.849 -0.2567 -0.3512 -0.9142
  477MOL0     H62918   2.916   8.618   5.110 -1.0456 -1.5499  0.6728
  477MOL0     H62919   2.773   8.518   5.089 -0.7757 -2.9560 -2.9292
  477MOL0     H62920   2.876   8.698   4.877  0.6798 -2.2399 -1.3558
  477MOL0     H62921   2.762   8.756   4.996 -2.1307  1.2170 -3.3186
  477MOL0     H62922   2.718   8.530   4.800  0.6444 -0.3103  0.5708
  477MOL0     H62923   2.610   8.577   4.939 -1.7297  2.1787  0.0181
  477MOL0     H62924   2.694   8.771   4.724  0.9631  0.3604  0.7145
  477MOL0     H62925   2.577   8.787   4.852  0.9139 -0.0750  0.5956
  477MOL0     H62926   2.393   8.723   4.938  1.5401  0.9545 -1.0650
  477MOL0     H62927   2.165   8.691   5.004 -0.1182 -1.4713  0.0053
  477MOL0     H62928   1.735   8.554   4.666 -0.9561 -0.4006 -0.4011
  477MOL0     H62929   1.500   8.580   4.698 -0.3088  0.6439  1.1139
  477MOL0     H62930   1.325   8.470   5.075  0.6590 -1.6924 -0.3158
  477MOL0     H62931   1.331   8.293   5.017 -2.3196 -2.3034  2.8250
  477MOL0     H62932   1.097   8.355   5.075 -0.8119 -0.6224 -1.5135
  477MOL0     H62933   1.128   8.337   4.893 -0.1191 -1.0456  0.8731
  477MOL0     H62934   1.135   8.573   4.864  1.6020  0.0274  1.4366
  477MOL0     H62935   1.128   8.612   5.032  0.6435  0.6329  0.6327
  477MOL0     H62936   0.901   8.535   4.856 -1.4721 -3.7483  0.1132
  477MOL0     H62937   0.901   8.438   4.994  0.3872 -0.6019 -2.1791
  477MOL0     H62938   0.932   8.731   5.003  0.7060  0.0255  0.8802
  477MOL0     H62939   0.934   8.636   5.149  0.7033 -0.6300 -0.2637
  477MOL0     H62940   0.700   8.568   5.103  1.2848 -0.5486 -1.2043
  477MOL0     H62941   0.688   8.679   4.967 -0.5935  1.1341  0.5910
  477MOL0     H62942   0.678   8.759   5.268 -2.4619  1.5034  0.4280
  477MOL0     H62943   0.776   8.853   5.168 -0.7532  0.2129 -1.7085
  477MOL0     H62944   0.583   8.883   5.010  0.5157 -0.6430  0.1979
  477MOL0     H62945   0.546   8.931   5.174 -0.4131 -0.5807  1.7164
  477MOL0     H62946   1.535   8.291   5.022 -4.6365  3.3388  0.8892
  477MOL0     H62947   1.767   8.287   4.996  2.6623 -2.6927 -3.7597
  477MOL0     H62948   2.125   8.407   4.676  1.5699 -1.8624  1.8790
  477MOL0     H62949   2.358   8.473   4.598 -4.3767 -1.7391 -0.7118
  477MOL0     H62950   3.939   8.500   5.698 -0.3294 -1.0944  0.4043
  477MOL0     H62951   4.142   8.581   5.824 -0.7581  0.0056 -0.2112
  477MOL0     H62952   4.631   8.477   5.931  1.8229  0.0307  1.0694
  477MOL0     H62953   4.852   8.537   5.980 -1.0468 -0.5517  0.3242
  477MOL0     H62954   5.097   8.568   5.910  1.4403  0.2490 -1.6517
  477MOL0     H62955   5.037   8.686   6.032  0.3095 -3.3427  1.1984
  477MOL0     H62956   5.243   8.777   5.827 -0.9133 -1.8759 -1.1909
  477MOL0     H62957   5.202   8.845   5.995  2.7760 -0.6330  0.6915
  477MOL0     H62958   5.333   8.590   5.923 -1.2585  0.6976 -0.5111
  477MOL0     H62959   5.309   8.635   6.086  1.2167  0.3093  0.3978
  477MOL0     H62960   5.465   8.782   5.867 -0.8137  0.6544 -0.5051
  477MOL0     H62961   5.422   8.857   6.026  1.0933  3.2893 -4.5277
  477MOL0     H62962   5.745   8.611   6.133  1.7427  0.6906 -2.1224
  477MOL0     H62963   4.814   8.856   5.687  0.1380  0.4825  1.3807
  477MOL0     H62964   4.591   8.784   5.645 -0.7777 -2.8155 -1.7703
  478MOL0     O62965  10.337   4.772  10.824 -0.0721 -0.0120 -0.3812
  478MOL0     C62966  10.379   4.774  10.942  0.1340  0.8006  0.5087
  478MOL0     O62967  10.302   4.781  11.055  0.0916 -0.2702  0.7239
  478MOL0     C62968  10.164   4.767  11.041  0.1655 -0.9056 -0.0746
  478MOL0     C62969  10.085   4.808  10.932 -0.1291  0.7132 -0.2189
  478MOL0     C62970   9.954   4.792  10.936  0.0538 -0.3061  1.2893
  478MOL0     C62971   9.884   4.741  11.047  0.3067 -0.1667 -0.2641
  478MOL0     O62972   9.741   4.731  11.049 -0.8663  0.4660  0.3107
  478MOL0     C62973   9.667   4.795  10.945  0.1720  0.6189 -0.7325
  478MOL0     C62974   9.522   4.769  10.986  0.2788 -0.0620  0.0025
  478MOL0     C62975   9.428   4.807  10.862  0.2883 -0.8257 -0.2436
  478MOL0     C62976   9.292   4.742  10.855 -0.7013 -0.4439  0.6731
  478MOL0     C62977   9.205   4.797  10.966 -0.2833  0.0539 -0.3779
  478MOL0     C62978   9.072   4.722  10.977 -0.3175 -0.0765  0.4933
  478MOL0     C62979   8.959   4.809  11.028  0.6101 -0.3838 -0.0726
  478MOL0     C62980   8.964   4.815  11.183 -0.4681  0.3658  0.2893
  478MOL0     N62981   8.864   4.743  11.262  0.6849 -0.1913  0.5836
  478MOL0     C62982   8.882   4.613  11.314  0.3540  0.0922  0.0910
  478MOL0     C62983   8.763   4.580  11.370  0.0541  0.2985 -0.1425
  478MOL0     C62984   8.737   4.453  11.430 -0.0565 -1.0187  0.4810
  478MOL0     C62985   8.582   4.432  11.470 -0.4943  0.0415  0.8504
  478MOL0     C62986   8.553   4.300  11.545  0.1437  0.2191 -0.4887
  478MOL0     C62987   8.435   4.317  11.649 -0.1744 -0.5466 -0.4375
  478MOL0     O62988   8.318   4.307  11.578 -0.3039  0.5468  0.5994
  478MOL0     C62989   8.202   4.306  11.645  0.6003  0.7162 -0.4758
  478MOL0     C62990   8.077   4.286  11.565 -0.0196  0.2195  0.5581
  478MOL0     C62991   7.949   4.282  11.628  0.0754  0.0865  0.7470
  478MOL0     C62992   7.940   4.293  11.767  0.3078 -0.2362 -1.0648
  478MOL0     C62993   7.806   4.292  11.835  0.3909  0.0419 -0.5441
  478MOL0     O62994   7.696   4.260  11.763  0.2990 -0.3149 -0.0810
  478MOL0     C62995   7.565   4.265  11.810  0.2665 -0.9668 -0.1861
  478MOL0     C62996   7.469   4.320  11.725  0.0272  0.0426 -0.3231
  478MOL0     C62997   7.334   4.335  11.770 -0.0671  0.8099  0.6001
  478MOL0     C62998   7.296   4.283  11.892 -0.1050  0.1259  0.1392
  478MOL0     O62999   7.163   4.293  11.927  0.3372  0.5061  0.1258
  478MOL0     C63000   7.127   4.279  12.064 -0.6735 -0.0260  0.8077
  478MOL0     C63001   6.981   4.268  12.067 -0.4122 -0.2975 -0.3502
  478MOL0     C63002   6.927   4.228  12.209  0.2112 -0.0907  0.9446
  478MOL0     C63003   6.769   4.253  12.212  0.2827 -0.7300  0.3612
  478MOL0     C63004   6.729   4.320  12.340 -0.9544 -0.3965  0.1346
  478MOL0     C63005   6.572   4.329  12.351 -0.6035 -0.8852 -0.0896
  478MOL0     C63006   6.499   4.202  12.359 -0.0517  1.0333 -0.1565
  478MOL0     C63007   6.350   4.222  12.373  0.2215  0.0359 -0.0986
  478MOL0    Cl63008   6.261   4.065  12.380 -0.2053  0.1500  0.3610
  478MOL0     C63009   7.398   4.231  11.979 -0.3319  0.2249  1.0885
  478MOL0     C63010   7.528   4.221  11.936  0.1315 -0.0929 -0.5931
  478MOL0     O63011   7.807   4.330  11.955  0.4717 -0.1915  0.2771
  478MOL0     C63012   8.060   4.315  11.843 -0.0751  0.3406  0.3168
  478MOL0     C63013   8.188   4.325  11.787 -0.0866 -1.0991  0.9724
  478MOL0     N63014   8.674   4.683  11.334  0.8077 -0.7345 -0.1728
  478MOL0     N63015   8.738   4.789  11.288 -0.5675 -0.2506  0.6133
  478MOL0     C63016   9.959   4.713  11.161  0.4486 -0.7685  0.1295
  478MOL0     C63017  10.099   4.720  11.157 -0.0090 -0.2698 -0.9478
  478MOL0     C63018  10.528   4.778  10.958 -0.6815 -0.2269 -1.0955
  478MOL0     C63019  10.586   4.750  11.082  0.1091 -0.2894  0.4053
  478MOL0     C63020  10.725   4.765  11.096  0.1064  0.3847 -0.1465
  478MOL0     C63021  10.806   4.802  10.992 -0.0662  0.1164 -0.1259
  478MOL0     O63022  10.940   4.815  11.028 -0.9523 -0.1507 -0.6775
  478MOL0     C63023  11.029   4.864  10.925  0.7957 -0.1545 -0.0190
  478MOL0     C63024  11.175   4.832  10.956  0.5163 -0.6411  0.8892
  478MOL0     C63025  11.250   4.965  10.985 -0.4581 -0.1095 -0.5325
  478MOL0     C63026  11.394   4.928  11.026 -1.1304 -0.4571  0.5922
  478MOL0     C63027  11.469   4.880  10.913 -0.6574 -0.4354 -0.0922
  478MOL0     C63028  11.523   4.842  10.811 -0.3836 -0.1929 -0.6319
  478MOL0     C63029  10.750   4.820  10.863  0.7716 -0.8624 -0.1424
  478MOL0     C63030  10.611   4.802  10.845 -0.0642 -0.0017  0.0783
  478MOL0     H63031  10.124   4.848  10.839 -2.1507 -0.4860 -1.6718
  478MOL0     H63032   9.906   4.828  10.845  3.7400 -0.0168 -0.7311
  478MOL0     H63033   9.687   4.744  10.851 -0.8135 -1.9983  0.3664
  478MOL0     H63034   9.691   4.902  10.943  0.5763  0.9444  4.5923
  478MOL0     H63035   9.495   4.823  11.078  0.1901  1.7752 -1.0597
  478MOL0     H63036   9.501   4.665  11.012 -0.1114  0.2146  0.8424
  478MOL0     H63037   9.479   4.786  10.767 -0.8615 -1.4554 -0.7365
  478MOL0     H63038   9.427   4.916  10.851  2.7302 -0.8763 -1.8837
  478MOL0     H63039   9.247   4.773  10.760 -1.1853  0.8063  1.2976
  478MOL0     H63040   9.311   4.634  10.860  2.9235 -0.2087 -3.1068
  478MOL0     H63041   9.191   4.903  10.940  4.3479  0.5620 -1.5651
  478MOL0     H63042   9.251   4.803  11.065 -2.8417  2.0677  0.8028
  478MOL0     H63043   9.078   4.630  11.036  1.2513  0.8948  1.9690
  478MOL0     H63044   9.031   4.698  10.879 -1.6968 -0.5406  1.1590
  478MOL0     H63045   8.961   4.913  10.996  2.1659  0.2040  1.7178
  478MOL0     H63046   8.864   4.768  10.993  0.9684 -1.6656  0.3896
  478MOL0     H63047   8.941   4.920  11.203 -3.0665 -0.4846  2.3318
  478MOL0     H63048   9.067   4.806  11.219 -1.4479 -1.5831  2.9416
  478MOL0     H63049   8.971   4.551  11.309  0.4819  0.2214  0.7008
  478MOL0     H63050   8.804   4.437  11.514 -0.5231 -2.8350  0.5687
  478MOL0     H63051   8.760   4.380  11.351 -2.5208  0.4546 -1.7995
  478MOL0     H63052   8.522   4.443  11.379  0.9510  2.4676  0.1040
  478MOL0     H63053   8.565   4.520  11.533  0.8126  0.9376  0.0019
  478MOL0     H63054   8.519   4.223  11.475  0.2564  1.9999 -2.5986
  478MOL0     H63055   8.648   4.268  11.589  0.4875 -1.9316 -2.5557
  478MOL0     H63056   8.438   4.407  11.711  0.4589 -1.6260  1.1592
  478MOL0     H63057   8.431   4.239  11.726  2.2912  0.1229  0.4556
  478MOL0     H63058   8.074   4.263  11.459  1.1475 -1.6486  0.8900
  478MOL0     H63059   7.860   4.255  11.572  0.8364 -1.6046  0.2831
  478MOL0     H63060   7.506   4.360  11.632 -0.5783  2.2384  0.3102
  478MOL0     H63061   7.260   4.389  11.712 -0.0584  0.5400  0.3371
  478MOL0     H63062   7.162   4.361  12.127 -0.6503 -1.1310  2.2743
  478MOL0     H63063   7.160   4.185  12.109  1.0427  0.6785  1.0716
  478MOL0     H63064   6.948   4.180  12.011 -4.2985 -0.5288  1.9642
  478MOL0     H63065   6.929   4.361  12.043 -2.5353 -1.6584 -1.2381
  478MOL0     H63066   6.978   4.290  12.283  1.2849  0.8337 -0.5134
  478MOL0     H63067   6.959   4.124  12.217  0.7537  0.1220  1.6646
  478MOL0     H63068   6.737   4.321  12.132 -0.2582 -0.6954  0.6038
  478MOL0     H63069   6.707   4.165  12.188 -0.1790  0.0797 -1.6970
  478MOL0     H63070   6.769   4.421  12.348 -0.0494 -0.7827  0.5840
  478MOL0     H63071   6.775   4.267  12.424  1.8023  3.7936  1.5700
  478MOL0     H63072   6.517   4.387  12.277 -2.7908  0.0693  2.1374
  478MOL0     H63073   6.558   4.381  12.446 -0.1651 -1.4907  0.3113
  478MOL0     H63074   6.505   4.145  12.265 -1.1763  0.4770  0.0915
  478MOL0     H63075   6.544   4.130  12.428 -1.5277 -0.3173 -0.5401
  478MOL0     H63076   6.313   4.277  12.286  3.7563 -0.6649 -2.2489
  478MOL0     H63077   6.318   4.275  12.463  1.5588  0.2830  0.2615
  478MOL0     H63078   7.376   4.211  12.084  1.2602 -0.9531  1.2422
  478MOL0     H63079   7.608   4.167  11.985 -0.3389 -0.7851 -0.5737
  478MOL0     H63080   8.057   4.352  11.945 -0.9228  1.0421  0.0467
  478MOL0     H63081   8.276   4.335  11.849 -0.0382  1.1029  0.6485
  478MOL0     H63082   9.923   4.684  11.259 -3.5713  0.1216 -0.9128
  478MOL0     H63083  10.151   4.687  11.246 -2.1373 -2.9490 -0.5555
  478MOL0     H63084  10.519   4.732  11.166 -1.5156  4.6666  0.5086
  478MOL0     H63085  10.769   4.747  11.193 -0.5270 -1.3411 -0.1349
  478MOL0     H63086  11.004   4.971  10.914 -3.7618 -0.8173  1.5601
  478MOL0     H63087  11.004   4.805  10.836  1.6619 -0.7308  0.1193
  478MOL0     H63088  11.175   4.763  11.041 -0.5722 -1.0337  0.5840
  478MOL0     H63089  11.216   4.785  10.866 -0.2155 -0.8404  0.6527
  478MOL0     H63090  11.197   5.018  11.065  1.3121  0.0726  0.5583
  478MOL0     H63091  11.265   5.028  10.898  3.1955  0.8104  0.6178
  478MOL0     H63092  11.441   5.020  11.063  1.2828 -1.8803  1.2932
  478MOL0     H63093  11.405   4.855  11.107 -2.1821 -1.4044 -0.0855
  478MOL0     H63094  11.564   4.817  10.716  3.1763 -1.2601  1.0303
  478MOL0     H63095  10.801   4.824  10.768  1.0824 -2.1356 -0.0544
  478MOL0     H63096  10.570   4.814  10.745  2.1430  1.2345 -0.7713
  479MOL0     O63097   6.905   5.126  10.646  0.5244  0.5116  0.6459
  479MOL0     C63098   6.942   5.007  10.658  0.2998  0.2962  0.2158
  479MOL0     O63099   6.860   4.901  10.684 -0.1743  0.3209 -0.1010
  479MOL0     C63100   6.727   4.933  10.686  0.4882  0.2948  0.2882
  479MOL0     C63101   6.631   4.909  10.592 -0.1262 -0.9216 -0.1837
  479MOL0     C63102   6.508   4.975  10.596 -0.5179 -0.2405 -0.4230
  479MOL0     C63103   6.462   5.046  10.709 -0.1329  0.1607 -0.0821
  479MOL0     O63104   6.340   5.097  10.725 -0.2386 -0.4337  0.1894
  479MOL0     C63105   6.234   5.055  10.651  0.1108 -0.8517  0.4091
  479MOL0     C63106   6.125   5.143  10.708 -0.6013  0.2527 -0.7011
  479MOL0     C63107   5.992   5.126  10.636  0.5016 -0.7053 -0.5907
  479MOL0     C63108   5.887   5.240  10.689 -0.9378  0.5108 -0.6356
  479MOL0     C63109   5.754   5.234  10.620  0.2890 -0.3030 -0.0507
  479MOL0     C63110   5.757   5.259  10.467  0.1995  0.0664 -0.6156
  479MOL0     C63111   5.621   5.276  10.403 -1.3247  0.0277  0.2282
  479MOL0     C63112   5.551   5.143  10.375  0.0199 -0.4915 -0.5595
  479MOL0     N63113   5.420   5.179  10.307  0.7697 -0.3291  0.2558
  479MOL0     C63114   5.352   5.099  10.219 -0.3515  0.3333  0.3997
  479MOL0     C63115   5.246   5.180  10.180  0.0432  0.6510 -0.2287
  479MOL0     C63116   5.130   5.143  10.096  1.0596 -0.1667 -0.6808
  479MOL0     C63117   5.006   5.127  10.185  0.1029  0.1271 -0.1470
  479MOL0     C63118   4.900   5.042  10.111  0.9031 -0.0214  0.5207
  479MOL0     C63119   4.762   5.035  10.175 -0.3286  0.2276 -0.7107
  479MOL0     O63120   4.668   4.964  10.092 -0.1721  0.0858 -0.0731
  479MOL0     C63121   4.531   4.988  10.094 -0.6223 -1.3462  0.3107
  479MOL0     C63122   4.470   5.057  10.203  0.3476  0.0074 -0.6153
  479MOL0     C63123   4.331   5.066  10.209  0.5094  0.5168  0.1526
  479MOL0     C63124   4.249   5.023  10.100 -0.1191 -0.7979  0.5283
  479MOL0     C63125   4.105   5.041  10.106  1.0899 -0.4239 -0.7622
  479MOL0     O63126   4.053   5.084  10.229  0.4100  0.5716 -0.0820
  479MOL0     C63127   3.921   5.088  10.262  0.6340 -1.5111  0.0720
  479MOL0     C63128   3.809   5.014  10.215 -0.6389  1.5975  0.0080
  479MOL0     C63129   3.678   5.026  10.269 -0.2333  0.1515  0.2264
  479MOL0     C63130   3.657   5.117  10.365  0.4357  0.0048 -0.6959
  479MOL0     O63131   3.528   5.149  10.407 -0.6742 -0.3498  0.0585
  479MOL0     C63132   3.472   5.101  10.532  0.6282  0.4011 -0.3459
  479MOL0     C63133   3.333   5.150  10.564  0.7351 -0.3200  0.1808
  479MOL0     C63134   3.306   5.108  10.709 -0.4950  0.5444 -0.4558
  479MOL0     C63135   3.190   5.192  10.769  0.0568 -0.4269 -0.5024
  479MOL0     C63136   3.170   5.183  10.921  0.0299  0.1196  0.5290
  479MOL0     C63137   3.084   5.300  10.975 -0.5775 -0.5620 -0.7752
  479MOL0     C63138   2.945   5.326  10.909  0.4178  0.1824 -1.0563
  479MOL0     C63139   2.850   5.211  10.917  1.0622  0.5422  0.5842
  479MOL0    Cl63140   2.706   5.265  10.816 -0.2430 -0.2999  0.1900
  479MOL0     C63141   3.767   5.177  10.424  0.6320  0.2080  0.7648
  479MOL0     C63142   3.895   5.167  10.375 -0.1978 -0.2098 -0.0009
  479MOL0     O63143   4.036   5.034  10.008  0.1189  0.3256 -0.6118
  479MOL0     C63144   4.310   4.960   9.984 -0.1914 -0.6063 -0.1745
  479MOL0     C63145   4.448   4.942   9.990 -0.0421  0.2390  0.2493
  479MOL0     N63146   5.260   5.293  10.245  0.2518 -0.5732 -0.3525
  479MOL0     N63147   5.359   5.296  10.324  0.3265  0.0928  0.1389
  479MOL0     C63148   6.559   5.050  10.817 -0.2963 -0.2043 -0.5442
  479MOL0     C63149   6.683   4.986  10.809  0.1421  0.2085  0.4897
  479MOL0     C63150   7.086   4.978  10.646 -0.8284  0.1672 -0.4060
  479MOL0     C63151   7.172   5.058  10.572  0.1866  0.5330 -1.1644
  479MOL0     C63152   7.309   5.026  10.546 -0.0420 -0.5628 -0.4949
  479MOL0     C63153   7.348   4.899  10.588 -0.4552  1.1770 -0.2029
  479MOL0     O63154   7.474   4.860  10.575 -0.1886  0.1147  0.1373
  479MOL0     C63155   7.580   4.957  10.541 -0.2812 -0.1374  0.3147
  479MOL0     C63156   7.717   4.896  10.560  0.0528  0.3629 -0.5059
  479MOL0     C63157   7.825   4.944  10.465  0.0650 -0.1820  0.3999
  479MOL0     C63158   7.959   4.873  10.501 -0.7168 -0.0474 -0.5953
  479MOL0     C63159   8.006   4.897  10.638 -0.0539  0.6106  0.4155
  479MOL0     C63160   8.059   4.888  10.740 -0.5593  0.3312 -0.9159
  479MOL0     C63161   7.265   4.815  10.662  0.1453  0.2807  0.1164
  479MOL0     C63162   7.132   4.849  10.686  0.1067  0.1639 -0.0670
  479MOL0     H63163   6.673   4.867  10.501 -0.9703  1.5407 -1.8241
  479MOL0     H63164   6.447   4.972  10.507 -0.3055  1.5771 -0.6788
  479MOL0     H63165   6.213   4.950  10.676  1.0921 -1.1929 -0.1449
  479MOL0     H63166   6.232   5.084  10.545 -3.4421  0.7685  0.7780
  479MOL0     H63167   6.155   5.248  10.704  0.7443 -0.1254 -0.7723
  479MOL0     H63168   6.111   5.123  10.815  1.7322 -1.9265 -0.7252
  479MOL0     H63169   5.950   5.027  10.655  3.0811 -1.7099  0.2734
  479MOL0     H63170   6.000   5.134  10.527  5.0107 -1.3553 -0.4876
  479MOL0     H63171   5.867   5.221  10.795  0.4045  1.1173 -0.2511
  479MOL0     H63172   5.930   5.340  10.687 -1.1180  0.5775 -1.3440
  479MOL0     H63173   5.681   5.300  10.668 -0.5356 -1.7374  0.7349
  479MOL0     H63174   5.712   5.133  10.630 -3.1336  0.9129 -0.6427
  479MOL0     H63175   5.804   5.171  10.423 -0.4960 -0.3240 -0.5951
  479MOL0     H63176   5.811   5.351  10.443 -1.1384  0.9824 -0.2631
  479MOL0     H63177   5.562   5.339  10.469  0.0796  2.8843 -1.0880
  479MOL0     H63178   5.634   5.321  10.305  1.6099  1.1077  0.9988
  479MOL0     H63179   5.543   5.085  10.468 -0.2870  1.7560  0.9015
  479MOL0     H63180   5.609   5.080  10.307  0.4094 -0.1424 -0.5516
  479MOL0     H63181   5.370   4.995  10.192 -2.7861 -0.3679  1.2031
  479MOL0     H63182   5.151   5.047  10.047  1.5788  0.1524 -1.0963
  479MOL0     H63183   5.110   5.223  10.024 -0.1503  2.8231  2.6640
  479MOL0     H63184   4.968   5.227  10.203  0.8603  0.2093  1.1059
  479MOL0     H63185   5.043   5.089  10.281 -3.0591  3.1131  2.4817
  479MOL0     H63186   4.882   5.080  10.010 -3.3425 -0.2434  1.0134
  479MOL0     H63187   4.928   4.939  10.088 -3.1263 -1.4164  1.0470
  479MOL0     H63188   4.718   5.134  10.187  1.0167  0.6586  1.1719
  479MOL0     H63189   4.773   4.985  10.272 -1.3213 -0.7683 -1.0940
  479MOL0     H63190   4.520   5.100  10.288 -1.9232  2.1677 -0.2656
  479MOL0     H63191   4.286   5.129  10.284 -1.0122  1.3310 -1.3705
  479MOL0     H63192   3.836   4.934  10.146  0.3819  2.9358 -1.2014
  479MOL0     H63193   3.597   4.970  10.225  2.4620 -2.9348 -1.2266
  479MOL0     H63194   3.537   5.145  10.609 -0.3101 -1.3377  1.5334
  479MOL0     H63195   3.478   4.994  10.550  1.6487  0.5248  0.1235
  479MOL0     H63196   3.262   5.093  10.504 -1.3887 -0.3432  2.5319
  479MOL0     H63197   3.326   5.258  10.553  0.6694 -0.3774 -0.3586
  479MOL0     H63198   3.400   5.114  10.765 -0.3048  1.7660 -0.8736
  479MOL0     H63199   3.281   5.002  10.709 -1.6723  0.7973  0.6411
  479MOL0     H63200   3.221   5.294  10.747  2.2111  0.0084  3.4925
  479MOL0     H63201   3.096   5.164  10.720 -0.1858 -1.2776  0.4005
  479MOL0     H63202   3.267   5.197  10.970  0.2733 -2.3108  0.8638
  479MOL0     H63203   3.139   5.084  10.955 -1.0463  1.3451  3.4202
  479MOL0     H63204   3.149   5.387  10.965  1.1881 -1.7009  0.3451
  479MOL0     H63205   3.079   5.268  11.079  1.6614  0.0553 -0.4328
  479MOL0     H63206   2.901   5.416  10.954  0.4690 -0.0952 -0.4478
  479MOL0     H63207   2.959   5.358  10.805  0.4863 -1.0489 -1.4401
  479MOL0     H63208   2.823   5.195  11.021  0.3339 -3.3713 -0.0606
  479MOL0     H63209   2.902   5.126  10.872  2.5403  1.8471 -0.2819
  479MOL0     H63210   3.747   5.253  10.499 -0.4232  0.8597 -0.1347
  479MOL0     H63211   3.973   5.228  10.421 -2.1188  1.2868  1.4680
  479MOL0     H63212   4.258   4.932   9.893 -0.7681  0.1238 -0.0791
  479MOL0     H63213   4.490   4.889   9.906 -2.6802  2.5464 -2.8068
  479MOL0     H63214   6.536   5.109  10.906 -1.2379 -3.0751  1.2396
  479MOL0     H63215   6.746   5.001  10.896 -1.3155  2.0892  1.3031
  479MOL0     H63216   7.132   5.155  10.543 -1.9564 -0.3934 -1.5257
  479MOL0     H63217   7.375   5.093  10.492  0.0790 -0.6751 -0.4858
  479MOL0     H63218   7.577   5.049  10.600 -0.0715  0.6470 -0.8472
  479MOL0     H63219   7.570   4.968  10.432 -0.4912 -2.6966  0.0190
  479MOL0     H63220   7.739   4.914  10.666 -1.6251  0.2594 -0.1065
  479MOL0     H63221   7.701   4.788  10.545  0.0992 -0.0233  1.8661
  479MOL0     H63222   7.836   5.052  10.474  0.3888 -0.1394 -0.3432
  479MOL0     H63223   7.799   4.913  10.363 -0.1002 -2.4627  1.0780
  479MOL0     H63224   7.951   4.764  10.494  0.3730 -0.0895 -1.4345
  479MOL0     H63225   8.031   4.906  10.426  0.1887 -0.8617 -0.0994
  479MOL0     H63226   8.099   4.870  10.838 -2.3171 -0.3084 -0.2607
  479MOL0     H63227   7.295   4.719  10.703  1.8908  0.5882 -0.3591
  479MOL0     H63228   7.073   4.782  10.749  0.6114  1.9836  2.4697
  480MOL0     O63229   1.758   3.603   4.509 -0.3155 -0.5117 -0.1414
  480MOL0     C63230   1.766   3.707   4.445  0.6945  0.0828 -0.0204
  480MOL0     O63231   1.669   3.768   4.374  0.2075  0.3040  0.0991
  480MOL0     C63232   1.544   3.715   4.368 -0.0576  0.5929  0.3195
  480MOL0     C63233   1.452   3.769   4.460  0.6706  0.0128 -0.0321
  480MOL0     C63234   1.312   3.738   4.441 -0.4484 -0.7126  0.7818
  480MOL0     C63235   1.277   3.643   4.340 -0.0731  0.5508  0.6110
  480MOL0     O63236   1.154   3.597   4.309  0.2719  0.0919 -0.6759
  480MOL0     C63237   1.047   3.672   4.345  0.3833  0.0290  0.2879
  480MOL0     C63238   0.950   3.663   4.223  0.3976 -0.4031  0.1551
  480MOL0     C63239   0.832   3.755   4.250 -0.8605  0.1009  0.4765
  480MOL0     C63240   0.738   3.674   4.345  0.3376  0.2445  0.6882
  480MOL0     C63241   0.602   3.733   4.394 -0.1116 -0.1943 -0.2084
  480MOL0     C63242   0.501   3.756   4.284  0.4756  0.5627  0.2447
  480MOL0     C63243   0.373   3.805   4.343 -0.0106  0.4691 -0.8098
  480MOL0     C63244   0.384   3.942   4.412 -0.2550 -0.1755  0.6460
  480MOL0     N63245   0.269   4.021   4.408 -0.4341  0.1572 -0.6929
  480MOL0     C63246   0.137   3.980   4.405  0.8271  0.1641  0.4506
  480MOL0     C63247   0.069   4.093   4.412  0.1220 -0.9948 -0.3126
  480MOL0     C63248  -0.083   4.104   4.399  0.2849  0.7743  0.6534
  480MOL0     C63249  -0.148   4.032   4.516  0.1544  0.4392  0.3684
  480MOL0     C63250  -0.103   4.075   4.652 -0.1576  0.2821 -0.7340
  480MOL0     C63251  -0.094   4.220   4.691  0.1467 -0.5362 -0.0803
  480MOL0     O63252  -0.217   4.298   4.696 -0.2361 -0.1293  0.0405
  480MOL0     C63253  -0.322   4.251   4.777  0.1497  0.6525 -0.1504
  480MOL0     C63254  -0.455   4.273   4.736  1.0520 -0.1298 -0.1092
  480MOL0     C63255  -0.559   4.259   4.827 -0.8261  0.7018  0.1035
  480MOL0     C63256  -0.532   4.221   4.957  0.3605 -1.3300  1.0719
  480MOL0     C63257  -0.639   4.220   5.051 -0.6117  0.1112 -0.7206
  480MOL0     O63258  -0.597   4.234   5.178  0.4487  0.2830  0.2515
  480MOL0     C63259  -0.687   4.208   5.273  0.1735 -0.8800 -0.8685
  480MOL0     C63260  -0.690   4.288   5.387  0.5297  1.2992  0.1103
  480MOL0     C63261  -0.777   4.255   5.497  0.1509  0.2626  0.4091
  480MOL0     C63262  -0.854   4.141   5.494 -0.6920  0.3442  0.1277
  480MOL0     O63263  -0.933   4.094   5.601 -0.4780 -0.0157  0.4574
  480MOL0     C63264  -0.910   4.136   5.734  0.3815  0.7495 -0.0148
  480MOL0     C63265  -0.995   4.046   5.822  0.0681 -0.5517 -0.5002
  480MOL0     C63266  -1.145   4.065   5.786  0.8192  0.5888 -0.5060
  480MOL0     C63267  -1.238   3.977   5.863  0.0578 -0.5908  0.3491
  480MOL0     C63268  -1.379   4.036   5.864  0.0750 -0.2640 -0.1035
  480MOL0     C63269  -1.476   3.955   5.942 -0.6417  0.4870  0.0541
  480MOL0     C63270  -1.617   3.999   5.920  0.4150 -1.1636 -0.0546
  480MOL0     C63271  -1.700   3.917   6.027 -0.5756 -0.4304  0.1939
  480MOL0    Cl63272  -1.871   3.955   6.017  0.5421 -0.2138 -0.4282
  480MOL0     C63273  -0.851   4.065   5.378 -0.7141  0.0502  0.6225
  480MOL0     C63274  -0.767   4.097   5.269 -0.1745  0.3564 -0.2995
  480MOL0     O63275  -0.755   4.214   5.013 -0.8509  0.4071  0.1851
  480MOL0     C63276  -0.405   4.190   4.994 -0.3590  0.6970  0.3635
  480MOL0     C63277  -0.296   4.203   4.904  0.4739 -0.0815 -0.7917
  480MOL0     N63278   0.155   4.202   4.429  0.0776  0.2268  0.0212
  480MOL0     N63279   0.272   4.157   4.426 -0.6517 -0.1259 -0.2014
  480MOL0     C63280   1.375   3.586   4.265  0.0270  0.8515 -0.2873
  480MOL0     C63281   1.513   3.617   4.272  0.1468 -0.4373  0.5318
  480MOL0     C63282   1.893   3.782   4.463 -0.3992 -0.5381 -0.7531
  480MOL0     C63283   1.918   3.898   4.392  0.0065 -0.4325  0.5306
  480MOL0     C63284   2.025   3.978   4.414  0.3156  0.4673  0.0952
  480MOL0     C63285   2.135   3.938   4.490 -0.5271  0.1168 -0.2180
  480MOL0     O63286   2.248   4.012   4.513  0.7990 -0.5149 -0.1275
  480MOL0     C63287   2.274   4.121   4.421  0.2010 -0.2847 -0.3360
  480MOL0     C63288   2.227   4.258   4.490  0.1753  0.2853 -0.0283
  480MOL0     C63289   2.292   4.285   4.619 -0.1335 -0.3654  0.0480
  480MOL0     C63290   2.273   4.434   4.661  0.0148 -0.9930  0.3262
  480MOL0     C63291   2.334   4.458   4.794  1.0340  0.3539  0.1960
  480MOL0     C63292   2.402   4.479   4.887 -0.2621  0.8193  0.7609
  480MOL0     C63293   2.116   3.816   4.556 -0.0954  0.1481 -0.7616
  480MOL0     C63294   1.999   3.737   4.541 -0.3682 -1.0415 -0.4176
  480MOL0     H63295   1.496   3.846   4.522  0.9166  1.2841 -1.7201
  480MOL0     H63296   1.236   3.795   4.494 -1.3066 -0.8431 -0.2738
  480MOL0     H63297   1.064   3.779   4.362 -1.8846  0.3132  1.0975
  480MOL0     H63298   0.992   3.625   4.427 -2.1625  1.3275 -0.5644
  480MOL0     H63299   0.921   3.559   4.208  1.1204 -0.3733 -1.7174
  480MOL0     H63300   0.990   3.694   4.126 -0.7654  2.3529  0.4631
  480MOL0     H63301   0.777   3.782   4.160 -0.4039 -1.5543 -0.3380
  480MOL0     H63302   0.868   3.850   4.290  2.6216 -1.0715  0.5411
  480MOL0     H63303   0.719   3.575   4.303 -1.5265 -0.0272  2.0759
  480MOL0     H63304   0.789   3.648   4.438 -0.2463 -2.1774  0.3978
  480MOL0     H63305   0.621   3.821   4.456 -1.9821 -1.4772  2.3749
  480MOL0     H63306   0.562   3.652   4.456  0.2445  0.2157  0.5692
  480MOL0     H63307   0.494   3.661   4.231 -0.3336 -1.6085  3.9348
  480MOL0     H63308   0.534   3.844   4.227 -0.5818  2.0338  1.7968
  480MOL0     H63309   0.295   3.807   4.266 -0.0118 -1.8572 -0.9611
  480MOL0     H63310   0.339   3.740   4.424 -1.2445  1.4465 -0.5123
  480MOL0     H63311   0.460   4.007   4.367 -1.0674 -0.2434 -0.8992
  480MOL0     H63312   0.422   3.931   4.514  1.0481  1.3095  0.3679
  480MOL0     H63313   0.086   3.888   4.381 -2.7853  1.9811  0.4912
  480MOL0     H63314  -0.111   4.065   4.301  2.9797  0.7061 -0.1714
  480MOL0     H63315  -0.119   4.207   4.397  1.4897  1.1941 -0.9100
  480MOL0     H63316  -0.143   3.923   4.508  0.4168  0.3292  1.7049
  480MOL0     H63317  -0.254   4.056   4.510 -0.1571 -0.9895 -0.1928
  480MOL0     H63318  -0.164   4.014   4.720 -0.6083  1.4545 -0.0735
  480MOL0     H63319  -0.000   4.043   4.671 -0.2865  1.6390  3.1631
  480MOL0     H63320  -0.026   4.261   4.616 -1.0622 -2.8346 -2.5695
  480MOL0     H63321  -0.043   4.229   4.788 -1.1537 -2.9022  0.9238
  480MOL0     H63322  -0.476   4.309   4.636 -0.8151 -2.1191 -0.4853
  480MOL0     H63323  -0.657   4.291   4.793 -1.1240 -0.7639 -0.5137
  480MOL0     H63324  -0.624   4.374   5.394  1.2103  0.8539 -0.6148
  480MOL0     H63325  -0.787   4.320   5.583  0.6431  0.8038  0.0683
  480MOL0     H63326  -0.953   4.235   5.753  0.5533  0.8124  0.0506
  480MOL0     H63327  -0.804   4.122   5.760  1.4936  1.2026 -3.7538
  480MOL0     H63328  -0.971   4.082   5.923  1.8699 -0.3249 -0.9754
  480MOL0     H63329  -0.965   3.941   5.811  0.7634 -0.5476  1.0476
  480MOL0     H63330  -1.168   4.054   5.680  1.5176 -1.5831 -0.4738
  480MOL0     H63331  -1.172   4.166   5.818  0.7690  0.6012 -0.5876
  480MOL0     H63332  -1.250   3.874   5.828 -4.9588 -0.3984  0.7570
  480MOL0     H63333  -1.191   3.960   5.960 -1.3019 -3.0956  0.6484
  480MOL0     H63334  -1.420   4.033   5.762 -2.5306  0.2348  0.8438
  480MOL0     H63335  -1.380   4.141   5.893  0.2854 -0.5645  1.0461
  480MOL0     H63336  -1.445   3.953   6.047  2.6606 -3.2692 -0.7776
  480MOL0     H63337  -1.480   3.850   5.913 -1.3644  0.8730 -1.3604
  480MOL0     H63338  -1.629   4.107   5.936 -2.3676 -1.1255 -1.6910
  480MOL0     H63339  -1.657   3.967   5.824  0.7301 -1.7008 -0.0118
  480MOL0     H63340  -1.664   3.941   6.127  1.9796 -3.3154  0.1302
  480MOL0     H63341  -1.693   3.810   6.003 -1.9938 -0.5215  0.1074
  480MOL0     H63342  -0.916   3.978   5.370  1.6608 -1.8018  0.2837
  480MOL0     H63343  -0.777   4.036   5.181  0.4225  4.0178 -3.1647
  480MOL0     H63344  -0.389   4.142   5.090 -0.7916  3.1623  1.7385
  480MOL0     H63345  -0.198   4.176   4.943  1.4241  0.8922 -2.3818
  480MOL0     H63346   1.349   3.516   4.186 -4.3909 -0.7631  2.2501
  480MOL0     H63347   1.581   3.568   4.204  0.8423  0.5877  0.4717
  480MOL0     H63348   1.837   3.942   4.335  0.1416 -0.4148  0.3505
  480MOL0     H63349   2.030   4.077   4.370 -1.9825  0.8895  0.6518
  480MOL0     H63350   2.224   4.117   4.324  3.5145 -0.6057 -2.1534
  480MOL0     H63351   2.382   4.126   4.409  0.6919 -2.4233  2.1469
  480MOL0     H63352   2.241   4.340   4.419 -1.9631  1.4535  0.8120
  480MOL0     H63353   2.118   4.256   4.495  0.1254 -0.8576 -0.9757
  480MOL0     H63354   2.399   4.275   4.600 -0.1448  0.8005 -0.7077
  480MOL0     H63355   2.247   4.225   4.699 -0.9489  2.3073  1.7168
  480MOL0     H63356   2.310   4.502   4.584  1.0239 -0.6472  1.0980
  480MOL0     H63357   2.168   4.459   4.676  0.5724  0.9668  1.2926
  480MOL0     H63358   2.461   4.493   4.975  2.3150 -1.1358 -0.5268
  480MOL0     H63359   2.193   3.781   4.624 -1.1805 -1.8570 -0.4717
  480MOL0     H63360   1.981   3.646   4.597 -3.4059  0.1179  0.7214
  481MOL0     O63361   2.436   4.971   4.483  0.1726 -0.5573  0.0486
  481MOL0     C63362   2.414   5.067   4.554  0.1025 -0.4465 -0.2235
  481MOL0     O63363   2.328   5.168   4.535  0.1841  0.2166  0.4029
  481MOL0     C63364   2.243   5.148   4.434  0.6574 -0.1496  0.0670
  481MOL0     C63365   2.167   5.032   4.413  0.5415 -0.1587  0.0337
  481MOL0     C63366   2.082   5.022   4.295 -0.5196 -0.0741  0.3531
  481MOL0     C63367   2.047   5.142   4.222 -1.4169  0.4581 -0.0804
  481MOL0     O63368   1.967   5.152   4.116 -0.4042 -0.3208  0.8222
  481MOL0     C63369   1.825   5.155   4.120 -0.2975 -0.0492  0.0068
  481MOL0     C63370   1.767   5.291   4.167 -0.6431 -0.3915  0.2279
  481MOL0     C63371   1.611   5.294   4.155 -0.1792  0.7047 -0.0188
  481MOL0     C63372   1.544   5.425   4.177  0.6462 -0.1963  0.3757
  481MOL0     C63373   1.400   5.438   4.129 -1.2291  0.9025 -0.7609
  481MOL0     C63374   1.349   5.582   4.144  0.4366 -0.0245  0.3301
  481MOL0     C63375   1.201   5.593   4.100 -0.4151  0.5351  0.0919
  481MOL0     C63376   1.158   5.743   4.081 -0.6307  0.7644  0.2946
  481MOL0     N63377   1.017   5.762   4.113 -0.1044  0.3304  0.4441
  481MOL0     C63378   0.960   5.758   4.238 -0.1877  0.1098 -0.4667
  481MOL0     C63379   0.828   5.777   4.216  0.7509  0.3332 -0.7247
  481MOL0     C63380   0.735   5.749   4.328 -0.7425  0.1297  0.8083
  481MOL0     C63381   0.590   5.784   4.288 -0.0851  1.0840 -0.0441
  481MOL0     C63382   0.567   5.937   4.270  0.1766  0.5544  0.3664
  481MOL0     C63383   0.608   6.033   4.383  0.0953 -0.1980  0.5890
  481MOL0     O63384   0.559   5.993   4.506 -0.1710 -0.2229  0.2325
  481MOL0     C63385   0.425   6.015   4.546  1.0993 -0.0495 -0.4635
  481MOL0     C63386   0.353   5.904   4.571  0.3928  0.3371 -0.2666
  481MOL0     C63387   0.221   5.906   4.607 -0.0786  0.2932 -0.2841
  481MOL0     C63388   0.155   6.034   4.629 -0.3946 -0.1740 -0.8010
  481MOL0     C63389   0.016   6.048   4.680 -0.9926 -0.1341  0.6551
  481MOL0     O63390  -0.039   5.945   4.744  0.3188  0.0678 -0.0166
  481MOL0     C63391  -0.166   5.956   4.807  0.0869  0.5102 -1.0049
  481MOL0     C63392  -0.285   6.017   4.755  0.0773  0.1924  0.1631
  481MOL0     C63393  -0.402   6.009   4.831  0.1987 -0.3149  0.3407
  481MOL0     C63394  -0.410   5.943   4.953 -0.4939  0.7609  0.4550
  481MOL0     O63395  -0.517   5.926   5.034  0.0244 -0.1984  0.4352
  481MOL0     C63396  -0.648   5.947   4.976 -0.1187  0.3158  0.0799
  481MOL0     C63397  -0.752   5.882   5.069  0.4491  1.2861 -0.3016
  481MOL0     C63398  -0.895   5.928   5.036 -0.6308  0.2582 -0.7966
  481MOL0     C63399  -0.999   5.921   5.148 -0.1687  0.5374  0.2950
  481MOL0     C63400  -1.031   5.780   5.188  0.4722 -0.0121 -0.0018
  481MOL0     C63401  -1.136   5.793   5.298  0.1679 -1.2717 -0.5594
  481MOL0     C63402  -1.184   5.655   5.342  0.4675  0.4083  0.4564
  481MOL0     C63403  -1.262   5.669   5.477 -0.2922  0.0485  0.5000
  481MOL0    Cl63404  -1.419   5.756   5.460  0.0807  0.0360  0.3854
  481MOL0     C63405  -0.292   5.895   5.007 -0.6458 -0.2601 -0.3754
  481MOL0     C63406  -0.172   5.899   4.937  0.7101  0.0432  0.7518
  481MOL0     O63407  -0.041   6.157   4.653 -0.2809 -0.4642 -0.3063
  481MOL0     C63408   0.232   6.149   4.606  0.1644 -0.9353  0.0871
  481MOL0     C63409   0.369   6.141   4.568 -0.6349 -0.2860  0.4390
  481MOL0     N63410   0.812   5.808   4.076  0.3768  0.1674  0.1712
  481MOL0     N63411   0.926   5.789   4.017 -0.3839  0.2551 -0.6763
  481MOL0     C63412   2.114   5.258   4.257  0.3411  1.1048 -0.2303
  481MOL0     C63413   2.216   5.260   4.354 -0.5130 -0.4709  0.7652
  481MOL0     C63414   2.493   5.062   4.682  0.5401 -0.7078 -0.4733
  481MOL0     C63415   2.474   5.170   4.778  0.3908 -0.4350 -0.4980
  481MOL0     C63416   2.535   5.168   4.909 -0.6602 -0.7169 -0.6838
  481MOL0     C63417   2.616   5.055   4.942 -0.0719 -0.6530 -0.6451
  481MOL0     O63418   2.664   5.041   5.066 -0.4903  0.3888 -0.1913
  481MOL0     C63419   2.793   5.108   5.087 -0.5743  0.1807  0.1219
  481MOL0     C63420   2.879   5.030   5.186 -0.1202 -0.6760 -0.6389
  481MOL0     C63421   2.822   5.043   5.326 -0.1706 -0.3913  0.2846
  481MOL0     C63422   2.916   4.976   5.428 -0.1898 -0.1732  0.4957
  481MOL0     C63423   2.870   5.002   5.569  0.0418  0.5072  0.5232
  481MOL0     C63424   2.810   5.016   5.675  0.6596  0.1593 -0.0495
  481MOL0     C63425   2.632   4.952   4.850 -0.3833  1.0452  0.3755
  481MOL0     C63426   2.572   4.943   4.719  0.0530 -0.1200 -0.7498
  481MOL0     H63427   2.175   4.949   4.483  1.5916  1.7720  2.3375
  481MOL0     H63428   2.049   4.924   4.263  2.4135 -0.6923 -1.1547
  481MOL0     H63429   1.787   5.069   4.177  2.3788 -1.7110 -0.4963
  481MOL0     H63430   1.778   5.151   4.022 -1.5820  0.1001  0.6007
  481MOL0     H63431   1.803   5.373   4.104 -0.3587 -1.1944 -0.6824
  481MOL0     H63432   1.811   5.312   4.266 -0.5320  1.3193 -0.1503
  481MOL0     H63433   1.560   5.220   4.216 -0.6105  0.1819 -0.9991
  481MOL0     H63434   1.576   5.258   4.058 -2.4379  0.4889  0.8323
  481MOL0     H63435   1.555   5.452   4.283  2.0932  2.0989 -0.2741
  481MOL0     H63436   1.603   5.501   4.125  0.5289  0.4094  1.0984
  481MOL0     H63437   1.342   5.372   4.194 -0.9983  0.1465 -1.3133
  481MOL0     H63438   1.375   5.396   4.031  0.0226 -0.9018 -0.3771
  481MOL0     H63439   1.415   5.649   4.088 -0.7735  3.4992  2.8128
  481MOL0     H63440   1.358   5.604   4.250  2.3142  0.9424  0.0106
  481MOL0     H63441   1.203   5.543   4.003  1.2150 -2.2827  1.4421
  481MOL0     H63442   1.144   5.536   4.174  1.7398  1.0957  2.3250
  481MOL0     H63443   1.173   5.766   3.975 -3.4233 -0.1739 -0.4112
  481MOL0     H63444   1.227   5.803   4.140  2.1096 -0.1922 -1.7080
  481MOL0     H63445   1.008   5.734   4.332 -0.1415 -0.9141 -0.7389
  481MOL0     H63446   0.769   5.803   4.417  1.1305 -0.3522  0.4146
  481MOL0     H63447   0.742   5.642   4.345  0.2755  0.0566 -0.0188
  481MOL0     H63448   0.516   5.747   4.361  0.7942  1.1198  0.8939
  481MOL0     H63449   0.567   5.729   4.196  1.0022 -3.8539  2.2663
  481MOL0     H63450   0.607   5.977   4.176 -1.7641 -0.8743 -1.1659
  481MOL0     H63451   0.459   5.942   4.251 -0.0509 -0.6599  1.2053
  481MOL0     H63452   0.569   6.133   4.364 -2.4895 -1.5682 -1.9492
  481MOL0     H63453   0.716   6.052   4.387  0.0641 -0.2296  2.8825
  481MOL0     H63454   0.410   5.812   4.556  0.4165  0.0054  1.6640
  481MOL0     H63455   0.168   5.813   4.625 -2.7251  1.4916 -1.4217
  481MOL0     H63456  -0.284   6.057   4.654  4.4917  0.3903  0.0757
  481MOL0     H63457  -0.491   6.041   4.778  0.2296  0.3958  0.7092
  481MOL0     H63458  -0.660   5.899   4.878  1.0113 -0.0329  0.1047
  481MOL0     H63459  -0.662   6.055   4.968 -0.1905  0.1625 -3.1886
  481MOL0     H63460  -0.732   5.905   5.174 -0.8181  3.1610 -0.4201
  481MOL0     H63461  -0.738   5.773   5.068 -0.8235  1.0745  0.8788
  481MOL0     H63462  -0.911   5.859   4.953  0.0348  0.7976 -1.3870
  481MOL0     H63463  -0.895   6.034   5.009  1.7418  0.3340 -0.7195
  481MOL0     H63464  -0.960   5.986   5.227  0.4030  1.2398 -0.5505
  481MOL0     H63465  -1.093   5.960   5.108  0.2843 -1.0961 -2.6453
  481MOL0     H63466  -0.936   5.740   5.223  1.6466 -0.5566 -3.4250
  481MOL0     H63467  -1.062   5.719   5.103  1.6517  2.4124 -2.3270
  481MOL0     H63468  -1.217   5.861   5.270 -0.7622 -2.0435  0.1879
  481MOL0     H63469  -1.088   5.843   5.382 -0.5216  1.5626 -1.7498
  481MOL0     H63470  -1.244   5.613   5.261  3.5496  0.4451 -2.0431
  481MOL0     H63471  -1.106   5.580   5.357 -1.4159 -2.1783 -1.7763
  481MOL0     H63472  -1.202   5.716   5.555 -1.5198  1.2899  0.7199
  481MOL0     H63473  -1.285   5.567   5.509 -1.8458 -0.3541 -1.6572
  481MOL0     H63474  -0.295   5.857   5.109 -0.9542 -0.9820 -0.6518
  481MOL0     H63475  -0.087   5.845   4.977 -0.4063 -3.2220 -0.8892
  481MOL0     H63476   0.194   6.251   4.611  1.5952 -0.3126 -0.9765
  481MOL0     H63477   0.421   6.232   4.542  1.1249 -0.0486  4.1861
  481MOL0     H63478   2.089   5.350   4.206 -1.9790  0.1087 -1.0355
  481MOL0     H63479   2.265   5.355   4.373  1.2201 -1.0698 -0.4592
  481MOL0     H63480   2.424   5.261   4.746  0.8801 -0.7346 -2.2098
  481MOL0     H63481   2.519   5.247   4.981 -0.7854 -1.2262 -0.1499
  481MOL0     H63482   2.785   5.211   5.121 -2.5029  0.0415  0.1899
  481MOL0     H63483   2.842   5.109   4.989  2.0093 -2.2117  1.2557
  481MOL0     H63484   2.894   4.925   5.158  0.6116 -0.7708  0.0547
  481MOL0     H63485   2.977   5.080   5.185 -1.0933  1.3381 -1.7354
  481MOL0     H63486   2.723   4.996   5.332  1.5731 -4.7699 -1.2553
  481MOL0     H63487   2.812   5.152   5.332  1.6265 -0.1210 -0.7190
  481MOL0     H63488   2.913   4.868   5.413 -0.5347 -0.7376  3.8295
  481MOL0     H63489   3.011   5.030   5.425 -1.4750  2.1716 -0.2881
  481MOL0     H63490   2.757   5.050   5.762  2.4625  0.2528  1.0724
  481MOL0     H63491   2.691   4.870   4.888 -0.4772 -0.3534 -2.2486
  481MOL0     H63492   2.581   4.865   4.644  0.5976  0.1318 -0.9510
  482MOL0     O63493   0.517   5.848   8.582  0.1703 -0.2350  0.2771
  482MOL0     C63494   0.553   5.861   8.465 -0.0512  0.7344 -0.2444
  482MOL0     O63495   0.678   5.862   8.423 -0.5499 -0.2829 -0.1951
  482MOL0     C63496   0.777   5.897   8.513 -0.0487 -0.3998  0.1347
  482MOL0     C63497   0.900   5.852   8.462  0.2763 -0.9146  0.9010
  482MOL0     C63498   1.019   5.852   8.530  0.2039  0.2671 -0.8560
  482MOL0     C63499   1.028   5.930   8.645 -0.1381  0.5047  0.6629
  482MOL0     O63500   1.153   5.944   8.697  0.2831  0.3549 -0.0730
  482MOL0     C63501   1.211   6.076   8.661  0.2032 -0.2066  0.1371
  482MOL0     C63502   1.349   6.073   8.712 -0.4256 -0.1612 -0.0692
  482MOL0     C63503   1.422   6.200   8.658 -0.1954 -0.1720  0.2353
  482MOL0     C63504   1.563   6.197   8.718 -0.9912  0.0770 -1.0675
  482MOL0     C63505   1.638   6.327   8.685 -0.2865  0.0956  0.0384
  482MOL0     C63506   1.778   6.333   8.753  0.2074  0.6795  0.7176
  482MOL0     C63507   1.856   6.453   8.690  0.3667 -0.2128 -0.1227
  482MOL0     C63508   1.945   6.515   8.790  0.1289  0.1809 -0.1410
  482MOL0     N63509   2.031   6.615   8.730  0.0253  1.1101  0.1766
  482MOL0     C63510   1.996   6.744   8.699 -0.2947 -0.6353  0.1676
  482MOL0     C63511   2.094   6.783   8.609  0.2429  0.1361 -0.9599
  482MOL0     C63512   2.114   6.908   8.524 -0.2870 -0.5146  0.2873
  482MOL0     C63513   2.089   7.038   8.603  0.7303  0.5823  0.1148
  482MOL0     C63514   2.136   7.161   8.526 -0.1683  0.7611 -0.0903
  482MOL0     C63515   2.063   7.292   8.555 -0.4293  0.1061 -0.1580
  482MOL0     O63516   1.932   7.278   8.503 -0.0762  0.7729  0.0615
  482MOL0     C63517   1.834   7.371   8.533 -0.0365  0.0241  0.7801
  482MOL0     C63518   1.704   7.325   8.504  0.4608 -0.0898  0.2151
  482MOL0     C63519   1.594   7.407   8.527  0.6025 -0.6217 -0.3566
  482MOL0     C63520   1.612   7.532   8.588  0.1274  0.0096 -0.1162
  482MOL0     C63521   1.490   7.619   8.627  0.3685  0.3343 -0.2251
  482MOL0     O63522   1.385   7.612   8.539 -0.2641 -1.2003  0.9047
  482MOL0     C63523   1.279   7.697   8.538 -0.0604  0.6289  0.1960
  482MOL0     C63524   1.151   7.642   8.528  0.2899 -0.3173  0.3896
  482MOL0     C63525   1.044   7.733   8.505  0.4726 -0.2880 -0.5963
  482MOL0     C63526   1.059   7.875   8.513  0.0676 -0.4780  0.0690
  482MOL0     O63527   0.954   7.970   8.519  0.3833  0.1543  0.2014
  482MOL0     C63528   0.819   7.913   8.520  0.6422 -0.3577  0.6715
  482MOL0     C63529   0.718   8.014   8.457 -0.8053  0.4359  0.0483
  482MOL0     C63530   0.754   8.071   8.319 -0.2110  0.4652 -0.8842
  482MOL0     C63531   0.673   8.180   8.258  0.3802 -0.6739 -0.5753
  482MOL0     C63532   0.682   8.309   8.352 -0.6758 -0.0786 -1.1290
  482MOL0     C63533   0.613   8.425   8.284  1.3079 -0.8279 -0.1717
  482MOL0     C63534   0.600   8.550   8.373 -0.8748 -0.1690 -0.1087
  482MOL0     C63535   0.452   8.581   8.428 -0.2831 -0.2677  0.6302
  482MOL0    Cl63536   0.448   8.765   8.477  0.3416 -0.3457  0.2950
  482MOL0     C63537   1.184   7.920   8.537  0.3581 -0.2266 -0.6772
  482MOL0     C63538   1.298   7.836   8.547  0.4526  0.9055  0.9421
  482MOL0     O63539   1.489   7.678   8.732 -0.2197  0.2463  0.0806
  482MOL0     C63540   1.744   7.575   8.604 -0.2820 -0.0652 -0.4826
  482MOL0     C63541   1.857   7.497   8.577  0.2391 -1.0553 -0.0469
  482MOL0     N63542   2.175   6.677   8.590 -0.3235 -0.0475  0.0702
  482MOL0     N63543   2.135   6.577   8.653 -0.2098 -0.0761  0.1828
  482MOL0     C63544   0.909   5.986   8.700  0.9670  0.2443 -0.4514
  482MOL0     C63545   0.787   5.966   8.642  0.4282 -0.0127  0.4295
  482MOL0     C63546   0.448   5.858   8.366 -1.1779 -0.1232  0.4463
  482MOL0     C63547   0.317   5.827   8.397  0.6215  0.1176 -0.5460
  482MOL0     C63548   0.223   5.830   8.297  0.0292  0.4513 -0.4717
  482MOL0     C63549   0.245   5.870   8.164 -0.6865  0.4641  1.0232
  482MOL0     O63550   0.145   5.892   8.065  0.0810  0.1264  0.2744
  482MOL0     C63551   0.017   5.913   8.118 -0.0002 -0.0341  0.0582
  482MOL0     C63552  -0.072   5.978   8.011 -0.2722  0.2101  0.2338
  482MOL0     C63553  -0.098   5.887   7.893  0.2947  0.8389 -0.1635
  482MOL0     C63554  -0.172   5.959   7.776  0.1782  0.4020  0.1555
  482MOL0     C63555  -0.255   5.861   7.710  0.5722 -0.0365  0.2155
  482MOL0     C63556  -0.322   5.779   7.649 -0.6208 -0.2364 -0.0824
  482MOL0     C63557   0.377   5.904   8.130 -1.3489 -0.2597 -0.8942
  482MOL0     C63558   0.475   5.902   8.237 -0.5556  0.3699 -0.0299
  482MOL0     H63559   0.908   5.793   8.371  0.6609 -1.4069  1.2515
  482MOL0     H63560   1.102   5.794   8.490  1.3249 -0.8125  2.7275
  482MOL0     H63561   1.149   6.152   8.711  3.2657  1.9642  0.8999
  482MOL0     H63562   1.213   6.096   8.554 -0.6084  1.2731  0.3805
  482MOL0     H63563   1.400   5.983   8.674  1.4102  1.1797 -0.9524
  482MOL0     H63564   1.341   6.074   8.821 -1.6809  0.7329 -0.1568
  482MOL0     H63565   1.365   6.290   8.682 -1.3896 -1.3773  2.1577
  482MOL0     H63566   1.425   6.202   8.548 -1.0028  2.9261  0.1803
  482MOL0     H63567   1.560   6.177   8.825  1.3146 -1.0307 -1.1396
  482MOL0     H63568   1.622   6.120   8.667 -2.2613 -0.9819 -0.9833
  482MOL0     H63569   1.577   6.413   8.715 -0.9621  0.3045 -1.7833
  482MOL0     H63570   1.656   6.334   8.577  0.2861 -1.5574  0.0011
  482MOL0     H63571   1.847   6.248   8.756  1.7568  1.7717 -1.3758
  482MOL0     H63572   1.758   6.361   8.857  0.0883  1.3503  0.5226
  482MOL0     H63573   1.902   6.422   8.595  0.2647 -2.8664  0.5997
  482MOL0     H63574   1.780   6.527   8.665 -0.9619 -0.6324  2.3458
  482MOL0     H63575   2.004   6.435   8.836  1.3506  1.5102  0.6977
  482MOL0     H63576   1.873   6.556   8.862 -2.1628 -0.0756 -2.1667
  482MOL0     H63577   1.923   6.808   8.746  0.1885  0.7535 -0.9217
  482MOL0     H63578   2.047   6.911   8.438 -1.4129 -0.2420  1.1501
  482MOL0     H63579   2.215   6.895   8.483  0.1096  1.4383  0.5433
  482MOL0     H63580   2.141   7.031   8.699  2.8537 -0.7953 -1.0467
  482MOL0     H63581   1.981   7.035   8.620  0.6573 -2.8921 -0.2803
  482MOL0     H63582   2.238   7.170   8.565 -0.4826 -2.4079  1.8444
  482MOL0     H63583   2.124   7.142   8.419 -1.1065 -2.4074  0.4709
  482MOL0     H63584   2.122   7.373   8.510 -0.7071  0.4480  0.0927
  482MOL0     H63585   2.058   7.312   8.663 -0.3798 -0.7645  0.0121
  482MOL0     H63586   1.691   7.224   8.465  2.1388  0.6489 -2.5620
  482MOL0     H63587   1.490   7.385   8.506 -1.3310  2.6187  4.1621
  482MOL0     H63588   1.143   7.534   8.533 -2.9456 -0.0938  2.5495
  482MOL0     H63589   0.949   7.681   8.496  1.7759 -3.0879  0.6034
  482MOL0     H63590   0.797   7.884   8.624 -1.9650  1.6274  0.7628
  482MOL0     H63591   0.810   7.823   8.459  0.0979  0.8233 -1.0534
  482MOL0     H63592   0.705   8.088   8.536 -3.5610  1.2630 -1.0642
  482MOL0     H63593   0.620   7.966   8.449 -0.6461  0.1051  0.0582
  482MOL0     H63594   0.759   7.987   8.249  0.9946 -1.2284  1.1366
  482MOL0     H63595   0.856   8.110   8.320 -1.0119  2.6827 -0.5449
  482MOL0     H63596   0.694   8.209   8.155 -0.6616  1.8615 -0.1486
  482MOL0     H63597   0.565   8.160   8.257  0.2891 -0.5202  1.5489
  482MOL0     H63598   0.789   8.329   8.365 -1.0767  0.9117  1.2090
  482MOL0     H63599   0.632   8.288   8.447 -1.5949  1.3402 -1.2707
  482MOL0     H63600   0.517   8.408   8.234 -0.1353  0.9713  1.8398
  482MOL0     H63601   0.680   8.474   8.212  0.2747  0.6887 -0.1452
  482MOL0     H63602   0.665   8.557   8.461 -0.7346  1.2470 -0.3095
  482MOL0     H63603   0.636   8.637   8.317 -0.2728  1.4975  2.6893
  482MOL0     H63604   0.428   8.514   8.511 -1.9130  1.4386  1.5884
  482MOL0     H63605   0.373   8.582   8.353  0.1266  1.0129  0.1852
  482MOL0     H63606   1.193   8.026   8.557  0.7996 -0.0126 -1.9366
  482MOL0     H63607   1.399   7.875   8.555  1.8458 -2.1330 -0.0560
  482MOL0     H63608   1.757   7.669   8.658 -3.8498  0.0439  0.4624
  482MOL0     H63609   1.960   7.521   8.602  0.7520 -1.9878 -1.1767
  482MOL0     H63610   0.902   6.032   8.798 -1.3868  2.9012 -1.7147
  482MOL0     H63611   0.706   6.019   8.690  2.0429  1.5786  1.5107
  482MOL0     H63612   0.284   5.798   8.497 -1.6741  3.3833 -0.1643
  482MOL0     H63613   0.119   5.804   8.314 -0.7048  3.8459  0.9180
  482MOL0     H63614   0.017   5.978   8.205  0.8314  1.2849 -0.8947
  482MOL0     H63615  -0.029   5.816   8.142 -0.6630 -0.3936 -2.3743
  482MOL0     H63616  -0.166   6.018   8.048 -1.4347  1.5529 -3.6418
  482MOL0     H63617  -0.018   6.067   7.975 -3.4474  1.4416 -1.9062
  482MOL0     H63618  -0.164   5.804   7.918  2.4136 -0.3617  1.9179
  482MOL0     H63619  -0.003   5.854   7.850  0.4155  0.9453  0.0228
  482MOL0     H63620  -0.234   6.039   7.817  2.0892  1.6055  0.8797
  482MOL0     H63621  -0.117   6.006   7.694 -2.2953 -2.0528 -3.2006
  482MOL0     H63622  -0.364   5.713   7.576  0.6579 -1.8482  0.5893
  482MOL0     H63623   0.410   5.935   8.032 -0.2014  2.8009  0.3471
  482MOL0     H63624   0.578   5.930   8.214 -1.2898  2.9419 -0.5301
  483MOL0     O63625   2.519   6.729   3.133  0.0234 -0.5084 -0.5379
  483MOL0     C63626   2.534   6.664   3.235  1.0829 -0.2509  0.4515
  483MOL0     O63627   2.470   6.685   3.347  0.2430  1.0990 -0.2207
  483MOL0     C63628   2.386   6.789   3.375 -0.4452 -0.7256 -0.2947
  483MOL0     C63629   2.385   6.828   3.506  0.0160  0.1920  1.0689
  483MOL0     C63630   2.290   6.924   3.552 -0.0384  0.0868 -0.5738
  483MOL0     C63631   2.212   6.990   3.459 -0.0084  0.5920 -0.1894
  483MOL0     O63632   2.133   7.099   3.490 -0.3539 -0.5308  0.5519
  483MOL0     C63633   2.159   7.172   3.614 -0.2537  0.2758 -0.6514
  483MOL0     C63634   2.097   7.307   3.624 -0.1667 -0.5902  0.4616
  483MOL0     C63635   1.946   7.321   3.627 -0.5655  0.5121  0.4463
  483MOL0     C63636   1.906   7.459   3.607 -0.4542 -0.0177 -0.5588
  483MOL0     C63637   1.748   7.477   3.615  0.4531  0.0408  0.1844
  483MOL0     C63638   1.685   7.417   3.491 -0.2862 -0.1047 -0.5829
  483MOL0     C63639   1.548   7.473   3.465  0.0578  0.0579  0.2585
  483MOL0     C63640   1.454   7.425   3.576  0.1815 -0.3089  0.5516
  483MOL0     N63641   1.316   7.469   3.557  0.7634  0.0914 -0.9074
  483MOL0     C63642   1.217   7.427   3.480  0.4703  0.7516  0.6613
  483MOL0     C63643   1.108   7.493   3.508  0.5685 -0.6282  0.2267
  483MOL0     C63644   0.969   7.485   3.459  0.1091  0.4038  0.2719
  483MOL0     C63645   0.859   7.411   3.547  0.3082  0.1251  0.4803
  483MOL0     C63646   0.746   7.363   3.454  0.3652  0.4556 -0.4221
  483MOL0     C63647   0.631   7.316   3.542  0.0309  0.3633 -0.5224
  483MOL0     O63648   0.518   7.326   3.460 -0.6466  0.4197  0.6035
  483MOL0     C63649   0.391   7.352   3.499  0.7629  0.0282  1.3330
  483MOL0     C63650   0.294   7.383   3.403  1.1922 -0.4273 -1.0374
  483MOL0     C63651   0.167   7.426   3.450 -0.3817  0.0194  0.2800
  483MOL0     C63652   0.125   7.420   3.578 -1.3583  0.4228 -0.3917
  483MOL0     C63653  -0.004   7.464   3.631  0.6638 -0.5213 -0.6318
  483MOL0     O63654  -0.094   7.496   3.533  0.1270  0.8031  0.8439
  483MOL0     C63655  -0.224   7.519   3.568 -0.9283 -0.3493  0.0178
  483MOL0     C63656  -0.289   7.612   3.489 -0.7172 -0.8072 -1.0412
  483MOL0     C63657  -0.412   7.665   3.530 -0.6043 -0.6377  0.2304
  483MOL0     C63658  -0.485   7.601   3.632  1.0550  0.4216 -0.0395
  483MOL0     O63659  -0.606   7.641   3.680  0.5934 -0.1539 -0.2220
  483MOL0     C63660  -0.678   7.746   3.609  0.5783 -0.9366  0.1789
  483MOL0     C63661  -0.805   7.783   3.678  0.3170  0.2623  0.4142
  483MOL0     C63662  -0.894   7.663   3.703  0.1703 -0.2571  0.0726
  483MOL0     C63663  -1.024   7.707   3.770 -0.1400  0.1625 -1.1371
  483MOL0     C63664  -1.131   7.597   3.778 -0.7532  0.2347  0.2405
  483MOL0     C63665  -1.250   7.641   3.862  1.3617  0.3446 -0.7108
  483MOL0     C63666  -1.373   7.547   3.830  0.2159 -0.1551 -0.4128
  483MOL0     C63667  -1.512   7.595   3.879 -1.1016  0.2206  0.1571
  483MOL0    Cl63668  -1.566   7.745   3.794 -0.1743  0.3159 -0.3099
  483MOL0     C63669  -0.423   7.498   3.699 -0.6406 -0.0145 -0.3810
  483MOL0     C63670  -0.294   7.452   3.674  0.3592  0.5730  0.4681
  483MOL0     O63671  -0.014   7.486   3.748  0.5752  1.3678  0.7700
  483MOL0     C63672   0.224   7.372   3.672 -0.1969  0.1613 -0.6653
  483MOL0     C63673   0.360   7.351   3.633  0.1275  0.0874  0.3129
  483MOL0     N63674   1.140   7.572   3.618  0.4062 -0.0520 -1.4755
  483MOL0     N63675   1.262   7.553   3.648  0.0457  0.3133  0.1097
  483MOL0     C63676   2.231   6.965   3.323  0.0872  0.0883 -0.1602
  483MOL0     C63677   2.312   6.861   3.284  0.2147  0.0854  0.4261
  483MOL0     C63678   2.629   6.551   3.236  0.1517  0.0292 -0.0786
  483MOL0     C63679   2.722   6.546   3.136 -0.5163 -0.2039 -0.5563
  483MOL0     C63680   2.821   6.449   3.140 -0.1960  0.1939  0.1821
  483MOL0     C63681   2.832   6.354   3.242  0.1494  0.2477  0.6044
  483MOL0     O63682   2.941   6.273   3.250  0.0183 -0.1249  0.3778
  483MOL0     C63683   3.035   6.324   3.345  0.4577  0.5480 -0.6162
  483MOL0     C63684   3.178   6.316   3.297 -0.6736  0.2632 -0.0004
  483MOL0     C63685   3.218   6.443   3.209  0.8418  0.7382 -0.2596
  483MOL0     C63686   3.337   6.410   3.112  0.1390  0.3822 -0.8143
  483MOL0     C63687   3.461   6.383   3.185 -0.7036  0.5328  0.4387
  483MOL0     C63688   3.546   6.336   3.255 -0.0452 -0.3275  1.1300
  483MOL0     C63689   2.735   6.363   3.347  0.4511  0.1938 -0.4831
  483MOL0     C63690   2.630   6.457   3.339  0.8264  0.3315 -0.4072
  483MOL0     H63691   2.444   6.770   3.576 -1.3499 -0.4588  1.7101
  483MOL0     H63692   2.272   6.942   3.657  0.4550  2.5655 -0.8526
  483MOL0     H63693   2.265   7.194   3.630  0.2528 -1.6038 -1.1450
  483MOL0     H63694   2.122   7.121   3.703  0.4354  1.4613  0.3444
  483MOL0     H63695   2.125   7.355   3.530 -2.5440 -3.7434 -2.0747
  483MOL0     H63696   2.128   7.360   3.715 -2.3702 -1.0122  1.5428
  483MOL0     H63697   1.905   7.276   3.718 -1.9417  1.0212  0.1055
  483MOL0     H63698   1.921   7.260   3.540  0.2056 -1.3098  1.4600
  483MOL0     H63699   1.960   7.518   3.682 -1.1737  0.1687 -0.1734
  483MOL0     H63700   1.931   7.519   3.519 -0.7188  0.2381 -0.4621
  483MOL0     H63701   1.733   7.584   3.630  0.6587 -0.0010  0.7388
  483MOL0     H63702   1.699   7.436   3.705 -0.2270 -1.4950 -0.8435
  483MOL0     H63703   1.675   7.308   3.490  0.7176 -0.2862  1.9924
  483MOL0     H63704   1.738   7.447   3.400 -1.3368  0.3816 -1.0568
  483MOL0     H63705   1.559   7.581   3.453 -1.9876  0.2591 -0.1865
  483MOL0     H63706   1.514   7.421   3.375  0.6198  1.9247 -1.0926
  483MOL0     H63707   1.496   7.464   3.670 -0.0431 -0.9335  0.9188
  483MOL0     H63708   1.458   7.316   3.568 -1.8186 -0.2597 -2.9125
  483MOL0     H63709   1.225   7.352   3.402  0.3908  1.6763 -0.2580
  483MOL0     H63710   0.978   7.431   3.364  0.1050  2.3039 -0.8434
  483MOL0     H63711   0.934   7.587   3.443  0.4604  0.5292  0.2859
  483MOL0     H63712   0.824   7.476   3.628  0.2570  1.8945 -0.8869
  483MOL0     H63713   0.906   7.329   3.601  0.5228  1.9146  3.2310
  483MOL0     H63714   0.704   7.438   3.387 -2.1990 -1.1519 -0.7221
  483MOL0     H63715   0.781   7.278   3.394 -0.2396 -0.3930  0.4165
  483MOL0     H63716   0.623   7.370   3.637 -1.4703 -1.8114  0.6716
  483MOL0     H63717   0.647   7.209   3.561  0.4065  0.0144 -2.5305
  483MOL0     H63718   0.328   7.378   3.300 -1.6470 -0.4801 -2.0762
  483MOL0     H63719   0.102   7.479   3.381 -1.3549  0.6101  1.6254
  483MOL0     H63720  -0.226   7.644   3.406  0.9249 -3.1502 -0.8038
  483MOL0     H63721  -0.450   7.755   3.482  0.4632  1.3431  2.8289
  483MOL0     H63722  -0.707   7.725   3.506  1.8357  0.3026 -0.4513
  483MOL0     H63723  -0.611   7.829   3.588 -0.1090  0.2710  2.4560
  483MOL0     H63724  -0.871   7.851   3.624  0.1131  1.2020  1.7751
  483MOL0     H63725  -0.771   7.823   3.775 -0.3157 -0.5937  0.9985
  483MOL0     H63726  -0.858   7.584   3.770 -2.9082 -0.6645  1.4132
  483MOL0     H63727  -0.924   7.602   3.618 -2.1278  0.5448  0.2487
  483MOL0     H63728  -1.000   7.756   3.865 -2.1350  0.8668 -0.9553
  483MOL0     H63729  -1.068   7.788   3.711 -0.2863  2.2660  1.6306
  483MOL0     H63730  -1.106   7.503   3.829 -2.2677  1.3125  3.1843
  483MOL0     H63731  -1.162   7.575   3.676  2.3795  2.1617 -1.2936
  483MOL0     H63732  -1.277   7.743   3.833  1.0390  0.6593  0.6601
  483MOL0     H63733  -1.227   7.639   3.968  1.2920 -1.7221 -0.6799
  483MOL0     H63734  -1.377   7.535   3.721  0.5082 -0.3840 -0.4018
  483MOL0     H63735  -1.363   7.452   3.883  0.6848 -0.0290 -0.2713
  483MOL0     H63736  -1.512   7.600   3.988  1.3337 -1.3760  0.2869
  483MOL0     H63737  -1.581   7.519   3.841  0.3718  0.4904 -3.5101
  483MOL0     H63738  -0.460   7.466   3.796  1.5688  1.7734  1.1439
  483MOL0     H63739  -0.245   7.379   3.736  2.5654  0.8962 -0.8048
  483MOL0     H63740   0.198   7.379   3.777  1.6742 -2.1444  0.0425
  483MOL0     H63741   0.424   7.339   3.719 -0.6668 -0.9228  0.7877
  483MOL0     H63742   2.163   7.012   3.254  0.3459  1.4619  0.4925
  483MOL0     H63743   2.315   6.842   3.177  1.0097 -1.4782  0.7030
  483MOL0     H63744   2.717   6.613   3.051 -1.0462  0.8754  0.3025
  483MOL0     H63745   2.897   6.437   3.064  0.2856 -1.2260  0.8349
  483MOL0     H63746   3.024   6.270   3.439 -2.7219  0.6873 -0.7842
  483MOL0     H63747   3.007   6.428   3.366 -1.6632 -0.2159  0.7165
  483MOL0     H63748   3.248   6.303   3.380  3.9751 -0.9282 -3.6390
  483MOL0     H63749   3.198   6.226   3.238  0.7206  1.2842 -1.1668
  483MOL0     H63750   3.241   6.527   3.275 -0.3551 -1.0435  2.6104
  483MOL0     H63751   3.133   6.463   3.143 -0.2521 -2.3060  0.0637
  483MOL0     H63752   3.300   6.320   3.062 -1.5681  0.0090  0.9778
  483MOL0     H63753   3.351   6.482   3.031  1.1867 -0.6555 -1.5900
  483MOL0     H63754   3.626   6.295   3.313 -0.3797 -1.1462  1.0289
  483MOL0     H63755   2.736   6.294   3.431  0.5418  2.0989  1.1611
  483MOL0     H63756   2.550   6.463   3.412  2.0305 -0.0830  0.9845
  484MOL0     O63757   9.865   6.978  11.221 -0.7958 -0.2788  0.6433
  484MOL0     C63758   9.916   7.062  11.140 -0.0111  0.4470 -0.4094
  484MOL0     O63759   9.847   7.124  11.039 -0.1129 -0.4198  0.4390
  484MOL0     C63760   9.712   7.109  11.025 -0.1699 -0.6269 -0.0347
  484MOL0     C63761   9.637   7.225  10.997  0.0533  0.1583 -0.5684
  484MOL0     C63762   9.506   7.221  10.965  0.7164  0.4841 -0.0518
  484MOL0     C63763   9.436   7.099  10.972 -0.2942 -0.2936  0.4563
  484MOL0     O63764   9.303   7.081  10.940 -0.6375  0.0161 -0.4240
  484MOL0     C63765   9.214   7.177  11.003  0.0379 -0.8855 -0.5387
  484MOL0     C63766   9.105   7.113  11.093  0.2503 -0.1660 -0.2271
  484MOL0     C63767   9.019   7.022  11.005  1.1745 -0.2275 -0.1576
  484MOL0     C63768   8.924   6.945  11.104 -0.0543  0.6049  0.1194
  484MOL0     C63769   8.833   6.849  11.036 -0.7397 -0.6327 -0.4715
  484MOL0     C63770   8.717   6.812  11.130 -0.0521 -0.2367  0.0719
  484MOL0     C63771   8.628   6.700  11.070  0.5363  0.5251 -0.1181
  484MOL0     C63772   8.513   6.664  11.170 -0.4640  0.6537  1.0088
  484MOL0     N63773   8.413   6.764  11.181  0.4262 -0.2087 -0.4632
  484MOL0     C63774   8.371   6.840  11.070  0.4564 -0.1184 -0.5159
  484MOL0     C63775   8.268   6.900  11.117  0.1695 -0.2908  0.2606
  484MOL0     C63776   8.178   6.986  11.040 -0.2607 -0.4818 -0.3298
  484MOL0     C63777   8.029   6.968  11.102 -0.1234  0.0841 -0.2881
  484MOL0     C63778   7.933   7.049  11.010  0.6811  0.2894  0.0985
  484MOL0     C63779   7.783   7.035  11.035 -0.5113 -0.4080 -0.0101
  484MOL0     O63780   7.758   7.109  11.151 -0.1624 -0.4093 -0.0646
  484MOL0     C63781   7.635   7.117  11.193 -0.1549 -0.7739 -0.8922
  484MOL0     C63782   7.615   7.182  11.318  0.8256 -0.6609  0.7958
  484MOL0     C63783   7.484   7.192  11.373 -0.0874 -0.1738  0.1396
  484MOL0     C63784   7.372   7.139  11.303 -0.5698 -0.0188 -0.2176
  484MOL0     C63785   7.232   7.152  11.358 -0.2792 -0.6663  0.0576
  484MOL0     O63786   7.128   7.086  11.293  0.1709 -0.2658  0.1265
  484MOL0     C63787   6.995   7.123  11.323 -0.6809  0.1159  0.5313
  484MOL0     C63788   6.903   7.123  11.215 -0.7002  0.8112  0.8191
  484MOL0     C63789   6.765   7.152  11.237  0.1039 -0.6176  0.4507
  484MOL0     C63790   6.721   7.178  11.364  0.2069 -0.1616  0.1830
  484MOL0     O63791   6.591   7.208  11.380  0.1066  0.7211 -0.5135
  484MOL0     C63792   6.531   7.166  11.507 -1.2065 -0.4874  0.2664
  484MOL0     C63793   6.376   7.163  11.494 -0.8470 -0.0898 -0.5019
  484MOL0     C63794   6.314   7.125  11.638 -0.0781 -0.1920 -0.1578
  484MOL0     C63795   6.161   7.137  11.628 -0.5091  0.5268 -0.3826
  484MOL0     C63796   6.084   7.064  11.734  0.2805  0.1407  0.0041
  484MOL0     C63797   5.931   7.066  11.731 -0.3450 -0.3270  0.2668
  484MOL0     C63798   5.869   7.020  11.870  1.0167 -0.3314 -0.0097
  484MOL0     C63799   5.711   7.033  11.869 -0.5671 -0.1809  0.2784
  484MOL0    Cl63800   5.634   6.939  11.735 -0.1800  0.1532  0.5419
  484MOL0     C63801   6.813   7.172  11.473  0.1066 -0.6763  0.3037
  484MOL0     C63802   6.950   7.149  11.453 -0.1499 -0.1484  0.0940
  484MOL0     O63803   7.226   7.222  11.456  0.3840  0.3653 -0.1722
  484MOL0     C63804   7.397   7.066  11.188 -0.6021  0.4205 -0.4937
  484MOL0     C63805   7.527   7.043  11.136  0.1628  0.8250 -0.1579
  484MOL0     N63806   8.249   6.864  11.247 -0.3413 -0.2724 -1.1584
  484MOL0     N63807   8.337   6.777  11.290 -0.0851 -0.5640 -0.1694
  484MOL0     C63808   9.509   6.983  10.993  0.5877  0.0808 -0.5067
  484MOL0     C63809   9.645   6.987  11.020 -0.4284 -0.3699  0.5904
  484MOL0     C63810  10.059   7.072  11.149  0.1331 -0.1530  0.7819
  484MOL0     C63811  10.122   7.163  11.066  0.1983 -0.3549 -0.5115
  484MOL0     C63812  10.262   7.154  11.043 -0.9259  0.5448  0.1831
  484MOL0     C63813  10.329   7.043  11.101 -0.5362 -0.4400 -1.4120
  484MOL0     O63814  10.464   7.043  11.068  0.4464  0.4338 -0.3904
  484MOL0     C63815  10.552   6.950  11.126  0.3973 -0.5273  0.2795
  484MOL0     C63816  10.686   6.951  11.051  0.6486 -0.3138  0.4055
  484MOL0     C63817  10.764   7.082  11.063  0.2871 -0.5397  0.0089
  484MOL0     C63818  10.817   7.119  11.202  0.5422  0.0939 -0.4636
  484MOL0     C63819  10.917   7.025  11.263  0.0772  0.5182  0.1075
  484MOL0     C63820  11.023   6.966  11.290 -0.9293 -0.5170 -0.0002
  484MOL0     C63821  10.265   6.956  11.185 -0.2429 -0.0252  0.0841
  484MOL0     C63822  10.136   6.969  11.202 -0.5608  0.2574  0.5425
  484MOL0     H63823   9.696   7.316  10.999 -1.6264  1.2881 -0.1295
  484MOL0     H63824   9.453   7.310  10.932 -2.0714 -0.7919  0.6526
  484MOL0     H63825   9.167   7.234  10.922 -0.2723  0.0918  0.3155
  484MOL0     H63826   9.262   7.256  11.060 -1.1407  1.3060 -2.3962
  484MOL0     H63827   9.041   7.186  11.143 -2.7459 -2.8917  0.2432
  484MOL0     H63828   9.161   7.069  11.176  1.0281 -0.0976 -0.7112
  484MOL0     H63829   9.079   6.954  10.944  0.5961  0.7200 -1.8538
  484MOL0     H63830   8.961   7.080  10.933  0.2602 -0.6763  0.1929
  484MOL0     H63831   8.986   6.899  11.182 -1.6829  0.7169  1.5313
  484MOL0     H63832   8.852   7.016  11.146 -2.0408 -1.4136  0.3257
  484MOL0     H63833   8.901   6.767  11.011  2.3185  1.5025  0.4140
  484MOL0     H63834   8.799   6.904  10.948  0.5063  0.9844  0.0068
  484MOL0     H63835   8.669   6.901  11.172 -0.7818 -0.9472  0.7468
  484MOL0     H63836   8.772   6.774  11.216  0.0481  0.1810  0.1974
  484MOL0     H63837   8.573   6.733  10.981 -2.2222 -1.5535  0.6785
  484MOL0     H63838   8.683   6.612  11.034 -1.9456 -0.4321 -1.8408
  484MOL0     H63839   8.554   6.651  11.271 -0.0976  0.2551  0.8118
  484MOL0     H63840   8.470   6.570  11.135 -1.0809  0.1639  2.9395
  484MOL0     H63841   8.413   6.849  10.971 -0.5550 -2.7883 -1.2753
  484MOL0     H63842   8.188   6.955  10.936 -0.7384 -2.8746  0.2941
  484MOL0     H63843   8.193   7.094  11.049 -0.8304 -0.2470 -1.8986
  484MOL0     H63844   8.034   7.020  11.198  0.0735 -1.0926  0.3708
  484MOL0     H63845   8.002   6.862  11.115  0.7397 -0.1424 -0.2210
  484MOL0     H63846   7.960   7.155  11.012 -1.9484  1.0920 -1.9571
  484MOL0     H63847   7.961   7.024  10.907  0.6694  0.0041  0.1625
  484MOL0     H63848   7.746   6.932  11.042 -2.7368  0.1854 -1.6662
  484MOL0     H63849   7.736   7.082  10.948 -0.8539  0.4709  0.6339
  484MOL0     H63850   7.701   7.233  11.360  1.1246  0.5664 -1.1847
  484MOL0     H63851   7.470   7.249  11.464 -4.4189 -0.5747 -0.0786
  484MOL0     H63852   6.935   7.093  11.116 -0.9613  1.3484  0.5703
  484MOL0     H63853   6.700   7.143  11.150 -2.2116 -1.4185  2.1585
  484MOL0     H63854   6.567   7.220  11.595  1.2777 -1.8634  0.1974
  484MOL0     H63855   6.557   7.061  11.527  0.2255 -0.4124 -1.0130
  484MOL0     H63856   6.340   7.088  11.424 -0.6606 -2.9940  2.3117
  484MOL0     H63857   6.335   7.258  11.459 -0.7576 -0.7904 -2.6430
  484MOL0     H63858   6.344   7.191  11.721 -2.8982 -0.7605  1.4256
  484MOL0     H63859   6.352   7.026  11.664  0.3953 -0.3329 -1.3057
  484MOL0     H63860   6.146   7.245  11.619 -2.3800  0.3898  0.5605
  484MOL0     H63861   6.137   7.094  11.531  1.6545 -0.1563 -0.6640
  484MOL0     H63862   6.120   7.109  11.827  0.1820 -1.4902  0.8528
  484MOL0     H63863   6.118   6.962  11.749  1.9703  0.5522 -0.7837
  484MOL0     H63864   5.889   6.999  11.655 -3.3316  1.3301  0.3137
  484MOL0     H63865   5.904   7.172  11.719  1.5403  0.5287  2.7121
  484MOL0     H63866   5.896   6.914  11.886  1.0802 -0.3196 -0.0375
  484MOL0     H63867   5.902   7.077  11.958 -2.9843 -1.0746  2.2387
  484MOL0     H63868   5.702   7.141  11.850  1.8681  0.4306  2.0369
  484MOL0     H63869   5.676   6.995  11.965  2.2283 -0.5729  1.2380
  484MOL0     H63870   6.796   7.197  11.577  2.6725  1.5404  0.2824
  484MOL0     H63871   7.014   7.161  11.540 -2.3585  1.3591  1.6388
  484MOL0     H63872   7.316   7.018  11.134 -0.1966  0.5647 -1.2388
  484MOL0     H63873   7.545   6.988  11.044  0.1091  0.6020 -0.0339
  484MOL0     H63874   9.452   6.892  11.008  0.9589  0.0922  1.1788
  484MOL0     H63875   9.687   6.889  11.040 -1.4632 -1.4904 -2.2261
  484MOL0     H63876  10.065   7.235  11.007 -1.7086  0.8135  2.5436
  484MOL0     H63877  10.316   7.216  10.972 -1.3816  1.9022  0.9978
  484MOL0     H63878  10.520   6.845  11.129  1.0911 -0.7182  1.7723
  484MOL0     H63879  10.562   6.976  11.231 -1.4251  2.1643 -0.1120
  484MOL0     H63880  10.740   6.863  11.087 -1.6448 -0.7610  3.2307
  484MOL0     H63881  10.660   6.936  10.946 -1.5992  1.0439  0.6932
  484MOL0     H63882  10.687   7.159  11.046  3.4325  2.6717 -1.0080
  484MOL0     H63883  10.847   7.084  10.991  1.7159 -1.6659  1.5683
  484MOL0     H63884  10.860   7.219  11.194 -0.8336  0.6495 -1.4833
  484MOL0     H63885  10.734   7.112  11.272  0.8754  1.9398  0.1736
  484MOL0     H63886  11.110   6.908  11.311  1.5436  1.7700 -3.0452
  484MOL0     H63887  10.323   6.874  11.227 -0.4577 -0.1876  0.0680
  484MOL0     H63888  10.086   6.889  11.255  0.7499 -1.8172 -1.1981
  485MOL0     O63889   4.357   2.514   1.940  0.3013 -0.1672 -0.7978
  485MOL0     C63890   4.293   2.422   1.893  0.8504  0.0609  0.3565
  485MOL0     O63891   4.351   2.315   1.831  0.5632  0.7271  0.4727
  485MOL0     C63892   4.483   2.322   1.802 -0.3920  0.5155  0.4107
  485MOL0     C63893   4.533   2.362   1.673  0.6530 -0.5519 -0.7222
  485MOL0     C63894   4.671   2.368   1.661 -0.0916  0.5548  0.4224
  485MOL0     C63895   4.761   2.327   1.752 -1.4786  0.2612 -0.9950
  485MOL0     O63896   4.893   2.330   1.717  0.2397  0.4527  0.2386
  485MOL0     C63897   4.984   2.241   1.770  0.6558  0.7204  0.0759
  485MOL0     C63898   5.099   2.247   1.676 -0.6499  0.7320  0.0750
  485MOL0     C63899   5.220   2.165   1.731  0.1429 -0.1006  0.3602
  485MOL0     C63900   5.335   2.174   1.623 -0.7168  0.5506 -0.3500
  485MOL0     C63901   5.468   2.113   1.669 -0.7106 -0.5938 -0.1567
  485MOL0     C63902   5.594   2.152   1.590  0.4076 -0.5794  0.0649
  485MOL0     C63903   5.720   2.095   1.664  0.6748 -0.6886 -0.1577
  485MOL0     C63904   5.845   2.119   1.585  0.8271  0.6598 -0.2559
  485MOL0     N63905   5.825   2.056   1.445  0.7070  0.0444  0.5549
  485MOL0     C63906   5.782   1.925   1.414 -0.2072 -0.6146 -0.0844
  485MOL0     C63907   5.777   1.931   1.279  0.2521 -0.1338  0.3554
  485MOL0     C63908   5.709   1.832   1.189  0.2295  0.0981  0.1870
  485MOL0     C63909   5.583   1.767   1.246  0.7783 -0.2405 -0.3267
  485MOL0     C63910   5.468   1.851   1.300  0.2344 -0.3859 -0.4638
  485MOL0     C63911   5.344   1.768   1.325 -0.2660  0.3127 -0.6702
  485MOL0     O63912   5.258   1.852   1.404 -0.5960  0.5063 -0.1014
  485MOL0     C63913   5.127   1.813   1.414 -0.8414  0.0946  0.0846
  485MOL0     C63914   5.073   1.689   1.372  0.9145 -1.1702 -0.3507
  485MOL0     C63915   4.947   1.649   1.421 -0.1794  0.8077 -0.0401
  485MOL0     C63916   4.869   1.743   1.490 -1.2176  0.3546  0.4057
  485MOL0     C63917   4.731   1.715   1.531  0.0804  0.2175  0.8526
  485MOL0     O63918   4.658   1.815   1.586 -0.1906 -0.0955  0.0342
  485MOL0     C63919   4.535   1.804   1.641  0.5398 -0.7748 -0.3435
  485MOL0     C63920   4.506   1.888   1.751  0.1689 -0.1937  0.3022
  485MOL0     C63921   4.381   1.897   1.809 -0.0273  0.2378  0.0234
  485MOL0     C63922   4.280   1.814   1.758  0.0429  0.1847  0.1298
  485MOL0     O63923   4.156   1.830   1.813  0.0882  0.1625 -0.6330
  485MOL0     C63924   4.084   1.705   1.831 -0.2295  0.6811  0.0493
  485MOL0     C63925   3.969   1.726   1.935 -0.1249  0.5682 -0.2494
  485MOL0     C63926   3.907   1.584   1.955 -0.3301  0.1415  0.6683
  485MOL0     C63927   3.843   1.572   2.097  0.0969 -0.5499  0.2548
  485MOL0     C63928   3.764   1.443   2.125 -0.1650  0.3138 -0.1665
  485MOL0     C63929   3.817   1.311   2.060 -0.3561 -0.5220 -1.2695
  485MOL0     C63930   3.721   1.203   2.096 -0.6831 -0.2396  0.2687
  485MOL0     C63931   3.747   1.080   2.010 -0.4770 -0.3418  0.5811
  485MOL0    Cl63932   3.675   1.086   1.847 -0.0317 -0.3920  0.5634
  485MOL0     C63933   4.317   1.715   1.661  0.4851  0.8636  0.6379
  485MOL0     C63934   4.446   1.709   1.603  0.5122 -0.2835 -0.2684
  485MOL0     O63935   4.697   1.606   1.508  0.4809 -0.1403 -0.0635
  485MOL0     C63936   4.924   1.873   1.521  0.0637 -0.1445  0.2183
  485MOL0     C63937   5.054   1.904   1.479 -0.5229 -0.4405  0.3649
  485MOL0     N63938   5.831   2.049   1.231 -0.7304  0.0491  0.1371
  485MOL0     N63939   5.863   2.121   1.337  0.2898  0.2158  0.7502
  485MOL0     C63940   4.714   2.281   1.879 -0.0456 -0.1192  0.1579
  485MOL0     C63941   4.577   2.270   1.897 -0.0400 -0.5114  0.8236
  485MOL0     C63942   4.152   2.417   1.924  1.2119 -0.1288 -0.2217
  485MOL0     C63943   4.064   2.360   1.834 -0.1974  0.6350  0.4119
  485MOL0     C63944   3.930   2.342   1.862  0.0837 -0.5245 -0.2507
  485MOL0     C63945   3.880   2.399   1.978 -0.6085  0.1051  0.5777
  485MOL0     O63946   3.746   2.384   2.014  0.2201  0.0265 -0.1299
  485MOL0     C63947   3.659   2.291   1.961  0.1813 -0.3664 -0.3052
  485MOL0     C63948   3.532   2.285   2.042 -0.7995  0.0182  0.6424
  485MOL0     C63949   3.433   2.183   1.990  0.0487  0.7598 -1.1970
  485MOL0     C63950   3.294   2.186   2.067 -0.8013  0.3631 -0.2105
  485MOL0     C63951   3.176   2.137   1.989 -0.1101 -0.7390  0.5823
  485MOL0     C63952   3.076   2.112   1.928 -0.0234  0.7636  1.2079
  485MOL0     C63953   3.956   2.478   2.064 -0.9994  0.1007 -0.1398
  485MOL0     C63954   4.097   2.471   2.042 -0.0544  0.3978  0.4453
  485MOL0     H63955   4.462   2.392   1.596 -0.6546  4.3879  1.9630
  485MOL0     H63956   4.716   2.398   1.567  0.7842  1.4729  1.1216
  485MOL0     H63957   4.945   2.139   1.770 -1.4165  1.4046  2.7949
  485MOL0     H63958   5.012   2.254   1.875  1.1268 -1.7502  0.3053
  485MOL0     H63959   5.119   2.354   1.664 -1.7409  1.1962  2.0170
  485MOL0     H63960   5.064   2.204   1.582 -0.3796 -5.3820  2.3203
  485MOL0     H63961   5.202   2.062   1.762  0.9128 -0.2983  0.1769
  485MOL0     H63962   5.251   2.216   1.822  0.6380 -1.9884  1.2984
  485MOL0     H63963   5.298   2.120   1.536 -0.7683  1.2375 -0.7643
  485MOL0     H63964   5.352   2.278   1.594 -1.3567  0.3542 -1.4751
  485MOL0     H63965   5.460   2.004   1.666  1.9067 -0.8908  0.5656
  485MOL0     H63966   5.495   2.140   1.772 -0.0999 -1.3257 -0.1177
  485MOL0     H63967   5.607   2.260   1.584 -1.8708 -0.2696 -0.5046
  485MOL0     H63968   5.577   2.108   1.491 -0.9146 -1.3015  0.5911
  485MOL0     H63969   5.721   2.123   1.770  0.6540 -0.0156 -0.3281
  485MOL0     H63970   5.714   1.990   1.693 -2.4713  0.0464  2.5354
  485MOL0     H63971   5.939   2.093   1.636 -0.1026  1.4990  2.0186
  485MOL0     H63972   5.856   2.226   1.565  1.3165  0.9102  1.2158
  485MOL0     H63973   5.740   1.851   1.481  0.5528 -0.1139  1.0035
  485MOL0     H63974   5.771   1.754   1.144 -2.3685 -1.4186 -0.9825
  485MOL0     H63975   5.674   1.886   1.101 -1.5953  0.5575  1.1592
  485MOL0     H63976   5.623   1.693   1.316  3.2971  0.3856 -1.0079
  485MOL0     H63977   5.542   1.708   1.163 -0.7479 -0.6883  0.7035
  485MOL0     H63978   5.512   1.880   1.396  0.9016 -0.6008 -0.6935
  485MOL0     H63979   5.450   1.939   1.238  0.5537  0.1577  0.1976
  485MOL0     H63980   5.376   1.677   1.376  2.0037  1.4592  0.0810
  485MOL0     H63981   5.295   1.752   1.229  0.0658 -0.2854 -0.7412
  485MOL0     H63982   5.134   1.614   1.324  0.6581 -1.6623  0.0836
  485MOL0     H63983   4.914   1.549   1.397  2.7319 -0.5740  1.1170
  485MOL0     H63984   4.580   1.953   1.796 -0.0947  0.1625  0.2264
  485MOL0     H63985   4.365   1.972   1.885  0.4692 -0.0417  0.4118
  485MOL0     H63986   4.156   1.627   1.855 -0.9085  0.2134  0.6264
  485MOL0     H63987   4.052   1.665   1.734  0.3416 -0.2402  0.2238
  485MOL0     H63988   3.895   1.802   1.912 -2.3855 -0.9452  1.5301
  485MOL0     H63989   4.014   1.759   2.029  2.0730 -2.2494 -0.1684
  485MOL0     H63990   3.977   1.504   1.931 -0.1493 -0.4089  2.8358
  485MOL0     H63991   3.838   1.566   1.872  2.4057 -1.2995 -1.4324
  485MOL0     H63992   3.921   1.581   2.173 -2.8995  2.3522  3.2876
  485MOL0     H63993   3.774   1.654   2.112  1.6893  1.0883 -0.9195
  485MOL0     H63994   3.659   1.462   2.100 -0.4882  1.9334  2.1566
  485MOL0     H63995   3.763   1.421   2.232 -1.5125  0.7613 -0.0681
  485MOL0     H63996   3.909   1.288   2.114  0.4246 -0.4340 -2.5166
  485MOL0     H63997   3.830   1.325   1.952 -1.7504  0.9676 -1.2794
  485MOL0     H63998   3.729   1.164   2.198 -1.7523 -1.1718  0.0185
  485MOL0     H63999   3.615   1.232   2.094 -1.3811 -2.5519 -2.3152
  485MOL0     H64000   3.713   0.990   2.063 -1.6024 -0.6467 -0.5958
  485MOL0     H64001   3.854   1.062   1.996 -0.6807 -1.6503  0.5667
  485MOL0     H64002   4.243   1.649   1.615  2.8124 -0.8424 -0.8564
  485MOL0     H64003   4.470   1.639   1.523  0.3031  0.1416 -0.7038
  485MOL0     H64004   4.853   1.938   1.570 -0.9255 -1.8778  1.1728
  485MOL0     H64005   5.100   1.999   1.505  0.2391 -0.6644 -0.1320
  485MOL0     H64006   4.791   2.247   1.948 -0.1465 -0.5805  0.0435
  485MOL0     H64007   4.536   2.220   1.984 -1.9302  2.1471  1.6086
  485MOL0     H64008   4.112   2.311   1.749 -1.7144  1.8169 -1.2214
  485MOL0     H64009   3.865   2.288   1.794  0.0985 -0.6621 -0.1559
  485MOL0     H64010   3.694   2.188   1.963 -3.8499 -1.9902 -1.9677
  485MOL0     H64011   3.628   2.321   1.860 -4.1814  2.5348  1.5897
  485MOL0     H64012   3.559   2.257   2.145  0.2341  2.3339  1.0533
  485MOL0     H64013   3.476   2.378   2.036  1.5716  1.4732 -0.1488
  485MOL0     H64014   3.478   2.083   2.000  2.0350  1.7816  1.6506
  485MOL0     H64015   3.420   2.216   1.887  2.3679  0.1305 -1.7591
  485MOL0     H64016   3.306   2.130   2.160 -3.0565  0.9965  0.5286
  485MOL0     H64017   3.276   2.289   2.099 -0.8446  0.4620 -0.5502
  485MOL0     H64018   2.990   2.089   1.868  1.6566 -0.1137 -1.0568
  485MOL0     H64019   3.907   2.518   2.151  3.0365 -0.2650  2.5658
  485MOL0     H64020   4.164   2.530   2.105 -2.6445  1.2708  2.5643
  486MOL0     O64021   7.970   8.980   2.045  0.3725  0.1152 -0.2736
  486MOL0     C64022   8.066   8.979   1.966 -0.8399  0.1502 -0.0260
  486MOL0     O64023   8.109   9.081   1.881 -0.2212 -0.4918  0.5039
  486MOL0     C64024   8.033   9.199   1.864 -0.3921 -0.2487 -0.3683
  486MOL0     C64025   7.912   9.192   1.805  0.1972  0.1410  0.8197
  486MOL0     C64026   7.836   9.304   1.792 -0.3210 -0.4627  0.1507
  486MOL0     C64027   7.876   9.427   1.843 -0.3121  0.6204 -0.6220
  486MOL0     O64028   7.791   9.528   1.829 -0.2662 -0.5800  0.6933
  486MOL0     C64029   7.809   9.609   1.711  0.2475 -0.2040  0.0429
  486MOL0     C64030   7.664   9.626   1.662  0.3493  0.4530 -0.0710
  486MOL0     C64031   7.652   9.733   1.550  0.3112  0.1851 -0.4412
  486MOL0     C64032   7.751   9.694   1.433  0.6180 -0.5106  1.1146
  486MOL0     C64033   7.760   9.553   1.382  0.2098  0.6509  0.4951
  486MOL0     C64034   7.627   9.497   1.314  0.8213 -0.3184 -0.1119
  486MOL0     C64035   7.591   9.586   1.199  0.8296  0.1192 -0.8959
  486MOL0     C64036   7.478   9.534   1.108  0.7171 -0.1861 -0.2746
  486MOL0     N64037   7.455   9.614   0.985  0.0134 -0.1304 -0.1893
  486MOL0     C64038   7.557   9.645   0.898  0.6702 -0.6096  0.1629
  486MOL0     C64039   7.495   9.693   0.789 -0.0528 -0.6446  0.2163
  486MOL0     C64040   7.557   9.754   0.670 -0.1069  0.1471  0.8311
  486MOL0     C64041   7.628   9.661   0.572 -0.7625 -0.0414 -0.1201
  486MOL0     C64042   7.686   9.736   0.454 -0.4140  0.2892  0.0986
  486MOL0     C64043   7.737   9.632   0.355  0.5786 -0.5897 -0.1862
  486MOL0     O64044   7.790   9.699   0.234  1.2408  0.9454  0.0562
  486MOL0     C64045   7.704   9.714   0.124  0.2825  0.6240 -0.0738
  486MOL0     C64046   7.569   9.692   0.116 -0.2917 -0.0773  0.3186
  486MOL0     C64047   7.493   9.743   0.005 -0.7242 -0.1623 -0.3333
  486MOL0     C64048   7.557   9.807  -0.106 -0.0676  0.8423 -0.2645
  486MOL0     C64049   7.482   9.851  -0.219 -0.3511  0.2897 -1.1773
  486MOL0     O64050   7.561   9.901  -0.320 -0.6926 -0.3592  0.3631
  486MOL0     C64051   7.509   9.944  -0.446  0.4109  0.5661 -1.3454
  486MOL0     C64052   7.374   9.930  -0.491  0.8762  0.0251 -0.2306
  486MOL0     C64053   7.338   9.993  -0.614  0.0616  0.2479  0.3773
  486MOL0     C64054   7.427  10.055  -0.696 -0.4804  0.6113 -0.0419
  486MOL0     O64055   7.396  10.090  -0.825  0.7505 -0.3514  0.6652
  486MOL0     C64056   7.505  10.111  -0.917  0.4203  0.7558 -0.5702
  486MOL0     C64057   7.520  10.265  -0.922 -0.3471  0.2469 -0.4723
  486MOL0     C64058   7.397  10.337  -0.963  0.2616  0.0168 -0.2074
  486MOL0     C64059   7.359  10.314  -1.106 -0.7631 -0.7951  0.8057
  486MOL0     C64060   7.270  10.425  -1.177  0.5333 -0.0441 -0.1429
  486MOL0     C64061   7.126  10.383  -1.178 -0.3593  1.0818  0.3242
  486MOL0     C64062   7.058  10.457  -1.289  0.4164  0.3528 -0.1317
  486MOL0     C64063   6.920  10.396  -1.326 -0.1925  0.6162 -0.4317
  486MOL0    Cl64064   6.827  10.514  -1.412 -0.2040 -0.1404 -0.2503
  486MOL0     C64065   7.545  10.091  -0.636  0.5112 -0.1919  0.5687
  486MOL0     C64066   7.589  10.023  -0.520  0.2478 -0.3470  0.0010
  486MOL0     O64067   7.356   9.834  -0.210 -0.3404 -0.4632  0.5570
  486MOL0     C64068   7.693   9.823  -0.092  0.0660  0.5852  0.3192
  486MOL0     C64069   7.768   9.783   0.021 -0.0859  0.7501  0.2512
  486MOL0     N64070   7.357   9.686   0.817  0.5260  0.0061  0.0499
  486MOL0     N64071   7.335   9.647   0.933  0.4227  0.0069  0.2760
  486MOL0     C64072   8.000   9.439   1.910 -0.2593  0.3623 -0.0998
  486MOL0     C64073   8.075   9.319   1.929  0.0633 -1.0726 -0.7852
  486MOL0     C64074   8.155   8.852   1.960  0.0413 -0.4201  0.0524
  486MOL0     C64075   8.161   8.771   2.075  0.3284  0.2666  0.2489
  486MOL0     C64076   8.252   8.660   2.083  0.0550 -0.4671 -0.7224
  486MOL0     C64077   8.331   8.630   1.979 -0.8385  0.3142 -0.1423
  486MOL0     O64078   8.428   8.529   1.979 -0.4794 -0.6471 -1.0061
  486MOL0     C64079   8.442   8.421   2.069  0.1801  0.4021 -0.3972
  486MOL0     C64080   8.543   8.461   2.188 -0.0635  1.1404 -0.5412
  486MOL0     C64081   8.667   8.521   2.122  0.5541 -0.1365  0.1364
  486MOL0     C64082   8.774   8.543   2.225  0.2643 -0.4104 -0.5851
  486MOL0     C64083   8.902   8.563   2.154 -0.0954  0.2932  0.4882
  486MOL0     C64084   9.006   8.592   2.094 -0.5862  0.4407 -0.1905
  486MOL0     C64085   8.325   8.712   1.865 -0.4358  0.4215  0.3907
  486MOL0     C64086   8.242   8.821   1.857 -0.9719 -0.6482  0.7651
  486MOL0     H64087   7.875   9.094   1.775 -1.2398  0.4527  1.4812
  486MOL0     H64088   7.737   9.296   1.746 -0.9293 -0.1544  1.3585
  486MOL0     H64089   7.872   9.564   1.634 -1.3394  2.0965 -2.8375
  486MOL0     H64090   7.855   9.699   1.753  1.9494 -0.6292 -0.8139
  486MOL0     H64091   7.595   9.650   1.744 -0.7965  0.9672 -1.1425
  486MOL0     H64092   7.631   9.532   1.616  1.8109 -0.9454  1.6038
  486MOL0     H64093   7.671   9.833   1.591  3.9222 -1.4556  2.4855
  486MOL0     H64094   7.548   9.733   1.518 -0.7014  2.0463  2.4277
  486MOL0     H64095   7.727   9.753   1.344  2.0925 -3.4200 -1.4215
  486MOL0     H64096   7.849   9.721   1.473  1.3968 -0.8163 -0.5089
  486MOL0     H64097   7.799   9.483   1.456  1.5753  0.4212 -0.4080
  486MOL0     H64098   7.837   9.544   1.305  0.1947  0.5607  0.4904
  486MOL0     H64099   7.543   9.494   1.383 -0.2984  1.5400 -1.2993
  486MOL0     H64100   7.644   9.392   1.289 -1.0241 -1.3208  2.4356
  486MOL0     H64101   7.561   9.686   1.232  0.2800 -0.6385  1.0679
  486MOL0     H64102   7.679   9.603   1.136  2.0729  2.0735  1.2246
  486MOL0     H64103   7.386   9.519   1.167  1.1360 -1.5097  0.0888
  486MOL0     H64104   7.498   9.430   1.081 -0.6856 -0.5889  0.1168
  486MOL0     H64105   7.664   9.634   0.907  0.5305 -4.0418 -0.7962
  486MOL0     H64106   7.632   9.826   0.704  0.2290 -0.0422  0.5037
  486MOL0     H64107   7.470   9.806   0.627  0.0805 -1.5249 -1.8554
  486MOL0     H64108   7.554   9.585   0.548 -0.7901  0.5427 -2.0433
  486MOL0     H64109   7.711   9.606   0.618  1.4675 -0.9313 -4.6424
  486MOL0     H64110   7.619   9.801   0.397  2.1363  0.2265 -3.2511
  486MOL0     H64111   7.770   9.798   0.487  1.4053 -1.8752 -0.2710
  486MOL0     H64112   7.655   9.560   0.346 -0.1500 -0.1325  2.1215
  486MOL0     H64113   7.818   9.588   0.413 -0.7937  1.9958  4.1147
  486MOL0     H64114   7.514   9.635   0.190 -2.9725 -0.6395 -1.9421
  486MOL0     H64115   7.385   9.730   0.006 -0.5561 -2.6288 -2.7894
  486MOL0     H64116   7.295   9.872  -0.443  2.1264 -1.8948 -0.3493
  486MOL0     H64117   7.238   9.977  -0.652  0.7499 -0.8308 -1.0744
  486MOL0     H64118   7.476  10.069  -1.014 -1.4371  3.3889 -1.2836
  486MOL0     H64119   7.602  10.071  -0.886 -0.8071 -0.7294  1.6329
  486MOL0     H64120   7.603  10.285  -0.990 -0.1405  0.2455 -0.2220
  486MOL0     H64121   7.542  10.310  -0.824 -1.3017 -0.2143 -0.0304
  486MOL0     H64122   7.427  10.440  -0.943  0.9680 -0.5039  1.7237
  486MOL0     H64123   7.310  10.315  -0.901  1.3413  0.6077  1.6040
  486MOL0     H64124   7.456  10.307  -1.157 -0.2092 -0.1651  1.7448
  486MOL0     H64125   7.316  10.215  -1.123 -2.8851  0.1043  0.6236
  486MOL0     H64126   7.311  10.430  -1.278 -0.0259 -3.2403 -0.6105
  486MOL0     H64127   7.275  10.522  -1.127 -0.2711 -0.0070 -0.1325
  486MOL0     H64128   7.075  10.397  -1.082 -2.9879  1.7516 -1.0837
  486MOL0     H64129   7.133  10.278  -1.208  1.3379  1.4224 -0.6186
  486MOL0     H64130   7.051  10.561  -1.257  0.7106  0.4874 -0.5027
  486MOL0     H64131   7.113  10.454  -1.383 -0.8734 -4.6310 -1.0255
  486MOL0     H64132   6.862  10.375  -1.236 -0.5731 -1.6924 -1.1550
  486MOL0     H64133   6.933  10.296  -1.368 -0.2934 -0.5453  2.1173
  486MOL0     H64134   7.604  10.163  -0.691 -1.8567 -1.2355 -3.8503
  486MOL0     H64135   7.689  10.040  -0.482  0.0461  0.7619  0.0607
  486MOL0     H64136   7.751   9.887  -0.159  0.7182  0.7993  1.0743
  486MOL0     H64137   7.874   9.803   0.033 -0.0532  1.2112 -0.7460
  486MOL0     H64138   8.034   9.534   1.950  3.5955 -0.2619 -1.4328
  486MOL0     H64139   8.171   9.316   1.979 -0.6630  0.2693  0.7658
  486MOL0     H64140   8.096   8.795   2.158 -0.0681  0.7861 -0.2079
  486MOL0     H64141   8.266   8.608   2.177  1.5558  3.6107  1.5723
  486MOL0     H64142   8.486   8.340   2.011  0.6276  0.3434  0.0159
  486MOL0     H64143   8.345   8.392   2.111  0.6397 -0.9925 -0.2303
  486MOL0     H64144   8.488   8.533   2.248 -1.7035 -1.6505  1.5297
  486MOL0     H64145   8.578   8.382   2.254  1.5587  0.8889 -1.6277
  486MOL0     H64146   8.629   8.612   2.076  0.5549  0.2299  0.8428
  486MOL0     H64147   8.685   8.439   2.052 -0.8458 -2.4153  2.2697
  486MOL0     H64148   8.744   8.636   2.274 -1.7606 -0.1514 -2.1889
  486MOL0     H64149   8.773   8.464   2.301 -0.2707 -0.4120 -0.5877
  486MOL0     H64150   9.103   8.611   2.053 -0.7454 -1.4245 -1.5536
  486MOL0     H64151   8.407   8.700   1.795  0.5387  2.5140  1.0931
  486MOL0     H64152   8.265   8.883   1.771 -0.8238 -1.8909 -0.1303
  487MOL0     O64153   4.440   1.077   5.738  1.2208  0.2304  0.5858
  487MOL0     C64154   4.480   1.117   5.629 -0.5767 -0.5849 -0.1553
  487MOL0     O64155   4.408   1.144   5.520 -0.5392 -0.0071 -0.1395
  487MOL0     C64156   4.273   1.146   5.515 -0.3422 -0.0197 -0.5710
  487MOL0     C64157   4.193   1.166   5.630 -0.1308 -0.0243  0.3061
  487MOL0     C64158   4.057   1.164   5.623  0.9129  0.7881  0.0593
  487MOL0     C64159   3.990   1.162   5.495  0.3569  0.8056 -0.1231
  487MOL0     O64160   3.857   1.179   5.458  0.1946  0.1544 -0.5633
  487MOL0     C64161   3.760   1.185   5.559 -0.8014 -0.8147  0.4003
  487MOL0     C64162   3.614   1.206   5.497 -0.1698  1.0539  0.0083
  487MOL0     C64163   3.526   1.285   5.602  0.7687 -0.9930 -0.0637
  487MOL0     C64164   3.382   1.292   5.565  0.1845  0.6274  0.7648
  487MOL0     C64165   3.302   1.342   5.678  0.4643 -0.0109 -0.6755
  487MOL0     C64166   3.161   1.395   5.641 -0.4907  1.3952 -0.4929
  487MOL0     C64167   3.074   1.438   5.760  0.7999 -0.2128 -0.3895
  487MOL0     C64168   3.126   1.568   5.815  0.1427  0.5160  0.3645
  487MOL0     N64169   3.024   1.641   5.885  0.1624  0.4587 -0.2984
  487MOL0     C64170   2.958   1.577   5.989  0.1993  0.2403  0.2669
  487MOL0     C64171   2.853   1.663   6.015  0.1966 -0.6011 -0.5475
  487MOL0     C64172   2.751   1.628   6.125  0.0662 -0.4880  0.0091
  487MOL0     C64173   2.760   1.736   6.229 -0.5446  0.3349  0.3454
  487MOL0     C64174   2.698   1.700   6.367  0.3582  0.1782 -0.2621
  487MOL0     C64175   2.555   1.741   6.363 -0.0323 -0.0843  0.7204
  487MOL0     O64176   2.473   1.669   6.270 -0.2224 -0.3291 -0.0289
  487MOL0     C64177   2.338   1.682   6.278 -0.9442 -1.1878 -0.8644
  487MOL0     C64178   2.271   1.615   6.174 -0.5883  0.1778 -0.5326
  487MOL0     C64179   2.138   1.635   6.161  0.1192  0.3341  0.0284
  487MOL0     C64180   2.059   1.718   6.255 -0.0611  0.8780  0.7477
  487MOL0     C64181   1.911   1.731   6.239 -0.1419  1.6733  0.6256
  487MOL0     O64182   1.859   1.837   6.298  0.7910  0.2340  0.6341
  487MOL0     C64183   1.727   1.869   6.288  0.3508  0.8884  0.4095
  487MOL0     C64184   1.668   1.938   6.182  0.2176  0.5778  0.1789
  487MOL0     C64185   1.533   1.954   6.176 -0.3287 -0.0004 -0.3902
  487MOL0     C64186   1.450   1.909   6.279  0.2592 -0.0361 -0.2232
  487MOL0     O64187   1.319   1.921   6.250  0.2266  0.3013  0.4080
  487MOL0     C64188   1.227   1.885   6.347  0.5845 -0.3677  0.2008
  487MOL0     C64189   1.091   1.875   6.273 -0.6805 -0.7182  0.7988
  487MOL0     C64190   0.968   1.887   6.368 -0.5187 -0.0963  0.2180
  487MOL0     C64191   0.839   1.863   6.295  0.9137 -0.6354  0.5884
  487MOL0     C64192   0.715   1.864   6.395 -0.0237  1.0228  0.2583
  487MOL0     C64193   0.581   1.855   6.308  1.6894  0.2107 -0.2493
  487MOL0     C64194   0.471   1.789   6.385  0.5440 -0.0900 -0.3222
  487MOL0     C64195   0.336   1.763   6.317  0.3478  0.3205 -0.1316
  487MOL0    Cl64196   0.339   1.653   6.181 -0.5726 -0.0963  0.0749
  487MOL0     C64197   1.508   1.849   6.392  0.4792  0.2777  0.5148
  487MOL0     C64198   1.648   1.826   6.396 -0.5047  0.1492 -0.7215
  487MOL0     O64199   1.849   1.652   6.163  0.5008  0.2351  0.1021
  487MOL0     C64200   2.132   1.770   6.370  0.2631 -0.1506  1.3401
  487MOL0     C64201   2.272   1.758   6.379  0.1940  0.5247 -0.3921
  487MOL0     N64202   2.858   1.776   5.935 -0.2746  0.3218  0.2044
  487MOL0     N64203   2.970   1.764   5.861 -0.0184  0.4401 -0.3955
  487MOL0     C64204   4.071   1.142   5.382 -0.5824 -0.0340 -0.6141
  487MOL0     C64205   4.206   1.131   5.391 -0.3726 -1.0191 -0.3476
  487MOL0     C64206   4.617   1.152   5.626 -0.0367 -0.1448 -0.0674
  487MOL0     C64207   4.687   1.206   5.517  0.0173  0.4144  0.1104
  487MOL0     C64208   4.823   1.232   5.526 -0.0804 -0.6742 -0.9971
  487MOL0     C64209   4.902   1.203   5.637 -0.0624 -0.5740 -0.2991
  487MOL0     O64210   5.041   1.226   5.650  0.4291  0.0507  0.2828
  487MOL0     C64211   5.107   1.227   5.524  0.6272 -0.3365 -0.1894
  487MOL0     C64212   5.257   1.192   5.548  0.4457 -0.4175  0.5915
  487MOL0     C64213   5.345   1.224   5.417 -0.7142 -0.4811  0.8152
  487MOL0     C64214   5.492   1.219   5.453  0.0589  0.2103 -0.4785
  487MOL0     C64215   5.557   1.348   5.469 -0.7234 -1.0238 -0.4792
  487MOL0     C64216   5.605   1.460   5.469  0.6014 -0.3152 -0.0801
  487MOL0     C64217   4.835   1.137   5.739 -0.5073  0.0617 -0.2891
  487MOL0     C64218   4.701   1.119   5.738  0.2794  1.1177  0.0643
  487MOL0     H64219   4.233   1.186   5.729 -2.5039  3.1169  0.7959
  487MOL0     H64220   4.008   1.163   5.720 -0.3966 -1.9063 -0.5572
  487MOL0     H64221   3.774   1.265   5.631  0.4320  1.8497 -2.5625
  487MOL0     H64222   3.772   1.089   5.611 -0.1304  0.3270  2.4545
  487MOL0     H64223   3.568   1.114   5.458 -1.3882  2.2081 -1.4513
  487MOL0     H64224   3.621   1.279   5.415  2.5133  2.7211  1.5891
  487MOL0     H64225   3.568   1.386   5.613 -0.9467 -0.5594  5.1640
  487MOL0     H64226   3.539   1.244   5.702  0.6548  0.0810  0.4078
  487MOL0     H64227   3.370   1.354   5.476 -1.5278 -0.2561  0.3467
  487MOL0     H64228   3.334   1.199   5.534  0.1366  0.8747  0.0803
  487MOL0     H64229   3.359   1.421   5.729  0.7971  0.3102 -1.5279
  487MOL0     H64230   3.296   1.257   5.746 -2.1302  0.1621 -0.5614
  487MOL0     H64231   3.105   1.309   5.603 -1.9506  2.5692 -1.1309
  487MOL0     H64232   3.160   1.462   5.555  3.7000  1.4098 -0.7143
  487MOL0     H64233   2.974   1.465   5.725 -0.7414 -1.8431  2.3865
  487MOL0     H64234   3.055   1.366   5.841 -0.6985 -0.3571 -0.8307
  487MOL0     H64235   3.174   1.629   5.738 -0.4114 -1.7552 -1.8876
  487MOL0     H64236   3.200   1.535   5.889  0.6609  1.8522  0.4634
  487MOL0     H64237   2.981   1.491   6.051 -0.0353 -0.8124 -1.0774
  487MOL0     H64238   2.769   1.530   6.169  0.0526 -0.5898 -0.2097
  487MOL0     H64239   2.656   1.622   6.072  1.0544  1.7025 -2.1796
  487MOL0     H64240   2.723   1.830   6.186 -0.2997  0.3316  0.1297
  487MOL0     H64241   2.864   1.748   6.259 -0.4700  2.0181 -0.4821
  487MOL0     H64242   2.716   1.597   6.398  3.1050  1.1228  1.6786
  487MOL0     H64243   2.741   1.772   6.437 -0.1954  1.5202 -1.2661
  487MOL0     H64244   2.551   1.847   6.335 -3.2903 -0.1638  0.4957
  487MOL0     H64245   2.511   1.721   6.461 -1.7491  0.2100  0.0556
  487MOL0     H64246   2.317   1.556   6.095  2.0989 -1.5951  2.1227
  487MOL0     H64247   2.084   1.598   6.074 -3.1950 -1.5667  2.6364
  487MOL0     H64248   1.733   1.955   6.097  1.0920 -0.4569  0.6180
  487MOL0     H64249   1.485   1.994   6.087 -2.2024 -0.4131  0.3863
  487MOL0     H64250   1.225   1.974   6.411  5.3653  2.2330 -2.6995
  487MOL0     H64251   1.263   1.804   6.412  4.1866 -1.3456 -2.6915
  487MOL0     H64252   1.080   1.775   6.230  0.2240 -1.0262  1.2660
  487MOL0     H64253   1.088   1.951   6.195  2.0043 -2.0748 -0.7854
  487MOL0     H64254   0.965   1.985   6.416  0.7930 -0.8806  2.0479
  487MOL0     H64255   0.988   1.814   6.447  1.1074 -0.1722 -0.2300
  487MOL0     H64256   0.830   1.950   6.229 -0.3218  0.1021  1.6857
  487MOL0     H64257   0.836   1.775   6.229 -1.8875  0.2392 -0.6262
  487MOL0     H64258   0.712   1.947   6.465 -0.6926  1.2714 -0.0567
  487MOL0     H64259   0.735   1.766   6.441  1.2976  0.5458 -1.2540
  487MOL0     H64260   0.594   1.798   6.216  1.3760  2.3493 -1.7058
  487MOL0     H64261   0.558   1.958   6.280  3.1100  0.8607  0.8141
  487MOL0     H64262   0.508   1.692   6.421 -0.0751 -0.5608 -0.9105
  487MOL0     H64263   0.457   1.848   6.475  0.7371 -0.6346  0.0731
  487MOL0     H64264   0.295   1.854   6.273  1.6246  1.0925  0.2009
  487MOL0     H64265   0.272   1.715   6.391  2.7400 -2.2611  0.4589
  487MOL0     H64266   1.455   1.817   6.481 -1.9882  0.7881 -0.7129
  487MOL0     H64267   1.716   1.804   6.478  0.5289  3.0067 -0.6900
  487MOL0     H64268   2.072   1.800   6.455 -2.2802 -0.2342 -0.2918
  487MOL0     H64269   2.311   1.803   6.470 -0.3204  1.2224 -0.5062
  487MOL0     H64270   4.021   1.138   5.286 -1.6179  0.4200 -0.1180
  487MOL0     H64271   4.273   1.115   5.307 -0.9795 -1.5687 -0.7320
  487MOL0     H64272   4.634   1.223   5.424  0.0388  0.8071  0.1707
  487MOL0     H64273   4.884   1.278   5.449 -1.3106 -2.0202 -2.8699
  487MOL0     H64274   5.090   1.325   5.477 -1.6599 -0.3794  0.4359
  487MOL0     H64275   5.067   1.155   5.453 -2.4450  1.9689 -1.0168
  487MOL0     H64276   5.295   1.261   5.624 -0.9975  2.1825 -0.9067
  487MOL0     H64277   5.268   1.091   5.588  1.2772 -0.6454 -0.1833
  487MOL0     H64278   5.328   1.324   5.374  0.7407 -0.5424  0.0183
  487MOL0     H64279   5.317   1.150   5.341 -2.4210  1.3506 -0.4516
  487MOL0     H64280   5.504   1.157   5.542  2.2957 -0.4489 -1.1657
  487MOL0     H64281   5.547   1.158   5.381 -0.8300 -4.1472  2.1722
  487MOL0     H64282   5.648   1.557   5.479 -0.0318 -0.3063  4.5559
  487MOL0     H64283   4.896   1.108   5.823 -0.7851 -1.1252 -0.4874
  487MOL0     H64284   4.665   1.063   5.824  2.0988 -1.0343 -0.4832
  488MOL0     O64285   0.050   5.113   3.499  0.0929 -1.1188  0.4351
  488MOL0     C64286   0.116   5.186   3.422  0.5624  0.8121  0.5681
  488MOL0     O64287   0.056   5.256   3.323 -0.3834 -0.1209 -0.1971
  488MOL0     C64288  -0.084   5.267   3.331 -0.0285 -0.1217  0.1530
  488MOL0     C64289  -0.155   5.197   3.224 -0.4133  0.0797  0.0221
  488MOL0     C64290  -0.291   5.208   3.206  0.2687 -0.8675 -0.8293
  488MOL0     C64291  -0.364   5.280   3.309 -0.3061  0.3822 -0.3207
  488MOL0     O64292  -0.498   5.293   3.333 -0.1084 -0.2484 -0.0060
  488MOL0     C64293  -0.587   5.249   3.230 -0.4564  0.3656 -1.0174
  488MOL0     C64294  -0.730   5.308   3.250 -0.0992  0.0354  0.9398
  488MOL0     C64295  -0.770   5.342   3.392  0.6333 -0.3713 -0.7447
  488MOL0     C64296  -0.902   5.420   3.379 -0.2496  0.1009  0.3089
  488MOL0     C64297  -0.964   5.454   3.516  0.8185  0.4004 -0.0372
  488MOL0     C64298  -0.876   5.546   3.603 -0.3595 -0.6948  0.3642
  488MOL0     C64299  -0.875   5.699   3.567  0.0866  0.7963  0.3923
  488MOL0     C64300  -0.761   5.783   3.625 -0.5214  0.7198  0.0908
  488MOL0     N64301  -0.629   5.727   3.583  0.0192 -0.0228  0.3764
  488MOL0     C64302  -0.563   5.761   3.463 -0.0845 -0.7301 -0.0075
  488MOL0     C64303  -0.449   5.699   3.458 -0.0491  0.1627  0.3783
  488MOL0     C64304  -0.353   5.692   3.345 -0.5963  0.0059  1.4113
  488MOL0     C64305  -0.275   5.827   3.341 -0.6361 -0.3227  0.1607
  488MOL0     C64306  -0.161   5.821   3.243  0.0740  0.4313 -0.1431
  488MOL0     C64307  -0.030   5.758   3.296 -1.4358 -0.4335 -0.0728
  488MOL0     O64308   0.058   5.739   3.185  0.1470  0.4898  0.0261
  488MOL0     C64309   0.187   5.687   3.192  0.2561 -0.1310  0.2375
  488MOL0     C64310   0.255   5.678   3.311 -0.2878 -0.2248 -1.0950
  488MOL0     C64311   0.383   5.656   3.325  0.2090 -0.6017 -0.5158
  488MOL0     C64312   0.458   5.629   3.208  0.0431  1.0241  0.2668
  488MOL0     C64313   0.607   5.602   3.211 -0.3489 -0.3554  0.3327
  488MOL0     O64314   0.664   5.553   3.097  0.4191 -0.0587 -0.6623
  488MOL0     C64315   0.793   5.518   3.113 -0.8343 -0.0211 -0.9014
  488MOL0     C64316   0.894   5.592   3.042  0.0570  0.5564 -0.4606
  488MOL0     C64317   1.024   5.548   3.032 -0.7848  0.6431 -0.2311
  488MOL0     C64318   1.064   5.434   3.095  0.3222  0.4571  0.1444
  488MOL0     O64319   1.201   5.403   3.087 -0.7174  0.0028 -0.0412
  488MOL0     C64320   1.254   5.324   3.192  0.5740  0.3786  0.9934
  488MOL0     C64321   1.400   5.298   3.187 -0.3338  0.4654 -0.5230
  488MOL0     C64322   1.458   5.244   3.329 -0.3133  0.0578 -0.2358
  488MOL0     C64323   1.608   5.259   3.330 -0.5524 -0.0154  0.3922
  488MOL0     C64324   1.664   5.217   3.470  0.1220  0.0868 -0.2023
  488MOL0     C64325   1.655   5.332   3.570  0.3923 -0.4065  0.1415
  488MOL0     C64326   1.634   5.282   3.711 -0.6113 -1.0491  0.3485
  488MOL0     C64327   1.654   5.415   3.793 -0.1022 -0.1187 -0.1377
  488MOL0    Cl64328   1.817   5.460   3.792  0.2543 -0.1640  0.5158
  488MOL0     C64329   0.967   5.356   3.171 -0.2269  0.1348 -0.0115
  488MOL0     C64330   0.834   5.404   3.179  0.6354  0.6337 -0.0764
  488MOL0     O64331   0.672   5.629   3.313  0.2372  0.1838 -0.1684
  488MOL0     C64332   0.395   5.624   3.082  0.6552  0.1369 -0.4090
  488MOL0     C64333   0.256   5.656   3.078  0.4656  0.7788  0.1277
  488MOL0     N64334  -0.440   5.633   3.580 -0.8862  0.6288  1.1456
  488MOL0     N64335  -0.552   5.643   3.650  0.0107 -0.2544  0.3169
  488MOL0     C64336  -0.294   5.344   3.413 -0.7707  0.8658  0.3331
  488MOL0     C64337  -0.157   5.334   3.424  0.3153 -0.2967 -1.0372
  488MOL0     C64338   0.264   5.176   3.436  0.8452 -0.3118  0.5267
  488MOL0     C64339   0.327   5.090   3.525 -0.0118  0.5437 -0.1669
  488MOL0     C64340   0.466   5.077   3.534 -0.6286  0.4500  0.0503
  488MOL0     C64341   0.546   5.156   3.449  1.1879  0.7199  0.2220
  488MOL0     O64342   0.680   5.129   3.434  0.2744 -0.3107 -0.4936
  488MOL0     C64343   0.756   5.128   3.558 -0.3351 -0.5086 -0.9597
  488MOL0     C64344   0.902   5.140   3.515  0.4281 -0.6140 -0.0806
  488MOL0     C64345   0.997   5.039   3.590 -0.2282  0.1196 -0.1059
  488MOL0     C64346   1.142   5.057   3.541 -0.4903  0.0834 -0.8888
  488MOL0     C64347   1.227   4.937   3.561 -0.7436  0.4266  0.3324
  488MOL0     C64348   1.289   4.835   3.580 -0.5381  0.4086 -0.0993
  488MOL0     C64349   0.480   5.237   3.358  0.1410  0.1776 -0.3445
  488MOL0     C64350   0.343   5.257   3.355 -0.2589  0.3543 -0.1406
  488MOL0     H64351  -0.089   5.161   3.146 -2.3897  0.0241 -1.7186
  488MOL0     H64352  -0.341   5.157   3.125 -1.0503 -1.1455  0.1241
  488MOL0     H64353  -0.592   5.140   3.232  2.2874  0.1453  2.0490
  488MOL0     H64354  -0.553   5.280   3.131 -0.0876  1.1663 -0.6481
  488MOL0     H64355  -0.802   5.242   3.201 -1.2477  2.0132 -0.1359
  488MOL0     H64356  -0.745   5.400   3.193 -1.0316 -1.5418 -1.5636
  488MOL0     H64357  -0.696   5.409   3.437 -0.6239  0.3551  0.3159
  488MOL0     H64358  -0.776   5.260   3.465  1.3793  1.5887  1.6440
  488MOL0     H64359  -0.894   5.502   3.308  0.9922  1.3986  1.8878
  488MOL0     H64360  -0.975   5.353   3.332 -1.1205  1.6653 -0.6699
  488MOL0     H64361  -0.977   5.362   3.573 -0.1489  0.7099  0.2646
  488MOL0     H64362  -1.064   5.492   3.492 -0.2417 -0.4869  2.6770
  488MOL0     H64363  -0.770   5.516   3.599  0.0201  0.6808 -2.1391
  488MOL0     H64364  -0.911   5.529   3.705 -0.1819 -0.9331  0.3880
  488MOL0     H64365  -0.866   5.712   3.458 -0.0845  0.5882  0.3540
  488MOL0     H64366  -0.967   5.749   3.596 -1.1174 -1.2034  0.2302
  488MOL0     H64367  -0.761   5.794   3.734 -2.2897 -1.0183  0.3041
  488MOL0     H64368  -0.762   5.890   3.600  2.0969  1.0319  0.9868
  488MOL0     H64369  -0.602   5.812   3.375  0.5632  0.4375  0.3652
  488MOL0     H64370  -0.398   5.665   3.248  3.0262 -1.1618 -0.1300
  488MOL0     H64371  -0.278   5.613   3.353  0.3607  0.3921 -2.1068
  488MOL0     H64372  -0.239   5.858   3.439 -0.1287  0.0962 -0.1520
  488MOL0     H64373  -0.344   5.904   3.305 -1.8104 -2.1614 -1.7814
  488MOL0     H64374  -0.185   5.785   3.143 -1.1903  2.5023 -0.6355
  488MOL0     H64375  -0.147   5.928   3.229  0.1715  0.4142 -0.1702
  488MOL0     H64376  -0.045   5.656   3.332 -1.8966  0.0969  1.2955
  488MOL0     H64377   0.019   5.823   3.368  2.3622 -0.4970 -2.3567
  488MOL0     H64378   0.196   5.688   3.401 -3.1746  0.3404 -2.9087
  488MOL0     H64379   0.429   5.661   3.423 -1.3086 -2.7326  0.3760
  488MOL0     H64380   0.886   5.683   2.983  2.4604  1.0719 -0.1052
  488MOL0     H64381   1.090   5.608   2.970  1.0758 -0.0864  0.9715
  488MOL0     H64382   1.200   5.229   3.198 -1.7409  1.4132 -1.4498
  488MOL0     H64383   1.241   5.373   3.289 -0.2560 -2.9983  2.7669
  488MOL0     H64384   1.455   5.390   3.166  1.0909 -0.6816 -2.0861
  488MOL0     H64385   1.426   5.231   3.104  2.4682 -0.8043  1.1970
  488MOL0     H64386   1.434   5.138   3.339 -0.8761  0.0370 -1.5823
  488MOL0     H64387   1.417   5.301   3.412 -0.0047 -0.3383  0.1919
  488MOL0     H64388   1.657   5.191   3.259  0.2403  0.6742  0.2710
  488MOL0     H64389   1.648   5.358   3.309 -0.5801  0.2830  1.6674
  488MOL0     H64390   1.770   5.194   3.461  0.5070  1.1852  1.2189
  488MOL0     H64391   1.612   5.128   3.507  1.1149  0.2885  1.8543
  488MOL0     H64392   1.568   5.392   3.540  0.2859 -0.4676  0.3284
  488MOL0     H64393   1.748   5.389   3.562 -0.1588  0.7042  1.2686
  488MOL0     H64394   1.538   5.233   3.729  0.5011 -3.5307 -0.0003
  488MOL0     H64395   1.711   5.208   3.734  1.5821  1.1191  0.3457
  488MOL0     H64396   1.612   5.395   3.893 -3.6501  2.4171 -0.9423
  488MOL0     H64397   1.579   5.488   3.762 -2.7795 -2.4714  0.3458
  488MOL0     H64398   0.996   5.266   3.224  0.6845 -0.4683 -1.4824
  488MOL0     H64399   0.755   5.350   3.229  0.1091  2.7925  1.5730
  488MOL0     H64400   0.438   5.593   2.987  0.1162 -2.2920  0.0687
  488MOL0     H64401   0.205   5.665   2.982  1.8665  0.6111 -0.6529
  488MOL0     H64402  -0.348   5.391   3.495  0.7262 -1.3918  2.7663
  488MOL0     H64403  -0.112   5.393   3.503  0.2448  1.4475 -2.2646
  488MOL0     H64404   0.274   5.020   3.589  1.5079  0.8335  1.4631
  488MOL0     H64405   0.518   5.010   3.602 -2.2130  0.6562  1.5428
  488MOL0     H64406   0.744   5.032   3.609 -0.8525  1.2660  2.5910
  488MOL0     H64407   0.725   5.207   3.627 -2.0672 -0.9421 -1.2085
  488MOL0     H64408   0.897   5.110   3.410  0.0956 -0.5928 -0.0725
  488MOL0     H64409   0.941   5.242   3.522  1.5833 -0.9763 -0.9656
  488MOL0     H64410   0.966   4.936   3.570  3.8069 -1.8109  2.3511
  488MOL0     H64411   0.997   5.059   3.698 -0.5563  2.2163 -0.4384
  488MOL0     H64412   1.148   5.074   3.433 -0.3711  0.4622 -0.8222
  488MOL0     H64413   1.176   5.143   3.598 -0.8082 -0.8415  0.7449
  488MOL0     H64414   1.342   4.744   3.598  0.9595  1.3776  0.5750
  488MOL0     H64415   0.546   5.283   3.286  0.9047 -0.6761 -0.2051
  488MOL0     H64416   0.291   5.315   3.279  1.0489  1.5774 -0.1361
  489MOL0     O64417   2.360  10.372   9.856 -0.7817 -0.2259  0.8420
  489MOL0     C64418   2.403  10.276   9.793 -0.1948  0.4776 -0.0920
  489MOL0     O64419   2.334  10.170   9.748  0.6126 -0.4875  0.7024
  489MOL0     C64420   2.202  10.154   9.780  0.8300 -0.3740 -0.4679
  489MOL0     C64421   2.090  10.216   9.710 -0.5446  0.2896 -0.6340
  489MOL0     C64422   1.965  10.190   9.745  0.8003 -0.5116 -0.5679
  489MOL0     C64423   1.937  10.106   9.849  0.0952 -0.3328  0.0024
  489MOL0     O64424   1.812  10.093   9.902 -0.0762  0.1425 -0.3603
  489MOL0     C64425   1.705  10.174   9.849  0.9381  0.1344 -0.0415
  489MOL0     C64426   1.569  10.142   9.911 -0.2676  0.4805 -0.5522
  489MOL0     C64427   1.451  10.210   9.848 -0.6906  0.2480 -0.1248
  489MOL0     C64428   1.329  10.166   9.930  0.0706 -0.0733  0.6694
  489MOL0     C64429   1.343  10.194  10.083 -0.5095  0.2987 -0.9922
  489MOL0     C64430   1.372  10.342  10.122  0.3343  0.8446 -0.1512
  489MOL0     C64431   1.278  10.434  10.050  1.0438 -0.7541 -0.0796
  489MOL0     C64432   1.290  10.578  10.096 -0.3297  0.6553 -0.9196
  489MOL0     N64433   1.177  10.662  10.066  0.5865 -0.6027 -0.1317
  489MOL0     C64434   1.050  10.629  10.124  0.3607 -0.4692  0.4756
  489MOL0     C64435   0.956  10.687  10.040 -0.5013 -0.9010  0.4749
  489MOL0     C64436   0.810  10.678  10.066  0.6478  1.5896  1.0601
  489MOL0     C64437   0.771  10.718  10.209  0.1930 -0.8182  0.3841
  489MOL0     C64438   0.628  10.680  10.245 -0.1795 -0.5449  0.0432
  489MOL0     C64439   0.532  10.784  10.192 -0.2797  0.4318  0.7435
  489MOL0     O64440   0.410  10.733  10.224 -0.4329 -0.1723 -1.0168
  489MOL0     C64441   0.291  10.794  10.177  0.4268 -0.0989  0.1804
  489MOL0     C64442   0.175  10.739  10.222 -0.6933  1.2232  0.4892
  489MOL0     C64443   0.053  10.792  10.191  0.2938  0.6396 -0.1701
  489MOL0     C64444   0.045  10.908  10.119  0.4325 -0.1408 -0.0673
  489MOL0     C64445  -0.082  10.977  10.083  0.5083 -0.8592  0.0655
  489MOL0     O64446  -0.073  11.109  10.048  0.8556  0.6357  0.8861
  489MOL0     C64447  -0.193  11.165  10.029  0.2588 -0.2853  0.2652
  489MOL0     C64448  -0.261  11.242  10.123  0.1270 -0.3835 -0.4029
  489MOL0     C64449  -0.395  11.289  10.101 -0.2403 -0.5395  0.8226
  489MOL0     C64450  -0.452  11.268   9.979 -0.3062  0.8366 -0.0002
  489MOL0     O64451  -0.579  11.301   9.954  0.6205  0.5901  0.3960
  489MOL0     C64452  -0.651  11.232   9.842  0.6327  0.1137 -0.1335
  489MOL0     C64453  -0.812  11.246   9.847  0.8969 -0.6065  0.6073
  489MOL0     C64454  -0.865  11.172   9.975 -0.6149 -0.5182 -0.5794
  489MOL0     C64455  -1.008  11.195   9.991  0.1311 -0.7674  0.8737
  489MOL0     C64456  -1.059  11.150  10.130  0.0761 -1.0636 -1.0558
  489MOL0     C64457  -1.124  11.269  10.197  0.6329 -0.8035 -0.5358
  489MOL0     C64458  -1.176  11.240  10.338 -0.5263  0.4689 -0.5007
  489MOL0     C64459  -1.274  11.348  10.386  0.0455 -0.2349  0.1127
  489MOL0    Cl64460  -1.238  11.516  10.334 -0.5523 -0.0452  0.1335
  489MOL0     C64461  -0.378  11.203   9.877 -0.3405  0.1602  0.2359
  489MOL0     C64462  -0.254  11.147   9.903 -0.4859 -0.1987 -0.4117
  489MOL0     O64463  -0.187  10.906  10.087  0.0631 -0.5917 -0.0353
  489MOL0     C64464   0.160  10.960  10.063 -0.6045 -0.4948 -0.4836
  489MOL0     C64465   0.289  10.907  10.090  0.0302 -0.2737  0.2099
  489MOL0     N64466   1.026  10.761   9.946  0.0901  0.2588 -0.6989
  489MOL0     N64467   1.154  10.738   9.961  0.8998 -0.2356  0.7792
  489MOL0     C64468   2.038  10.047   9.919  0.5757 -0.5132  0.1292
  489MOL0     C64469   2.173  10.068   9.889 -0.3269 -0.1225  0.3210
  489MOL0     C64470   2.543  10.273   9.767 -0.0475 -0.9185  0.7681
  489MOL0     C64471   2.624  10.384   9.808 -0.1171  0.3924  0.9958
  489MOL0     C64472   2.762  10.388   9.765 -0.0275 -1.1276 -0.2781
  489MOL0     C64473   2.816  10.284   9.688  0.1719  0.4229 -0.2343
  489MOL0     O64474   2.938  10.267   9.628 -0.2073 -0.4588 -0.2239
  489MOL0     C64475   3.049  10.270   9.715  0.0157  0.3029 -1.1036
  489MOL0     C64476   3.140  10.172   9.639 -0.2504 -0.4754  0.6350
  489MOL0     C64477   3.270  10.144   9.722  0.1669 -0.6768 -0.0098
  489MOL0     C64478   3.348  10.036   9.640  0.4935 -0.1069 -0.3435
  489MOL0     C64479   3.488  10.013   9.672 -0.2236 -0.1212  0.7990
  489MOL0     C64480   3.606  10.003   9.692  0.5617  0.0041 -0.0866
  489MOL0     C64481   2.728  10.184   9.646 -0.6498 -0.4515  0.0081
  489MOL0     C64482   2.595  10.182   9.680  0.6996 -0.4477  0.3461
  489MOL0     H64483   2.107  10.274   9.619  1.1296  1.1143  0.1516
  489MOL0     H64484   1.888  10.240   9.687  0.2533  0.4541  0.9323
  489MOL0     H64485   1.706  10.134   9.747  0.6510 -2.4780  0.9207
  489MOL0     H64486   1.718  10.283   9.849  0.9392  0.1348 -0.1554
  489MOL0     H64487   1.581  10.166  10.017  0.6243 -2.5942  0.1166
  489MOL0     H64488   1.561  10.034   9.897 -3.8013  0.9626 -4.3438
  489MOL0     H64489   1.457  10.181   9.743  3.4838  1.9754 -0.5625
  489MOL0     H64490   1.454  10.319   9.848 -1.1022  0.2737 -1.0233
  489MOL0     H64491   1.240  10.223   9.905  0.7839  0.8237  0.1129
  489MOL0     H64492   1.316  10.058   9.913 -1.0177 -0.1232  1.7250
  489MOL0     H64493   1.421  10.134  10.132 -2.0109  0.2929  1.5551
  489MOL0     H64494   1.245  10.167  10.124 -1.0835 -1.3207 -3.2586
  489MOL0     H64495   1.474  10.363  10.088  0.7183 -2.2387 -1.2109
  489MOL0     H64496   1.362  10.362  10.229 -0.5494 -1.1623  0.1774
  489MOL0     H64497   1.302  10.437   9.943  3.2899  0.2254  0.4096
  489MOL0     H64498   1.178  10.391  10.062  0.8081 -0.9235 -2.2157
  489MOL0     H64499   1.389  10.607  10.059  0.9591 -0.3739  1.5053
  489MOL0     H64500   1.309  10.578  10.204  1.7536 -2.0582 -1.1743
  489MOL0     H64501   1.035  10.568  10.213 -0.9389 -0.7217  0.1099
  489MOL0     H64502   0.783  10.573  10.053  0.3926  1.7096  0.5986
  489MOL0     H64503   0.746  10.741  10.003 -0.0337  1.1262  1.2765
  489MOL0     H64504   0.795  10.820  10.242 -1.4354 -0.8814  1.9478
  489MOL0     H64505   0.830  10.655  10.277 -3.0914 -2.0381  2.3870
  489MOL0     H64506   0.608  10.582  10.202  0.5223  0.4454 -2.6919
  489MOL0     H64507   0.617  10.668  10.354  0.9357 -4.8969 -0.1134
  489MOL0     H64508   0.549  10.790  10.084  2.1873  0.0294  1.0662
  489MOL0     H64509   0.557  10.881  10.236 -1.2420  0.9109  0.2939
  489MOL0     H64510   0.182  10.643  10.273 -1.0434  1.0058  0.1285
  489MOL0     H64511  -0.043  10.753  10.224 -0.6296  2.6365 -0.3345
  489MOL0     H64512  -0.227  11.250  10.226 -1.0647 -0.6872  0.0385
  489MOL0     H64513  -0.438  11.337  10.188  1.1708  2.9563 -0.2373
  489MOL0     H64514  -0.632  11.125   9.848  2.6431  0.3377 -1.7247
  489MOL0     H64515  -0.614  11.259   9.743 -1.2230  0.8816 -0.6732
  489MOL0     H64516  -0.858  11.194   9.763  0.2622  2.4090 -1.0513
  489MOL0     H64517  -0.845  11.351   9.844 -0.3609 -0.7063  4.5791
  489MOL0     H64518  -0.824  11.220  10.065 -2.4220 -0.2011  0.1332
  489MOL0     H64519  -0.848  11.064   9.975 -2.9675 -0.9637  0.8488
  489MOL0     H64520  -1.026  11.302   9.978  1.8572 -0.0080  3.8626
  489MOL0     H64521  -1.069  11.134   9.923  0.6174  0.0087 -0.2846
  489MOL0     H64522  -0.971  11.118  10.187  1.8102 -0.1249 -3.0600
  489MOL0     H64523  -1.127  11.065  10.131 -0.8976 -0.3046 -0.2967
  489MOL0     H64524  -1.215  11.302  10.147  1.4477  0.8701 -1.0172
  489MOL0     H64525  -1.046  11.346  10.197 -0.2346  0.0911 -0.7063
  489MOL0     H64526  -1.224  11.142  10.335  1.0831 -0.3276 -1.3940
  489MOL0     H64527  -1.094  11.230  10.409 -2.6608  0.6662  2.1237
  489MOL0     H64528  -1.268  11.353  10.495 -2.0796  0.9662  0.2418
  489MOL0     H64529  -1.372  11.323  10.344  1.0994 -0.6567 -2.2262
  489MOL0     H64530  -0.413  11.192   9.775 -1.0514  1.4694  0.3128
  489MOL0     H64531  -0.206  11.081   9.832  0.5948 -0.6582  0.7111
  489MOL0     H64532   0.166  11.049  10.001  1.1479 -0.5268 -0.4013
  489MOL0     H64533   0.380  10.947  10.047 -1.4108  1.6929 -1.1888
  489MOL0     H64534   2.015   9.994  10.011 -3.1188  1.0143  0.2468
  489MOL0     H64535   2.265  10.028   9.930 -0.1253 -1.3229 -1.2280
  489MOL0     H64536   2.578  10.468   9.860  1.8076  0.5351  2.5983
  489MOL0     H64537   2.838  10.464   9.783 -1.1840 -0.0139  0.1056
  489MOL0     H64538   3.015  10.232   9.811  0.9847 -0.2673 -0.9736
  489MOL0     H64539   3.083  10.374   9.718 -2.4163  1.1417  1.2305
  489MOL0     H64540   3.088  10.077   9.629 -3.2506  0.8193  2.6509
  489MOL0     H64541   3.167  10.212   9.540  1.8688  0.8732  1.6659
  489MOL0     H64542   3.240  10.110   9.821  2.7492  3.5057  2.5193
  489MOL0     H64543   3.325  10.239   9.730 -0.9786  0.1112 -1.0470
  489MOL0     H64544   3.293   9.944   9.659 -1.3767  1.2742  1.2974
  489MOL0     H64545   3.341  10.055   9.532 -0.7027 -2.2123 -0.6895
  489MOL0     H64546   3.706   9.993   9.731  1.2169  3.3038 -0.6091
  489MOL0     H64547   2.774  10.107   9.585 -0.2681  0.6946 -1.1714
  489MOL0     H64548   2.527  10.105   9.645 -1.2478  0.5284  1.7994
  490MOL0     O64549   0.091   7.164   9.070 -0.4857 -0.2829 -0.0338
  490MOL0     C64550   0.072   7.053   9.115 -0.4257 -0.4410 -0.2776
  490MOL0     O64551  -0.030   7.021   9.194  0.8792 -0.2570  0.0096
  490MOL0     C64552  -0.139   7.100   9.217 -0.3689 -0.3336 -0.3982
  490MOL0     C64553  -0.190   7.102   9.348  0.2570 -0.0280 -0.1286
  490MOL0     C64554  -0.310   7.172   9.368  0.4492 -0.1371 -0.7520
  490MOL0     C64555  -0.375   7.240   9.266 -0.0123 -0.3122 -0.1918
  490MOL0     O64556  -0.495   7.301   9.298  0.5124  0.4174  0.3729
  490MOL0     C64557  -0.590   7.327   9.192  0.5332 -0.8294  0.8198
  490MOL0     C64558  -0.651   7.204   9.115 -0.0023  0.3179  0.0958
  490MOL0     C64559  -0.643   7.214   8.958 -0.2072 -1.0253  0.3086
  490MOL0     C64560  -0.720   7.110   8.888  0.5948 -0.0472  0.5614
  490MOL0     C64561  -0.730   7.136   8.744 -0.6234  0.5024  0.6109
  490MOL0     C64562  -0.799   7.038   8.652 -0.6174 -0.9305 -0.9533
  490MOL0     C64563  -0.722   6.903   8.641 -0.3054 -0.0769 -0.5044
  490MOL0     C64564  -0.773   6.830   8.524 -0.1907  0.3968  0.3169
  490MOL0     N64565  -0.895   6.757   8.541 -0.5162  0.9046 -0.5030
  490MOL0     C64566  -0.910   6.630   8.578 -0.1483 -0.0894  1.3145
  490MOL0     C64567  -1.034   6.595   8.545 -0.7075 -0.0731 -0.0696
  490MOL0     C64568  -1.103   6.460   8.552  0.6089  0.0740 -1.0209
  490MOL0     C64569  -1.245   6.479   8.611  0.8310 -0.0886 -0.1147
  490MOL0     C64570  -1.325   6.354   8.617 -0.2609  0.0536 -0.4104
  490MOL0     C64571  -1.472   6.383   8.646 -1.0074 -0.2434  0.0490
  490MOL0     O64572  -1.531   6.252   8.624  0.3548 -0.0358  0.4618
  490MOL0     C64573  -1.665   6.245   8.643 -0.2796 -0.0005  0.3541
  490MOL0     C64574  -1.753   6.342   8.686  0.1687  0.2510 -0.0900
  490MOL0     C64575  -1.895   6.317   8.682  0.7656  0.7353  0.6909
  490MOL0     C64576  -1.942   6.200   8.620  0.1901  0.3642  0.9589
  490MOL0     C64577  -2.090   6.189   8.615 -0.2781 -0.1783  0.0233
  490MOL0     O64578  -2.162   6.293   8.668  0.0086  0.2620 -0.3069
  490MOL0     C64579  -2.295   6.284   8.679 -0.5926 -0.7829  0.4366
  490MOL0     C64580  -2.352   6.300   8.809 -0.9560  0.5631  0.2867
  490MOL0     C64581  -2.491   6.313   8.835  0.4106  0.4480  0.0005
  490MOL0     C64582  -2.583   6.281   8.736 -0.2635 -0.1202  0.1021
  490MOL0     O64583  -2.720   6.265   8.748  0.1968 -0.2991 -0.2324
  490MOL0     C64584  -2.769   6.217   8.880  0.7773 -0.1405  0.0127
  490MOL0     C64585  -2.914   6.177   8.851  0.1463  0.3338  0.4842
  490MOL0     C64586  -2.992   6.114   8.971 -0.1388 -0.2720  0.0808
  490MOL0     C64587  -2.940   5.986   9.042 -0.8000  0.5696 -1.2803
  490MOL0     C64588  -2.995   5.969   9.179 -0.6102  0.0829  0.1153
  490MOL0     C64589  -3.145   5.948   9.181  0.0429  1.2146  0.5952
  490MOL0     C64590  -3.190   5.872   9.304 -0.2818 -0.5558  0.4319
  490MOL0     C64591  -3.339   5.869   9.302  0.2905  0.2989  0.5137
  490MOL0    Cl64592  -3.404   6.038   9.310  0.6636  0.3116 -0.3561
  490MOL0     C64593  -2.527   6.277   8.604  0.2699  0.3608  0.7963
  490MOL0     C64594  -2.386   6.275   8.569 -0.6687 -0.5243  0.5437
  490MOL0     O64595  -2.138   6.091   8.562  0.5153  1.0342  0.1351
  490MOL0     C64596  -1.848   6.103   8.574 -0.3034  0.1979 -0.6310
  490MOL0     C64597  -1.714   6.131   8.589  0.5732  0.7189  1.1271
  490MOL0     N64598  -1.095   6.707   8.488  0.7403  0.0062  0.5161
  490MOL0     N64599  -1.007   6.804   8.492  0.6554 -1.1207  0.5989
  490MOL0     C64600  -0.320   7.246   9.139 -0.1035 -0.3692 -0.6366
  490MOL0     C64601  -0.198   7.175   9.117  0.2748  0.0227 -0.0465
  490MOL0     C64602   0.158   6.944   9.080 -0.1831  0.5955  0.2450
  490MOL0     C64603   0.123   6.814   9.097 -0.7240  0.1623  0.3741
  490MOL0     C64604   0.218   6.719   9.081 -0.3086  0.0125 -0.1994
  490MOL0     C64605   0.350   6.745   9.031  0.2268  1.1314 -0.2764
  490MOL0     O64606   0.430   6.632   9.015 -0.4672  0.0288  0.6932
  490MOL0     C64607   0.572   6.647   8.991  0.0327 -0.3750  0.0956
  490MOL0     C64608   0.655   6.717   9.104  0.4201  0.4677 -0.1066
  490MOL0     C64609   0.675   6.638   9.235 -0.1146 -0.4078 -0.1195
  490MOL0     C64610   0.780   6.676   9.337 -0.0687  0.7662  0.1823
  490MOL0     C64611   0.913   6.639   9.293  0.1897  0.2608 -0.1524
  490MOL0     C64612   1.017   6.613   9.236  0.2790 -1.1238 -0.3302
  490MOL0     C64613   0.380   6.872   8.998  0.0941  0.2437  0.5318
  490MOL0     C64614   0.286   6.975   9.029  0.1407  0.5066  0.1182
  490MOL0     H64615  -0.148   7.034   9.421  1.8993  0.5332 -0.5053
  490MOL0     H64616  -0.369   7.155   9.458  0.5220 -2.8210 -1.1282
  490MOL0     H64617  -0.554   7.388   9.109  0.4557 -2.7689 -0.7093
  490MOL0     H64618  -0.675   7.384   9.232 -0.8104 -2.4759  0.4255
  490MOL0     H64619  -0.756   7.189   9.144  0.7015  0.0542  2.7385
  490MOL0     H64620  -0.592   7.119   9.148 -1.2107 -0.7851 -0.4755
  490MOL0     H64621  -0.538   7.218   8.925 -0.3712  4.0659 -0.3581
  490MOL0     H64622  -0.682   7.312   8.930 -1.9288 -1.2548  1.7424
  490MOL0     H64623  -0.676   7.012   8.909  2.0541 -0.0864 -2.2599
  490MOL0     H64624  -0.820   7.110   8.932  1.6894  2.1622  3.4127
  490MOL0     H64625  -0.629   7.143   8.703 -2.4366 -0.5924 -4.8279
  490MOL0     H64626  -0.770   7.237   8.730 -2.1656  0.0973  1.8282
  490MOL0     H64627  -0.803   7.089   8.555  0.6850  0.1145 -0.4860
  490MOL0     H64628  -0.905   7.026   8.679 -0.6608 -2.3041 -1.6037
  490MOL0     H64629  -0.615   6.926   8.638 -0.2854  1.6163  4.4038
  490MOL0     H64630  -0.733   6.843   8.732  3.4950  4.0460  3.1694
  490MOL0     H64631  -0.688   6.768   8.495  0.3335  1.9722 -1.7339
  490MOL0     H64632  -0.769   6.905   8.444  2.8025  1.8133  1.6425
  490MOL0     H64633  -0.840   6.559   8.622  1.7953  2.1122  1.9892
  490MOL0     H64634  -1.050   6.395   8.623 -0.6631 -1.5836 -1.5167
  490MOL0     H64635  -1.099   6.418   8.451 -3.4157 -1.6594 -0.6617
  490MOL0     H64636  -1.298   6.545   8.542  0.2083 -1.1405 -0.6670
  490MOL0     H64637  -1.246   6.520   8.712 -1.9790 -3.0737  1.2314
  490MOL0     H64638  -1.305   6.305   8.522  2.1399  1.9764 -1.0181
  490MOL0     H64639  -1.277   6.297   8.697  1.4776  0.3680 -1.1729
  490MOL0     H64640  -1.521   6.458   8.583  2.3783  2.3020  0.1819
  490MOL0     H64641  -1.469   6.417   8.750 -1.7613 -1.0112  0.3383
  490MOL0     H64642  -1.713   6.436   8.721  1.8542  0.0596 -1.4009
  490MOL0     H64643  -1.954   6.402   8.714  1.5806  1.4385  0.3980
  490MOL0     H64644  -2.293   6.318   8.898 -0.7033 -0.1686  0.2754
  490MOL0     H64645  -2.525   6.334   8.936  0.2003  2.0821 -0.3844
  490MOL0     H64646  -2.753   6.292   8.958  0.3984 -1.2151  1.1546
  490MOL0     H64647  -2.713   6.130   8.913 -1.1564 -1.1042  0.9473
  490MOL0     H64648  -2.930   6.108   8.767  0.1966  0.7992  0.0902
  490MOL0     H64649  -2.962   6.268   8.814 -0.7925 -0.5137 -0.4830
  490MOL0     H64650  -3.095   6.086   8.948 -0.8901  0.2095  2.5355
  490MOL0     H64651  -2.996   6.198   9.042 -1.6176  2.8675 -3.3461
  490MOL0     H64652  -2.958   5.891   8.991  1.9543  0.7016 -2.7241
  490MOL0     H64653  -2.831   5.976   9.047 -1.0303 -2.3802  0.2605
  490MOL0     H64654  -2.976   6.067   9.224  0.0172 -0.1379  0.3422
  490MOL0     H64655  -2.937   5.893   9.232 -1.0076  0.6315  1.3770
  490MOL0     H64656  -3.182   5.887   9.098 -2.1674  1.6162  1.2012
  490MOL0     H64657  -3.202   6.041   9.182 -3.3110 -0.6576  1.2852
  490MOL0     H64658  -3.145   5.772   9.309  2.2547  0.5362  1.4446
  490MOL0     H64659  -3.155   5.921   9.395 -1.6464 -1.4229  1.4554
  490MOL0     H64660  -3.376   5.802   9.381  0.7567 -1.8317 -0.9896
  490MOL0     H64661  -3.375   5.833   9.206 -0.4421 -0.7074  1.1441
  490MOL0     H64662  -2.600   6.250   8.528  0.9777 -2.9527  1.1669
  490MOL0     H64663  -2.354   6.254   8.467  0.2773  1.5184  0.3724
  490MOL0     H64664  -1.893   6.019   8.523 -0.1921 -0.2679  0.0246
  490MOL0     H64665  -1.648   6.054   8.553 -1.4407 -0.9549  0.8101
  490MOL0     H64666  -0.369   7.305   9.062 -0.2983  1.7839  1.0335
  490MOL0     H64667  -0.165   7.186   9.014  1.3059  1.7044  0.4101
  490MOL0     H64668   0.027   6.786   9.138  0.5611 -5.4240  0.2821
  490MOL0     H64669   0.184   6.618   9.102 -3.7157  1.6020  3.1999
  490MOL0     H64670   0.584   6.702   8.898  1.4501 -2.0970 -0.8026
  490MOL0     H64671   0.608   6.545   8.972 -1.2078 -0.3621 -2.8643
  490MOL0     H64672   0.751   6.720   9.051  0.3545  0.9699 -0.1996
  490MOL0     H64673   0.617   6.818   9.121 -2.0014 -0.4215  0.2048
  490MOL0     H64674   0.703   6.534   9.216  1.0312 -0.7291  2.7194
  490MOL0     H64675   0.575   6.637   9.279 -0.4150 -1.2344 -0.7924
  490MOL0     H64676   0.777   6.784   9.357  0.5332  0.3992  2.4461
  490MOL0     H64677   0.756   6.631   9.433  1.2494 -1.1581 -0.3456
  490MOL0     H64678   1.108   6.608   9.180  0.4468  1.1411 -0.3487
  490MOL0     H64679   0.481   6.895   8.966  0.1854 -1.3365 -0.4017
  490MOL0     H64680   0.300   7.079   9.003 -1.1355  0.6898  0.1044
  491MOL0     O64681   0.616   1.525  10.290 -0.3360  0.1073 -0.7735
  491MOL0     C64682   0.659   1.434  10.219  0.4174 -1.0804  0.4768
  491MOL0     O64683   0.588   1.334  10.169  0.0229 -0.1987  0.1984
  491MOL0     C64684   0.458   1.309  10.201 -0.2033 -0.1284  0.1761
  491MOL0     C64685   0.442   1.174  10.243  0.0224  0.5014 -0.4928
  491MOL0     C64686   0.312   1.124  10.275 -0.3452 -0.9045 -0.5730
  491MOL0     C64687   0.210   1.208  10.261 -0.1572 -0.3283  0.0912
  491MOL0     O64688   0.078   1.158  10.286 -0.2334  0.2009 -0.1259
  491MOL0     C64689  -0.041   1.213  10.245  0.5734 -0.4783  0.3029
  491MOL0     C64690  -0.158   1.112  10.274  0.3808  0.3120  0.5034
  491MOL0     C64691  -0.290   1.166  10.226 -0.1706  1.0541 -0.5041
  491MOL0     C64692  -0.398   1.059  10.250 -0.2078 -1.0692  0.3471
  491MOL0     C64693  -0.535   1.117  10.215  0.2673 -0.0466 -0.2290
  491MOL0     C64694  -0.653   1.034  10.265 -0.6167  0.4108  0.1295
  491MOL0     C64695  -0.778   1.097  10.195 -0.5088 -0.2043 -0.5927
  491MOL0     C64696  -0.907   1.014  10.230  0.1164 -0.2633  0.0533
  491MOL0     N64697  -1.024   1.060  10.154 -0.4782 -0.0569  0.3040
  491MOL0     C64698  -1.047   1.041  10.022 -0.3723 -0.2516 -0.2731
  491MOL0     C64699  -1.178   1.084  10.005  0.1959 -0.1664  0.7259
  491MOL0     C64700  -1.255   1.075   9.877  0.8048 -0.2530 -0.0008
  491MOL0     C64701  -1.247   1.206   9.810 -0.4986 -0.7177  0.1101
  491MOL0     C64702  -1.347   1.321   9.852  0.3330  0.1085 -0.7380
  491MOL0     C64703  -1.490   1.285   9.806 -0.0195 -0.3330  0.0806
  491MOL0     O64704  -1.587   1.382   9.843 -0.2016  0.4541 -0.3384
  491MOL0     C64705  -1.713   1.377   9.800 -0.2972  0.7725 -0.4505
  491MOL0     C64706  -1.790   1.484   9.825  0.2814 -0.0348 -0.3444
  491MOL0     C64707  -1.919   1.498   9.781  0.1669  0.6179 -0.4476
  491MOL0     C64708  -1.976   1.388   9.696 -0.0593 -0.8561 -0.2251
  491MOL0     C64709  -2.112   1.385   9.638 -0.6672  0.2399  0.3667
  491MOL0     O64710  -2.176   1.504   9.650  0.2795 -0.2307 -0.0430
  491MOL0     C64711  -2.311   1.508   9.603  0.0831 -0.4494  0.5743
  491MOL0     C64712  -2.411   1.496   9.695 -0.5609  0.3010  0.2109
  491MOL0     C64713  -2.542   1.492   9.649 -0.2089  0.6030 -0.9411
  491MOL0     C64714  -2.582   1.489   9.512  0.2286  0.1934  0.5432
  491MOL0     O64715  -2.712   1.476   9.469  1.0893 -0.0066  0.1263
  491MOL0     C64716  -2.743   1.363   9.387  0.1669 -0.0947  0.0752
  491MOL0     C64717  -2.814   1.393   9.252  0.5052  0.8875  0.1781
  491MOL0     C64718  -2.928   1.492   9.260  0.2671  0.0548  0.5460
  491MOL0     C64719  -3.031   1.467   9.162  0.3244 -0.1409 -0.1744
  491MOL0     C64720  -3.150   1.564   9.169  0.6469  0.4666  0.0235
  491MOL0     C64721  -3.194   1.574   9.307  0.2296  0.5944  0.3783
  491MOL0     C64722  -3.345   1.610   9.332  0.5203  1.2192  0.4607
  491MOL0     C64723  -3.392   1.714   9.229  0.1820  0.2572 -0.5760
  491MOL0    Cl64724  -3.537   1.799   9.292 -0.5234 -0.3866 -0.4150
  491MOL0     C64725  -2.479   1.502   9.419 -0.0973 -0.2083 -0.0985
  491MOL0     C64726  -2.345   1.506   9.459  0.4009 -0.2917  0.4750
  491MOL0     O64727  -2.161   1.276   9.604  0.1423 -0.2068  0.4911
  491MOL0     C64728  -1.887   1.284   9.657 -0.2598 -0.4765  0.3744
  491MOL0     C64729  -1.764   1.272   9.716 -0.6160 -0.7261 -0.9535
  491MOL0     N64730  -1.231   1.117  10.126 -0.2632 -0.9602  0.0746
  491MOL0     N64731  -1.134   1.108  10.212  0.0313  1.0557 -0.2081
  491MOL0     C64732   0.220   1.341  10.213 -0.4577  0.1073 -0.4039
  491MOL0     C64733   0.343   1.394  10.178 -0.5889  0.3789  0.0992
  491MOL0     C64734   0.807   1.439  10.203  0.1410 -0.5785 -0.1639
  491MOL0     C64735   0.871   1.335  10.132  0.5009 -0.2785 -0.8296
  491MOL0     C64736   1.010   1.322  10.117 -0.8726 -0.2522  0.5554
  491MOL0     C64737   1.094   1.417  10.181 -0.3216 -0.1261  0.6039
  491MOL0     O64738   1.234   1.414  10.166  1.0087 -0.1250  0.2216
  491MOL0     C64739   1.321   1.521  10.192 -0.0201 -0.6589 -0.4865
  491MOL0     C64740   1.473   1.495  10.163  0.2642 -0.9420  0.4029
  491MOL0     C64741   1.568   1.607  10.218  0.0435 -0.3852  0.3001
  491MOL0     C64742   1.715   1.565  10.198 -0.1369 -0.4239  0.9253
  491MOL0     C64743   1.755   1.585  10.059  0.4178 -0.0141  0.2262
  491MOL0     C64744   1.797   1.622   9.951  0.3094  0.0270 -0.2886
  491MOL0     C64745   1.032   1.513  10.263 -0.0683 -0.3671  0.0903
  491MOL0     C64746   0.891   1.527  10.270  0.0276 -0.2101 -0.0976
  491MOL0     H64747   0.532   1.113  10.245  0.3745  1.0367  0.8118
  491MOL0     H64748   0.287   1.021  10.302  0.5050 -1.2852 -1.2052
  491MOL0     H64749  -0.029   1.214  10.136  0.4174 -1.3985  0.2665
  491MOL0     H64750  -0.068   1.309  10.290 -1.6055 -1.0926  0.4590
  491MOL0     H64751  -0.171   1.101  10.382  0.0165 -1.4160  0.3068
  491MOL0     H64752  -0.131   1.013  10.235  0.2139  0.2172  0.6250
  491MOL0     H64753  -0.291   1.188  10.119 -1.3045 -0.3810 -0.8108
  491MOL0     H64754  -0.300   1.253  10.292 -1.9440 -1.4129  2.7987
  491MOL0     H64755  -0.374   0.965  10.200  4.4106 -0.6996  1.4616
  491MOL0     H64756  -0.392   1.026  10.355 -0.4552 -0.1662  0.6524
  491MOL0     H64757  -0.541   1.125  10.106 -0.1823 -1.1399 -0.2993
  491MOL0     H64758  -0.536   1.213  10.267  0.2486 -0.3373  0.3049
  491MOL0     H64759  -0.669   1.044  10.373 -0.2978 -1.1634  0.3512
  491MOL0     H64760  -0.638   0.928  10.243  2.4188  0.1181  2.8349
  491MOL0     H64761  -0.784   1.202  10.226  0.1210 -0.4780  0.5028
  491MOL0     H64762  -0.778   1.084  10.086  1.5728  1.2750 -0.8178
  491MOL0     H64763  -0.922   1.034  10.336  0.0928 -0.8340  0.1610
  491MOL0     H64764  -0.895   0.906  10.214 -0.6146 -0.3194 -0.1589
  491MOL0     H64765  -0.977   1.026   9.940  0.3906  2.7269 -0.2734
  491MOL0     H64766  -1.358   1.045   9.897  0.0215  2.4582  0.4355
  491MOL0     H64767  -1.222   0.992   9.813 -0.9786 -1.1488  0.1660
  491MOL0     H64768  -1.267   1.190   9.704 -1.8666  0.5878  0.1328
  491MOL0     H64769  -1.150   1.253   9.828 -1.8638  2.6900 -0.5387
  491MOL0     H64770  -1.351   1.333   9.960 -1.9601 -0.9287 -0.6438
  491MOL0     H64771  -1.314   1.408   9.795  1.1113  1.1738  1.2465
  491MOL0     H64772  -1.523   1.196   9.860 -2.4211  0.4037 -0.0511
  491MOL0     H64773  -1.489   1.269   9.697 -4.7304 -0.0104 -0.2256
  491MOL0     H64774  -1.753   1.572   9.877 -2.3736  1.3307 -0.5774
  491MOL0     H64775  -1.985   1.573   9.824  0.6579 -0.1240  1.6819
  491MOL0     H64776  -2.389   1.481   9.800  0.0322  2.4263  0.4450
  491MOL0     H64777  -2.616   1.482   9.728 -1.1972  2.1841 -1.6139
  491MOL0     H64778  -2.806   1.288   9.436 -1.4368  0.0771 -1.6294
  491MOL0     H64779  -2.653   1.312   9.351  1.2971  0.2229  2.2591
  491MOL0     H64780  -2.846   1.290   9.230 -0.7784  0.9186  1.7323
  491MOL0     H64781  -2.738   1.424   9.180  0.9907 -0.5634  0.0332
  491MOL0     H64782  -2.887   1.591   9.237 -1.3939  0.5752 -0.3335
  491MOL0     H64783  -2.973   1.490   9.360 -0.0198 -0.5344  0.4106
  491MOL0     H64784  -2.999   1.455   9.058 -3.3527  3.3841 -2.0205
  491MOL0     H64785  -3.070   1.368   9.183  1.3383 -0.5827 -0.3057
  491MOL0     H64786  -3.232   1.526   9.108 -1.1042  1.6813  1.5159
  491MOL0     H64787  -3.126   1.661   9.125 -0.7016 -0.3228 -2.6970
  491MOL0     H64788  -3.125   1.647   9.350  0.9901  1.8805 -2.7647
  491MOL0     H64789  -3.188   1.473   9.348 -1.4169 -0.4193 -1.7126
  491MOL0     H64790  -3.403   1.518   9.332  1.7643  0.4124 -0.3440
  491MOL0     H64791  -3.350   1.640   9.437  0.0086 -2.1685  1.5077
  491MOL0     H64792  -3.399   1.678   9.126  0.0091 -1.8430  0.1305
  491MOL0     H64793  -3.318   1.794   9.217  0.8691 -0.0898  1.1287
  491MOL0     H64794  -2.498   1.500   9.312  1.6998 -0.2989 -0.4498
  491MOL0     H64795  -2.266   1.507   9.385 -0.0520  1.0708 -0.0281
  491MOL0     H64796  -1.918   1.211   9.583 -2.3603  0.0298  0.6835
  491MOL0     H64797  -1.691   1.195   9.691 -1.0612 -1.0965 -1.1241
  491MOL0     H64798   0.136   1.411  10.212  1.2982  2.3485 -2.4237
  491MOL0     H64799   0.355   1.498  10.150  1.4621 -0.1292 -1.1058
  491MOL0     H64800   0.797   1.270  10.087 -1.3109  1.4153 -0.4474
  491MOL0     H64801   1.038   1.251  10.040 -0.5190  0.3547  0.1196
  491MOL0     H64802   1.307   1.535  10.300 -1.1457  1.3158 -0.8321
  491MOL0     H64803   1.283   1.611  10.142  1.5676 -0.3819 -1.2331
  491MOL0     H64804   1.501   1.404  10.216  5.6391  0.0780 -0.1241
  491MOL0     H64805   1.479   1.478  10.056 -0.0434  1.6390 -0.0911
  491MOL0     H64806   1.550   1.618  10.326 -1.0200 -0.4104  0.1396
  491MOL0     H64807   1.561   1.701  10.164  0.6204 -0.0048  0.8785
  491MOL0     H64808   1.775   1.634  10.259  1.1263  0.4380 -1.1672
  491MOL0     H64809   1.740   1.464  10.230  0.4571 -1.1302 -1.5810
  491MOL0     H64810   1.837   1.671   9.865  1.5422  1.5732  1.0786
  491MOL0     H64811   1.090   1.580  10.326 -0.9436  1.8137 -1.2923
  491MOL0     H64812   0.861   1.623  10.310  0.4326 -0.7708  1.6459
  492MOL0     O64813   1.233   3.313   2.971  0.1274  0.2133  0.6122
  492MOL0     C64814   1.307   3.396   2.914 -0.3878  0.7194 -0.8154
  492MOL0     O64815   1.263   3.510   2.850 -0.6126 -0.2938  0.6569
  492MOL0     C64816   1.128   3.549   2.861  0.0344  0.1396  0.2815
  492MOL0     C64817   1.069   3.607   2.752  1.3828 -1.0820 -0.2072
  492MOL0     C64818   0.934   3.655   2.766  0.6242  0.2537  0.5115
  492MOL0     C64819   0.871   3.661   2.889 -0.0898 -0.8218 -0.2399
  492MOL0     O64820   0.752   3.727   2.911  0.9402 -0.4101 -0.2738
  492MOL0     C64821   0.662   3.749   2.802 -0.5866  0.1056  0.4356
  492MOL0     C64822   0.526   3.797   2.862 -0.9573 -0.0170 -0.3023
  492MOL0     C64823   0.422   3.791   2.753  0.2320  0.6370  0.4751
  492MOL0     C64824   0.280   3.770   2.805 -0.4519  0.2519 -0.0362
  492MOL0     C64825   0.236   3.903   2.879 -0.0464 -0.4757  0.4312
  492MOL0     C64826   0.103   3.887   2.947 -0.2769  0.3416 -0.2177
  492MOL0     C64827   0.049   4.019   3.016 -0.5214  0.3366  0.5852
  492MOL0     C64828  -0.089   3.986   3.091 -0.7618 -0.0338  0.0643
  492MOL0     N64829  -0.205   3.973   3.015  0.5288  0.0659  0.2805
  492MOL0     C64830  -0.286   4.079   2.970  0.2862 -0.4987  0.6672
  492MOL0     C64831  -0.402   4.019   2.935  0.8670 -0.7176  0.1816
  492MOL0     C64832  -0.527   4.086   2.885 -0.4844 -0.8921  0.4346
  492MOL0     C64833  -0.511   4.155   2.747 -0.0729  0.1318 -0.3641
  492MOL0     C64834  -0.631   4.249   2.712 -0.5821  0.2446 -0.4840
  492MOL0     C64835  -0.759   4.167   2.695 -0.7078  0.3161  0.0250
  492MOL0     O64836  -0.871   4.247   2.671  0.2622 -0.4207  0.0225
  492MOL0     C64837  -0.990   4.193   2.704 -0.4505  0.3119  0.3119
  492MOL0     C64838  -1.080   4.272   2.768  0.2061 -0.0823 -0.9797
  492MOL0     C64839  -1.209   4.238   2.795 -0.0796 -0.2081 -0.1633
  492MOL0     C64840  -1.254   4.111   2.757  0.0963 -0.3440  0.1515
  492MOL0     C64841  -1.388   4.069   2.787 -0.8240  0.4961  0.4382
  492MOL0     O64842  -1.453   4.017   2.682 -1.0197  0.4081 -0.8180
  492MOL0     C64843  -1.591   4.026   2.682  0.9028 -2.0950  0.1930
  492MOL0     C64844  -1.673   4.140   2.728 -0.2297  1.0216  0.4345
  492MOL0     C64845  -1.816   4.132   2.713 -0.4625  0.3440 -0.5020
  492MOL0     C64846  -1.876   4.019   2.667  0.1438 -0.5302 -0.4533
  492MOL0     O64847  -2.015   4.018   2.676 -0.5052  0.0790  0.3229
  492MOL0     C64848  -2.072   3.891   2.692  0.3933 -0.2358 -0.4883
  492MOL0     C64849  -2.208   3.909   2.750  0.5403 -0.1140  0.3173
  492MOL0     C64850  -2.315   3.911   2.636 -1.1557  0.3558  1.2590
  492MOL0     C64851  -2.454   3.939   2.681 -0.1217  0.2934 -0.6924
  492MOL0     C64852  -2.555   3.976   2.574  0.3492 -0.5265 -0.4548
  492MOL0     C64853  -2.683   4.039   2.630  0.3606  0.0326 -0.0526
  492MOL0     C64854  -2.781   3.939   2.693  0.7166 -0.3004 -0.1656
  492MOL0     C64855  -2.913   4.009   2.742 -0.0562  0.1643  1.1157
  492MOL0    Cl64856  -3.041   3.896   2.791  0.1416 -0.1144  0.0369
  492MOL0     C64857  -1.800   3.922   2.605 -0.6450 -0.0559 -0.0168
  492MOL0     C64858  -1.661   3.926   2.618 -0.7029  0.1668  0.3926
  492MOL0     O64859  -1.434   4.089   2.897  0.0515  0.5385  0.1723
  492MOL0     C64860  -1.166   4.032   2.680 -0.0972  0.7076 -0.8855
  492MOL0     C64861  -1.034   4.074   2.661  0.3262  0.0802  0.0583
  492MOL0     N64862  -0.388   3.884   2.946 -0.2758  0.1684  0.3811
  492MOL0     N64863  -0.274   3.851   3.004 -0.3239  0.3290  0.5408
  492MOL0     C64864   0.929   3.617   2.998 -0.0547 -0.2091  0.2712
  492MOL0     C64865   1.049   3.550   2.985 -0.3675 -0.1068  0.1842
  492MOL0     C64866   1.448   3.373   2.908 -0.4635 -0.0139 -0.2747
  492MOL0     C64867   1.543   3.472   2.857  0.2585 -0.4847  0.4238
  492MOL0     C64868   1.679   3.447   2.861 -0.7558 -0.3236  0.4889
  492MOL0     C64869   1.727   3.327   2.920  0.1455  0.5790 -1.0113
  492MOL0     O64870   1.858   3.288   2.929 -0.3116  0.1023  1.0986
  492MOL0     C64871   1.944   3.317   2.815  0.6145 -0.3392  0.3379
  492MOL0     C64872   2.074   3.224   2.807  0.5188  1.0024 -0.2792
  492MOL0     C64873   2.173   3.258   2.698  0.0642 -0.3883  0.5495
  492MOL0     C64874   2.114   3.260   2.554  0.6235 -0.6583  0.2730
  492MOL0     C64875   2.090   3.127   2.493 -0.3418 -0.6152  0.0655
  492MOL0     C64876   2.063   3.021   2.450 -0.6041  0.5189 -0.2271
  492MOL0     C64877   1.633   3.239   2.980 -0.1335  0.2563 -0.9167
  492MOL0     C64878   1.497   3.262   2.967 -0.5503  0.7633  0.9566
  492MOL0     H64879   1.108   3.625   2.652  2.6785 -1.8536  0.1292
  492MOL0     H64880   0.887   3.707   2.683  0.2173  1.3314  1.3850
  492MOL0     H64881   0.653   3.648   2.762  0.7717 -0.2095  0.9019
  492MOL0     H64882   0.701   3.824   2.733 -0.8402  1.5362  1.7777
  492MOL0     H64883   0.545   3.901   2.893  1.7956 -0.0301 -1.5960
  492MOL0     H64884   0.497   3.728   2.941  2.3395 -1.2262  0.0273
  492MOL0     H64885   0.433   3.708   2.683 -0.5318  0.7326  0.2382
  492MOL0     H64886   0.420   3.883   2.693  1.6075 -0.9969 -2.2809
  492MOL0     H64887   0.210   3.753   2.722  1.5268 -0.2233 -1.7117
  492MOL0     H64888   0.276   3.687   2.876 -1.4996  1.1613  1.0105
  492MOL0     H64889   0.231   3.981   2.804 -1.4081 -2.1619 -1.3364
  492MOL0     H64890   0.315   3.929   2.951  0.7423  0.0180 -0.5916
  492MOL0     H64891   0.110   3.819   3.032  0.6760  3.1137  2.1215
  492MOL0     H64892   0.024   3.856   2.878  0.2936 -0.8933 -0.3414
  492MOL0     H64893   0.123   4.049   3.091  1.2875 -3.4950  0.5920
  492MOL0     H64894   0.039   4.107   2.953 -3.0304 -0.4921 -0.2991
  492MOL0     H64895  -0.104   4.072   3.157  1.6294  0.7695 -0.3355
  492MOL0     H64896  -0.081   3.900   3.158 -2.5606 -0.7537 -0.5919
  492MOL0     H64897  -0.264   4.185   2.972  0.1679 -0.4619  0.0711
  492MOL0     H64898  -0.569   4.154   2.960  0.0301 -0.6236  0.4864
  492MOL0     H64899  -0.592   3.999   2.878 -0.6406 -0.8808  1.6246
  492MOL0     H64900  -0.496   4.084   2.665 -0.0853  0.8250 -0.9817
  492MOL0     H64901  -0.424   4.221   2.741 -0.8781  1.1887 -0.7041
  492MOL0     H64902  -0.634   4.336   2.779  1.5118 -0.1205  0.1451
  492MOL0     H64903  -0.599   4.293   2.617 -0.0423  0.9023 -0.0072
  492MOL0     H64904  -0.778   4.111   2.787  1.0928 -0.3554  0.0381
  492MOL0     H64905  -0.751   4.102   2.607 -0.8987 -0.6476  0.7003
  492MOL0     H64906  -1.044   4.372   2.788  0.6524 -0.4469  0.0879
  492MOL0     H64907  -1.276   4.311   2.839  0.9755  3.1451 -3.5740
  492MOL0     H64908  -1.625   4.230   2.765  4.2363 -1.0568  0.3588
  492MOL0     H64909  -1.869   4.208   2.770 -3.2825 -1.6982 -0.1930
  492MOL0     H64910  -2.025   3.831   2.770  0.7602 -0.4212 -0.8556
  492MOL0     H64911  -2.069   3.831   2.601 -1.1470 -1.0918 -0.0204
  492MOL0     H64912  -2.222   4.008   2.794  1.9121  0.7684 -1.1278
  492MOL0     H64913  -2.237   3.833   2.824 -1.2008  0.0612 -0.1438
  492MOL0     H64914  -2.311   3.820   2.576  1.5012  1.3092 -0.1967
  492MOL0     H64915  -2.284   3.991   2.568 -0.9569 -2.8230 -2.8202
  492MOL0     H64916  -2.496   3.857   2.739  1.4734  0.9617  1.5650
  492MOL0     H64917  -2.458   4.020   2.755 -2.0596 -0.7906  0.4392
  492MOL0     H64918  -2.574   3.889   2.511  0.0372 -0.2709 -0.7172
  492MOL0     H64919  -2.514   4.047   2.502  0.8015  1.8374  1.9527
  492MOL0     H64920  -2.739   4.092   2.553 -2.3090 -1.3613  0.7976
  492MOL0     H64921  -2.659   4.107   2.712 -0.0015 -0.5222  0.5193
  492MOL0     H64922  -2.805   3.858   2.623 -1.8508  1.5798 -1.6498
  492MOL0     H64923  -2.727   3.900   2.779  0.7188 -3.6775 -1.5381
  492MOL0     H64924  -2.945   4.068   2.655 -1.7466 -1.1485  0.7895
  492MOL0     H64925  -2.893   4.082   2.821  0.2435 -2.8990  4.0878
  492MOL0     H64926  -1.845   3.840   2.550  1.5315 -1.1660 -0.2445
  492MOL0     H64927  -1.608   3.849   2.562 -1.5343 -0.9570  1.1201
  492MOL0     H64928  -1.188   3.927   2.660  2.6506 -0.5528  1.7131
  492MOL0     H64929  -0.960   4.011   2.612 -0.2650 -2.8348  2.5987
  492MOL0     H64930   0.891   3.638   3.098  3.0288 -1.7899  1.9038
  492MOL0     H64931   1.096   3.505   3.072  0.7756 -1.0487 -0.8836
  492MOL0     H64932   1.521   3.574   2.825 -0.5793 -0.3278  1.4799
  492MOL0     H64933   1.742   3.527   2.826 -0.0033 -1.2591 -0.3567
  492MOL0     H64934   1.972   3.420   2.836 -2.6642  0.4699  1.2528
  492MOL0     H64935   1.894   3.305   2.718  1.6398  2.2098 -0.5754
  492MOL0     H64936   2.125   3.214   2.904 -1.8771  1.0601  1.0524
  492MOL0     H64937   2.033   3.123   2.799 -0.4817  1.0138  3.0980
  492MOL0     H64938   2.257   3.188   2.700  0.2225 -0.2995 -1.1806
  492MOL0     H64939   2.207   3.362   2.705 -1.5689  0.1583  0.7939
  492MOL0     H64940   2.019   3.313   2.551  1.0092  0.1317  1.1827
  492MOL0     H64941   2.181   3.310   2.484 -0.4303 -0.4988 -0.6312
  492MOL0     H64942   2.040   2.918   2.429  0.6017  0.5455 -1.9420
  492MOL0     H64943   1.673   3.150   3.026  0.3255 -0.8329 -3.2477
  492MOL0     H64944   1.431   3.184   3.003  0.6548 -0.6339  0.2334
  493MOL0     O64945   3.609   4.936   7.411 -0.2237  0.4575  0.6245
  493MOL0     C64946   3.560   4.988   7.513 -0.2742  0.3645  0.2928
  493MOL0     O64947   3.617   4.993   7.633  0.8709 -0.0249 -0.3016
  493MOL0     C64948   3.730   4.928   7.656 -0.2015  0.1966  0.0235
  493MOL0     C64949   3.823   4.994   7.729 -0.9535 -0.0262 -0.8465
  493MOL0     C64950   3.933   4.935   7.787 -0.9102 -0.0490 -0.3328
  493MOL0     C64951   3.966   4.807   7.752  0.5382 -0.6544 -0.3443
  493MOL0     O64952   4.075   4.741   7.815 -0.0581  0.2584  0.0389
  493MOL0     C64953   4.186   4.815   7.859 -0.8417  0.4008 -0.3539
  493MOL0     C64954   4.327   4.751   7.833  0.1461  0.2453 -0.2923
  493MOL0     C64955   4.353   4.704   7.685 -0.3702 -0.2572 -0.7640
  493MOL0     C64956   4.481   4.624   7.685  1.4243  1.1035  0.4831
  493MOL0     C64957   4.605   4.705   7.690 -0.8990  0.2365 -0.5723
  493MOL0     C64958   4.732   4.609   7.685 -0.5799  0.8505  0.0493
  493MOL0     C64959   4.857   4.673   7.637  0.2755  0.8349  0.2515
  493MOL0     C64960   4.835   4.720   7.491  0.4058  0.1503  0.3982
  493MOL0     N64961   4.952   4.744   7.399 -0.0982 -0.0341  0.0052
  493MOL0     C64962   5.078   4.785   7.421 -0.7435 -0.0857 -0.7224
  493MOL0     C64963   5.149   4.768   7.311  0.4005 -0.0596 -0.1789
  493MOL0     C64964   5.289   4.786   7.281  0.4024 -0.0474  0.4527
  493MOL0     C64965   5.383   4.697   7.363 -0.1399  0.4351  0.0046
  493MOL0     C64966   5.368   4.547   7.311 -0.1172 -1.0563  0.7460
  493MOL0     C64967   5.258   4.469   7.377 -0.0031 -0.3511 -0.5412
  493MOL0     O64968   5.256   4.332   7.327  0.1737  0.0438 -0.3268
  493MOL0     C64969   5.157   4.285   7.237  0.6579 -1.1429 -0.6584
  493MOL0     C64970   5.074   4.367   7.158  0.0110  0.3503  1.1176
  493MOL0     C64971   4.965   4.314   7.091 -0.2292 -0.7135 -0.3359
  493MOL0     C64972   4.929   4.180   7.095  0.3834 -0.5541 -0.2616
  493MOL0     C64973   4.807   4.114   7.031  0.2221 -1.0534 -0.3773
  493MOL0     O64974   4.727   4.205   6.959 -0.1763  0.4456 -0.2519
  493MOL0     C64975   4.606   4.169   6.901  1.1150  0.2143  1.1519
  493MOL0     C64976   4.537   4.280   6.843 -0.3254 -0.4666  0.3858
  493MOL0     C64977   4.411   4.264   6.777 -0.0832 -0.1851 -0.2394
  493MOL0     C64978   4.348   4.146   6.789 -0.2488  0.2133  0.8589
  493MOL0     O64979   4.221   4.123   6.743  0.5106 -0.3046 -0.3034
  493MOL0     C64980   4.163   4.212   6.646  0.2926 -0.3738 -0.3809
  493MOL0     C64981   4.035   4.147   6.589 -0.6628 -0.2176 -1.0414
  493MOL0     C64982   3.963   4.261   6.526  0.6335  0.4929 -0.3117
  493MOL0     C64983   3.831   4.203   6.489  0.3821 -0.4952  0.9414
  493MOL0     C64984   3.750   4.303   6.400  0.2625  0.5430  0.0493
  493MOL0     C64985   3.610   4.259   6.344 -0.0269 -0.0363 -1.7959
  493MOL0     C64986   3.532   4.371   6.281 -0.3208  0.3212  0.0910
  493MOL0     C64987   3.413   4.310   6.213 -0.1737 -1.1716 -0.5206
  493MOL0    Cl64988   3.340   4.439   6.106 -0.0755 -0.4157  0.1161
  493MOL0     C64989   4.417   4.035   6.833  0.9335 -0.8567 -1.5746
  493MOL0     C64990   4.546   4.045   6.890  0.7001  0.1120 -0.1222
  493MOL0     O64991   4.777   3.998   7.056 -0.3939 -0.4280 -0.2481
  493MOL0     C64992   5.014   4.101   7.174 -0.6162 -0.2916 -0.5511
  493MOL0     C64993   5.132   4.151   7.234  0.8440  0.7272  0.1329
  493MOL0     N64994   5.061   4.716   7.220  0.1046 -0.2186 -0.1218
  493MOL0     N64995   4.944   4.705   7.275  0.5087 -0.0677 -0.5335
  493MOL0     C64996   3.882   4.741   7.671  0.5975 -0.7044  0.4460
  493MOL0     C64997   3.757   4.796   7.630 -0.3995 -0.1515 -0.0297
  493MOL0     C64998   3.430   5.051   7.492  0.8267  0.0174  1.2429
  493MOL0     C64999   3.378   5.054   7.362 -0.6807  0.3786  0.1180
  493MOL0     C65000   3.262   5.116   7.323  0.2942  0.0432  0.4339
  493MOL0     C65001   3.182   5.177   7.426  0.0695 -0.4067 -0.4093
  493MOL0     O65002   3.060   5.241   7.404  0.1488  0.1116  0.3368
  493MOL0     C65003   2.991   5.233   7.274 -0.0160  0.3496 -0.2155
  493MOL0     C65004   2.857   5.309   7.275 -0.1690  0.8839 -0.5142
  493MOL0     C65005   2.765   5.268   7.145  0.3387  0.8430  0.9530
  493MOL0     C65006   2.637   5.346   7.148  0.2370  0.2927  0.7560
  493MOL0     C65007   2.580   5.358   7.022  0.5382 -0.5051  0.2902
  493MOL0     C65008   2.519   5.358   6.922  0.2026 -0.9556  0.0280
  493MOL0     C65009   3.232   5.190   7.554  0.0151  0.0089 -0.1770
  493MOL0     C65010   3.354   5.117   7.588 -0.4080 -0.6121  0.1749
  493MOL0     H65011   3.806   5.094   7.769  0.7988 -0.6816  1.8636
  493MOL0     H65012   4.005   4.979   7.856  1.0534 -1.9432 -1.0707
  493MOL0     H65013   4.175   4.827   7.967 -2.1616 -3.1205  0.0201
  493MOL0     H65014   4.197   4.903   7.794  0.9659 -1.3466 -2.6070
  493MOL0     H65015   4.326   4.665   7.901 -0.2355  0.7906  0.4177
  493MOL0     H65016   4.405   4.824   7.859  1.0808 -1.1172  0.8901
  493MOL0     H65017   4.366   4.792   7.621 -1.0215 -0.6320 -1.4261
  493MOL0     H65018   4.278   4.633   7.651 -2.5839  0.1341  2.7621
  493MOL0     H65019   4.488   4.546   7.761  0.4437 -0.0249 -0.5325
  493MOL0     H65020   4.479   4.567   7.591  0.1420 -0.5188  1.4389
  493MOL0     H65021   4.607   4.754   7.788 -2.5247 -0.5746 -0.1041
  493MOL0     H65022   4.611   4.787   7.617 -0.8204 -0.8285 -1.7876
  493MOL0     H65023   4.717   4.522   7.620  1.4204 -0.6583  1.4867
  493MOL0     H65024   4.760   4.563   7.781 -1.4977 -1.8426 -0.8830
  493MOL0     H65025   4.883   4.754   7.707 -0.0418 -1.3301  3.0416
  493MOL0     H65026   4.937   4.599   7.633  0.6026  0.7911  3.9644
  493MOL0     H65027   4.774   4.810   7.504 -0.7906 -0.7724  1.4955
  493MOL0     H65028   4.765   4.659   7.435 -0.7103  0.9076  0.9342
  493MOL0     H65029   5.116   4.804   7.520 -3.8212  0.9046  0.4073
  493MOL0     H65030   5.314   4.891   7.295  1.0757 -0.1066 -0.2668
  493MOL0     H65031   5.305   4.763   7.176  0.4240 -1.3260  0.7211
  493MOL0     H65032   5.355   4.702   7.469  2.9492 -1.0124  1.0310
  493MOL0     H65033   5.486   4.730   7.344 -0.6899  0.9170 -2.3520
  493MOL0     H65034   5.358   4.550   7.202 -0.8186 -1.9241  0.7742
  493MOL0     H65035   5.465   4.499   7.328  1.2979  1.5032  0.3981
  493MOL0     H65036   5.162   4.518   7.361  0.7018  3.4298  4.3399
  493MOL0     H65037   5.275   4.475   7.485  1.5883  1.2703 -0.8463
  493MOL0     H65038   5.100   4.472   7.157 -0.6181  0.5131  1.5752
  493MOL0     H65039   4.894   4.380   7.043 -0.0910 -1.6138 -1.8212
  493MOL0     H65040   4.590   4.374   6.837 -0.7449 -0.3043 -1.0691
  493MOL0     H65041   4.357   4.348   6.734  0.3553  1.1015  1.5859
  493MOL0     H65042   4.232   4.247   6.569  0.9299 -2.0846 -0.6427
  493MOL0     H65043   4.131   4.302   6.698  0.2284 -1.2520  1.1760
  493MOL0     H65044   3.964   4.102   6.659 -2.3439  1.8702 -1.2803
  493MOL0     H65045   4.073   4.070   6.522  0.0681  1.3816 -2.5552
  493MOL0     H65046   4.013   4.306   6.439 -0.9620  1.2445 -0.8815
  493MOL0     H65047   3.941   4.337   6.602 -2.2087 -0.8522  0.3368
  493MOL0     H65048   3.850   4.106   6.443  0.9507  1.6812 -4.0536
  493MOL0     H65049   3.776   4.181   6.581  1.8386 -0.4200  1.8751
  493MOL0     H65050   3.815   4.320   6.314 -0.1732  1.0175 -0.1951
  493MOL0     H65051   3.738   4.396   6.457  0.3703 -0.8337  2.4362
  493MOL0     H65052   3.560   4.227   6.436 -3.1563  4.2084 -1.7431
  493MOL0     H65053   3.627   4.181   6.269 -0.7391 -0.6566 -1.3286
  493MOL0     H65054   3.501   4.448   6.353 -0.1182  1.5443 -1.1047
  493MOL0     H65055   3.606   4.411   6.212  1.9538 -0.9399  1.6658
  493MOL0     H65056   3.340   4.278   6.288 -1.9073  1.0943 -1.1607
  493MOL0     H65057   3.453   4.230   6.149  0.0391  0.0558 -1.9661
  493MOL0     H65058   4.371   3.937   6.842  0.7315 -0.5611  3.1446
  493MOL0     H65059   4.582   3.959   6.946  0.5463 -0.0108 -0.2124
  493MOL0     H65060   4.995   3.996   7.197 -2.6474  0.5917  2.3374
  493MOL0     H65061   5.194   4.088   7.296  2.1681  0.5727 -1.2823
  493MOL0     H65062   3.897   4.637   7.645 -3.4895 -0.8991 -1.9641
  493MOL0     H65063   3.683   4.736   7.578 -0.1633 -1.5193  1.1218
  493MOL0     H65064   3.432   5.012   7.278  0.2547 -0.5958  1.1748
  493MOL0     H65065   3.235   5.144   7.222  0.7540  0.9882  0.5646
  493MOL0     H65066   2.966   5.129   7.250 -1.3447  1.1944 -2.7443
  493MOL0     H65067   3.059   5.275   7.200  2.6300 -3.0035  0.0284
  493MOL0     H65068   2.813   5.288   7.373 -1.4990 -0.4523 -1.3545
  493MOL0     H65069   2.878   5.415   7.257 -1.4445  1.0926 -0.9000
  493MOL0     H65070   2.731   5.166   7.162 -2.1066  1.7052  1.6379
  493MOL0     H65071   2.823   5.278   7.053 -0.2489 -3.7003 -0.1309
  493MOL0     H65072   2.569   5.291   7.214 -0.1235 -2.1769 -1.5265
  493MOL0     H65073   2.664   5.443   7.190 -1.1673  0.2036  1.9528
  493MOL0     H65074   2.463   5.372   6.832  0.9387  2.4011 -0.0119
  493MOL0     H65075   3.175   5.247   7.627  0.2089  1.7002 -1.2783
  493MOL0     H65076   3.386   5.118   7.692 -0.3686 -0.0330  0.1624
  494MOL0     O65077   4.134   1.322   3.274 -0.5628  0.1767  0.6778
  494MOL0     C65078   4.112   1.412   3.191  0.1272 -0.6372  0.7011
  494MOL0     O65079   4.189   1.443   3.081 -0.1260  0.4955  0.5016
  494MOL0     C65080   4.310   1.374   3.054 -0.1947 -0.2072  1.1144
  494MOL0     C65081   4.411   1.443   2.983 -0.3183 -0.1143  0.6473
  494MOL0     C65082   4.534   1.384   2.941  0.5012 -0.6382  0.1776
  494MOL0     C65083   4.566   1.255   2.983 -0.9803  1.1121 -0.2291
  494MOL0     O65084   4.680   1.185   2.945 -0.5815 -0.1913  0.0337
  494MOL0     C65085   4.791   1.265   2.897 -0.0456  0.0692  0.1432
  494MOL0     C65086   4.893   1.156   2.871  0.5394  0.2713  0.0539
  494MOL0     C65087   5.024   1.223   2.822  0.0454  0.3085  0.1019
  494MOL0     C65088   5.130   1.117   2.808 -0.2089 -0.3081  0.0030
  494MOL0     C65089   5.265   1.177   2.773  0.6348  0.6459 -0.7306
  494MOL0     C65090   5.370   1.062   2.756 -0.1616  0.0958 -0.2398
  494MOL0     C65091   5.513   1.111   2.718  0.7468  0.5781 -0.3927
  494MOL0     C65092   5.596   1.166   2.826  0.4999  0.2472  0.0125
  494MOL0     N65093   5.733   1.199   2.779  0.2915 -0.8782  0.6754
  494MOL0     C65094   5.768   1.208   2.642  0.3509 -0.3467  0.3995
  494MOL0     C65095   5.894   1.165   2.627 -0.0055 -1.2180  0.5931
  494MOL0     C65096   5.972   1.155   2.497 -0.1994  0.0386 -0.7970
  494MOL0     C65097   5.946   1.016   2.424 -0.1481  0.0984 -0.3959
  494MOL0     C65098   5.801   1.018   2.356 -0.2691 -0.3022 -0.6272
  494MOL0     C65099   5.795   0.880   2.285 -0.6624 -0.0986 -0.3738
  494MOL0     O65100   5.717   0.783   2.359 -1.1939  0.2647 -0.1231
  494MOL0     C65101   5.582   0.804   2.377  0.2040 -0.8285  0.1098
  494MOL0     C65102   5.496   0.889   2.294 -0.2321 -0.3514 -0.2245
  494MOL0     C65103   5.365   0.910   2.335 -0.3157 -0.4980  0.0893
  494MOL0     C65104   5.312   0.851   2.449 -0.3234 -0.3096 -0.4740
  494MOL0     C65105   5.177   0.875   2.489  0.2390  0.2620  0.0898
  494MOL0     O65106   5.114   0.759   2.534 -0.1163  0.2573 -0.0104
  494MOL0     C65107   4.990   0.763   2.589  0.0684  0.0660 -1.0152
  494MOL0     C65108   4.978   0.774   2.734 -0.4233 -0.0405  0.9106
  494MOL0     C65109   4.857   0.794   2.792 -0.3799  0.0287  0.6319
  494MOL0     C65110   4.746   0.823   2.709 -0.5837  0.5399 -0.2888
  494MOL0     O65111   4.627   0.851   2.777  0.8111  0.4602 -0.7074
  494MOL0     C65112   4.535   0.951   2.719 -0.1239  0.3709 -0.4064
  494MOL0     C65113   4.436   0.897   2.626 -0.1222 -0.4632  0.0354
  494MOL0     C65114   4.379   0.755   2.657  0.7874 -0.5849 -0.5571
  494MOL0     C65115   4.234   0.731   2.611  0.6605 -0.1113 -0.1303
  494MOL0     C65116   4.176   0.612   2.675  0.3110  0.5025  0.8927
  494MOL0     C65117   4.024   0.600   2.654  0.0511 -0.0610  0.4531
  494MOL0     C65118   3.937   0.685   2.741 -0.0338 -0.2608  0.3512
  494MOL0     C65119   3.805   0.694   2.673  0.2895  0.2458  0.6432
  494MOL0    Cl65120   3.720   0.829   2.751  0.4172 -0.5280 -0.1083
  494MOL0     C65121   4.761   0.826   2.568 -0.0979  0.4126 -0.1853
  494MOL0     C65122   4.875   0.783   2.510 -0.3901  0.0413  0.1145
  494MOL0     O65123   5.125   0.982   2.454  0.6933 -0.3643 -0.2537
  494MOL0     C65124   5.389   0.776   2.528  1.0535  0.2816  0.5109
  494MOL0     C65125   5.526   0.758   2.495 -0.2174 -0.0671  0.3069
  494MOL0     N65126   5.937   1.142   2.757  0.3908 -0.1933  0.5925
  494MOL0     N65127   5.837   1.161   2.840 -0.5669 -0.3263 -1.1269
  494MOL0     C65128   4.466   1.181   3.054 -0.4147 -0.9697  0.2716
  494MOL0     C65129   4.345   1.242   3.092 -0.1355 -0.3468 -0.5192
  494MOL0     C65130   3.996   1.506   3.219  0.0358  0.1746  0.8394
  494MOL0     C65131   3.928   1.496   3.339 -1.1737  0.0379 -0.3607
  494MOL0     C65132   3.814   1.567   3.362  0.6069 -0.9111 -0.4872
  494MOL0     C65133   3.755   1.643   3.263  0.1417 -0.4291 -0.1189
  494MOL0     O65134   3.628   1.699   3.270  0.4117 -0.2911 -0.0945
  494MOL0     C65135   3.587   1.755   3.390  0.5994  0.3809 -0.2310
  494MOL0     C65136   3.672   1.872   3.428  0.2928 -0.2765  0.4972
  494MOL0     C65137   3.634   1.901   3.570  0.6344  0.5093 -0.0150
  494MOL0     C65138   3.691   2.040   3.607  0.4376 -0.1264  0.2274
  494MOL0     C65139   3.608   2.088   3.719 -0.3282  0.0053  0.3535
  494MOL0     C65140   3.543   2.124   3.805 -0.4283  0.1810 -0.4261
  494MOL0     C65141   3.834   1.669   3.148 -0.0322 -0.2910 -1.3768
  494MOL0     C65142   3.949   1.601   3.123  0.0933 -0.2928 -0.2986
  494MOL0     H65143   4.380   1.533   2.930 -0.6432  0.1174  1.2288
  494MOL0     H65144   4.588   1.443   2.867 -0.5111 -0.9960 -0.8758
  494MOL0     H65145   4.825   1.334   2.975 -0.9844 -0.3541  0.9431
  494MOL0     H65146   4.765   1.320   2.806  1.1812  1.8971  0.8192
  494MOL0     H65147   4.850   1.088   2.796  0.3657  1.5751 -1.0806
  494MOL0     H65148   4.912   1.101   2.963  1.0150  1.5609  0.7446
  494MOL0     H65149   5.046   1.299   2.898 -2.7004  3.2146 -1.7710
  494MOL0     H65150   5.005   1.270   2.726  0.0767  0.2137  0.0495
  494MOL0     H65151   5.146   1.075   2.908 -1.3756  1.5990  1.0523
  494MOL0     H65152   5.108   1.038   2.736 -3.2692  1.1050 -0.7581
  494MOL0     H65153   5.295   1.245   2.852  0.5713 -0.0410 -0.1096
  494MOL0     H65154   5.249   1.229   2.678 -2.5115  1.4412  0.1107
  494MOL0     H65155   5.332   0.987   2.686  4.2199 -0.5698 -2.2702
  494MOL0     H65156   5.381   1.008   2.850 -1.8504 -0.1068 -0.1362
  494MOL0     H65157   5.567   1.033   2.664  0.5623  0.6772 -0.7213
  494MOL0     H65158   5.503   1.188   2.641  3.9656 -0.3787 -1.9173
  494MOL0     H65159   5.606   1.085   2.897  0.2034 -0.6399 -0.9356
  494MOL0     H65160   5.545   1.250   2.874 -1.3368  0.1610 -1.6550
  494MOL0     H65161   5.700   1.228   2.560 -0.4786 -1.8554  0.6689
  494MOL0     H65162   6.075   1.179   2.525 -1.8734  5.2137  2.3236
  494MOL0     H65163   5.943   1.229   2.421 -0.6401 -0.5355 -1.2008
  494MOL0     H65164   5.947   0.934   2.497 -1.3643 -0.8761 -1.4296
  494MOL0     H65165   6.026   0.991   2.354 -1.1454  2.3073 -2.4485
  494MOL0     H65166   5.718   1.034   2.425 -0.1636  2.9511 -1.1126
  494MOL0     H65167   5.803   1.098   2.281 -2.1803  3.0192  2.5449
  494MOL0     H65168   5.893   0.835   2.271 -0.7235 -0.5748  0.5972
  494MOL0     H65169   5.752   0.899   2.186  0.1217  1.8241 -0.3775
  494MOL0     H65170   5.542   0.928   2.204 -2.6867  1.8652 -0.6401
  494MOL0     H65171   5.310   0.976   2.268 -0.1965  0.9693  1.3985
  494MOL0     H65172   5.068   0.765   2.793  1.1785 -2.5745 -1.6316
  494MOL0     H65173   4.840   0.796   2.899 -2.0376  0.6612  0.3849
  494MOL0     H65174   4.587   1.028   2.660 -1.1071  0.5842 -1.0121
  494MOL0     H65175   4.476   1.005   2.793 -1.0851  0.2180 -1.0464
  494MOL0     H65176   4.476   0.898   2.524 -0.7168 -0.0915 -0.2014
  494MOL0     H65177   4.354   0.969   2.629  0.9464  0.9095 -1.7600
  494MOL0     H65178   4.384   0.747   2.766 -0.7013 -1.0101 -0.5080
  494MOL0     H65179   4.440   0.675   2.613 -0.1953 -2.1108  0.7320
  494MOL0     H65180   4.187   0.826   2.635  0.4870 -0.2290  0.0010
  494MOL0     H65181   4.243   0.709   2.504 -0.1876 -0.0301 -0.2208
  494MOL0     H65182   4.188   0.610   2.783 -2.8321  1.9163  1.3931
  494MOL0     H65183   4.231   0.530   2.626 -1.7266  1.5957 -3.8240
  494MOL0     H65184   3.990   0.497   2.670  1.3739 -0.3437  1.6240
  494MOL0     H65185   4.019   0.606   2.545  1.2390 -1.1687  0.3027
  494MOL0     H65186   3.936   0.650   2.845 -2.2198 -1.8581 -0.1352
  494MOL0     H65187   3.987   0.782   2.731 -1.4459  0.3682 -1.0055
  494MOL0     H65188   3.748   0.602   2.688  1.2876 -0.7257 -1.1873
  494MOL0     H65189   3.828   0.710   2.568  0.6184 -0.6055  0.5726
  494MOL0     H65190   4.674   0.831   2.503  0.9646 -2.0930 -1.9495
  494MOL0     H65191   4.877   0.780   2.401  2.3166  0.1858  0.0937
  494MOL0     H65192   5.349   0.731   2.618 -2.5764 -0.3235 -1.2014
  494MOL0     H65193   5.584   0.692   2.558  0.6289  1.5503  1.3011
  494MOL0     H65194   4.476   1.076   3.078  0.9076 -1.2059 -1.1944
  494MOL0     H65195   4.276   1.183   3.150 -0.9621  1.6722  0.6358
  494MOL0     H65196   3.968   1.428   3.413  0.3849  3.0582  1.7878
  494MOL0     H65197   3.759   1.556   3.455  1.8345 -2.5837  0.0736
  494MOL0     H65198   3.597   1.675   3.463  1.8947 -1.7332 -2.5870
  494MOL0     H65199   3.482   1.785   3.386  0.8906  1.3883 -0.8786
  494MOL0     H65200   3.779   1.857   3.414  0.2999 -0.0463  0.3004
  494MOL0     H65201   3.643   1.956   3.364 -1.1158  0.6244  2.2483
  494MOL0     H65202   3.675   1.831   3.644 -1.2305  0.7948  1.3907
  494MOL0     H65203   3.524   1.897   3.574  0.6180  1.4559  0.7913
  494MOL0     H65204   3.795   2.042   3.641 -0.1897 -0.1089  2.2977
  494MOL0     H65205   3.680   2.109   3.523 -0.9578 -2.0044 -1.2013
  494MOL0     H65206   3.485   2.174   3.880 -0.5638 -0.5029 -0.0651
  494MOL0     H65207   3.798   1.731   3.066  0.4895  0.8225 -0.7875
  494MOL0     H65208   4.005   1.622   3.032 -1.1002 -0.4556 -1.0875
  495MOL0     O65209  11.033   1.239   6.781  1.3090  0.8228 -0.4874
  495MOL0     C65210  11.011   1.119   6.798  0.7044  0.5436 -0.6051
  495MOL0     O65211  11.100   1.021   6.841  0.0300  0.2401 -0.5065
  495MOL0     C65212  11.241   1.039   6.839 -0.3527 -0.2594  0.2645
  495MOL0     C65213  11.304   1.051   6.716  0.4421 -0.5341  0.6618
  495MOL0     C65214  11.446   1.059   6.708 -0.7392  0.5277  0.3506
  495MOL0     C65215  11.517   1.059   6.828 -0.7166  0.1680  0.2519
  495MOL0     O65216  11.648   1.068   6.843 -0.0891  0.4011 -0.4164
  495MOL0     C65217  11.726   1.084   6.726  0.4730 -0.0290  0.0937
  495MOL0     C65218  11.864   1.100   6.780  0.3892 -0.5974  0.6335
  495MOL0     C65219  11.975   1.115   6.675  0.5649 -0.0167 -0.5174
  495MOL0     C65220  12.111   1.127   6.726  0.0556 -0.3355  0.2992
  495MOL0     C65221  12.183   0.991   6.736  0.2536 -0.6309  0.6584
  495MOL0     C65222  12.339   0.994   6.769 -0.4549 -0.1954  0.1912
  495MOL0     C65223  12.399   0.857   6.777  0.4584 -0.0566  0.5834
  495MOL0     C65224  12.339   0.781   6.900  0.6072 -0.3414  0.3358
  495MOL0     N65225  12.446   0.701   6.965 -0.0801  0.0436  0.2642
  495MOL0     C65226  12.511   0.588   6.911 -0.4656  0.0432 -0.1447
  495MOL0     C65227  12.594   0.544   7.011  0.2972 -0.2909 -0.3409
  495MOL0     C65228  12.684   0.423   7.007  0.0150  0.4606 -0.2701
  495MOL0     C65229  12.589   0.302   7.043 -0.3307 -0.2355  0.5074
  495MOL0     C65230  12.616   0.163   6.976 -0.2956 -0.3115  0.3208
  495MOL0     C65231  12.514   0.063   7.032  0.2288  0.6546  0.1283
  495MOL0     O65232  12.389   0.096   6.965  0.2342 -0.1151  0.3599
  495MOL0     C65233  12.279   0.030   6.988  0.5936  0.1423 -1.1997
  495MOL0     C65234  12.161   0.070   6.926  0.6072 -0.7350  0.1818
  495MOL0     C65235  12.036   0.005   6.952 -0.3661  0.2014  0.3682
  495MOL0     C65236  12.033  -0.119   7.028 -0.3602 -1.4554  1.1530
  495MOL0     C65237  11.902  -0.185   7.057  0.4351 -0.7274 -0.5712
  495MOL0     O65238  11.786  -0.127   7.008 -0.2958 -0.1690 -0.5186
  495MOL0     C65239  11.670  -0.196   7.029  0.0040  0.4319 -0.6933
  495MOL0     C65240  11.583  -0.138   7.117 -0.0702 -0.3380 -0.5683
  495MOL0     C65241  11.458  -0.203   7.142 -0.4532 -0.8736 -0.4322
  495MOL0     C65242  11.439  -0.321   7.075 -0.2128 -0.6261 -0.7305
  495MOL0     O65243  11.316  -0.376   7.095 -0.5220 -0.2809  0.5074
  495MOL0     C65244  11.218  -0.358   6.995 -0.6324 -0.1639  0.2228
  495MOL0     C65245  11.103  -0.442   7.025  0.3454 -0.6823  1.1748
  495MOL0     C65246  10.971  -0.411   6.941 -0.4318 -0.2436 -0.3978
  495MOL0     C65247  10.841  -0.470   6.997 -0.4857  0.1162  0.5195
  495MOL0     C65248  10.718  -0.410   6.918  0.1069  0.1433 -0.2831
  495MOL0     C65249  10.703  -0.467   6.776 -0.2222  0.0014  0.4970
  495MOL0     C65250  10.578  -0.404   6.710  0.6697 -1.1894  1.2774
  495MOL0     C65251  10.548  -0.493   6.585  0.0419  0.1056 -0.5115
  495MOL0    Cl65252  10.422  -0.414   6.480 -0.2857  0.4025 -0.0613
  495MOL0     C65253  11.531  -0.383   6.986  0.2483  0.1470 -0.1838
  495MOL0     C65254  11.649  -0.323   6.967  0.1842 -0.2452 -0.5716
  495MOL0     O65255  11.905  -0.284   7.133  0.3892  0.0856  0.7437
  495MOL0     C65256  12.153  -0.156   7.091  0.3170 -0.2529 -0.6606
  495MOL0     C65257  12.273  -0.084   7.083 -0.2740 -0.5184  0.9746
  495MOL0     N65258  12.582   0.635   7.116 -1.1224 -0.2589 -0.3900
  495MOL0     N65259  12.498   0.730   7.089  0.1486  0.9783 -0.3105
  495MOL0     C65260  11.454   1.058   6.953  0.7922  0.6142  0.0874
  495MOL0     C65261  11.313   1.039   6.958 -0.7415 -0.0511  0.1977
  495MOL0     C65262  10.873   1.078   6.784  0.4691 -0.1630 -0.1086
  495MOL0     C65263  10.825   0.953   6.830  0.4039 -0.7940  0.2160
  495MOL0     C65264  10.690   0.913   6.830 -0.8176 -0.4348 -0.0699
  495MOL0     C65265  10.597   1.008   6.783 -0.3804 -0.4698  0.1426
  495MOL0     O65266  10.463   0.999   6.773  0.1993  0.3126  0.1881
  495MOL0     C65267  10.395   0.882   6.810 -0.1589  0.5966  0.5852
  495MOL0     C65268  10.249   0.875   6.769 -0.5964  0.2442 -0.3943
  495MOL0     C65269  10.248   0.827   6.619 -0.1140 -0.4022 -0.4146
  495MOL0     C65270  10.097   0.796   6.569  0.2117  0.9082 -0.2807
  495MOL0     C65271  10.109   0.767   6.429  0.0324 -0.5491 -0.7936
  495MOL0     C65272  10.109   0.749   6.311 -0.4390 -0.2243 -0.2695
  495MOL0     C65273  10.645   1.126   6.733 -0.3549  0.2089 -0.4054
  495MOL0     C65274  10.776   1.167   6.739  0.0811  0.3304 -0.1591
  495MOL0     H65275  11.253   1.049   6.620 -1.4254 -1.3649  1.6179
  495MOL0     H65276  11.490   1.070   6.610  1.3904  0.9770  1.3039
  495MOL0     H65277  11.699   1.183   6.687 -2.2545  0.9099  3.7932
  495MOL0     H65278  11.722   1.003   6.653  1.2669 -0.8098  0.9057
  495MOL0     H65279  11.897   1.019   6.845 -0.0323 -0.7498  0.6645
  495MOL0     H65280  11.858   1.197   6.830 -0.3653  0.0145 -0.5846
  495MOL0     H65281  11.935   1.185   6.602 -0.5725  0.0418  0.1401
  495MOL0     H65282  11.975   1.021   6.619  1.2597  0.1780 -0.8667
  495MOL0     H65283  12.163   1.194   6.657 -0.8123 -0.4672 -0.5014
  495MOL0     H65284  12.122   1.177   6.823 -0.8011  0.3950  0.0331
  495MOL0     H65285  12.177   0.939   6.640  0.0382  0.8895 -0.1812
  495MOL0     H65286  12.131   0.927   6.808 -2.9769  1.1254  0.0551
  495MOL0     H65287  12.352   1.029   6.872 -4.0314 -1.9651  1.4229
  495MOL0     H65288  12.387   1.060   6.696 -0.7556  0.3132  0.4494
  495MOL0     H65289  12.392   0.804   6.682 -0.3288  0.2022  0.4910
  495MOL0     H65290  12.507   0.870   6.790  0.5993  1.9683 -1.8401
  495MOL0     H65291  12.268   0.713   6.851 -1.7446  2.0630  0.2145
  495MOL0     H65292  12.304   0.845   6.981  0.9949 -1.8723  1.7523
  495MOL0     H65293  12.488   0.537   6.818  0.8354  0.1237 -0.5365
  495MOL0     H65294  12.756   0.431   7.089 -0.3215 -0.3364  0.1215
  495MOL0     H65295  12.731   0.419   6.908 -2.4834  2.9821 -1.7134
  495MOL0     H65296  12.489   0.323   7.005  0.5949 -0.8898 -2.5867
  495MOL0     H65297  12.583   0.310   7.152  0.7648  3.7724  0.4091
  495MOL0     H65298  12.612   0.176   6.868  0.2607  0.0359  0.3365
  495MOL0     H65299  12.709   0.122   7.017 -2.3900 -2.9165  2.9226
  495MOL0     H65300  12.514   0.084   7.139  0.5589  2.7896 -0.2563
  495MOL0     H65301  12.543  -0.042   7.016 -0.9336  0.7094 -2.9151
  495MOL0     H65302  12.168   0.167   6.878  2.6685  0.4497  2.5950
  495MOL0     H65303  11.942   0.051   6.925 -2.3263 -3.3654  0.4766
  495MOL0     H65304  11.615  -0.042   7.157 -3.4542  0.0167  1.6082
  495MOL0     H65305  11.381  -0.168   7.210 -2.0879 -1.0226 -2.1166
  495MOL0     H65306  11.258  -0.381   6.895 -1.0754 -1.5513  0.3496
  495MOL0     H65307  11.195  -0.251   7.003 -1.4930 -0.4059  1.0457
  495MOL0     H65308  11.091  -0.423   7.131  1.6521  0.2310  1.1824
  495MOL0     H65309  11.141  -0.541   6.997  2.6516  0.4860 -0.0904
  495MOL0     H65310  10.977  -0.423   6.832 -2.9134  0.3830 -0.6486
  495MOL0     H65311  10.954  -0.304   6.951 -1.1457 -0.4712  1.0034
  495MOL0     H65312  10.834  -0.579   6.984  1.4401  0.0070  0.0961
  495MOL0     H65313  10.845  -0.457   7.106  2.0494  2.3289  0.2686
  495MOL0     H65314  10.727  -0.301   6.917 -0.8726  0.3664  2.9403
  495MOL0     H65315  10.621  -0.429   6.965 -0.0146  2.9295  0.7642
  495MOL0     H65316  10.701  -0.576   6.778 -1.6942 -0.0082 -0.5515
  495MOL0     H65317  10.792  -0.441   6.717  0.4699 -0.8094  1.1577
  495MOL0     H65318  10.493  -0.400   6.779 -0.2956 -0.5116  0.0977
  495MOL0     H65319  10.591  -0.303   6.669  1.0453 -0.3105  3.4672
  495MOL0     H65320  10.504  -0.585   6.625 -1.6036  1.5357  1.1780
  495MOL0     H65321  10.634  -0.496   6.517  0.6620  2.6660  0.0805
  495MOL0     H65322  11.492  -0.472   6.938 -1.9476 -0.8675  3.1301
  495MOL0     H65323  11.715  -0.376   6.899 -0.2960  0.6278 -1.7427
  495MOL0     H65324  12.145  -0.245   7.152 -5.4370  1.6715  2.1601
  495MOL0     H65325  12.367  -0.112   7.130  1.3635  0.4528 -1.5135
  495MOL0     H65326  11.512   1.057   7.044  0.5527  1.0480  0.2455
  495MOL0     H65327  11.262   1.030   7.053  2.0472  0.0447  1.8033
  495MOL0     H65328  10.906   0.895   6.875  1.8562  1.2836  0.4392
  495MOL0     H65329  10.662   0.811   6.856  0.9226 -0.3314  2.6229
  495MOL0     H65330  10.394   0.888   6.920  2.8151  2.3995  0.6230
  495MOL0     H65331  10.451   0.798   6.769 -0.2305  0.8034  0.0578
  495MOL0     H65332  10.202   0.795   6.827 -2.6869  0.3030 -1.9184
  495MOL0     H65333  10.192   0.967   6.780  0.0882  1.2306 -3.8609
  495MOL0     H65334  10.314   0.745   6.592 -1.4777 -0.8381 -2.7535
  495MOL0     H65335  10.283   0.917   6.566  1.5229  0.3995  1.8785
  495MOL0     H65336  10.061   0.709   6.625  3.1875 -0.1846  0.0769
  495MOL0     H65337  10.027   0.879   6.584 -0.9281 -0.1985  0.8180
  495MOL0     H65338  10.118   0.746   6.204  0.7908 -2.1725 -0.1730
  495MOL0     H65339  10.573   1.201   6.701 -1.4294 -1.2921 -1.7180
  495MOL0     H65340  10.803   1.268   6.709 -2.8207  0.9122 -1.1971
  496MOL0     O65341   3.298   8.805   4.067  1.1502  0.2077 -0.0982
  496MOL0     C65342   3.304   8.929   4.055 -0.4812  0.0621  0.3316
  496MOL0     O65343   3.219   9.019   4.098 -0.6399  0.2130  0.8217
  496MOL0     C65344   3.093   8.977   4.125  0.8466 -0.9365 -0.0817
  496MOL0     C65345   3.003   8.977   4.019 -0.4864 -0.5480  0.8257
  496MOL0     C65346   2.863   8.965   4.036 -0.3114 -0.2232  0.1787
  496MOL0     C65347   2.812   8.972   4.164 -0.1692  0.2705 -0.6971
  496MOL0     O65348   2.677   8.968   4.175 -0.0439  0.5022  0.1370
  496MOL0     C65349   2.621   8.965   4.307 -0.0402 -0.5071 -0.6775
  496MOL0     C65350   2.481   8.890   4.292  0.1132  0.3334 -0.7118
  496MOL0     C65351   2.413   8.861   4.417  0.4885 -0.4318  0.1767
  496MOL0     C65352   2.262   8.860   4.394  0.4814 -0.1141  0.9379
  496MOL0     C65353   2.172   8.846   4.521  0.8213  0.8248 -0.0993
  496MOL0     C65354   2.034   8.812   4.476  0.6066  0.8087  0.3739
  496MOL0     C65355   1.946   8.811   4.602 -0.3165  0.3655  0.7292
  496MOL0     C65356   1.879   8.946   4.645  0.3159  0.5433 -0.3824
  496MOL0     N65357   1.779   8.932   4.755 -1.0459  0.6668  0.1226
  496MOL0     C65358   1.786   8.836   4.853 -0.0974  0.4367 -0.2692
  496MOL0     C65359   1.672   8.857   4.926 -0.0958 -0.1708  0.1615
  496MOL0     C65360   1.638   8.774   5.044  0.2358 -0.2409  0.2156
  496MOL0     C65361   1.496   8.805   5.090  0.1415  0.3966 -0.0511
  496MOL0     C65362   1.465   8.743   5.233 -0.1524 -0.0420  0.3522
  496MOL0     C65363   1.324   8.750   5.287  0.4531 -0.2371  0.7984
  496MOL0     O65364   1.305   8.715   5.423 -0.7321 -0.1234 -0.3040
  496MOL0     C65365   1.185   8.726   5.483  0.0854  0.7683  0.7462
  496MOL0     C65366   1.073   8.779   5.412  0.5531 -0.1329  0.2818
  496MOL0     C65367   0.944   8.788   5.462  0.6436 -0.3205  0.1147
  496MOL0     C65368   0.924   8.732   5.592 -0.2238  0.1417  0.2073
  496MOL0     C65369   0.795   8.725   5.659 -0.1759  0.5439 -0.1485
  496MOL0     O65370   0.783   8.724   5.798  0.8688  0.1533 -0.3924
  496MOL0     C65371   0.650   8.731   5.838  0.5874  0.6077  0.1572
  496MOL0     C65372   0.595   8.840   5.908  0.0607  0.4058  0.9522
  496MOL0     C65373   0.468   8.838   5.959  0.0255  0.0109 -0.5634
  496MOL0     C65374   0.385   8.724   5.933 -0.2232  0.3587  1.3200
  496MOL0     O65375   0.254   8.710   5.981  0.0825 -0.0233 -0.1974
  496MOL0     C65376   0.199   8.811   6.066 -0.3392 -0.0365 -0.0113
  496MOL0     C65377   0.053   8.790   6.088  0.5308 -0.1307  0.6957
  496MOL0     C65378   0.005   8.648   6.142 -0.4126  0.1520  0.4965
  496MOL0     C65379  -0.141   8.648   6.151  0.9132 -0.3648  0.0866
  496MOL0     C65380  -0.205   8.512   6.163  0.2425  0.3205 -0.9999
  496MOL0     C65381  -0.353   8.502   6.156  1.0131  0.3839 -0.4183
  496MOL0     C65382  -0.425   8.374   6.208 -0.1785 -0.4328  1.1131
  496MOL0     C65383  -0.566   8.361   6.135 -0.3189 -0.2093 -0.2905
  496MOL0    Cl65384  -0.693   8.449   6.220 -0.0854  0.1584 -0.0776
  496MOL0     C65385   0.432   8.618   5.859  0.6834  0.7668 -1.4325
  496MOL0     C65386   0.564   8.619   5.813  0.5469 -0.3119 -0.8845
  496MOL0     O65387   0.700   8.733   5.579  0.3123 -0.8872 -0.6973
  496MOL0     C65388   1.033   8.681   5.661 -0.4301  0.5498  0.0641
  496MOL0     C65389   1.159   8.680   5.607 -0.9853  0.2088 -0.8550
  496MOL0     N65390   1.597   8.941   4.862  0.4886  0.6162  0.3818
  496MOL0     N65391   1.653   8.985   4.752  0.2601 -0.0030 -0.6091
  496MOL0     C65392   2.903   8.973   4.275 -0.4945 -0.1948  0.4855
  496MOL0     C65393   3.043   8.980   4.258  0.3467  0.9640 -0.0398
  496MOL0     C65394   3.427   8.976   3.980 -0.8347  0.5736  0.3862
  496MOL0     C65395   3.438   9.111   3.942  0.0693  0.2598  0.2488
  496MOL0     C65396   3.558   9.164   3.891  0.6071  0.1451 -0.8406
  496MOL0     C65397   3.672   9.079   3.875  0.5389 -0.4188  0.0349
  496MOL0     O65398   3.796   9.116   3.823  0.1486  0.1646 -0.5353
  496MOL0     C65399   3.801   9.241   3.756 -0.0639 -0.3941  0.1672
  496MOL0     C65400   3.943   9.267   3.708  0.5396  0.2561  0.4848
  496MOL0     C65401   3.975   9.412   3.666 -0.0250  0.0284  0.6541
  496MOL0     C65402   3.865   9.474   3.582 -0.3382  0.4264 -0.1902
  496MOL0     C65403   3.905   9.604   3.520  0.1298 -0.3833 -0.2503
  496MOL0     C65404   3.924   9.711   3.461  0.6157 -0.0191  0.3636
  496MOL0     C65405   3.665   8.947   3.915  0.1501 -0.1131 -0.3539
  496MOL0     C65406   3.540   8.903   3.962 -0.0896 -0.2674 -1.1321
  496MOL0     H65407   3.032   8.981   3.914 -2.3384 -0.4704  0.2881
  496MOL0     H65408   2.808   8.969   3.943 -0.3676 -1.8090  0.1207
  496MOL0     H65409   2.615   9.067   4.347 -0.0174 -0.4152 -0.9078
  496MOL0     H65410   2.674   8.902   4.379  0.0219  1.7132  1.3473
  496MOL0     H65411   2.497   8.793   4.243 -1.0714  0.3317 -1.1168
  496MOL0     H65412   2.419   8.951   4.226 -1.3136  2.6992  2.5675
  496MOL0     H65413   2.441   8.945   4.482 -0.9305  0.3328 -0.1609
  496MOL0     H65414   2.440   8.766   4.466 -0.3471 -0.1128  1.3124
  496MOL0     H65415   2.242   8.954   4.343  0.2461 -0.5193  0.2747
  496MOL0     H65416   2.242   8.778   4.324  3.2667  1.0631 -1.4242
  496MOL0     H65417   2.185   8.933   4.587 -0.7990  0.5423  0.6389
  496MOL0     H65418   2.212   8.754   4.565 -4.2189 -0.9956  1.3424
  496MOL0     H65419   2.019   8.712   4.435 -2.1959  1.5713 -0.7502
  496MOL0     H65420   2.001   8.874   4.391  1.2917 -1.9912 -2.1031
  496MOL0     H65421   1.875   8.731   4.580 -0.4255 -0.7568  4.4385
  496MOL0     H65422   2.005   8.768   4.684  0.9305  0.2536 -0.1981
  496MOL0     H65423   1.831   9.001   4.563  1.6898  2.0260 -0.2226
  496MOL0     H65424   1.952   9.020   4.679  1.8216 -0.5829 -1.0546
  496MOL0     H65425   1.866   8.766   4.875 -1.1749  0.2952  4.1844
  496MOL0     H65426   1.721   8.783   5.114  2.7718  1.0583 -2.7416
  496MOL0     H65427   1.635   8.666   5.023 -0.1694  0.0240 -1.2112
  496MOL0     H65428   1.419   8.766   5.023 -0.9498  3.7359 -0.9148
  496MOL0     H65429   1.472   8.912   5.090  1.1771  0.6484 -0.4888
  496MOL0     H65430   1.489   8.637   5.231 -0.6219 -0.1889  1.6593
  496MOL0     H65431   1.532   8.785   5.309  0.1046 -2.1143  1.3268
  496MOL0     H65432   1.275   8.684   5.215 -2.0433  1.6870  0.5865
  496MOL0     H65433   1.283   8.851   5.271 -2.2183 -1.6576 -2.5871
  496MOL0     H65434   1.085   8.806   5.307  0.5579 -1.6789 -0.1468
  496MOL0     H65435   0.861   8.831   5.407 -0.6490 -0.7541  1.6470
  496MOL0     H65436   0.657   8.923   5.941 -2.5008  3.2580 -0.8138
  496MOL0     H65437   0.442   8.928   6.013 -1.2797 -0.0667 -1.0313
  496MOL0     H65438   0.220   8.914   6.036 -0.3537  0.2945  1.0867
  496MOL0     H65439   0.260   8.802   6.157 -1.7884  0.0790  0.9953
  496MOL0     H65440   0.012   8.801   5.987 -0.7051 -3.8331  0.6756
  496MOL0     H65441   0.012   8.870   6.151  1.1184  1.5494 -0.9416
  496MOL0     H65442   0.044   8.642   6.244 -1.4431  0.6699  0.9462
  496MOL0     H65443   0.037   8.566   6.077 -0.4004  2.1439 -2.1660
  496MOL0     H65444  -0.180   8.715   6.228 -1.2701 -2.2843  0.7454
  496MOL0     H65445  -0.176   8.692   6.057  0.1408  2.0438  1.4078
  496MOL0     H65446  -0.166   8.475   6.259  3.9912  1.1395 -2.0347
  496MOL0     H65447  -0.159   8.443   6.092  1.1018 -1.6047  1.2986
  496MOL0     H65448  -0.384   8.533   6.056 -0.6096  2.6728  0.7008
  496MOL0     H65449  -0.379   8.584   6.223  1.4365  0.3579 -0.2156
  496MOL0     H65450  -0.350   8.302   6.172  0.8238  1.4223 -0.7141
  496MOL0     H65451  -0.433   8.380   6.317  0.2222 -1.6345  1.2270
  496MOL0     H65452  -0.600   8.257   6.132 -2.2845  0.4140 -1.7043
  496MOL0     H65453  -0.570   8.394   6.031 -1.5723  1.3278  0.2173
  496MOL0     H65454   0.367   8.536   5.830  1.3508 -0.2490 -0.1119
  496MOL0     H65455   0.611   8.531   5.771  2.0641 -0.3432  0.7962
  496MOL0     H65456   1.031   8.650   5.766 -0.1615  3.9814  1.2057
  496MOL0     H65457   1.247   8.648   5.662 -1.3801  2.8173  1.4896
  496MOL0     H65458   2.863   8.983   4.375 -0.1067  1.9311  0.4810
  496MOL0     H65459   3.112   8.983   4.342  2.9256  1.4049 -2.0611
  496MOL0     H65460   3.349   9.172   3.957  0.2063  0.0966  1.9482
  496MOL0     H65461   3.552   9.269   3.867 -1.0552 -0.0113 -1.2028
  496MOL0     H65462   3.774   9.323   3.824 -1.9430 -1.2382  0.4945
  496MOL0     H65463   3.729   9.226   3.675  2.4543  0.8548 -2.5039
  496MOL0     H65464   4.012   9.244   3.790 -0.6866 -1.5989  1.0454
  496MOL0     H65465   3.962   9.200   3.624 -0.9259 -0.7933  0.9707
  496MOL0     H65466   4.069   9.418   3.610 -0.9380 -2.3422 -1.3222
  496MOL0     H65467   3.977   9.467   3.761 -4.0469  1.1499  0.2422
  496MOL0     H65468   3.838   9.401   3.505 -0.4845  0.1884  0.0852
  496MOL0     H65469   3.772   9.498   3.635  0.0449  0.4254  0.4904
  496MOL0     H65470   3.937   9.807   3.415  0.4750 -0.3808 -0.4371
  496MOL0     H65471   3.749   8.879   3.908  3.0913  3.0379  1.3507
  496MOL0     H65472   3.538   8.799   3.993 -4.1670  0.5123  2.1717
  497MOL0     O65473   4.437   3.461   7.734 -0.1792  0.2361  0.1022
  497MOL0     C65474   4.421   3.428   7.855 -0.7955 -0.3377 -0.5749
  497MOL0     O65475   4.307   3.449   7.933 -0.9632  0.3041  0.5140
  497MOL0     C65476   4.186   3.472   7.872 -0.6426 -0.7902 -0.2519
  497MOL0     C65477   4.135   3.399   7.764 -0.5308 -0.1380 -0.5610
  497MOL0     C65478   4.004   3.411   7.717 -0.1764 -0.0684 -1.2462
  497MOL0     C65479   3.917   3.502   7.784  0.3780  0.4537  0.4261
  497MOL0     O65480   3.787   3.513   7.745  0.5528 -0.4439  0.1387
  497MOL0     C65481   3.707   3.619   7.793  0.7074  0.0453 -0.3028
  497MOL0     C65482   3.570   3.633   7.725 -0.6937  0.3132 -0.1611
  497MOL0     C65483   3.570   3.721   7.592 -0.0931  0.0002  0.4033
  497MOL0     C65484   3.430   3.753   7.538  0.0315 -1.3371  0.5089
  497MOL0     C65485   3.379   3.638   7.454  0.0995 -0.6550  0.0724
  497MOL0     C65486   3.433   3.652   7.305 -0.1825 -0.0894 -0.3128
  497MOL0     C65487   3.380   3.530   7.218 -0.2400  0.0173 -0.5661
  497MOL0     C65488   3.413   3.552   7.069  0.0874 -0.7687 -0.4982
  497MOL0     N65489   3.557   3.574   7.043 -0.4859 -0.7489 -0.2632
  497MOL0     C65490   3.626   3.691   7.051  0.1890  0.5959 -0.2980
  497MOL0     C65491   3.752   3.659   7.004  1.0823  0.2108  0.2031
  497MOL0     C65492   3.857   3.765   6.984  0.0299 -0.0592 -0.3703
  497MOL0     C65493   3.992   3.725   7.044 -0.2516  0.1684  1.4370
  497MOL0     C65494   4.093   3.837   7.014 -0.0629  0.6998  0.1446
  497MOL0     C65495   4.235   3.810   7.070 -0.6158  0.5860  1.0982
  497MOL0     O65496   4.299   3.686   7.035 -0.1275  0.3097  0.7345
  497MOL0     C65497   4.430   3.665   7.072  0.1653 -0.3240  0.1270
  497MOL0     C65498   4.498   3.753   7.169 -0.3099 -0.6669 -0.1022
  497MOL0     C65499   4.631   3.737   7.201 -0.2889  0.4205  0.9018
  497MOL0     C65500   4.694   3.620   7.145 -0.2186  0.1134 -0.0489
  497MOL0     C65501   4.836   3.579   7.194 -0.0129  0.3066 -0.1697
  497MOL0     O65502   4.904   3.670   7.278 -0.1581  0.2274 -0.6038
  497MOL0     C65503   5.019   3.639   7.351  0.5010 -0.8373 -0.1140
  497MOL0     C65504   5.064   3.505   7.373  0.1047 -0.0171  0.7362
  497MOL0     C65505   5.188   3.491   7.437 -0.2703  0.7772 -0.3354
  497MOL0     C65506   5.256   3.604   7.485  0.4742  0.2266 -0.3504
  497MOL0     O65507   5.381   3.598   7.545  0.9485 -0.3185 -0.2966
  497MOL0     C65508   5.405   3.478   7.622  0.2010 -0.6851 -0.8675
  497MOL0     C65509   5.501   3.503   7.738 -1.1496  0.2951 -0.2841
  497MOL0     C65510   5.646   3.546   7.714 -0.0075  0.6414 -0.1245
  497MOL0     C65511   5.706   3.578   7.850  0.2784 -0.5552 -0.1025
  497MOL0     C65512   5.850   3.522   7.878  0.2073  0.3080 -0.0526
  497MOL0     C65513   5.961   3.551   7.782  0.3852 -1.0537 -0.5960
  497MOL0     C65514   6.074   3.448   7.796 -1.4147 -0.0472  0.3620
  497MOL0     C65515   6.161   3.434   7.671  0.2459  0.4649  0.7319
  497MOL0    Cl65516   6.055   3.363   7.543 -0.0759 -0.3281  0.5631
  497MOL0     C65517   5.213   3.727   7.465 -0.2494 -0.4069 -0.1954
  497MOL0     C65518   5.092   3.749   7.399 -0.2284  0.6697  0.7390
  497MOL0     O65519   4.876   3.467   7.168  0.0143 -0.4225 -0.6041
  497MOL0     C65520   4.623   3.530   7.059 -0.0675 -0.6724  0.2676
  497MOL0     C65521   4.492   3.554   7.016 -0.1849  0.0638 -0.0826
  497MOL0     N65522   3.761   3.523   6.980 -0.8600  0.4132  0.2191
  497MOL0     N65523   3.646   3.473   7.006  0.1326  0.1743  0.2165
  497MOL0     C65524   3.968   3.574   7.896  0.0500 -0.3335  0.2307
  497MOL0     C65525   4.095   3.554   7.946  0.5331  0.0665  0.3849
  497MOL0     C65526   4.517   3.343   7.932  0.3249  0.9803 -0.4556
  497MOL0     C65527   4.489   3.303   8.067  0.2875 -0.0792 -0.5966
  497MOL0     C65528   4.569   3.210   8.130  0.0814 -0.1675 -0.2938
  497MOL0     C65529   4.679   3.153   8.061 -0.1507 -0.4659  0.4809
  497MOL0     O65530   4.767   3.055   8.118  0.3940  0.6198  0.5380
  497MOL0     C65531   4.725   3.002   8.244 -0.2172 -0.1403 -0.1894
  497MOL0     C65532   4.830   2.900   8.289 -0.5296 -0.5268 -0.6618
  497MOL0     C65533   4.961   2.973   8.311  0.1215  0.0842  0.3227
  497MOL0     C65534   5.051   2.904   8.415  0.3983  0.2584  0.1515
  497MOL0     C65535   5.049   2.982   8.539  0.2484 -0.0772  0.1839
  497MOL0     C65536   5.072   3.053   8.636  0.4485 -0.6041 -1.3501
  497MOL0     C65537   4.709   3.197   7.926 -0.8158 -0.1772  0.4232
  497MOL0     C65538   4.631   3.299   7.867  0.2984 -0.6519 -0.0365
  497MOL0     H65539   4.201   3.334   7.708  2.8559  0.5826  2.1702
  497MOL0     H65540   3.961   3.357   7.633 -2.9077  0.8887 -0.5486
  497MOL0     H65541   3.771   3.707   7.786  2.2316 -1.1280 -1.9395
  497MOL0     H65542   3.688   3.590   7.897  0.0074 -2.3533 -1.0263
  497MOL0     H65543   3.494   3.673   7.793 -1.9299 -0.7258 -0.8854
  497MOL0     H65544   3.537   3.529   7.714 -0.6469  0.3982 -1.1466
  497MOL0     H65545   3.625   3.657   7.522  0.4130 -2.3405  2.7915
  497MOL0     H65546   3.624   3.816   7.592  1.1498 -0.6782  1.1708
  497MOL0     H65547   3.368   3.772   7.625  0.5903 -0.1307  0.6716
  497MOL0     H65548   3.449   3.845   7.481  1.8209 -1.5178  0.7338
  497MOL0     H65549   3.270   3.641   7.459  0.0372 -1.1427  5.8379
  497MOL0     H65550   3.407   3.539   7.493  0.0778 -0.4340  0.6520
  497MOL0     H65551   3.542   3.644   7.302 -0.2894 -4.2442  0.7698
  497MOL0     H65552   3.401   3.749   7.265 -0.2795  0.9974  2.1971
  497MOL0     H65553   3.413   3.435   7.259  0.4317 -0.0494 -1.2268
  497MOL0     H65554   3.271   3.533   7.220 -0.2408  1.1826 -1.2137
  497MOL0     H65555   3.362   3.641   7.034  1.8000  1.2598  1.8045
  497MOL0     H65556   3.375   3.467   7.012 -1.8207 -0.4840  0.2961
  497MOL0     H65557   3.585   3.784   7.088  1.9614 -0.0997  3.9659
  497MOL0     H65558   3.833   3.853   7.045 -2.1763 -1.3882  0.7824
  497MOL0     H65559   3.866   3.798   6.881  1.0185  0.0415 -0.2587
  497MOL0     H65560   4.009   3.638   6.981 -0.4608  1.5313 -0.5837
  497MOL0     H65561   3.980   3.693   7.148 -1.7777  2.1667  1.9160
  497MOL0     H65562   4.117   3.855   6.909  0.8743 -0.2619  0.1794
  497MOL0     H65563   4.058   3.934   7.051  0.2623  1.5968 -1.7509
  497MOL0     H65564   4.233   3.811   7.179 -0.5965  0.8990  1.0952
  497MOL0     H65565   4.307   3.883   7.031  2.7314 -3.6306 -1.5653
  497MOL0     H65566   4.451   3.850   7.187 -0.2244  0.1776 -3.5719
  497MOL0     H65567   4.681   3.797   7.276  0.8345  1.5067 -0.6536
  497MOL0     H65568   5.016   3.410   7.352  0.2312  0.5948 -3.0566
  497MOL0     H65569   5.223   3.390   7.454  1.6891  1.2494 -1.2900
  497MOL0     H65570   5.432   3.394   7.558 -0.4294  0.1181 -2.2364
  497MOL0     H65571   5.315   3.438   7.670  1.4119 -2.1221  0.2983
  497MOL0     H65572   5.498   3.416   7.805 -0.1503  2.3535  2.6422
  497MOL0     H65573   5.449   3.583   7.793 -3.4968 -1.3514  0.0690
  497MOL0     H65574   5.654   3.623   7.637  2.6710  1.4635  0.8760
  497MOL0     H65575   5.695   3.457   7.674  1.3389  2.2702 -2.3191
  497MOL0     H65576   5.717   3.686   7.859 -1.9071 -0.3354  0.4975
  497MOL0     H65577   5.638   3.543   7.928  1.4007  1.3945  1.8387
  497MOL0     H65578   5.834   3.414   7.871 -2.2549  0.4790  1.5889
  497MOL0     H65579   5.876   3.546   7.981  1.0519 -0.5119 -0.0646
  497MOL0     H65580   6.003   3.650   7.801 -2.8662 -0.0433  2.5662
  497MOL0     H65581   5.921   3.564   7.681  0.5455 -0.0033 -0.5406
  497MOL0     H65582   6.147   3.459   7.877 -0.8913 -0.6093 -0.0211
  497MOL0     H65583   6.014   3.358   7.816 -2.2342  0.1243 -1.2057
  497MOL0     H65584   6.238   3.361   7.700 -1.2645 -1.6562 -0.3393
  497MOL0     H65585   6.196   3.527   7.625  2.3257 -0.1992  0.8548
  497MOL0     H65586   5.261   3.806   7.523 -1.9443 -0.2133  1.0000
  497MOL0     H65587   5.056   3.850   7.385 -2.1133  0.4981  3.6632
  497MOL0     H65588   4.670   3.439   7.023 -0.8285 -0.5132 -1.2119
  497MOL0     H65589   4.437   3.487   6.951 -1.4188  1.7133 -0.8410
  497MOL0     H65590   3.906   3.654   7.937 -1.3757 -0.3842 -1.6777
  497MOL0     H65591   4.139   3.605   8.031  1.9708  1.8999 -1.3564
  497MOL0     H65592   4.402   3.334   8.124  0.4437 -0.3267 -0.2182
  497MOL0     H65593   4.538   3.188   8.231 -2.1238 -1.0059 -1.1007
  497MOL0     H65594   4.630   2.950   8.231 -1.8623  3.2416 -4.1852
  497MOL0     H65595   4.709   3.082   8.317 -3.9485 -0.1088 -0.8911
  497MOL0     H65596   4.799   2.844   8.377  0.5692  1.9944  1.4692
  497MOL0     H65597   4.846   2.838   8.200  0.9732  0.8152 -1.3861
  497MOL0     H65598   4.955   3.077   8.345 -0.5170  1.0077 -2.3584
  497MOL0     H65599   5.009   2.977   8.213 -1.3510  2.5998 -0.3857
  497MOL0     H65600   5.034   2.796   8.424 -1.0381  0.5194  0.8589
  497MOL0     H65601   5.151   2.903   8.370  0.7631 -1.0711  0.9407
  497MOL0     H65602   5.096   3.118   8.717 -3.3609  1.0771 -1.3669
  497MOL0     H65603   4.800   3.161   7.879 -0.8286 -1.1584  1.1251
  497MOL0     H65604   4.650   3.330   7.764 -0.0436 -1.7221 -0.4409
  498MOL0     O65605   6.205   1.233   1.787  0.5161 -0.5576  0.2665
  498MOL0     C65606   6.263   1.254   1.677  0.3447  0.0942  0.8540
  498MOL0     O65607   6.208   1.305   1.562  0.6806 -0.3635  0.4151
  498MOL0     C65608   6.083   1.361   1.568  0.3655 -0.3906  0.5293
  498MOL0     C65609   6.072   1.489   1.511  0.4104  0.0149  0.8767
  498MOL0     C65610   5.957   1.560   1.518  0.6954  1.1402 -0.5048
  498MOL0     C65611   5.839   1.498   1.566  0.5930 -0.3088 -0.1880
  498MOL0     O65612   5.727   1.570   1.562  0.0622 -0.3817  0.3155
  498MOL0     C65613   5.615   1.524   1.638 -0.1204  0.6506 -0.0656
  498MOL0     C65614   5.509   1.629   1.654 -0.3130  0.1216  0.0281
  498MOL0     C65615   5.393   1.579   1.741  0.3283  0.1318  0.6799
  498MOL0     C65616   5.283   1.680   1.746  0.4579 -1.0059 -0.0162
  498MOL0     C65617   5.166   1.654   1.848  0.2708  0.0030 -0.5237
  498MOL0     C65618   5.073   1.538   1.810 -0.4572  0.1271 -1.2357
  498MOL0     C65619   4.947   1.539   1.891 -0.5875 -0.5315 -0.5533
  498MOL0     C65620   4.851   1.415   1.848  0.7365 -0.2902 -0.3900
  498MOL0     N65621   4.720   1.417   1.927  0.3125  0.4943 -0.2620
  498MOL0     C65622   4.607   1.496   1.915 -0.1289 -0.3181  0.2693
  498MOL0     C65623   4.512   1.468   2.008 -0.9074 -0.0434 -0.8164
  498MOL0     C65624   4.378   1.532   2.014  0.1645 -0.1918 -0.6309
  498MOL0     C65625   4.309   1.495   2.145  0.3028 -0.7211  0.1166
  498MOL0     C65626   4.239   1.611   2.198 -0.4342 -0.2292 -1.0832
  498MOL0     C65627   4.157   1.574   2.328 -0.4024  0.0288  0.9434
  498MOL0     O65628   4.097   1.696   2.367 -0.1618 -0.2151 -0.4776
  498MOL0     C65629   3.995   1.669   2.461  0.2877  0.7234 -0.4031
  498MOL0     C65630   4.013   1.609   2.583 -0.3194 -0.2765  0.0049
  498MOL0     C65631   3.905   1.578   2.672 -0.5892  0.0036  0.5989
  498MOL0     C65632   3.776   1.625   2.632  0.0718  0.1923 -0.3310
  498MOL0     C65633   3.659   1.593   2.707  0.8475  0.3674  0.0338
  498MOL0     O65634   3.544   1.672   2.677 -0.5783 -0.0593 -0.0624
  498MOL0     C65635   3.425   1.648   2.735 -0.5910 -0.2850 -0.0922
  498MOL0     C65636   3.400   1.591   2.857 -0.3227 -0.8514 -0.4201
  498MOL0     C65637   3.268   1.560   2.894  0.2580  0.1497  0.0071
  498MOL0     C65638   3.164   1.595   2.809  0.2694 -0.6699 -1.0707
  498MOL0     O65639   3.031   1.573   2.856  0.1457 -0.1472 -0.0205
  498MOL0     C65640   2.927   1.556   2.756  0.9910  0.1744 -0.0220
  498MOL0     C65641   2.815   1.472   2.814  0.3190  0.6771 -0.8664
  498MOL0     C65642   2.850   1.326   2.813 -0.4501  0.0636  0.0009
  498MOL0     C65643   2.718   1.241   2.799  0.0351  0.5132  0.8106
  498MOL0     C65644   2.765   1.095   2.773  0.6624 -0.2218 -0.2083
  498MOL0     C65645   2.846   1.071   2.640  0.6648 -0.0724 -0.8326
  498MOL0     C65646   2.779   1.129   2.512  0.1451  0.9407 -0.5300
  498MOL0     C65647   2.850   1.077   2.386  0.5518 -0.7356 -0.4286
  498MOL0    Cl65648   2.815   0.903   2.351 -0.3865  0.1227  0.1205
  498MOL0     C65649   3.189   1.683   2.706 -0.7670  0.9301  0.1312
  498MOL0     C65650   3.324   1.697   2.658  0.6121  0.3247 -0.1372
  498MOL0     O65651   3.672   1.507   2.794  0.2344 -0.0924 -0.0767
  498MOL0     C65652   3.759   1.695   2.514  0.0058  0.2863 -0.3354
  498MOL0     C65653   3.866   1.716   2.431 -0.1196  0.0832 -0.1475
  498MOL0     N65654   4.567   1.366   2.080 -0.1259  0.8163  0.1506
  498MOL0     N65655   4.685   1.340   2.039 -0.4608  0.4086  0.5979
  498MOL0     C65656   5.852   1.370   1.613 -0.5439  0.6737  0.2792
  498MOL0     C65657   5.967   1.292   1.623  0.0412 -0.3872  0.3141
  498MOL0     C65658   6.410   1.237   1.665 -0.1268  0.3659  0.7719
  498MOL0     C65659   6.490   1.173   1.762 -0.1589 -0.9815 -0.0032
  498MOL0     C65660   6.624   1.155   1.748 -0.5343 -0.3894  0.3398
  498MOL0     C65661   6.694   1.214   1.642  0.9846 -1.8141  0.2970
  498MOL0     O65662   6.830   1.210   1.618  0.2808 -0.1890  0.7828
  498MOL0     C65663   6.899   1.091   1.674  0.1304  0.4824  0.8586
  498MOL0     C65664   7.030   1.094   1.609 -0.1540 -0.0254  0.2839
  498MOL0     C65665   7.111   0.967   1.623 -0.1722 -0.0197 -0.2658
  498MOL0     C65666   7.251   0.992   1.563 -0.1536 -1.1322  0.1937
  498MOL0     C65667   7.331   0.868   1.548  0.5099 -0.1652  0.1445
  498MOL0     C65668   7.406   0.775   1.515  0.2952 -0.1017 -0.8379
  498MOL0     C65669   6.622   1.296   1.549 -0.0687 -1.1838 -0.1154
  498MOL0     C65670   6.480   1.289   1.550 -0.1223 -1.4303  0.9145
  498MOL0     H65671   6.159   1.535   1.464  2.1780 -1.9040  2.0343
  498MOL0     H65672   5.953   1.664   1.486  1.0937  0.9203 -1.2976
  498MOL0     H65673   5.654   1.490   1.734  3.8752  0.2401 -1.6405
  498MOL0     H65674   5.570   1.443   1.580 -1.7546 -0.2166  2.2733
  498MOL0     H65675   5.481   1.657   1.552  1.5933  0.2026 -0.5203
  498MOL0     H65676   5.554   1.718   1.699  0.1415 -2.2365  4.9071
  498MOL0     H65677   5.435   1.568   1.841  0.0151 -1.0758  0.6985
  498MOL0     H65678   5.355   1.486   1.696 -1.2207 -0.0647  2.2666
  498MOL0     H65679   5.326   1.775   1.781 -1.1904  0.9040 -2.7298
  498MOL0     H65680   5.232   1.707   1.653  0.4265  1.5762  0.6609
  498MOL0     H65681   5.101   1.740   1.867 -0.2961 -0.6115  0.3465
  498MOL0     H65682   5.207   1.630   1.946 -1.2943 -0.1604  0.1278
  498MOL0     H65683   5.134   1.447   1.808 -1.2797 -0.5670  1.2667
  498MOL0     H65684   5.039   1.547   1.706 -0.6086 -0.7706 -1.2726
  498MOL0     H65685   4.973   1.521   1.996 -0.4960 -0.5958 -0.5866
  498MOL0     H65686   4.898   1.634   1.868  2.1217  0.7040 -1.6686
  498MOL0     H65687   4.908   1.324   1.867 -0.3282 -0.6126  1.5218
  498MOL0     H65688   4.821   1.408   1.744 -0.1843  1.8149 -0.3208
  498MOL0     H65689   4.594   1.565   1.831 -2.1966 -1.9066 -0.8118
  498MOL0     H65690   4.314   1.497   1.932 -1.5291 -1.0560  0.9749
  498MOL0     H65691   4.397   1.639   2.002 -0.4178 -0.0906 -0.6902
  498MOL0     H65692   4.383   1.462   2.218  1.0992 -0.6026 -0.6243
  498MOL0     H65693   4.224   1.427   2.128 -1.9319  1.1800  2.8193
  498MOL0     H65694   4.305   1.695   2.222  1.6128 -1.0829 -3.3373
  498MOL0     H65695   4.165   1.645   2.124 -1.3828 -2.8819 -1.4472
  498MOL0     H65696   4.233   1.543   2.401  0.3008  0.3076  0.3410
  498MOL0     H65697   4.077   1.501   2.310  0.5313 -1.0444  1.0099
  498MOL0     H65698   4.109   1.579   2.622 -0.7873 -1.4077  0.3430
  498MOL0     H65699   3.939   1.529   2.762  0.7787 -0.0255  0.0956
  498MOL0     H65700   3.482   1.550   2.916 -1.9122  0.5210  2.9573
  498MOL0     H65701   3.260   1.499   2.984 -1.1879  1.4236  0.7792
  498MOL0     H65702   2.968   1.499   2.672  0.0029 -0.3036 -0.1819
  498MOL0     H65703   2.891   1.648   2.709 -2.4317 -1.4641 -0.9290
  498MOL0     H65704   2.723   1.490   2.759  1.5594  1.6339 -2.7440
  498MOL0     H65705   2.796   1.508   2.916  3.2127 -1.9706  0.7801
  498MOL0     H65706   2.910   1.295   2.899  1.2764  1.8865 -0.4588
  498MOL0     H65707   2.917   1.321   2.727  0.0870 -0.1354  0.4251
  498MOL0     H65708   2.660   1.239   2.892 -1.3338  0.4783 -0.0049
  498MOL0     H65709   2.653   1.271   2.717  2.2910 -0.7165 -1.5516
  498MOL0     H65710   2.680   1.027   2.759  0.9216 -1.0163  1.8151
  498MOL0     H65711   2.832   1.064   2.853 -0.2678  1.7809  1.4314
  498MOL0     H65712   2.863   0.963   2.632  0.4334 -0.0899 -1.1107
  498MOL0     H65713   2.947   1.110   2.652  1.0684 -0.9552 -1.2692
  498MOL0     H65714   2.672   1.110   2.495 -0.0765 -0.7678  2.2606
  498MOL0     H65715   2.803   1.236   2.517  6.0805 -0.1150  0.4455
  498MOL0     H65716   2.956   1.093   2.407 -0.1501  2.5018  1.2191
  498MOL0     H65717   2.824   1.132   2.296 -0.8008  0.1468  0.4742
  498MOL0     H65718   3.110   1.728   2.647 -0.5476  0.4484 -0.5363
  498MOL0     H65719   3.340   1.755   2.567  0.3870 -2.3696 -2.0255
  498MOL0     H65720   3.667   1.750   2.497 -1.1491 -1.1861  0.8796
  498MOL0     H65721   3.852   1.769   2.337 -2.3866 -1.6408 -0.8770
  498MOL0     H65722   5.772   1.319   1.667 -1.1549 -0.7885 -1.8861
  498MOL0     H65723   5.974   1.194   1.670  2.2435 -1.2724 -1.6378
  498MOL0     H65724   6.439   1.127   1.847  2.1675 -0.3025  1.8549
  498MOL0     H65725   6.672   1.096   1.825  0.1505  1.4276  1.3588
  498MOL0     H65726   6.840   1.000   1.657 -0.2028  0.7618  0.4755
  498MOL0     H65727   6.911   1.102   1.782  3.1501 -0.3370  0.6903
  498MOL0     H65728   7.015   1.105   1.501  0.5051  2.6055  0.3883
  498MOL0     H65729   7.090   1.177   1.646  2.2812 -1.5876  0.0825
  498MOL0     H65730   7.046   0.897   1.568  0.3130  0.4177 -1.4237
  498MOL0     H65731   7.106   0.933   1.727 -0.5179 -1.3448 -0.6876
  498MOL0     H65732   7.247   1.046   1.468  1.1101  1.5531  1.5634
  498MOL0     H65733   7.309   1.054   1.632  1.5021  0.8426 -2.7535
  498MOL0     H65734   7.478   0.701   1.486 -0.5934 -0.9952 -0.8234
  498MOL0     H65735   6.666   1.345   1.463  0.5955 -1.7470 -0.1073
  498MOL0     H65736   6.435   1.337   1.464  2.5574 -0.4907 -0.0620
  499MOL0     O65737   8.376   9.691   8.041 -0.8341 -0.0253  0.9922
  499MOL0     C65738   8.442   9.614   8.109 -0.4001  0.6231 -0.4162
  499MOL0     O65739   8.386   9.498   8.165 -0.1134 -0.2434  0.1524
  499MOL0     C65740   8.277   9.443   8.104  1.3481  0.0044  0.0560
  499MOL0     C65741   8.156   9.434   8.179  0.1920  0.2207 -0.4053
  499MOL0     C65742   8.041   9.394   8.123  0.6235  0.6082 -0.1963
  499MOL0     C65743   8.047   9.335   7.990  0.1001  0.1452 -0.3977
  499MOL0     O65744   7.933   9.273   7.940  0.1748  0.2736 -1.0409
  499MOL0     C65745   7.930   9.243   7.801  0.7327  0.3855  0.0803
  499MOL0     C65746   7.813   9.144   7.778  0.5783  0.4001  0.1277
  499MOL0     C65747   7.675   9.201   7.820  0.5010  0.0806 -0.6956
  499MOL0     C65748   7.635   9.169   7.963  0.7021 -0.4323 -0.5377
  499MOL0     C65749   7.491   9.212   7.985 -0.3179  0.3868 -0.3611
  499MOL0     C65750   7.457   9.354   7.967  0.1582 -0.2896 -0.0969
  499MOL0     C65751   7.298   9.383   7.972  0.1717 -0.4398 -0.2846
  499MOL0     C65752   7.256   9.415   8.119 -0.1860 -0.0174 -0.4428
  499MOL0     N65753   7.108   9.409   8.139  0.7993 -0.4534 -1.0311
  499MOL0     C65754   7.030   9.341   8.234  0.2938 -0.3877 -0.5668
  499MOL0     C65755   6.902   9.384   8.217 -0.1764  0.0639  0.6550
  499MOL0     C65756   6.778   9.333   8.300 -1.3224 -0.2191  0.2715
  499MOL0     C65757   6.644   9.328   8.230  0.6682  0.4290 -0.2220
  499MOL0     C65758   6.538   9.278   8.325  0.3734  0.1414  0.1684
  499MOL0     C65759   6.401   9.239   8.265  0.4666  0.7336 -0.4076
  499MOL0     O65760   6.297   9.222   8.365  0.3159 -0.2046 -0.8528
  499MOL0     C65761   6.171   9.177   8.336  0.5986  0.2861 -0.8904
  499MOL0     C65762   6.075   9.190   8.445 -0.4104  0.3987  0.1113
  499MOL0     C65763   5.940   9.161   8.416 -0.2257  0.0408  0.6611
  499MOL0     C65764   5.903   9.131   8.276 -0.3294  1.0146  0.2966
  499MOL0     C65765   5.764   9.094   8.228  0.0454 -0.7435 -0.1158
  499MOL0     O65766   5.752   9.031   8.105 -0.0054 -0.0828 -0.4529
  499MOL0     C65767   5.631   8.977   8.063 -0.6959 -1.2040  0.2871
  499MOL0     C65768   5.506   8.972   8.126  0.3345 -0.1582  0.2122
  499MOL0     C65769   5.395   8.915   8.063 -0.4676 -0.0605  0.0313
  499MOL0     C65770   5.409   8.861   7.933  1.2201 -0.6094 -0.3287
  499MOL0     O65771   5.308   8.804   7.856 -0.2473  0.2590  0.0090
  499MOL0     C65772   5.172   8.838   7.884 -0.3993 -0.3269 -0.5491
  499MOL0     C65773   5.073   8.756   7.804 -0.1464 -0.0043  0.9086
  499MOL0     C65774   4.942   8.772   7.882 -0.4877 -0.0963 -0.4024
  499MOL0     C65775   4.831   8.707   7.800  0.5627  0.3782 -0.6877
  499MOL0     C65776   4.686   8.737   7.855 -0.4986  0.4388 -0.3065
  499MOL0     C65777   4.577   8.652   7.785  0.0606 -0.2863 -0.8820
  499MOL0     C65778   4.439   8.715   7.826  1.1488 -0.1196 -0.0894
  499MOL0     C65779   4.325   8.642   7.754  0.1830  0.0552 -0.8219
  499MOL0    Cl65780   4.164   8.690   7.801  0.2018  0.3315 -0.4186
  499MOL0     C65781   5.528   8.873   7.874  0.2418 -0.4177  0.2523
  499MOL0     C65782   5.638   8.931   7.933 -0.7630  0.2962 -0.2291
  499MOL0     O65783   5.671   9.116   8.308  0.3146  0.1444 -0.0932
  499MOL0     C65784   6.004   9.119   8.183  0.0982 -0.7229  0.2390
  499MOL0     C65785   6.133   9.145   8.205 -0.5512 -0.0090 -0.7782
  499MOL0     N65786   6.907   9.487   8.119 -0.6071  1.0482 -0.4276
  499MOL0     N65787   7.024   9.500   8.078  0.5165  1.2642  0.9589
  499MOL0     C65788   8.166   9.351   7.919 -0.4533 -0.5584  0.2194
  499MOL0     C65789   8.283   9.414   7.964 -0.2189  1.1549  0.2154
  499MOL0     C65790   8.589   9.629   8.124 -0.3231  0.3096 -0.2381
  499MOL0     C65791   8.651   9.739   8.075 -0.2961 -0.6579 -0.0834
  499MOL0     C65792   8.786   9.756   8.090 -0.4583  0.6592 -0.0734
  499MOL0     C65793   8.868   9.672   8.158 -0.4534 -0.0166 -0.8444
  499MOL0     O65794   8.998   9.713   8.184  0.1027  0.7315  0.4180
  499MOL0     C65795   9.092   9.609   8.221 -0.0830 -0.5077  0.0555
  499MOL0     C65796   9.234   9.657   8.197 -0.5500 -0.4299 -0.4046
  499MOL0     C65797   9.275   9.767   8.301  0.7155 -0.5113  0.9767
  499MOL0     C65798   9.404   9.818   8.267 -0.5720 -0.2625  0.3152
  499MOL0     C65799   9.459   9.927   8.341 -0.2930 -0.2345 -0.3847
  499MOL0     C65800   9.503  10.029   8.401 -0.1730 -0.0513  1.1260
  499MOL0     C65801   8.806   9.556   8.212 -0.2034 -0.3060  0.1006
  499MOL0     C65802   8.671   9.534   8.192  0.5076  1.5332  0.8782
  499MOL0     H65803   8.144   9.457   8.284 -0.6390 -1.9326  0.0202
  499MOL0     H65804   7.947   9.392   8.178  0.8445  0.6862  0.1888
  499MOL0     H65805   8.027   9.205   7.767  0.9845  0.9556  0.1478
  499MOL0     H65806   7.909   9.333   7.741 -2.5883  0.5619  1.2845
  499MOL0     H65807   7.838   9.048   7.825 -1.3042  0.5320  1.5239
  499MOL0     H65808   7.813   9.122   7.671  2.6081  1.3824 -0.1215
  499MOL0     H65809   7.608   9.147   7.751  2.6956 -2.3957 -1.0628
  499MOL0     H65810   7.667   9.306   7.791 -0.7087 -0.5044 -2.7236
  499MOL0     H65811   7.661   9.065   7.983  3.2776 -0.1424 -1.8649
  499MOL0     H65812   7.702   9.229   8.025  2.4461 -2.7005 -0.1189
  499MOL0     H65813   7.464   9.178   8.085 -1.2523 -1.4699 -1.1901
  499MOL0     H65814   7.432   9.155   7.912 -0.6034  0.4510 -0.1782
  499MOL0     H65815   7.486   9.379   7.865  1.5822  1.5029  0.7002
  499MOL0     H65816   7.510   9.416   8.040 -1.5418  1.1542 -0.0078
  499MOL0     H65817   7.262   9.470   7.917  3.8374  1.7289  0.3908
  499MOL0     H65818   7.253   9.292   7.932  1.5558 -1.0648 -0.4900
  499MOL0     H65819   7.286   9.516   8.149  1.4163 -0.3064 -0.9849
  499MOL0     H65820   7.300   9.340   8.184 -0.8630 -0.2769 -0.2709
  499MOL0     H65821   7.065   9.271   8.310 -1.0834  0.2714  0.7372
  499MOL0     H65822   6.773   9.409   8.378  2.8167  1.2123 -0.6238
  499MOL0     H65823   6.808   9.235   8.338  2.6878 -0.2137 -2.2974
  499MOL0     H65824   6.649   9.256   8.148 -2.0532 -0.7897  0.5845
  499MOL0     H65825   6.610   9.429   8.204 -0.6138  0.3365  0.9759
  499MOL0     H65826   6.566   9.183   8.372 -1.7101  0.4864  2.3273
  499MOL0     H65827   6.519   9.348   8.407 -1.9201  0.0570 -0.2172
  499MOL0     H65828   6.403   9.150   8.202 -1.9391 -0.3763  0.9490
  499MOL0     H65829   6.361   9.324   8.209 -0.9443  0.1432 -0.3333
  499MOL0     H65830   6.109   9.232   8.539  3.4450 -0.8948 -0.5094
  499MOL0     H65831   5.862   9.168   8.491 -0.1820 -0.9474  0.8062
  499MOL0     H65832   5.492   9.027   8.218  0.6576  2.8643 -1.4034
  499MOL0     H65833   5.296   8.929   8.106 -0.4653  3.2885 -0.7919
  499MOL0     H65834   5.155   8.944   7.863  0.2674  0.3954  2.1657
  499MOL0     H65835   5.144   8.808   7.985  1.5281 -0.9271 -0.1521
  499MOL0     H65836   5.108   8.653   7.803 -2.3643 -0.8187 -0.1876
  499MOL0     H65837   5.062   8.797   7.703 -1.8185 -0.6207  0.8173
  499MOL0     H65838   4.929   8.875   7.917 -3.5884 -0.5497  0.0701
  499MOL0     H65839   4.953   8.719   7.977  5.8349 -0.6508 -1.0231
  499MOL0     H65840   4.828   8.739   7.696  0.0532 -1.8327 -1.4088
  499MOL0     H65841   4.849   8.599   7.805  2.6627  0.7271  3.4468
  499MOL0     H65842   4.657   8.841   7.839 -0.8932  0.1424 -1.7619
  499MOL0     H65843   4.694   8.710   7.960  0.0467 -2.8972 -1.0671
  499MOL0     H65844   4.594   8.548   7.815  1.8583  0.0831 -0.5122
  499MOL0     H65845   4.593   8.650   7.677  2.3647 -1.8660 -0.5921
  499MOL0     H65846   4.414   8.699   7.931  2.4738  1.3265  0.4847
  499MOL0     H65847   4.435   8.819   7.792 -1.9768 -0.5800 -1.4808
  499MOL0     H65848   4.324   8.533   7.769 -1.3393 -0.0611 -1.4934
  499MOL0     H65849   4.328   8.657   7.645 -4.0886  0.3488 -1.0853
  499MOL0     H65850   5.541   8.839   7.771  1.0247  0.4567  0.0427
  499MOL0     H65851   5.732   8.928   7.878 -1.2959 -0.0950 -1.1364
  499MOL0     H65852   5.976   9.083   8.084 -1.7210 -0.1528  0.5024
  499MOL0     H65853   6.200   9.142   8.120  0.9522  1.7203  0.2642
  499MOL0     H65854   8.172   9.331   7.812  0.7686  1.4124 -0.1390
  499MOL0     H65855   8.367   9.424   7.896 -0.5772  1.7432 -0.1519
  499MOL0     H65856   8.595   9.813   8.019  2.8406  0.3560 -2.1246
  499MOL0     H65857   8.840   9.845   8.059  0.1233 -0.2348 -1.8093
  499MOL0     H65858   9.078   9.519   8.160 -0.2327  1.2990 -2.7632
  499MOL0     H65859   9.076   9.585   8.327  0.4283 -0.7516  0.0841
  499MOL0     H65860   9.289   9.565   8.218 -0.9521 -0.9650 -1.6000
  499MOL0     H65861   9.242   9.694   8.095 -2.9259 -1.6800 -1.1344
  499MOL0     H65862   9.268   9.712   8.395 -1.4736 -4.1108 -1.0630
  499MOL0     H65863   9.202   9.849   8.295 -0.1076 -1.2901 -0.1243
  499MOL0     H65864   9.473   9.734   8.278  0.3008  0.0299 -2.2373
  499MOL0     H65865   9.410   9.837   8.159  0.1744  1.0460  0.5661
  499MOL0     H65866   9.532  10.118   8.453  0.0908 -0.5993  1.9299
  499MOL0     H65867   8.856   9.483   8.276 -3.2542 -1.6386  1.1803
  499MOL0     H65868   8.637   9.434   8.215 -1.3698  2.0856  0.6649
  500MOL0     O65869   9.597   8.156   6.853  0.2518  0.2941 -0.6255
  500MOL0     C65870   9.578   8.145   6.976 -0.4882  0.2447 -0.2644
  500MOL0     O65871   9.452   8.130   7.038 -0.3798  0.3576  0.7693
  500MOL0     C65872   9.350   8.204   6.971 -0.5502  0.6239  0.0664
  500MOL0     C65873   9.253   8.137   6.888 -0.5401 -0.4194 -0.0416
  500MOL0     C65874   9.144   8.204   6.828  0.8550  0.1640 -0.3234
  500MOL0     C65875   9.134   8.339   6.851 -0.2324 -0.0701 -0.9485
  500MOL0     O65876   9.026   8.402   6.790  0.1855 -0.4343  0.0510
  500MOL0     C65877   9.038   8.548   6.760  0.6318 -0.1552  0.2997
  500MOL0     C65878   8.953   8.579   6.633 -0.7153  0.5538 -0.5224
  500MOL0     C65879   8.809   8.598   6.663 -0.1191  0.0961  0.1662
  500MOL0     C65880   8.756   8.673   6.539  0.8028  0.2082  0.6477
  500MOL0     C65881   8.604   8.700   6.542  0.5999  0.8122  0.3210
  500MOL0     C65882   8.532   8.600   6.446 -0.4608 -0.0510  0.0541
  500MOL0     C65883   8.386   8.633   6.400 -0.0573  0.4957  0.2647
  500MOL0     C65884   8.344   8.542   6.282  0.0604 -0.3040  0.2092
  500MOL0     N65885   8.218   8.592   6.217 -0.6314  0.3913  0.7078
  500MOL0     C65886   8.124   8.513   6.159  0.0241 -0.3837  0.3714
  500MOL0     C65887   8.034   8.599   6.110 -0.0413  0.0213 -0.1380
  500MOL0     C65888   7.914   8.560   6.027  0.1436 -0.9069  0.4160
  500MOL0     C65889   7.782   8.611   6.085 -0.3370  0.1365  0.1152
  500MOL0     C65890   7.655   8.542   6.025 -0.3894  0.0543  0.8025
  500MOL0     C65891   7.646   8.543   5.880 -0.1753  0.1255 -0.6033
  500MOL0     O65892   7.672   8.675   5.827 -0.5381 -0.4444 -0.1746
  500MOL0     C65893   7.570   8.750   5.767  0.5413  0.4239 -0.1608
  500MOL0     C65894   7.602   8.857   5.672 -0.4779  0.1830 -0.3088
  500MOL0     C65895   7.501   8.912   5.594  0.4422  0.2554  0.2861
  500MOL0     C65896   7.365   8.892   5.625 -1.1897  0.3361 -0.5048
  500MOL0     C65897   7.258   8.959   5.547  0.2472  0.5413 -0.6838
  500MOL0     O65898   7.277   9.059   5.461  0.6064 -0.0585  0.0331
  500MOL0     C65899   7.173   9.124   5.401  0.3311 -0.9690  0.1195
  500MOL0     C65900   7.146   9.252   5.458  0.6640  0.2835 -0.0038
  500MOL0     C65901   7.032   9.326   5.409 -0.0261  0.4655  0.9491
  500MOL0     C65902   6.938   9.264   5.317  0.7188 -0.1142 -0.0305
  500MOL0     O65903   6.820   9.327   5.307 -0.3027  0.3875 -0.6104
  500MOL0     C65904   6.777   9.328   5.171 -0.4240 -0.7994 -0.4054
  500MOL0     C65905   6.636   9.390   5.182 -0.4654  0.1296  0.5430
  500MOL0     C65906   6.568   9.381   5.044 -1.0029  0.6520 -0.2373
  500MOL0     C65907   6.440   9.464   5.023 -0.1343  0.1620 -0.7687
  500MOL0     C65908   6.385   9.458   4.880 -0.4991  0.1871 -0.6800
  500MOL0     C65909   6.302   9.571   4.851  0.2354  0.1569  0.9685
  500MOL0     C65910   6.238   9.543   4.704 -1.1538 -0.7857 -0.0172
  500MOL0     C65911   6.091   9.547   4.691  0.1761 -0.7071  0.1647
  500MOL0    Cl65912   6.008   9.414   4.778 -0.3667  0.0496 -0.1681
  500MOL0     C65913   6.976   9.137   5.256 -0.7967 -0.3568 -0.2873
  500MOL0     C65914   7.096   9.070   5.294 -0.0941  0.9530 -0.3057
  500MOL0     O65915   7.150   8.923   5.585  0.5313 -1.2462 -0.0491
  500MOL0     C65916   7.341   8.799   5.725  0.6421 -0.5992  0.4326
  500MOL0     C65917   7.436   8.730   5.792  0.5540 -0.2727  0.9065
  500MOL0     N65918   8.074   8.724   6.134 -0.6075 -0.5102  0.3988
  500MOL0     N65919   8.188   8.719   6.192  0.4550  0.2639  0.6905
  500MOL0     C65920   9.232   8.404   6.936  0.4297  0.4986 -0.9009
  500MOL0     C65921   9.339   8.333   6.998 -0.3301 -0.3117  0.7417
  500MOL0     C65922   9.699   8.146   7.065  0.0555 -0.0921  0.7585
  500MOL0     C65923   9.687   8.176   7.201 -0.8019  0.4370  0.2842
  500MOL0     C65924   9.806   8.180   7.284  0.5699 -0.2750 -0.3640
  500MOL0     C65925   9.931   8.164   7.229 -0.2460  0.3493 -0.1941
  500MOL0     O65926  10.034   8.197   7.311  0.0677  0.3241  0.3046
  500MOL0     C65927  10.139   8.100   7.306  0.3272  1.1749 -0.7108
  500MOL0     C65928  10.259   8.182   7.357 -0.8049  0.2869 -0.1058
  500MOL0     C65929  10.396   8.104   7.337 -0.2682 -0.1671 -0.1246
  500MOL0     C65930  10.502   8.212   7.323  0.2529  0.0484  0.7321
  500MOL0     C65931  10.627   8.151   7.278  0.9249  0.4336 -1.1417
  500MOL0     C65932  10.737   8.110   7.240 -0.5435  0.9793  0.6115
  500MOL0     C65933   9.943   8.124   7.093 -0.2485  1.0130  0.2088
  500MOL0     C65934   9.828   8.119   7.007  0.0558 -0.7124  0.3299
  500MOL0     H65935   9.264   8.031   6.872  3.4443 -0.1351 -0.1057
  500MOL0     H65936   9.062   8.156   6.775  1.4978 -0.3859 -0.8361
  500MOL0     H65937   9.141   8.584   6.747  0.0887  1.3860 -0.0469
  500MOL0     H65938   8.992   8.602   6.843  1.1188 -1.3244  1.3471
  500MOL0     H65939   8.965   8.496   6.564  0.4284 -0.0215  0.3138
  500MOL0     H65940   8.990   8.678   6.605 -2.4546  1.3717 -0.0966
  500MOL0     H65941   8.787   8.661   6.749 -0.3597  0.4528 -0.1555
  500MOL0     H65942   8.760   8.500   6.669  0.3468 -0.1838 -0.4364
  500MOL0     H65943   8.806   8.770   6.549  2.4409 -0.6858  1.8041
  500MOL0     H65944   8.780   8.631   6.441 -0.1006 -0.4749  0.7090
  500MOL0     H65945   8.585   8.797   6.496  1.3998  0.4454 -0.8218
  500MOL0     H65946   8.562   8.697   6.643  1.9798 -0.4411  0.8826
  500MOL0     H65947   8.525   8.507   6.503  1.8743  0.3266  1.0540
  500MOL0     H65948   8.603   8.587   6.364  0.5161 -2.1392  1.1509
  500MOL0     H65949   8.309   8.613   6.475  1.3307 -1.0321  1.3716
  500MOL0     H65950   8.382   8.737   6.366  0.9860  0.7565  0.8677
  500MOL0     H65951   8.319   8.446   6.328 -0.9164  0.5993  1.6557
  500MOL0     H65952   8.422   8.530   6.207  0.0989 -3.5632  0.6557
  500MOL0     H65953   8.130   8.405   6.149  0.1735 -0.2199 -1.7172
  500MOL0     H65954   7.895   8.453   6.016 -2.4122 -0.3016 -2.0781
  500MOL0     H65955   7.925   8.603   5.928 -1.1751 -1.5200 -0.0204
  500MOL0     H65956   7.790   8.719   6.074  2.6101  0.0536  0.4605
  500MOL0     H65957   7.764   8.596   6.192 -1.5414 -0.9660 -0.2141
  500MOL0     H65958   7.643   8.441   6.065  1.0961  0.3321  2.0451
  500MOL0     H65959   7.570   8.596   6.067  0.6737 -0.5990  4.1040
  500MOL0     H65960   7.558   8.494   5.839  0.5645 -0.6133 -1.3666
  500MOL0     H65961   7.733   8.485   5.847 -0.2019  0.0369 -0.5149
  500MOL0     H65962   7.707   8.876   5.655 -0.8241  2.0998 -0.5516
  500MOL0     H65963   7.531   8.992   5.527  0.1063 -0.3839 -0.6602
  500MOL0     H65964   7.195   9.288   5.548  1.0900  0.0951 -0.1582
  500MOL0     H65965   7.004   9.420   5.455 -1.3833  0.4953  0.1174
  500MOL0     H65966   6.784   9.234   5.117  0.3545 -1.2934  0.5234
  500MOL0     H65967   6.848   9.392   5.117 -0.3160 -1.3972 -0.9792
  500MOL0     H65968   6.653   9.493   5.215  4.0184  0.3158 -1.6610
  500MOL0     H65969   6.573   9.337   5.254  1.0746 -0.6115  1.4023
  500MOL0     H65970   6.562   9.281   5.001 -1.3744  2.0585 -3.7544
  500MOL0     H65971   6.648   9.421   4.981  1.3116 -2.1251  0.6871
  500MOL0     H65972   6.356   9.423   5.078 -1.1720 -0.3926 -2.6954
  500MOL0     H65973   6.464   9.567   5.054  1.6258  0.0041 -1.4824
  500MOL0     H65974   6.331   9.365   4.860  3.7998 -2.3604 -1.8821
  500MOL0     H65975   6.464   9.464   4.805 -0.2915 -0.0534 -0.4835
  500MOL0     H65976   6.365   9.659   4.834  0.5983 -0.3271 -0.2728
  500MOL0     H65977   6.228   9.584   4.930  1.7339 -2.8633  3.0916
  500MOL0     H65978   6.277   9.612   4.629  1.1453 -1.5578  0.3931
  500MOL0     H65979   6.282   9.452   4.664 -0.5647  0.1460 -1.5494
  500MOL0     H65980   6.074   9.536   4.584  1.7780  1.3576 -0.3643
  500MOL0     H65981   6.055   9.646   4.724  0.0155  0.1093 -2.3000
  500MOL0     H65982   6.904   9.081   5.197 -1.9764 -0.7515  1.4578
  500MOL0     H65983   7.114   8.970   5.254 -0.2994  0.3181  1.1114
  500MOL0     H65984   7.241   8.770   5.756  1.0060 -0.5001  1.7487
  500MOL0     H65985   7.402   8.666   5.872  1.1053  0.7076  1.9599
  500MOL0     H65986   9.202   8.505   6.961 -0.4327  0.0848 -0.2350
  500MOL0     H65987   9.413   8.372   7.067 -0.2218  1.8640 -0.5197
  500MOL0     H65988   9.591   8.201   7.246  0.6546  0.0382  3.9052
  500MOL0     H65989   9.802   8.202   7.390 -1.3842 -2.6731  0.1319
  500MOL0     H65990  10.149   8.051   7.209  0.3896 -0.9039  0.3093
  500MOL0     H65991  10.114   8.018   7.374  1.7389 -1.1669 -2.8788
  500MOL0     H65992  10.254   8.271   7.295  0.1077  0.6951  0.3877
  500MOL0     H65993  10.257   8.210   7.463  1.2754 -0.1001  0.0810
  500MOL0     H65994  10.383   8.049   7.243 -0.1099  0.6264 -0.6285
  500MOL0     H65995  10.417   8.043   7.425  0.9343  1.7213  0.9703
  500MOL0     H65996  10.468   8.280   7.244 -0.9105  1.9010  2.7198
  500MOL0     H65997  10.502   8.269   7.417 -1.2939  1.9227 -0.3149
  500MOL0     H65998  10.832   8.066   7.219 -0.4945  1.2654  0.2287
  500MOL0     H65999  10.044   8.097   7.063  0.4144 -1.6926  3.9680
  500MOL0     H66000   9.846   8.106   6.901  0.9837 -1.1814  0.5325
  501MOL0     O66001  10.836   1.850   4.719  0.3953 -0.2478 -0.1957
  501MOL0     C66002  10.845   1.785   4.823  0.0063  0.4251 -0.0677
  501MOL0     O66003  10.739   1.771   4.910  0.0829  0.1125  0.2195
  501MOL0     C66004  10.618   1.812   4.853  0.7465 -0.5991 -0.1313
  501MOL0     C66005  10.571   1.947   4.889  0.7622 -0.4480  0.4160
  501MOL0     C66006  10.457   1.995   4.831  0.2315  0.2306 -0.7022
  501MOL0     C66007  10.387   1.925   4.733 -0.5734 -0.1222 -0.4118
  501MOL0     O66008  10.256   1.972   4.689  0.2569  0.2165  0.0729
  501MOL0     C66009  10.209   1.933   4.558  0.0677  0.4501  0.6392
  501MOL0     C66010  10.104   1.829   4.586 -0.4121  0.1490  0.1137
  501MOL0     C66011   9.977   1.897   4.642  0.3120  0.5797  0.4279
  501MOL0     C66012   9.874   1.793   4.698 -1.3424 -0.9767  0.4808
  501MOL0     C66013   9.809   1.710   4.585  0.2618  0.5915 -0.6155
  501MOL0     C66014   9.685   1.644   4.658 -0.5058  0.3098  0.4879
  501MOL0     C66015   9.543   1.703   4.626  0.2499  0.6921  0.4390
  501MOL0     C66016   9.424   1.617   4.644  0.2550  0.1427  0.1289
  501MOL0     N66017   9.306   1.699   4.681 -0.6802 -0.5956 -0.4498
  501MOL0     C66018   9.222   1.776   4.605  0.2065 -0.0082 -0.3726
  501MOL0     C66019   9.154   1.858   4.688  0.9066  1.0207 -0.2882
  501MOL0     C66020   9.066   1.973   4.644  0.1344  0.3274  0.5722
  501MOL0     C66021   8.945   1.948   4.551 -0.1460  1.0622 -0.3582
  501MOL0     C66022   8.851   2.066   4.538  0.8996 -0.0412  0.7811
  501MOL0     C66023   8.721   2.025   4.472 -0.4774  0.6432 -0.9133
  501MOL0     O66024   8.749   1.992   4.335 -0.5386  0.8543  0.8231
  501MOL0     C66025   8.646   1.970   4.244  0.4362  0.1764  0.0610
  501MOL0     C66026   8.677   1.927   4.115 -0.0607 -0.2129  0.1180
  501MOL0     C66027   8.581   1.908   4.023  0.7813 -0.4086  0.2344
  501MOL0     C66028   8.449   1.937   4.060  0.9899  0.3364 -0.5809
  501MOL0     C66029   8.336   1.916   3.957 -0.1949 -0.7025  0.3006
  501MOL0     O66030   8.368   1.941   3.826 -0.5804  0.5988 -0.7220
  501MOL0     C66031   8.277   1.914   3.731 -0.4556 -0.9274 -0.0704
  501MOL0     C66032   8.291   1.986   3.619 -0.0182  0.3080  0.9364
  501MOL0     C66033   8.192   1.975   3.522  0.4441 -0.5098  0.0041
  501MOL0     C66034   8.090   1.878   3.526 -0.8576  0.9269  0.7509
  501MOL0     O66035   7.981   1.877   3.445  0.1428 -0.4607 -0.8271
  501MOL0     C66036   8.005   1.918   3.311 -0.4822  0.8454  0.2040
  501MOL0     C66037   7.884   1.898   3.226 -0.4276 -0.3503  0.3142
  501MOL0     C66038   7.836   1.751   3.222 -0.0435  0.5831 -0.3015
  501MOL0     C66039   7.759   1.724   3.091 -0.7471  0.1690 -0.2673
  501MOL0     C66040   7.640   1.828   3.065 -0.0250 -0.0436  0.2615
  501MOL0     C66041   7.569   1.787   2.938 -0.3900 -0.4219  0.1556
  501MOL0     C66042   7.442   1.697   2.965  0.0346  0.0641 -0.9426
  501MOL0     C66043   7.369   1.659   2.830 -0.4302  0.1039  0.2380
  501MOL0    Cl66044   7.472   1.564   2.715  0.0843  0.3536  0.2496
  501MOL0     C66045   8.091   1.791   3.633  0.3729 -0.5433 -0.9915
  501MOL0     C66046   8.179   1.809   3.737  0.4314  0.2654  0.4420
  501MOL0     O66047   8.225   1.912   3.999 -0.5701  0.1157  0.4771
  501MOL0     C66048   8.408   1.971   4.192 -0.7999  0.3817 -0.4178
  501MOL0     C66049   8.511   1.983   4.286 -0.2209 -0.2711  1.0155
  501MOL0     N66050   9.202   1.829   4.818  0.0410 -0.8092  0.3501
  501MOL0     N66051   9.297   1.741   4.812  0.2982  0.3734  0.1629
  501MOL0     C66052  10.433   1.795   4.694  0.2483 -0.7309 -0.7322
  501MOL0     C66053  10.549   1.740   4.753 -0.0837 -0.1048 -0.2647
  501MOL0     C66054  10.977   1.726   4.864  0.9390 -0.3472 -0.4768
  501MOL0     C66055  10.990   1.645   4.975  0.6096  0.4031 -0.9766
  501MOL0     C66056  11.115   1.608   5.023  0.3327  0.2896 -0.5117
  501MOL0     C66057  11.234   1.647   4.960  0.7832  0.3026  0.3599
  501MOL0     O66058  11.351   1.616   5.023 -0.0276  0.2906  0.1965
  501MOL0     C66059  11.453   1.722   5.024  0.9149 -0.7170 -0.5052
  501MOL0     C66060  11.566   1.698   4.915  0.5785  0.3711 -1.0720
  501MOL0     C66061  11.656   1.586   4.968  0.5864  1.1269  0.2699
  501MOL0     C66062  11.781   1.564   4.888 -0.7926  0.2839 -0.1389
  501MOL0     C66063  11.885   1.670   4.925 -0.5379  0.9580 -0.5119
  501MOL0     C66064  11.965   1.764   4.952  0.4677  0.3094  0.4411
  501MOL0     C66065  11.214   1.729   4.848 -0.3582 -0.2840 -0.8598
  501MOL0     C66066  11.094   1.763   4.793  0.1478 -0.0395  0.0886
  501MOL0     H66067  10.635   2.013   4.947 -2.5770  2.1986  1.4099
  501MOL0     H66068  10.423   2.095   4.857 -0.5814 -0.4003  0.7736
  501MOL0     H66069  10.287   1.882   4.500 -2.3805  1.2216 -3.7535
  501MOL0     H66070  10.175   2.016   4.495  3.4946  0.5345 -1.3944
  501MOL0     H66071  10.138   1.753   4.658  0.6578 -0.8386 -1.3669
  501MOL0     H66072  10.082   1.763   4.502 -1.0126 -1.5837  1.5599
  501MOL0     H66073   9.938   1.960   4.561  0.5363 -1.8002 -1.6495
  501MOL0     H66074  10.009   1.967   4.720 -0.8996 -0.0146  1.5140
  501MOL0     H66075   9.915   1.721   4.769 -0.8202 -0.1959  0.9836
  501MOL0     H66076   9.799   1.856   4.745 -0.1314 -1.2839  2.9940
  501MOL0     H66077   9.880   1.637   4.546  3.6267  2.3913  1.6412
  501MOL0     H66078   9.785   1.769   4.497 -0.7585  1.5329  0.2585
  501MOL0     H66079   9.709   1.634   4.765 -1.6479 -2.1379  0.5975
  501MOL0     H66080   9.687   1.545   4.611  1.4354  0.9228 -0.8281
  501MOL0     H66081   9.541   1.790   4.692 -0.7001  1.6209 -0.7751
  501MOL0     H66082   9.549   1.736   4.522  2.5297 -0.1039  0.2611
  501MOL0     H66083   9.451   1.538   4.715  1.1276 -2.0556 -2.5118
  501MOL0     H66084   9.388   1.580   4.548 -0.5407 -2.9268  1.4641
  501MOL0     H66085   9.214   1.777   4.497  0.4618 -0.9506 -0.4123
  501MOL0     H66086   9.137   2.045   4.604  0.7423 -0.0650  0.9145
  501MOL0     H66087   9.035   2.008   4.743 -1.2734 -2.9198  1.4296
  501MOL0     H66088   8.888   1.863   4.589  0.7183  1.9925  3.4270
  501MOL0     H66089   8.977   1.925   4.449  0.4030 -1.6768  0.3319
  501MOL0     H66090   8.828   2.103   4.638  0.2158 -4.1334  2.3392
  501MOL0     H66091   8.899   2.149   4.486  0.1364 -0.4340 -0.6002
  501MOL0     H66092   8.642   2.100   4.482 -3.4956 -2.3796 -0.2177
  501MOL0     H66093   8.688   1.940   4.533 -1.6588  0.7247 -1.4128
  501MOL0     H66094   8.779   1.906   4.087 -0.5746 -1.2158 -1.1027
  501MOL0     H66095   8.607   1.887   3.920  0.3473  0.0177  0.0312
  501MOL0     H66096   8.361   2.066   3.596 -1.2832  0.4329 -3.3237
  501MOL0     H66097   8.212   2.044   3.441 -0.9357 -1.1412 -0.8991
  501MOL0     H66098   8.078   1.848   3.270 -3.2635 -2.5760  0.7139
  501MOL0     H66099   8.041   2.021   3.305  0.0217  0.7250  0.9665
  501MOL0     H66100   7.917   1.921   3.125 -0.1182 -1.5588  0.1347
  501MOL0     H66101   7.804   1.965   3.259 -0.9401 -0.4086 -0.7709
  501MOL0     H66102   7.767   1.733   3.305 -1.1611 -0.8105 -1.4621
  501MOL0     H66103   7.921   1.683   3.219  1.0743  1.8571  0.9126
  501MOL0     H66104   7.826   1.729   3.004  1.3724  0.3518  1.3030
  501MOL0     H66105   7.718   1.624   3.105  2.2427 -1.1058  0.1637
  501MOL0     H66106   7.688   1.926   3.057  1.2664 -0.6687  0.0263
  501MOL0     H66107   7.558   1.839   3.136 -1.3179  4.1525 -1.5886
  501MOL0     H66108   7.635   1.742   2.864  0.0273  0.9578 -0.3372
  501MOL0     H66109   7.532   1.878   2.889  0.1399  1.4345  2.9335
  501MOL0     H66110   7.474   1.604   3.013  2.5677  0.5845 -1.4777
  501MOL0     H66111   7.370   1.747   3.031  0.9052  2.2402 -1.5420
  501MOL0     H66112   7.337   1.745   2.771  1.5863  1.1167  0.5372
  501MOL0     H66113   7.283   1.592   2.838  1.2026 -2.0072  1.1377
  501MOL0     H66114   8.016   1.713   3.638 -0.5770  0.3452 -0.9656
  501MOL0     H66115   8.174   1.754   3.831  2.4061  2.9729  2.2866
  501MOL0     H66116   8.310   1.983   4.237 -0.6593  0.7761 -0.2067
  501MOL0     H66117   8.485   2.011   4.387  0.6334 -1.5427  1.6186
  501MOL0     H66118  10.384   1.737   4.617  0.1158 -0.3927 -0.9038
  501MOL0     H66119  10.585   1.641   4.726  0.2920  0.0781 -0.4436
  501MOL0     H66120  10.897   1.606   5.017 -1.1644  3.9255 -1.2925
  501MOL0     H66121  11.135   1.539   5.104  0.9622  0.4006 -0.5669
  501MOL0     H66122  11.495   1.731   5.124 -0.0016 -1.7807  0.0029
  501MOL0     H66123  11.415   1.823   5.008 -1.6487 -1.6414 -0.7429
  501MOL0     H66124  11.532   1.668   4.816 -4.0477  1.5656 -0.0628
  501MOL0     H66125  11.632   1.785   4.913  0.8703  0.1502 -3.7126
  501MOL0     H66126  11.610   1.487   4.968 -0.2534  1.4910 -0.9978
  501MOL0     H66127  11.678   1.609   5.073 -0.0415 -0.5248  0.7936
  501MOL0     H66128  11.836   1.472   4.913 -0.2812  0.0821 -1.8504
  501MOL0     H66129  11.763   1.567   4.780  0.8551 -0.5253 -0.4774
  501MOL0     H66130  12.029   1.839   4.994  0.2063  0.0449  1.3477
  501MOL0     H66131  11.304   1.765   4.800 -0.9050  1.2108 -0.8250
  501MOL0     H66132  11.077   1.814   4.699  1.7649 -1.0273 -0.7888
  502MOL0     O66133   6.673   4.519   2.670  0.5080  0.3797 -0.6559
  502MOL0     C66134   6.710   4.423   2.747  0.4694  0.2430  0.5468
  502MOL0     O66135   6.640   4.312   2.789  0.2396  0.6370  0.3777
  502MOL0     C66136   6.501   4.303   2.767 -0.6986  0.6687  0.2846
  502MOL0     C66137   6.444   4.176   2.791 -0.4988 -0.6134  1.1998
  502MOL0     C66138   6.307   4.160   2.785 -0.5834  0.7749  0.1314
  502MOL0     C66139   6.219   4.261   2.739  0.0099  0.4857  0.1618
  502MOL0     O66140   6.092   4.229   2.707 -0.1867  0.2298 -0.8561
  502MOL0     C66141   5.987   4.330   2.721 -0.0598  0.0946 -0.2777
  502MOL0     C66142   5.850   4.259   2.698  0.1849  0.0570 -0.3170
  502MOL0     C66143   5.726   4.352   2.688 -0.3547  0.0221  0.0477
  502MOL0     C66144   5.596   4.275   2.671 -0.1315 -0.1773 -0.7809
  502MOL0     C66145   5.476   4.352   2.731  0.3582 -0.0304  0.5875
  502MOL0     C66146   5.468   4.498   2.687 -0.0896  0.5300 -0.4529
  502MOL0     C66147   5.428   4.531   2.541 -0.0468  0.4184  0.7072
  502MOL0     C66148   5.279   4.481   2.524 -0.2547  0.0886 -1.0992
  502MOL0     N66149   5.202   4.556   2.422  0.3474 -0.1554 -0.1920
  502MOL0     C66150   5.139   4.675   2.445 -0.0026 -0.2885  0.1631
  502MOL0     C66151   5.083   4.708   2.326 -0.9485  1.2689  1.3879
  502MOL0     C66152   4.995   4.828   2.292 -0.3498  0.0499 -0.5919
  502MOL0     C66153   4.852   4.799   2.243 -0.8553  0.8013  1.1341
  502MOL0     C66154   4.758   4.910   2.278 -0.1639 -0.4063 -0.3956
  502MOL0     C66155   4.610   4.882   2.234  0.3887  0.1007 -0.2958
  502MOL0     O66156   4.539   4.832   2.346 -0.3271  0.1509 -0.1240
  502MOL0     C66157   4.415   4.786   2.325 -0.2902  0.7426  0.5093
  502MOL0     C66158   4.332   4.810   2.212 -0.6140  0.3630  0.3513
  502MOL0     C66159   4.197   4.764   2.213 -0.1422 -0.2392 -0.0064
  502MOL0     C66160   4.136   4.694   2.321  1.0697  0.1168 -0.8251
  502MOL0     C66161   3.988   4.654   2.336 -0.0138  0.2116  0.0792
  502MOL0     O66162   3.912   4.681   2.232  0.4564 -0.2061 -0.3204
  502MOL0     C66163   3.778   4.639   2.245  0.0962  0.0610 -0.0148
  502MOL0     C66164   3.679   4.742   2.235 -0.0743 -0.1870 -0.2796
  502MOL0     C66165   3.544   4.720   2.264 -0.2502  0.1104 -0.5573
  502MOL0     C66166   3.509   4.587   2.291 -0.0998 -0.1123  0.5821
  502MOL0     O66167   3.381   4.541   2.301 -0.4860  1.1066  0.2498
  502MOL0     C66168   3.292   4.621   2.381 -0.0172  0.4311 -0.0425
  502MOL0     C66169   3.159   4.544   2.408 -0.8229  0.0840 -0.0895
  502MOL0     C66170   3.033   4.629   2.381  0.1396  1.4569  0.3125
  502MOL0     C66171   2.913   4.527   2.395 -0.8695  0.3862 -1.1130
  502MOL0     C66172   2.784   4.611   2.368  0.2649  0.3819  0.3183
  502MOL0     C66173   2.658   4.532   2.420 -0.3377 -0.4660  0.5914
  502MOL0     C66174   2.535   4.591   2.350 -1.1437  0.4523  0.3309
  502MOL0     C66175   2.410   4.551   2.424  0.1821  0.2975  0.8279
  502MOL0    Cl66176   2.273   4.635   2.364 -0.7025  0.0749 -0.1126
  502MOL0     C66177   3.605   4.480   2.287  0.3018 -1.4433 -0.0178
  502MOL0     C66178   3.737   4.508   2.266 -0.3478 -0.3512  0.5530
  502MOL0     O66179   3.947   4.601   2.443  0.4401  0.9708  0.5467
  502MOL0     C66180   4.220   4.659   2.428  0.5771 -0.2389  0.0518
  502MOL0     C66181   4.355   4.708   2.429 -0.9697 -0.2054 -0.1706
  502MOL0     N66182   5.121   4.613   2.229  0.0206  0.6382 -0.6577
  502MOL0     N66183   5.194   4.528   2.294 -0.1125  0.6884  0.3168
  502MOL0     C66184   6.283   4.378   2.692  0.1995 -0.0526 -0.7954
  502MOL0     C66185   6.419   4.402   2.716  0.4651 -0.9697 -0.3889
  502MOL0     C66186   6.852   4.430   2.785 -0.0680 -0.1189 -0.3217
  502MOL0     C66187   6.937   4.528   2.734  1.2811  0.5927  1.1307
  502MOL0     C66188   7.073   4.526   2.768 -0.7022  0.2370  0.6531
  502MOL0     C66189   7.130   4.419   2.836 -0.1973 -0.0920  0.1754
  502MOL0     O66190   7.266   4.415   2.856 -0.0388 -0.2272  0.1426
  502MOL0     C66191   7.345   4.317   2.772 -0.2461  0.2841  0.1408
  502MOL0     C66192   7.377   4.369   2.631 -0.0648 -0.1707  0.0483
  502MOL0     C66193   7.509   4.451   2.617 -0.5335  0.2677  0.4682
  502MOL0     C66194   7.511   4.593   2.669 -0.9311 -0.6128 -0.0528
  502MOL0     C66195   7.453   4.682   2.565 -0.8010 -0.1876 -0.2690
  502MOL0     C66196   7.411   4.761   2.487 -0.6944 -0.4262 -0.0476
  502MOL0     C66197   7.046   4.316   2.883  0.1037  0.1525 -0.7286
  502MOL0     C66198   6.909   4.325   2.857  0.2232  0.2066  0.3868
  502MOL0     H66199   6.517   4.101   2.819 -0.0725 -0.8820 -0.5490
  502MOL0     H66200   6.264   4.065   2.813 -0.9685  1.4134  1.8586
  502MOL0     H66201   5.993   4.414   2.651 -2.0292  0.1699 -0.4195
  502MOL0     H66202   5.994   4.369   2.823 -0.2475  0.6976 -0.4889
  502MOL0     H66203   5.843   4.180   2.773  1.1315  1.2210  1.0531
  502MOL0     H66204   5.848   4.213   2.599 -2.7679  0.0585 -0.3647
  502MOL0     H66205   5.735   4.427   2.609 -2.5819 -0.6243 -0.9081
  502MOL0     H66206   5.739   4.417   2.775  1.7540 -0.4441  0.1451
  502MOL0     H66207   5.581   4.239   2.569 -0.6321 -3.0704  0.2141
  502MOL0     H66208   5.609   4.181   2.726 -2.2152  0.1608  0.4249
  502MOL0     H66209   5.490   4.350   2.840 -0.8322  0.4543  0.7584
  502MOL0     H66210   5.394   4.287   2.699  2.0909 -1.5692 -0.9872
  502MOL0     H66211   5.571   4.533   2.698  1.4310 -3.7216  0.8818
  502MOL0     H66212   5.414   4.558   2.760  2.0296  1.6104  0.3262
  502MOL0     H66213   5.438   4.638   2.522 -1.2461  0.1819 -1.6135
  502MOL0     H66214   5.490   4.477   2.468 -2.4367 -0.0552 -1.1060
  502MOL0     H66215   5.223   4.468   2.616  0.1848 -0.9487 -0.9570
  502MOL0     H66216   5.306   4.376   2.505 -0.0616 -0.1327  0.2891
  502MOL0     H66217   5.140   4.726   2.541 -0.7774 -0.1564  0.1016
  502MOL0     H66218   5.046   4.886   2.214 -1.5632 -0.0288 -1.4815
  502MOL0     H66219   4.976   4.896   2.376 -0.6607  0.3901 -0.9300
  502MOL0     H66220   4.831   4.708   2.301 -1.8255 -1.1875 -2.0781
  502MOL0     H66221   4.847   4.772   2.137 -1.0286 -0.7721  1.5259
  502MOL0     H66222   4.746   4.937   2.384 -2.0619  0.3565 -0.7552
  502MOL0     H66223   4.790   5.004   2.232 -1.4428  0.2403 -0.0181
  502MOL0     H66224   4.612   4.823   2.142  1.7217 -0.2912 -0.0427
  502MOL0     H66225   4.572   4.981   2.208 -1.9356 -0.3916  0.9800
  502MOL0     H66226   4.372   4.866   2.129  0.7028 -0.3928  0.4410
  502MOL0     H66227   4.136   4.795   2.129  2.8901  2.8480 -1.2843
  502MOL0     H66228   3.715   4.844   2.230  2.4853 -1.0717 -1.4544
  502MOL0     H66229   3.474   4.803   2.267 -0.0818  0.2404  2.5170
  502MOL0     H66230   3.267   4.701   2.311  0.4313 -0.9388 -1.8469
  502MOL0     H66231   3.334   4.665   2.472 -1.2576  2.7873 -0.5338
  502MOL0     H66232   3.157   4.518   2.514 -1.0457  1.1075  0.1688
  502MOL0     H66233   3.155   4.455   2.344 -1.2361  0.2814 -0.3449
  502MOL0     H66234   3.031   4.685   2.286 -0.1831  2.7342  1.0497
  502MOL0     H66235   3.031   4.705   2.460  2.1930 -1.8193  3.8319
  502MOL0     H66236   2.935   4.456   2.314  1.0217  1.0800 -1.2534
  502MOL0     H66237   2.918   4.473   2.490 -0.4370 -0.4882 -1.6098
  502MOL0     H66238   2.770   4.627   2.261 -0.4946 -0.5584  0.2585
  502MOL0     H66239   2.800   4.702   2.426  1.4895  0.3890 -0.0050
  502MOL0     H66240   2.638   4.551   2.526 -2.5471 -1.8398  0.4714
  502MOL0     H66241   2.670   4.426   2.396  0.6126  0.2577 -2.6331
  502MOL0     H66242   2.531   4.700   2.355 -0.6076  0.5658 -1.1654
  502MOL0     H66243   2.527   4.561   2.245 -1.8012  1.6468  0.0195
  502MOL0     H66244   2.414   4.584   2.528  1.1272 -2.5810  1.7908
  502MOL0     H66245   2.389   4.444   2.435 -0.5786  0.4774  1.2075
  502MOL0     H66246   3.566   4.379   2.297 -2.1285 -0.6088 -0.5887
  502MOL0     H66247   3.813   4.432   2.280  0.8157  0.8683  1.0904
  502MOL0     H66248   4.174   4.617   2.516 -1.7318  1.6477 -0.1636
  502MOL0     H66249   4.412   4.684   2.518 -0.2016 -0.8476 -0.8210
  502MOL0     H66250   6.224   4.460   2.653 -0.4934  0.8774  2.0131
  502MOL0     H66251   6.462   4.500   2.704 -1.8706  0.4679  1.9111
  502MOL0     H66252   6.893   4.603   2.668 -0.1434  0.8321  2.3037
  502MOL0     H66253   7.140   4.603   2.731  0.6333 -1.2955 -0.2858
  502MOL0     H66254   7.289   4.224   2.758  0.7858 -0.2532 -0.4859
  502MOL0     H66255   7.439   4.290   2.820 -1.0860 -2.9142  0.2201
  502MOL0     H66256   7.387   4.274   2.576 -0.9916  1.1711 -2.6100
  502MOL0     H66257   7.293   4.425   2.591 -2.4173 -1.1689  3.1561
  502MOL0     H66258   7.526   4.459   2.509  0.1289 -1.8771  0.3770
  502MOL0     H66259   7.591   4.389   2.654 -0.9103 -1.4695 -1.4336
  502MOL0     H66260   7.453   4.607   2.761 -0.1744  1.9862  0.0844
  502MOL0     H66261   7.612   4.626   2.695 -1.2205 -0.8099  1.4326
  502MOL0     H66262   7.373   4.845   2.433 -0.4096 -1.3302 -1.7025
  502MOL0     H66263   7.100   4.242   2.942  1.0303  1.4579  0.1003
  502MOL0     H66264   6.854   4.236   2.886 -0.4004  0.0012 -1.3354
  503MOL0     O66265   5.087   7.029   1.359  1.1301 -0.2594 -0.1143
  503MOL0     C66266   5.066   7.127   1.289 -0.2330 -0.1465  0.2453
  503MOL0     O66267   4.948   7.188   1.272  0.6804 -0.7910 -0.1114
  503MOL0     C66268   4.832   7.170   1.346  0.3237 -0.3087 -0.1331
  503MOL0     C66269   4.709   7.213   1.289 -0.7660 -0.1490  0.8151
  503MOL0     C66270   4.591   7.194   1.355  0.2805 -0.1904 -0.3058
  503MOL0     C66271   4.586   7.127   1.477  0.1646 -0.6464  0.1725
  503MOL0     O66272   4.466   7.089   1.533 -0.1884  0.5999  0.2055
  503MOL0     C66273   4.349   7.100   1.463 -0.7879  0.0267 -0.6235
  503MOL0     C66274   4.226   7.078   1.552  0.3672 -0.5818  1.1122
  503MOL0     C66275   4.100   7.087   1.465 -0.1536 -0.4580  0.7375
  503MOL0     C66276   3.984   7.069   1.558 -0.6554 -0.2087 -0.8281
  503MOL0     C66277   3.859   7.076   1.471  0.4390 -1.1147 -0.0766
  503MOL0     C66278   3.722   7.054   1.546  0.0657  0.1708 -0.4456
  503MOL0     C66279   3.607   7.094   1.453 -0.3111  0.0983  1.0306
  503MOL0     C66280   3.476   7.085   1.535  0.7311 -0.2321  0.1679
  503MOL0     N66281   3.359   7.159   1.482 -0.1407  0.1111  0.1453
  503MOL0     C66282   3.265   7.117   1.391 -0.5382 -0.0946 -0.4154
  503MOL0     C66283   3.175   7.217   1.390  0.0532  0.6947 -0.5752
  503MOL0     C66284   3.061   7.229   1.287  0.5435  0.0998  0.3455
  503MOL0     C66285   2.919   7.190   1.335 -0.4390 -0.6125  0.5331
  503MOL0     C66286   2.821   7.269   1.247  0.0259 -0.4916 -0.2428
  503MOL0     C66287   2.816   7.208   1.112 -0.3317 -0.5688 -0.2112
  503MOL0     O66288   2.780   7.070   1.113 -0.1482 -0.1693  0.0345
  503MOL0     C66289   2.643   7.048   1.128  0.6745 -0.9402  0.4446
  503MOL0     C66290   2.607   6.922   1.171  0.0827 -0.2555 -0.2751
  503MOL0     C66291   2.477   6.896   1.219 -0.4931  0.0442  0.3852
  503MOL0     C66292   2.374   6.995   1.212  0.0772 -0.3371 -0.1148
  503MOL0     C66293   2.249   6.972   1.273  0.2200 -0.4365 -0.2547
  503MOL0     O66294   2.253   6.908   1.393 -0.4014 -0.4287  0.0893
  503MOL0     C66295   2.132   6.900   1.459 -0.0908  0.4852  0.2571
  503MOL0     C66296   2.055   6.785   1.466 -0.0784  0.9367  0.5216
  503MOL0     C66297   1.940   6.773   1.541  0.4662 -1.1359 -0.5445
  503MOL0     C66298   1.886   6.888   1.606  1.0586  0.1071  0.1552
  503MOL0     O66299   1.779   6.884   1.689  0.3927  0.5458 -0.2073
  503MOL0     C66300   1.682   6.994   1.702 -0.7491  0.5514  0.5792
  503MOL0     C66301   1.552   6.938   1.760  0.2846 -0.1736 -0.5423
  503MOL0     C66302   1.459   6.876   1.668  0.2811  0.6981 -0.7539
  503MOL0     C66303   1.323   6.832   1.734  0.2124 -0.5823 -0.5064
  503MOL0     C66304   1.210   6.779   1.652 -0.7882  0.3234  0.4515
  503MOL0     C66305   1.092   6.745   1.739  0.4468  0.9525  0.3779
  503MOL0     C66306   0.989   6.683   1.631 -0.5215  1.1686  0.5721
  503MOL0     C66307   0.855   6.656   1.701 -0.1645 -0.8498 -0.3658
  503MOL0    Cl66308   0.759   6.566   1.585 -0.2991 -0.1938 -0.1941
  503MOL0     C66309   1.958   7.012   1.587 -0.4161 -0.5714 -0.5702
  503MOL0     C66310   2.081   7.015   1.527 -0.9490 -0.7820  0.2702
  503MOL0     O66311   2.156   7.040   1.230  0.2937 -0.0669 -0.0863
  503MOL0     C66312   2.410   7.113   1.144 -0.1070 -0.4401  0.7838
  503MOL0     C66313   2.540   7.138   1.096 -0.5302 -0.4621  0.1895
  503MOL0     N66314   3.216   7.311   1.483 -0.6367  0.3073  0.3235
  503MOL0     N66315   3.339   7.287   1.532  0.1180 -0.5011  0.2150
  503MOL0     C66316   4.710   7.086   1.539 -0.7720 -0.5858 -0.0324
  503MOL0     C66317   4.834   7.110   1.473 -0.6054  0.6152  0.9788
  503MOL0     C66318   5.184   7.181   1.218 -0.6350 -0.1343 -0.0187
  503MOL0     C66319   5.164   7.292   1.128 -0.5190 -0.5068  0.6739
  503MOL0     C66320   5.283   7.334   1.050  0.7291 -0.4396  0.8006
  503MOL0     C66321   5.405   7.269   1.054 -0.8270  0.4302  0.2106
  503MOL0     O66322   5.520   7.311   0.995 -0.6737  0.3488  0.5068
  503MOL0     C66323   5.527   7.450   0.974  0.5619  0.0601  0.0357
  503MOL0     C66324   5.654   7.470   0.897  0.2034 -0.4651 -0.5239
  503MOL0     C66325   5.785   7.434   0.984  0.8298 -0.4418 -0.2877
  503MOL0     C66326   5.869   7.320   0.923 -0.2153 -0.4997  0.3029
  503MOL0     C66327   5.959   7.357   0.813  0.0194  0.8704  0.5991
  503MOL0     C66328   6.041   7.381   0.721  0.4820 -0.2367  0.4668
  503MOL0     C66329   5.412   7.159   1.135  0.6463 -0.2623  1.4159
  503MOL0     C66330   5.303   7.116   1.211 -0.3984  0.5970 -0.2072
  503MOL0     H66331   4.700   7.271   1.198 -2.0801 -1.6569 -0.0779
  503MOL0     H66332   4.500   7.230   1.308  0.1048  0.3887  0.4388
  503MOL0     H66333   4.342   7.037   1.373 -1.4614 -3.5490  1.7226
  503MOL0     H66334   4.345   7.206   1.438  2.6380  1.2029  2.7173
  503MOL0     H66335   4.219   7.153   1.632  2.0928  1.5084 -0.5684
  503MOL0     H66336   4.233   6.976   1.590  1.1047 -2.4099 -3.3560
  503MOL0     H66337   4.119   7.007   1.393  2.0519  1.2379 -0.7353
  503MOL0     H66338   4.084   7.179   1.408  0.1477 -1.6161 -1.3318
  503MOL0     H66339   3.991   6.974   1.611 -1.2632 -0.5325 -1.3164
  503MOL0     H66340   3.985   7.160   1.620 -0.9612  0.6942 -2.1005
  503MOL0     H66341   3.860   6.998   1.394 -2.3793 -3.1332  1.7305
  503MOL0     H66342   3.851   7.177   1.430 -2.3741 -1.2887 -0.1140
  503MOL0     H66343   3.713   7.114   1.637  0.5792 -1.3432  0.6369
  503MOL0     H66344   3.700   6.952   1.578 -0.1909  0.8532  1.6485
  503MOL0     H66345   3.599   7.188   1.398 -0.0740 -0.2687  0.3593
  503MOL0     H66346   3.603   7.019   1.373 -2.3824 -0.3715  1.5106
  503MOL0     H66347   3.497   7.135   1.630  2.0692  0.3194 -0.4018
  503MOL0     H66348   3.438   6.984   1.553 -3.2597  0.5405 -2.5274
  503MOL0     H66349   3.272   7.042   1.313  0.1442  0.7570 -1.1860
  503MOL0     H66350   3.093   7.166   1.202  1.9345  0.9148  0.2278
  503MOL0     H66351   3.073   7.335   1.264  0.2884  0.7427  2.9482
  503MOL0     H66352   2.917   7.228   1.437  0.3240  0.1865  0.2570
  503MOL0     H66353   2.901   7.082   1.328 -0.4622 -0.5373 -0.7765
  503MOL0     H66354   2.722   7.267   1.294  0.2731  2.3867  0.6035
  503MOL0     H66355   2.849   7.374   1.234 -1.8063 -0.0294 -0.7835
  503MOL0     H66356   2.915   7.212   1.065  0.3023 -1.0303  1.0255
  503MOL0     H66357   2.756   7.264   1.041  2.2073  0.2197 -1.8766
  503MOL0     H66358   2.686   6.848   1.171 -0.5615 -0.9546 -0.6763
  503MOL0     H66359   2.450   6.803   1.268 -0.3017 -0.5007 -0.5063
  503MOL0     H66360   2.095   6.697   1.416 -1.5806  1.2091 -1.2434
  503MOL0     H66361   1.893   6.678   1.563 -0.6670 -0.4186  0.2672
  503MOL0     H66362   1.669   7.034   1.601  3.2155  4.2721  1.2396
  503MOL0     H66363   1.717   7.075   1.767  0.5462 -0.5350  1.2994
  503MOL0     H66364   1.497   7.025   1.797 -1.7134 -1.5295 -0.1693
  503MOL0     H66365   1.576   6.883   1.852  0.7077  1.0959  0.1451
  503MOL0     H66366   1.501   6.786   1.621  0.1124  0.4052 -0.3530
  503MOL0     H66367   1.442   6.940   1.581 -0.4558 -0.3504 -1.4104
  503MOL0     H66368   1.339   6.766   1.820 -3.6571 -0.9779  0.0637
  503MOL0     H66369   1.278   6.922   1.775  0.3941 -0.6495 -0.1521
  503MOL0     H66370   1.238   6.689   1.596 -1.9254  0.2077  0.0420
  503MOL0     H66371   1.189   6.862   1.583 -0.8568 -0.4579 -0.4876
  503MOL0     H66372   1.058   6.838   1.786 -2.6638  0.3688 -0.4808
  503MOL0     H66373   1.122   6.671   1.813  0.9185 -0.3825 -1.0864
  503MOL0     H66374   0.967   6.736   1.538  1.8417 -1.8195 -1.9183
  503MOL0     H66375   1.029   6.587   1.596 -2.1685  0.8059 -0.4093
  503MOL0     H66376   0.814   6.752   1.732  1.5795  0.0072 -0.5380
  503MOL0     H66377   0.873   6.588   1.785 -1.0376  2.0530  2.3409
  503MOL0     H66378   1.921   7.099   1.640 -0.0802 -2.4620  3.1061
  503MOL0     H66379   2.140   7.105   1.527 -1.1326 -0.6583 -0.1592
  503MOL0     H66380   2.349   7.199   1.120  0.1757  0.1711  2.1582
  503MOL0     H66381   2.552   7.232   1.043  0.8256 -0.1686  0.9693
  503MOL0     H66382   4.712   7.028   1.631  2.2423 -0.0687  0.3402
  503MOL0     H66383   4.927   7.083   1.521 -0.9746 -4.7163 -0.6745
  503MOL0     H66384   5.072   7.350   1.125 -0.0831  0.1662 -2.0379
  503MOL0     H66385   5.270   7.420   0.985  0.9658  0.4626  1.9131
  503MOL0     H66386   5.526   7.498   1.072 -0.3864 -0.6875  0.4065
  503MOL0     H66387   5.447   7.507   0.925  1.3966  0.8315 -0.4653
  503MOL0     H66388   5.650   7.417   0.802 -1.7129  0.6556 -1.1226
  503MOL0     H66389   5.656   7.575   0.868 -1.7665 -0.7932 -2.0497
  503MOL0     H66390   5.752   7.403   1.083 -2.5372  2.9944 -0.1216
  503MOL0     H66391   5.836   7.528   1.004  0.3688 -0.6425  2.1533
  503MOL0     H66392   5.923   7.268   1.002 -0.2940 -3.5824 -1.5165
  503MOL0     H66393   5.801   7.244   0.883  0.4656 -1.1805  0.4182
  503MOL0     H66394   6.102   7.406   0.637  0.6418  1.1487  0.9688
  503MOL0     H66395   5.508   7.108   1.145  0.1656 -2.0279 -1.7789
  503MOL0     H66396   5.318   7.028   1.273  0.6129  1.5419  0.9246
  504MOL0     O66397   7.468   7.155   0.522 -0.2635  0.4447 -0.4167
  504MOL0     C66398   7.489   7.222   0.627 -0.1564 -0.3165 -0.5139
  504MOL0     O66399   7.402   7.263   0.721 -0.3743 -0.6534 -0.1449
  504MOL0     C66400   7.264   7.236   0.727 -0.4521  0.6322  1.0406
  504MOL0     C66401   7.206   7.215   0.856 -0.1965  0.9156 -0.2239
  504MOL0     C66402   7.069   7.190   0.873  0.8056  0.2444  0.5480
  504MOL0     C66403   6.989   7.176   0.762 -0.1264 -0.9537 -0.9420
  504MOL0     O66404   6.854   7.157   0.771  1.1699 -0.4182 -0.1924
  504MOL0     C66405   6.790   7.064   0.677 -0.9060 -0.2855  0.2399
  504MOL0     C66406   6.688   6.991   0.755  0.4246  0.3865 -0.4465
  504MOL0     C66407   6.567   7.071   0.776 -0.0165 -0.1545 -0.6787
  504MOL0     C66408   6.462   6.996   0.849 -0.0832 -0.2246 -0.2409
  504MOL0     C66409   6.336   7.083   0.861  0.8159 -0.1956 -0.4231
  504MOL0     C66410   6.204   7.014   0.909  0.1443 -0.5636  0.1155
  504MOL0     C66411   6.209   6.988   1.061  0.0238  0.0797 -0.2947
  504MOL0     C66412   6.125   6.879   1.121  0.9536  0.3712  0.4359
  504MOL0     N66413   5.986   6.886   1.068 -0.7471 -0.2988 -0.8963
  504MOL0     C66414   5.916   6.775   1.038 -0.3252 -0.2599 -0.0878
  504MOL0     C66415   5.804   6.820   0.989  0.8507 -0.6016 -0.2332
  504MOL0     C66416   5.700   6.716   0.950 -0.2624  0.2331 -0.5990
  504MOL0     C66417   5.580   6.712   1.037 -0.3993  0.9801 -0.0646
  504MOL0     C66418   5.610   6.660   1.171  0.1658  0.2687 -0.1551
  504MOL0     C66419   5.494   6.654   1.267 -0.0270  0.4632 -0.0983
  504MOL0     O66420   5.371   6.594   1.225 -0.1990 -0.1903 -0.4636
  504MOL0     C66421   5.257   6.595   1.304 -0.5097  0.1773 -1.0635
  504MOL0     C66422   5.248   6.650   1.436  0.0389 -0.3875  0.2597
  504MOL0     C66423   5.127   6.644   1.503 -0.3981 -0.1918 -1.0211
  504MOL0     C66424   5.009   6.590   1.445  0.7821  0.2643 -0.8227
  504MOL0     C66425   4.869   6.618   1.499  0.9033 -0.2329 -0.5678
  504MOL0     O66426   4.863   6.705   1.605 -0.2201  0.2461 -0.2386
  504MOL0     C66427   4.743   6.727   1.669 -1.2334  0.4723 -0.2291
  504MOL0     C66428   4.621   6.744   1.602  0.1135 -0.3801  0.1213
  504MOL0     C66429   4.501   6.764   1.679 -0.0178 -0.8858  0.1709
  504MOL0     C66430   4.504   6.777   1.819  0.1874  0.7357 -0.2472
  504MOL0     O66431   4.389   6.778   1.895 -0.2935  0.2150 -0.0082
  504MOL0     C66432   4.273   6.833   1.836 -0.4421 -1.1022  0.1432
  504MOL0     C66433   4.168   6.871   1.935 -0.1276  0.4980  0.4570
  504MOL0     C66434   4.049   6.937   1.876 -0.0453  0.5491  0.6687
  504MOL0     C66435   3.949   6.982   1.979 -0.0374 -0.1466  0.9053
  504MOL0     C66436   3.834   7.058   1.907  0.1381  0.0659  0.3211
  504MOL0     C66437   3.726   7.090   2.004 -0.7456  0.6171 -0.3487
  504MOL0     C66438   3.588   7.111   1.931  1.1078  0.0348  0.6156
  504MOL0     C66439   3.466   7.153   2.017  0.0434 -0.1932 -0.3667
  504MOL0    Cl66440   3.521   7.310   2.084 -0.0519 -0.0784  0.1270
  504MOL0     C66441   4.627   6.756   1.878 -0.8775  0.3079  0.3547
  504MOL0     C66442   4.748   6.737   1.811  0.2858 -0.4998  0.3969
  504MOL0     O66443   4.773   6.561   1.453 -0.5661  0.0653 -0.4845
  504MOL0     C66444   5.014   6.535   1.317  0.2542 -0.9994  0.0232
  504MOL0     C66445   5.136   6.539   1.249  1.3511 -0.0278  0.7652
  504MOL0     N66446   5.800   6.956   0.993 -0.6833 -0.0210 -0.5732
  504MOL0     N66447   5.918   6.999   1.041  0.1240  0.2139 -0.5846
  504MOL0     C66448   7.048   7.195   0.636  0.2824 -1.0480  0.0222
  504MOL0     C66449   7.187   7.211   0.616 -0.4579 -0.7045  0.1633
  504MOL0     C66450   7.628   7.242   0.662 -0.3315  0.3634 -0.8596
  504MOL0     C66451   7.663   7.313   0.782  0.4029 -0.5612 -0.6461
  504MOL0     C66452   7.797   7.339   0.813  0.4111  0.0081 -0.4507
  504MOL0     C66453   7.901   7.306   0.725  0.1619  0.0062  0.7364
  504MOL0     O66454   8.030   7.333   0.770  0.2965  0.3142  0.5023
  504MOL0     C66455   8.133   7.288   0.677 -0.4581 -0.8202 -0.2082
  504MOL0     C66456   8.266   7.305   0.738 -0.8204  0.3854  0.0664
  504MOL0     C66457   8.383   7.259   0.642  0.4262  0.0123  0.0963
  504MOL0     C66458   8.529   7.281   0.690  0.3030  0.8243 -0.2557
  504MOL0     C66459   8.619   7.320   0.586  0.8626 -0.2181  0.6487
  504MOL0     C66460   8.696   7.359   0.502 -0.5604 -0.2675  0.4379
  504MOL0     C66461   7.862   7.232   0.605  0.0347 -0.0260 -0.9216
  504MOL0     C66462   7.728   7.198   0.573  0.4464  0.4196 -0.9946
  504MOL0     H66463   7.272   7.222   0.941 -1.2978 -0.1121  0.7533
  504MOL0     H66464   7.023   7.168   0.968  1.0558 -1.5529  0.2910
  504MOL0     H66465   6.872   6.997   0.652  1.5437  1.4218  3.0923
  504MOL0     H66466   6.737   7.107   0.591 -3.9138  1.9472  2.9690
  504MOL0     H66467   6.728   6.950   0.848  0.5888 -3.5457 -2.0194
  504MOL0     H66468   6.654   6.900   0.703  0.3245 -1.0849  2.0192
  504MOL0     H66469   6.538   7.116   0.681 -0.8784  0.8321  0.0260
  504MOL0     H66470   6.592   7.151   0.846  0.1976  0.2224 -1.1869
  504MOL0     H66471   6.429   6.902   0.805  0.5188 -0.4317 -0.2523
  504MOL0     H66472   6.501   6.974   0.949 -1.2992 -0.8286  0.1170
  504MOL0     H66473   6.310   7.118   0.761  0.4102  0.9222  0.0629
  504MOL0     H66474   6.355   7.181   0.906  0.0964  1.6033 -3.7385
  504MOL0     H66475   6.196   6.915   0.862  1.2029  0.5150 -2.5597
  504MOL0     H66476   6.116   7.074   0.884 -0.0265  0.2950  2.5004
  504MOL0     H66477   6.311   6.964   1.095 -0.5611 -0.2982  1.2677
  504MOL0     H66478   6.182   7.078   1.116 -0.2618 -0.2739  0.1565
  504MOL0     H66479   6.125   6.888   1.230 -1.4004 -1.4778  0.6849
  504MOL0     H66480   6.167   6.783   1.089  1.2190  0.8928 -0.8356
  504MOL0     H66481   5.959   6.678   1.060  2.4084  0.8943  0.1322
  504MOL0     H66482   5.739   6.615   0.936  1.1242  1.1135 -3.8283
  504MOL0     H66483   5.666   6.738   0.849 -0.6278 -0.1410 -0.5612
  504MOL0     H66484   5.508   6.643   0.992  0.5215 -0.8885  1.1857
  504MOL0     H66485   5.533   6.810   1.052  0.1063  1.0957  0.8039
  504MOL0     H66486   5.638   6.556   1.152 -2.9460 -0.8041  0.4295
  504MOL0     H66487   5.696   6.712   1.214  0.3814 -0.6425  0.5458
  504MOL0     H66488   5.483   6.758   1.301  0.2798  0.1573  0.9655
  504MOL0     H66489   5.527   6.600   1.357 -0.2455  2.7719  1.4801
  504MOL0     H66490   5.325   6.701   1.492  0.6298 -0.3735 -0.5491
  504MOL0     H66491   5.131   6.685   1.604  0.1528  0.9989 -1.5064
  504MOL0     H66492   4.617   6.753   1.494  0.5566  0.4436  0.1654
  504MOL0     H66493   4.406   6.765   1.626  0.3691  0.4927 -0.5626
  504MOL0     H66494   4.217   6.756   1.781 -0.9456 -1.7982  1.5747
  504MOL0     H66495   4.304   6.930   1.796 -1.7628  1.2147  4.1230
  504MOL0     H66496   4.215   6.940   2.005  1.1498 -0.2777  0.3830
  504MOL0     H66497   4.141   6.777   1.984 -1.0979 -0.2278 -1.3586
  504MOL0     H66498   3.999   6.870   1.805  2.1303  0.9162 -1.3209
  504MOL0     H66499   4.084   7.021   1.816  2.9113  0.1262  1.6200
  504MOL0     H66500   3.908   6.889   2.021 -0.1989  0.5160  2.2627
  504MOL0     H66501   3.991   7.041   2.060 -1.9163  1.7023  0.6204
  504MOL0     H66502   3.789   7.014   1.817 -1.0105 -0.6155  1.1901
  504MOL0     H66503   3.871   7.152   1.866  0.3803 -0.7812 -1.5275
  504MOL0     H66504   3.756   7.180   2.058  0.4609 -0.3646  0.6437
  504MOL0     H66505   3.724   7.001   2.067  0.0017 -0.6835 -2.0685
  504MOL0     H66506   3.599   7.184   1.850  0.0766 -0.3561  0.1037
  504MOL0     H66507   3.564   7.016   1.882 -0.0793  0.6658 -0.0770
  504MOL0     H66508   3.450   7.075   2.092  0.6329 -0.0406 -0.0708
  504MOL0     H66509   3.376   7.170   1.958 -0.2364 -1.3041 -0.2771
  504MOL0     H66510   4.631   6.755   1.987  0.2140 -5.4315  0.5796
  504MOL0     H66511   4.839   6.734   1.871  0.6616  1.1343 -0.0345
  504MOL0     H66512   4.925   6.499   1.266 -0.7534  0.7656  0.4530
  504MOL0     H66513   5.149   6.501   1.148 -0.3156  0.3730  0.3773
  504MOL0     H66514   6.988   7.209   0.548 -2.8483 -1.3709  1.9516
  504MOL0     H66515   7.218   7.218   0.513 -2.1006  0.2133 -0.3006
  504MOL0     H66516   7.593   7.329   0.863  2.9575 -0.7079  1.7558
  504MOL0     H66517   7.821   7.389   0.906 -2.4173  0.3788  0.1806
  504MOL0     H66518   8.131   7.344   0.583  0.9789 -1.8536 -0.8860
  504MOL0     H66519   8.117   7.183   0.649 -0.1105 -0.6445 -1.0748
  504MOL0     H66520   8.279   7.410   0.763  1.2817  0.8138 -2.3915
  504MOL0     H66521   8.275   7.253   0.834 -0.9674 -0.3266 -0.2931
  504MOL0     H66522   8.376   7.314   0.548  0.7737 -2.4333 -1.4295
  504MOL0     H66523   8.363   7.154   0.621  2.2016 -0.5552  0.9924
  504MOL0     H66524   8.531   7.356   0.771 -1.8916 -3.0743  3.8769
  504MOL0     H66525   8.569   7.191   0.737 -0.2879  1.8873  2.4835
  504MOL0     H66526   8.761   7.403   0.429 -0.5886  1.6098  1.4830
  504MOL0     H66527   7.927   7.198   0.526 -0.3338  1.7226 -2.0279
  504MOL0     H66528   7.699   7.150   0.480  1.1126  0.5912 -1.2932
  505MOL0     O66529   4.920   5.018   4.999 -0.0724 -0.9072 -0.1435
  505MOL0     C66530   4.961   4.914   5.054  0.2786 -0.7922 -0.7946
  505MOL0     O66531   4.901   4.791   5.064 -0.4770  0.1748  0.1801
  505MOL0     C66532   4.775   4.764   5.006 -0.4802  0.2794  0.1059
  505MOL0     C66533   4.689   4.852   4.952 -0.4652 -0.2981  0.5544
  505MOL0     C66534   4.565   4.806   4.884  0.2625  0.1497  0.2595
  505MOL0     C66535   4.548   4.672   4.855 -0.4208 -0.6135  0.4057
  505MOL0     O66536   4.436   4.638   4.784 -0.0668  0.1671  0.0289
  505MOL0     C66537   4.408   4.496   4.778  0.3470 -0.1932  0.0458
  505MOL0     C66538   4.290   4.490   4.676 -0.3178  1.0483 -1.2219
  505MOL0     C66539   4.249   4.338   4.665  0.6563 -0.0627  0.5375
  505MOL0     C66540   4.232   4.259   4.798  0.1794 -0.1594 -0.3628
  505MOL0     C66541   4.127   4.145   4.800  0.6492  1.2541 -0.9688
  505MOL0     C66542   3.977   4.183   4.778 -0.1089 -0.0571 -0.1006
  505MOL0     C66543   3.892   4.053   4.770  0.0628 -0.1258 -0.1157
  505MOL0     C66544   3.755   4.089   4.712  0.2620  1.3038  0.3147
  505MOL0     N66545   3.658   3.981   4.742 -0.2641  0.7926 -0.0627
  505MOL0     C66546   3.629   3.871   4.672 -0.2091  0.6366  0.0860
  505MOL0     C66547   3.518   3.806   4.724  0.2836 -0.7800  0.6378
  505MOL0     C66548   3.460   3.672   4.683  0.9654  0.0068  0.1718
  505MOL0     C66549   3.318   3.663   4.627 -0.3836 -0.4371  0.8318
  505MOL0     C66550   3.214   3.683   4.732  0.3397 -0.3380 -0.4457
  505MOL0     C66551   3.075   3.651   4.673 -0.0205 -0.7572 -0.1139
  505MOL0     O66552   3.051   3.511   4.633  0.2945 -1.0687 -0.4478
  505MOL0     C66553   2.930   3.463   4.616  0.0462 -0.5580 -0.1780
  505MOL0     C66554   2.822   3.545   4.635  1.0088  0.7807 -0.4023
  505MOL0     C66555   2.693   3.488   4.614 -0.2993  0.3371 -0.5038
  505MOL0     C66556   2.666   3.356   4.591 -0.7962 -0.4431 -1.0727
  505MOL0     C66557   2.531   3.307   4.590 -0.5235  0.5265  0.4052
  505MOL0     O66558   2.429   3.383   4.627  0.7170  0.4583 -0.1738
  505MOL0     C66559   2.303   3.321   4.631  0.6859 -0.2470 -0.2353
  505MOL0     C66560   2.198   3.377   4.565  0.3018 -0.2813 -0.9822
  505MOL0     C66561   2.063   3.335   4.585  0.0327 -0.1455 -0.1281
  505MOL0     C66562   2.041   3.224   4.674  1.4326  0.0599  0.7333
  505MOL0     O66563   1.905   3.192   4.679 -0.3694 -0.3985 -0.2587
  505MOL0     C66564   1.871   3.060   4.717 -1.1162 -1.0675  0.7619
  505MOL0     C66565   1.810   3.081   4.857  0.2448 -0.0422 -0.0113
  505MOL0     C66566   1.661   3.098   4.844  0.4088 -0.5008 -0.0355
  505MOL0     C66567   1.583   3.067   4.978 -0.3543  0.6363 -0.0512
  505MOL0     C66568   1.431   3.101   4.975  0.1973  0.2590  0.5255
  505MOL0     C66569   1.419   3.257   4.941  0.7360 -0.1716  0.5772
  505MOL0     C66570   1.278   3.317   4.967 -0.5950 -0.4945 -0.5916
  505MOL0     C66571   1.287   3.476   4.965  0.2392 -0.0880 -0.0297
  505MOL0    Cl66572   1.116   3.536   4.992 -0.0414  0.1689 -0.2574
  505MOL0     C66573   2.145   3.161   4.741  0.2276 -0.4079  0.6447
  505MOL0     C66574   2.275   3.215   4.718 -0.1784 -0.0679 -0.3241
  505MOL0     O66575   2.522   3.197   4.543 -0.3514  0.6535  0.6277
  505MOL0     C66576   2.780   3.272   4.573  0.6050 -0.9325 -0.5204
  505MOL0     C66577   2.906   3.334   4.586 -0.7689  0.6945  0.4614
  505MOL0     N66578   3.477   3.893   4.827  0.3425  0.3208  0.4854
  505MOL0     N66579   3.562   3.995   4.839 -0.0110 -0.5185  0.3691
  505MOL0     C66580   4.631   4.583   4.924  0.2969 -0.3577 -0.7544
  505MOL0     C66581   4.742   4.626   5.000 -0.7880  0.0291  0.5681
  505MOL0     C66582   5.080   4.930   5.138 -0.8907 -0.0244  1.1227
  505MOL0     C66583   5.132   5.060   5.171 -0.6019 -0.5233  0.2432
  505MOL0     C66584   5.249   5.071   5.251 -0.0499 -0.3514 -0.4732
  505MOL0     C66585   5.321   4.953   5.288  1.5310 -0.1925  0.6981
  505MOL0     O66586   5.422   4.959   5.379  0.1530  0.2529 -0.0995
  505MOL0     C66587   5.493   5.084   5.402  0.4088  0.5000  0.2177
  505MOL0     C66588   5.609   5.060   5.504  0.3682  0.0395 -0.1369
  505MOL0     C66589   5.737   5.010   5.431 -0.3024 -0.0336 -0.2036
  505MOL0     C66590   5.734   4.866   5.373  0.4114 -0.8468  0.0921
  505MOL0     C66591   5.866   4.817   5.321 -0.4871 -0.2816 -0.5057
  505MOL0     C66592   5.979   4.784   5.278  0.5958  0.4264  0.1808
  505MOL0     C66593   5.275   4.834   5.242  0.5957  0.0766 -0.8935
  505MOL0     C66594   5.155   4.812   5.174  0.3784 -0.5946 -0.5227
  505MOL0     H66595   4.703   4.959   4.951 -2.3364  0.1088 -3.6793
  505MOL0     H66596   4.496   4.880   4.843  1.5705  0.1552 -2.1176
  505MOL0     H66597   4.377   4.465   4.878  0.2828  0.3364  0.1955
  505MOL0     H66598   4.497   4.438   4.754  0.0884 -1.6635  2.3126
  505MOL0     H66599   4.325   4.522   4.577  3.1751  0.4296 -0.3162
  505MOL0     H66600   4.214   4.562   4.709 -1.0801  0.2073 -1.1006
  505MOL0     H66601   4.326   4.281   4.612 -1.6070 -0.7603 -2.2333
  505MOL0     H66602   4.158   4.336   4.604  1.1923 -0.0792 -0.2787
  505MOL0     H66603   4.329   4.217   4.827 -1.3565 -3.2967  0.6401
  505MOL0     H66604   4.203   4.333   4.873  1.1311 -0.4481  0.3093
  505MOL0     H66605   4.138   4.111   4.904 -2.6233  0.3135 -0.7933
  505MOL0     H66606   4.155   4.062   4.734  0.0757 -1.0533  1.4830
  505MOL0     H66607   3.957   4.233   4.683  1.2547 -0.7806 -0.8046
  505MOL0     H66608   3.952   4.248   4.862  1.0409  1.3819 -0.8411
  505MOL0     H66609   3.949   3.976   4.717  4.6420  2.8230 -0.0508
  505MOL0     H66610   3.879   4.019   4.873  0.5323  2.1112  0.7480
  505MOL0     H66611   3.764   4.099   4.603 -1.5428 -1.1269 -0.1379
  505MOL0     H66612   3.714   4.179   4.759  0.1040  0.1864  2.4470
  505MOL0     H66613   3.683   3.820   4.594 -0.2446 -0.7703  0.9491
  505MOL0     H66614   3.462   3.616   4.776 -0.6013  2.7314  1.9801
  505MOL0     H66615   3.538   3.635   4.615  1.4718  0.6676  0.3840
  505MOL0     H66616   3.300   3.563   4.586 -0.4185 -0.8642  1.8562
  505MOL0     H66617   3.310   3.737   4.547  2.9226 -0.5523  0.2459
  505MOL0     H66618   3.224   3.623   4.823 -3.1375 -0.6100 -0.1108
  505MOL0     H66619   3.224   3.790   4.750  0.5547 -0.2295 -1.1887
  505MOL0     H66620   3.074   3.705   4.578 -0.4063  0.4870  0.5792
  505MOL0     H66621   3.004   3.689   4.748  3.6770 -1.4230  4.1653
  505MOL0     H66622   2.819   3.654   4.642 -0.6140  0.8296 -1.3683
  505MOL0     H66623   2.608   3.555   4.626  0.4121  0.9855  1.3740
  505MOL0     H66624   2.219   3.467   4.507  0.9665  0.1330 -0.1338
  505MOL0     H66625   1.976   3.386   4.545 -0.1075  2.5998  3.1951
  505MOL0     H66626   1.961   2.999   4.709  1.7080  2.4451  2.6110
  505MOL0     H66627   1.800   3.016   4.646  0.5885 -1.5064 -0.7127
  505MOL0     H66628   1.839   3.170   4.914 -1.5088  0.5755 -0.0338
  505MOL0     H66629   1.832   2.995   4.921  0.5900 -1.1044 -1.5145
  505MOL0     H66630   1.611   3.040   4.765 -0.6894  1.5070 -0.8802
  505MOL0     H66631   1.642   3.202   4.814 -2.2513  0.0256  2.9540
  505MOL0     H66632   1.580   2.959   4.995 -1.2076  0.7010  0.2990
  505MOL0     H66633   1.625   3.125   5.061 -2.8180  0.4216  1.4594
  505MOL0     H66634   1.382   3.075   5.069 -3.4605 -0.4979 -1.3884
  505MOL0     H66635   1.384   3.037   4.900  1.2153 -0.3407  0.3775
  505MOL0     H66636   1.444   3.270   4.835 -0.7604 -1.7687 -0.0280
  505MOL0     H66637   1.494   3.315   4.995 -0.8488  1.7494  0.8378
  505MOL0     H66638   1.211   3.282   4.888 -3.0132  0.8065  0.7361
  505MOL0     H66639   1.232   3.281   5.060  2.9898 -1.8487  0.8326
  505MOL0     H66640   1.321   3.503   4.864  0.9496  0.0504  0.2387
  505MOL0     H66641   1.358   3.529   5.029 -0.6793 -1.2327  2.0129
  505MOL0     H66642   2.130   3.080   4.810  1.7341 -0.8271  0.5258
  505MOL0     H66643   2.352   3.175   4.782  0.7325  0.6107 -0.9747
  505MOL0     H66644   2.763   3.167   4.553 -3.1700 -0.2642 -1.5056
  505MOL0     H66645   2.995   3.271   4.586 -0.7865  0.6413 -0.9403
  505MOL0     H66646   4.600   4.481   4.942 -2.1762  0.6914  1.7913
  505MOL0     H66647   4.802   4.557   5.059 -2.6360 -0.9114  1.4164
  505MOL0     H66648   5.086   5.155   5.143 -1.7208  0.4645  4.6009
  505MOL0     H66649   5.280   5.162   5.302 -0.5017 -0.5901  0.2414
  505MOL0     H66650   5.429   5.155   5.456  3.7201  1.0239  3.8611
  505MOL0     H66651   5.525   5.127   5.306 -0.9102 -0.7500 -0.8272
  505MOL0     H66652   5.630   5.150   5.562  0.9227  1.4737 -2.4396
  505MOL0     H66653   5.581   4.979   5.572 -0.0426  2.6355  3.0492
  505MOL0     H66654   5.823   5.000   5.497  1.1725 -2.6085 -2.2939
  505MOL0     H66655   5.766   5.076   5.349 -2.4416 -1.9517 -2.6946
  505MOL0     H66656   5.683   4.800   5.444  0.5503  0.8100  1.8132
  505MOL0     H66657   5.677   4.880   5.281 -0.3491  2.1150  0.8920
  505MOL0     H66658   6.070   4.735   5.251 -0.0664 -4.4430  5.0538
  505MOL0     H66659   5.326   4.738   5.248  0.0513 -0.3202 -2.2055
  505MOL0     H66660   5.111   4.719   5.140 -0.2669 -0.2077 -0.7480
  506MOL0     O66661   1.603   1.320  10.750 -0.1139  0.9853 -0.6330
  506MOL0     C66662   1.591   1.442  10.762 -0.5339  0.3841 -1.2255
  506MOL0     O66663   1.517   1.518  10.850 -0.1126 -0.2796 -0.3895
  506MOL0     C66664   1.442   1.446  10.947  0.0259  0.9963  0.7581
  506MOL0     C66665   1.307   1.472  10.949 -0.5861 -0.4785  0.5755
  506MOL0     C66666   1.222   1.416  11.044  0.4252 -0.7062 -0.2570
  506MOL0     C66667   1.266   1.327  11.141 -0.6549  0.4880  0.1733
  506MOL0     O66668   1.175   1.277  11.225 -0.0844  0.2219  0.3701
  506MOL0     C66669   1.229   1.207  11.344  0.1764  0.3325  0.2698
  506MOL0     C66670   1.106   1.140  11.419  0.1767 -0.1454  0.9552
  506MOL0     C66671   1.001   1.250  11.450 -0.2159  0.4179 -0.6115
  506MOL0     C66672   0.908   1.183  11.555 -0.3090  0.0677 -0.2861
  506MOL0     C66673   0.794   1.266  11.609  0.5805 -0.3469 -0.9443
  506MOL0     C66674   0.679   1.302  11.516 -0.0640 -0.7376  0.4693
  506MOL0     C66675   0.555   1.344  11.600 -0.0984 -0.2154 -0.1357
  506MOL0     C66676   0.435   1.374  11.507 -0.5140 -0.0192  0.5097
  506MOL0     N66677   0.310   1.404  11.567  0.3719  0.1391  0.8842
  506MOL0     C66678   0.222   1.314  11.621  0.1495 -0.3105 -0.2579
  506MOL0     C66679   0.107   1.383  11.643  1.4862 -0.3085 -0.4986
  506MOL0     C66680  -0.030   1.331  11.691 -0.1326 -0.9585 -0.1467
  506MOL0     C66681  -0.026   1.242  11.821  0.1458  0.0778 -0.2234
  506MOL0     C66682  -0.163   1.198  11.849 -0.1778 -0.0187  1.0814
  506MOL0     C66683  -0.173   1.119  11.974  0.2735  0.3845  0.1755
  506MOL0     O66684  -0.167   1.208  12.084 -0.6490 -0.2192  0.3810
  506MOL0     C66685  -0.275   1.260  12.145 -0.2932 -0.1599 -0.6613
  506MOL0     C66686  -0.405   1.255  12.087 -0.2781 -0.2481 -0.0514
  506MOL0     C66687  -0.517   1.301  12.163  0.9388  0.5952  0.7306
  506MOL0     C66688  -0.496   1.342  12.293 -0.4139  0.1299  0.7174
  506MOL0     C66689  -0.612   1.366  12.377  0.3006 -0.2073 -0.2076
  506MOL0     O66690  -0.738   1.394  12.319  0.2159  0.0543 -0.1109
  506MOL0     C66691  -0.858   1.418  12.382 -0.2462  0.4261 -0.5989
  506MOL0     C66692  -0.983   1.390  12.324 -0.0454  0.2164  0.7500
  506MOL0     C66693  -1.104   1.413  12.388 -0.5923 -0.5480 -0.3145
  506MOL0     C66694  -1.104   1.475  12.512  0.4733  0.3697 -0.2976
  506MOL0     O66695  -1.208   1.506  12.593  0.2529 -0.3880  0.3095
  506MOL0     C66696  -1.335   1.439  12.575 -0.2513 -0.1939 -0.5412
  506MOL0     C66697  -1.315   1.292  12.617  0.2703 -0.5399 -0.6016
  506MOL0     C66698  -1.436   1.205  12.599  0.8727  1.0328  1.1609
  506MOL0     C66699  -1.559   1.243  12.684 -0.3374  0.5476 -0.2752
  506MOL0     C66700  -1.671   1.149  12.651  0.1550 -0.0708 -0.9176
  506MOL0     C66701  -1.741   1.180  12.518 -0.6031 -1.1282  0.4536
  506MOL0     C66702  -1.842   1.066  12.476 -0.1592 -0.1245 -0.2955
  506MOL0     C66703  -1.904   1.072  12.332  0.4476  0.4130 -0.1802
  506MOL0    Cl66704  -1.964   1.245  12.287  0.2306  0.4655 -0.2828
  506MOL0     C66705  -0.986   1.510  12.566  0.4767 -0.1900 -0.7402
  506MOL0     C66706  -0.868   1.484  12.506 -0.3899 -0.2082 -0.0215
  506MOL0     O66707  -0.597   1.361  12.497  0.0183  0.5120  0.2101
  506MOL0     C66708  -0.356   1.369  12.340  0.3935 -0.5911 -0.0731
  506MOL0     C66709  -0.251   1.324  12.266 -0.3404  0.3219 -0.2453
  506MOL0     N66710   0.132   1.515  11.600 -0.2908 -1.1198 -1.1832
  506MOL0     N66711   0.249   1.529  11.570  0.6861 -0.4697 -0.3332
  506MOL0     C66712   1.407   1.300  11.146  0.5707 -0.9849 -0.1984
  506MOL0     C66713   1.495   1.360  11.046 -0.0493 -0.0714 -0.2188
  506MOL0     C66714   1.684   1.515  10.670  0.2948  0.0460 -0.7430
  506MOL0     C66715   1.671   1.660  10.673 -0.1184  0.5391 -0.0588
  506MOL0     C66716   1.765   1.732  10.604  0.0935  0.0661  0.4320
  506MOL0     C66717   1.876   1.674  10.538 -0.6236 -0.3321 -0.8371
  506MOL0     O66718   1.958   1.761  10.478  0.0420 -0.2194  0.1918
  506MOL0     C66719   2.073   1.720  10.409 -0.2879  0.0283  0.8233
  506MOL0     C66720   2.184   1.689  10.503 -0.5323 -0.1520  0.6040
  506MOL0     C66721   2.299   1.610  10.443  0.2869  0.7138 -0.3011
  506MOL0     C66722   2.418   1.696  10.404 -0.4507  0.5565 -0.0171
  506MOL0     C66723   2.400   1.807  10.307  0.4032 -0.0405  0.3827
  506MOL0     C66724   2.361   1.898  10.240  0.4924  0.0914  0.3682
  506MOL0     C66725   1.876   1.536  10.523  0.4793 -0.2050  0.3925
  506MOL0     C66726   1.782   1.461  10.593  0.0519 -0.4349 -0.1075
  506MOL0     H66727   1.249   1.537  10.884 -1.2623 -1.3512  0.2897
  506MOL0     H66728   1.119   1.447  11.048  0.6183  0.6495 -3.2469
  506MOL0     H66729   1.274   1.287  11.404 -0.9198  1.8585 -0.8648
  506MOL0     H66730   1.299   1.129  11.312  0.8541 -0.1812  2.7530
  506MOL0     H66731   1.147   1.089  11.506  1.1312 -2.9071 -0.9551
  506MOL0     H66732   1.068   1.061  11.353  1.6344  1.1273 -1.6003
  506MOL0     H66733   0.943   1.292  11.367  0.0648  1.7937 -0.1337
  506MOL0     H66734   1.039   1.344  11.490  1.0287 -0.4066  0.2265
  506MOL0     H66735   0.860   1.098  11.505  2.7361 -1.9838  0.0129
  506MOL0     H66736   0.963   1.155  11.645 -4.1040 -1.0368  1.9481
  506MOL0     H66737   0.826   1.366  11.641 -2.3154 -0.0152  1.3689
  506MOL0     H66738   0.759   1.210  11.696  0.5906  0.5631 -0.3367
  506MOL0     H66739   0.659   1.223  11.443  0.6328 -0.8114  0.3481
  506MOL0     H66740   0.708   1.383  11.448 -0.4158 -3.5034 -3.2798
  506MOL0     H66741   0.539   1.257  11.664  2.7629 -2.5996 -2.3695
  506MOL0     H66742   0.587   1.436  11.650  1.2448 -1.0498  0.5834
  506MOL0     H66743   0.418   1.295  11.433  2.1594  1.1374 -1.4954
  506MOL0     H66744   0.480   1.461  11.458  3.3842 -0.6891  2.5225
  506MOL0     H66745   0.228   1.207  11.636 -2.5637 -0.2425  2.4495
  506MOL0     H66746  -0.077   1.280  11.607 -1.2495 -0.3880  0.1051
  506MOL0     H66747  -0.106   1.408  11.710 -1.5675 -2.3808  0.0307
  506MOL0     H66748   0.000   1.308  11.904 -0.9718  0.7027 -0.3557
  506MOL0     H66749   0.041   1.155  11.822  0.6752  0.4145 -2.1805
  506MOL0     H66750  -0.232   1.283  11.852 -0.4121 -0.2173  1.4264
  506MOL0     H66751  -0.192   1.140  11.760  2.6407  1.5817 -1.0261
  506MOL0     H66752  -0.099   1.039  11.985 -1.9224 -1.5524  2.0038
  506MOL0     H66753  -0.269   1.067  11.973  0.5109 -0.0575 -1.4817
  506MOL0     H66754  -0.427   1.214  11.988  0.5534 -2.1697  0.5140
  506MOL0     H66755  -0.620   1.280  12.134  0.6785 -0.8466  2.4986
  506MOL0     H66756  -0.971   1.336  12.231  1.9386  0.6326  0.7299
  506MOL0     H66757  -1.197   1.379  12.343  0.2745 -0.8877 -1.9377
  506MOL0     H66758  -1.378   1.445  12.474 -0.7116  1.0095 -0.2940
  506MOL0     H66759  -1.399   1.493  12.645  0.4722 -0.8354  0.6379
  506MOL0     H66760  -1.283   1.294  12.722 -1.0045  1.6713 -0.1965
  506MOL0     H66761  -1.230   1.249  12.563 -0.7831 -3.6707 -0.0035
  506MOL0     H66762  -1.407   1.107  12.639  1.0383  0.5911  0.0087
  506MOL0     H66763  -1.458   1.198  12.492 -1.3401  2.4414  1.4710
  506MOL0     H66764  -1.536   1.225  12.790  0.4377 -2.8522 -0.8860
  506MOL0     H66765  -1.599   1.345  12.676 -0.7426  0.7413  2.7126
  506MOL0     H66766  -1.753   1.158  12.724 -0.8221  1.4137 -2.1376
  506MOL0     H66767  -1.630   1.048  12.656  3.4939  1.2078  2.5212
  506MOL0     H66768  -1.670   1.204  12.438 -0.7057 -0.3358  0.5974
  506MOL0     H66769  -1.802   1.269  12.533  1.2624  0.2812  0.1051
  506MOL0     H66770  -1.789   0.973  12.497  1.1350  1.0212  1.8915
  506MOL0     H66771  -1.921   1.084  12.550  0.2898 -0.9468  0.3959
  506MOL0     H66772  -1.976   0.991  12.323  0.0566  0.8698 -1.6278
  506MOL0     H66773  -1.822   1.042  12.267 -1.2453  0.7484 -2.6223
  506MOL0     H66774  -0.979   1.552  12.666 -3.6029  0.7176 -0.6550
  506MOL0     H66775  -0.774   1.511  12.553  0.2212  1.8806 -2.2364
  506MOL0     H66776  -0.349   1.390  12.447  0.8338 -2.7854  0.3828
  506MOL0     H66777  -0.150   1.323  12.304 -0.4300  1.7921  0.0651
  506MOL0     H66778   1.455   1.235  11.218  1.5250  1.9215  1.9338
  506MOL0     H66779   1.600   1.333  11.049 -0.7756 -3.2399  2.6957
  506MOL0     H66780   1.602   1.714  10.737  1.2291  0.6759  1.3272
  506MOL0     H66781   1.754   1.840  10.605  0.3277  0.2659 -3.4264
  506MOL0     H66782   2.108   1.802  10.344 -0.0243  0.5624  1.6273
  506MOL0     H66783   2.061   1.632  10.346 -0.0855  0.5805 -0.0076
  506MOL0     H66784   2.220   1.785  10.541  2.4277 -0.1998 -1.6722
  506MOL0     H66785   2.143   1.619  10.577 -0.4498 -1.3058 -0.4110
  506MOL0     H66786   2.270   1.557  10.352  0.4404  1.3806 -0.7494
  506MOL0     H66787   2.332   1.533  10.514 -1.2933 -1.3137 -1.6671
  506MOL0     H66788   2.466   1.728  10.497 -0.8875  0.0488  0.3878
  506MOL0     H66789   2.496   1.641  10.350  0.9168  2.2571  0.1526
  506MOL0     H66790   2.331   1.983  10.181  1.1313 -0.1696 -0.3449
  506MOL0     H66791   1.952   1.486  10.464  1.4964  1.2775  0.3950
  506MOL0     H66792   1.797   1.354  10.603  3.0885  0.0245  1.6408
  507MOL0     O66793   2.927   8.877   9.305 -0.7687 -0.4270 -0.4711
  507MOL0     C66794   2.954   8.900   9.420 -0.2769  0.5366 -0.2965
  507MOL0     O66795   2.863   8.881   9.522 -0.1971  0.4812 -0.6968
  507MOL0     C66796   2.725   8.892   9.505 -0.0956 -0.8252  0.1533
  507MOL0     C66797   2.634   8.819   9.586 -0.0314 -0.1951 -0.6422
  507MOL0     C66798   2.495   8.830   9.559 -0.7957  0.7676  0.2584
  507MOL0     C66799   2.442   8.906   9.457 -0.9344 -0.1539 -0.0974
  507MOL0     O66800   2.309   8.896   9.429 -0.1573  0.6374 -0.5747
  507MOL0     C66801   2.244   8.990   9.343 -0.6008 -1.1625 -0.3212
  507MOL0     C66802   2.101   9.001   9.386  0.6570  0.0633 -0.3029
  507MOL0     C66803   2.025   8.867   9.360  0.1862  0.4573  0.1687
  507MOL0     C66804   1.869   8.885   9.394  0.0430  0.1709  0.2470
  507MOL0     C66805   1.785   8.755   9.382  0.2029  0.6725  0.5268
  507MOL0     C66806   1.634   8.774   9.386  0.4810 -0.3327  0.5700
  507MOL0     C66807   1.555   8.644   9.424  0.3393 -0.1589 -0.3171
  507MOL0     C66808   1.431   8.620   9.327 -0.7678 -0.8183  0.2753
  507MOL0     N66809   1.354   8.495   9.348 -0.3700  0.5866  0.1478
  507MOL0     C66810   1.262   8.473   9.447  0.3717 -0.0968  0.1864
  507MOL0     C66811   1.206   8.356   9.416  0.2403 -0.3829 -0.1946
  507MOL0     C66812   1.072   8.297   9.477 -0.3373 -0.5262 -0.1385
  507MOL0     C66813   0.942   8.323   9.398  0.3845  0.0054  0.2067
  507MOL0     C66814   0.874   8.450   9.435  0.1015  0.3117 -0.3733
  507MOL0     C66815   0.740   8.477   9.363  0.9944 -0.0828 -0.6436
  507MOL0     O66816   0.671   8.583   9.434 -0.3086 -0.1255  0.2097
  507MOL0     C66817   0.535   8.599   9.415 -0.1655 -0.3001 -0.5152
  507MOL0     C66818   0.469   8.699   9.487  0.1215  0.1232 -0.3864
  507MOL0     C66819   0.330   8.718   9.472  0.3272 -0.1270 -0.7982
  507MOL0     C66820   0.256   8.651   9.383  0.1690 -0.8058  0.1859
  507MOL0     C66821   0.114   8.681   9.359 -0.8082  0.0409  0.6040
  507MOL0     O66822   0.051   8.790   9.417  0.3594 -0.6424 -0.4530
  507MOL0     C66823  -0.087   8.801   9.443  0.1654  0.5778 -0.1829
  507MOL0     C66824  -0.162   8.924   9.450 -0.1529 -0.4896 -0.4861
  507MOL0     C66825  -0.301   8.931   9.454  0.6653 -0.2393 -0.4177
  507MOL0     C66826  -0.370   8.818   9.473  0.5648  0.1278  0.0767
  507MOL0     O66827  -0.510   8.829   9.473  0.2266 -0.3259  0.3545
  507MOL0     C66828  -0.573   8.754   9.588  0.1898 -0.6690 -0.1242
  507MOL0     C66829  -0.714   8.811   9.619  0.1137  0.4821 -0.0471
  507MOL0     C66830  -0.789   8.727   9.720  0.3383 -0.3250  0.8576
  507MOL0     C66831  -0.919   8.797   9.762  0.6522  0.0525  0.2453
  507MOL0     C66832  -1.005   8.697   9.842  0.0678 -0.5118 -0.7085
  507MOL0     C66833  -1.084   8.767   9.950 -0.1042 -0.2566 -0.0612
  507MOL0     C66834  -1.188   8.673  10.013  0.5707  0.2153 -0.5178
  507MOL0     C66835  -1.261   8.559   9.925 -0.5745  0.1918 -0.3608
  507MOL0    Cl66836  -1.406   8.501  10.005  0.1761  0.1657  0.1861
  507MOL0     C66837  -0.302   8.691   9.479 -0.3287  0.5699  0.2228
  507MOL0     C66838  -0.162   8.684   9.460 -0.6912  0.2203 -0.0033
  507MOL0     O66839   0.060   8.602   9.280  0.0778 -0.5660  0.2820
  507MOL0     C66840   0.323   8.550   9.311  0.0408 -0.4519  0.2377
  507MOL0     C66841   0.460   8.520   9.334  0.2950 -0.8422  0.8287
  507MOL0     N66842   1.272   8.307   9.301  0.1805 -0.2943  0.3699
  507MOL0     N66843   1.348   8.394   9.259 -0.1532 -0.4886  0.3913
  507MOL0     C66844   2.536   8.976   9.374  0.2638  0.8025  0.2269
  507MOL0     C66845   2.670   8.978   9.403  0.2439 -0.8318  0.3940
  507MOL0     C66846   3.090   8.939   9.464 -0.0795  0.2018 -0.5016
  507MOL0     C66847   3.105   9.010   9.589 -1.1760 -0.5041 -0.4144
  507MOL0     C66848   3.237   9.041   9.627  0.2701  0.6079  0.3445
  507MOL0     C66849   3.351   9.014   9.557 -0.2336  0.8744  0.4885
  507MOL0     O66850   3.466   9.049   9.624 -0.2269  0.2010 -0.1495
  507MOL0     C66851   3.567   9.113   9.538  0.4664  0.1494  0.5253
  507MOL0     C66852   3.688   9.117   9.626 -0.1529 -0.2214 -0.1088
  507MOL0     C66853   3.817   9.165   9.554 -0.0951 -0.2685  0.0659
  507MOL0     C66854   3.950   9.105   9.609 -0.3113 -0.1129 -0.4059
  507MOL0     C66855   4.068   9.149   9.531 -0.2654  0.3939  0.5073
  507MOL0     C66856   4.181   9.172   9.488 -0.0229 -0.1968  1.7955
  507MOL0     C66857   3.338   8.927   9.447  0.9255  0.3764  0.0796
  507MOL0     C66858   3.214   8.894   9.397  0.2346  0.0066 -0.7440
  507MOL0     H66859   2.669   8.765   9.674 -2.3440 -2.5026 -1.0269
  507MOL0     H66860   2.430   8.782   9.632 -2.8666  2.1218 -0.6122
  507MOL0     H66861   2.254   8.960   9.239 -4.5719 -0.2397 -1.1436
  507MOL0     H66862   2.281   9.092   9.358 -2.8487 -0.3771  0.3050
  507MOL0     H66863   2.045   9.065   9.318  2.2614  0.3204 -1.4142
  507MOL0     H66864   2.090   9.037   9.489 -2.8011 -1.4182  0.0001
  507MOL0     H66865   2.071   8.782   9.409  1.4658  0.4368 -1.0311
  507MOL0     H66866   2.026   8.859   9.251 -2.9611  1.8138 -0.1034
  507MOL0     H66867   1.857   8.921   9.496  0.5508 -0.4223  0.5178
  507MOL0     H66868   1.822   8.965   9.336 -0.3419  2.6349  3.6915
  507MOL0     H66869   1.814   8.677   9.452 -0.7415 -0.6535 -0.4943
  507MOL0     H66870   1.800   8.715   9.281 -2.7851  1.2970 -0.2488
  507MOL0     H66871   1.582   8.816   9.299 -0.6588 -2.6197  0.0646
  507MOL0     H66872   1.611   8.847   9.464 -1.6234  0.6553 -0.8717
  507MOL0     H66873   1.619   8.557   9.406 -2.5175 -1.9083 -3.4458
  507MOL0     H66874   1.523   8.645   9.528  1.8953  2.7515  0.2200
  507MOL0     H66875   1.470   8.609   9.226 -2.4402  2.3118 -0.8581
  507MOL0     H66876   1.379   8.715   9.344  1.5042 -0.0307  3.8872
  507MOL0     H66877   1.238   8.542   9.527  0.0689 -1.2853  1.1628
  507MOL0     H66878   1.075   8.309   9.585  3.2024 -0.0247 -0.1776
  507MOL0     H66879   1.087   8.188   9.481  1.6868 -0.2418  1.6132
  507MOL0     H66880   0.874   8.245   9.432 -0.5751  1.4624  1.7390
  507MOL0     H66881   0.964   8.318   9.291 -0.0546  0.6346  0.0814
  507MOL0     H66882   0.844   8.431   9.538 -0.4686  1.6935 -0.2683
  507MOL0     H66883   0.943   8.535   9.438 -1.5066  1.6288  1.8098
  507MOL0     H66884   0.687   8.382   9.375  1.2678 -0.0460  1.1462
  507MOL0     H66885   0.761   8.510   9.261  0.8639  0.1925 -0.5827
  507MOL0     H66886   0.523   8.761   9.559  0.9467  0.4284 -1.2516
  507MOL0     H66887   0.282   8.799   9.526 -1.2627 -1.8958  0.5153
  507MOL0     H66888  -0.108   9.018   9.451 -0.1543 -0.4518  1.9558
  507MOL0     H66889  -0.359   9.019   9.431 -0.7743 -1.8599 -3.6882
  507MOL0     H66890  -0.526   8.758   9.686 -1.2042 -0.4420  0.5555
  507MOL0     H66891  -0.586   8.654   9.544 -2.7378 -0.1505 -0.6170
  507MOL0     H66892  -0.782   8.808   9.534  1.6335 -1.4133 -1.2764
  507MOL0     H66893  -0.708   8.915   9.654 -4.6620  0.5892  1.1440
  507MOL0     H66894  -0.725   8.716   9.808 -0.6695 -2.4183  1.3815
  507MOL0     H66895  -0.817   8.631   9.676 -0.8296  0.7650 -0.9392
  507MOL0     H66896  -0.899   8.884   9.825  2.1768  0.8733 -1.2689
  507MOL0     H66897  -0.970   8.838   9.674  1.7756  1.7294  0.3244
  507MOL0     H66898  -0.942   8.623   9.894 -1.2965 -0.3378  1.2986
  507MOL0     H66899  -1.075   8.638   9.781  0.1137 -3.0111  1.4628
  507MOL0     H66900  -1.135   8.855   9.908  0.5012  0.4009  0.5547
  507MOL0     H66901  -1.017   8.792  10.032 -1.5801  1.4027  0.7036
  507MOL0     H66902  -1.134   8.606  10.080 -0.9116 -2.1155 -1.5315
  507MOL0     H66903  -1.254   8.740  10.069  0.5386 -0.1902 -0.0609
  507MOL0     H66904  -1.192   8.478   9.899 -2.8274 -0.8329 -3.9869
  507MOL0     H66905  -1.292   8.602   9.829 -2.1450  3.0447  1.2726
  507MOL0     H66906  -0.365   8.603   9.494 -0.5517  0.7629  0.4364
  507MOL0     H66907  -0.130   8.580   9.456 -0.4432  0.2713  0.5202
  507MOL0     H66908   0.271   8.496   9.232 -1.1926  0.6884  0.2195
  507MOL0     H66909   0.509   8.457   9.260 -4.0917  1.6849 -5.1174
  507MOL0     H66910   2.502   9.043   9.295 -1.4030 -0.8056 -0.4959
  507MOL0     H66911   2.734   9.036   9.338 -1.1299 -1.6422 -1.8037
  507MOL0     H66912   3.017   9.046   9.640  0.1325  0.7315  1.0873
  507MOL0     H66913   3.249   9.085   9.726 -0.2006 -1.0266  1.1593
  507MOL0     H66914   3.529   9.204   9.491 -2.2362 -0.9468  0.3696
  507MOL0     H66915   3.594   9.051   9.453  4.0028 -0.4717  1.9468
  507MOL0     H66916   3.671   9.185   9.710 -0.8177  1.6501 -1.6949
  507MOL0     H66917   3.696   9.017   9.671 -1.7297 -0.0951  0.5154
  507MOL0     H66918   3.832   9.273   9.563  0.8142 -0.1955 -1.8705
  507MOL0     H66919   3.817   9.153   9.445 -1.3835  3.4338 -0.4821
  507MOL0     H66920   3.966   9.137   9.712  0.6627  0.3098 -0.6716
  507MOL0     H66921   3.941   8.996   9.610  0.0122 -0.1455 -0.5994
  507MOL0     H66922   4.278   9.182   9.442 -0.7197 -1.4592 -0.0948
  507MOL0     H66923   3.420   8.892   9.384  2.6294  0.2625  2.2200
  507MOL0     H66924   3.215   8.828   9.311 -1.1572  0.3382 -1.0378
  508MOL0     O66925   7.076   9.557   2.170  0.3569  0.5348 -0.3000
  508MOL0     C66926   7.153   9.557   2.078  0.5128 -0.3933  1.0922
  508MOL0     O66927   7.127   9.628   1.962 -0.2521  0.8384  0.0945
  508MOL0     C66928   7.003   9.687   1.939  0.2871 -0.0552 -0.1883
  508MOL0     C66929   6.880   9.628   1.991  0.4336 -1.5053 -0.6420
  508MOL0     C66930   6.750   9.680   1.959 -0.4967  0.1575  0.2459
  508MOL0     C66931   6.743   9.781   1.866  0.1370 -0.0299 -0.4514
  508MOL0     O66932   6.615   9.843   1.820  0.6465  0.0375 -0.0333
  508MOL0     C66933   6.495   9.787   1.865  0.0826 -0.5720 -0.9913
  508MOL0     C66934   6.448   9.864   1.995 -0.3118  0.1810 -0.2745
  508MOL0     C66935   6.415  10.006   1.970  0.6164 -1.1394 -0.4037
  508MOL0     C66936   6.388  10.086   2.105 -0.2939 -0.2949 -0.4519
  508MOL0     C66937   6.270  10.041   2.200 -0.1272  0.4512 -0.2448
  508MOL0     C66938   6.134  10.060   2.125  0.5352  0.1906 -0.5085
  508MOL0     C66939   6.018   9.986   2.193  0.7116 -0.1846 -0.4985
  508MOL0     C66940   5.890   9.986   2.103 -0.7007 -0.7033 -0.4877
  508MOL0     N66941   5.783   9.905   2.156 -0.1647  0.1428  0.1184
  508MOL0     C66942   5.715   9.920   2.278 -0.5580  0.6453  0.8004
  508MOL0     C66943   5.632   9.810   2.283 -0.2011  0.0541 -0.7101
  508MOL0     C66944   5.545   9.767   2.392  0.5438  0.0258 -0.3012
  508MOL0     C66945   5.446   9.884   2.434  0.1176 -0.5355  0.1374
  508MOL0     C66946   5.354   9.929   2.323 -0.2178 -0.2287 -0.7183
  508MOL0     C66947   5.277  10.049   2.371  0.5180 -0.3384  0.0876
  508MOL0     O66948   5.192  10.042   2.482  0.6680  0.6498  0.3364
  508MOL0     C66949   5.064   9.997   2.470 -0.5422  0.0832  0.3548
  508MOL0     C66950   4.978  10.009   2.580 -0.2536  1.2275  0.0434
  508MOL0     C66951   4.841   9.971   2.565  0.0821 -0.1012  0.2846
  508MOL0     C66952   4.784   9.929   2.444 -0.2837  0.6396 -0.3591
  508MOL0     C66953   4.644   9.904   2.431 -0.4700  0.6781 -0.2990
  508MOL0     O66954   4.608   9.875   2.302  0.0961  0.9998 -0.0705
  508MOL0     C66955   4.477   9.878   2.268 -0.2309 -0.1399 -0.1226
  508MOL0     C66956   4.389   9.784   2.309 -0.0532  0.9475 -0.8861
  508MOL0     C66957   4.253   9.786   2.268  0.5878 -0.6782  0.1167
  508MOL0     C66958   4.205   9.888   2.188  0.0029  0.4661  0.0897
  508MOL0     O66959   4.071   9.886   2.148 -0.0892 -0.0396  0.5357
  508MOL0     C66960   4.005   9.999   2.100 -0.6645 -1.0672 -0.4514
  508MOL0     C66961   3.850   9.988   2.118 -0.0411  0.2764  0.5451
  508MOL0     C66962   3.773  10.106   2.048  0.0311  0.8743  0.7256
  508MOL0     C66963   3.845  10.244   2.069  0.1659 -0.1496 -0.0468
  508MOL0     C66964   3.758  10.365   2.050 -0.0976  0.1235  0.3286
  508MOL0     C66965   3.843  10.502   2.052  0.3353  0.5567 -0.2876
  508MOL0     C66966   3.749  10.619   2.037 -0.2004 -0.5023 -0.8356
  508MOL0     C66967   3.822  10.754   2.074  0.4357 -0.2689  0.7530
  508MOL0    Cl66968   3.988  10.776   1.992  0.0438 -0.0199 -0.3440
  508MOL0     C66969   4.289   9.993   2.164  0.7596 -0.9974  0.6419
  508MOL0     C66970   4.431   9.982   2.193  0.6586 -1.1059  0.2449
  508MOL0     O66971   4.565   9.900   2.525  0.0328 -0.3118 -0.8512
  508MOL0     C66972   4.869   9.922   2.336 -0.2642  0.8916 -0.3325
  508MOL0     C66973   5.004   9.949   2.348 -0.5350  0.1177 -0.3878
  508MOL0     N66974   5.637   9.738   2.170  0.2102  0.5455  0.0635
  508MOL0     N66975   5.733   9.791   2.094 -0.2419  0.7610 -0.0716
  508MOL0     C66976   6.858   9.830   1.813 -0.2076  0.0446 -0.4412
  508MOL0     C66977   6.988   9.791   1.844  0.9003  0.0090 -0.6399
  508MOL0     C66978   7.282   9.496   2.099  0.7997  0.3256  0.4626
  508MOL0     C66979   7.314   9.417   2.205  0.2289 -1.8444  0.3178
  508MOL0     C66980   7.441   9.350   2.219  0.1781 -0.2056  0.6162
  508MOL0     C66981   7.532   9.369   2.121 -0.5177  0.3860  0.4259
  508MOL0     O66982   7.658   9.331   2.152  0.2288 -0.2994 -0.2860
  508MOL0     C66983   7.721   9.439   2.217  0.6138  0.2257 -0.2241
  508MOL0     C66984   7.854   9.378   2.267 -0.0680 -0.0510  0.0676
  508MOL0     C66985   7.961   9.484   2.307  0.8040  0.4331  0.2533
  508MOL0     C66986   8.087   9.417   2.338  0.1639  0.0835 -0.2974
  508MOL0     C66987   8.183   9.524   2.375  0.0769 -0.1797 -0.1532
  508MOL0     C66988   8.261   9.613   2.412  0.9133 -0.2938 -0.3237
  508MOL0     C66989   7.512   9.452   2.014 -0.2914  0.0102 -0.0909
  508MOL0     C66990   7.382   9.511   1.997  0.2678 -0.0043 -0.4975
  508MOL0     H66991   6.883   9.542   2.057 -1.9349 -2.6307 -1.9028
  508MOL0     H66992   6.668   9.638   2.016 -1.1273  2.1581  0.8923
  508MOL0     H66993   6.502   9.679   1.883  2.8736 -0.1930  0.8906
  508MOL0     H66994   6.421   9.797   1.785 -0.5661 -1.1843 -0.4805
  508MOL0     H66995   6.528   9.862   2.069 -0.7675  3.3460  0.4648
  508MOL0     H66996   6.364   9.804   2.033 -0.2315 -0.4284 -1.0170
  508MOL0     H66997   6.321  10.021   1.915  0.4094 -0.9387  0.0016
  508MOL0     H66998   6.489  10.049   1.902  0.1122 -1.7104 -1.3474
  508MOL0     H66999   6.481  10.089   2.162 -2.0853  2.9183  2.7704
  508MOL0     H67000   6.369  10.194   2.095 -1.6499 -0.4507  0.1807
  508MOL0     H67001   6.268  10.095   2.296 -2.9831 -1.9026  1.1730
  508MOL0     H67002   6.299   9.938   2.225  1.3591  0.1177 -2.9958
  508MOL0     H67003   6.136  10.020   2.023  0.5543 -1.7553  0.1952
  508MOL0     H67004   6.105  10.165   2.123 -1.7876 -0.2963  1.5000
  508MOL0     H67005   6.042   9.880   2.204 -0.3565 -0.2009  3.2989
  508MOL0     H67006   6.007  10.032   2.292  0.6199 -1.1579 -0.0363
  508MOL0     H67007   5.917   9.945   2.005  0.7871  0.7482 -0.7333
  508MOL0     H67008   5.860  10.089   2.082 -1.5772 -1.0127 -0.7995
  508MOL0     H67009   5.746   9.990   2.355  2.1568  0.1572  0.2463
  508MOL0     H67010   5.612   9.745   2.476  0.3426  0.4970 -0.0112
  508MOL0     H67011   5.485   9.679   2.369 -2.0458  2.2921 -3.0902
  508MOL0     H67012   5.494   9.976   2.470 -3.7876  1.3094  1.2164
  508MOL0     H67013   5.382   9.854   2.517 -1.0434 -1.3055 -0.9980
  508MOL0     H67014   5.407   9.956   2.231  1.1753 -2.3929 -0.6234
  508MOL0     H67015   5.288   9.845   2.299  1.3022 -1.5877 -0.3503
  508MOL0     H67016   5.224  10.092   2.285  1.5434  0.1730 -0.3034
  508MOL0     H67017   5.341  10.131   2.405 -0.5837  1.2073 -1.3742
  508MOL0     H67018   5.011  10.045   2.676  0.1184  0.9181  0.0334
  508MOL0     H67019   4.775   9.970   2.651  0.2574  2.4295  0.5210
  508MOL0     H67020   4.417   9.706   2.378  1.5513  0.4233 -2.0634
  508MOL0     H67021   4.181   9.713   2.305  1.6397 -0.9515  1.7536
  508MOL0     H67022   4.030  10.009   1.994 -1.7076  2.8084 -0.4903
  508MOL0     H67023   4.041  10.090   2.147  1.4175 -2.6262  1.1471
  508MOL0     H67024   3.818   9.984   2.222  1.3649  2.5368  1.1322
  508MOL0     H67025   3.807   9.899   2.071 -2.9583  2.5265 -1.4084
  508MOL0     H67026   3.670  10.112   2.085  0.0439 -1.1623  1.2034
  508MOL0     H67027   3.774  10.082   1.942  1.1495 -1.3476  1.1945
  508MOL0     H67028   3.881  10.252   2.173  1.0735 -1.3597 -0.2362
  508MOL0     H67029   3.938  10.257   2.013  1.0767 -1.0295  1.1833
  508MOL0     H67030   3.703  10.372   2.144  1.9547  1.9904  1.4927
  508MOL0     H67031   3.692  10.374   1.964  0.0757  1.4915  0.3158
  508MOL0     H67032   3.911  10.505   1.967  2.5549  4.2348  1.3986
  508MOL0     H67033   3.887  10.503   2.152 -1.7854  0.8988  0.7010
  508MOL0     H67034   3.709  10.618   1.935  1.7984 -1.6916 -1.6769
  508MOL0     H67035   3.669  10.601   2.109  1.5227 -3.3428  0.5694
  508MOL0     H67036   3.831  10.751   2.183 -1.4014 -4.4220  0.9722
  508MOL0     H67037   3.752  10.833   2.046  0.5783 -0.9048 -1.6258
  508MOL0     H67038   4.257  10.073   2.098  1.9689 -0.0217  1.1917
  508MOL0     H67039   4.509  10.048   2.156 -0.5242 -0.0304 -0.4191
  508MOL0     H67040   4.842   9.891   2.235 -3.1831 -1.8746  1.1341
  508MOL0     H67041   5.074   9.943   2.265  0.4271 -0.7254  0.4589
  508MOL0     H67042   6.840   9.909   1.740 -1.9048  0.3184  0.2336
  508MOL0     H67043   7.079   9.826   1.796  3.1405 -2.6687  1.3114
  508MOL0     H67044   7.236   9.405   2.279 -1.0438  0.5930 -0.5485
  508MOL0     H67045   7.459   9.290   2.308  0.5587 -0.8612  0.1023
  508MOL0     H67046   7.667   9.477   2.304  0.1247  1.2579 -0.9616
  508MOL0     H67047   7.744   9.525   2.154 -1.4685  1.7613  0.9744
  508MOL0     H67048   7.820   9.315   2.350 -2.2924 -1.5569 -1.8678
  508MOL0     H67049   7.899   9.312   2.193  1.8212 -0.6889  1.6972
  508MOL0     H67050   7.924   9.547   2.388  0.9279  2.5122 -1.2226
  508MOL0     H67051   7.970   9.551   2.221 -2.7820 -1.6829 -1.9875
  508MOL0     H67052   8.089   9.349   2.423 -0.1265 -1.5451 -1.5458
  508MOL0     H67053   8.115   9.362   2.248  1.8240 -1.0621  0.8643
  508MOL0     H67054   8.318   9.693   2.455  0.7890 -0.1826 -0.3663
  508MOL0     H67055   7.590   9.477   1.943  1.3241 -0.3341  1.4852
  508MOL0     H67056   7.357   9.562   1.905  0.1301 -0.1178 -0.5241
  509MOL0     O67057   6.553   0.183   7.579 -0.1784  0.5586 -0.6300
  509MOL0     C67058   6.585   0.207   7.466 -0.7391 -0.1554 -0.1857
  509MOL0     O67059   6.506   0.184   7.355 -1.0192  0.0245  0.3899
  509MOL0     C67060   6.392   0.111   7.371  0.3386  0.2176 -0.1043
  509MOL0     C67061   6.283   0.158   7.447 -0.6327 -0.1206  0.9237
  509MOL0     C67062   6.175   0.078   7.473 -0.1951 -0.7818 -0.2425
  509MOL0     C67063   6.165  -0.048   7.415  0.2740  0.5190  0.4745
  509MOL0     O67064   6.055  -0.128   7.431 -0.4577  0.2179 -0.0568
  509MOL0     C67065   5.932  -0.075   7.485 -0.5767 -0.0947  0.5075
  509MOL0     C67066   5.809  -0.162   7.432 -0.5438  0.3804 -0.0847
  509MOL0     C67067   5.678  -0.136   7.505 -1.6550 -0.1601  0.0449
  509MOL0     C67068   5.574  -0.237   7.442  0.3137  0.3961  1.0137
  509MOL0     C67069   5.435  -0.188   7.471  0.7057 -0.8472  0.4888
  509MOL0     C67070   5.328  -0.266   7.393 -0.0607 -0.1147  0.2401
  509MOL0     C67071   5.312  -0.407   7.446 -0.2505 -0.1601  0.5289
  509MOL0     C67072   5.224  -0.414   7.577  0.2012 -0.6287 -0.2693
  509MOL0     N67073   5.082  -0.390   7.561  0.0928  0.5325 -0.1985
  509MOL0     C67074   5.012  -0.280   7.510  0.2287 -0.6906  0.2615
  509MOL0     C67075   4.883  -0.326   7.480 -0.2075  0.6239  0.1161
  509MOL0     C67076   4.770  -0.252   7.411  0.0053  0.2094  0.2262
  509MOL0     C67077   4.717  -0.144   7.507 -0.0760 -0.1643  0.4411
  509MOL0     C67078   4.577  -0.104   7.462 -0.3735  0.9150 -0.3274
  509MOL0     C67079   4.509   0.003   7.552 -0.2736  0.0034  0.1628
  509MOL0     O67080   4.371   0.020   7.503  0.3163  0.2949 -0.0429
  509MOL0     C67081   4.288   0.120   7.556 -0.5171 -0.3587  0.9762
  509MOL0     C67082   4.321   0.213   7.661  0.3143 -0.3940 -0.1002
  509MOL0     C67083   4.227   0.306   7.713  0.4973  0.1111  0.3687
  509MOL0     C67084   4.102   0.315   7.646 -0.1531 -0.5137  0.8655
  509MOL0     C67085   4.002   0.400   7.711 -0.1740  0.0362 -0.1636
  509MOL0     O67086   3.874   0.373   7.675  0.2495  0.1205  0.3497
  509MOL0     C67087   3.771   0.438   7.739 -0.4064  0.1937 -0.2077
  509MOL0     C67088   3.741   0.415   7.873  0.7652 -0.3340  0.3878
  509MOL0     C67089   3.622   0.472   7.934  0.7743  0.2013  0.0934
  509MOL0     C67090   3.543   0.556   7.854  0.5638 -0.0306  0.4298
  509MOL0     O67091   3.446   0.630   7.919  0.0299 -0.9985 -1.0851
  509MOL0     C67092   3.314   0.577   7.913  0.6283  0.4799  0.3362
  509MOL0     C67093   3.210   0.688   7.936  0.3799 -0.6073  0.1682
  509MOL0     C67094   3.065   0.628   7.947  0.5030 -0.6472 -0.0428
  509MOL0     C67095   2.958   0.717   8.007 -0.2592 -0.4048 -0.2319
  509MOL0     C67096   2.817   0.677   7.952  0.0452  0.3379  0.3923
  509MOL0     C67097   2.702   0.758   8.010  0.0653 -0.0649  0.1881
  509MOL0     C67098   2.566   0.703   7.948 -0.3673 -0.9835 -0.1546
  509MOL0     C67099   2.442   0.785   7.982  0.4487  0.4656 -0.1027
  509MOL0    Cl67100   2.462   0.954   7.942 -0.2880  0.1951  0.0046
  509MOL0     C67101   3.565   0.563   7.712  0.6822 -0.8990 -0.4389
  509MOL0     C67102   3.678   0.502   7.655 -0.2596  0.6860  0.2320
  509MOL0     O67103   4.040   0.480   7.795  0.4980 -0.2630 -0.3974
  509MOL0     C67104   4.069   0.225   7.540  0.9616  0.1777  0.2018
  509MOL0     C67105   4.162   0.133   7.499 -0.4103  0.3192  0.8657
  509MOL0     N67106   4.876  -0.461   7.516  0.0104 -0.0833  0.1800
  509MOL0     N67107   4.990  -0.490   7.560 -0.1363  0.2792  0.0271
  509MOL0     C67108   6.259  -0.088   7.321 -0.1512  0.1218 -0.2745
  509MOL0     C67109   6.379  -0.013   7.308 -0.7252 -0.3561  1.3757
  509MOL0     C67110   6.721   0.256   7.450 -1.1813 -0.4146  0.8338
  509MOL0     C67111   6.804   0.286   7.560  0.1229  0.3234 -0.6136
  509MOL0     C67112   6.939   0.327   7.537 -0.4361  0.2217  0.2347
  509MOL0     C67113   6.987   0.347   7.410  0.4619  0.3044  0.1706
  509MOL0     O67114   7.119   0.381   7.383 -0.1372  0.0412  0.1113
  509MOL0     C67115   7.221   0.394   7.479 -0.0955  1.2047  0.5660
  509MOL0     C67116   7.323   0.486   7.420 -0.5068 -0.2907  0.9716
  509MOL0     C67117   7.452   0.494   7.511  0.4862 -0.2827  0.4262
  509MOL0     C67118   7.572   0.555   7.429 -0.1637  0.1851 -0.0635
  509MOL0     C67119   7.544   0.677   7.347 -0.8140  0.1856 -0.8030
  509MOL0     C67120   7.514   0.762   7.262 -0.4483  0.6177 -0.6835
  509MOL0     C67121   6.905   0.341   7.298  0.3416 -0.5457 -0.1807
  509MOL0     C67122   6.773   0.286   7.315 -0.0443  0.0467 -0.3232
  509MOL0     H67123   6.288   0.256   7.494 -1.4503  0.4197 -0.0730
  509MOL0     H67124   6.100   0.118   7.540  0.0698  2.9962 -1.9878
  509MOL0     H67125   5.914   0.030   7.456  2.7005  1.0465  2.1447
  509MOL0     H67126   5.935  -0.079   7.594  2.2180  1.9839  0.6255
  509MOL0     H67127   5.841  -0.265   7.449 -0.8915  0.2068 -0.4741
  509MOL0     H67128   5.805  -0.162   7.323  0.5838 -5.5945 -0.5055
  509MOL0     H67129   5.652  -0.032   7.486 -1.9431 -0.0620  0.9214
  509MOL0     H67130   5.687  -0.138   7.614 -1.6323  0.9596  0.0709
  509MOL0     H67131   5.590  -0.237   7.334 -2.2934  0.3278  0.5484
  509MOL0     H67132   5.594  -0.333   7.492  0.4750  0.9465  2.0345
  509MOL0     H67133   5.433  -0.083   7.442  0.8524 -0.3615  2.1078
  509MOL0     H67134   5.410  -0.199   7.577  1.4501 -0.2753  0.7249
  509MOL0     H67135   5.368  -0.268   7.291 -1.4989 -1.0146 -0.3324
  509MOL0     H67136   5.232  -0.214   7.382 -0.5553 -1.2124 -0.8542
  509MOL0     H67137   5.266  -0.474   7.372 -1.3805  1.5378 -0.3723
  509MOL0     H67138   5.414  -0.441   7.465  0.3068  0.3610 -1.3088
  509MOL0     H67139   5.257  -0.332   7.640  0.0735  0.5920 -1.7231
  509MOL0     H67140   5.246  -0.506   7.631  0.3504  1.1659  2.9506
  509MOL0     H67141   5.035  -0.177   7.486 -0.3284 -0.8668 -1.1614
  509MOL0     H67142   4.687  -0.314   7.376 -1.6216  3.1577 -1.5625
  509MOL0     H67143   4.815  -0.222   7.315  0.3313 -1.7931 -0.3137
  509MOL0     H67144   4.770  -0.048   7.503 -1.5592  0.9211  3.3954
  509MOL0     H67145   4.707  -0.180   7.610  0.9411 -1.9305 -0.0429
  509MOL0     H67146   4.576  -0.059   7.363  0.4127 -1.0479 -1.2874
  509MOL0     H67147   4.507  -0.189   7.462  2.9389 -2.0476  0.0915
  509MOL0     H67148   4.568   0.094   7.540 -0.6018 -0.0209 -2.0386
  509MOL0     H67149   4.501  -0.042   7.652 -0.5008 -1.3592 -0.4374
  509MOL0     H67150   4.424   0.222   7.693  0.3083  1.0812 -0.4182
  509MOL0     H67151   4.246   0.349   7.810 -0.1954 -2.0470  1.5187
  509MOL0     H67152   3.796   0.337   7.926  2.4536  1.0075  0.6936
  509MOL0     H67153   3.606   0.454   8.040  1.9414 -1.5298  0.0193
  509MOL0     H67154   3.296   0.491   7.979 -0.7678 -0.0331 -0.6411
  509MOL0     H67155   3.291   0.543   7.811 -1.2086  1.3986  0.3934
  509MOL0     H67156   3.223   0.761   7.856 -1.5115  1.3333  1.5370
  509MOL0     H67157   3.246   0.740   8.025  0.8049  3.7214 -2.2725
  509MOL0     H67158   3.065   0.533   8.000  1.4008  0.7257  2.6085
  509MOL0     H67159   3.041   0.605   7.842  0.1102 -3.2470  0.5547
  509MOL0     H67160   2.940   0.725   8.115 -1.5197 -0.9067 -0.3985
  509MOL0     H67161   2.967   0.814   7.957  2.2001 -0.9521 -1.0079
  509MOL0     H67162   2.788   0.572   7.965  0.8467  0.1218  0.4536
  509MOL0     H67163   2.809   0.696   7.844  0.4502  0.3201  0.3597
  509MOL0     H67164   2.724   0.862   7.984 -0.1136 -0.2568 -0.7726
  509MOL0     H67165   2.695   0.751   8.119  0.8276  4.1041  0.6694
  509MOL0     H67166   2.565   0.688   7.839 -1.9454  0.2084 -0.3498
  509MOL0     H67167   2.560   0.607   7.999 -0.4219 -0.8340  0.1216
  509MOL0     H67168   2.418   0.776   8.088 -2.3500  0.9374 -0.6211
  509MOL0     H67169   2.371   0.737   7.914 -0.2668  1.1086  0.1750
  509MOL0     H67170   3.514   0.630   7.643 -0.7001 -0.9358  0.5078
  509MOL0     H67171   3.703   0.517   7.551  0.7454  3.4151  0.7863
  509MOL0     H67172   3.976   0.239   7.485  0.1513 -1.7116  1.0181
  509MOL0     H67173   4.124   0.069   7.420  0.9227 -0.3424  0.7297
  509MOL0     H67174   6.260  -0.184   7.271 -2.1353 -0.3872  0.5555
  509MOL0     H67175   6.465  -0.045   7.251 -0.6802 -1.6641  2.1426
  509MOL0     H67176   6.761   0.284   7.659  0.1829  0.7864 -0.5740
  509MOL0     H67177   7.004   0.337   7.623  1.9340  0.9601 -1.5133
  509MOL0     H67178   7.265   0.299   7.511  2.1356  2.3112  0.9705
  509MOL0     H67179   7.182   0.440   7.570 -0.2054 -0.4387  1.3851
  509MOL0     H67180   7.350   0.453   7.319 -0.5216  0.5417  0.6922
  509MOL0     H67181   7.286   0.588   7.408  1.8370  0.3772 -1.6908
  509MOL0     H67182   7.488   0.399   7.550  2.4893  0.6383  0.9304
  509MOL0     H67183   7.429   0.567   7.588  0.2192 -1.4127  1.4502
  509MOL0     H67184   7.654   0.589   7.493  1.7043 -2.0533 -1.1183
  509MOL0     H67185   7.612   0.485   7.354  1.1396 -1.2337  1.8765
  509MOL0     H67186   7.471   0.838   7.200  0.1871  0.7205 -1.0087
  509MOL0     H67187   6.945   0.363   7.199  2.9983  1.2803  1.1674
  509MOL0     H67188   6.706   0.268   7.232 -2.0471  2.6949  0.5419
  510MOL0     O67189   5.531   3.199   9.521 -0.5813 -1.0502  0.6667
  510MOL0     C67190   5.576   3.278   9.438 -0.3017  0.2736  0.5520
  510MOL0     O67191   5.503   3.369   9.366 -0.4431 -0.3342 -0.0750
  510MOL0     C67192   5.372   3.386   9.402 -0.0969 -0.8122 -0.0171
  510MOL0     C67193   5.279   3.391   9.295 -0.4479 -0.4252 -0.6327
  510MOL0     C67194   5.141   3.397   9.325  0.7629 -1.2339  0.9203
  510MOL0     C67195   5.103   3.406   9.456  0.0898 -0.0573 -0.4564
  510MOL0     O67196   4.965   3.414   9.478 -0.4514  0.1491 -0.1113
  510MOL0     C67197   4.928   3.491   9.592  0.4532  0.7069  0.5154
  510MOL0     C67198   4.773   3.493   9.605 -0.6416  0.4369 -0.5033
  510MOL0     C67199   4.699   3.563   9.488 -0.1026  0.9605 -0.2432
  510MOL0     C67200   4.555   3.566   9.530  0.1754  0.7269  0.3217
  510MOL0     C67201   4.467   3.656   9.438  0.5259  0.6831  0.2725
  510MOL0     C67202   4.320   3.633   9.471 -0.8215  0.2576 -0.1361
  510MOL0     C67203   4.232   3.734   9.395  0.7442  0.5531 -0.5754
  510MOL0     C67204   4.083   3.712   9.421 -0.3696  0.5287 -0.2885
  510MOL0     N67205   4.006   3.805   9.343 -0.5245 -0.1780  0.8017
  510MOL0     C67206   3.986   3.790   9.209 -0.7778  0.4732  0.2787
  510MOL0     C67207   3.951   3.909   9.163 -0.0920 -0.1395 -0.4603
  510MOL0     C67208   3.923   3.955   9.022  0.1480 -0.0016 -0.0571
  510MOL0     C67209   3.911   4.106   9.011  0.4048  0.0405 -1.2728
  510MOL0     C67210   3.876   4.156   8.868  0.6737 -0.0775  0.5706
  510MOL0     C67211   3.755   4.092   8.809 -0.3559  0.7616 -0.0830
  510MOL0     O67212   3.680   4.174   8.713  0.0029  0.3342 -0.0060
  510MOL0     C67213   3.544   4.160   8.692 -0.5918 -0.2700 -0.1765
  510MOL0     C67214   3.477   4.236   8.588  0.5322  0.1047  0.4013
  510MOL0     C67215   3.340   4.230   8.570  0.1707  0.5672  0.3090
  510MOL0     C67216   3.265   4.138   8.650 -0.1275  0.1061  0.8466
  510MOL0     C67217   3.121   4.137   8.638 -0.0890 -0.2621  0.3544
  510MOL0     O67218   3.071   4.197   8.524  0.3399  0.3682 -0.7099
  510MOL0     C67219   2.945   4.241   8.521 -0.9598 -0.2212  1.0414
  510MOL0     C67220   2.865   4.231   8.409 -1.1533 -0.2453  0.4266
  510MOL0     C67221   2.743   4.296   8.402  0.6517 -0.1945 -0.1011
  510MOL0     C67222   2.690   4.373   8.504 -1.8207  1.0788  0.8102
  510MOL0     O67223   2.576   4.443   8.509 -0.0265  0.5859  0.3902
  510MOL0     C67224   2.477   4.428   8.405  0.1840  0.4025 -0.2232
  510MOL0     C67225   2.372   4.530   8.425  0.0274 -0.3633 -0.2186
  510MOL0     C67226   2.250   4.507   8.342 -0.0397 -0.0799 -0.0377
  510MOL0     C67227   2.148   4.624   8.327 -0.9859 -0.5220  0.0110
  510MOL0     C67228   2.002   4.576   8.306 -0.1015 -0.1804  0.6764
  510MOL0     C67229   1.886   4.668   8.321  0.5668  0.3715  0.3632
  510MOL0     C67230   1.747   4.606   8.282  0.1974  0.3438 -0.1307
  510MOL0     C67231   1.634   4.711   8.301  0.1694 -1.1419  0.4552
  510MOL0    Cl67232   1.660   4.841   8.184 -0.2046 -0.0681 -0.4456
  510MOL0     C67233   2.769   4.381   8.616  0.7284 -0.3563  0.5201
  510MOL0     C67234   2.900   4.322   8.627  0.4814  0.3457 -0.4514
  510MOL0     O67235   3.060   4.101   8.736  0.7120 -0.6577 -0.8695
  510MOL0     C67236   3.334   4.064   8.749 -0.0176  0.7997  0.4093
  510MOL0     C67237   3.469   4.074   8.773  0.0358  0.0255  0.0442
  510MOL0     N67238   3.937   3.985   9.272  0.2047  0.1671  0.5397
  510MOL0     N67239   3.970   3.931   9.378  0.3597 -0.5268  0.1867
  510MOL0     C67240   5.190   3.396   9.566 -0.1578  0.5853  0.3296
  510MOL0     C67241   5.325   3.386   9.538 -0.3521  0.5675 -0.4631
  510MOL0     C67242   5.723   3.275   9.401 -1.0843 -0.7723 -0.5400
  510MOL0     C67243   5.809   3.180   9.453  0.0963 -0.1772 -0.4026
  510MOL0     C67244   5.945   3.161   9.402  0.5038  0.4277  0.4270
  510MOL0     C67245   5.988   3.257   9.313  0.6853  0.1763  0.3441
  510MOL0     O67246   6.114   3.225   9.272 -0.1200 -0.2325  0.2142
  510MOL0     C67247   6.160   3.290   9.156  0.6369  0.7812  0.1794
  510MOL0     C67248   6.282   3.212   9.117  0.1860  0.1568  0.4054
  510MOL0     C67249   6.360   3.262   8.997 -1.0067 -0.7587  0.0908
  510MOL0     C67250   6.396   3.411   9.000 -0.2040 -0.5555  0.0403
  510MOL0     C67251   6.496   3.447   9.096  0.0234 -0.4572  0.1400
  510MOL0     C67252   6.578   3.477   9.183 -1.4013 -0.3673 -0.5281
  510MOL0     C67253   5.903   3.368   9.269  0.9667 -0.4258 -0.4066
  510MOL0     C67254   5.770   3.361   9.306  0.1057 -0.5309  0.1836
  510MOL0     H67255   5.312   3.387   9.192  2.6115  0.8908  0.1914
  510MOL0     H67256   5.067   3.407   9.246 -0.1344 -2.6065  1.5413
  510MOL0     H67257   4.961   3.595   9.593  0.0280  0.9282 -1.7828
  510MOL0     H67258   4.964   3.444   9.684 -0.2744  1.0620  0.9915
  510MOL0     H67259   4.761   3.545   9.700 -0.5685 -1.0517  0.3542
  510MOL0     H67260   4.741   3.389   9.614  1.8768 -0.3202  0.6920
  510MOL0     H67261   4.723   3.503   9.399  1.6570  2.3494 -0.7758
  510MOL0     H67262   4.737   3.661   9.461 -2.0010  1.3886 -1.5558
  510MOL0     H67263   4.534   3.459   9.539  3.1429  0.1035  0.9236
  510MOL0     H67264   4.559   3.611   9.629  0.5196 -0.4128  0.8411
  510MOL0     H67265   4.484   3.629   9.334  0.0721 -0.3690  0.4474
  510MOL0     H67266   4.482   3.763   9.453 -1.6271  1.5505 -2.7721
  510MOL0     H67267   4.299   3.640   9.579  0.8445 -0.8606  0.2938
  510MOL0     H67268   4.293   3.533   9.436  0.0177  0.6950 -2.1544
  510MOL0     H67269   4.260   3.831   9.438 -0.9189  0.0101  1.9497
  510MOL0     H67270   4.245   3.721   9.287  1.5443 -2.5275 -0.1789
  510MOL0     H67271   4.057   3.726   9.526 -3.3434 -0.7518 -0.7472
  510MOL0     H67272   4.068   3.609   9.389  2.4834 -1.1104  2.9978
  510MOL0     H67273   4.007   3.698   9.155 -2.6778 -2.1771  3.6673
  510MOL0     H67274   3.840   3.900   8.979  1.9980 -1.2004 -2.3225
  510MOL0     H67275   4.015   3.928   8.969  1.0654  0.8745  1.0324
  510MOL0     H67276   4.005   4.157   9.035 -0.4192  1.5524 -1.1264
  510MOL0     H67277   3.834   4.152   9.073  1.4991 -0.6174  0.6411
  510MOL0     H67278   3.869   4.265   8.857  0.9178 -0.1647 -0.5699
  510MOL0     H67279   3.955   4.131   8.796 -0.1985 -0.7243 -0.1772
  510MOL0     H67280   3.691   4.057   8.891  1.3142 -0.7016  0.6677
  510MOL0     H67281   3.794   4.005   8.755  1.6224  1.5860 -0.0449
  510MOL0     H67282   3.543   4.296   8.526  1.3154 -0.6378  0.4831
  510MOL0     H67283   3.296   4.292   8.492  1.8122  1.6536  0.1760
  510MOL0     H67284   2.893   4.159   8.333  0.7353 -2.3035  2.9096
  510MOL0     H67285   2.682   4.295   8.312  1.1441  0.6905 -0.4522
  510MOL0     H67286   2.423   4.333   8.409 -1.3441  1.1140 -2.0862
  510MOL0     H67287   2.521   4.443   8.306  0.2889  1.0072 -0.0873
  510MOL0     H67288   2.419   4.628   8.407 -1.3034  0.2945 -0.2456
  510MOL0     H67289   2.347   4.526   8.531  2.2015 -1.9005  0.2921
  510MOL0     H67290   2.206   4.408   8.357  0.2000 -0.5611 -2.1153
  510MOL0     H67291   2.293   4.499   8.242  2.3048  2.2525  0.6788
  510MOL0     H67292   2.161   4.693   8.410 -1.6279  0.3022 -0.5562
  510MOL0     H67293   2.179   4.693   8.249  0.0933  0.5032  1.3102
  510MOL0     H67294   1.981   4.503   8.385 -1.4072 -0.5070  0.0459
  510MOL0     H67295   1.994   4.530   8.208 -0.9871  1.0156  0.1674
  510MOL0     H67296   1.922   4.748   8.255 -0.7443  1.6370  1.1413
  510MOL0     H67297   1.877   4.716   8.418 -0.7758  0.9236 -0.0102
  510MOL0     H67298   1.745   4.588   8.174  1.3184  0.3007 -0.1502
  510MOL0     H67299   1.723   4.515   8.338  3.4414  0.0534  0.9910
  510MOL0     H67300   1.641   4.755   8.401 -0.4150 -0.5150  0.2259
  510MOL0     H67301   1.535   4.668   8.285 -0.0215 -0.6032  0.1890
  510MOL0     H67302   2.713   4.430   8.695 -0.5764 -0.6800 -0.1826
  510MOL0     H67303   2.970   4.349   8.705  0.1539  0.5476 -0.2259
  510MOL0     H67304   3.287   4.002   8.825  0.5611  1.7944  1.6216
  510MOL0     H67305   3.510   4.009   8.850  0.9777 -1.9275 -1.9722
  510MOL0     H67306   5.157   3.393   9.669 -1.1218 -2.2107  0.0169
  510MOL0     H67307   5.398   3.393   9.618 -0.9132  0.4858  0.0561
  510MOL0     H67308   5.761   3.102   9.511  0.9443 -0.3978  0.0224
  510MOL0     H67309   6.011   3.087   9.444 -0.5059 -0.0271  1.2652
  510MOL0     H67310   6.181   3.392   9.190  2.6377  0.7009 -0.6592
  510MOL0     H67311   6.086   3.280   9.076  0.0913  1.8596  0.5390
  510MOL0     H67312   6.349   3.204   9.203  1.0688  0.0948 -0.2841
  510MOL0     H67313   6.255   3.110   9.089  1.0489 -0.0881  0.4427
  510MOL0     H67314   6.306   3.251   8.902 -1.7442 -2.1579  0.6455
  510MOL0     H67315   6.449   3.199   9.005  0.6299  1.3182 -0.8646
  510MOL0     H67316   6.426   3.441   8.899 -0.1309  0.1642  0.2702
  510MOL0     H67317   6.304   3.460   9.034  1.1826  0.1740  3.0661
  510MOL0     H67318   6.653   3.510   9.252  1.5724  2.2179 -4.5690
  510MOL0     H67319   5.938   3.440   9.196 -1.1739  1.7495  0.6023
  510MOL0     H67320   5.700   3.427   9.257 -0.2737 -2.1486 -1.5785
  511MOL0     O67321   2.148   7.915   6.106  0.3592 -0.3197 -0.2696
  511MOL0     C67322   2.193   7.994   6.016 -0.0526  0.2094 -0.1035
  511MOL0     O67323   2.136   8.018   5.898  0.0981  0.0293 -0.9109
  511MOL0     C67324   2.008   7.975   5.868 -0.1249  0.4468 -0.6041
  511MOL0     C67325   1.964   7.847   5.886 -0.3227  0.7546 -0.3102
  511MOL0     C67326   1.838   7.814   5.829  0.4581 -0.4098 -0.8462
  511MOL0     C67327   1.754   7.902   5.756 -0.5739 -0.5488 -0.4657
  511MOL0     O67328   1.637   7.857   5.728  0.0687  0.5184 -0.1061
  511MOL0     C67329   1.594   7.892   5.595 -0.4152 -0.0278 -0.4588
  511MOL0     C67330   1.463   7.839   5.559  0.5762 -0.6244 -0.2582
  511MOL0     C67331   1.344   7.916   5.632  0.2730  0.7376 -0.4348
  511MOL0     C67332   1.218   7.863   5.563  0.6528 -0.0269 -0.8858
  511MOL0     C67333   1.093   7.935   5.621 -0.2088 -0.1826 -0.2959
  511MOL0     C67334   0.961   7.876   5.567  0.0838 -0.2311  0.0138
  511MOL0     C67335   0.831   7.957   5.593 -0.6955 -0.1549  0.3746
  511MOL0     C67336   0.706   7.874   5.578  0.6859  0.3602 -0.4515
  511MOL0     N67337   0.580   7.950   5.579  0.1911  0.4963 -0.3199
  511MOL0     C67338   0.551   8.038   5.685 -0.1280  0.1527  0.5490
  511MOL0     C67339   0.441   8.104   5.649 -0.1076 -0.7213 -0.9653
  511MOL0     C67340   0.377   8.217   5.729 -0.1350  0.0776 -0.0723
  511MOL0     C67341   0.226   8.198   5.741 -0.1393  0.3342 -0.1924
  511MOL0     C67342   0.159   8.292   5.830 -0.3993 -0.2808  0.1420
  511MOL0     C67343   0.026   8.239   5.869  0.1117  0.0042 -0.7297
  511MOL0     O67344  -0.060   8.248   5.766 -0.7749 -0.3131  0.4859
  511MOL0     C67345  -0.193   8.229   5.784 -0.3279 -0.0332 -0.2209
  511MOL0     C67346  -0.248   8.163   5.894 -0.4932  0.3204 -0.3323
  511MOL0     C67347  -0.384   8.129   5.906 -0.0407 -0.4053  0.8091
  511MOL0     C67348  -0.465   8.176   5.803 -1.2394  0.0556  0.4396
  511MOL0     C67349  -0.610   8.154   5.807  0.3646 -0.4760  0.0410
  511MOL0     O67350  -0.683   8.218   5.714  0.1971  0.5071  0.1164
  511MOL0     C67351  -0.822   8.207   5.722 -0.3748  0.7619 -0.2556
  511MOL0     C67352  -0.886   8.266   5.834 -0.7458  0.3815  0.3028
  511MOL0     C67353  -1.027   8.281   5.823  0.1317 -0.2893 -0.4678
  511MOL0     C67354  -1.105   8.216   5.718 -0.3158 -0.0995  0.0971
  511MOL0     O67355  -1.238   8.247   5.710 -0.0722  0.4536 -0.4716
  511MOL0     C67356  -1.323   8.164   5.637 -0.2181  0.0392 -0.3886
  511MOL0     C67357  -1.469   8.196   5.665  0.6507 -0.9576  0.1845
  511MOL0     C67358  -1.558   8.081   5.615 -0.1850  0.5932 -0.0324
  511MOL0     C67359  -1.693   8.084   5.697 -0.7102 -0.1001  0.8209
  511MOL0     C67360  -1.815   8.024   5.628 -0.1400 -0.6800  0.7931
  511MOL0     C67361  -1.847   8.093   5.490  0.9042 -0.0343 -0.0863
  511MOL0     C67362  -1.864   8.244   5.502  0.1526  0.2646 -0.4890
  511MOL0     C67363  -1.934   8.306   5.383 -0.1722  0.6031 -0.2989
  511MOL0    Cl67364  -1.817   8.288   5.241  0.4125 -0.1623 -0.0597
  511MOL0     C67365  -1.031   8.145   5.618  0.6420 -0.4398  0.4256
  511MOL0     C67366  -0.891   8.149   5.620  0.9717  0.0599  0.3981
  511MOL0     O67367  -0.656   8.082   5.897  0.2177 -0.6566  0.0662
  511MOL0     C67368  -0.409   8.237   5.686 -0.1061  0.0425 -0.2095
  511MOL0     C67369  -0.269   8.264   5.679 -0.1307  0.1177 -0.2221
  511MOL0     N67370   0.403   8.065   5.524 -0.1403 -0.4815  0.7462
  511MOL0     N67371   0.491   7.977   5.479 -0.0401  0.7084  0.0955
  511MOL0     C67372   1.796   8.032   5.747  0.0015 -0.0105  0.1442
  511MOL0     C67373   1.928   8.066   5.795 -0.0470  0.9935 -0.2014
  511MOL0     C67374   2.311   8.076   6.039  0.2079 -0.0042 -0.1231
  511MOL0     C67375   2.386   8.056   6.154  0.3519 -0.0227 -0.2208
  511MOL0     C67376   2.505   8.122   6.179  0.1610  1.0909  0.7059
  511MOL0     C67377   2.552   8.222   6.096  0.1733 -0.4443 -0.1502
  511MOL0     O67378   2.667   8.290   6.119 -0.3273  0.0182 -0.4364
  511MOL0     C67379   2.745   8.253   6.235  0.2121 -0.6979 -0.0252
  511MOL0     C67380   2.854   8.363   6.262 -0.8427  0.1882 -0.4504
  511MOL0     C67381   2.970   8.354   6.161  0.3189  0.6317  0.4982
  511MOL0     C67382   3.095   8.427   6.222  0.5752 -0.0843 -0.3008
  511MOL0     C67383   3.133   8.361   6.350 -0.1230  0.1863 -0.0114
  511MOL0     C67384   3.170   8.311   6.454 -0.5107  0.2011 -0.2871
  511MOL0     C67385   2.482   8.253   5.982  0.3615  0.0126  0.3419
  511MOL0     C67386   2.357   8.189   5.957  0.2273  0.2405  0.2298
  511MOL0     H67387   2.026   7.768   5.928 -1.1636  0.4356  0.3453
  511MOL0     H67388   1.792   7.716   5.833 -3.8020  1.1811 -3.7984
  511MOL0     H67389   1.664   7.851   5.521 -1.6793  0.2416 -1.8651
  511MOL0     H67390   1.590   8.000   5.579  0.9567  0.2239  0.7105
  511MOL0     H67391   1.457   7.730   5.574 -1.6970 -0.3532  1.2695
  511MOL0     H67392   1.454   7.844   5.450  3.6870  0.0215 -0.5750
  511MOL0     H67393   1.359   8.022   5.610  1.5999  0.4574 -0.9694
  511MOL0     H67394   1.339   7.893   5.739  2.6014  2.3167  0.0706
  511MOL0     H67395   1.234   7.873   5.455 -0.3877 -0.3251 -1.0755
  511MOL0     H67396   1.212   7.754   5.571  2.9122 -0.1106  0.6022
  511MOL0     H67397   1.093   8.041   5.594 -0.9542  0.6877  2.8186
  511MOL0     H67398   1.094   7.931   5.730 -1.2867 -1.3600 -0.3074
  511MOL0     H67399   0.956   7.775   5.609 -0.4672 -0.0589  0.3820
  511MOL0     H67400   0.971   7.870   5.458 -0.2247 -0.1606 -0.0212
  511MOL0     H67401   0.836   7.999   5.694  2.9136 -1.6124  0.9607
  511MOL0     H67402   0.828   8.029   5.511 -0.3724 -2.7238 -2.0153
  511MOL0     H67403   0.708   7.803   5.660 -1.8513  0.1124 -0.5178
  511MOL0     H67404   0.716   7.815   5.486 -1.0952 -0.8916  0.1189
  511MOL0     H67405   0.592   8.035   5.786  0.5462 -1.7449  0.2573
  511MOL0     H67406   0.403   8.315   5.687  0.2216 -0.4147 -1.0112
  511MOL0     H67407   0.422   8.216   5.828  1.1365 -2.2029 -0.6298
  511MOL0     H67408   0.219   8.096   5.780 -0.7353 -0.3144 -1.9036
  511MOL0     H67409   0.179   8.176   5.644 -2.0055 -0.6066  0.8772
  511MOL0     H67410   0.214   8.296   5.925 -1.7336 -0.7898  0.9582
  511MOL0     H67411   0.153   8.396   5.797 -4.9080 -0.1308  0.7978
  511MOL0     H67412  -0.020   8.295   5.952 -2.0515 -1.0323 -1.1507
  511MOL0     H67413   0.053   8.137   5.897  1.0133  0.3644 -0.2371
  511MOL0     H67414  -0.192   8.113   5.973  3.0353 -2.6242 -4.2123
  511MOL0     H67415  -0.422   8.073   5.992 -0.5682 -1.0327  0.1762
  511MOL0     H67416  -0.835   8.313   5.918 -2.2568  1.9287  0.4152
  511MOL0     H67417  -1.089   8.336   5.893 -2.4057 -0.7589 -2.1812
  511MOL0     H67418  -1.302   8.061   5.666 -1.5081  0.1252  1.0045
  511MOL0     H67419  -1.306   8.188   5.532  0.9598 -0.6880 -0.3831
  511MOL0     H67420  -1.494   8.301   5.644  1.7624 -0.4415  1.3102
  511MOL0     H67421  -1.462   8.184   5.773  4.0550  1.1502  0.3495
  511MOL0     H67422  -1.509   7.983   5.622 -3.7382 -1.6602 -3.0894
  511MOL0     H67423  -1.576   8.096   5.509  2.4712  0.6474 -0.5347
  511MOL0     H67424  -1.678   8.034   5.793  0.5536 -0.6018  0.3784
  511MOL0     H67425  -1.709   8.187   5.732  0.0975 -0.0574  1.0883
  511MOL0     H67426  -1.901   8.035   5.695 -0.9582  0.7064 -0.4208
  511MOL0     H67427  -1.796   7.918   5.609  0.8269 -0.4974  0.7270
  511MOL0     H67428  -1.940   8.052   5.451 -0.0552  3.9964 -2.6348
  511MOL0     H67429  -1.767   8.072   5.419  0.1091 -1.5739 -0.5644
  511MOL0     H67430  -1.908   8.274   5.597  2.0165  0.7351  0.2875
  511MOL0     H67431  -1.764   8.290   5.507 -0.7046  2.3354 -1.3063
  511MOL0     H67432  -1.956   8.413   5.388  0.2549  0.7233 -0.8014
  511MOL0     H67433  -2.025   8.253   5.353  0.6872 -1.8144  1.0716
  511MOL0     H67434  -1.089   8.096   5.541 -0.2066  0.3510  0.5503
  511MOL0     H67435  -0.828   8.105   5.543  0.0524  0.7834 -0.8122
  511MOL0     H67436  -0.467   8.270   5.600 -2.0636  0.9888  1.3801
  511MOL0     H67437  -0.221   8.308   5.592  0.3641 -2.2846 -1.2556
  511MOL0     H67438   1.739   8.119   5.716  0.0449 -0.1832 -0.4193
  511MOL0     H67439   1.975   8.163   5.785 -0.1697  0.9651 -1.0669
  511MOL0     H67440   2.352   7.978   6.221  1.8973  0.6012  1.3849
  511MOL0     H67441   2.549   8.086   6.271 -0.2336  0.1649  0.5399
  511MOL0     H67442   2.780   8.150   6.225  0.0516 -1.2043  3.4405
  511MOL0     H67443   2.680   8.267   6.322 -1.2329  2.5822 -1.4601
  511MOL0     H67444   2.812   8.464   6.266 -0.8948  0.1369  0.5469
  511MOL0     H67445   2.886   8.352   6.366 -1.8307 -3.6601 -0.4096
  511MOL0     H67446   2.931   8.416   6.079 -0.2585 -0.6403 -0.2102
  511MOL0     H67447   2.997   8.260   6.113  0.2708  2.0916 -2.6778
  511MOL0     H67448   3.168   8.418   6.142 -0.3751  0.9477 -1.3156
  511MOL0     H67449   3.077   8.534   6.233  3.2159  0.6687 -2.4581
  511MOL0     H67450   3.199   8.258   6.542  0.1309 -0.5435 -0.9310
  511MOL0     H67451   2.513   8.334   5.917  1.1182 -0.4952  0.0541
  511MOL0     H67452   2.292   8.235   5.883  1.7786  0.1909 -1.2130
  512MOL0     O67453   9.491   1.940   6.077  0.2269  0.1083 -0.7094
  512MOL0     C67454   9.470   1.908   5.961  0.4479 -0.1220  0.2615
  512MOL0     O67455   9.566   1.876   5.874 -0.2112  0.0690  0.5115
  512MOL0     C67456   9.674   1.801   5.916 -0.4909 -0.0151 -0.8764
  512MOL0     C67457   9.766   1.759   5.814 -0.2882 -0.7347 -0.3005
  512MOL0     C67458   9.888   1.689   5.840 -0.5206 -0.0852 -0.9787
  512MOL0     C67459   9.922   1.662   5.979  0.1699 -0.5909 -0.4914
  512MOL0     O67460  10.045   1.598   6.029  0.8460 -0.6995 -0.7901
  512MOL0     C67461  10.127   1.538   5.934  0.0261 -0.3624  0.7658
  512MOL0     C67462  10.226   1.445   5.996 -0.1496  0.7094 -0.1825
  512MOL0     C67463  10.299   1.513   6.114  0.1705 -0.0003  0.2798
  512MOL0     C67464  10.388   1.623   6.059  0.0871 -0.1747 -0.6469
  512MOL0     C67465  10.478   1.690   6.161  0.3652 -0.2488 -0.4417
  512MOL0     C67466  10.407   1.759   6.282  1.2163 -0.3179  0.2611
  512MOL0     C67467  10.497   1.858   6.366 -0.5706  0.0251 -0.3993
  512MOL0     C67468  10.645   1.809   6.381  0.1848 -0.4081 -0.4462
  512MOL0     N67469  10.648   1.709   6.481 -0.3896  0.6596  0.3428
  512MOL0     C67470  10.620   1.722   6.612 -0.2529 -0.7453  0.1754
  512MOL0     C67471  10.627   1.598   6.668  0.2987  0.6076 -0.3560
  512MOL0     C67472  10.616   1.562   6.813 -0.6268 -0.1534  0.1538
  512MOL0     C67473  10.482   1.536   6.862 -0.2181  0.0038  0.2310
  512MOL0     C67474  10.394   1.658   6.839 -0.1247 -0.0261  0.3739
  512MOL0     C67475  10.247   1.635   6.884 -0.0588 -0.4061  0.1694
  512MOL0     O67476  10.205   1.530   6.794 -0.2010 -0.4214  0.3827
  512MOL0     C67477  10.074   1.504   6.786  1.1036 -0.1525  0.0048
  512MOL0     C67478  10.029   1.399   6.698  0.0334  1.2790  0.2675
  512MOL0     C67479   9.900   1.364   6.677  0.7723 -0.7071 -0.5530
  512MOL0     C67480   9.796   1.417   6.763 -0.8135 -0.3100 -0.3916
  512MOL0     C67481   9.654   1.375   6.762  0.3202 -0.0979 -0.0125
  512MOL0     O67482   9.626   1.267   6.696  0.1262 -0.0881 -0.0964
  512MOL0     C67483   9.494   1.240   6.677  0.4799  0.1963  1.1261
  512MOL0     C67484   9.417   1.304   6.578  0.8040  1.1648 -0.6226
  512MOL0     C67485   9.286   1.275   6.571  0.0743  0.3553 -0.2511
  512MOL0     C67486   9.217   1.189   6.665  0.1905 -0.1620  0.3093
  512MOL0     O67487   9.081   1.155   6.669 -0.4189 -0.5432  0.4167
  512MOL0     C67488   9.003   1.239   6.584 -0.3220  0.6187  0.0203
  512MOL0     C67489   8.856   1.211   6.618 -0.5970 -0.9896  0.0611
  512MOL0     C67490   8.765   1.269   6.503 -0.0735  0.1742  0.5788
  512MOL0     C67491   8.630   1.270   6.558  0.0354  0.5433  0.3664
  512MOL0     C67492   8.526   1.336   6.459  0.3100 -0.6002 -0.4181
  512MOL0     C67493   8.560   1.490   6.437 -0.2574 -0.2070  0.4871
  512MOL0     C67494   8.436   1.568   6.387  0.0582 -0.4734  0.1621
  512MOL0     C67495   8.478   1.701   6.338  0.2135  0.4501  0.0591
  512MOL0    Cl67496   8.466   1.822   6.461  0.3184  0.0316  0.1828
  512MOL0     C67497   9.299   1.123   6.757 -0.1610  0.2556  0.1495
  512MOL0     C67498   9.433   1.142   6.757  0.2963  0.1472  0.0874
  512MOL0     O67499   9.564   1.450   6.813 -0.5884  0.9987  0.3312
  512MOL0     C67500   9.841   1.504   6.866 -0.7346 -1.3802  0.3288
  512MOL0     C67501   9.978   1.557   6.869 -0.0729  0.1679  0.2449
  512MOL0     N67502  10.658   1.507   6.567 -1.0798  0.2622  0.1948
  512MOL0     N67503  10.670   1.576   6.459 -0.0494  0.2465  0.3360
  512MOL0     C67504   9.836   1.696   6.078  0.6767  0.3304 -0.4507
  512MOL0     C67505   9.722   1.778   6.051  0.3837  0.2597 -0.3341
  512MOL0     C67506   9.324   1.914   5.909 -0.0966  0.0959 -0.2002
  512MOL0     C67507   9.218   1.903   5.998 -0.1999 -0.2437 -0.3984
  512MOL0     C67508   9.083   1.907   5.949  0.2269  0.2044 -0.2783
  512MOL0     C67509   9.061   1.904   5.811  0.5567 -0.0328  0.3664
  512MOL0     O67510   8.926   1.902   5.768 -0.3606  0.4428 -0.5858
  512MOL0     C67511   8.891   1.864   5.629 -0.4085 -0.7384 -0.6395
  512MOL0     C67512   8.933   1.716   5.593  0.2161 -0.1309  0.4312
  512MOL0     C67513   8.834   1.666   5.478 -0.4121  0.2990 -1.1290
  512MOL0     C67514   8.862   1.520   5.459 -0.2708 -0.7271  0.6085
  512MOL0     C67515   8.798   1.434   5.557 -0.2891 -0.5606 -0.3024
  512MOL0     C67516   8.761   1.351   5.632 -0.3301  0.5110 -0.7636
  512MOL0     C67517   9.170   1.914   5.724  0.0627  0.3661 -0.0366
  512MOL0     C67518   9.299   1.919   5.777  0.3759 -0.0668 -0.2958
  512MOL0     H67519   9.745   1.777   5.709  1.5197  0.6099 -0.4714
  512MOL0     H67520   9.952   1.646   5.763 -2.1528 -3.7300 -0.4972
  512MOL0     H67521  10.172   1.616   5.872 -4.8984  2.7859  0.6116
  512MOL0     H67522  10.067   1.479   5.864  0.3107 -1.0855  1.1175
  512MOL0     H67523  10.299   1.412   5.921 -0.8789 -0.9657 -0.2262
  512MOL0     H67524  10.181   1.351   6.031 -0.4476  0.8020 -0.3115
  512MOL0     H67525  10.361   1.437   6.162 -0.0943 -1.3937 -1.4423
  512MOL0     H67526  10.238   1.566   6.188  1.4272  1.7847  0.0916
  512MOL0     H67527  10.453   1.568   5.989  1.8767  1.6361 -0.4779
  512MOL0     H67528  10.330   1.702   6.011 -1.8834 -0.5909  0.9340
  512MOL0     H67529  10.531   1.770   6.109 -1.7111  1.3690 -0.1728
  512MOL0     H67530  10.553   1.624   6.207  0.9422 -0.4851 -1.6809
  512MOL0     H67531  10.358   1.687   6.348  0.6629  1.2898  1.6841
  512MOL0     H67532  10.312   1.808   6.255 -0.6661 -1.6564  3.7741
  512MOL0     H67533  10.492   1.962   6.331  0.4877  0.7591  1.4666
  512MOL0     H67534  10.444   1.858   6.462 -0.1707 -1.1384 -0.1646
  512MOL0     H67535  10.710   1.893   6.409  0.0487 -0.6395  0.5969
  512MOL0     H67536  10.675   1.770   6.284 -2.9982 -2.3012 -0.7965
  512MOL0     H67537  10.607   1.820   6.656 -1.4239  0.0287 -1.7613
  512MOL0     H67538  10.660   1.639   6.877  1.9189 -0.5704 -0.9881
  512MOL0     H67539  10.678   1.474   6.836 -0.8234 -0.4991 -0.6106
  512MOL0     H67540  10.474   1.511   6.968  0.2065 -1.3489 -0.0405
  512MOL0     H67541  10.441   1.448   6.813 -2.8927  1.7262 -0.9229
  512MOL0     H67542  10.441   1.738   6.896  1.9651 -0.9012 -0.0166
  512MOL0     H67543  10.392   1.687   6.733  3.1224 -2.3728 -0.4708
  512MOL0     H67544  10.198   1.732   6.871  0.9087  0.4424  2.3903
  512MOL0     H67545  10.236   1.601   6.987  0.0771 -0.5746  0.1282
  512MOL0     H67546  10.100   1.359   6.626 -0.8949  0.4292 -0.2052
  512MOL0     H67547   9.862   1.298   6.600  1.1988 -0.5294 -0.9184
  512MOL0     H67548   9.463   1.375   6.510 -1.5149  2.2649 -1.1201
  512MOL0     H67549   9.222   1.335   6.507 -0.8189  0.8467  1.0415
  512MOL0     H67550   9.024   1.241   6.477  0.8784  0.7376  0.2413
  512MOL0     H67551   9.013   1.344   6.614  1.4271  0.7367 -0.8703
  512MOL0     H67552   8.834   1.271   6.707  1.2345 -0.4100  0.1609
  512MOL0     H67553   8.828   1.107   6.634 -1.8609 -1.1081 -2.4655
  512MOL0     H67554   8.766   1.204   6.415 -0.8838  3.7399 -2.2797
  512MOL0     H67555   8.800   1.364   6.462  0.0585 -0.2668 -0.3390
  512MOL0     H67556   8.597   1.166   6.563 -1.0642  0.9570  2.6210
  512MOL0     H67557   8.626   1.311   6.659 -1.1827  1.6287 -0.0971
  512MOL0     H67558   8.420   1.328   6.488 -1.5794  4.4633 -4.3557
  512MOL0     H67559   8.527   1.295   6.358  3.8109  1.3270 -1.3265
  512MOL0     H67560   8.641   1.506   6.365 -0.8258  0.9221  0.0627
  512MOL0     H67561   8.595   1.537   6.529  0.5604  4.6850 -1.9545
  512MOL0     H67562   8.386   1.516   6.305 -2.0779 -1.3920  1.9679
  512MOL0     H67563   8.364   1.583   6.467 -1.4916  2.2943 -1.6019
  512MOL0     H67564   8.407   1.735   6.262  0.6655  3.9408  0.9914
  512MOL0     H67565   8.580   1.703   6.299  0.1463 -0.5619 -0.1934
  512MOL0     H67566   9.255   1.040   6.812  2.1015 -1.7313 -0.8637
  512MOL0     H67567   9.487   1.088   6.834  3.4299  1.6969 -0.8593
  512MOL0     H67568   9.767   1.550   6.931  0.6635  0.7770  0.4744
  512MOL0     H67569   9.997   1.641   6.935  1.2846  0.4915 -0.5292
  512MOL0     H67570   9.872   1.686   6.180 -2.7359  1.8546  1.0614
  512MOL0     H67571   9.656   1.803   6.133  0.1576 -2.1283  0.3036
  512MOL0     H67572   9.229   1.895   6.106 -1.8757 -1.0433 -0.2506
  512MOL0     H67573   8.997   1.909   6.015  1.1659 -1.2546  1.0451
  512MOL0     H67574   8.936   1.932   5.556 -1.7715 -0.7908 -1.5674
  512MOL0     H67575   8.784   1.885   5.620  0.3682  3.6701 -2.1878
  512MOL0     H67576   9.039   1.708   5.567 -0.8175  0.9974 -5.5696
  512MOL0     H67577   8.909   1.658   5.683  3.1647 -1.4981  0.4550
  512MOL0     H67578   8.856   1.716   5.384  2.0428 -0.7840 -1.2104
  512MOL0     H67579   8.728   1.677   5.501 -0.1491  0.8015 -0.0494
  512MOL0     H67580   8.819   1.490   5.363  0.5812 -2.1986  0.6466
  512MOL0     H67581   8.968   1.492   5.461  0.3772  0.9625 -2.9222
  512MOL0     H67582   8.719   1.273   5.693  0.2021  1.5548  1.0341
  512MOL0     H67583   9.163   1.915   5.616 -0.0646  1.3972 -0.0297
  512MOL0     H67584   9.387   1.919   5.714  0.9056 -3.3405  0.2318
  513MOL0     O67585   4.693   5.386   8.897 -0.4885 -0.2174 -0.0693
  513MOL0     C67586   4.679   5.448   9.003  0.0923  0.7698  0.8071
  513MOL0     O67587   4.559   5.466   9.066 -0.1142 -0.1442 -0.1700
  513MOL0     C67588   4.449   5.412   9.005  0.9810  0.3659  0.1175
  513MOL0     C67589   4.436   5.281   8.949 -0.8072 -1.0366  0.9737
  513MOL0     C67590   4.318   5.233   8.900 -0.3726  0.5993 -0.7615
  513MOL0     C67591   4.212   5.316   8.876 -0.5661 -0.9143  0.1973
  513MOL0     O67592   4.090   5.255   8.835  1.0600  0.3629  0.4893
  513MOL0     C67593   4.032   5.319   8.720  0.9244  0.5365 -0.3818
  513MOL0     C67594   3.907   5.252   8.668  0.1959  0.7513 -0.4307
  513MOL0     C67595   3.940   5.145   8.566  0.3320 -0.0959 -0.4252
  513MOL0     C67596   3.820   5.072   8.503 -0.6837  0.1481  0.4736
  513MOL0     C67597   3.733   5.169   8.423  0.1395 -0.0643  0.0708
  513MOL0     C67598   3.643   5.092   8.329 -0.2152  0.0083 -0.0960
  513MOL0     C67599   3.721   5.061   8.198  0.0859  0.5460 -0.0216
  513MOL0     C67600   3.657   4.946   8.119 -0.7796  0.0823  0.1479
  513MOL0     N67601   3.514   4.974   8.089 -0.2573 -0.4386 -0.1782
  513MOL0     C67602   3.413   4.901   8.146 -0.6452  0.5368 -0.1899
  513MOL0     C67603   3.300   4.959   8.088  0.9341  0.0525  0.3207
  513MOL0     C67604   3.160   4.919   8.123 -0.1464  0.2349 -0.1629
  513MOL0     C67605   3.058   4.897   8.019  0.7821  0.4098 -0.5878
  513MOL0     C67606   3.067   4.999   7.901  1.2117  0.7313  0.0549
  513MOL0     C67607   2.948   4.966   7.800  0.2334 -0.0237  0.3139
  513MOL0     O67608   2.855   5.073   7.826  0.0388 -0.1668 -0.7002
  513MOL0     C67609   2.744   5.078   7.740  0.6823  0.5275 -0.3816
  513MOL0     C67610   2.736   5.004   7.622 -0.1352  0.1789 -0.0438
  513MOL0     C67611   2.628   5.016   7.548 -0.2113 -0.7649  1.7423
  513MOL0     C67612   2.519   5.097   7.572 -0.0359 -0.6945  0.2405
  513MOL0     C67613   2.400   5.093   7.490  0.3662  0.0862 -0.6577
  513MOL0     O67614   2.406   5.056   7.361  0.2927 -0.0383 -0.6735
  513MOL0     C67615   2.286   5.062   7.295 -0.4149  0.0669  0.0086
  513MOL0     C67616   2.181   4.978   7.324 -0.0206 -0.6958  0.1403
  513MOL0     C67617   2.058   5.003   7.263  0.1560  0.0267  0.6696
  513MOL0     C67618   2.047   5.089   7.161 -0.1596  0.0032  0.2086
  513MOL0     O67619   1.922   5.102   7.098  0.2572 -0.2757  0.5884
  513MOL0     C67620   1.893   5.221   7.016  0.2029 -0.3294  0.2967
  513MOL0     C67621   1.758   5.218   6.955  0.3515 -0.1245 -0.0998
  513MOL0     C67622   1.744   5.332   6.855  0.3298 -0.5006 -0.0515
  513MOL0     C67623   1.602   5.339   6.797 -0.5876 -0.2419 -0.3900
  513MOL0     C67624   1.593   5.467   6.706  0.6146  0.2464 -0.1718
  513MOL0     C67625   1.453   5.475   6.639 -0.2367 -0.2688 -0.4594
  513MOL0     C67626   1.439   5.611   6.574  0.0567 -0.1259  0.5388
  513MOL0     C67627   1.319   5.628   6.483  0.3031 -0.1836  0.0296
  513MOL0    Cl67628   1.166   5.592   6.569 -0.3358  0.2911  0.0901
  513MOL0     C67629   2.161   5.163   7.118 -0.0592  0.9982 -0.2510
  513MOL0     C67630   2.274   5.151   7.191 -0.1115 -0.1122  1.0539
  513MOL0     O67631   2.297   5.131   7.547 -0.2538 -0.9274  0.4325
  513MOL0     C67632   2.522   5.177   7.685  0.2774 -0.1502  0.4550
  513MOL0     C67633   2.636   5.162   7.765 -0.6338  0.5491 -0.3858
  513MOL0     N67634   3.330   5.058   8.004 -0.4983 -0.0014  0.3068
  513MOL0     N67635   3.461   5.074   8.011  0.4035 -0.6844 -0.3678
  513MOL0     C67636   4.224   5.450   8.925  0.6147 -0.2099  0.4867
  513MOL0     C67637   4.338   5.499   8.991  0.4523 -0.6356  0.2945
  513MOL0     C67638   4.801   5.492   9.058 -0.6440 -0.0550  0.5014
  513MOL0     C67639   4.932   5.460   9.009 -0.5552  0.3020  0.8339
  513MOL0     C67640   5.048   5.493   9.080  0.0830  0.0219 -0.2365
  513MOL0     C67641   5.041   5.566   9.202 -0.7069 -0.2066  0.6274
  513MOL0     O67642   5.168   5.595   9.257 -0.2400  0.8876  0.3518
  513MOL0     C67643   5.180   5.718   9.330  0.0959  0.5580  1.0867
  513MOL0     C67644   5.220   5.829   9.237 -0.0898 -0.9116  0.8854
  513MOL0     C67645   5.354   5.798   9.171  0.9579  0.6687  0.3051
  513MOL0     C67646   5.417   5.912   9.090  1.4136  0.1200  0.1830
  513MOL0     C67647   5.483   6.015   9.172 -0.8459 -0.6276 -0.4779
  513MOL0     C67648   5.536   6.098   9.243  0.0389  1.1156 -0.6260
  513MOL0     C67649   4.914   5.595   9.249  0.3427 -0.1963 -0.5597
  513MOL0     C67650   4.797   5.565   9.175 -0.1737  0.1387 -0.0021
  513MOL0     H67651   4.526   5.221   8.951 -1.0282 -1.3642  1.1668
  513MOL0     H67652   4.313   5.131   8.861  1.5923  0.7628 -1.5192
  513MOL0     H67653   4.110   5.340   8.646 -0.3105  0.6618 -1.7015
  513MOL0     H67654   4.000   5.420   8.745  0.0846  0.3884 -0.8278
  513MOL0     H67655   3.839   5.328   8.629 -1.8314 -0.6907  0.1494
  513MOL0     H67656   3.855   5.207   8.752  1.7356  1.7824  1.1355
  513MOL0     H67657   4.014   5.076   8.608  0.8183  0.2684 -0.6765
  513MOL0     H67658   4.002   5.187   8.486  0.4353  2.4203  0.8768
  513MOL0     H67659   3.866   5.000   8.435  1.6750  2.0441 -0.0765
  513MOL0     H67660   3.761   5.025   8.582 -0.2052 -0.0699  0.7022
  513MOL0     H67661   3.785   5.243   8.362 -1.9764  0.5705 -1.0639
  513MOL0     H67662   3.675   5.225   8.497  0.4750 -0.8342  0.9271
  513MOL0     H67663   3.565   5.159   8.291 -0.4592 -1.8109 -3.2293
  513MOL0     H67664   3.609   5.000   8.378 -2.5596 -0.0067 -1.5918
  513MOL0     H67665   3.734   5.152   8.138  3.9691 -0.0317 -0.3239
  513MOL0     H67666   3.826   5.044   8.223  0.1983  1.1118 -0.0944
  513MOL0     H67667   3.674   4.857   8.180 -0.2030 -0.8348 -1.2945
  513MOL0     H67668   3.716   4.920   8.030 -1.6635 -0.5045 -0.2704
  513MOL0     H67669   3.431   4.817   8.212  1.7878  2.0183  1.1756
  513MOL0     H67670   3.122   4.994   8.193 -1.2213  0.9251 -1.4380
  513MOL0     H67671   3.158   4.827   8.182 -4.1808  1.0249  1.2176
  513MOL0     H67672   2.962   4.883   8.069  0.8457 -1.1938 -0.8594
  513MOL0     H67673   3.075   4.798   7.976 -0.4654  0.1147 -0.4238
  513MOL0     H67674   3.056   5.102   7.939 -0.6326  1.3497 -1.9605
  513MOL0     H67675   3.162   4.992   7.849  1.0165  1.1285 -0.3677
  513MOL0     H67676   2.912   4.864   7.808 -1.1388  0.3806 -0.4415
  513MOL0     H67677   2.985   4.972   7.697  1.3354  1.2875  0.7592
  513MOL0     H67678   2.808   4.943   7.570  0.1939  3.5882 -4.0391
  513MOL0     H67679   2.608   4.949   7.465  0.6977  2.8080 -1.6783
  513MOL0     H67680   2.188   4.900   7.398 -0.5888 -3.0127 -2.1017
  513MOL0     H67681   1.982   4.931   7.290 -0.7994  0.5327 -0.5550
  513MOL0     H67682   1.966   5.229   6.934 -0.9181 -0.6150 -0.7685
  513MOL0     H67683   1.912   5.307   7.080  0.9964 -1.3556  1.5026
  513MOL0     H67684   1.689   5.242   7.037  1.5629  2.9633  0.1354
  513MOL0     H67685   1.740   5.119   6.912  0.0769  0.7321 -2.0340
  513MOL0     H67686   1.812   5.312   6.772  2.8153 -1.7763  2.1299
  513MOL0     H67687   1.769   5.429   6.900  1.8255  0.0454 -1.9387
  513MOL0     H67688   1.584   5.246   6.742 -3.5003 -0.6905  1.1108
  513MOL0     H67689   1.525   5.339   6.875 -0.8301 -1.5036 -0.6009
  513MOL0     H67690   1.676   5.458   6.636  1.3180 -0.4175  0.7283
  513MOL0     H67691   1.604   5.555   6.769 -0.3529  0.4814 -0.3144
  513MOL0     H67692   1.387   5.473   6.725  4.5848  4.7351  4.1673
  513MOL0     H67693   1.437   5.394   6.567 -0.3737  0.1953 -0.9641
  513MOL0     H67694   1.433   5.690   6.649 -1.5019  1.1290 -0.8514
  513MOL0     H67695   1.536   5.631   6.528  0.7176  0.3433  2.0690
  513MOL0     H67696   1.329   5.566   6.393 -2.3358  0.7345 -1.0032
  513MOL0     H67697   1.314   5.731   6.446  1.5502 -0.2374 -0.3393
  513MOL0     H67698   2.150   5.236   7.039  1.3105  0.5246 -0.9046
  513MOL0     H67699   2.344   5.230   7.165 -0.5943  0.3224  1.0509
  513MOL0     H67700   2.435   5.236   7.711 -0.9581 -0.3263 -2.8025
  513MOL0     H67701   2.644   5.214   7.860  1.9028 -0.5671  0.1116
  513MOL0     H67702   4.134   5.510   8.919  0.6387 -0.3296 -2.2070
  513MOL0     H67703   4.341   5.599   9.034  1.6232 -0.3752 -0.3431
  513MOL0     H67704   4.937   5.406   8.915  1.1593  1.8951 -0.0823
  513MOL0     H67705   5.150   5.463   9.058  0.0092  0.0201 -0.5699
  513MOL0     H67706   5.244   5.723   9.418 -0.0103 -1.1262  1.2912
  513MOL0     H67707   5.087   5.739   9.383 -0.9101 -3.4916  1.2684
  513MOL0     H67708   5.147   5.841   9.156  0.3158  0.6451  0.7125
  513MOL0     H67709   5.213   5.922   9.294 -0.8796 -0.4933  0.1312
  513MOL0     H67710   5.340   5.707   9.112 -0.1922  1.6777 -1.0734
  513MOL0     H67711   5.424   5.778   9.252  2.6924  1.7414 -0.8567
  513MOL0     H67712   5.491   5.884   9.014  0.5425  2.5757 -1.7229
  513MOL0     H67713   5.338   5.962   9.033  0.6417 -0.3173  0.8431
  513MOL0     H67714   5.581   6.167   9.312  0.8773  0.6707 -0.7069
  513MOL0     H67715   4.898   5.672   9.324 -1.2577  0.1004 -1.1602
  513MOL0     H67716   4.704   5.604   9.216 -0.3690  0.6561 -0.8845
  514MOL0     O67717   9.318   1.956   9.667 -0.0149 -0.4943  0.3917
  514MOL0     C67718   9.331   2.056   9.738  0.2162 -0.0885  0.7535
  514MOL0     O67719   9.242   2.095   9.821  0.4433  0.5954  0.7503
  514MOL0     C67720   9.119   2.028   9.841 -0.0451 -0.2368  0.2375
  514MOL0     C67721   9.000   2.100   9.833 -0.1692 -0.0008 -0.3405
  514MOL0     C67722   8.886   2.037   9.880  0.4766  0.5683  0.1944
  514MOL0     C67723   8.888   1.891   9.922 -0.3006 -0.3560 -0.1959
  514MOL0     O67724   8.776   1.818   9.960 -0.2348  0.2785 -0.2669
  514MOL0     C67725   8.644   1.849   9.903 -0.9756  0.0464  0.0352
  514MOL0     C67726   8.547   1.737   9.929  0.3911  1.1644 -0.0060
  514MOL0     C67727   8.407   1.771   9.888  0.4252  0.6010 -0.0583
  514MOL0     C67728   8.306   1.656   9.901 -0.4004 -0.9211  0.5162
  514MOL0     C67729   8.170   1.692   9.854 -0.1337  0.0576 -0.5148
  514MOL0     C67730   8.067   1.588   9.873 -0.7293  0.5009  0.4019
  514MOL0     C67731   7.931   1.639   9.827  0.0015 -0.0470  1.0589
  514MOL0     C67732   7.839   1.523   9.852  0.2216  0.3297  0.0173
  514MOL0     N67733   7.715   1.542   9.772 -0.7369  0.0628 -0.2510
  514MOL0     C67734   7.696   1.491   9.643 -0.0805 -0.5334  1.0827
  514MOL0     C67735   7.565   1.516   9.624 -0.6382  0.1521 -0.4988
  514MOL0     C67736   7.471   1.462   9.520 -0.1455  0.1760 -0.4491
  514MOL0     C67737   7.425   1.564   9.412 -0.2513  0.4504  0.3051
  514MOL0     C67738   7.423   1.519   9.261 -0.6579 -0.2598  0.7412
  514MOL0     C67739   7.384   1.378   9.232  0.5144 -0.3291  0.5328
  514MOL0     O67740   7.255   1.354   9.299 -0.4721 -0.1312 -0.0073
  514MOL0     C67741   7.135   1.331   9.227 -0.0055  0.3857  0.0300
  514MOL0     C67742   7.029   1.426   9.215 -0.2976  0.5420 -0.2537
  514MOL0     C67743   6.912   1.387   9.141 -0.1416 -0.2912 -0.7270
  514MOL0     C67744   6.902   1.268   9.081 -0.7128 -0.4183  0.2100
  514MOL0     C67745   6.778   1.238   8.990 -0.4949  0.2991  0.8435
  514MOL0     O67746   6.698   1.338   8.962  0.6373 -0.3770  0.1367
  514MOL0     C67747   6.567   1.318   8.913 -0.1453 -0.1134  0.3391
  514MOL0     C67748   6.486   1.212   8.955 -0.5631  0.4924  0.5459
  514MOL0     C67749   6.359   1.188   8.897 -0.2655  0.2510  0.4227
  514MOL0     C67750   6.313   1.286   8.806 -0.4948 -0.2667  0.0548
  514MOL0     O67751   6.189   1.282   8.741  0.5516  0.0399 -0.3964
  514MOL0     C67752   6.096   1.202   8.818  0.7238  0.5084  0.4320
  514MOL0     C67753   5.952   1.226   8.766  0.4313 -0.9938 -0.5611
  514MOL0     C67754   5.945   1.203   8.615 -0.0022  0.3510 -0.4742
  514MOL0     C67755   5.877   1.315   8.544  0.2695 -1.2718 -0.4341
  514MOL0     C67756   5.734   1.324   8.572  0.1219 -0.1368 -0.3086
  514MOL0     C67757   5.671   1.451   8.511 -0.7518  0.6059  0.0071
  514MOL0     C67758   5.657   1.437   8.366  0.0706  0.4790  0.0665
  514MOL0     C67759   5.587   1.559   8.310 -0.6308 -0.2507 -0.8001
  514MOL0    Cl67760   5.518   1.522   8.146 -0.3969  0.0615 -0.1201
  514MOL0     C67761   6.397   1.393   8.775 -0.1205  0.4517  0.5642
  514MOL0     C67762   6.518   1.410   8.823 -0.5797 -0.3439  0.5301
  514MOL0     O67763   6.760   1.120   8.952 -0.9634 -0.6608 -1.1939
  514MOL0     C67764   7.011   1.176   9.095  0.4918 -0.2557 -0.4872
  514MOL0     C67765   7.126   1.211   9.157 -0.1847  0.4545 -0.3492
  514MOL0     N67766   7.516   1.598   9.728  1.0281  0.0075  0.2733
  514MOL0     N67767   7.603   1.600   9.818  0.2042  0.3093  0.3750
  514MOL0     C67768   9.006   1.823   9.914 -0.0585  0.6161 -0.3802
  514MOL0     C67769   9.124   1.892   9.876 -0.2098 -0.4238 -0.0080
  514MOL0     C67770   9.457   2.133   9.733 -0.0043  0.0642 -0.0238
  514MOL0     C67771   9.560   2.077   9.661 -0.0740  0.6601  0.1243
  514MOL0     C67772   9.689   2.135   9.659 -0.1075 -0.3978  0.0826
  514MOL0     C67773   9.712   2.264   9.716  0.2491  0.4128  0.1249
  514MOL0     O67774   9.841   2.316   9.698 -0.5721  0.5436 -0.9479
  514MOL0     C67775   9.907   2.397   9.798 -0.0772 -0.2938  0.1642
  514MOL0     C67776   9.914   2.333   9.933 -0.1758  0.0766 -0.6079
  514MOL0     C67777  10.003   2.204   9.940 -0.1017 -1.0547  0.5490
  514MOL0     C67778  10.156   2.237   9.944 -0.5328 -0.3877  0.2647
  514MOL0     C67779  10.206   2.267  10.078  1.0559 -0.6385 -0.1594
  514MOL0     C67780  10.226   2.293  10.195 -1.0547  0.2989 -0.0499
  514MOL0     C67781   9.603   2.327   9.783 -0.7080  0.0403 -0.6947
  514MOL0     C67782   9.481   2.260   9.794  0.1767  0.7552 -0.3635
  514MOL0     H67783   9.009   2.202   9.796  0.3440  0.7355  1.7033
  514MOL0     H67784   8.793   2.092   9.873  1.3803  1.9800 -1.6720
  514MOL0     H67785   8.659   1.858   9.795 -3.6414  1.3110 -0.3049
  514MOL0     H67786   8.614   1.946   9.943  0.4465 -0.5895  2.9590
  514MOL0     H67787   8.540   1.723  10.037  1.7134 -1.6742 -0.1710
  514MOL0     H67788   8.576   1.642   9.882  0.6636  0.6478  1.1773
  514MOL0     H67789   8.406   1.798   9.782 -1.0721 -4.9026 -1.7879
  514MOL0     H67790   8.365   1.856   9.942 -2.3990 -0.5305 -0.2930
  514MOL0     H67791   8.351   1.580   9.837  2.2480  3.0660 -2.9280
  514MOL0     H67792   8.302   1.632  10.008  0.6973  0.2126  0.8344
  514MOL0     H67793   8.174   1.735   9.753 -0.5175  2.8181  0.5692
  514MOL0     H67794   8.131   1.776   9.912 -1.5008 -1.8040  1.4191
  514MOL0     H67795   8.063   1.569   9.981 -0.2852 -2.0465  0.0292
  514MOL0     H67796   8.100   1.490   9.839  0.6455  1.3144 -0.6997
  514MOL0     H67797   7.900   1.726   9.885  3.1797  2.3584 -0.5665
  514MOL0     H67798   7.937   1.662   9.720  0.2656 -1.2823  0.7950
  514MOL0     H67799   7.826   1.524   9.960 -1.0397  2.2527 -0.1126
  514MOL0     H67800   7.888   1.433   9.813  0.4159 -0.2555  1.5655
  514MOL0     H67801   7.756   1.424   9.582 -1.8494 -3.0982  1.9449
  514MOL0     H67802   7.379   1.424   9.566  0.9015 -0.5368  1.1474
  514MOL0     H67803   7.522   1.374   9.479  0.7869 -0.2527  1.5428
  514MOL0     H67804   7.477   1.659   9.421  0.4224  0.2434 -1.0277
  514MOL0     H67805   7.321   1.589   9.435  0.1126  1.6843  0.6902
  514MOL0     H67806   7.362   1.578   9.191 -0.3635 -2.9806 -2.0079
  514MOL0     H67807   7.525   1.525   9.223 -1.7451 -1.3518 -2.7352
  514MOL0     H67808   7.464   1.308   9.260  1.4803  0.7958  0.6903
  514MOL0     H67809   7.368   1.372   9.124  0.8113  0.9955  0.4006
  514MOL0     H67810   7.018   1.518   9.271  1.2582  1.7605 -1.8454
  514MOL0     H67811   6.834   1.458   9.114  1.1064  0.8977 -1.3550
  514MOL0     H67812   6.527   1.129   9.012 -0.5295 -1.4593 -2.1461
  514MOL0     H67813   6.300   1.108   8.941 -0.1529  0.2055  0.4912
  514MOL0     H67814   6.099   1.242   8.920  1.3533 -0.5427  0.8451
  514MOL0     H67815   6.120   1.096   8.806  0.7683  0.5904 -0.2689
  514MOL0     H67816   5.930   1.332   8.782  0.1189 -1.1142 -0.1695
  514MOL0     H67817   5.891   1.164   8.832  0.4564 -2.1279 -1.5744
  514MOL0     H67818   5.888   1.110   8.602  1.2955 -0.5885  0.3524
  514MOL0     H67819   6.048   1.181   8.585 -0.3941 -1.1663 -0.8483
  514MOL0     H67820   5.941   1.399   8.572  1.9099 -1.2281 -3.7820
  514MOL0     H67821   5.889   1.299   8.436 -1.4577  2.2201 -1.2752
  514MOL0     H67822   5.715   1.341   8.678  1.9264  0.9267 -0.1082
  514MOL0     H67823   5.678   1.238   8.534  0.4620 -0.4565 -0.0831
  514MOL0     H67824   5.723   1.543   8.534 -0.8913  0.9691 -1.0584
  514MOL0     H67825   5.566   1.467   8.538 -1.2214 -3.8272  1.6996
  514MOL0     H67826   5.759   1.431   8.325  0.9140  1.2496  1.9592
  514MOL0     H67827   5.600   1.348   8.339 -2.4569  2.3118 -1.0097
  514MOL0     H67828   5.663   1.637   8.296 -1.7627  1.3219  1.1532
  514MOL0     H67829   5.501   1.595   8.368 -2.2182 -0.7823 -2.7142
  514MOL0     H67830   6.353   1.468   8.709 -3.4485 -1.4538  0.4012
  514MOL0     H67831   6.591   1.476   8.776  0.1977 -2.0532 -0.7665
  514MOL0     H67832   7.008   1.077   9.050 -2.1181 -2.2013  3.3936
  514MOL0     H67833   7.219   1.156   9.162  0.0268  0.8792  0.4468
  514MOL0     H67834   8.999   1.718   9.943  0.2330  0.9525  0.9706
  514MOL0     H67835   9.218   1.839   9.872  2.4131  3.7056  0.6857
  514MOL0     H67836   9.539   1.980   9.616 -0.1453  0.6376  0.2059
  514MOL0     H67837   9.756   2.075   9.598 -1.2083 -2.3931  0.7520
  514MOL0     H67838   9.848   2.487   9.816  1.6842  1.0425 -0.4736
  514MOL0     H67839   9.998   2.449   9.768 -0.7736  2.1977  2.0009
  514MOL0     H67840   9.947   2.401  10.012 -1.6537  0.6395 -0.4392
  514MOL0     H67841   9.811   2.299   9.948 -0.5571  0.7136 -1.7100
  514MOL0     H67842   9.987   2.140   9.854  1.6648 -0.6943 -0.0867
  514MOL0     H67843   9.976   2.147  10.030  0.9920 -2.0506  0.2656
  514MOL0     H67844  10.222   2.154   9.915  2.4603  1.5664  0.9550
  514MOL0     H67845  10.180   2.321   9.878  2.2340  1.4238  3.2723
  514MOL0     H67846  10.231   2.337  10.293 -1.7535  1.8694 -0.6823
  514MOL0     H67847   9.621   2.424   9.827  0.1622 -0.8111  0.9271
  514MOL0     H67848   9.400   2.313   9.844 -1.7498 -1.0314 -1.4419
  515MOL0     O67849   7.764   0.823  11.169 -0.1795  0.7041 -0.9299
  515MOL0     C67850   7.757   0.854  11.286 -0.3326 -0.0427 -0.1295
  515MOL0     O67851   7.642   0.874  11.368  0.7177  0.5816  0.5426
  515MOL0     C67852   7.512   0.861  11.330  0.7215 -0.2526  0.3890
  515MOL0     C67853   7.425   0.950  11.383  0.7460  0.3152 -0.8965
  515MOL0     C67854   7.285   0.945  11.348  0.0609  0.3111  0.0074
  515MOL0     C67855   7.242   0.854  11.253 -0.2430 -0.4570  0.4232
  515MOL0     O67856   7.119   0.856  11.204  0.1337  0.1808 -0.0820
  515MOL0     C67857   7.056   0.725  11.212  0.3099 -0.5016 -0.7103
  515MOL0     C67858   6.915   0.746  11.285  0.4637  0.3083 -0.8877
  515MOL0     C67859   6.813   0.827  11.197 -0.6355 -0.2268  0.3218
  515MOL0     C67860   6.693   0.877  11.277 -0.0534  0.0800 -0.0925
  515MOL0     C67861   6.588   0.938  11.184  0.7110 -0.0594  0.5071
  515MOL0     C67862   6.647   1.035  11.083  0.5660  0.0432 -1.2344
  515MOL0     C67863   6.537   1.132  11.036  0.0855 -0.2619  0.4477
  515MOL0     C67864   6.566   1.211  10.900 -0.3923  0.4482 -0.8570
  515MOL0     N67865   6.450   1.294  10.843 -0.7007 -0.2495  0.9543
  515MOL0     C67866   6.388   1.410  10.897 -0.1234  0.5698 -0.0193
  515MOL0     C67867   6.314   1.474  10.800  0.8867  0.9609  0.0714
  515MOL0     C67868   6.229   1.595  10.812 -0.6056 -1.0561  0.4237
  515MOL0     C67869   6.088   1.559  10.838 -0.2758 -0.2665 -0.0556
  515MOL0     C67870   6.002   1.515  10.718  0.3152  0.5780  0.7219
  515MOL0     C67871   5.870   1.469  10.763  0.3061 -0.6516 -0.4922
  515MOL0     O67872   5.801   1.555  10.852  0.4695 -0.1162  0.2875
  515MOL0     C67873   5.682   1.600  10.795 -0.1887 -0.2211 -0.1152
  515MOL0     C67874   5.569   1.526  10.819 -0.1062 -0.0148  0.4532
  515MOL0     C67875   5.443   1.573  10.797  0.2764  0.2462 -0.9910
  515MOL0     C67876   5.424   1.691  10.733 -0.4258 -0.4726 -0.2506
  515MOL0     C67877   5.292   1.745  10.692  0.4772 -0.2574 -0.1357
  515MOL0     O67878   5.187   1.676  10.736  0.0057  1.3134  0.1498
  515MOL0     C67879   5.068   1.734  10.724  0.6943  0.5255 -0.4415
  515MOL0     C67880   5.030   1.827  10.813  0.3275  0.3219  0.2746
  515MOL0     C67881   4.903   1.886  10.809 -0.0061 -0.7452 -0.3276
  515MOL0     C67882   4.800   1.841  10.720 -1.4839  0.5013  0.3186
  515MOL0     O67883   4.674   1.875  10.694  0.7007  0.8156 -0.1899
  515MOL0     C67884   4.596   1.960  10.784  0.2516  0.4026  0.0644
  515MOL0     C67885   4.573   2.098  10.727  0.3307  0.4291  0.8491
  515MOL0     C67886   4.469   2.183  10.806  0.1371 -0.2111  0.1417
  515MOL0     C67887   4.342   2.109  10.832  0.3351 -0.2223  0.0513
  515MOL0     C67888   4.228   2.186  10.905 -0.2084  0.6347 -0.6660
  515MOL0     C67889   4.169   2.286  10.812  0.2230 -0.5474 -0.8059
  515MOL0     C67890   4.060   2.358  10.887 -0.2583 -0.0242 -0.4697
  515MOL0     C67891   3.992   2.477  10.826 -0.4177  0.3715 -0.1811
  515MOL0    Cl67892   3.909   2.427  10.681  0.3916  0.0820 -0.2177
  515MOL0     C67893   4.846   1.744  10.630  0.6951  0.6388 -0.3506
  515MOL0     C67894   4.971   1.687  10.633 -0.3791 -0.1779  0.5085
  515MOL0     O67895   5.289   1.856  10.630  0.0258  0.6903 -0.4346
  515MOL0     C67896   5.536   1.752  10.677 -0.1311  0.0643  0.8005
  515MOL0     C67897   5.664   1.706  10.700 -0.1116 -0.5512 -0.1236
  515MOL0     N67898   6.341   1.391  10.688 -0.3187 -0.5654 -0.3136
  515MOL0     N67899   6.412   1.291  10.719 -0.4579 -0.3677  0.4002
  515MOL0     C67900   7.337   0.761  11.196 -1.7693  0.1379 -0.4418
  515MOL0     C67901   7.471   0.765  11.230  0.3485 -0.8874 -0.0923
  515MOL0     C67902   7.893   0.866  11.346  0.2822 -0.3091  0.5385
  515MOL0     C67903   8.014   0.848  11.266 -0.2127  0.2377  0.2034
  515MOL0     C67904   8.139   0.855  11.332 -0.2652  0.4288 -0.0844
  515MOL0     C67905   8.146   0.902  11.463  0.0039 -0.5031 -0.0322
  515MOL0     O67906   8.271   0.906  11.501 -0.3009 -0.3288 -0.5057
  515MOL0     C67907   8.285   0.974  11.625 -0.0785 -0.0295 -0.9263
  515MOL0     C67908   8.430   1.009  11.644 -0.3663  0.1023 -0.1378
  515MOL0     C67909   8.478   1.086  11.767 -0.1217 -0.0999  0.7115
  515MOL0     C67910   8.635   1.105  11.760 -0.3348  0.4005 -0.0226
  515MOL0     C67911   8.668   1.227  11.676 -0.5404 -0.2216  0.2526
  515MOL0     C67912   8.717   1.307  11.595 -0.1642  0.1424 -0.1558
  515MOL0     C67913   8.028   0.934  11.529 -0.5789 -0.1896  0.4458
  515MOL0     C67914   7.909   0.908  11.471 -0.6563  0.6173 -0.5734
  515MOL0     H67915   7.458   1.027  11.452  0.0209 -2.0968  2.3550
  515MOL0     H67916   7.221   1.014  11.402  0.0012 -1.3124  2.1695
  515MOL0     H67917   7.111   0.660  11.281  0.4289  0.3618  0.0197
  515MOL0     H67918   7.026   0.674  11.120  0.0064 -0.7266 -0.4883
  515MOL0     H67919   6.919   0.792  11.384 -2.1586 -0.9496 -0.1026
  515MOL0     H67920   6.864   0.651  11.306 -0.6199  0.4490 -2.6890
  515MOL0     H67921   6.783   0.766  11.111  2.4619 -1.6713  0.1181
  515MOL0     H67922   6.869   0.912  11.157 -1.6349  1.0288  1.4806
  515MOL0     H67923   6.650   0.798  11.339 -2.5870 -0.0895 -1.8714
  515MOL0     H67924   6.716   0.962  11.342 -3.1993 -0.6751  2.2696
  515MOL0     H67925   6.517   0.993  11.246  1.8261  1.4877  0.4853
  515MOL0     H67926   6.552   0.857  11.121 -0.8762  1.2313 -0.2976
  515MOL0     H67927   6.697   0.980  11.003 -1.2372 -1.6213 -1.3081
  515MOL0     H67928   6.727   1.082  11.141 -0.1541  1.3522 -1.2630
  515MOL0     H67929   6.439   1.088  11.017 -0.0648  0.9009 -1.7713
  515MOL0     H67930   6.517   1.209  11.111  1.8601  0.8746 -0.1838
  515MOL0     H67931   6.598   1.138  10.825 -0.2471  0.4785 -0.8244
  515MOL0     H67932   6.645   1.283  10.921 -0.2376  0.1604 -0.4490
  515MOL0     H67933   6.393   1.436  11.002 -3.4073 -1.4105  0.7523
  515MOL0     H67934   6.237   1.660  10.724  2.7409 -0.5205  1.0152
  515MOL0     H67935   6.271   1.654  10.894 -0.4856  1.2570 -1.2124
  515MOL0     H67936   6.043   1.642  10.893  1.1599  1.3071 -1.1896
  515MOL0     H67937   6.103   1.474  10.905  3.0462 -0.5073 -0.9492
  515MOL0     H67938   5.972   1.595  10.649 -0.5680 -1.8844 -1.8998
  515MOL0     H67939   6.057   1.436  10.666 -0.3661 -1.1875  2.5532
  515MOL0     H67940   5.879   1.378  10.824  0.2257 -0.4521 -0.1828
  515MOL0     H67941   5.804   1.432  10.684 -1.3272 -1.1115  0.9939
  515MOL0     H67942   5.585   1.433  10.871  0.6900 -0.7249 -0.9834
  515MOL0     H67943   5.353   1.520  10.827 -0.4987  1.9284 -0.1977
  515MOL0     H67944   5.100   1.866  10.887  1.8002 -0.4059 -0.6663
  515MOL0     H67945   4.875   1.962  10.881  0.0491 -2.5846  1.7225
  515MOL0     H67946   4.647   1.974  10.880  1.7441  1.7773 -0.8632
  515MOL0     H67947   4.499   1.912  10.800  1.4993 -1.7391  1.7232
  515MOL0     H67948   4.548   2.081  10.622  1.6392  0.0301  0.5870
  515MOL0     H67949   4.669   2.150  10.721  1.3885 -1.4467  0.8262
  515MOL0     H67950   4.441   2.269  10.744 -2.5060 -0.4838  0.8502
  515MOL0     H67951   4.513   2.207  10.903 -2.7416  1.0810  1.2452
  515MOL0     H67952   4.303   2.061  10.742  0.4714  2.3235 -1.4713
  515MOL0     H67953   4.351   2.018  10.891 -3.1720 -1.0227 -0.4415
  515MOL0     H67954   4.272   2.233  10.994 -3.3540  0.2563  1.2552
  515MOL0     H67955   4.160   2.109  10.944  0.3268 -0.1904 -1.3258
  515MOL0     H67956   4.123   2.245  10.722  0.1331  0.0042 -1.0181
  515MOL0     H67957   4.244   2.360  10.784 -0.3191  0.3705  0.0991
  515MOL0     H67958   3.983   2.302  10.941 -1.2506  1.6111 -0.1465
  515MOL0     H67959   4.109   2.412  10.969  0.5585  2.5231 -2.5013
  515MOL0     H67960   4.071   2.549  10.804 -0.7156  0.9618  0.6137
  515MOL0     H67961   3.914   2.517  10.893 -0.9945  1.0854 -1.2570
  515MOL0     H67962   4.770   1.706  10.562  1.9750  0.6412 -1.8546
  515MOL0     H67963   4.999   1.604  10.570  0.2644 -1.7518  2.7299
  515MOL0     H67964   5.514   1.825  10.599  0.0289  0.1770  0.8609
  515MOL0     H67965   5.745   1.757  10.648  0.4508  0.5119  1.6896
  515MOL0     H67966   7.312   0.680  11.129 -1.3579 -0.7751  0.4916
  515MOL0     H67967   7.533   0.689  11.183  0.2008 -2.1931  1.7095
  515MOL0     H67968   7.997   0.813  11.165 -0.3927 -2.0072  0.9353
  515MOL0     H67969   8.232   0.845  11.277  1.3599 -1.5158  2.7475
  515MOL0     H67970   8.256   0.911  11.710  0.7405 -1.7629 -1.8774
  515MOL0     H67971   8.227   1.066  11.630 -0.3544  0.0551 -3.9334
  515MOL0     H67972   8.482   0.913  11.639 -3.2806 -1.5089 -1.4349
  515MOL0     H67973   8.464   1.070  11.560 -1.2159  1.1705  0.2766
  515MOL0     H67974   8.465   1.031  11.861  1.3678 -1.2535  0.2820
  515MOL0     H67975   8.421   1.179  11.770  1.0940  0.8070 -1.8346
  515MOL0     H67976   8.683   1.117  11.857 -1.6335  0.9828  0.5757
  515MOL0     H67977   8.660   1.009  11.714 -2.6054 -2.4163  3.9611
  515MOL0     H67978   8.738   1.367  11.509  1.1190 -0.8203 -0.5362
  515MOL0     H67979   8.031   0.973  11.630 -2.6001  2.6714 -0.4558
  515MOL0     H67980   7.827   0.918  11.541  1.3400 -1.7341  2.3189
  516MOL0     O67981   1.381   7.125  11.049 -0.3183 -0.5507 -0.3355
  516MOL0     C67982   1.458   7.067  11.133  0.1903  0.1549  0.1408
  516MOL0     O67983   1.507   7.123  11.244  0.4257  0.0529 -0.2435
  516MOL0     C67984   1.448   7.237  11.295 -0.3305  0.8782 -1.1147
  516MOL0     C67985   1.305   7.275  11.299 -0.4385 -0.1981  0.5035
  516MOL0     C67986   1.254   7.386  11.369 -1.0549  0.4190  0.1510
  516MOL0     C67987   1.351   7.463  11.442  0.7060  0.1317 -0.8103
  516MOL0     O67988   1.305   7.582  11.499 -0.5063 -0.0120  0.3763
  516MOL0     C67989   1.171   7.646  11.477  0.4971 -0.7492  0.2858
  516MOL0     C67990   1.171   7.783  11.545 -0.5448 -0.0908 -0.9643
  516MOL0     C67991   1.024   7.830  11.565  0.8367 -0.4187  0.5700
  516MOL0     C67992   1.024   7.950  11.666  0.0564  0.6736  0.5015
  516MOL0     C67993   0.875   7.994  11.696  0.0718  0.9663 -0.7187
  516MOL0     C67994   0.798   7.876  11.769 -0.0320 -0.2366  0.2218
  516MOL0     C67995   0.655   7.919  11.813 -0.3397  0.7393 -0.4976
  516MOL0     C67996   0.572   7.960  11.693  0.3318  0.1692  0.0063
  516MOL0     N67997   0.422   7.986  11.733  0.2646 -0.3407  0.1053
  516MOL0     C67998   0.315   7.917  11.667  0.2021  0.6376  0.2090
  516MOL0     C67999   0.203   7.945  11.740  0.1334 -0.4791  0.8064
  516MOL0     C68000   0.059   7.898  11.712 -0.2495  0.1133  0.4464
  516MOL0     C68001  -0.008   7.849  11.835  0.2313  0.2032  0.1446
  516MOL0     C68002  -0.136   7.785  11.788 -0.4745  0.1855 -0.1451
  516MOL0     C68003  -0.240   7.757  11.883 -0.3253  0.0763 -0.0359
  516MOL0     O68004  -0.337   7.664  11.822 -1.0152 -0.5310  0.1896
  516MOL0     C68005  -0.458   7.649  11.882 -0.6188  0.6590 -0.3967
  516MOL0     C68006  -0.552   7.588  11.801 -0.7567 -0.2929  0.2630
  516MOL0     C68007  -0.680   7.560  11.850  0.0893 -0.7580 -0.4186
  516MOL0     C68008  -0.714   7.603  11.981  0.6534  0.7181 -0.4047
  516MOL0     C68009  -0.856   7.587  12.023 -0.3977 -0.5053  0.1750
  516MOL0     O68010  -0.946   7.555  11.926 -0.1729 -0.0657  0.5587
  516MOL0     C68011  -1.088   7.552  11.935  0.4767  0.0868 -0.6292
  516MOL0     C68012  -1.166   7.531  11.825 -0.0827  0.5784  0.3695
  516MOL0     C68013  -1.308   7.528  11.824  0.2778 -0.1812  0.6360
  516MOL0     C68014  -1.373   7.543  11.944  0.1802 -1.1978  0.4134
  516MOL0     O68015  -1.509   7.534  11.945  0.4886  0.3264 -0.4855
  516MOL0     C68016  -1.575   7.551  12.070 -0.3639  0.1177  0.3912
  516MOL0     C68017  -1.727   7.564  12.058  0.2264  0.4581  0.3525
  516MOL0     C68018  -1.790   7.433  12.002 -0.2024 -0.5900 -0.5601
  516MOL0     C68019  -1.940   7.449  11.987 -0.4150 -0.3654 -0.0582
  516MOL0     C68020  -2.010   7.315  11.934 -0.9216 -0.5569 -0.3351
  516MOL0     C68021  -2.162   7.341  11.889  0.3053 -1.1321 -0.2366
  516MOL0     C68022  -2.265   7.328  12.004  0.3553  0.0501 -0.6691
  516MOL0     C68023  -2.292   7.172  12.008 -0.7929 -0.5422  0.6197
  516MOL0    Cl68024  -2.432   7.135  12.117  0.1463  0.1408 -0.1614
  516MOL0     C68025  -1.302   7.554  12.064 -0.1288 -0.6443 -0.4837
  516MOL0     C68026  -1.159   7.558  12.053  0.7670 -0.3138 -0.6284
  516MOL0     O68027  -0.881   7.603  12.145 -0.0208  0.8482  0.4621
  516MOL0     C68028  -0.616   7.665  12.068  0.1630  0.5118 -0.7286
  516MOL0     C68029  -0.488   7.686  12.014  0.3955 -0.2178  0.2302
  516MOL0     N68030   0.241   8.027  11.846  0.8542 -0.3563 -0.7429
  516MOL0     N68031   0.367   8.047  11.848 -0.1533  0.6685 -0.7950
  516MOL0     C68032   1.484   7.438  11.435  0.1506  0.0915  0.0884
  516MOL0     C68033   1.527   7.320  11.369  0.2812  0.3512 -0.2374
  516MOL0     C68034   1.490   6.924  11.100  0.0315 -0.0765  0.2550
  516MOL0     C68035   1.437   6.859  10.987 -0.0583 -0.1058 -0.0183
  516MOL0     C68036   1.476   6.732  10.943  0.2446 -0.0098 -0.6007
  516MOL0     C68037   1.574   6.665  11.021  0.3394 -1.4374  0.6996
  516MOL0     O68038   1.637   6.549  10.983 -0.4673 -0.7555 -0.4867
  516MOL0     C68039   1.616   6.496  10.851 -0.1617 -0.9911  0.0510
  516MOL0     C68040   1.687   6.365  10.843  0.1948  0.5461 -0.6452
  516MOL0     C68041   1.691   6.303  10.701 -0.3409  0.1082 -0.6075
  516MOL0     C68042   1.562   6.292  10.633 -0.1533  0.8731 -0.6508
  516MOL0     C68043   1.585   6.240  10.500  0.6070 -0.5328 -0.6847
  516MOL0     C68044   1.615   6.193  10.392  0.2038  0.4975  0.0725
  516MOL0     C68045   1.622   6.728  11.132  0.0660  0.4442 -0.8229
  516MOL0     C68046   1.577   6.848  11.180  0.1690 -0.1228 -0.4740
  516MOL0     H68047   1.226   7.220  11.247  1.7320 -1.6155 -1.5000
  516MOL0     H68048   1.153   7.424  11.360 -1.6220 -0.6556  1.6888
  516MOL0     H68049   1.093   7.580  11.516 -2.7480  1.6089 -1.7198
  516MOL0     H68050   1.157   7.653  11.368  1.4456 -1.5708  0.0949
  516MOL0     H68051   1.229   7.853  11.484 -2.1255  1.1940 -1.0423
  516MOL0     H68052   1.215   7.770  11.644 -2.3495  1.6330  0.1456
  516MOL0     H68053   0.971   7.746  11.610  2.7404 -1.5273  0.8303
  516MOL0     H68054   0.967   7.851  11.473 -2.4142 -2.2680  2.0037
  516MOL0     H68055   1.063   7.908  11.759 -0.1396  2.2888  1.3512
  516MOL0     H68056   1.082   8.039  11.642 -0.6697  0.6946 -1.3118
  516MOL0     H68057   0.813   8.023  11.611 -0.3980 -1.8686 -1.4451
  516MOL0     H68058   0.881   8.071  11.774 -1.7974 -0.9965  1.5629
  516MOL0     H68059   0.856   7.839  11.855 -2.3069 -2.2120  1.0092
  516MOL0     H68060   0.790   7.795  11.697 -0.4266  0.0497 -0.0537
  516MOL0     H68061   0.612   7.824  11.846  3.3503 -2.5179 -3.8277
  516MOL0     H68062   0.655   7.989  11.897 -1.4039 -3.5634  3.4955
  516MOL0     H68063   0.572   7.875  11.625  0.4279  0.7078 -0.6772
  516MOL0     H68064   0.604   8.049  11.639 -0.0062  0.5333  0.3986
  516MOL0     H68065   0.332   7.869  11.571 -1.5302 -1.2839  0.7906
  516MOL0     H68066   0.049   7.815  11.642  1.3064  0.7623 -0.5888
  516MOL0     H68067   0.000   7.975  11.663 -1.4005  0.2960  2.0200
  516MOL0     H68068  -0.031   7.943  11.886  1.9628 -0.0477  1.4631
  516MOL0     H68069   0.057   7.783  11.893  0.1391 -0.2158 -0.2194
  516MOL0     H68070  -0.184   7.849  11.713 -1.1583  0.8267  0.8163
  516MOL0     H68071  -0.114   7.686  11.746  1.2313  0.9348 -1.1100
  516MOL0     H68072  -0.285   7.849  11.921  0.1557 -0.3823  1.7408
  516MOL0     H68073  -0.189   7.701  11.962  0.7817  1.4611  0.2836
  516MOL0     H68074  -0.541   7.557  11.698 -0.3924 -0.3689  0.3221
  516MOL0     H68075  -0.760   7.529  11.783 -0.2769 -0.8210  0.0407
  516MOL0     H68076  -1.115   7.514  11.731  0.4920 -1.0253  0.9349
  516MOL0     H68077  -1.363   7.504  11.733 -0.2547  4.5487 -0.5490
  516MOL0     H68078  -1.547   7.649  12.109 -0.1686  1.4645 -2.7868
  516MOL0     H68079  -1.541   7.469  12.133  0.6294  0.1407 -0.1009
  516MOL0     H68080  -1.742   7.655  12.000  3.1863 -0.0410 -1.4070
  516MOL0     H68081  -1.781   7.572  12.153 -0.3172 -0.5135  0.1380
  516MOL0     H68082  -1.772   7.349  12.070 -0.0362  0.9556  1.3932
  516MOL0     H68083  -1.753   7.403  11.903 -1.4322 -0.8368 -0.9570
  516MOL0     H68084  -1.976   7.477  12.086  0.1678 -0.7396  0.2627
  516MOL0     H68085  -1.967   7.526  11.914  0.5812 -0.4760 -0.5595
  516MOL0     H68086  -1.991   7.242  12.013  1.2777 -1.0973 -1.2670
  516MOL0     H68087  -1.950   7.285  11.847 -1.8644  1.1237 -1.6219
  516MOL0     H68088  -2.186   7.265  11.814 -2.0316 -1.9505  1.2357
  516MOL0     H68089  -2.171   7.439  11.840  0.9988 -1.9463 -2.0563
  516MOL0     H68090  -2.213   7.356  12.096  1.8620  0.5102 -1.6256
  516MOL0     H68091  -2.357   7.387  11.999  0.0630 -0.2557  0.7468
  516MOL0     H68092  -2.202   7.113  12.025 -0.5644 -0.6036 -0.6918
  516MOL0     H68093  -2.320   7.140  11.907  1.7754  1.5025 -0.8636
  516MOL0     H68094  -1.344   7.559  12.164  0.7959  1.0002 -0.1560
  516MOL0     H68095  -1.107   7.564  12.148 -1.1236  0.6474  0.4022
  516MOL0     H68096  -0.642   7.695  12.168 -2.8286  0.6568 -1.4768
  516MOL0     H68097  -0.416   7.721  12.088  2.0475 -0.8903 -1.0152
  516MOL0     H68098   1.552   7.512  11.475  1.4998 -1.8076  1.4465
  516MOL0     H68099   1.629   7.288  11.383 -0.3504 -1.6246  0.1370
  516MOL0     H68100   1.364   6.910  10.925 -1.3682 -2.1976 -0.3061
  516MOL0     H68101   1.428   6.689  10.856  0.0736  1.4711 -1.2586
  516MOL0     H68102   1.650   6.575  10.783  1.4960  0.5479  2.4824
  516MOL0     H68103   1.509   6.478  10.850 -0.3299 -0.1637  1.0029
  516MOL0     H68104   1.789   6.362  10.880  0.1627 -1.9119 -0.5816
  516MOL0     H68105   1.634   6.297  10.911  1.9760  1.1895  1.4973
  516MOL0     H68106   1.729   6.201  10.715  2.2882  0.9116 -1.2508
  516MOL0     H68107   1.765   6.360  10.643  0.8401  2.4797  2.9019
  516MOL0     H68108   1.491   6.234  10.693 -0.2065  2.3552  0.7972
  516MOL0     H68109   1.521   6.390  10.611 -0.5102  0.2683 -2.9045
  516MOL0     H68110   1.662   6.162  10.301 -0.1943 -0.6482  0.2437
  516MOL0     H68111   1.709   6.690  11.185  0.7673  1.5718 -1.1332
  516MOL0     H68112   1.632   6.893  11.262  0.1587 -0.9824  0.0199
  517MOL0     O68113   0.775   6.284   3.379 -0.3502 -0.1059 -0.2191
  517MOL0     C68114   0.786   6.162   3.365 -0.1401 -0.7510 -0.3943
  517MOL0     O68115   0.688   6.068   3.367  0.5411  0.2343  0.3340
  517MOL0     C68116   0.556   6.098   3.355 -0.5595  0.3587 -0.0400
  517MOL0     C68117   0.488   6.209   3.404  0.5190  0.0773 -0.5518
  517MOL0     C68118   0.353   6.238   3.394 -0.2593  0.5582  0.1249
  517MOL0     C68119   0.274   6.140   3.338 -0.3222 -0.0067  0.4594
  517MOL0     O68120   0.134   6.145   3.339  0.1555  0.8132 -0.2406
  517MOL0     C68121   0.068   6.250   3.405  0.8382 -0.0441 -0.3958
  517MOL0     C68122  -0.087   6.224   3.413  0.2791 -0.1169  0.2354
  517MOL0     C68123  -0.147   6.237   3.278  0.0237 -0.9280  0.1723
  517MOL0     C68124  -0.300   6.220   3.292 -0.5283  0.0186  0.0556
  517MOL0     C68125  -0.367   6.247   3.165  1.0479  0.2014  0.7625
  517MOL0     C68126  -0.510   6.196   3.168  0.5684  0.3934  1.3359
  517MOL0     C68127  -0.613   6.252   3.065  0.9565 -0.6568  0.4724
  517MOL0     C68128  -0.745   6.162   3.065  0.5673  0.9225  0.0124
  517MOL0     N68129  -0.801   6.151   3.202  0.7559  0.7988 -0.2901
  517MOL0     C68130  -0.873   6.242   3.278 -0.4214  0.4419  0.3260
  517MOL0     C68131  -0.916   6.167   3.387 -0.4441 -0.3811  0.4953
  517MOL0     C68132  -1.014   6.217   3.486  1.1923  0.0783 -0.1937
  517MOL0     C68133  -1.163   6.215   3.429 -0.3649 -0.0629 -0.2506
  517MOL0     C68134  -1.195   6.069   3.394 -0.1228 -0.2817  0.8215
  517MOL0     C68135  -1.345   6.041   3.397  0.2736 -0.7049 -0.0047
  517MOL0     O68136  -1.415   6.129   3.311  0.5323 -0.4475  0.1839
  517MOL0     C68137  -1.550   6.111   3.284 -0.1352  0.1885 -0.2107
  517MOL0     C68138  -1.598   6.160   3.164 -0.2199 -0.3297  0.2733
  517MOL0     C68139  -1.727   6.167   3.133  0.0028  0.3783 -0.3706
  517MOL0     C68140  -1.819   6.107   3.228  0.3545  0.0720  0.2791
  517MOL0     C68141  -1.958   6.097   3.187  0.2477  0.4211 -0.2609
  517MOL0     O68142  -2.047   6.081   3.289  0.7017 -0.9077 -0.0820
  517MOL0     C68143  -2.187   6.102   3.267 -0.4295 -0.8627 -0.0606
  517MOL0     C68144  -2.237   6.200   3.173 -0.2617  0.6396  1.0358
  517MOL0     C68145  -2.377   6.220   3.173 -0.2687  0.0206  0.1454
  517MOL0     C68146  -2.466   6.131   3.238 -0.1965  1.0305  0.3221
  517MOL0     O68147  -2.604   6.127   3.235  0.0567  0.1124 -0.5359
  517MOL0     C68148  -2.672   6.180   3.123  0.0363 -0.1134  0.7749
  517MOL0     C68149  -2.805   6.119   3.114  1.0020  0.7156 -0.1406
  517MOL0     C68150  -2.803   5.968   3.127  0.9313  0.6897 -0.2921
  517MOL0     C68151  -2.946   5.921   3.111 -0.5536 -0.2486 -0.0819
  517MOL0     C68152  -2.966   5.771   3.107 -1.1358 -0.4290 -0.0501
  517MOL0     C68153  -2.946   5.703   3.241 -0.0445 -0.6010  0.1369
  517MOL0     C68154  -2.935   5.550   3.223  0.4851  1.0239  0.4083
  517MOL0     C68155  -2.937   5.468   3.352  0.5155 -1.0171 -0.1994
  517MOL0    Cl68156  -2.786   5.530   3.442  0.4069  0.2015  0.6948
  517MOL0     C68157  -2.413   6.036   3.323  0.5667 -1.1373 -0.3788
  517MOL0     C68158  -2.275   6.023   3.340 -0.0105 -0.8369 -0.2509
  517MOL0     O68159  -1.987   6.079   3.067 -0.0972 -0.7184 -0.2951
  517MOL0     C68160  -1.775   6.053   3.351 -0.2948  0.6178 -0.0395
  517MOL0     C68161  -1.637   6.068   3.384  0.2913  0.7373  0.1798
  517MOL0     N68162  -0.867   6.046   3.367 -0.4220  0.5359 -0.0436
  517MOL0     N68163  -0.795   6.038   3.265  0.0566  0.2400  0.0636
  517MOL0     C68164   0.329   6.022   3.286 -0.4013  0.3015  0.0926
  517MOL0     C68165   0.468   6.004   3.291 -0.5503 -0.3629  0.4293
  517MOL0     C68166   0.918   6.102   3.350  0.7605  0.7661 -0.4828
  517MOL0     C68167   1.025   6.188   3.368 -0.2950 -0.3895  0.4881
  517MOL0     C68168   1.151   6.150   3.323 -0.2074 -0.3321  0.2252
  517MOL0     C68169   1.169   6.020   3.279 -0.2205  0.5838  0.5533
  517MOL0     O68170   1.299   5.990   3.254  0.2710  0.5008  0.0256
  517MOL0     C68171   1.331   5.849   3.224  0.7723 -0.0863 -0.0489
  517MOL0     C68172   1.465   5.820   3.268  0.3155 -1.0812  0.3215
  517MOL0     C68173   1.503   5.679   3.233  0.5493  0.8176 -0.2781
  517MOL0     C68174   1.653   5.659   3.253 -0.0299 -0.3629  0.6002
  517MOL0     C68175   1.700   5.661   3.391 -0.2151 -0.2392  0.0860
  517MOL0     C68176   1.752   5.666   3.503 -0.4362  0.1683  0.1231
  517MOL0     C68177   1.062   5.923   3.275  0.1712 -0.8492 -0.4867
  517MOL0     C68178   0.941   5.964   3.313 -0.4206  0.8374 -0.1159
  517MOL0     H68179   0.526   6.282   3.475 -1.9235  0.5485  0.3887
  517MOL0     H68180   0.320   6.332   3.437  2.2147  2.4516 -1.7533
  517MOL0     H68181   0.096   6.343   3.354  0.5567  1.5680  2.1487
  517MOL0     H68182   0.100   6.261   3.510 -1.3848  0.1820  0.3043
  517MOL0     H68183  -0.138   6.295   3.479 -0.3146 -0.6933  0.3997
  517MOL0     H68184  -0.107   6.125   3.454  1.0877 -1.0899 -1.5923
  517MOL0     H68185  -0.105   6.152   3.223 -0.7475 -1.7805  0.8724
  517MOL0     H68186  -0.125   6.336   3.237  1.6075 -1.5673 -0.6270
  517MOL0     H68187  -0.323   6.117   3.322  4.2693 -1.5456 -0.8646
  517MOL0     H68188  -0.335   6.295   3.364  1.5756  0.4598  0.6789
  517MOL0     H68189  -0.311   6.197   3.085  0.7745  1.4082 -0.2298
  517MOL0     H68190  -0.362   6.354   3.142 -4.1625  0.3454 -1.2248
  517MOL0     H68191  -0.552   6.230   3.263 -3.0975 -0.2843  0.1413
  517MOL0     H68192  -0.519   6.087   3.168 -0.2780  0.4152 -0.6817
  517MOL0     H68193  -0.635   6.355   3.094  0.0234 -0.1665 -1.7853
  517MOL0     H68194  -0.555   6.239   2.973  1.0965 -0.1109  0.4799
  517MOL0     H68195  -0.715   6.064   3.026 -4.2317 -0.5741 -0.5351
  517MOL0     H68196  -0.823   6.205   3.003 -4.1197 -1.4443  3.5830
  517MOL0     H68197  -0.903   6.342   3.247 -1.3069 -0.0851 -0.5783
  517MOL0     H68198  -0.979   6.320   3.503 -0.7632  0.8121 -0.3285
  517MOL0     H68199  -0.991   6.159   3.576 -1.1864 -0.3927  0.2008
  517MOL0     H68200  -1.163   6.281   3.342 -0.0732 -0.8573 -0.8718
  517MOL0     H68201  -1.233   6.251   3.504 -2.7747 -1.1528 -1.8618
  517MOL0     H68202  -1.169   6.059   3.288  3.0844 -0.7038  1.5499
  517MOL0     H68203  -1.133   6.006   3.459  1.2366 -0.3478 -0.4851
  517MOL0     H68204  -1.377   6.049   3.501  0.0470 -0.0907 -0.1222
  517MOL0     H68205  -1.363   5.938   3.365 -1.1708  0.1033 -1.9730
  517MOL0     H68206  -1.533   6.216   3.096 -0.2446 -3.4576 -2.5846
  517MOL0     H68207  -1.753   6.202   3.034 -0.7646 -2.1655 -1.1442
  517MOL0     H68208  -2.173   6.259   3.108 -0.1708 -1.2412 -0.6889
  517MOL0     H68209  -2.419   6.292   3.104  3.0434  1.8164 -0.1963
  517MOL0     H68210  -2.625   6.149   3.030  1.9423 -0.9028  1.9440
  517MOL0     H68211  -2.669   6.289   3.133  2.1782 -0.0339 -0.2919
  517MOL0     H68212  -2.855   6.151   3.022  1.9864  0.8166 -0.6541
  517MOL0     H68213  -2.858   6.157   3.202  1.5150 -1.6820  1.2904
  517MOL0     H68214  -2.771   5.936   3.226 -2.1727 -2.4419 -0.0837
  517MOL0     H68215  -2.740   5.918   3.052 -1.2746  0.3075 -2.0201
  517MOL0     H68216  -3.006   5.966   3.192  1.4201  0.2495  1.1726
  517MOL0     H68217  -2.981   5.955   3.013  1.5371 -0.6536 -1.0200
  517MOL0     H68218  -2.893   5.733   3.035  0.6641 -0.2678  1.6174
  517MOL0     H68219  -3.067   5.750   3.071 -0.7668 -2.3342 -0.0941
  517MOL0     H68220  -3.021   5.734   3.315  0.6309  0.5857  0.3467
  517MOL0     H68221  -2.852   5.745   3.278  0.8846  0.3403 -2.9933
  517MOL0     H68222  -3.019   5.519   3.161  2.1627 -0.6147 -1.1363
  517MOL0     H68223  -2.843   5.518   3.174 -0.9014 -0.6085 -1.2450
  517MOL0     H68224  -2.929   5.362   3.326 -0.9348 -1.0252 -0.6665
  517MOL0     H68225  -3.031   5.502   3.396  2.9364  1.5177  3.6961
  517MOL0     H68226  -2.485   5.975   3.376  1.4528 -1.1427  0.8604
  517MOL0     H68227  -2.239   5.957   3.418  1.4861  0.8358  0.5673
  517MOL0     H68228  -1.849   6.013   3.420  0.5256 -2.5933 -0.8566
  517MOL0     H68229  -1.594   6.026   3.474  2.9817 -0.2794 -1.4545
  517MOL0     H68230   0.269   5.953   3.228  3.1004 -0.3450 -3.0743
  517MOL0     H68231   0.504   5.915   3.241 -0.9490 -0.1753 -0.1924
  517MOL0     H68232   1.015   6.287   3.412  0.9691 -0.6008  1.3352
  517MOL0     H68233   1.241   6.209   3.314  0.0683 -1.0337 -2.6433
  517MOL0     H68234   1.328   5.831   3.116  1.3675  0.7318 -0.2115
  517MOL0     H68235   1.263   5.778   3.272  0.0254 -0.1359 -1.1446
  517MOL0     H68236   1.535   5.890   3.223 -1.1946  1.1817  1.3289
  517MOL0     H68237   1.485   5.838   3.374  4.1350  0.5710 -0.5214
  517MOL0     H68238   1.477   5.660   3.128  2.4017 -1.1258 -0.4515
  517MOL0     H68239   1.451   5.610   3.299 -1.9099  1.0937 -1.7984
  517MOL0     H68240   1.672   5.559   3.211 -0.9390 -0.2928 -0.0013
  517MOL0     H68241   1.708   5.743   3.210  1.6990 -2.4612 -1.6391
  517MOL0     H68242   1.790   5.679   3.603  0.2631 -1.0787  0.0488
  517MOL0     H68243   1.063   5.821   3.239 -0.3952 -0.1034 -2.7528
  517MOL0     H68244   0.856   5.898   3.307  0.1575 -0.0325  0.9334
  518MOL0     O68245   7.071   6.363   3.192 -0.0672 -0.7599 -0.7545
  518MOL0     C68246   7.024   6.451   3.124  1.4852  0.0748  0.3820
  518MOL0     O68247   6.905   6.490   3.121  0.6582 -0.6209 -0.2654
  518MOL0     C68248   6.802   6.423   3.186  1.0631  0.0533 -0.3835
  518MOL0     C68249   6.678   6.485   3.183  0.5528 -0.1808  0.4067
  518MOL0     C68250   6.559   6.422   3.240 -0.2229 -1.7500  0.2921
  518MOL0     C68251   6.571   6.304   3.310  0.2323 -0.1621 -0.1419
  518MOL0     O68252   6.455   6.264   3.366 -0.2737  0.4329  0.2497
  518MOL0     C68253   6.422   6.126   3.354 -0.2917  0.3597  0.6642
  518MOL0     C68254   6.274   6.114   3.308 -0.1404 -0.3633  0.8051
  518MOL0     C68255   6.172   6.098   3.421  0.0188  0.8089  0.2659
  518MOL0     C68256   6.033   6.083   3.378  0.0752 -0.3787 -0.2967
  518MOL0     C68257   5.932   6.030   3.475 -0.5166  0.1564  0.7131
  518MOL0     C68258   5.791   6.038   3.418 -0.1432  0.2767  0.0040
  518MOL0     C68259   5.667   5.992   3.514 -0.2549  0.3439 -0.3190
  518MOL0     C68260   5.679   6.059   3.644  0.5831  0.4270 -0.6358
  518MOL0     N68261   5.575   5.998   3.733 -0.5866 -0.9189 -0.5239
  518MOL0     C68262   5.473   6.073   3.788 -0.5905  0.1436  0.8224
  518MOL0     C68263   5.398   5.977   3.849 -0.7739  0.2858 -0.1911
  518MOL0     C68264   5.277   5.994   3.937  0.2418 -0.0150 -0.2063
  518MOL0     C68265   5.155   5.998   3.857 -1.0313 -0.6076  0.0345
  518MOL0     C68266   5.142   6.104   3.736  0.0511 -0.8061  0.3246
  518MOL0     C68267   5.006   6.107   3.678 -0.7336  0.4768 -0.8312
  518MOL0     O68268   4.916   6.179   3.768  0.2949  0.0802  0.0924
  518MOL0     C68269   4.799   6.211   3.718  0.6646 -0.5147 -0.0757
  518MOL0     C68270   4.720   6.297   3.795 -0.1974 -0.7686 -0.6021
  518MOL0     C68271   4.588   6.320   3.749  0.0119 -0.4888 -0.0729
  518MOL0     C68272   4.527   6.271   3.635  0.5761  0.5176  0.4784
  518MOL0     C68273   4.390   6.304   3.590  0.1417 -0.4518 -1.3856
  518MOL0     O68274   4.317   6.400   3.661  1.2063 -0.5552  0.2637
  518MOL0     C68275   4.185   6.422   3.622  0.2170 -0.9288  0.1117
  518MOL0     C68276   4.135   6.546   3.581  0.1756  0.0608 -0.0471
  518MOL0     C68277   3.999   6.570   3.541  0.0962  1.2637 -1.2401
  518MOL0     C68278   3.909   6.462   3.537 -0.4207  0.4143 -0.3750
  518MOL0     O68279   3.780   6.483   3.496  0.3188  0.0271  0.0960
  518MOL0     C68280   3.704   6.564   3.579  0.9246  0.2504  0.9188
  518MOL0     C68281   3.568   6.585   3.506 -0.9350 -0.5465 -0.0842
  518MOL0     C68282   3.496   6.708   3.556 -0.4842  0.0737 -0.6631
  518MOL0     C68283   3.372   6.734   3.483  0.0742 -0.6539  0.1941
  518MOL0     C68284   3.297   6.863   3.535 -0.1065  0.9348 -0.0699
  518MOL0     C68285   3.165   6.878   3.465 -0.1038  1.1863  0.4159
  518MOL0     C68286   3.051   6.814   3.541 -0.3637 -0.8563  0.4119
  518MOL0     C68287   2.993   6.693   3.476  0.0858 -0.2674 -0.0987
  518MOL0    Cl68288   2.889   6.604   3.590  0.2938 -0.2887  0.0627
  518MOL0     C68289   3.968   6.333   3.564  0.3471 -0.2304 -0.2406
  518MOL0     C68290   4.093   6.312   3.614 -0.6644  0.8666 -1.2091
  518MOL0     O68291   4.352   6.235   3.495 -0.0197 -0.1589 -0.3500
  518MOL0     C68292   4.606   6.184   3.561  0.1274 -0.4992 -0.1834
  518MOL0     C68293   4.739   6.157   3.602 -0.1403 -0.1357  0.7416
  518MOL0     N68294   5.458   5.856   3.838  0.3580  0.5911  0.6105
  518MOL0     N68295   5.562   5.871   3.773 -0.3657  0.0995  0.2417
  518MOL0     C68296   6.697   6.247   3.326  0.0865  0.3987 -0.4939
  518MOL0     C68297   6.803   6.300   3.263  0.0451 -0.3746  0.6453
  518MOL0     C68298   7.105   6.515   3.023 -1.0986  0.4929 -0.4535
  518MOL0     C68299   7.047   6.598   2.924  0.7063 -0.3130 -0.2012
  518MOL0     C68300   7.130   6.675   2.836  0.5093 -0.1361 -0.3274
  518MOL0     C68301   7.268   6.694   2.864  0.5587  0.2888  0.7062
  518MOL0     O68302   7.339   6.786   2.792  0.0481 -1.1088  0.5173
  518MOL0     C68303   7.451   6.746   2.725  0.0970 -0.5955 -0.0901
  518MOL0     C68304   7.466   6.838   2.609  0.2290 -0.3555  0.4869
  518MOL0     C68305   7.608   6.814   2.548  0.1176  0.5434 -0.6486
  518MOL0     C68306   7.610   6.682   2.477  0.5729 -0.4216  0.3231
  518MOL0     C68307   7.703   6.583   2.533  0.5981 -0.5565 -0.3777
  518MOL0     C68308   7.779   6.501   2.579  0.1309 -0.0526  0.7344
  518MOL0     C68309   7.329   6.607   2.953 -0.2380  0.3789 -0.0600
  518MOL0     C68310   7.247   6.513   3.031 -0.4688  0.2862  0.8192
  518MOL0     H68311   6.667   6.585   3.142  0.4631 -0.9600 -1.5997
  518MOL0     H68312   6.461   6.470   3.241  0.4641 -0.2315 -0.7244
  518MOL0     H68313   6.441   6.073   3.448  1.1223  1.1309  0.8487
  518MOL0     H68314   6.478   6.079   3.273 -3.2381  2.1503 -2.6867
  518MOL0     H68315   6.264   6.017   3.259  1.7612  0.8734 -2.3137
  518MOL0     H68316   6.250   6.191   3.234 -0.1690 -1.1689 -0.0468
  518MOL0     H68317   6.182   6.189   3.480  0.0385  0.8438  0.2085
  518MOL0     H68318   6.197   6.005   3.473  0.6252  0.5780 -0.4259
  518MOL0     H68319   6.001   6.183   3.347  0.2886 -0.8901 -2.3142
  518MOL0     H68320   6.024   6.012   3.295  0.6231  0.2181 -0.8757
  518MOL0     H68321   5.934   6.098   3.561  0.1566  1.6411 -0.4209
  518MOL0     H68322   5.963   5.930   3.504  2.6933  1.6164  2.8102
  518MOL0     H68323   5.790   5.972   3.330  2.7437  2.0676 -1.5312
  518MOL0     H68324   5.772   6.142   3.390 -0.5775 -0.3567 -2.1990
  518MOL0     H68325   5.571   6.017   3.467 -1.4198 -1.3805  1.0217
  518MOL0     H68326   5.668   5.885   3.536  1.2219  0.0333 -1.7304
  518MOL0     H68327   5.653   6.165   3.634  2.0292  0.9807  0.9178
  518MOL0     H68328   5.780   6.058   3.688  0.2408 -3.5717  0.4298
  518MOL0     H68329   5.435   6.174   3.774  2.7382  1.4677  0.5044
  518MOL0     H68330   5.285   6.095   3.979 -0.8382 -0.5765  1.4298
  518MOL0     H68331   5.279   5.916   4.013 -1.9716  0.6152  0.5763
  518MOL0     H68332   5.068   6.002   3.923 -0.0303  0.5090  1.3234
  518MOL0     H68333   5.161   5.901   3.805  0.9854 -0.3777 -0.2138
  518MOL0     H68334   5.177   6.200   3.775 -2.0593 -0.4971  1.6485
  518MOL0     H68335   5.209   6.068   3.658  2.0599 -0.9933  2.0408
  518MOL0     H68336   4.975   6.004   3.655  2.0626 -0.5979 -0.2025
  518MOL0     H68337   5.005   6.162   3.584 -1.0290  0.9382 -0.5597
  518MOL0     H68338   4.770   6.347   3.877  4.1693  0.2423 -3.5686
  518MOL0     H68339   4.524   6.384   3.809  2.6157  1.9324  0.3392
  518MOL0     H68340   4.209   6.626   3.580 -0.7280  0.9177 -0.2802
  518MOL0     H68341   3.970   6.671   3.514 -0.6239  1.6394  0.7877
  518MOL0     H68342   3.750   6.661   3.595 -1.3211  1.6875 -0.6611
  518MOL0     H68343   3.676   6.514   3.672 -3.4422 -0.2298 -0.4121
  518MOL0     H68344   3.497   6.502   3.509 -2.4329  0.4489 -3.2648
  518MOL0     H68345   3.589   6.605   3.400 -2.3345 -1.6929 -0.6091
  518MOL0     H68346   3.560   6.798   3.559 -0.9806  0.4150  0.0845
  518MOL0     H68347   3.476   6.698   3.663  0.8273  0.7311 -0.3206
  518MOL0     H68348   3.388   6.753   3.377  0.8973  1.0665  0.5778
  518MOL0     H68349   3.307   6.648   3.501 -1.4514  0.7209  1.6539
  518MOL0     H68350   3.357   6.948   3.500  1.7299 -1.3589 -3.0052
  518MOL0     H68351   3.282   6.864   3.643  1.0059  2.2958  0.1080
  518MOL0     H68352   3.168   6.826   3.369 -4.5088  1.7572 -0.2519
  518MOL0     H68353   3.143   6.985   3.454  0.1025  1.5326  2.8118
  518MOL0     H68354   3.087   6.785   3.640  5.0994 -0.7633 -1.2475
  518MOL0     H68355   2.971   6.889   3.552 -0.2967 -0.7413  0.1142
  518MOL0     H68356   3.075   6.626   3.450 -2.0351 -3.4663  0.8554
  518MOL0     H68357   2.934   6.722   3.388 -1.5688  0.5343  1.2239
  518MOL0     H68358   3.905   6.245   3.556 -0.6354  0.5307 -1.2446
  518MOL0     H68359   4.130   6.215   3.645 -0.3754  1.8934  2.1038
  518MOL0     H68360   4.560   6.139   3.474  0.7026  0.2836 -0.9088
  518MOL0     H68361   4.801   6.102   3.532 -0.6452  2.3010 -1.8160
  518MOL0     H68362   6.710   6.149   3.371 -2.1233  0.4267  0.3533
  518MOL0     H68363   6.892   6.237   3.267  0.5684  0.3397  0.4476
  518MOL0     H68364   6.942   6.584   2.901  0.6339  0.1249 -0.1503
  518MOL0     H68365   7.094   6.736   2.754 -1.2055  2.0846  1.9263
  518MOL0     H68366   7.451   6.641   2.693 -0.6136  0.2264 -3.1805
  518MOL0     H68367   7.533   6.756   2.796 -1.3510  3.2954  1.2704
  518MOL0     H68368   7.383   6.817   2.541  0.0583  0.8365  0.3183
  518MOL0     H68369   7.455   6.936   2.657 -2.1942  0.1191 -0.8501
  518MOL0     H68370   7.681   6.813   2.629 -0.6673 -1.8048  0.1158
  518MOL0     H68371   7.622   6.895   2.476 -3.3284  1.5403 -0.4114
  518MOL0     H68372   7.510   6.640   2.466  0.8051 -0.6156 -1.4011
  518MOL0     H68373   7.627   6.705   2.372  2.5616 -1.7416  0.2969
  518MOL0     H68374   7.857   6.438   2.617  1.7306  2.0455  1.0995
  518MOL0     H68375   7.436   6.615   2.966  0.1673 -0.1835 -2.6766
  518MOL0     H68376   7.299   6.460   3.110  1.2960  0.1611 -0.3725
  519MOL0     O68377   6.630   6.652   1.901 -0.7948 -0.8628  0.2840
  519MOL0     C68378   6.699   6.680   2.005  0.3112 -0.5823 -0.1385
  519MOL0     O68379   6.653   6.688   2.135  0.4553  0.6722  0.2697
  519MOL0     C68380   6.521   6.672   2.181  0.9423  0.3552 -0.0163
  519MOL0     C68381   6.508   6.624   2.317  0.5786 -0.6049 -0.4435
  519MOL0     C68382   6.383   6.595   2.373  0.4918  0.0484 -0.7013
  519MOL0     C68383   6.261   6.614   2.300 -0.1440 -0.2655 -0.3928
  519MOL0     O68384   6.141   6.591   2.362 -0.7444  0.1069  0.0542
  519MOL0     C68385   6.025   6.667   2.327  0.8726  0.2597  1.8108
  519MOL0     C68386   5.932   6.678   2.445  0.5741  0.5535  0.7165
  519MOL0     C68387   5.786   6.725   2.407 -0.7430 -0.3821  0.6535
  519MOL0     C68388   5.686   6.730   2.518 -1.4464 -0.7918 -0.7614
  519MOL0     C68389   5.718   6.815   2.643  0.0055 -1.0536  0.1445
  519MOL0     C68390   5.598   6.804   2.750 -0.5014  0.7607  0.3027
  519MOL0     C68391   5.464   6.852   2.712 -0.0549 -0.3152 -0.5684
  519MOL0     C68392   5.457   7.000   2.674 -0.1584 -0.1979  0.2281
  519MOL0     N68393   5.322   7.049   2.698  0.9173 -0.8203  0.0827
  519MOL0     C68394   5.282   7.166   2.763 -0.0138 -0.5717 -1.0434
  519MOL0     C68395   5.153   7.183   2.738  0.3971 -0.5665  0.2292
  519MOL0     C68396   5.063   7.295   2.800 -0.9979  0.4218  0.3206
  519MOL0     C68397   4.996   7.250   2.925 -0.8412  0.8840  0.7132
  519MOL0     C68398   4.887   7.344   2.980 -0.2434 -0.1214 -0.2357
  519MOL0     C68399   4.938   7.428   3.093 -0.4782 -0.5499  0.1652
  519MOL0     O68400   5.043   7.523   3.062 -0.4832  0.8536  0.2487
  519MOL0     C68401   5.104   7.584   3.166  0.6338  0.3910 -0.4213
  519MOL0     C68402   5.236   7.625   3.149  0.2983  1.0790  0.1135
  519MOL0     C68403   5.313   7.672   3.251  0.5252 -0.4670 -0.4246
  519MOL0     C68404   5.258   7.702   3.376  0.2361 -0.3438 -0.7808
  519MOL0     C68405   5.338   7.752   3.477  0.3306  0.1204 -0.2842
  519MOL0     O68406   5.467   7.752   3.455  0.4114  0.2780 -1.0155
  519MOL0     C68407   5.551   7.735   3.566 -0.0734 -0.4503  0.5683
  519MOL0     C68408   5.597   7.606   3.595  0.2112 -0.7178 -0.2850
  519MOL0     C68409   5.683   7.580   3.700  0.3686 -0.6204 -0.5146
  519MOL0     C68410   5.736   7.692   3.771 -0.6190 -0.5253 -0.6383
  519MOL0     O68411   5.824   7.683   3.878  0.4017 -0.1431  0.2944
  519MOL0     C68412   5.876   7.551   3.903  0.1057  0.3341 -0.8052
  519MOL0     C68413   5.995   7.542   3.993  0.0879 -0.2478  0.0675
  519MOL0     C68414   6.116   7.581   3.912  0.0811  0.2797  0.1045
  519MOL0     C68415   6.237   7.578   4.007  0.0864 -0.2778 -0.1445
  519MOL0     C68416   6.376   7.557   3.944  0.3539  0.4466  0.2625
  519MOL0     C68417   6.483   7.498   4.039  0.1201 -0.2875  0.0889
  519MOL0     C68418   6.618   7.494   3.966 -0.2159  0.5283 -0.8811
  519MOL0     C68419   6.722   7.411   4.041 -0.1173 -0.5830  0.5661
  519MOL0    Cl68420   6.877   7.429   3.953 -0.3087  0.3894  0.0228
  519MOL0     C68421   5.692   7.823   3.746  0.0031 -0.6048 -0.2301
  519MOL0     C68422   5.600   7.847   3.639 -0.8011  0.2330  1.9326
  519MOL0     O68423   5.285   7.783   3.583 -0.3931  0.2118  0.0540
  519MOL0     C68424   5.122   7.677   3.395 -0.5070  0.0527 -0.1255
  519MOL0     C68425   5.048   7.610   3.293 -0.5150 -0.6970  0.0882
  519MOL0     N68426   5.116   7.084   2.651 -0.0602 -0.4261 -0.0227
  519MOL0     N68427   5.211   7.006   2.625 -0.0324 -0.4945  0.3435
  519MOL0     C68428   6.276   6.667   2.166  0.2665  0.4896 -1.0174
  519MOL0     C68429   6.405   6.699   2.109 -0.0909 -0.5736  0.5054
  519MOL0     C68430   6.846   6.680   1.988 -0.1033  0.0274 -0.7039
  519MOL0     C68431   6.912   6.625   1.883 -0.3566 -0.4309 -0.5348
  519MOL0     C68432   7.056   6.627   1.876 -0.1682  0.0452 -0.3252
  519MOL0     C68433   7.138   6.691   1.973 -0.0425 -0.2024 -0.2031
  519MOL0     O68434   7.275   6.696   1.981  0.0715 -0.5098 -0.8856
  519MOL0     C68435   7.353   6.588   1.936 -0.0759 -0.4960  0.3571
  519MOL0     C68436   7.434   6.615   1.810 -0.3030 -0.2513 -0.0358
  519MOL0     C68437   7.514   6.492   1.768 -0.4005  0.8252  0.4171
  519MOL0     C68438   7.611   6.501   1.654 -0.4065  0.1303  0.1416
  519MOL0     C68439   7.690   6.376   1.637  0.2135  0.5240  0.3212
  519MOL0     C68440   7.775   6.292   1.628  0.3707 -0.3173  0.5970
  519MOL0     C68441   7.064   6.753   2.076  0.3557  0.1109 -0.7149
  519MOL0     C68442   6.934   6.747   2.082  0.2706 -0.8812 -0.1477
  519MOL0     H68443   6.606   6.610   2.361  1.0281  1.6712 -0.5623
  519MOL0     H68444   6.385   6.558   2.475 -0.9425 -2.0292 -1.3771
  519MOL0     H68445   5.971   6.621   2.243  2.4129 -1.1921  1.5501
  519MOL0     H68446   6.061   6.763   2.289  1.9660 -0.0228  2.0874
  519MOL0     H68447   5.977   6.756   2.507  2.0978  0.4272 -0.1859
  519MOL0     H68448   5.934   6.584   2.501 -0.0646 -0.1034 -0.3253
  519MOL0     H68449   5.758   6.645   2.339  1.6780 -2.2249  1.6554
  519MOL0     H68450   5.792   6.823   2.359 -1.6827 -1.2968 -1.4317
  519MOL0     H68451   5.600   6.786   2.479  0.5222  2.5817 -0.6629
  519MOL0     H68452   5.666   6.627   2.549  1.0339 -1.8908 -2.4660
  519MOL0     H68453   5.735   6.916   2.604  1.0317 -1.3231 -0.1346
  519MOL0     H68454   5.814   6.791   2.688  0.5754  3.9906  2.2988
  519MOL0     H68455   5.621   6.869   2.835 -2.9938  0.3401  1.4181
  519MOL0     H68456   5.590   6.700   2.783  1.0493 -0.0033 -1.5754
  519MOL0     H68457   5.426   6.786   2.633 -1.0319 -0.6014  0.1278
  519MOL0     H68458   5.402   6.824   2.797 -0.4227 -1.7103 -1.2708
  519MOL0     H68459   5.492   7.011   2.571 -1.2665  2.2252  0.0457
  519MOL0     H68460   5.526   7.060   2.734 -0.7639  0.0473  0.6883
  519MOL0     H68461   5.343   7.220   2.835  0.3063  0.3433 -1.9920
  519MOL0     H68462   4.985   7.326   2.730  1.2103 -0.5340 -2.7882
  519MOL0     H68463   5.123   7.386   2.813 -1.4916  0.6379  1.1881
  519MOL0     H68464   5.065   7.221   3.006 -0.6868  1.3679  0.7558
  519MOL0     H68465   4.939   7.163   2.892 -0.5421 -0.0610  2.5229
  519MOL0     H68466   4.849   7.409   2.901  0.4783  0.4387 -0.1283
  519MOL0     H68467   4.802   7.284   3.012  0.4445 -1.4562 -0.7969
  519MOL0     H68468   4.976   7.372   3.179  1.2169 -1.3569 -1.0565
  519MOL0     H68469   4.852   7.482   3.135  0.9075  1.6246  0.3563
  519MOL0     H68470   5.285   7.627   3.051 -1.9139  0.4438 -1.0716
  519MOL0     H68471   5.414   7.705   3.231 -0.6435  3.9586 -0.0281
  519MOL0     H68472   5.549   7.528   3.537  1.2738 -1.0294 -0.7495
  519MOL0     H68473   5.724   7.480   3.704 -0.3468 -0.8935  1.8836
  519MOL0     H68474   5.898   7.482   3.821 -1.7565 -1.9481  0.4943
  519MOL0     H68475   5.798   7.501   3.961 -0.6694  2.2087 -0.1691
  519MOL0     H68476   6.000   7.439   4.031 -1.1495 -0.0012  0.9629
  519MOL0     H68477   5.976   7.612   4.075 -1.1278  0.7422 -1.0360
  519MOL0     H68478   6.108   7.685   3.877  1.3391  0.5021  0.4255
  519MOL0     H68479   6.123   7.510   3.829  2.2635 -0.7079  1.0424
  519MOL0     H68480   6.237   7.678   4.050 -2.8318  1.0157 -2.7920
  519MOL0     H68481   6.221   7.496   4.077 -0.0178 -1.5811 -1.6342
  519MOL0     H68482   6.404   7.654   3.902  0.3910  1.8300  3.2329
  519MOL0     H68483   6.365   7.482   3.865 -0.0176 -1.9913  2.4840
  519MOL0     H68484   6.450   7.398   4.066 -1.0491 -0.0783 -0.4765
  519MOL0     H68485   6.494   7.553   4.133  5.5073 -2.7294  1.2720
  519MOL0     H68486   6.598   7.450   3.867  0.4716  1.2752 -1.3704
  519MOL0     H68487   6.662   7.594   3.961  0.0401  0.5566  1.1924
  519MOL0     H68488   6.681   7.310   4.040 -1.9082  0.0905  1.7201
  519MOL0     H68489   6.727   7.444   4.145 -1.0636  1.6265 -0.0343
  519MOL0     H68490   5.730   7.907   3.804 -0.8867  0.8870 -1.7281
  519MOL0     H68491   5.578   7.946   3.601 -0.8894 -0.4164  0.2242
  519MOL0     H68492   5.073   7.709   3.487  2.4969  1.7830  1.0159
  519MOL0     H68493   4.942   7.603   3.315 -1.2404  0.4325 -2.6383
  519MOL0     H68494   6.193   6.682   2.098  0.5149  1.1795 -1.1720
  519MOL0     H68495   6.418   6.734   2.006 -0.8036  0.5078  0.7672
  519MOL0     H68496   6.850   6.577   1.808 -1.1879  1.4569 -1.1288
  519MOL0     H68497   7.105   6.575   1.794  1.3334  0.9050 -0.0075
  519MOL0     H68498   7.291   6.499   1.923  0.9391 -0.9710 -1.5883
  519MOL0     H68499   7.422   6.565   2.018  2.2051  1.3112 -0.9481
  519MOL0     H68500   7.365   6.641   1.730 -2.1827 -2.3220  0.7883
  519MOL0     H68501   7.499   6.698   1.840  0.4140 -0.7449 -0.1912
  519MOL0     H68502   7.438   6.415   1.755 -0.4667  0.4707  2.5954
  519MOL0     H68503   7.565   6.452   1.856 -2.4578 -0.5627  1.0342
  519MOL0     H68504   7.551   6.508   1.563 -0.9440 -3.8516 -0.0007
  519MOL0     H68505   7.674   6.589   1.668 -0.3774  0.3688 -1.3601
  519MOL0     H68506   7.847   6.218   1.600  1.5471  0.9280  0.2421
  519MOL0     H68507   7.116   6.821   2.143  1.7098 -0.1575 -1.4634
  519MOL0     H68508   6.886   6.799   2.163  0.5588  0.4152 -0.7765
  520MOL0     O68509   9.641   3.684   4.971  0.0031 -1.1007 -0.5811
  520MOL0     C68510   9.652   3.806   4.940  0.1592  0.1337 -0.1570
  520MOL0     O68511   9.547   3.895   4.919  0.7632  0.6272 -0.1676
  520MOL0     C68512   9.416   3.855   4.941 -1.4104  0.2591  0.0038
  520MOL0     C68513   9.378   3.755   5.034 -0.2437  0.2374 -0.3368
  520MOL0     C68514   9.244   3.718   5.055  0.2108  0.1195 -0.0994
  520MOL0     C68515   9.144   3.780   4.981  0.2762  0.0136  0.1226
  520MOL0     O68516   9.006   3.738   4.994  0.2106  0.1040  0.4053
  520MOL0     C68517   8.973   3.656   5.112  0.2304 -0.0939  0.6808
  520MOL0     C68518   8.824   3.652   5.169  0.2071  0.6813 -0.2481
  520MOL0     C68519   8.716   3.599   5.070 -0.4827  0.4749  0.4770
  520MOL0     C68520   8.578   3.600   5.128  0.2239  0.2976  0.5464
  520MOL0     C68521   8.468   3.565   5.026  0.8523 -0.3786 -0.3248
  520MOL0     C68522   8.325   3.581   5.085  0.5639  0.4748  0.3649
  520MOL0     C68523   8.204   3.554   4.996 -0.2227 -0.0344  0.6490
  520MOL0     C68524   8.165   3.398   4.984 -0.8898  0.2001 -0.0221
  520MOL0     N68525   8.084   3.354   4.874 -0.5077 -0.3093 -0.4664
  520MOL0     C68526   7.946   3.346   4.855  0.1526 -0.1101 -0.0656
  520MOL0     C68527   7.923   3.326   4.726  0.3156 -0.2810 -0.7422
  520MOL0     C68528   7.791   3.292   4.663  0.8016  0.4192  0.2522
  520MOL0     C68529   7.774   3.133   4.685 -0.4135 -0.5404  1.2720
  520MOL0     C68530   7.871   3.031   4.612  0.1416  0.0022 -0.5987
  520MOL0     C68531   7.864   3.054   4.455 -0.3232 -0.3311 -0.2873
  520MOL0     O68532   7.743   3.021   4.392 -0.3832 -0.0328  0.0900
  520MOL0     C68533   7.732   3.045   4.256  0.4144  0.6630 -0.1491
  520MOL0     C68534   7.603   3.032   4.205  0.0066  0.5026  0.6184
  520MOL0     C68535   7.575   3.048   4.073  0.5825  0.1527 -0.2582
  520MOL0     C68536   7.681   3.063   3.980  0.5088 -0.0734  0.1540
  520MOL0     C68537   7.666   3.073   3.838  0.7530  0.7704 -0.0592
  520MOL0     O68538   7.539   3.088   3.790  0.3214  0.2657  0.5070
  520MOL0     C68539   7.510   3.126   3.658  0.4954  0.2995 -0.4900
  520MOL0     C68540   7.379   3.176   3.647  0.2342 -0.0866  0.2795
  520MOL0     C68541   7.330   3.211   3.521 -0.4996  0.4722  0.9079
  520MOL0     C68542   7.416   3.216   3.408 -0.1533  0.3201  0.3499
  520MOL0     O68543   7.363   3.270   3.298  0.8590  0.2674  0.0061
  520MOL0     C68544   7.448   3.336   3.202 -0.1461  0.3818  0.8169
  520MOL0     C68545   7.367   3.383   3.076  0.6272  0.7678 -0.4421
  520MOL0     C68546   7.236   3.449   3.115  0.7284  0.1919 -0.3043
  520MOL0     C68547   7.138   3.456   3.004  0.1598  0.5255 -0.5007
  520MOL0     C68548   7.003   3.516   3.053 -0.9446  0.2045 -0.7287
  520MOL0     C68549   6.900   3.514   2.940 -0.0808 -1.1164 -0.3384
  520MOL0     C68550   6.774   3.602   2.974 -0.8139 -0.6442 -0.1945
  520MOL0     C68551   6.640   3.553   2.920 -0.2781  0.7708 -0.1864
  520MOL0    Cl68552   6.524   3.684   2.965 -0.6844 -0.6891 -0.1736
  520MOL0     C68553   7.547   3.169   3.430 -0.3422 -0.1837  0.9551
  520MOL0     C68554   7.591   3.110   3.554 -0.5199 -0.0503  0.0597
  520MOL0     O68555   7.775   3.073   3.772  0.4088  0.4285 -0.7413
  520MOL0     C68556   7.807   3.079   4.027 -0.6908 -0.8045 -0.0894
  520MOL0     C68557   7.828   3.079   4.164 -0.2019 -0.2527  0.1274
  520MOL0     N68558   8.043   3.334   4.658 -0.0747  0.0383  0.1711
  520MOL0     N68559   8.138   3.344   4.748  0.9362 -0.6538 -0.4494
  520MOL0     C68560   9.184   3.882   4.891 -0.2854  0.1069  0.9051
  520MOL0     C68561   9.314   3.921   4.873  0.7273  0.3694 -0.2141
  520MOL0     C68562   9.790   3.861   4.896  0.8352  1.3431  0.1988
  520MOL0     C68563   9.902   3.778   4.887 -0.2838 -1.1872 -0.3214
  520MOL0     C68564  10.031   3.827   4.848  1.0398 -0.2531  0.7559
  520MOL0     C68565  10.032   3.960   4.801 -0.4975  0.2664  0.1327
  520MOL0     O68566  10.145   4.019   4.749  0.4337  0.2643  0.1861
  520MOL0     C68567  10.264   3.944   4.716 -0.8368 -0.1005 -0.6212
  520MOL0     C68568  10.378   4.034   4.676  0.4531  0.9207 -0.5112
  520MOL0     C68569  10.513   3.971   4.660  0.1767  0.2061 -0.4298
  520MOL0     C68570  10.571   3.900   4.781  1.2895  0.1263  0.6126
  520MOL0     C68571  10.716   3.892   4.770  0.2618 -0.3474 -0.4147
  520MOL0     C68572  10.838   3.874   4.765 -0.4610  0.0192  0.2558
  520MOL0     C68573   9.922   4.044   4.808  0.4587  0.4201 -0.5820
  520MOL0     C68574   9.802   3.992   4.858  0.4686  0.0890 -0.0079
  520MOL0     H68575   9.441   3.703   5.106  1.8856  1.6555 -1.0627
  520MOL0     H68576   9.231   3.649   5.138 -2.8304 -0.7859 -1.1771
  520MOL0     H68577   9.024   3.706   5.195  1.7690 -0.8801  0.2456
  520MOL0     H68578   9.000   3.550   5.104 -1.3421 -0.3980 -1.2259
  520MOL0     H68579   8.790   3.749   5.206  0.6465  0.3141  1.1522
  520MOL0     H68580   8.830   3.584   5.254  2.6471  0.1339 -0.7909
  520MOL0     H68581   8.744   3.500   5.033  2.5278  1.3716  0.0687
  520MOL0     H68582   8.731   3.667   4.986  0.5288  2.3004  2.0301
  520MOL0     H68583   8.568   3.522   5.204  0.8953 -0.4845 -0.1691
  520MOL0     H68584   8.554   3.693   5.182  1.5778 -0.0136  1.7548
  520MOL0     H68585   8.492   3.467   4.986  0.1025 -0.3674 -0.8079
  520MOL0     H68586   8.470   3.643   4.949 -2.9415  0.8983  0.6799
  520MOL0     H68587   8.323   3.680   5.132 -2.2324  0.6026  0.1323
  520MOL0     H68588   8.319   3.512   5.169 -0.9639  0.4319  0.2492
  520MOL0     H68589   8.121   3.609   5.040 -1.2797 -1.6326  0.7479
  520MOL0     H68590   8.210   3.586   4.891 -0.1697  1.4727  1.0865
  520MOL0     H68591   8.114   3.370   5.077 -1.4697 -1.8031 -0.8880
  520MOL0     H68592   8.257   3.338   4.982 -0.9436 -0.1049  2.7195
  520MOL0     H68593   7.864   3.358   4.925  1.8285  0.5814  1.8855
  520MOL0     H68594   7.782   3.322   4.559 -0.9635 -0.6909  0.0462
  520MOL0     H68595   7.712   3.345   4.716  0.3551 -0.9576  1.0442
  520MOL0     H68596   7.675   3.122   4.641 -0.5344 -0.0822  1.4247
  520MOL0     H68597   7.771   3.111   4.792 -3.3898  2.8962  2.0794
  520MOL0     H68598   7.977   3.047   4.633  0.1705  2.4465 -2.1684
  520MOL0     H68599   7.837   2.931   4.639 -1.0635  0.1803 -1.3937
  520MOL0     H68600   7.941   2.991   4.409  0.0256  0.6572 -1.0966
  520MOL0     H68601   7.896   3.157   4.438  2.0289 -0.9673 -0.0715
  520MOL0     H68602   7.526   3.011   4.278 -1.8052 -1.7246 -1.7568
  520MOL0     H68603   7.472   3.048   4.039  0.9782 -1.3097 -1.5639
  520MOL0     H68604   7.312   3.186   3.731 -1.1922 -2.8750 -0.3787
  520MOL0     H68605   7.226   3.230   3.494 -0.4174 -0.3846 -0.0676
  520MOL0     H68606   7.530   3.270   3.172 -1.8752 -2.1645  1.3032
  520MOL0     H68607   7.499   3.422   3.246  2.8463  0.1726 -1.8779
  520MOL0     H68608   7.346   3.295   3.014 -0.1796  0.2926  0.4695
  520MOL0     H68609   7.418   3.456   3.013 -0.6575  2.6660  0.6059
  520MOL0     H68610   7.256   3.543   3.167 -1.1901 -0.4439  1.7734
  520MOL0     H68611   7.200   3.401   3.206  3.4811 -2.8340 -0.5929
  520MOL0     H68612   7.183   3.523   2.930 -2.0700  1.4880 -1.0718
  520MOL0     H68613   7.121   3.364   2.948  2.0280  1.2734 -2.4359
  520MOL0     H68614   7.022   3.623   3.069 -0.3992 -0.0262  0.2876
  520MOL0     H68615   6.963   3.469   3.144  0.4885 -0.3634 -0.3690
  520MOL0     H68616   6.862   3.414   2.920 -1.9433  0.0438 -3.4822
  520MOL0     H68617   6.950   3.554   2.851 -0.3790  1.6530  0.6277
  520MOL0     H68618   6.760   3.609   3.082 -0.2591  1.8657 -0.2258
  520MOL0     H68619   6.801   3.703   2.944  1.9805 -0.7462  1.6643
  520MOL0     H68620   6.607   3.459   2.963  0.3303  0.4628 -0.3822
  520MOL0     H68621   6.640   3.539   2.811  2.4099 -0.8309 -0.0771
  520MOL0     H68622   7.620   3.160   3.351 -0.3391 -1.5715  1.0873
  520MOL0     H68623   7.690   3.067   3.557 -0.8452 -0.7653  2.0538
  520MOL0     H68624   7.887   3.102   3.957 -1.8700 -2.5977 -2.1645
  520MOL0     H68625   7.920   3.117   4.207  0.2031  0.1339 -1.0464
  520MOL0     H68626   9.109   3.931   4.830 -0.4712 -1.1812  0.0643
  520MOL0     H68627   9.332   3.988   4.789  0.5801  0.5876 -0.0704
  520MOL0     H68628   9.883   3.673   4.909 -1.6834 -1.3293 -1.9036
  520MOL0     H68629  10.114   3.757   4.846  0.0803 -1.5116  2.6487
  520MOL0     H68630  10.247   3.886   4.625 -1.1090  0.4889 -0.9434
  520MOL0     H68631  10.287   3.879   4.801  1.5598  0.5268 -0.7305
  520MOL0     H68632  10.353   4.069   4.575  1.5958  0.4231 -0.9793
  520MOL0     H68633  10.387   4.119   4.744  2.5056  1.5166 -1.4489
  520MOL0     H68634  10.591   4.044   4.640  2.0279 -1.3652  0.6482
  520MOL0     H68635  10.495   3.908   4.573 -1.2280  2.4195 -1.8368
  520MOL0     H68636  10.556   3.957   4.873  0.4602 -2.4760  2.1821
  520MOL0     H68637  10.541   3.795   4.785  2.2982 -0.1386  1.4286
  520MOL0     H68638  10.944   3.861   4.766 -0.3280  0.4800 -2.0346
  520MOL0     H68639   9.934   4.147   4.774  1.9716  1.4058  2.5558
  520MOL0     H68640   9.715   4.056   4.852 -2.6928 -3.2520  4.3054
  521MOL0     O68641  10.531  11.144   3.415  0.3202 -0.1283 -0.0749
  521MOL0     C68642  10.592  11.107   3.319  0.1266 -0.1642  0.5606
  521MOL0     O68643  10.534  11.060   3.198  0.6043  0.2347  0.1751
  521MOL0     C68644  10.400  11.093   3.174  0.0366 -0.3775 -0.4536
  521MOL0     C68645  10.344  11.224   3.188  0.3663  0.9615 -0.1532
  521MOL0     C68646  10.211  11.251   3.151 -0.4374 -0.0823  0.1408
  521MOL0     C68647  10.130  11.152   3.094 -0.2447  0.0309 -0.5198
  521MOL0     O68648  10.002  11.186   3.077  0.1618 -0.5099  0.9825
  521MOL0     C68649   9.932  11.145   2.955  0.2468 -0.0581 -0.0216
  521MOL0     C68650   9.841  11.023   2.972 -0.8683 -0.0651  0.5394
  521MOL0     C68651   9.739  11.052   3.075 -0.4018  0.6819 -0.5316
  521MOL0     C68652   9.624  11.137   3.008 -0.0227 -0.5374 -0.1630
  521MOL0     C68653   9.511  11.163   3.105 -0.4332 -0.0580 -0.1071
  521MOL0     C68654   9.553  11.268   3.208 -0.0260 -0.6790  0.4207
  521MOL0     C68655   9.449  11.273   3.319 -0.4888 -0.2419  0.2342
  521MOL0     C68656   9.310  11.313   3.284  0.1892  0.2113  0.2909
  521MOL0     N68657   9.212  11.344   3.394  0.1744 -0.1634  0.0008
  521MOL0     C68658   9.092  11.398   3.375  0.4278 -0.7088 -0.1009
  521MOL0     C68659   9.027  11.397   3.502 -0.6712  0.0335 -0.9123
  521MOL0     C68660   8.902  11.452   3.554  0.2465  0.1635  0.1773
  521MOL0     C68661   8.784  11.424   3.458 -0.1322 -0.0601 -0.0159
  521MOL0     C68662   8.646  11.426   3.533  0.2852  0.4384  0.6389
  521MOL0     C68663   8.527  11.474   3.439  0.1694  0.1367 -0.3593
  521MOL0     O68664   8.403  11.443   3.496  0.2999 -1.1767  0.0408
  521MOL0     C68665   8.296  11.461   3.413 -0.0294 -0.3192 -0.3717
  521MOL0     C68666   8.173  11.470   3.484 -0.1477  0.2968  0.4433
  521MOL0     C68667   8.052  11.471   3.405 -0.3157  0.5070  0.1705
  521MOL0     C68668   8.053  11.484   3.265  0.3345  0.7464 -0.1439
  521MOL0     C68669   7.928  11.495   3.191  0.1348  0.6003 -0.3789
  521MOL0     O68670   7.940  11.503   3.056 -0.8659 -0.4749  0.0199
  521MOL0     C68671   7.830  11.535   2.981  0.0277 -0.1848 -0.5278
  521MOL0     C68672   7.769  11.660   2.978 -0.1293  0.5376 -1.1032
  521MOL0     C68673   7.651  11.688   2.908 -0.1559 -0.1765  0.2350
  521MOL0     C68674   7.597  11.596   2.828 -0.5275  0.2371 -0.0991
  521MOL0     O68675   7.495  11.647   2.755  0.2542  0.8363 -0.4729
  521MOL0     C68676   7.395  11.562   2.703 -0.3243 -0.9736  0.6593
  521MOL0     C68677   7.302  11.640   2.610 -0.3409 -0.4401 -0.3119
  521MOL0     C68678   7.243  11.779   2.662  0.1566 -0.1839  1.3403
  521MOL0     C68679   7.097  11.799   2.638  1.2303 -1.1386 -0.5402
  521MOL0     C68680   7.055  11.939   2.620  0.3493 -0.3494 -0.2567
  521MOL0     C68681   6.896  11.935   2.617 -0.6069  0.2019  0.7439
  521MOL0     C68682   6.831  11.953   2.755  0.6140  0.1076  0.3628
  521MOL0     C68683   6.675  11.994   2.734  0.1694 -0.4794 -0.4169
  521MOL0    Cl68684   6.592  11.870   2.643 -0.1182 -0.0436 -0.2403
  521MOL0     C68685   7.657  11.467   2.821  0.3646 -0.4148 -1.1517
  521MOL0     C68686   7.780  11.440   2.894 -0.2151  1.0056 -0.3398
  521MOL0     O68687   7.817  11.493   3.251  0.0252 -0.6029  0.2317
  521MOL0     C68688   8.175  11.481   3.192 -0.1251 -0.2197 -0.4211
  521MOL0     C68689   8.294  11.469   3.273  0.1163 -0.2843  0.2081
  521MOL0     N68690   9.123  11.343   3.591  0.3538 -0.2473  0.6119
  521MOL0     N68691   9.229  11.311   3.527 -0.9198  0.4570  0.3062
  521MOL0     C68692  10.193  11.020   3.072 -0.0604  0.1652 -0.1916
  521MOL0     C68693  10.324  10.986   3.118  0.5194 -0.0217  0.7433
  521MOL0     C68694  10.734  11.071   3.333 -0.3607 -0.8999 -0.1509
  521MOL0     C68695  10.816  11.011   3.236 -0.7969 -0.3215  0.0367
  521MOL0     C68696  10.942  10.969   3.272 -0.4918 -0.4467  0.2670
  521MOL0     C68697  11.008  11.002   3.395  0.7239  0.5395 -0.6646
  521MOL0     O68698  11.139  10.984   3.426  0.3903 -0.5384  0.0176
  521MOL0     C68699  11.221  10.900   3.347 -0.2854 -0.0098 -0.2289
  521MOL0     C68700  11.341  10.853   3.425 -0.5474  0.1660  0.1890
  521MOL0     C68701  11.447  10.959   3.439 -0.2537  0.1553 -0.0529
  521MOL0     C68702  11.563  10.916   3.526 -0.5588 -0.5833  0.7056
  521MOL0     C68703  11.669  10.832   3.462  0.8808 -0.1584  0.1148
  521MOL0     C68704  11.769  10.776   3.422 -0.2304 -0.0287 -0.6582
  521MOL0     C68705  10.925  11.066   3.484 -0.9488 -0.2383  0.1731
  521MOL0     C68706  10.788  11.089   3.460 -0.7875  0.9083 -0.0487
  521MOL0     H68707  10.417  11.297   3.221  1.1443  1.1464 -2.1048
  521MOL0     H68708  10.163  11.348   3.158 -2.0341 -0.7038 -1.4781
  521MOL0     H68709   9.998  11.131   2.869 -1.0075 -1.5754 -0.7815
  521MOL0     H68710   9.874  11.235   2.932  1.9259  1.7752  2.3778
  521MOL0     H68711   9.904  10.938   3.000  2.7531  1.1436 -2.9852
  521MOL0     H68712   9.807  11.001   2.871  0.6677  3.9883 -1.0948
  521MOL0     H68713   9.778  11.103   3.164 -1.3638 -1.5121  1.2190
  521MOL0     H68714   9.706  10.955   3.112  1.8080 -1.3454 -3.4759
  521MOL0     H68715   9.662  11.236   2.981  0.4346  0.0002  2.2482
  521MOL0     H68716   9.595  11.079   2.920 -0.5214 -1.4719  0.6032
  521MOL0     H68717   9.491  11.063   3.146 -0.0143 -0.0351  0.1700
  521MOL0     H68718   9.424  11.191   3.046 -0.7325  1.3474  0.9562
  521MOL0     H68719   9.550  11.367   3.162  1.7459 -1.2561 -1.0483
  521MOL0     H68720   9.645  11.237   3.259  0.5772  1.7096  0.9112
  521MOL0     H68721   9.439  11.180   3.376 -1.5083 -0.8307 -0.8812
  521MOL0     H68722   9.485  11.349   3.390  1.0515  1.0380 -1.8217
  521MOL0     H68723   9.256  11.243   3.220 -0.8411  0.3845  0.9496
  521MOL0     H68724   9.320  11.405   3.225 -0.5910  0.0825 -0.0578
  521MOL0     H68725   9.047  11.438   3.285 -2.0311 -2.3543  0.3109
  521MOL0     H68726   8.908  11.559   3.573 -3.3197  0.2201  1.8185
  521MOL0     H68727   8.882  11.396   3.646  3.8873  0.0776  1.0660
  521MOL0     H68728   8.795  11.324   3.414 -0.4554  0.6834 -1.9140
  521MOL0     H68729   8.775  11.488   3.369 -1.4642 -0.3303 -0.1061
  521MOL0     H68730   8.619  11.332   3.580  0.7819  0.4757  1.0135
  521MOL0     H68731   8.639  11.504   3.609  0.6403 -0.1688  1.3047
  521MOL0     H68732   8.539  11.410   3.352  1.5876  0.2418 -0.2661
  521MOL0     H68733   8.529  11.579   3.410 -4.2301 -0.6902 -4.9489
  521MOL0     H68734   8.179  11.455   3.591 -5.0496 -1.9321  0.6968
  521MOL0     H68735   7.959  11.473   3.463 -0.5250  3.0648 -0.1638
  521MOL0     H68736   7.819  11.734   3.040  1.7264  1.1846 -3.2635
  521MOL0     H68737   7.603  11.785   2.913 -2.8088 -1.4105  0.2985
  521MOL0     H68738   7.336  11.514   2.782 -0.2347  0.0352  1.3609
  521MOL0     H68739   7.431  11.482   2.639  1.9853 -0.5252  1.3234
  521MOL0     H68740   7.219  11.571   2.590 -1.9562  0.9778  1.2016
  521MOL0     H68741   7.355  11.665   2.518 -0.3020  0.6133 -0.0165
  521MOL0     H68742   7.296  11.866   2.622  0.7302 -1.1635 -0.1506
  521MOL0     H68743   7.259  11.779   2.770 -0.4218 -1.0622  1.4359
  521MOL0     H68744   7.075  11.746   2.544  0.9286 -1.9079 -0.0513
  521MOL0     H68745   7.034  11.753   2.714  0.6350  0.6902  0.1105
  521MOL0     H68746   7.087  11.988   2.528 -3.2615  1.9167 -0.5239
  521MOL0     H68747   7.091  11.997   2.705  0.5900 -0.9060  0.0285
  521MOL0     H68748   6.872  11.841   2.566  0.2067  2.1754 -3.7357
  521MOL0     H68749   6.866  12.020   2.556  0.0517  0.7201  1.1314
  521MOL0     H68750   6.825  11.856   2.805 -3.1545 -0.1108 -0.1968
  521MOL0     H68751   6.885  12.025   2.817 -0.0239 -0.4861  1.6451
  521MOL0     H68752   6.657  12.087   2.680 -2.6096  0.8805  2.4883
  521MOL0     H68753   6.624  12.010   2.829 -2.5770  0.3736 -1.9141
  521MOL0     H68754   7.600  11.391   2.768 -3.2064  0.6128  0.8759
  521MOL0     H68755   7.823  11.341   2.885 -0.0453  1.0030  0.4116
  521MOL0     H68756   8.180  11.486   3.084 -0.9500  1.8561 -0.4255
  521MOL0     H68757   8.387  11.477   3.217  0.1903 -0.6882  0.2750
  521MOL0     H68758  10.130  10.949   3.018 -0.8381  1.9582 -1.7691
  521MOL0     H68759  10.360  10.884   3.122  0.0013 -0.1796  2.0589
  521MOL0     H68760  10.770  10.980   3.143 -0.7448 -0.4720  0.0611
  521MOL0     H68761  10.996  10.903   3.205 -2.0001 -1.7936  0.3253
  521MOL0     H68762  11.258  10.956   3.262 -1.6696  1.1535 -0.1115
  521MOL0     H68763  11.162  10.813   3.315  0.9072  0.0235 -2.7261
  521MOL0     H68764  11.308  10.812   3.521  0.0505  1.0748  0.8033
  521MOL0     H68765  11.388  10.776   3.365  3.1814  1.2285  1.4808
  521MOL0     H68766  11.402  11.051   3.478  0.6816  0.4917  0.2545
  521MOL0     H68767  11.475  10.977   3.334 -1.6610 -0.7883 -0.6134
  521MOL0     H68768  11.608  11.008   3.565 -0.2937 -1.1791  1.8527
  521MOL0     H68769  11.530  10.871   3.620 -2.7257 -0.0575  0.2595
  521MOL0     H68770  11.857  10.720   3.396 -0.2004 -1.1756  1.6279
  521MOL0     H68771  10.965  11.108   3.576  0.0335 -0.4843 -0.1200
  521MOL0     H68772  10.731  11.121   3.547  1.4718  0.8949  1.5180
  522MOL0     O68773   6.825   9.474   0.769  0.2294  0.3786  0.4642
  522MOL0     C68774   6.918   9.410   0.716  0.9176 -0.1799 -0.1793
  522MOL0     O68775   6.949   9.283   0.747 -0.8380  0.1675  0.3822
  522MOL0     C68776   6.893   9.238   0.862  0.4984 -0.9457 -0.2606
  522MOL0     C68777   6.774   9.161   0.856  0.1727  0.2990  0.4626
  522MOL0     C68778   6.718   9.111   0.975  0.0374 -0.0141  0.2873
  522MOL0     C68779   6.784   9.135   1.091  0.1669 -1.6066 -0.0629
  522MOL0     O68780   6.732   9.106   1.213  0.2918 -0.7779  0.2787
  522MOL0     C68781   6.617   9.022   1.235 -0.1117  0.0199  0.5541
  522MOL0     C68782   6.666   8.880   1.244 -0.6363  0.3678  0.2713
  522MOL0     C68783   6.541   8.784   1.290 -0.1916 -0.9516 -0.1638
  522MOL0     C68784   6.577   8.639   1.291  0.9132 -0.1406  1.2187
  522MOL0     C68785   6.468   8.547   1.353  0.3599 -0.8024  0.1026
  522MOL0     C68786   6.335   8.542   1.271  0.0253  0.1026 -0.1364
  522MOL0     C68787   6.314   8.402   1.205  0.7491  0.1827  0.8850
  522MOL0     C68788   6.184   8.405   1.114 -0.3170  0.0273  0.1668
  522MOL0     N68789   6.179   8.518   1.015  0.3552  0.3661 -0.1723
  522MOL0     C68790   6.285   8.583   0.961 -0.6022  0.1825 -0.1081
  522MOL0     C68791   6.230   8.697   0.911 -0.3412  0.5565  0.5224
  522MOL0     C68792   6.309   8.815   0.857 -0.4421  0.2473  0.4299
  522MOL0     C68793   6.220   8.904   0.766 -0.4891  0.0286  0.8774
  522MOL0     C68794   6.303   9.037   0.728  0.7554  0.5193  0.9042
  522MOL0     C68795   6.219   9.135   0.634  0.6202  0.3573 -0.0316
  522MOL0     O68796   6.191   9.085   0.504  0.4130 -0.2162  0.5177
  522MOL0     C68797   6.121   9.172   0.417  0.5900  0.1813  0.2996
  522MOL0     C68798   6.106   9.312   0.429  0.2731  0.0190  0.6429
  522MOL0     C68799   6.009   9.376   0.349  0.0650  0.1968 -1.2026
  522MOL0     C68800   5.919   9.303   0.274 -0.2193  0.0559 -0.2050
  522MOL0     C68801   5.817   9.375   0.196 -0.4417  0.2825  0.0512
  522MOL0     O68802   5.825   9.509   0.199  1.0241 -0.5455  0.8859
  522MOL0     C68803   5.739   9.585   0.124  0.7489 -0.0864 -0.2685
  522MOL0     C68804   5.628   9.643   0.196 -0.8682  0.0651  0.5092
  522MOL0     C68805   5.550   9.737   0.133 -0.2865  0.2486 -0.9312
  522MOL0     C68806   5.570   9.767   0.003  0.4165  0.5681 -0.5046
  522MOL0     O68807   5.488   9.851  -0.057  0.7188  0.3657  0.3515
  522MOL0     C68808   5.355   9.808  -0.055 -0.2603  0.5418  0.4028
  522MOL0     C68809   5.261   9.917  -0.108 -0.2975 -0.4531 -0.0670
  522MOL0     C68810   5.208  10.003   0.008  0.1006  0.5501  0.7178
  522MOL0     C68811   5.116  10.127  -0.028  0.5106  0.4030  0.0584
  522MOL0     C68812   5.058  10.181   0.102 -0.5835  0.3528  0.1992
  522MOL0     C68813   4.946  10.283   0.068 -0.4840 -0.2988 -0.0397
  522MOL0     C68814   4.893  10.367   0.187  0.4252 -0.2420 -0.4423
  522MOL0     C68815   4.794  10.465   0.144 -0.0289  0.3798  0.3330
  522MOL0    Cl68816   4.852  10.541  -0.008  0.6393 -0.2375  0.1449
  522MOL0     C68817   5.667   9.706  -0.073 -0.0462  0.4685  0.5683
  522MOL0     C68818   5.748   9.608  -0.011 -0.1652  0.3146  0.0096
  522MOL0     O68819   5.748   9.312   0.114 -0.2925  0.2297  0.8554
  522MOL0     C68820   5.927   9.160   0.267 -0.5251 -0.5918 -0.1179
  522MOL0     C68821   6.028   9.096   0.349  0.3232  0.1937  0.0258
  522MOL0     N68822   6.095   8.688   0.921  0.3726 -0.3390  0.7531
  522MOL0     N68823   6.062   8.586   0.986  0.0159  1.4391  0.0593
  522MOL0     C68824   6.899   9.218   1.102  0.4047 -0.4048  0.6277
  522MOL0     C68825   6.953   9.265   0.983 -0.7054  0.0975 -0.0103
  522MOL0     C68826   7.003   9.475   0.617  1.0121 -0.2052  0.6232
  522MOL0     C68827   7.104   9.402   0.545 -0.3916 -0.5149  0.3041
  522MOL0     C68828   7.173   9.464   0.432  0.2464 -0.1823 -0.3305
  522MOL0     C68829   7.155   9.604   0.408 -0.6166 -0.2908  0.3229
  522MOL0     O68830   7.235   9.654   0.309  0.2074 -0.1996 -0.6851
  522MOL0     C68831   7.226   9.792   0.281  1.1382 -0.6654  0.0609
  522MOL0     C68832   7.103   9.827   0.206 -0.4623  0.8022  0.1992
  522MOL0     C68833   7.090   9.976   0.160  0.6219  0.0078  0.0063
  522MOL0     C68834   7.184  10.023   0.041  0.1388  0.0221 -0.7181
  522MOL0     C68835   7.328  10.043   0.087  0.6205  0.0051 -0.6283
  522MOL0     C68836   7.444  10.064   0.115 -0.1288 -0.2868 -0.1727
  522MOL0     C68837   7.065   9.666   0.486  0.0990 -0.1819 -1.3228
  522MOL0     C68838   6.987   9.609   0.584  0.2312  0.4728  0.3299
  522MOL0     H68839   6.729   9.147   0.758 -0.9207 -0.9328  1.1090
  522MOL0     H68840   6.625   9.055   0.970 -0.6141  1.0420  0.2826
  522MOL0     H68841   6.539   9.038   1.160  1.4867 -1.8756 -1.6718
  522MOL0     H68842   6.573   9.053   1.330 -2.7044  1.2393 -0.9441
  522MOL0     H68843   6.751   8.867   1.312  1.3820 -1.0559 -2.3495
  522MOL0     H68844   6.706   8.845   1.149 -1.3814  1.4644 -0.4654
  522MOL0     H68845   6.451   8.801   1.231 -0.8552 -0.0763  1.0613
  522MOL0     H68846   6.507   8.821   1.388 -0.4135  1.0549 -0.9574
  522MOL0     H68847   6.583   8.605   1.188  0.5152  1.3235  0.6884
  522MOL0     H68848   6.677   8.632   1.334  3.3317  1.0405 -3.6019
  522MOL0     H68849   6.447   8.569   1.458 -0.8028 -2.3391  0.2367
  522MOL0     H68850   6.511   8.446   1.358  0.5506 -0.7850 -0.9453
  522MOL0     H68851   6.331   8.631   1.208  0.0990 -0.7768 -1.4099
  522MOL0     H68852   6.257   8.564   1.345  0.4733 -0.6506  0.5757
  522MOL0     H68853   6.407   8.387   1.150 -0.7234  2.0589 -2.4601
  522MOL0     H68854   6.308   8.323   1.280  0.3939 -1.2527 -0.5833
  522MOL0     H68855   6.093   8.411   1.174 -2.0885  2.3747 -2.5161
  522MOL0     H68856   6.194   8.308   1.064  0.0963 -0.2552  0.7921
  522MOL0     H68857   6.387   8.552   0.981 -1.2627 -1.2166  1.3481
  522MOL0     H68858   6.389   8.772   0.796 -1.4062 -1.3471  0.2212
  522MOL0     H68859   6.345   8.865   0.947 -1.5674  0.9654  0.5134
  522MOL0     H68860   6.126   8.930   0.816 -0.7206  0.3989  0.2641
  522MOL0     H68861   6.188   8.862   0.670 -0.8694 -0.2436  1.1238
  522MOL0     H68862   6.317   9.105   0.813  0.7891  1.9355 -0.1855
  522MOL0     H68863   6.400   9.019   0.681 -1.3248 -1.0344 -3.2459
  522MOL0     H68864   6.275   9.230   0.627  1.3985  0.1299  2.1858
  522MOL0     H68865   6.124   9.163   0.680  0.4743 -0.4846  0.1799
  522MOL0     H68866   6.157   9.379   0.498 -0.8976 -1.8800  3.5326
  522MOL0     H68867   6.005   9.485   0.352 -1.1615  0.1676 -1.2025
  522MOL0     H68868   5.628   9.625   0.303 -4.3722 -0.9206  0.4504
  522MOL0     H68869   5.477   9.796   0.187  1.4531  1.5545  0.0832
  522MOL0     H68870   5.315   9.763   0.036 -0.2373 -0.0493  0.1300
  522MOL0     H68871   5.350   9.725  -0.126 -0.3230  1.9890 -1.3823
  522MOL0     H68872   5.173   9.881  -0.161 -0.6772  3.3679 -2.4649
  522MOL0     H68873   5.311   9.984  -0.179  1.2302  1.5123  2.6467
  522MOL0     H68874   5.293  10.040   0.067  0.6092 -0.8406  0.9005
  522MOL0     H68875   5.152   9.939   0.077 -0.1210  2.5073  2.4782
  522MOL0     H68876   5.168  10.203  -0.087 -2.4359  1.4809 -1.3417
  522MOL0     H68877   5.031  10.091  -0.088  1.2739  1.7933 -1.9772
  522MOL0     H68878   5.141  10.219   0.161 -1.6298  0.6756  1.4894
  522MOL0     H68879   5.015  10.099   0.160  2.5273 -0.7588  1.1248
  522MOL0     H68880   4.858  10.232   0.028 -1.0995 -1.6206  2.7566
  522MOL0     H68881   4.982  10.340  -0.018 -0.7474 -2.1334 -1.4092
  522MOL0     H68882   4.845  10.301   0.260  1.7421 -2.2405 -1.2750
  522MOL0     H68883   4.980  10.414   0.234 -0.2904  2.3407 -1.4891
  522MOL0     H68884   4.782  10.547   0.216 -2.6852  0.7494 -0.4314
  522MOL0     H68885   4.702  10.411   0.120  0.9867 -0.3375 -2.3131
  522MOL0     H68886   5.708   9.741  -0.167  0.8914  0.9702  1.1395
  522MOL0     H68887   5.822   9.558  -0.073 -1.2540  0.2456 -1.2888
  522MOL0     H68888   5.861   9.099   0.206 -1.9976 -0.1063  0.9382
  522MOL0     H68889   6.043   8.989   0.348  0.8527  0.0875  3.7547
  522MOL0     H68890   6.958   9.233   1.192  2.4408  1.2303 -0.8589
  522MOL0     H68891   7.041   9.328   0.973 -0.6729 -0.2059 -1.9534
  522MOL0     H68892   7.121   9.298   0.571 -0.5297 -0.1222  2.1409
  522MOL0     H68893   7.248   9.414   0.371 -0.0660 -0.1767 -0.7260
  522MOL0     H68894   7.312   9.823   0.220  0.3628  0.7373 -0.3726
  522MOL0     H68895   7.215   9.857   0.369 -1.2701  0.0678 -0.7071
  522MOL0     H68896   7.115   9.769   0.113  0.6413 -1.5734  1.7168
  522MOL0     H68897   7.013   9.803   0.263 -1.2090  0.2337 -1.1692
  522MOL0     H68898   7.102  10.044   0.245  0.2031  2.6500 -1.9017
  522MOL0     H68899   6.983   9.987   0.143  0.5435  1.0176  1.0329
  522MOL0     H68900   7.173   9.947  -0.037 -1.4758 -0.8811  0.3189
  522MOL0     H68901   7.144  10.109  -0.012 -0.5675  0.7748  0.9699
  522MOL0     H68902   7.550  10.073   0.111 -0.2662  1.1348 -1.1608
  522MOL0     H68903   7.056   9.773   0.468 -0.1811 -0.3683 -2.3933
  522MOL0     H68904   6.919   9.672   0.640  1.5073 -0.0215  2.5625
  523MOL0     O68905   7.866   8.661   7.095 -0.0057  0.0577 -0.7881
  523MOL0     C68906   7.809   8.688   7.205  0.3736  0.4364  1.0915
  523MOL0     O68907   7.683   8.660   7.232 -0.0051 -0.2524 -0.0028
  523MOL0     C68908   7.589   8.632   7.140  0.0922  0.4870  0.3743
  523MOL0     C68909   7.528   8.507   7.130  0.7742  0.0087  0.9483
  523MOL0     C68910   7.414   8.493   7.052  0.1382 -0.2541 -0.0792
  523MOL0     C68911   7.359   8.605   6.988  0.2263  0.7793 -0.1014
  523MOL0     O68912   7.232   8.601   6.923 -0.3902 -0.0710  0.2034
  523MOL0     C68913   7.185   8.475   6.881  0.7579 -0.7416 -0.5094
  523MOL0     C68914   7.052   8.515   6.812 -0.6976  0.4829 -0.1422
  523MOL0     C68915   7.081   8.579   6.676 -0.3403  0.6722  0.9223
  523MOL0     C68916   6.961   8.643   6.630 -0.4320 -0.8327 -0.0904
  523MOL0     C68917   6.833   8.559   6.627  0.4882 -0.7523 -0.5394
  523MOL0     C68918   6.837   8.437   6.528 -0.1909 -0.1904 -0.2511
  523MOL0     C68919   6.695   8.354   6.529 -0.1434 -0.7622  0.5504
  523MOL0     C68920   6.720   8.226   6.450  0.7777  0.0048  0.0160
  523MOL0     N68921   6.766   8.244   6.316  1.5704 -0.0696 -0.3740
  523MOL0     C68922   6.683   8.245   6.203 -0.6230 -0.0972 -0.6448
  523MOL0     C68923   6.765   8.255   6.096 -0.5708  0.1359 -0.4834
  523MOL0     C68924   6.713   8.249   5.955  0.8874 -0.1802 -0.4777
  523MOL0     C68925   6.674   8.382   5.885 -0.2604 -0.6594 -0.2083
  523MOL0     C68926   6.548   8.443   5.941 -0.4068 -0.8233 -0.2017
  523MOL0     C68927   6.529   8.584   5.888  0.2948 -0.4584  0.6222
  523MOL0     O68928   6.524   8.594   5.747  0.3619 -0.1655 -0.0304
  523MOL0     C68929   6.463   8.707   5.692 -0.1681  0.8492 -0.2689
  523MOL0     C68930   6.543   8.815   5.650  0.2793 -1.1224 -0.6517
  523MOL0     C68931   6.481   8.938   5.621 -0.7744  0.1367 -0.0172
  523MOL0     C68932   6.343   8.949   5.636  0.2058 -0.0146 -0.6187
  523MOL0     C68933   6.267   9.075   5.610  0.6373 -0.4142 -0.3130
  523MOL0     O68934   6.142   9.089   5.672  0.0269  0.3214 -0.0624
  523MOL0     C68935   6.070   9.204   5.656 -0.3756  0.4845  0.4261
  523MOL0     C68936   6.108   9.335   5.694 -0.4603 -0.1377  0.2025
  523MOL0     C68937   6.021   9.442   5.681  0.7734 -0.0816 -0.2551
  523MOL0     C68938   5.903   9.420   5.617  0.0835 -0.4222 -0.5549
  523MOL0     O68939   5.809   9.520   5.589 -0.2827  0.3331  0.4611
  523MOL0     C68940   5.814   9.642   5.667  0.3555  1.2919 -0.1760
  523MOL0     C68941   5.693   9.735   5.627 -0.8547  0.6669 -0.2173
  523MOL0     C68942   5.550   9.667   5.653 -0.8140  0.6328 -0.4920
  523MOL0     C68943   5.440   9.772   5.617  0.1347  0.0835 -0.0933
  523MOL0     C68944   5.337   9.774   5.740  0.8121  0.7225  0.8130
  523MOL0     C68945   5.227   9.875   5.688 -0.5058 -0.0273  0.0767
  523MOL0     C68946   5.161   9.934   5.808  0.0612  0.4509 -0.4441
  523MOL0     C68947   5.030   9.993   5.756  0.2811  0.1029 -0.6085
  523MOL0    Cl68948   4.905   9.876   5.708  0.3939 -0.2812  0.0458
  523MOL0     C68949   5.860   9.296   5.580  0.4046 -0.0504  0.2104
  523MOL0     C68950   5.939   9.184   5.609  0.9776 -0.1539  0.7345
  523MOL0     O68951   6.309   9.152   5.527  0.1424 -0.5182  0.2053
  523MOL0     C68952   6.270   8.843   5.673 -0.1033  0.2752 -0.5418
  523MOL0     C68953   6.326   8.722   5.705  0.0209 -0.0928 -0.2955
  523MOL0     N68954   6.896   8.241   6.141 -0.6755 -0.4804  0.4980
  523MOL0     N68955   6.897   8.235   6.267  0.4268 -0.8836 -0.3270
  523MOL0     C68956   7.426   8.728   6.997  0.4028 -0.0205 -0.5459
  523MOL0     C68957   7.535   8.745   7.082 -1.1116  0.5981  0.4344
  523MOL0     C68958   7.886   8.762   7.308 -0.7399  0.2606  0.5290
  523MOL0     C68959   7.831   8.815   7.419  0.0381 -0.1950  0.1881
  523MOL0     C68960   7.895   8.871   7.520 -0.5554 -0.3711  0.1914
  523MOL0     C68961   8.033   8.891   7.512 -0.1081 -0.5341  0.8324
  523MOL0     O68962   8.098   8.950   7.623 -0.8366  0.1503 -0.2811
  523MOL0     C68963   8.178   8.854   7.687 -0.3829 -0.3225 -0.4256
  523MOL0     C68964   8.206   8.897   7.829 -0.1773 -0.0627 -0.1870
  523MOL0     C68965   8.308   9.006   7.831  0.8552  0.3514  0.6276
  523MOL0     C68966   8.333   9.047   7.976 -0.2972 -0.0630  0.0015
  523MOL0     C68967   8.358   8.940   8.072  0.8961  0.5877 -0.1312
  523MOL0     C68968   8.386   8.859   8.161  0.1182 -0.8354 -0.4152
  523MOL0     C68969   8.097   8.850   7.392 -0.1916 -0.3055 -0.5156
  523MOL0     C68970   8.023   8.790   7.286 -0.1699  0.6756 -0.4189
  523MOL0     H68971   7.572   8.413   7.160 -0.5095 -1.1277 -0.5485
  523MOL0     H68972   7.357   8.401   7.049 -3.3645  1.6686  1.8621
  523MOL0     H68973   7.173   8.407   6.966 -1.1064  1.0513  0.7676
  523MOL0     H68974   7.241   8.418   6.806  1.0660 -0.2898 -0.6240
  523MOL0     H68975   7.002   8.590   6.873 -0.4098  0.1235  0.5440
  523MOL0     H68976   6.981   8.433   6.801 -3.3893  2.5815  0.5151
  523MOL0     H68977   7.114   8.516   6.593 -0.6204  1.1928  0.4066
  523MOL0     H68978   7.161   8.652   6.690  1.5131 -0.5559 -2.1573
  523MOL0     H68979   6.944   8.732   6.693  0.2119  0.0527 -1.1379
  523MOL0     H68980   6.983   8.693   6.536  0.1229 -1.5280 -0.3384
  523MOL0     H68981   6.751   8.617   6.583  1.5700  0.8185 -0.5486
  523MOL0     H68982   6.806   8.519   6.725 -0.6988  1.0836 -0.0712
  523MOL0     H68983   6.918   8.371   6.560  1.1535  0.6331 -1.8152
  523MOL0     H68984   6.853   8.483   6.430 -2.8976 -1.3146 -1.3190
  523MOL0     H68985   6.670   8.332   6.633  1.7530  2.2315  1.7471
  523MOL0     H68986   6.616   8.414   6.483 -0.6106 -2.5578 -1.0966
  523MOL0     H68987   6.633   8.159   6.446  0.9705 -0.4971  2.4898
  523MOL0     H68988   6.799   8.174   6.506  1.6254  1.2855  0.0456
  523MOL0     H68989   6.577   8.226   6.209 -0.6512 -0.1773 -1.3311
  523MOL0     H68990   6.624   8.186   5.958  0.8745 -0.1264  0.4611
  523MOL0     H68991   6.795   8.195   5.905 -0.1769 -1.1850 -1.1868
  523MOL0     H68992   6.654   8.358   5.780 -1.4046 -0.8346  0.0377
  523MOL0     H68993   6.755   8.454   5.905  0.3535 -1.2370 -0.5866
  523MOL0     H68994   6.460   8.386   5.909 -0.6605 -1.2322  1.1971
  523MOL0     H68995   6.560   8.446   6.049 -0.5711 -1.0056 -0.1776
  523MOL0     H68996   6.605   8.652   5.927 -0.7252  0.5500  0.8815
  523MOL0     H68997   6.431   8.615   5.924 -0.7844 -1.5170 -1.2528
  523MOL0     H68998   6.651   8.821   5.649  0.2786 -0.0430  0.7959
  523MOL0     H68999   6.541   9.022   5.588 -0.0338 -0.7897 -1.1174
  523MOL0     H69000   6.206   9.354   5.736 -0.3145 -1.1389  0.3318
  523MOL0     H69001   6.058   9.543   5.698  3.1434 -1.2729  2.4173
  523MOL0     H69002   5.909   9.695   5.664  1.8175 -1.1285  0.1601
  523MOL0     H69003   5.802   9.604   5.769  0.6316  2.4117  0.2793
  523MOL0     H69004   5.706   9.758   5.520 -1.4105 -2.6528 -1.1036
  523MOL0     H69005   5.698   9.829   5.682 -0.7592 -0.2620  1.3991
  523MOL0     H69006   5.553   9.642   5.760 -0.5261 -0.8484 -0.8116
  523MOL0     H69007   5.532   9.572   5.602  0.5288  0.3460 -0.4911
  523MOL0     H69008   5.475   9.875   5.604  0.4096  0.2308  1.6525
  523MOL0     H69009   5.389   9.748   5.523 -0.6209  1.9449 -0.1992
  523MOL0     H69010   5.369   9.810   5.838  1.0753 -0.5705  1.2160
  523MOL0     H69011   5.298   9.673   5.756 -1.5657  1.1142 -1.7002
  523MOL0     H69012   5.164   9.827   5.612  0.1946  3.5766 -3.1438
  523MOL0     H69013   5.270   9.964   5.641 -0.9425  0.3950  0.4679
  523MOL0     H69014   5.126   9.866   5.886 -0.3408  1.5470  0.3435
  523MOL0     H69015   5.225  10.009   5.854  1.6989 -1.3374  0.3159
  523MOL0     H69016   5.048  10.050   5.664 -0.8115  0.1462 -0.8167
  523MOL0     H69017   4.989  10.059   5.833  0.1753  0.9425 -1.3621
  523MOL0     H69018   5.766   9.290   5.528  0.4581 -3.5274  0.2959
  523MOL0     H69019   5.913   9.081   5.587 -1.8949  1.0405 -2.3924
  523MOL0     H69020   6.163   8.856   5.687 -0.1181  0.2272 -0.6097
  523MOL0     H69021   6.265   8.639   5.738  2.6347 -2.7311 -1.6094
  523MOL0     H69022   7.391   8.808   6.933 -2.2992 -0.6607 -0.0154
  523MOL0     H69023   7.590   8.838   7.081  0.0266 -0.0618  0.2684
  523MOL0     H69024   7.725   8.792   7.431 -0.2349  0.4315 -0.9051
  523MOL0     H69025   7.839   8.902   7.608 -1.3220 -0.3262 -0.3018
  523MOL0     H69026   8.272   8.856   7.631 -0.4466  2.1160 -0.5751
  523MOL0     H69027   8.145   8.751   7.678 -0.6560 -0.1446 -1.5573
  523MOL0     H69028   8.108   8.925   7.870 -0.2805  0.9579 -1.0876
  523MOL0     H69029   8.245   8.813   7.888  0.4862 -0.4595 -1.1600
  523MOL0     H69030   8.276   9.088   7.767 -1.1547 -1.2171 -0.4851
  523MOL0     H69031   8.405   8.969   7.797  1.7584  0.7009  2.6593
  523MOL0     H69032   8.422   9.111   7.975 -0.6902  0.6555 -3.5344
  523MOL0     H69033   8.252   9.117   8.000 -2.1541 -1.5528 -1.6368
  523MOL0     H69034   8.398   8.793   8.244  1.2925  0.2203  0.2928
  523MOL0     H69035   8.203   8.867   7.372 -0.2848  0.7713 -0.1706
  523MOL0     H69036   8.071   8.761   7.193  1.4445  0.5659  0.4227
  524MOL0     O69037   6.332   7.304   6.031 -0.8641  0.2772 -0.0454
  524MOL0     C69038   6.246   7.267   5.956  0.3382 -0.2656  0.5162
  524MOL0     O69039   6.117   7.238   5.994  0.1885  0.2748 -0.4092
  524MOL0     C69040   6.072   7.187   6.119 -0.6087 -0.7609 -0.0158
  524MOL0     C69041   5.934   7.167   6.135  0.1951  0.5790 -0.0881
  524MOL0     C69042   5.885   7.105   6.254 -1.1906  0.3851 -0.7285
  524MOL0     C69043   5.972   7.041   6.348  0.3717 -0.7752  0.4946
  524MOL0     O69044   5.921   6.992   6.464 -0.6104  0.3579 -0.1774
  524MOL0     C69045   5.836   6.874   6.446  0.1384 -0.0255 -0.1029
  524MOL0     C69046   5.720   6.868   6.538 -0.2922 -0.8869 -0.4480
  524MOL0     C69047   5.590   6.878   6.458  0.0343 -0.3045  0.7168
  524MOL0     C69048   5.466   6.845   6.536 -0.0214  0.2687 -0.2380
  524MOL0     C69049   5.342   6.835   6.455  0.1466 -0.1901 -0.2289
  524MOL0     C69050   5.305   6.967   6.386 -0.3419 -0.6421 -0.5065
  524MOL0     C69051   5.175   6.957   6.295 -0.6951 -0.4020  0.3136
  524MOL0     C69052   5.112   7.090   6.292  0.3611  0.4450  0.5614
  524MOL0     N69053   4.981   7.065   6.247  0.7542  0.7465  0.4424
  524MOL0     C69054   4.941   7.029   6.122 -0.0554 -0.2275 -0.7326
  524MOL0     C69055   4.806   7.024   6.131  0.2441  0.8000  0.4139
  524MOL0     C69056   4.718   6.983   6.011 -0.2180 -0.1636 -0.0290
  524MOL0     C69057   4.609   7.083   5.983  0.3679  0.4844  0.2911
  524MOL0     C69058   4.517   7.035   5.872  0.8661  0.2881 -1.0188
  524MOL0     C69059   4.425   7.154   5.823  0.2200 -0.1757 -0.6986
  524MOL0     O69060   4.333   7.176   5.924 -0.4963  0.3140  0.0500
  524MOL0     C69061   4.214   7.235   5.880 -0.1144 -0.5518  0.4321
  524MOL0     C69062   4.131   7.263   5.980  0.1814 -0.3994  0.4440
  524MOL0     C69063   3.999   7.302   5.964 -0.2737  0.2636  0.3860
  524MOL0     C69064   3.946   7.308   5.841 -0.3945 -0.9300  0.5464
  524MOL0     C69065   3.802   7.328   5.824 -0.4929 -0.6923  0.0724
  524MOL0     O69066   3.722   7.368   5.923  0.3033  0.3575  0.1806
  524MOL0     C69067   3.587   7.404   5.895 -1.3755 -0.2228 -0.4889
  524MOL0     C69068   3.487   7.329   5.834  0.0634 -0.4024  0.0744
  524MOL0     C69069   3.349   7.358   5.832  0.2394 -0.0525 -0.9297
  524MOL0     C69070   3.305   7.473   5.903 -0.3744  1.0305  0.2425
  524MOL0     O69071   3.174   7.511   5.896  0.5364  0.0400 -0.6507
  524MOL0     C69072   3.102   7.471   5.777  0.0462  0.0757 -1.0278
  524MOL0     C69073   2.953   7.527   5.793  0.2582  0.0744 -0.1255
  524MOL0     C69074   2.865   7.545   5.659 -0.2214 -0.0771  0.1622
  524MOL0     C69075   2.911   7.657   5.555  0.4453  0.5321  0.1289
  524MOL0     C69076   2.846   7.640   5.416  1.1771 -0.0456 -1.0543
  524MOL0     C69077   2.840   7.501   5.361  0.6472  0.2334 -0.3858
  524MOL0     C69078   2.788   7.491   5.223 -0.2700 -0.0002  0.7535
  524MOL0     C69079   2.775   7.359   5.157  0.7668  0.0632 -0.2333
  524MOL0    Cl69080   2.927   7.283   5.133  0.0826 -0.0897 -0.0771
  524MOL0     C69081   3.404   7.539   5.982  0.4006 -0.4435 -0.3852
  524MOL0     C69082   3.537   7.508   5.975 -0.1919 -0.0067  0.2670
  524MOL0     O69083   3.769   7.324   5.706  0.6830 -0.3179  0.8719
  524MOL0     C69084   4.034   7.294   5.721  1.0990  0.5981 -0.8706
  524MOL0     C69085   4.164   7.263   5.747 -0.4955  0.3368 -0.0137
  524MOL0     N69086   4.762   7.055   6.259  0.3081  1.0167 -0.8286
  524MOL0     N69087   4.865   7.074   6.338 -0.3504 -0.0507  0.3074
  524MOL0     C69088   6.107   7.043   6.323  0.5268  0.1995  0.1943
  524MOL0     C69089   6.153   7.122   6.215  0.3010  0.2823  0.5044
  524MOL0     C69090   6.271   7.268   5.809 -0.1291  0.5086 -0.8148
  524MOL0     C69091   6.172   7.224   5.718 -0.2026 -0.5298 -0.9257
  524MOL0     C69092   6.188   7.215   5.584 -0.4512 -0.4583  0.0888
  524MOL0     C69093   6.303   7.273   5.530 -1.0849  0.1987  0.4014
  524MOL0     O69094   6.332   7.270   5.391  0.5170 -0.7759 -0.3761
  524MOL0     C69095   6.427   7.176   5.348  0.2763  0.3999 -0.6239
  524MOL0     C69096   6.541   7.245   5.278  0.0920  1.0576  0.6305
  524MOL0     C69097   6.517   7.367   5.180  0.0413 -0.6361  0.1349
  524MOL0     C69098   6.639   7.398   5.094 -0.1725  0.3793  0.2150
  524MOL0     C69099   6.651   7.310   4.982  0.1892 -0.6604  0.2999
  524MOL0     C69100   6.653   7.233   4.889  0.3445 -0.3206 -0.1631
  524MOL0     C69101   6.403   7.327   5.614  0.5730  0.2741 -1.2180
  524MOL0     C69102   6.387   7.323   5.756  0.2652 -0.1904  0.0073
  524MOL0     H69103   5.870   7.205   6.056  1.5021 -0.8077 -1.9159
  524MOL0     H69104   5.781   7.078   6.271 -1.1353  0.6462  0.0457
  524MOL0     H69105   5.894   6.783   6.461  1.4997  0.9490  0.7705
  524MOL0     H69106   5.800   6.871   6.343 -2.4039 -1.8898  0.7205
  524MOL0     H69107   5.723   6.947   6.615 -2.5931 -0.5601 -0.6384
  524MOL0     H69108   5.716   6.777   6.599 -1.5084  0.1691  1.1306
  524MOL0     H69109   5.582   6.815   6.369  0.1961  2.1516 -1.1401
  524MOL0     H69110   5.598   6.977   6.412  3.4229 -1.2820 -1.1633
  524MOL0     H69111   5.481   6.748   6.584  2.9637  1.1455  0.8339
  524MOL0     H69112   5.454   6.926   6.609  0.8921  0.9531 -0.8218
  524MOL0     H69113   5.258   6.797   6.513  1.5339 -0.5026  1.6611
  524MOL0     H69114   5.355   6.761   6.375 -1.0796 -3.3407  2.2669
  524MOL0     H69115   5.392   7.000   6.328  1.5597 -0.7146  2.1062
  524MOL0     H69116   5.291   7.040   6.467 -0.1782 -0.2626 -0.8168
  524MOL0     H69117   5.199   6.920   6.195  0.7226 -1.2589  0.9485
  524MOL0     H69118   5.102   6.890   6.341 -0.9708  1.1347  2.2414
  524MOL0     H69119   5.168   7.153   6.222  0.6789 -1.1671 -0.7213
  524MOL0     H69120   5.098   7.129   6.393 -1.2272  1.9100 -0.1862
  524MOL0     H69121   4.994   7.001   6.031 -2.0719 -4.3948 -0.8835
  524MOL0     H69122   4.671   6.887   6.033 -1.3375  0.5130  0.6275
  524MOL0     H69123   4.777   6.979   5.919  1.2656  3.0825  0.6488
  524MOL0     H69124   4.650   7.175   5.940  0.6347  0.3118  0.1766
  524MOL0     H69125   4.541   7.096   6.068 -1.3724  0.7102 -1.0584
  524MOL0     H69126   4.573   6.984   5.793  0.9901 -2.8996  0.9485
  524MOL0     H69127   4.455   6.957   5.918  1.7492  0.6306  0.8476
  524MOL0     H69128   4.373   7.112   5.737  0.7443 -0.1367 -1.0427
  524MOL0     H69129   4.472   7.249   5.799 -3.0749  1.7038 -0.2280
  524MOL0     H69130   4.161   7.240   6.082 -3.5140  1.0912  2.0731
  524MOL0     H69131   3.935   7.329   6.047 -0.3909 -0.9265  0.6971
  524MOL0     H69132   3.519   7.243   5.775  0.8615  0.0895 -0.2204
  524MOL0     H69133   3.278   7.298   5.776 -1.1365  1.2685 -0.6682
  524MOL0     H69134   3.103   7.367   5.743  1.7989  0.5643 -2.6289
  524MOL0     H69135   3.139   7.523   5.689 -2.4631  1.5550 -1.3089
  524MOL0     H69136   2.955   7.629   5.834  0.7275 -0.2160  0.5799
  524MOL0     H69137   2.903   7.453   5.857 -2.4872  0.1281 -2.0273
  524MOL0     H69138   2.762   7.561   5.691 -0.4415 -0.4800 -0.3273
  524MOL0     H69139   2.866   7.450   5.604  1.6936 -0.1158  0.1869
  524MOL0     H69140   2.897   7.757   5.597  2.0369  0.1469  1.7446
  524MOL0     H69141   3.017   7.650   5.529 -0.3736  0.3730 -3.7386
  524MOL0     H69142   2.895   7.711   5.349  2.0093 -0.6499 -1.0969
  524MOL0     H69143   2.751   7.694   5.416  1.8186  1.1156 -1.2060
  524MOL0     H69144   2.771   7.435   5.415  0.8269 -0.6068 -1.1551
  524MOL0     H69145   2.937   7.452   5.374  0.2813 -0.9603 -1.9452
  524MOL0     H69146   2.693   7.547   5.219 -0.5170 -0.5095 -2.7343
  524MOL0     H69147   2.853   7.554   5.162 -2.6170  2.0863  0.2116
  524MOL0     H69148   2.747   7.369   5.052  1.5865 -1.6471 -0.6394
  524MOL0     H69149   2.698   7.307   5.216  1.1841  1.1605  1.3726
  524MOL0     H69150   3.363   7.620   6.043 -0.8962 -2.5686  1.7697
  524MOL0     H69151   3.606   7.568   6.033 -0.3852 -1.2434  1.8417
  524MOL0     H69152   3.997   7.301   5.619 -2.7227 -0.9983  0.1927
  524MOL0     H69153   4.227   7.249   5.660  1.0729 -1.4369  1.3053
  524MOL0     H69154   6.180   6.996   6.388  0.9580  1.6294  0.7780
  524MOL0     H69155   6.259   7.117   6.190  0.2779 -0.4218  0.5194
  524MOL0     H69156   6.078   7.179   5.748 -1.3000  0.4169 -2.7920
  524MOL0     H69157   6.106   7.183   5.521 -3.6169  1.3219  2.9180
  524MOL0     H69158   6.380   7.105   5.280 -1.0447 -4.0117  4.2857
  524MOL0     H69159   6.458   7.120   5.436 -2.3661  2.8643  2.1592
  524MOL0     H69160   6.607   7.288   5.354 -0.8705 -0.5853  2.4833
  524MOL0     H69161   6.599   7.171   5.223 -0.8695  3.2417 -3.7684
  524MOL0     H69162   6.504   7.457   5.241 -1.4587  0.6352 -1.9295
  524MOL0     H69163   6.423   7.364   5.125 -0.1805  3.5714 -0.0235
  524MOL0     H69164   6.626   7.500   5.055 -0.2651  0.1965 -0.2354
  524MOL0     H69165   6.735   7.408   5.145  0.1841 -1.0722 -0.1467
  524MOL0     H69166   6.656   7.172   4.801  0.5520  2.9048 -2.5599
  524MOL0     H69167   6.497   7.363   5.574  0.3380  0.1613 -1.8835
  524MOL0     H69168   6.461   7.358   5.827 -1.9584 -0.7081  2.7453
  525MOL0     O69169   6.698   4.603   8.274  0.4938  0.5258 -0.1248
  525MOL0     C69170   6.699   4.560   8.388 -0.9468 -0.1105  0.1487
  525MOL0     O69171   6.598   4.514   8.470  0.4522  0.4246 -0.4625
  525MOL0     C69172   6.474   4.475   8.432  0.7827 -0.1618 -0.2762
  525MOL0     C69173   6.428   4.431   8.306  0.1033  0.4655  0.6426
  525MOL0     C69174   6.294   4.383   8.286  0.0224  0.1279 -0.0746
  525MOL0     C69175   6.202   4.372   8.395  0.0865 -0.0554  0.3675
  525MOL0     O69176   6.077   4.319   8.361 -0.5594  0.0252 -0.3243
  525MOL0     C69177   5.978   4.340   8.463 -0.0336 -0.0991  0.9785
  525MOL0     C69178   5.849   4.327   8.384  0.7551 -0.2431  0.2448
  525MOL0     C69179   5.729   4.387   8.455 -0.0127 -0.0095 -0.4120
  525MOL0     C69180   5.598   4.338   8.388  0.8995  0.6798  1.0700
  525MOL0     C69181   5.476   4.401   8.442  0.0538  1.0275  0.1925
  525MOL0     C69182   5.349   4.336   8.382  0.2624 -0.4910  0.5675
  525MOL0     C69183   5.226   4.407   8.432 -1.3965 -0.0134 -0.7393
  525MOL0     C69184   5.106   4.395   8.342  0.4657  0.5827  0.0068
  525MOL0     N69185   5.047   4.255   8.329  0.3535  0.2783  0.2732
  525MOL0     C69186   5.103   4.163   8.246 -0.3995  0.6011  0.2633
  525MOL0     C69187   5.053   4.046   8.280  1.1137 -0.5993 -0.0704
  525MOL0     C69188   5.099   3.923   8.209 -0.1002  0.5309  0.0093
  525MOL0     C69189   5.067   3.797   8.278 -0.3928 -0.3238 -0.1200
  525MOL0     C69190   4.951   3.707   8.209  0.3035 -0.6147  0.0671
  525MOL0     C69191   4.814   3.785   8.215  0.6913 -0.0790 -0.4107
  525MOL0     O69192   4.728   3.722   8.112 -0.6198 -1.2140 -0.0431
  525MOL0     C69193   4.600   3.781   8.099  0.2436 -0.5464  0.8629
  525MOL0     C69194   4.529   3.736   7.992  0.4615  0.2397 -0.0787
  525MOL0     C69195   4.401   3.784   7.965  0.7300  0.4524  0.1204
  525MOL0     C69196   4.335   3.877   8.049 -0.6960  0.4042 -0.5712
  525MOL0     C69197   4.205   3.929   8.028  0.2145 -0.2101 -0.3653
  525MOL0     O69198   4.128   3.863   7.941  0.1054  0.1049 -0.1213
  525MOL0     C69199   4.006   3.901   7.904 -0.5314 -0.5754 -0.3231
  525MOL0     C69200   3.997   3.916   7.773  0.2840 -0.1310  0.7117
  525MOL0     C69201   3.861   3.948   7.722  0.0451  0.6566  0.6477
  525MOL0     C69202   3.750   3.967   7.797 -0.0699 -0.3909  0.3768
  525MOL0     O69203   3.634   4.005   7.738  0.0711  0.4436 -0.4224
  525MOL0     C69204   3.560   4.104   7.805 -0.0593 -1.0965 -0.0418
  525MOL0     C69205   3.421   4.121   7.750 -0.5092  0.1021  0.1425
  525MOL0     C69206   3.415   4.152   7.601 -0.1722 -0.6617 -0.6675
  525MOL0     C69207   3.274   4.175   7.555 -0.6934 -0.2285  0.5398
  525MOL0     C69208   3.277   4.192   7.403 -0.2536  0.6834 -0.6612
  525MOL0     C69209   3.135   4.209   7.351 -0.3160  0.7988 -1.1839
  525MOL0     C69210   3.139   4.229   7.198  0.1061  0.4719 -0.5015
  525MOL0     C69211   3.010   4.199   7.124 -0.5925  0.1560  0.2353
  525MOL0    Cl69212   2.878   4.274   7.218 -0.0185 -0.2615 -0.1908
  525MOL0     C69213   3.774   3.961   7.935 -0.5514 -0.5291  0.2674
  525MOL0     C69214   3.901   3.928   7.991  0.5690  0.3972  0.0276
  525MOL0     O69215   4.170   4.035   8.078 -0.0864  0.2380 -0.0838
  525MOL0     C69216   4.416   3.925   8.156  0.6533 -0.2656  0.4285
  525MOL0     C69217   4.547   3.885   8.179 -0.2100  0.6570 -0.4341
  525MOL0     N69218   4.963   4.067   8.385 -0.0193 -0.4278  0.6927
  525MOL0     N69219   4.964   4.185   8.419 -0.4033  0.2902 -0.1180
  525MOL0     C69220   6.248   4.410   8.519 -0.0115  0.5231  0.4133
  525MOL0     C69221   6.378   4.464   8.543  0.0853 -0.5258 -0.1401
  525MOL0     C69222   6.837   4.583   8.455  0.0769 -0.0415  0.7068
  525MOL0     C69223   6.944   4.637   8.380  0.2572 -0.2737  0.2678
  525MOL0     C69224   7.072   4.651   8.430 -0.2536 -0.0219  0.4433
  525MOL0     C69225   7.096   4.616   8.561 -0.0230 -0.5093 -0.8593
  525MOL0     O69226   7.214   4.651   8.628 -0.0664 -0.2206 -0.1243
  525MOL0     C69227   7.335   4.668   8.545 -0.0200  0.0194  0.0272
  525MOL0     C69228   7.460   4.703   8.632 -0.0052 -0.5945  0.9545
  525MOL0     C69229   7.590   4.730   8.545  0.5701  0.2994 -0.2611
  525MOL0     C69230   7.717   4.714   8.626  0.3024 -0.7178 -0.3765
  525MOL0     C69231   7.844   4.733   8.546 -0.6512 -0.0654 -0.4998
  525MOL0     C69232   7.944   4.746   8.473  0.3786 -0.1424  0.7967
  525MOL0     C69233   6.989   4.567   8.639 -0.3577 -0.0452  0.4018
  525MOL0     C69234   6.860   4.544   8.584 -0.1274 -0.8428 -0.2359
  525MOL0     H69235   6.507   4.430   8.233  0.5289  3.6319  0.9089
  525MOL0     H69236   6.269   4.342   8.188 -0.9651 -1.2034  0.7072
  525MOL0     H69237   5.983   4.434   8.518 -3.4094  1.3715 -0.9453
  525MOL0     H69238   5.979   4.263   8.541  3.8387 -1.4672 -0.1689
  525MOL0     H69239   5.840   4.219   8.371  0.0155  0.0288 -1.8814
  525MOL0     H69240   5.858   4.367   8.283 -0.0663 -2.1581 -0.6333
  525MOL0     H69241   5.732   4.496   8.456 -2.9122  0.1291 -0.5524
  525MOL0     H69242   5.729   4.352   8.558  0.1065 -0.5711 -0.5988
  525MOL0     H69243   5.592   4.343   8.279 -1.0419  0.4609  1.1309
  525MOL0     H69244   5.581   4.231   8.401 -4.8352  0.9266 -1.2042
  525MOL0     H69245   5.485   4.510   8.436  3.5296  0.8640  0.4057
  525MOL0     H69246   5.466   4.387   8.550 -0.9146  1.3522  0.1610
  525MOL0     H69247   5.345   4.229   8.401  1.0728 -0.8410 -1.0515
  525MOL0     H69248   5.357   4.342   8.273  2.1214  2.3301  0.7325
  525MOL0     H69249   5.206   4.361   8.529 -0.0742 -3.4388 -1.9008
  525MOL0     H69250   5.261   4.510   8.437 -2.2739  0.3987 -2.4726
  525MOL0     H69251   5.121   4.423   8.238  2.6845  0.4341  0.2346
  525MOL0     H69252   5.029   4.458   8.387 -0.5315 -0.3380 -0.3748
  525MOL0     H69253   5.179   4.181   8.171  1.4404 -1.9528  1.3647
  525MOL0     H69254   5.207   3.932   8.197 -0.2285  1.6409 -0.3760
  525MOL0     H69255   5.056   3.915   8.108  0.8725 -1.6293 -0.2823
  525MOL0     H69256   5.047   3.822   8.382  0.3429  1.5247 -0.3945
  525MOL0     H69257   5.155   3.732   8.273  0.3203  0.7115 -2.6151
  525MOL0     H69258   4.976   3.670   8.109 -2.2011 -0.2469 -0.7650
  525MOL0     H69259   4.953   3.621   8.276  2.5768 -0.9077 -0.2974
  525MOL0     H69260   4.828   3.893   8.205  0.7879  0.4083  3.4396
  525MOL0     H69261   4.763   3.768   8.310  0.0091  0.4897 -0.6670
  525MOL0     H69262   4.576   3.665   7.924  1.7668 -0.2541  1.2884
  525MOL0     H69263   4.358   3.753   7.870 -0.7342  2.7074 -0.0442
  525MOL0     H69264   4.087   3.921   7.712  2.0979 -1.7361  3.0601
  525MOL0     H69265   3.845   3.980   7.620 -3.8352  0.6218  1.0997
  525MOL0     H69266   3.602   4.202   7.781 -1.9426  0.0430  0.9942
  525MOL0     H69267   3.550   4.088   7.913  0.7440  1.0414  0.3992
  525MOL0     H69268   3.378   4.208   7.801  0.0655  0.3703  0.1834
  525MOL0     H69269   3.361   4.037   7.784  0.2700 -0.5988 -0.1962
  525MOL0     H69270   3.449   4.063   7.546  0.0853  0.3668 -2.2224
  525MOL0     H69271   3.475   4.239   7.577  0.2514 -0.9696 -0.7356
  525MOL0     H69272   3.216   4.086   7.583 -1.5067  0.6251  1.6796
  525MOL0     H69273   3.220   4.265   7.587 -2.8163  0.9355 -5.1092
  525MOL0     H69274   3.311   4.103   7.350 -2.4855  0.9165 -2.7110
  525MOL0     H69275   3.337   4.279   7.375  1.5117  0.8902  3.1702
  525MOL0     H69276   3.104   4.304   7.396  1.6523  0.4266  1.1015
  525MOL0     H69277   3.053   4.145   7.385 -1.6527  3.1654  0.2952
  525MOL0     H69278   3.166   4.331   7.167  0.2445  0.9378  1.0443
  525MOL0     H69279   3.210   4.160   7.151 -0.6869  0.3021 -1.4880
  525MOL0     H69280   2.982   4.093   7.119 -3.2331  0.7688  0.3659
  525MOL0     H69281   3.011   4.255   7.030 -1.7079  0.1767  0.2176
  525MOL0     H69282   3.692   3.983   8.003 -1.0358 -1.0154 -0.1552
  525MOL0     H69283   3.909   3.923   8.099 -0.5882  1.0336  0.1647
  525MOL0     H69284   4.371   3.999   8.222 -0.2731  0.3913 -0.8893
  525MOL0     H69285   4.613   3.936   8.249  0.9381 -0.5859 -0.5879
  525MOL0     H69286   6.186   4.390   8.606  1.5230 -3.7490  0.7622
  525MOL0     H69287   6.396   4.493   8.646 -0.4619  0.4495 -0.3086
  525MOL0     H69288   6.914   4.656   8.277 -4.0091  1.2332  1.5701
  525MOL0     H69289   7.146   4.686   8.359 -0.6832 -0.9678 -0.4910
  525MOL0     H69290   7.312   4.758   8.486 -3.7428 -0.2845  0.7350
  525MOL0     H69291   7.354   4.577   8.488  1.1654  0.1750  0.1594
  525MOL0     H69292   7.439   4.794   8.687  0.8229 -0.3439  0.8656
  525MOL0     H69293   7.475   4.616   8.696  0.0926 -1.1330  0.2173
  525MOL0     H69294   7.582   4.834   8.512  0.1792  1.2267  2.4938
  525MOL0     H69295   7.588   4.664   8.458  0.1892 -0.2756  0.1776
  525MOL0     H69296   7.730   4.785   8.707  1.8410  0.1434 -1.3374
  525MOL0     H69297   7.719   4.609   8.660  0.9447 -0.2505  1.1130
  525MOL0     H69298   8.025   4.749   8.403 -1.1851 -0.5487 -1.1224
  525MOL0     H69299   7.004   4.542   8.743 -0.1621 -0.8533  0.1899
  525MOL0     H69300   6.788   4.504   8.655 -0.6621  1.6469  0.7332
  526MOL0     O69301   2.841   2.844   3.296 -0.0833  0.3129 -0.3769
  526MOL0     C69302   2.889   2.812   3.187 -0.0995  0.3611 -0.2762
  526MOL0     O69303   2.826   2.776   3.070  0.2952  0.9920 -0.3715
  526MOL0     C69304   2.691   2.761   3.077 -0.1740  0.0618  0.7505
  526MOL0     C69305   2.636   2.649   3.142  0.2253  0.7096  0.2038
  526MOL0     C69306   2.497   2.617   3.127  0.1559  0.3713  0.1304
  526MOL0     C69307   2.415   2.692   3.052  0.0310 -0.7980 -0.3174
  526MOL0     O69308   2.282   2.652   3.039 -0.8213 -0.1016 -1.0247
  526MOL0     C69309   2.195   2.719   2.946  0.0483 -0.0104 -0.6561
  526MOL0     C69310   2.048   2.688   2.988 -0.3849  1.0759  0.1519
  526MOL0     C69311   1.946   2.781   2.937  0.5326 -0.3857  0.0444
  526MOL0     C69312   1.920   2.747   2.798 -0.2574 -0.0262  0.0905
  526MOL0     C69313   1.823   2.829   2.722  0.0985 -0.9080  0.6922
  526MOL0     C69314   1.817   2.760   2.584  0.6448 -0.8096 -0.0642
  526MOL0     C69315   1.711   2.826   2.492 -0.1772 -0.0588 -0.4521
  526MOL0     C69316   1.669   2.737   2.382 -0.4063 -0.5390  1.0957
  526MOL0     N69317   1.578   2.801   2.291  0.1493 -0.3589  0.4591
  526MOL0     C69318   1.447   2.774   2.285  1.1015 -0.2214  0.3072
  526MOL0     C69319   1.406   2.807   2.161 -0.4988  1.2009 -0.4233
  526MOL0     C69320   1.256   2.788   2.106 -0.5058 -0.2016 -0.3874
  526MOL0     C69321   1.199   2.937   2.084 -0.2022 -0.0331  0.6520
  526MOL0     C69322   1.119   2.994   2.197 -0.5081 -0.5817 -0.1509
  526MOL0     C69323   0.966   2.981   2.171  0.1987 -0.0547  0.8747
  526MOL0     O69324   0.926   2.845   2.208  0.5827 -0.0946  0.3070
  526MOL0     C69325   0.792   2.828   2.208  0.4900 -0.0893  0.7509
  526MOL0     C69326   0.698   2.922   2.173  0.1063  0.1962  0.2172
  526MOL0     C69327   0.562   2.890   2.152 -0.0020  0.8410  1.2832
  526MOL0     C69328   0.528   2.758   2.168  0.3694 -0.8917  0.1822
  526MOL0     C69329   0.385   2.728   2.124  0.3506  0.7805  0.2278
  526MOL0     O69330   0.307   2.838   2.089  0.1691  0.4411 -0.1612
  526MOL0     C69331   0.178   2.817   2.053  1.0077  1.0430  0.2050
  526MOL0     C69332   0.145   2.796   1.918  0.8486  0.4911  0.8848
  526MOL0     C69333   0.018   2.757   1.885  0.1744  0.4154  0.8585
  526MOL0     C69334  -0.085   2.755   1.969 -0.0987 -0.5103 -0.6885
  526MOL0     O69335  -0.201   2.718   1.913 -0.4568 -0.5917  0.1532
  526MOL0     C69336  -0.315   2.715   1.998 -0.1792 -0.2074  0.5111
  526MOL0     C69337  -0.433   2.653   1.929 -0.6610  0.0250 -0.0120
  526MOL0     C69338  -0.554   2.683   2.017  0.0017  0.6253 -0.2628
  526MOL0     C69339  -0.683   2.629   1.964 -0.4956 -0.1913  0.5201
  526MOL0     C69340  -0.727   2.497   2.023  0.4968  0.4502 -0.1179
  526MOL0     C69341  -0.855   2.433   1.953  0.0702 -0.3158 -0.6059
  526MOL0     C69342  -0.949   2.537   1.899 -0.4358 -0.1487 -1.4905
  526MOL0     C69343  -1.077   2.467   1.886 -0.3253  0.3185 -0.7863
  526MOL0    Cl69344  -1.149   2.459   2.041 -0.2459  0.1600 -0.5655
  526MOL0     C69345  -0.057   2.774   2.108 -0.1600 -0.0594 -0.2086
  526MOL0     C69346   0.077   2.799   2.149  1.0687 -0.2265  0.3156
  526MOL0     O69347   0.350   2.608   2.132  0.3088  0.2499  0.8013
  526MOL0     C69348   0.614   2.662   2.211  0.7555  0.0357 -0.2741
  526MOL0     C69349   0.745   2.697   2.238  0.0063 -0.3622 -0.6683
  526MOL0     N69350   1.520   2.854   2.085 -0.7044 -0.0999  0.3095
  526MOL0     N69351   1.617   2.828   2.163 -0.6379  0.1363 -0.2029
  526MOL0     C69352   2.470   2.810   2.992 -0.3579  0.0112 -0.1637
  526MOL0     C69353   2.605   2.840   3.000  0.1289  0.6231  0.1503
  526MOL0     C69354   3.040   2.807   3.176 -0.3972 -0.1704  1.6754
  526MOL0     C69355   3.094   2.731   3.068  0.2019  0.6104 -0.7170
  526MOL0     C69356   3.234   2.734   3.047  0.9400  0.9055 -0.3930
  526MOL0     C69357   3.317   2.816   3.127 -0.0840  0.3351  0.5268
  526MOL0     O69358   3.448   2.823   3.097  0.1866 -0.1366 -0.5344
  526MOL0     C69359   3.514   2.948   3.116  0.2583 -0.0168 -0.4304
  526MOL0     C69360   3.608   2.938   3.235  0.2002 -0.1543 -0.0228
  526MOL0     C69361   3.729   2.856   3.186 -0.0159  0.2224  0.5475
  526MOL0     C69362   3.830   2.824   3.297 -0.0501  0.0279 -0.1376
  526MOL0     C69363   3.909   2.947   3.330 -0.7087 -0.0314  0.3473
  526MOL0     C69364   3.988   3.038   3.346 -0.3363  1.3149 -0.6400
  526MOL0     C69365   3.261   2.889   3.232 -0.5762 -0.3809 -0.2464
  526MOL0     C69366   3.123   2.891   3.256 -0.8685  0.3698 -0.1062
  526MOL0     H69367   2.699   2.582   3.200  0.7630 -0.3206 -1.4941
  526MOL0     H69368   2.462   2.535   3.189 -1.2748  1.0847  0.3000
  526MOL0     H69369   2.203   2.673   2.847 -0.1717 -4.1138  1.0410
  526MOL0     H69370   2.212   2.827   2.954  2.0035 -0.4366  2.4508
  526MOL0     H69371   2.037   2.705   3.096 -2.0834 -1.6345  0.4927
  526MOL0     H69372   2.020   2.586   2.961  2.5160  0.3959 -0.7321
  526MOL0     H69373   1.986   2.882   2.944  1.6279 -0.9357  2.4752
  526MOL0     H69374   1.848   2.778   2.985  0.2031 -1.7769 -0.6558
  526MOL0     H69375   2.014   2.771   2.747 -0.7859  3.4573  0.5128
  526MOL0     H69376   1.900   2.639   2.790  0.7661 -0.2100 -0.0477
  526MOL0     H69377   1.855   2.932   2.704  1.5504 -1.3418  0.5933
  526MOL0     H69378   1.725   2.824   2.769  0.9445  0.7779  2.7741
  526MOL0     H69379   1.784   2.657   2.597 -1.0253 -0.1397  1.5302
  526MOL0     H69380   1.917   2.766   2.540 -0.1781 -0.5141 -1.9779
  526MOL0     H69381   1.626   2.860   2.553 -0.2644  0.7159 -0.9875
  526MOL0     H69382   1.749   2.918   2.447 -2.0108  0.1268 -1.7165
  526MOL0     H69383   1.628   2.649   2.433  1.8548 -2.2493  0.1729
  526MOL0     H69384   1.761   2.713   2.327 -2.5032  0.5835 -3.3188
  526MOL0     H69385   1.385   2.729   2.362  1.6046 -1.5432 -0.0251
  526MOL0     H69386   1.193   2.724   2.168 -1.0464 -1.0740 -1.8021
  526MOL0     H69387   1.268   2.750   2.004  2.9795  1.9453 -0.9764
  526MOL0     H69388   1.142   2.942   1.991  0.3026 -1.1306  0.2672
  526MOL0     H69389   1.282   3.008   2.075 -0.2653 -0.1892 -2.2723
  526MOL0     H69390   1.153   2.953   2.293  0.2595  3.7639  1.6896
  526MOL0     H69391   1.144   3.100   2.201  1.8024 -1.0992  0.2331
  526MOL0     H69392   0.943   3.003   2.067  0.5950  2.2003  1.2111
  526MOL0     H69393   0.909   3.045   2.240  0.7312  0.9465  0.4056
  526MOL0     H69394   0.726   3.024   2.146  0.0768  0.6287  1.7514
  526MOL0     H69395   0.498   2.969   2.114 -0.2791 -0.6623 -1.7299
  526MOL0     H69396   0.225   2.812   1.847  0.8816 -2.9412 -0.0222
  526MOL0     H69397  -0.002   2.741   1.780 -0.0013 -1.2555  1.1178
  526MOL0     H69398  -0.345   2.814   2.035 -3.0568 -1.0872  0.8118
  526MOL0     H69399  -0.284   2.654   2.084  1.3075  0.8134  0.7241
  526MOL0     H69400  -0.414   2.546   1.923 -0.5775 -0.1658  2.4648
  526MOL0     H69401  -0.441   2.696   1.829  2.0607 -1.4931 -0.9700
  526MOL0     H69402  -0.565   2.791   2.028 -0.4682  0.4815  0.8550
  526MOL0     H69403  -0.543   2.638   2.116 -0.3308  0.4737 -0.2933
  526MOL0     H69404  -0.760   2.704   1.986  0.9527  2.2225 -2.0482
  526MOL0     H69405  -0.678   2.627   1.855 -1.7639  2.9183  0.2778
  526MOL0     H69406  -0.746   2.514   2.130 -0.8839  3.0966 -0.6920
  526MOL0     H69407  -0.645   2.425   2.019 -0.6564 -1.0144  0.9996
  526MOL0     H69408  -0.906   2.377   2.032 -1.4896  0.2140 -1.1996
  526MOL0     H69409  -0.823   2.361   1.877  3.0978 -3.2558  3.0694
  526MOL0     H69410  -0.967   2.619   1.970  1.7729 -1.1279  0.2958
  526MOL0     H69411  -0.893   2.577   1.814  1.5307 -1.0903 -0.6899
  526MOL0     H69412  -1.063   2.369   1.839  0.2368  1.2632 -2.7192
  526MOL0     H69413  -1.151   2.518   1.823 -2.2015  0.1225  1.1537
  526MOL0     H69414  -0.127   2.756   2.188 -1.6747  0.9046 -1.2581
  526MOL0     H69415   0.104   2.811   2.253 -0.5187 -2.7166  1.1072
  526MOL0     H69416   0.579   2.563   2.240  0.3404  0.0200 -0.8124
  526MOL0     H69417   0.823   2.624   2.256  0.0422 -0.6651 -1.9525
  526MOL0     H69418   2.404   2.870   2.930 -2.1103 -1.8489 -0.2225
  526MOL0     H69419   2.661   2.915   2.945  0.0720  1.3547  1.0587
  526MOL0     H69420   3.030   2.665   3.011  2.6687  0.1749 -3.1991
  526MOL0     H69421   3.283   2.676   2.969 -0.3295  1.6599 -1.7999
  526MOL0     H69422   3.442   3.031   3.118  0.0929 -0.0556 -2.5652
  526MOL0     H69423   3.575   2.977   3.030  1.4161  3.1439  1.2765
  526MOL0     H69424   3.648   3.035   3.267  0.2812  0.0636 -0.7841
  526MOL0     H69425   3.552   2.892   3.317 -1.0080  2.2123  0.5611
  526MOL0     H69426   3.776   2.919   3.110 -2.4779  1.0669 -0.3625
  526MOL0     H69427   3.689   2.767   3.136 -0.9082  0.5122  0.7342
  526MOL0     H69428   3.785   2.778   3.386  0.0171  0.4107  0.0963
  526MOL0     H69429   3.907   2.762   3.251 -2.0108 -0.3742 -3.2195
  526MOL0     H69430   4.054   3.121   3.363 -1.2734  1.7719  0.9232
  526MOL0     H69431   3.331   2.952   3.284  0.7467 -2.1627  0.2082
  526MOL0     H69432   3.088   2.948   3.342 -1.2323  0.7134 -0.4755
  527MOL0     O69433  11.215   1.610  10.546 -0.5986 -0.0291  0.1674
  527MOL0     C69434  11.261   1.586  10.656  0.2689  0.2839  0.2533
  527MOL0     O69435  11.184   1.593  10.767  0.4589  0.4666 -0.0464
  527MOL0     C69436  11.044   1.615  10.762 -0.2521  0.5843 -0.0905
  527MOL0     C69437  10.979   1.716  10.698  0.2850 -0.8111 -0.7302
  527MOL0     C69438  10.839   1.714  10.700  1.2472 -0.5537  0.1635
  527MOL0     C69439  10.764   1.634  10.789  0.6554  0.0861 -0.2010
  527MOL0     O69440  10.630   1.640  10.782 -0.7324  0.2123  0.2719
  527MOL0     C69441  10.542   1.588  10.885  1.0748 -0.8863  0.1659
  527MOL0     C69442  10.410   1.668  10.870  0.6691 -0.1378  0.0716
  527MOL0     C69443  10.294   1.597  10.939 -1.0007  0.0805 -0.2257
  527MOL0     C69444  10.165   1.660  10.888  0.3259 -0.2497 -0.6264
  527MOL0     C69445  10.052   1.582  10.951  0.7389 -0.3128 -0.0754
  527MOL0     C69446   9.920   1.634  10.885  1.0831  0.7728  0.0840
  527MOL0     C69447   9.808   1.547  10.949 -0.6423 -0.5245 -0.8046
  527MOL0     C69448   9.678   1.618  10.905  0.8170 -0.1329  0.1812
  527MOL0     N69449   9.555   1.525  10.902  0.0062 -0.5034  0.0346
  527MOL0     C69450   9.501   1.482  11.021 -0.6136  0.1729 -0.1300
  527MOL0     C69451   9.404   1.387  10.985 -0.4837 -0.7819  0.3836
  527MOL0     C69452   9.329   1.303  11.066  0.5913  0.8896 -0.3364
  527MOL0     C69453   9.186   1.280  11.036  0.5613  0.9782  0.1234
  527MOL0     C69454   9.107   1.415  11.049 -0.4686 -1.3459 -0.1259
  527MOL0     C69455   8.958   1.395  11.002 -0.3355 -0.5322 -0.1388
  527MOL0     O69456   8.883   1.308  11.092  0.0655 -0.8106 -0.0960
  527MOL0     C69457   8.749   1.334  11.122 -0.8163  0.0484  0.3089
  527MOL0     C69458   8.704   1.273  11.240  0.9946  0.4400  0.2972
  527MOL0     C69459   8.565   1.278  11.271 -0.5587 -0.5041 -0.6603
  527MOL0     C69460   8.481   1.359  11.199  0.0548  0.0839  0.0698
  527MOL0     C69461   8.335   1.376  11.234 -0.3319 -0.3976  0.6319
  527MOL0     O69462   8.289   1.328  11.355 -0.5150 -0.0981 -0.1753
  527MOL0     C69463   8.159   1.334  11.396  0.0924  0.3997 -0.1620
  527MOL0     C69464   8.108   1.440  11.473 -0.4981 -0.6626 -0.3898
  527MOL0     C69465   7.977   1.439  11.506 -0.1323  0.5810 -0.6890
  527MOL0     C69466   7.886   1.341  11.461 -0.1319 -0.2505 -0.2434
  527MOL0     O69467   7.755   1.372  11.500 -0.1818 -0.1349  0.2377
  527MOL0     C69468   7.649   1.293  11.442 -0.2335  0.3829 -0.6020
  527MOL0     C69469   7.523   1.371  11.484 -0.2299  0.2457  0.2978
  527MOL0     C69470   7.402   1.306  11.422 -0.2415 -0.3303 -0.0971
  527MOL0     C69471   7.279   1.395  11.421  0.1474  0.0446  0.8707
  527MOL0     C69472   7.161   1.325  11.355  0.0148 -0.5088 -0.8512
  527MOL0     C69473   7.048   1.434  11.338 -0.3178  0.1749 -0.5794
  527MOL0     C69474   6.917   1.367  11.295 -0.1117  1.4899 -0.0178
  527MOL0     C69475   6.845   1.472  11.221  0.1456 -0.3624  0.2892
  527MOL0    Cl69476   6.676   1.424  11.165  0.5706  0.3729  0.1104
  527MOL0     C69477   7.929   1.242  11.376 -0.5085  0.2389  1.1691
  527MOL0     C69478   8.066   1.237  11.344 -0.3790  0.9134 -0.9296
  527MOL0     O69479   8.258   1.417  11.141 -0.2666  0.0596 -0.4823
  527MOL0     C69480   8.528   1.419  11.078 -0.6924 -0.2784  0.1445
  527MOL0     C69481   8.659   1.410  11.038 -1.3242  0.0955 -0.6820
  527MOL0     N69482   9.393   1.400  10.851 -0.9316 -0.4906 -0.4191
  527MOL0     N69483   9.488   1.469  10.798  0.1479  0.4954 -0.5463
  527MOL0     C69484  10.833   1.533  10.855 -0.0795 -0.3879 -0.0578
  527MOL0     C69485  10.974   1.526  10.845 -0.4627 -0.1615 -0.4354
  527MOL0     C69486  11.400   1.538  10.671  0.0755  0.8767 -0.2377
  527MOL0     C69487  11.470   1.510  10.547  0.2442  0.2078 -0.1298
  527MOL0     C69488  11.598   1.456  10.559 -0.2398  0.6015  0.2994
  527MOL0     C69489  11.667   1.447  10.689 -1.1731  0.0606 -0.0390
  527MOL0     O69490  11.798   1.394  10.687  0.9925  0.0601  0.3202
  527MOL0     C69491  11.861   1.353  10.566  0.2029 -0.5167  0.0974
  527MOL0     C69492  12.010   1.326  10.593 -0.7438  0.2702  0.2825
  527MOL0     C69493  12.092   1.457  10.621 -0.0688 -0.4069 -0.8124
  527MOL0     C69494  12.101   1.469  10.774  0.4582 -0.1527  0.2013
  527MOL0     C69495  12.185   1.583  10.821 -0.2909 -0.2943  1.2353
  527MOL0     C69496  12.248   1.672  10.872  0.5197 -0.4221  0.0027
  527MOL0     C69497  11.606   1.496  10.796  0.3825  0.0984  0.1330
  527MOL0     C69498  11.475   1.535  10.790  0.5054 -1.1211  0.0527
  527MOL0     H69499  11.038   1.779  10.633  2.5275  1.6451  3.2781
  527MOL0     H69500  10.796   1.788  10.633  0.0001 -0.5680  0.9086
  527MOL0     H69501  10.582   1.615  10.983 -0.3167 -1.5118  0.9482
  527MOL0     H69502  10.522   1.480  10.889 -1.5943 -0.5466 -1.3273
  527MOL0     H69503  10.382   1.668  10.764  2.1512  0.6754 -0.3493
  527MOL0     H69504  10.420   1.770  10.910  2.6914 -0.4258  0.4182
  527MOL0     H69505  10.303   1.610  11.048 -1.3199 -1.8228  0.0694
  527MOL0     H69506  10.307   1.491  10.917  2.0913 -0.0192  1.5500
  527MOL0     H69507  10.167   1.760  10.932 -2.1735 -0.3030 -0.2215
  527MOL0     H69508  10.160   1.670  10.779  0.8168  0.1600 -0.6163
  527MOL0     H69509  10.059   1.599  11.059 -1.0739  4.3544 -0.4674
  527MOL0     H69510  10.062   1.475  10.927 -2.7078 -1.0764  1.2661
  527MOL0     H69511   9.935   1.617  10.778 -0.3090  2.2131 -0.3917
  527MOL0     H69512   9.914   1.743  10.895  3.7146  1.0118 -0.4495
  527MOL0     H69513   9.812   1.440  10.926  1.8706 -0.5796 -0.3838
  527MOL0     H69514   9.817   1.558  11.058  0.3624 -0.5565 -0.8772
  527MOL0     H69515   9.696   1.666  10.808  0.2417  0.8338  0.5474
  527MOL0     H69516   9.651   1.697  10.975  1.6368  0.1184  0.2242
  527MOL0     H69517   9.535   1.505  11.121  0.0563 -0.0385 -0.2990
  527MOL0     H69518   9.334   1.339  11.169  0.8299  3.3078 -1.1178
  527MOL0     H69519   9.374   1.204  11.057 -0.2607  0.4260  0.3834
  527MOL0     H69520   9.146   1.210  11.111 -3.6769  2.3169 -0.6633
  527MOL0     H69521   9.172   1.237  10.937  1.4331  2.2698 -0.5842
  527MOL0     H69522   9.114   1.443  11.154  1.4177 -1.7731 -0.1040
  527MOL0     H69523   9.159   1.492  10.992  0.9389 -2.8496 -0.9760
  527MOL0     H69524   8.966   1.345  10.905 -0.4941  1.3089 -1.1533
  527MOL0     H69525   8.909   1.490  10.978  1.9865  1.4349  2.1996
  527MOL0     H69526   8.773   1.231  11.312 -0.2958  1.5823  2.3026
  527MOL0     H69527   8.530   1.225  11.359 -3.4430  1.1763 -0.6870
  527MOL0     H69528   8.174   1.520  11.502 -2.9149  2.8144 -3.4724
  527MOL0     H69529   7.939   1.513  11.575  0.6278  0.2563  0.0926
  527MOL0     H69530   7.645   1.195  11.489 -1.7059  1.4421  1.7029
  527MOL0     H69531   7.664   1.282  11.334  1.4380  1.9058 -0.5637
  527MOL0     H69532   7.535   1.474  11.451  1.9727 -0.8992 -2.9664
  527MOL0     H69533   7.508   1.370  11.592 -2.8993 -1.9124  0.0296
  527MOL0     H69534   7.377   1.217  11.480  0.4106 -0.3358  0.1792
  527MOL0     H69535   7.421   1.280  11.318 -1.4865  0.6660 -0.6005
  527MOL0     H69536   7.250   1.426  11.522 -4.4061 -0.6702 -0.0165
  527MOL0     H69537   7.298   1.484  11.360 -3.6405  1.2197  1.1345
  527MOL0     H69538   7.123   1.240  11.412 -0.1694  2.2769  3.6269
  527MOL0     H69539   7.195   1.288  11.258  4.2080 -3.8339  1.5772
  527MOL0     H69540   7.075   1.521  11.277 -0.6657  0.8512  0.2163
  527MOL0     H69541   7.025   1.473  11.437 -0.6133 -0.2570 -0.4736
  527MOL0     H69542   6.925   1.286  11.222  1.3317 -0.1648  1.8421
  527MOL0     H69543   6.857   1.324  11.376 -2.4252  1.7387 -1.5222
  527MOL0     H69544   6.909   1.489  11.134  0.5695 -3.5664 -0.1459
  527MOL0     H69545   6.846   1.562  11.283  3.3978  1.4209 -2.0612
  527MOL0     H69546   7.862   1.162  11.346 -2.9952  2.9735 -1.3068
  527MOL0     H69547   8.098   1.149  11.289  0.5863 -1.1020  2.5414
  527MOL0     H69548   8.452   1.467  11.017  0.8475  0.8571 -0.9672
  527MOL0     H69549   8.683   1.464  10.947 -3.9700 -0.0404 -1.5603
  527MOL0     H69550  10.773   1.464  10.914 -4.5920  2.6780 -0.5020
  527MOL0     H69551  11.026   1.448  10.900 -2.5188 -0.4535  1.2380
  527MOL0     H69552  11.427   1.526  10.449  0.5118  4.0769  0.2521
  527MOL0     H69553  11.649   1.417  10.471 -3.6037 -0.5978 -1.3151
  527MOL0     H69554  11.856   1.439  10.499  0.6592 -0.4222  0.1794
  527MOL0     H69555  11.819   1.259  10.528  0.0319 -0.5143  0.2773
  527MOL0     H69556  12.027   1.250  10.670  0.1176 -1.8179 -1.8391
  527MOL0     H69557  12.037   1.271  10.503 -2.8325  2.6667 -1.9894
  527MOL0     H69558  12.049   1.545  10.572  2.6312  1.4244 -0.0936
  527MOL0     H69559  12.194   1.448  10.583  1.3498  1.0176  2.2753
  527MOL0     H69560  12.002   1.480  10.818 -1.4680 -4.1472 -2.4108
  527MOL0     H69561  12.146   1.374  10.804 -0.8545 -1.7200 -2.3929
  527MOL0     H69562  12.317   1.744  10.910  0.2789  0.2605 -0.8325
  527MOL0     H69563  11.648   1.492  10.896  1.0910 -0.5292 -0.1744
  527MOL0     H69564  11.423   1.570  10.879  2.1598  1.7211  0.0111
  528MOL0     O69565   6.235   7.208   4.284  0.0736 -0.2809 -0.0577
  528MOL0     C69566   6.233   7.194   4.407  1.1983  0.2026  0.8339
  528MOL0     O69567   6.143   7.249   4.492 -0.0298 -0.6990  0.3785
  528MOL0     C69568   6.042   7.339   4.443  0.1244 -0.2334  0.3840
  528MOL0     C69569   6.023   7.470   4.494 -0.4623 -0.1895  0.1328
  528MOL0     C69570   5.926   7.556   4.437 -0.3070 -0.1257  0.0506
  528MOL0     C69571   5.850   7.509   4.324  0.1197 -0.2481  0.2134
  528MOL0     O69572   5.754   7.592   4.286  0.6074 -0.3422 -0.6252
  528MOL0     C69573   5.621   7.544   4.248  0.4433  0.5976  0.4414
  528MOL0     C69574   5.550   7.659   4.179  0.0819  0.0680 -0.1104
  528MOL0     C69575   5.413   7.624   4.131 -0.0941  0.3815  0.2631
  528MOL0     C69576   5.409   7.541   4.001 -0.9202 -0.5119 -1.0780
  528MOL0     C69577   5.283   7.555   3.917  0.6298  0.5410 -0.2443
  528MOL0     C69578   5.293   7.431   3.820  0.9835  0.1154  0.4098
  528MOL0     C69579   5.180   7.442   3.711 -0.2611 -0.2271  0.2189
  528MOL0     C69580   5.169   7.320   3.631  0.5394  0.4793  0.6844
  528MOL0     N69581   5.291   7.297   3.552  0.0013 -0.2932 -0.4506
  528MOL0     C69582   5.308   7.351   3.434  0.0881 -0.0474  0.4334
  528MOL0     C69583   5.426   7.300   3.395 -0.4202  0.1785  0.5345
  528MOL0     C69584   5.474   7.327   3.252  0.2567  0.3751 -0.1311
  528MOL0     C69585   5.398   7.230   3.155 -0.1697 -0.0403  0.4928
  528MOL0     C69586   5.454   7.087   3.144 -0.5511 -0.2068  0.5855
  528MOL0     C69587   5.414   6.989   3.252  0.2682 -0.5338 -0.4094
  528MOL0     O69588   5.435   6.849   3.210 -0.5388  0.3235  0.4111
  528MOL0     C69589   5.560   6.813   3.167 -0.1880 -0.5362  0.0078
  528MOL0     C69590   5.681   6.872   3.203 -0.3378  0.1048  0.2136
  528MOL0     C69591   5.805   6.817   3.157 -0.3291  0.0476  0.3952
  528MOL0     C69592   5.804   6.708   3.065 -0.4395 -0.0100  1.0731
  528MOL0     C69593   5.929   6.650   3.008  0.1811 -0.8157 -0.5431
  528MOL0     O69594   5.929   6.547   2.918  0.3190 -0.1470 -0.8381
  528MOL0     C69595   6.054   6.513   2.875 -0.1222  0.4871  0.3410
  528MOL0     C69596   6.104   6.573   2.763 -1.6125  1.0674  0.8414
  528MOL0     C69597   6.242   6.539   2.729 -0.6439  0.0296  0.0294
  528MOL0     C69598   6.316   6.446   2.808 -0.0432 -0.6760 -0.5309
  528MOL0     O69599   6.443   6.419   2.759 -0.4789  0.5319 -0.0287
  528MOL0     C69600   6.546   6.410   2.857  0.2689  0.1962 -0.0282
  528MOL0     C69601   6.686   6.386   2.802 -0.5155 -0.1615  0.4332
  528MOL0     C69602   6.724   6.447   2.671  1.0785  0.8213 -0.7010
  528MOL0     C69603   6.862   6.435   2.629 -0.6978  0.6367  0.4340
  528MOL0     C69604   6.875   6.492   2.492  0.1493 -0.3944  0.8972
  528MOL0     C69605   7.018   6.469   2.450 -0.8519 -0.6166 -0.1926
  528MOL0     C69606   7.036   6.535   2.313  1.0922 -0.3523 -1.0429
  528MOL0     C69607   7.173   6.492   2.249  0.1264  0.2899  0.0265
  528MOL0    Cl69608   7.290   6.606   2.303 -0.2501 -0.5975  0.1113
  528MOL0     C69609   6.258   6.380   2.918 -0.9166 -0.5621  0.2775
  528MOL0     C69610   6.131   6.418   2.950  0.6912  0.0682 -0.6929
  528MOL0     O69611   6.030   6.706   3.040  1.1570 -0.3215  0.5357
  528MOL0     C69612   5.676   6.653   3.027  0.9971  0.4425 -0.3493
  528MOL0     C69613   5.561   6.706   3.077  0.5634  0.1197 -0.4523
  528MOL0     N69614   5.488   7.229   3.493  0.5862 -0.0844 -0.7892
  528MOL0     N69615   5.399   7.217   3.590  0.0071  0.4977  0.1092
  528MOL0     C69616   5.870   7.380   4.264 -0.3125 -0.1045 -0.2203
  528MOL0     C69617   5.968   7.295   4.324  0.1971 -0.8155 -0.2439
  528MOL0     C69618   6.347   7.115   4.469 -0.6195  0.4170  0.4375
  528MOL0     C69619   6.432   7.038   4.388  0.2202 -0.0473 -0.8512
  528MOL0     C69620   6.530   6.958   4.451 -0.6766  0.0200 -0.5348
  528MOL0     C69621   6.544   6.951   4.593 -1.0429 -0.6899  0.3230
  528MOL0     O69622   6.645   6.890   4.663  0.0455  0.1137  0.0387
  528MOL0     C69623   6.745   6.824   4.582 -0.7630  0.4066 -0.8017
  528MOL0     C69624   6.705   6.680   4.535  0.0021  1.1192 -1.0335
  528MOL0     C69625   6.825   6.605   4.486 -1.4640  0.6098  0.4158
  528MOL0     C69626   6.809   6.453   4.504  0.2673 -0.0740  0.0114
  528MOL0     C69627   6.935   6.391   4.468 -0.4618 -0.1703  0.2854
  528MOL0     C69628   7.039   6.334   4.438  0.5430  0.8875  0.3268
  528MOL0     C69629   6.463   7.036   4.662  0.4848  0.1230  0.4733
  528MOL0     C69630   6.365   7.112   4.606  1.0063  0.5217  0.5800
  528MOL0     H69631   6.066   7.497   4.590  0.5289 -1.5891  0.1198
  528MOL0     H69632   5.906   7.653   4.482 -1.1058  0.8524 -2.2770
  528MOL0     H69633   5.577   7.511   4.343 -0.0690  0.5539  0.1924
  528MOL0     H69634   5.626   7.462   4.176 -0.4821 -0.3480  1.4123
  528MOL0     H69635   5.608   7.689   4.091  1.8066  3.2727  1.9119
  528MOL0     H69636   5.533   7.745   4.244 -1.0301 -0.2681  0.0793
  528MOL0     H69637   5.364   7.719   4.107  2.2167  1.4071 -0.5895
  528MOL0     H69638   5.354   7.570   4.207 -0.2116 -0.0149 -0.1023
  528MOL0     H69639   5.500   7.565   3.945  0.7409  1.2242  2.0612
  528MOL0     H69640   5.416   7.440   4.042 -1.5020 -1.0752 -2.3111
  528MOL0     H69641   5.288   7.652   3.866  0.8675  0.8561  0.3717
  528MOL0     H69642   5.198   7.544   3.986  0.2278  2.4941 -0.3555
  528MOL0     H69643   5.277   7.340   3.879 -2.6015  0.6858  0.5447
  528MOL0     H69644   5.392   7.429   3.774  2.0529 -1.7038  2.5984
  528MOL0     H69645   5.085   7.469   3.758 -0.8289  0.4025 -1.2494
  528MOL0     H69646   5.201   7.524   3.642 -0.3059 -2.2237 -2.2985
  528MOL0     H69647   5.083   7.330   3.564 -0.6177 -1.5237  1.7708
  528MOL0     H69648   5.156   7.248   3.712  4.7043  0.1242  1.2586
  528MOL0     H69649   5.242   7.419   3.382 -0.6209 -1.7329 -0.9649
  528MOL0     H69650   5.582   7.308   3.248  0.7078  2.4807  0.7084
  528MOL0     H69651   5.465   7.434   3.233  2.8989  0.9470  1.2987
  528MOL0     H69652   5.392   7.267   3.052  2.9761 -2.5662 -0.7690
  528MOL0     H69653   5.291   7.220   3.176 -0.1539  1.5920  1.5698
  528MOL0     H69654   5.415   7.050   3.049 -1.8949 -2.8036  2.0018
  528MOL0     H69655   5.560   7.099   3.123 -0.7510  1.3230  0.3340
  528MOL0     H69656   5.310   7.002   3.282  1.0143 -0.3343  2.3760
  528MOL0     H69657   5.467   7.011   3.345 -0.2830 -0.6041 -0.0740
  528MOL0     H69658   5.682   6.967   3.255 -1.9524  1.1352 -1.4922
  528MOL0     H69659   5.897   6.870   3.176 -1.0957  2.2001 -1.4048
  528MOL0     H69660   6.056   6.644   2.696 -0.8779 -0.2104 -1.1374
  528MOL0     H69661   6.296   6.585   2.647 -1.4715  0.9749 -0.0102
  528MOL0     H69662   6.515   6.329   2.923 -1.5003  0.4903 -0.4664
  528MOL0     H69663   6.538   6.507   2.907 -0.7284 -0.9606  2.1774
  528MOL0     H69664   6.693   6.277   2.794 -1.6364 -0.1797 -0.5366
  528MOL0     H69665   6.765   6.422   2.869  1.1425 -0.3686 -1.3368
  528MOL0     H69666   6.699   6.553   2.675  2.0238  1.0369 -0.1731
  528MOL0     H69667   6.660   6.399   2.596 -1.0805  2.3441  0.0606
  528MOL0     H69668   6.927   6.486   2.702 -1.3373 -2.0008  3.0348
  528MOL0     H69669   6.889   6.329   2.626 -3.5610 -0.1729  0.6260
  528MOL0     H69670   6.846   6.597   2.497 -2.2021 -0.9139 -0.4984
  528MOL0     H69671   6.811   6.438   2.422  0.0607 -0.9659  1.4104
  528MOL0     H69672   7.050   6.364   2.447  2.0841  0.2263 -1.4927
  528MOL0     H69673   7.086   6.523   2.516 -0.2563 -0.1730 -1.1557
  528MOL0     H69674   6.955   6.493   2.252 -0.9382 -0.7877  1.7430
  528MOL0     H69675   7.036   6.643   2.330 -0.0343 -0.4137 -0.5388
  528MOL0     H69676   7.173   6.498   2.139  1.1505 -1.6167 -0.1148
  528MOL0     H69677   7.201   6.391   2.276 -0.3452 -0.1585 -1.0739
  528MOL0     H69678   6.308   6.305   2.980 -0.1060 -0.9988 -0.8789
  528MOL0     H69679   6.079   6.372   3.033  2.7057 -1.1927 -0.0603
  528MOL0     H69680   5.650   6.583   2.948 -3.6037  0.0711  1.1886
  528MOL0     H69681   5.470   6.659   3.044  1.5678 -1.0532 -1.6632
  528MOL0     H69682   5.816   7.341   4.179  0.6352  0.7482 -1.2605
  528MOL0     H69683   5.996   7.207   4.266 -2.4752 -1.8217 -0.1406
  528MOL0     H69684   6.417   7.028   4.281  2.6383 -2.8528 -1.0778
  528MOL0     H69685   6.588   6.896   4.383  0.4269  1.2195 -0.7309
  528MOL0     H69686   6.835   6.818   4.643 -1.2730  0.6199 -0.0129
  528MOL0     H69687   6.783   6.885   4.499 -0.1525  1.6925  0.3836
  528MOL0     H69688   6.659   6.619   4.614  0.0280  1.9405 -0.3706
  528MOL0     H69689   6.635   6.700   4.453 -3.1584 -2.8869  0.3495
  528MOL0     H69690   6.922   6.635   4.527  0.3376 -0.8823 -2.4341
  528MOL0     H69691   6.831   6.631   4.380 -2.9055  5.0293  1.1926
  528MOL0     H69692   6.775   6.434   4.606 -0.4197  1.1002  0.0257
  528MOL0     H69693   6.745   6.423   4.420  0.1404  1.2512 -0.3956
  528MOL0     H69694   7.125   6.281   4.402  0.8726  0.0847  2.2187
  528MOL0     H69695   6.479   7.046   4.769 -1.4281 -3.2231  1.2351
  528MOL0     H69696   6.307   7.177   4.671 -1.0362  1.5718 -2.1117
  529MOL0     O69697   3.135   7.498   4.422  0.4996 -0.4555 -0.1573
  529MOL0     C69698   3.122   7.419   4.510 -0.6121 -0.3723  0.1351
  529MOL0     O69699   3.069   7.292   4.500  0.1940  0.4562 -0.6700
  529MOL0     C69700   3.041   7.238   4.373  0.2642  0.0100 -0.7592
  529MOL0     C69701   3.142   7.222   4.273  0.0318  0.0071 -0.6017
  529MOL0     C69702   3.110   7.168   4.144  0.0996  0.0092 -0.7978
  529MOL0     C69703   2.975   7.141   4.118 -0.0158  0.6131  0.6736
  529MOL0     O69704   2.947   7.103   3.985 -0.1776  0.2267 -0.2313
  529MOL0     C69705   2.860   6.993   3.959 -0.3805 -0.6475 -0.3517
  529MOL0     C69706   2.850   6.969   3.802 -1.3442  0.3936 -0.5473
  529MOL0     C69707   2.752   7.057   3.737  0.1455  0.6104  0.2690
  529MOL0     C69708   2.780   7.070   3.590 -0.0641 -0.6367  0.3689
  529MOL0     C69709   2.697   7.171   3.523  0.3424  0.5335  0.2379
  529MOL0     C69710   2.717   7.318   3.563  0.5227  0.9701  0.1605
  529MOL0     C69711   2.865   7.367   3.566 -0.0248  0.1111  0.1829
  529MOL0     C69712   2.873   7.523   3.575 -0.1968  0.2272 -0.1433
  529MOL0     N69713   3.015   7.557   3.609  0.2665  0.7288  0.2415
  529MOL0     C69714   3.074   7.500   3.721 -0.4458 -0.1588 -0.0653
  529MOL0     C69715   3.185   7.577   3.739  0.0325 -0.6662 -0.3419
  529MOL0     C69716   3.263   7.561   3.872  0.4874 -0.4323 -0.9748
  529MOL0     C69717   3.245   7.690   3.967 -0.4575  0.0819 -0.7077
  529MOL0     C69718   3.095   7.698   4.031 -0.2992 -0.5465  0.6941
  529MOL0     C69719   3.055   7.565   4.113  0.7957 -0.4696 -0.0642
  529MOL0     O69720   2.972   7.486   4.029 -0.0689 -0.0375 -0.0723
  529MOL0     C69721   2.834   7.504   4.031  0.4210 -0.2857  0.0884
  529MOL0     C69722   2.763   7.414   3.952  0.1843  0.4249 -0.8940
  529MOL0     C69723   2.616   7.415   3.950 -0.5133 -0.2174 -0.9242
  529MOL0     C69724   2.539   7.504   4.019 -0.0709  0.3740 -0.3104
  529MOL0     C69725   2.394   7.500   4.017  0.8802 -0.7861  0.5504
  529MOL0     O69726   2.324   7.580   4.097  0.4621  0.7883 -0.1823
  529MOL0     C69727   2.190   7.575   4.097  0.4066  0.9099 -0.2361
  529MOL0     C69728   2.138   7.563   4.226 -0.5265 -0.1580 -0.0258
  529MOL0     C69729   1.999   7.570   4.247  1.0784 -0.9657  0.2522
  529MOL0     C69730   1.905   7.578   4.136  0.1053 -0.1594 -0.1582
  529MOL0     O69731   1.776   7.556   4.149  0.6618  0.1136  0.3015
  529MOL0     C69732   1.705   7.584   4.267  0.4788 -0.6510 -0.4111
  529MOL0     C69733   1.559   7.590   4.234 -0.4405 -0.6590  0.2042
  529MOL0     C69734   1.503   7.679   4.340 -0.5575  0.4554  0.7266
  529MOL0     C69735   1.347   7.655   4.357  0.2015  0.5905 -0.0764
  529MOL0     C69736   1.300   7.747   4.469  0.6507 -0.4247 -0.2783
  529MOL0     C69737   1.155   7.729   4.501 -0.9753 -0.2768 -1.6798
  529MOL0     C69738   1.077   7.816   4.407  0.7947  0.3591  0.1645
  529MOL0     C69739   0.927   7.803   4.431 -0.6353  0.0066 -1.5963
  529MOL0    Cl69740   0.892   7.917   4.560 -0.0816 -0.3144  0.0071
  529MOL0     C69741   1.963   7.577   4.008 -0.8292 -0.0995 -0.3624
  529MOL0     C69742   2.103   7.571   3.987  0.0957  0.2770  0.0202
  529MOL0     O69743   2.346   7.399   3.960 -0.3991 -0.8305  0.1701
  529MOL0     C69744   2.620   7.596   4.094  0.2478  0.5036  0.1366
  529MOL0     C69745   2.757   7.596   4.106 -0.0153  0.0898 -0.0194
  529MOL0     N69746   3.206   7.674   3.641 -0.0707  0.8360 -0.8029
  529MOL0     N69747   3.096   7.661   3.568  0.2907  0.0055  0.5791
  529MOL0     C69748   2.879   7.161   4.214 -0.0528 -0.2978  0.3973
  529MOL0     C69749   2.909   7.210   4.341 -0.0740  1.2241  0.8349
  529MOL0     C69750   3.141   7.467   4.649  0.6514  0.7280 -0.0726
  529MOL0     C69751   3.131   7.373   4.758  0.0044  0.4423  0.0986
  529MOL0     C69752   3.135   7.413   4.890  0.0181  0.4439  1.0586
  529MOL0     C69753   3.141   7.543   4.917  0.1353 -1.1492  0.1919
  529MOL0     O69754   3.133   7.588   5.046 -0.5953 -0.1523 -0.6234
  529MOL0     C69755   3.261   7.645   5.095  0.7125 -0.4247 -0.3603
  529MOL0     C69756   3.246   7.737   5.224  0.4373  0.3374 -0.4142
  529MOL0     C69757   3.157   7.863   5.199 -0.0875 -0.3711  0.3360
  529MOL0     C69758   3.216   7.957   5.088  0.2905 -0.1441 -0.1586
  529MOL0     C69759   3.306   8.046   5.157  0.2942 -0.6997  0.3320
  529MOL0     C69760   3.394   8.119   5.200  0.1727 -0.5089 -0.2576
  529MOL0     C69761   3.137   7.637   4.813 -0.0081  0.0739 -0.2174
  529MOL0     C69762   3.149   7.599   4.680  0.6338  0.2484 -0.3691
  529MOL0     H69763   3.246   7.254   4.281  1.2884 -3.2745 -2.1619
  529MOL0     H69764   3.195   7.152   4.077  0.5977  0.2805 -0.2383
  529MOL0     H69765   2.756   7.006   3.990 -0.4783 -2.6234  0.3309
  529MOL0     H69766   2.901   6.905   4.009  0.1154  0.2319  0.8169
  529MOL0     H69767   2.810   6.870   3.780 -0.8233  0.2988 -1.0698
  529MOL0     H69768   2.951   6.979   3.761 -1.3832 -0.5819 -0.9139
  529MOL0     H69769   2.753   7.154   3.789  1.3927 -0.4805  2.4047
  529MOL0     H69770   2.649   7.021   3.751  0.4058 -0.3938 -0.3138
  529MOL0     H69771   2.885   7.089   3.568 -0.1767 -2.2936 -1.9711
  529MOL0     H69772   2.750   6.977   3.541  1.4556 -2.4872  2.6800
  529MOL0     H69773   2.593   7.138   3.533  1.1553 -1.3144  5.3575
  529MOL0     H69774   2.726   7.166   3.418  2.2986  1.1459  0.7089
  529MOL0     H69775   2.671   7.315   3.663  1.1388 -0.8240  0.4272
  529MOL0     H69776   2.659   7.382   3.495  1.0409  0.0583 -1.1752
  529MOL0     H69777   2.921   7.324   3.649 -1.4937  1.3771  1.8899
  529MOL0     H69778   2.915   7.330   3.476 -0.2270 -0.2839  0.2303
  529MOL0     H69779   2.809   7.559   3.656  1.1304 -1.2824  1.6706
  529MOL0     H69780   2.846   7.576   3.483  1.5112  0.6202 -0.4346
  529MOL0     H69781   3.034   7.432   3.795 -1.7307  0.3821 -0.2398
  529MOL0     H69782   3.370   7.553   3.853  1.4551 -0.4014  3.4720
  529MOL0     H69783   3.229   7.476   3.932  1.4039  0.2974  0.6548
  529MOL0     H69784   3.287   7.778   3.918  1.3952 -0.3496  0.0044
  529MOL0     H69785   3.317   7.680   4.049  2.8095 -0.8985 -3.4656
  529MOL0     H69786   3.083   7.786   4.094  2.7446  0.7668 -0.3323
  529MOL0     H69787   3.028   7.719   3.947  1.7452  4.2228 -0.0793
  529MOL0     H69788   3.001   7.607   4.198  1.5507  1.7445 -0.6054
  529MOL0     H69789   3.135   7.503   4.155  0.4895 -0.1973  0.9489
  529MOL0     H69790   2.833   7.347   3.904 -0.5533 -0.4652 -0.7504
  529MOL0     H69791   2.566   7.350   3.878 -0.5442 -0.7919 -0.3896
  529MOL0     H69792   2.196   7.558   4.318 -1.9588  0.9879  0.9877
  529MOL0     H69793   1.957   7.564   4.347  0.6376  0.4435  0.1700
  529MOL0     H69794   1.747   7.681   4.293 -1.5027 -0.5272  2.9076
  529MOL0     H69795   1.722   7.512   4.348 -0.4973  0.2229  0.6059
  529MOL0     H69796   1.510   7.492   4.225  0.6486 -1.0964 -1.3314
  529MOL0     H69797   1.539   7.645   4.142  0.6242  3.9456  2.4210
  529MOL0     H69798   1.519   7.784   4.314 -1.4091  1.5744  4.1978
  529MOL0     H69799   1.541   7.643   4.436 -4.7163 -3.8697  1.1539
  529MOL0     H69800   1.290   7.683   4.268 -0.3207 -1.4351 -0.4329
  529MOL0     H69801   1.319   7.552   4.382 -4.2576  1.7021  0.4118
  529MOL0     H69802   1.326   7.851   4.446  2.5097 -0.9246 -0.5975
  529MOL0     H69803   1.368   7.722   4.552  0.2150  1.4900  0.7227
  529MOL0     H69804   1.135   7.775   4.598 -0.3625  0.4568 -1.8820
  529MOL0     H69805   1.123   7.625   4.499  1.5815 -1.1206 -1.9836
  529MOL0     H69806   1.103   7.922   4.406 -2.7177  1.3460 -1.1929
  529MOL0     H69807   1.096   7.772   4.309  0.9182  3.8071 -1.5023
  529MOL0     H69808   0.902   7.701   4.460  3.0055 -0.5942 -0.1303
  529MOL0     H69809   0.864   7.823   4.343 -2.6721 -0.5645 -0.3364
  529MOL0     H69810   1.901   7.583   3.919  0.7471 -0.6279 -1.5271
  529MOL0     H69811   2.146   7.549   3.890 -1.6833  0.9314 -0.9760
  529MOL0     H69812   2.565   7.673   4.148 -1.5545 -0.8039  0.2341
  529MOL0     H69813   2.809   7.668   4.169 -0.8121  0.5791  0.0930
  529MOL0     H69814   2.777   7.136   4.190  0.3560 -1.9761  0.2878
  529MOL0     H69815   2.831   7.230   4.414  0.7876  0.1639  2.1021
  529MOL0     H69816   3.119   7.268   4.730 -0.9109  0.5710 -0.0289
  529MOL0     H69817   3.138   7.337   4.968  0.9294 -0.8331 -0.1632
  529MOL0     H69818   3.306   7.704   5.014 -0.2184  3.0820  1.4846
  529MOL0     H69819   3.327   7.562   5.120 -1.2230 -1.8807  0.1475
  529MOL0     H69820   3.216   7.681   5.313 -0.9067  1.3314 -0.2084
  529MOL0     H69821   3.340   7.788   5.247  0.9921  0.0727 -1.9958
  529MOL0     H69822   3.149   7.918   5.293  1.4733  0.2953  0.0967
  529MOL0     H69823   3.060   7.826   5.164  1.5718 -2.2013 -2.7395
  529MOL0     H69824   3.258   7.905   5.002  0.6496 -0.2917  0.1083
  529MOL0     H69825   3.126   8.009   5.052 -0.6376 -2.1914 -0.9318
  529MOL0     H69826   3.470   8.188   5.230 -2.1786  2.1684 -0.0402
  529MOL0     H69827   3.143   7.741   4.844  0.8731  1.5757 -4.6536
  529MOL0     H69828   3.145   7.672   4.600 -1.1611  2.4404  1.5398
  530MOL0     O69829   6.286   8.533   3.791  0.4231  0.4631  0.1828
  530MOL0     C69830   6.270   8.590   3.684  0.4776 -0.1248 -0.7140
  530MOL0     O69831   6.370   8.608   3.592 -0.3342  0.2097 -0.0861
  530MOL0     C69832   6.499   8.566   3.619  0.6144 -0.5594  0.1364
  530MOL0     C69833   6.578   8.584   3.740  0.5345 -0.8579  0.4357
  530MOL0     C69834   6.711   8.569   3.729 -0.2154  0.1593 -0.2073
  530MOL0     C69835   6.767   8.510   3.617 -0.0950  0.0927  0.4541
  530MOL0     O69836   6.900   8.482   3.627 -0.0589 -0.2019 -0.1520
  530MOL0     C69837   6.932   8.348   3.573  0.5403 -0.1130 -0.0982
  530MOL0     C69838   7.049   8.289   3.651 -0.1598  0.1329  0.1446
  530MOL0     C69839   7.082   8.147   3.606 -0.1675  0.0874  0.7156
  530MOL0     C69840   7.192   8.089   3.689  0.9345  0.1056 -0.1651
  530MOL0     C69841   7.323   8.095   3.621  0.3501 -0.0877  0.6866
  530MOL0     C69842   7.441   8.052   3.711 -0.0216 -0.1052  0.6441
  530MOL0     C69843   7.587   8.093   3.648 -0.1163  0.4165  0.2633
  530MOL0     C69844   7.693   8.043   3.743 -0.1507  0.5714  0.8856
  530MOL0     N69845   7.737   7.898   3.730  0.4742 -1.1849  0.6030
  530MOL0     C69846   7.663   7.787   3.686  0.2977 -0.1732 -0.0524
  530MOL0     C69847   7.740   7.681   3.706  0.8308  0.0606 -0.3064
  530MOL0     C69848   7.692   7.540   3.666  0.4566 -0.0777 -0.5830
  530MOL0     C69849   7.697   7.448   3.793  0.2765  0.9728  0.7217
  530MOL0     C69850   7.597   7.489   3.905 -0.2635  0.1228 -0.1268
  530MOL0     C69851   7.441   7.479   3.868 -0.3936  0.2338  0.1843
  530MOL0     O69852   7.419   7.578   3.764 -0.1951  0.6117 -0.9901
  530MOL0     C69853   7.291   7.597   3.722 -0.5156 -0.6327  0.1213
  530MOL0     C69854   7.178   7.512   3.743 -0.3562 -0.1193  0.4273
  530MOL0     C69855   7.050   7.538   3.690  0.2077 -0.1270  0.4578
  530MOL0     C69856   7.033   7.651   3.608 -0.1389 -0.5767  0.4317
  530MOL0     C69857   6.900   7.682   3.557  0.7276 -0.4039 -0.3769
  530MOL0     O69858   6.799   7.633   3.633 -0.2761 -0.3768 -0.7146
  530MOL0     C69859   6.665   7.655   3.614  0.5624  0.3041  0.3214
  530MOL0     C69860   6.580   7.545   3.595 -0.1370  0.2180 -0.2637
  530MOL0     C69861   6.442   7.555   3.592  0.6984 -0.5746 -0.6450
  530MOL0     C69862   6.384   7.682   3.588  0.6628  0.4419 -0.8322
  530MOL0     O69863   6.245   7.710   3.577  0.0738  0.0990 -0.0062
  530MOL0     C69864   6.166   7.622   3.502 -0.2251  0.3742 -0.8994
  530MOL0     C69865   6.023   7.647   3.542 -0.1270 -0.1232 -0.3641
  530MOL0     C69866   5.940   7.560   3.445  0.3179 -0.4120 -0.4716
  530MOL0     C69867   5.932   7.408   3.485 -0.0401 -0.3465  0.0843
  530MOL0     C69868   5.805   7.355   3.421  0.8269 -0.1196 -0.3877
  530MOL0     C69869   5.810   7.201   3.420  0.7297  0.6386 -0.1668
  530MOL0     C69870   5.804   7.138   3.564 -0.2870  0.0408  0.5183
  530MOL0     C69871   5.782   6.983   3.566 -0.1186 -0.3453  0.5210
  530MOL0    Cl69872   5.904   6.896   3.477 -0.0742  0.5223  0.2997
  530MOL0     C69873   6.463   7.795   3.599 -0.0794 -0.3272 -0.2813
  530MOL0     C69874   6.607   7.779   3.623  0.1776 -1.0473  0.0003
  530MOL0     O69875   6.883   7.761   3.461 -0.4307  0.1200  0.3619
  530MOL0     C69876   7.143   7.740   3.585  0.4539 -0.2709  0.0271
  530MOL0     C69877   7.268   7.708   3.639  0.4779 -0.0409  0.0390
  530MOL0     N69878   7.854   7.722   3.778  0.0333 -0.3067  0.5870
  530MOL0     N69879   7.848   7.847   3.785 -0.3201 -0.4754  0.1470
  530MOL0     C69880   6.689   8.472   3.503  0.6332  0.4127 -0.3028
  530MOL0     C69881   6.549   8.497   3.506 -0.9361 -0.2566 -0.7030
  530MOL0     C69882   6.128   8.600   3.646  0.7927 -0.1584  0.2449
  530MOL0     C69883   6.107   8.642   3.511  0.2500 -0.5916  0.4976
  530MOL0     C69884   5.983   8.647   3.458  0.7840 -0.4109 -0.4478
  530MOL0     C69885   5.872   8.616   3.539  0.8444  0.6266  0.3977
  530MOL0     O69886   5.753   8.624   3.473 -0.3543  0.6027  0.6928
  530MOL0     C69887   5.631   8.597   3.530 -0.6604 -0.5395 -0.3566
  530MOL0     C69888   5.527   8.624   3.429 -0.1670 -0.3005 -0.0384
  530MOL0     C69889   5.394   8.593   3.503 -0.4410 -0.4424  0.2778
  530MOL0     C69890   5.280   8.631   3.414  0.0875  0.1401 -0.0719
  530MOL0     C69891   5.271   8.547   3.291 -0.3116 -0.5015 -0.5110
  530MOL0     C69892   5.253   8.477   3.193  0.5724 -0.0580  0.8598
  530MOL0     C69893   5.892   8.587   3.675 -0.1469 -1.0293 -0.5014
  530MOL0     C69894   6.018   8.566   3.734  0.7699  0.1910  0.3924
  530MOL0     H69895   6.534   8.628   3.829  3.0150  0.4310  1.1310
  530MOL0     H69896   6.778   8.613   3.803 -0.0282  2.2374 -1.5269
  530MOL0     H69897   6.955   8.354   3.467  1.7013  0.2014  0.1602
  530MOL0     H69898   6.847   8.278   3.578  0.6896 -0.4760 -2.0175
  530MOL0     H69899   7.018   8.272   3.754  3.4197 -5.4979  0.6921
  530MOL0     H69900   7.136   8.355   3.645 -1.1512  1.5075  0.2751
  530MOL0     H69901   7.095   8.151   3.497 -1.5606  2.8379  0.5652
  530MOL0     H69902   6.994   8.088   3.629 -1.4851  1.4797 -0.4973
  530MOL0     H69903   7.201   8.140   3.786 -1.1319 -0.6593  0.4914
  530MOL0     H69904   7.161   7.986   3.711 -0.7662  0.3146 -1.4143
  530MOL0     H69905   7.340   8.197   3.585  1.5813 -0.5461 -0.1087
  530MOL0     H69906   7.307   8.042   3.527  0.6587  1.3624 -0.2055
  530MOL0     H69907   7.432   7.943   3.714 -1.3695 -0.2901 -3.7556
  530MOL0     H69908   7.424   8.088   3.813 -2.3112 -0.2138  0.3653
  530MOL0     H69909   7.603   8.046   3.551  0.8647 -0.5522  0.8749
  530MOL0     H69910   7.590   8.200   3.625  1.3772  0.4888  0.6880
  530MOL0     H69911   7.678   8.067   3.849 -0.4025 -1.7389  1.4192
  530MOL0     H69912   7.780   8.105   3.718 -0.1302  0.3050  0.2750
  530MOL0     H69913   7.566   7.782   3.638  0.1634 -1.8403  0.3352
  530MOL0     H69914   7.767   7.502   3.597 -1.0996 -1.3275 -1.6367
  530MOL0     H69915   7.600   7.530   3.608 -0.4200  1.8047  0.3459
  530MOL0     H69916   7.796   7.454   3.837  0.2189  0.8265  0.8696
  530MOL0     H69917   7.687   7.341   3.771 -1.5125  1.3523 -0.6716
  530MOL0     H69918   7.628   7.421   3.985  2.4161  1.4270  0.0406
  530MOL0     H69919   7.615   7.591   3.940 -1.0926  0.9665 -1.9973
  530MOL0     H69920   7.379   7.517   3.950  0.5737  2.3797 -0.0062
  530MOL0     H69921   7.412   7.380   3.832 -2.4249  1.7663 -2.8528
  530MOL0     H69922   7.200   7.421   3.798 -1.4229 -0.8323 -0.3008
  530MOL0     H69923   6.967   7.470   3.704  0.8250 -1.0279 -0.1390
  530MOL0     H69924   6.618   7.446   3.574 -0.2412  0.6221 -2.6189
  530MOL0     H69925   6.382   7.465   3.588  0.0273 -0.0998 -1.5259
  530MOL0     H69926   6.191   7.517   3.520  2.0803  0.3758 -3.3403
  530MOL0     H69927   6.177   7.650   3.397 -0.8516  0.7877 -0.8572
  530MOL0     H69928   5.987   7.751   3.541 -2.3296 -0.8239 -0.9533
  530MOL0     H69929   6.008   7.615   3.646 -0.2997 -1.9400 -0.9260
  530MOL0     H69930   5.969   7.572   3.341 -0.4405  2.4994 -0.4260
  530MOL0     H69931   5.841   7.606   3.451 -0.0054 -1.2396  1.5990
  530MOL0     H69932   6.027   7.362   3.457  1.4949  1.6115  1.7875
  530MOL0     H69933   5.920   7.397   3.593 -2.3393  1.0700  0.0405
  530MOL0     H69934   5.795   7.374   3.314  1.0196 -0.8246 -0.5343
  530MOL0     H69935   5.717   7.399   3.469  1.1700  0.8020 -0.5659
  530MOL0     H69936   5.907   7.170   3.379 -0.3966  0.2369 -2.7383
  530MOL0     H69937   5.723   7.163   3.365  1.0719  2.5724 -2.1535
  530MOL0     H69938   5.899   7.156   3.614  0.6223  1.3051 -1.5411
  530MOL0     H69939   5.732   7.195   3.623 -0.9072  0.6735 -0.7929
  530MOL0     H69940   5.684   6.958   3.524 -0.5634  2.1360 -0.0550
  530MOL0     H69941   5.783   6.944   3.668 -1.6033  2.7628  1.8492
  530MOL0     H69942   6.418   7.894   3.603 -1.4182 -0.9653  1.1649
  530MOL0     H69943   6.665   7.868   3.645 -1.8392  0.9484 -2.1637
  530MOL0     H69944   7.127   7.818   3.512 -1.5305  0.6625  1.3815
  530MOL0     H69945   7.347   7.779   3.619  0.8885 -0.5704 -0.2253
  530MOL0     H69946   6.735   8.438   3.411  0.0266 -0.8424 -0.1493
  530MOL0     H69947   6.488   8.468   3.421 -1.8737 -1.5011  0.3523
  530MOL0     H69948   6.191   8.665   3.446 -0.4140  0.0834 -0.1484
  530MOL0     H69949   5.961   8.675   3.355 -0.4678  0.1572 -0.0438
  530MOL0     H69950   5.610   8.647   3.625  2.1900  0.2712 -0.0624
  530MOL0     H69951   5.623   8.495   3.567  2.4301 -0.9106 -0.4825
  530MOL0     H69952   5.537   8.725   3.386 -1.1459 -0.2467 -0.1669
  530MOL0     H69953   5.537   8.560   3.341 -1.0414 -0.0496 -0.3314
  530MOL0     H69954   5.380   8.659   3.589 -4.1211 -0.4237 -0.1441
  530MOL0     H69955   5.388   8.489   3.536  2.7592 -1.6394 -2.3901
  530MOL0     H69956   5.187   8.627   3.472 -0.6702  2.7786 -0.9479
  530MOL0     H69957   5.295   8.736   3.385 -2.1661  0.7350  0.7472
  530MOL0     H69958   5.241   8.414   3.107  1.8035  3.2729 -1.9686
  530MOL0     H69959   5.805   8.571   3.738 -2.7316 -2.9231 -4.1674
  530MOL0     H69960   6.036   8.533   3.836  2.4352 -4.0097 -1.0338
  531MOL0     O69961   5.566   6.064   7.653 -0.6164 -0.0712  0.1487
  531MOL0     C69962   5.574   6.071   7.778 -0.2469 -0.6412  0.5659
  531MOL0     O69963   5.484   6.021   7.869  0.8028  0.2609  0.9862
  531MOL0     C69964   5.352   6.013   7.842  0.2977  0.7750 -0.2407
  531MOL0     C69965   5.282   5.929   7.935 -0.9391  0.2284  0.5827
  531MOL0     C69966   5.143   5.922   7.928 -0.2676 -0.9567 -0.1966
  531MOL0     C69967   5.077   5.994   7.832  0.7878 -0.1238  0.1876
  531MOL0     O69968   4.935   5.980   7.846 -1.0559  0.3628  0.1525
  531MOL0     C69969   4.856   6.038   7.741 -0.0980  0.1460 -0.4305
  531MOL0     C69970   4.711   6.020   7.787 -0.0820 -0.5613  0.5103
  531MOL0     C69971   4.609   6.095   7.703 -0.0147 -0.6021  0.9752
  531MOL0     C69972   4.476   6.078   7.762  0.1040  0.4469  0.1676
  531MOL0     C69973   4.380   6.168   7.684 -0.2203 -1.0442  0.9709
  531MOL0     C69974   4.233   6.120   7.713  0.1602  0.0923  0.5423
  531MOL0     C69975   4.133   6.183   7.610  0.6677  0.2901  0.3231
  531MOL0     C69976   3.991   6.155   7.657 -1.0060 -0.0454  0.6697
  531MOL0     N69977   3.895   6.253   7.614 -0.4617  0.1934 -0.7723
  531MOL0     C69978   3.769   6.274   7.665 -0.0409 -0.0984 -0.3021
  531MOL0     C69979   3.714   6.375   7.592 -0.6900  0.8224 -0.2610
  531MOL0     C69980   3.593   6.447   7.618 -0.8569 -0.2203  0.1741
  531MOL0     C69981   3.502   6.471   7.504 -0.2629  0.1756 -0.0287
  531MOL0     C69982   3.356   6.508   7.560 -0.4748  0.8444  0.0163
  531MOL0     C69983   3.266   6.564   7.450  0.4185  0.3252  0.2509
  531MOL0     O69984   3.126   6.574   7.490  1.2708 -0.2236 -0.0443
  531MOL0     C69985   3.030   6.618   7.402  0.7824 -0.4130 -0.4966
  531MOL0     C69986   2.900   6.643   7.457  0.2215 -0.1898  0.2497
  531MOL0     C69987   2.798   6.684   7.375  0.3367 -0.5230  0.0202
  531MOL0     C69988   2.812   6.705   7.236 -1.2673 -0.6290  0.1555
  531MOL0     C69989   2.695   6.754   7.158  0.0762  0.7747 -0.6442
  531MOL0     O69990   2.583   6.758   7.222  0.0012 -0.4258  0.4062
  531MOL0     C69991   2.466   6.769   7.158 -0.1565 -0.5944 -0.3142
  531MOL0     C69992   2.393   6.888   7.157  1.1097 -0.3951  0.0872
  531MOL0     C69993   2.269   6.880   7.093 -0.0178 -0.2351 -0.1768
  531MOL0     C69994   2.210   6.768   7.035  0.0589 -0.1276  0.5860
  531MOL0     O69995   2.087   6.782   6.985 -0.2332  0.4737  0.2854
  531MOL0     C69996   2.035   6.661   6.938  0.2100  1.1488 -0.4891
  531MOL0     C69997   1.907   6.685   6.868  0.0859  0.1541  0.2948
  531MOL0     C69998   1.795   6.688   6.982  0.6785  0.2796  0.0455
  531MOL0     C69999   1.656   6.702   6.913 -0.9534 -0.1152 -0.3309
  531MOL0     C70000   1.539   6.688   7.020 -0.5397 -0.5674 -0.3994
  531MOL0     C70001   1.407   6.722   6.960  0.7966 -0.1769 -0.6870
  531MOL0     C70002   1.301   6.773   7.053 -0.0960 -0.2276  0.2281
  531MOL0     C70003   1.165   6.797   6.980  0.1926 -0.2495  1.0817
  531MOL0    Cl70004   1.169   6.945   6.872  0.0231  0.0089 -0.1308
  531MOL0     C70005   2.292   6.652   7.040  0.5712 -0.0583 -0.6701
  531MOL0     C70006   2.417   6.650   7.102 -0.2891  0.9338  0.7073
  531MOL0     O70007   2.715   6.755   7.039  0.2059  0.5109  0.3353
  531MOL0     C70008   2.939   6.677   7.181  0.8595 -0.2323  0.2974
  531MOL0     C70009   3.040   6.634   7.263 -0.0471 -0.2150 -0.7279
  531MOL0     N70010   3.811   6.426   7.502 -0.1282 -0.2630 -0.3742
  531MOL0     N70011   3.921   6.345   7.516  0.1001 -0.3342  0.7750
  531MOL0     C70012   5.145   6.070   7.727 -0.6406 -0.6040 -0.2216
  531MOL0     C70013   5.280   6.088   7.746 -0.1171  0.4574 -0.9257
  531MOL0     C70014   5.703   6.115   7.844 -0.4054  0.0194 -0.0557
  531MOL0     C70015   5.798   6.176   7.760  0.2704  0.3364 -0.1850
  531MOL0     C70016   5.915   6.235   7.812  0.1210  0.5474 -0.5035
  531MOL0     C70017   5.936   6.213   7.953  0.2658 -0.5942  0.0254
  531MOL0     O70018   6.033   6.282   8.018  0.4099  0.0351 -0.7510
  531MOL0     C70019   6.146   6.211   8.078  0.8020  0.2407  0.1412
  531MOL0     C70020   6.256   6.307   8.097 -1.1427 -0.0732 -0.6818
  531MOL0     C70021   6.302   6.359   7.957  0.1312 -0.7819  0.4305
  531MOL0     C70022   6.415   6.468   7.968  0.5384 -0.2966 -0.0757
  531MOL0     C70023   6.547   6.414   8.011  0.1317 -0.5278 -0.6003
  531MOL0     C70024   6.661   6.383   8.036 -0.3153 -0.7550 -0.4877
  531MOL0     C70025   5.846   6.134   8.033 -0.2281 -1.0637  0.2598
  531MOL0     C70026   5.731   6.084   7.973 -0.3199  0.1673 -0.4840
  531MOL0     H70027   5.329   5.881   8.020  2.3193  1.2797 -0.5028
  531MOL0     H70028   5.092   5.871   8.008  1.7164 -0.7995  1.2698
  531MOL0     H70029   4.874   5.993   7.643 -0.1423 -1.2255  0.1560
  531MOL0     H70030   4.876   6.144   7.752  0.2420 -0.1846  3.6428
  531MOL0     H70031   4.701   6.068   7.885  1.6697 -0.3413  0.6267
  531MOL0     H70032   4.681   5.916   7.801 -1.7028 -0.2391 -0.3816
  531MOL0     H70033   4.599   6.053   7.603 -0.3028  2.0623 -0.1836
  531MOL0     H70034   4.638   6.200   7.707  1.5714 -0.9500 -0.2279
  531MOL0     H70035   4.440   5.976   7.750 -1.1247  0.6431  1.8725
  531MOL0     H70036   4.476   6.108   7.867 -0.5408  0.2542  0.2260
  531MOL0     H70037   4.394   6.151   7.577 -0.2228 -0.8775  0.9439
  531MOL0     H70038   4.396   6.273   7.706  1.1397 -1.0638  0.1454
  531MOL0     H70039   4.203   6.146   7.815  1.7144  3.2678  0.3003
  531MOL0     H70040   4.232   6.012   7.700  2.6195 -0.1415  1.7903
  531MOL0     H70041   4.152   6.290   7.597 -1.0520  0.5361 -0.3940
  531MOL0     H70042   4.146   6.139   7.510  2.7002 -0.2003  0.7541
  531MOL0     H70043   3.996   6.164   7.766 -2.2403  1.3692  0.6313
  531MOL0     H70044   3.963   6.059   7.613 -2.7941  0.3403  0.9005
  531MOL0     H70045   3.710   6.235   7.747 -2.4301  1.9626 -0.9326
  531MOL0     H70046   3.619   6.539   7.671 -1.3962 -0.3929  0.7458
  531MOL0     H70047   3.526   6.399   7.690  0.5127  0.0481  1.6925
  531MOL0     H70048   3.503   6.380   7.443  0.5577  0.3531 -0.2889
  531MOL0     H70049   3.542   6.548   7.438  3.1851 -1.6014 -0.2567
  531MOL0     H70050   3.324   6.413   7.604  0.1447  1.3487  1.6075
  531MOL0     H70051   3.365   6.578   7.643 -2.6610 -1.1244  2.0639
  531MOL0     H70052   3.280   6.509   7.356 -0.0723 -0.0355  0.3793
  531MOL0     H70053   3.313   6.659   7.424  0.5872  0.0058 -0.6771
  531MOL0     H70054   2.897   6.630   7.565  2.1378  1.8962  0.6290
  531MOL0     H70055   2.705   6.702   7.429  2.4213  1.6132  3.2745
  531MOL0     H70056   2.439   6.976   7.200 -0.6252  0.4301  0.3616
  531MOL0     H70057   2.202   6.965   7.086 -1.6548 -1.4280  0.4306
  531MOL0     H70058   2.028   6.579   7.011  4.0171  1.8215  0.8705
  531MOL0     H70059   2.107   6.628   6.862  1.8106  0.8421  1.1129
  531MOL0     H70060   1.889   6.608   6.793  2.5233  0.0623 -0.2807
  531MOL0     H70061   1.906   6.777   6.808 -0.6044 -0.7375 -1.1147
  531MOL0     H70062   1.815   6.770   7.051 -0.6406  1.2129 -0.6338
  531MOL0     H70063   1.800   6.592   7.034 -0.6154 -0.6651 -1.4881
  531MOL0     H70064   1.648   6.794   6.854  1.0685  0.0680 -0.4037
  531MOL0     H70065   1.638   6.621   6.841 -4.1644 -1.1795  1.4797
  531MOL0     H70066   1.572   6.745   7.107 -3.7062 -0.8590  1.1408
  531MOL0     H70067   1.529   6.584   7.053 -2.8118 -0.2073  0.2048
  531MOL0     H70068   1.363   6.627   6.929 -1.8530  0.5145  0.6686
  531MOL0     H70069   1.421   6.800   6.884 -2.8268  1.9789  0.5798
  531MOL0     H70070   1.289   6.701   7.135  0.3693 -2.8633 -1.8907
  531MOL0     H70071   1.325   6.867   7.104 -1.1295 -0.4747  1.2074
  531MOL0     H70072   1.087   6.808   7.056 -1.0603  0.3531 -0.2438
  531MOL0     H70073   1.140   6.710   6.919  3.4470  2.2166 -4.4704
  531MOL0     H70074   2.265   6.558   6.992 -0.4952  0.4478 -1.1016
  531MOL0     H70075   2.474   6.559   7.110 -1.5972 -0.0151 -0.2650
  531MOL0     H70076   2.949   6.685   7.074 -0.2465 -2.9034 -0.0757
  531MOL0     H70077   3.136   6.609   7.219  1.1038  3.5300 -0.7151
  531MOL0     H70078   5.093   6.118   7.645 -0.9824 -2.4890 -1.1629
  531MOL0     H70079   5.333   6.170   7.699 -0.6331  2.4466  1.7211
  531MOL0     H70080   5.780   6.191   7.654  0.9439 -2.0732 -0.6979
  531MOL0     H70081   5.989   6.292   7.756  0.4153 -0.4068 -1.1204
  531MOL0     H70082   6.176   6.129   8.012  0.8684 -0.0205  0.4944
  531MOL0     H70083   6.113   6.164   8.171  0.0340 -1.9857 -1.1691
  531MOL0     H70084   6.226   6.394   8.157 -2.7672  0.0424 -1.5927
  531MOL0     H70085   6.337   6.260   8.154 -2.2837 -0.5811  0.5664
  531MOL0     H70086   6.211   6.398   7.909  2.7804  2.2077 -2.7363
  531MOL0     H70087   6.337   6.275   7.897 -0.8020 -2.0163  1.5670
  531MOL0     H70088   6.430   6.514   7.869  2.1515 -0.9813 -0.1931
  531MOL0     H70089   6.387   6.545   8.040  0.7473 -2.9132  2.9816
  531MOL0     H70090   6.765   6.356   8.037 -0.4519 -1.2941 -0.0968
  531MOL0     H70091   5.862   6.126   8.140  0.6632 -0.5054  0.1714
  531MOL0     H70092   5.656   6.043   8.040 -0.5498  2.8022  0.9920
  532MOL0     O70093  10.086  10.132   9.601 -0.7598 -0.6433  0.3066
  532MOL0     C70094  10.163  10.033   9.590 -0.4510  0.6138 -0.4456
  532MOL0     O70095  10.136   9.908   9.633  0.3247 -0.4986 -0.6532
  532MOL0     C70096  10.012   9.899   9.694  0.4947 -0.2529  0.2406
  532MOL0     C70097   9.992   9.902   9.836  0.2208 -0.1127  0.0551
  532MOL0     C70098   9.867   9.875   9.890 -0.1417  0.3546 -0.7874
  532MOL0     C70099   9.756   9.849   9.812 -0.1368 -0.5658 -0.3720
  532MOL0     O70100   9.623   9.830   9.866 -0.1148  0.1590  0.2698
  532MOL0     C70101   9.602   9.875  10.006  0.7844  0.8936 -0.3357
  532MOL0     C70102   9.454   9.831  10.038 -1.0771 -0.1861  0.1515
  532MOL0     C70103   9.348   9.914   9.964  0.1818 -0.4679 -0.4632
  532MOL0     C70104   9.217   9.893  10.033  0.8071  0.1084 -0.4709
  532MOL0     C70105   9.103   9.964   9.963 -0.2770  0.4960 -0.4578
  532MOL0     C70106   8.960   9.918  10.004 -1.3448 -0.8355 -0.3787
  532MOL0     C70107   8.854   9.988   9.916 -1.0881 -0.8280  0.3311
  532MOL0     C70108   8.704   9.964   9.962  0.0837 -1.2231  0.0549
  532MOL0     N70109   8.642   9.857   9.885  0.5515 -0.1146 -0.5525
  532MOL0     C70110   8.681   9.736   9.832  0.3959 -0.5371  0.1159
  532MOL0     C70111   8.588   9.684   9.746 -0.5671 -0.1037  0.1734
  532MOL0     C70112   8.597   9.552   9.686 -0.4130 -0.7941  0.6278
  532MOL0     C70113   8.461   9.467   9.679  0.0202  0.2192 -0.1203
  532MOL0     C70114   8.442   9.369   9.786  0.6491  1.3127  0.3444
  532MOL0     C70115   8.338   9.252   9.765 -0.0644 -0.0216 -0.8182
  532MOL0     O70116   8.215   9.311   9.719 -0.7771  0.1834 -0.1464
  532MOL0     C70117   8.098   9.237   9.753 -0.0022  1.2763  0.2584
  532MOL0     C70118   7.975   9.308   9.769 -0.3071 -0.3655 -0.0380
  532MOL0     C70119   7.850   9.252   9.808 -1.0339 -0.3382 -0.8886
  532MOL0     C70120   7.844   9.116   9.849  0.4425 -0.1335 -0.7864
  532MOL0     C70121   7.712   9.061   9.894  0.5614 -0.2836  0.6674
  532MOL0     O70122   7.598   9.145   9.892 -0.7533  0.3514  0.0666
  532MOL0     C70123   7.466   9.105   9.912  1.6877 -0.0825 -0.3232
  532MOL0     C70124   7.373   9.208   9.883  0.5336  0.6094 -0.8053
  532MOL0     C70125   7.234   9.179   9.884  0.0100 -0.1067 -0.4652
  532MOL0     C70126   7.188   9.058   9.938  0.0935  0.2320 -0.3024
  532MOL0     O70127   7.056   9.016   9.955  0.3912  0.3430  0.3443
  532MOL0     C70128   6.948   9.062   9.868  0.3406 -0.4177 -0.0145
  532MOL0     C70129   6.814   9.020   9.936 -0.1522  0.2179  0.0885
  532MOL0     C70130   6.682   9.069   9.861 -0.4848  0.4358  0.3194
  532MOL0     C70131   6.556   9.047   9.947  0.9888  0.3372  0.4715
  532MOL0     C70132   6.430   9.016   9.860  0.8682 -0.9851 -1.0050
  532MOL0     C70133   6.427   8.881   9.775 -0.0123 -1.0356 -0.3501
  532MOL0     C70134   6.499   8.758   9.832 -0.3826  0.2524 -0.2704
  532MOL0     C70135   6.462   8.641   9.739 -0.8973  0.3285 -0.1696
  532MOL0    Cl70136   6.277   8.597   9.756 -0.2584  0.5405  0.2691
  532MOL0     C70137   7.284   8.966   9.979  0.5492 -0.3793  0.7717
  532MOL0     C70138   7.417   8.982   9.964 -0.2526  0.0556 -0.5654
  532MOL0     O70139   7.706   8.942   9.910 -0.3414 -0.1116  0.3820
  532MOL0     C70140   7.965   9.041   9.843  0.0949  0.5790 -0.5145
  532MOL0     C70141   8.091   9.099   9.793 -0.8577  0.5887 -0.3463
  532MOL0     N70142   8.485   9.778   9.748 -0.7727  0.5492  0.5864
  532MOL0     N70143   8.520   9.879   9.822 -0.1906  0.5410 -0.0379
  532MOL0     C70144   9.774   9.847   9.672 -0.1628  0.3988  0.2963
  532MOL0     C70145   9.899   9.864   9.617 -0.0287 -0.4038  0.4624
  532MOL0     C70146  10.306  10.049   9.543 -0.4835  0.1102  0.7744
  532MOL0     C70147  10.376  10.172   9.520 -0.5378 -0.0523 -0.5349
  532MOL0     C70148  10.495  10.177   9.453  0.7939  0.0826 -0.9917
  532MOL0     C70149  10.560  10.063   9.411 -0.4987 -0.0593  0.0828
  532MOL0     O70150  10.687  10.090   9.367  0.8412  0.4939 -0.4006
  532MOL0     C70151  10.745   9.989   9.288 -0.1455 -0.0604  0.0563
  532MOL0     C70152  10.881  10.039   9.226  0.5520  0.8595  0.0883
  532MOL0     C70153  10.870  10.167   9.135  0.2451 -0.2600 -0.5232
  532MOL0     C70154  10.988  10.263   9.151  0.5124 -0.1789 -0.0334
  532MOL0     C70155  11.110  10.212   9.086  0.3823 -0.4030 -0.2604
  532MOL0     C70156  11.218  10.173   9.048  0.2994 -0.0511 -0.3448
  532MOL0     C70157  10.499   9.939   9.446 -0.6133  0.7276  0.5302
  532MOL0     C70158  10.371   9.928   9.498 -0.3640 -0.1950 -0.8704
  532MOL0     H70159  10.078   9.921   9.898 -0.1017  0.1672  0.4213
  532MOL0     H70160   9.845   9.884   9.996  0.4010  2.2024 -0.7882
  532MOL0     H70161   9.612   9.983  10.023  1.9305  0.7509 -0.0247
  532MOL0     H70162   9.665   9.822  10.078  1.6808  0.6614 -1.2654
  532MOL0     H70163   9.448   9.860  10.143  0.0223  2.3412 -0.3980
  532MOL0     H70164   9.431   9.724  10.033  0.6801 -0.7164  2.2847
  532MOL0     H70165   9.351   9.894   9.857 -1.0658  1.8650 -1.0122
  532MOL0     H70166   9.373  10.020   9.972 -2.5369  0.2947 -0.9956
  532MOL0     H70167   9.190   9.789  10.011  1.9379 -0.2729 -0.1110
  532MOL0     H70168   9.225   9.914  10.140 -2.2535  1.4873 -0.4132
  532MOL0     H70169   9.119   9.947   9.856 -0.3833  1.9911 -0.7230
  532MOL0     H70170   9.101  10.072   9.978 -1.9876  0.7234 -2.0036
  532MOL0     H70171   8.941   9.931  10.111  1.2914 -0.9214  0.1791
  532MOL0     H70172   8.948   9.809   9.997  0.3025 -1.1344  0.8096
  532MOL0     H70173   8.871  10.096   9.912  0.4091 -1.0581 -2.4206
  532MOL0     H70174   8.853   9.944   9.815  0.6158  1.2879 -0.6877
  532MOL0     H70175   8.644  10.055   9.954 -1.3355 -1.7722  2.9294
  532MOL0     H70176   8.696   9.942  10.069 -2.1283 -0.3296  0.1210
  532MOL0     H70177   8.774   9.683   9.853 -0.6988 -2.6865 -0.0917
  532MOL0     H70178   8.669   9.490   9.741 -0.4686 -0.8451  0.6423
  532MOL0     H70179   8.625   9.575   9.583 -1.5382  4.0796  1.2036
  532MOL0     H70180   8.469   9.417   9.582  2.2802  3.4796 -1.8048
  532MOL0     H70181   8.375   9.535   9.679 -0.1979 -0.0346 -1.0051
  532MOL0     H70182   8.535   9.322   9.819 -0.1147  1.8843  3.6440
  532MOL0     H70183   8.410   9.421   9.876 -1.9016  0.6548 -0.0999
  532MOL0     H70184   8.322   9.202   9.861  1.1924  0.3758 -0.3836
  532MOL0     H70185   8.366   9.173   9.695 -1.2600 -1.6558  0.4564
  532MOL0     H70186   7.988   9.415   9.756  2.1450 -0.3920  1.7002
  532MOL0     H70187   7.774   9.326   9.831  0.8106  1.0125  1.2960
  532MOL0     H70188   7.411   9.304   9.849 -0.0923  0.7835 -1.0173
  532MOL0     H70189   7.160   9.256   9.864 -0.1046  0.5600  2.1654
  532MOL0     H70190   6.956   9.012   9.771  2.0621  1.0831 -0.7042
  532MOL0     H70191   6.938   9.168   9.846 -1.4648 -0.3725  0.8214
  532MOL0     H70192   6.816   9.077  10.029 -0.4901  0.7266 -0.2080
  532MOL0     H70193   6.811   8.914   9.962 -0.3489  0.5280  1.4090
  532MOL0     H70194   6.683   9.003   9.773 -0.7520 -1.2402  1.5171
  532MOL0     H70195   6.694   9.175   9.837  0.0894 -0.4544 -4.0881
  532MOL0     H70196   6.567   8.961  10.014 -1.5622  0.9288  1.7928
  532MOL0     H70197   6.533   9.132  10.013 -3.0159 -1.0479  1.1436
  532MOL0     H70198   6.412   9.099   9.791  1.2582 -2.5507 -3.0925
  532MOL0     H70199   6.345   9.008   9.929  0.5984 -1.7651 -1.4040
  532MOL0     H70200   6.488   8.905   9.688  1.4078 -1.2663  0.5422
  532MOL0     H70201   6.329   8.854   9.735 -0.3169 -0.4629  0.0090
  532MOL0     H70202   6.606   8.781   9.826 -0.6326  1.3351 -0.9648
  532MOL0     H70203   6.488   8.740   9.939 -0.3830  3.6697  0.4104
  532MOL0     H70204   6.512   8.548   9.767  0.3999  2.0057  3.7546
  532MOL0     H70205   6.491   8.659   9.635  1.5050 -4.2819 -0.5582
  532MOL0     H70206   7.258   8.863  10.003 -1.9382 -0.7694 -2.8082
  532MOL0     H70207   7.486   8.902   9.988  0.9825  0.6642 -1.9695
  532MOL0     H70208   7.950   8.937   9.871 -1.5660  0.4084 -1.9165
  532MOL0     H70209   8.174   9.028   9.790 -3.1697 -2.2685 -1.1682
  532MOL0     H70210   9.694   9.833   9.601  0.3536  1.4233 -0.5104
  532MOL0     H70211   9.901   9.854   9.509 -1.3013 -2.1783  0.5641
  532MOL0     H70212  10.340  10.266   9.560 -1.0222 -0.4266 -0.0790
  532MOL0     H70213  10.550  10.270   9.446 -1.2326  1.3279 -1.1485
  532MOL0     H70214  10.682   9.949   9.208  0.0385 -0.2789  0.0161
  532MOL0     H70215  10.775   9.903   9.349  0.1709 -0.1751 -0.2567
  532MOL0     H70216  10.948  10.050   9.312  2.3984  1.3529 -1.3590
  532MOL0     H70217  10.930   9.959   9.170 -1.6409 -1.4589  1.2804
  532MOL0     H70218  10.775  10.221   9.144 -1.0317 -2.0010 -2.5891
  532MOL0     H70219  10.865  10.123   9.035 -0.2451  0.4709 -0.8292
  532MOL0     H70220  10.963  10.356   9.098  1.1923  0.9847  1.5817
  532MOL0     H70221  11.001  10.284   9.258  2.1958  0.1186 -0.2600
  532MOL0     H70222  11.315  10.132   9.028 -0.9430 -2.8434 -1.2084
  532MOL0     H70223  10.543   9.841   9.430 -1.3431 -0.0352  2.8111
  532MOL0     H70224  10.329   9.829   9.512 -1.2787  0.1113 -1.3445
  533MOL0     O70225   0.679   6.604  10.676  0.3268  1.0646 -0.2193
  533MOL0     C70226   0.622   6.684  10.749  0.7661  0.0691  0.7574
  533MOL0     O70227   0.547   6.783  10.704 -0.4473 -0.7504  0.3148
  533MOL0     C70228   0.502   6.786  10.574  0.4443  0.0481  0.0512
  533MOL0     C70229   0.367   6.784  10.542  0.0707  0.9029 -0.3051
  533MOL0     C70230   0.332   6.796  10.408  1.1372  0.2175 -0.0291
  533MOL0     C70231   0.420   6.818  10.310  0.4313  0.3265 -0.4322
  533MOL0     O70232   0.380   6.837  10.181 -0.2169  0.6084 -0.7371
  533MOL0     C70233   0.437   6.731  10.092  0.2405 -0.5067 -0.1845
  533MOL0     C70234   0.377   6.736   9.944 -0.7054  0.4855 -0.5702
  533MOL0     C70235   0.246   6.652   9.932 -0.3109  0.5215  0.6061
  533MOL0     C70236   0.127   6.708  10.013 -0.6337  0.5631  0.1764
  533MOL0     C70237   0.003   6.625   9.997  0.3092 -0.7310  0.4118
  533MOL0     C70238  -0.100   6.670  10.101  0.0436  0.5763  0.4702
  533MOL0     C70239  -0.236   6.588  10.078 -0.2511 -0.2054 -1.2897
  533MOL0     C70240  -0.342   6.597  10.187  0.1174  0.2813  0.7022
  533MOL0     N70241  -0.435   6.701  10.172  0.0880 -0.4651  0.4773
  533MOL0     C70242  -0.475   6.760  10.054 -0.4067 -0.1089  0.1133
  533MOL0     C70243  -0.512   6.886  10.090 -0.7288  1.3046  0.0317
  533MOL0     C70244  -0.555   6.986   9.984  0.2602 -0.0092  0.3521
  533MOL0     C70245  -0.700   6.965   9.934 -0.2132 -0.1650  0.2664
  533MOL0     C70246  -0.748   7.100   9.856 -0.0519  0.4019  0.0248
  533MOL0     C70247  -0.882   7.091   9.781 -1.3234 -0.2921 -0.0658
  533MOL0     O70248  -0.987   7.078   9.877  0.2582  0.0152 -0.6584
  533MOL0     C70249  -1.119   7.105   9.834  0.4463  0.8383  0.2377
  533MOL0     C70250  -1.223   7.011   9.877  0.4291 -0.8475  0.2237
  533MOL0     C70251  -1.360   7.034   9.836 -0.2671  0.0523 -0.6389
  533MOL0     C70252  -1.390   7.161   9.768  0.1919 -0.4996 -0.2721
  533MOL0     C70253  -1.523   7.211   9.736 -0.1591  0.6045  0.0151
  533MOL0     O70254  -1.534   7.332   9.665 -0.2780  0.0534  0.4324
  533MOL0     C70255  -1.662   7.367   9.629  0.0670 -0.4880  0.0430
  533MOL0     C70256  -1.689   7.347   9.493 -0.2811  0.2005  1.0872
  533MOL0     C70257  -1.819   7.375   9.449  0.8288  0.0344 -0.3269
  533MOL0     C70258  -1.919   7.421   9.548  1.1286 -0.0297  0.8772
  533MOL0     O70259  -2.051   7.448   9.506 -0.7940 -0.4585  0.9596
  533MOL0     C70260  -2.075   7.456   9.363 -0.6496 -0.7582  0.2809
  533MOL0     C70261  -2.218   7.506   9.332 -0.1671 -0.7460 -0.3253
  533MOL0     C70262  -2.332   7.431   9.398 -0.2183  1.2681 -1.3594
  533MOL0     C70263  -2.474   7.469   9.339  0.4369 -0.5771 -0.2321
  533MOL0     C70264  -2.585   7.410   9.419  0.5716 -0.0582  0.1144
  533MOL0     C70265  -2.725   7.404   9.349 -0.3290  0.5898 -0.3721
  533MOL0     C70266  -2.781   7.544   9.306  0.5734  0.8899  0.0183
  533MOL0     C70267  -2.913   7.532   9.225 -0.7414  0.1669 -1.1240
  533MOL0    Cl70268  -3.043   7.475   9.324 -0.0223  0.3615  0.4543
  533MOL0     C70269  -1.892   7.426   9.680 -0.1193 -0.1275 -0.0065
  533MOL0     C70270  -1.757   7.400   9.723  0.2293  0.1243 -1.0274
  533MOL0     O70271  -1.613   7.135   9.774 -0.0309  0.0811 -0.0425
  533MOL0     C70272  -1.278   7.243   9.735  0.7803 -0.6649  0.6036
  533MOL0     C70273  -1.150   7.219   9.768 -0.3810  0.7461 -0.1581
  533MOL0     N70274  -0.513   6.900  10.227 -0.6221  0.2059  0.6361
  533MOL0     N70275  -0.470   6.793  10.271 -0.4983  0.0998  0.1301
  533MOL0     C70276   0.555   6.826  10.345 -0.0830 -0.1243 -0.4995
  533MOL0     C70277   0.598   6.810  10.475  0.3458 -0.1171  0.1150
  533MOL0     C70278   0.657   6.694  10.896  0.0389 -0.2250  0.5943
  533MOL0     C70279   0.631   6.814  10.970  0.4644  0.0611 -0.9682
  533MOL0     C70280   0.677   6.829  11.105  0.2325  0.7096  0.1536
  533MOL0     C70281   0.760   6.730  11.162 -0.0946 -0.1729  0.4962
  533MOL0     O70282   0.819   6.737  11.285  0.3792  0.3564 -0.1525
  533MOL0     C70283   0.882   6.857  11.329 -0.0339 -0.1714 -0.0934
  533MOL0     C70284   1.009   6.886  11.239  0.0390  0.1812  0.5177
  533MOL0     C70285   1.111   6.767  11.229  0.2199 -0.0225 -0.1376
  533MOL0     C70286   1.203   6.759  11.345 -0.4091  0.4196 -0.5292
  533MOL0     C70287   1.296   6.658  11.300  0.2862 -0.8649 -0.2006
  533MOL0     C70288   1.363   6.570  11.261  0.0885  0.0900  0.7251
  533MOL0     C70289   0.771   6.606  11.097  0.0582 -0.0172  0.5094
  533MOL0     C70290   0.721   6.585  10.967  0.6244  0.4049  0.0537
  533MOL0     H70291   0.286   6.779  10.614 -1.4005 -3.4756 -1.9291
  533MOL0     H70292   0.225   6.799  10.387  0.4426 -1.4611  2.7314
  533MOL0     H70293   0.398   6.636  10.131 -1.6472 -1.0144 -3.0579
  533MOL0     H70294   0.545   6.740  10.078  0.1036 -0.9113 -1.6016
  533MOL0     H70295   0.448   6.692   9.874 -2.1533 -2.4500 -0.3647
  533MOL0     H70296   0.346   6.837   9.914 -3.8759 -0.0466  0.4369
  533MOL0     H70297   0.272   6.553   9.970 -2.3003 -0.2676  0.0445
  533MOL0     H70298   0.211   6.635   9.830  3.5134 -0.1663 -0.7432
  533MOL0     H70299   0.154   6.712  10.119  2.3266  1.3175 -0.5111
  533MOL0     H70300   0.106   6.808   9.974 -1.1208  0.2085 -0.4873
  533MOL0     H70301   0.020   6.519  10.020  3.2747 -0.0607  1.8353
  533MOL0     H70302  -0.038   6.629   9.896 -1.3984 -0.7666  1.0825
  533MOL0     H70303  -0.121   6.777  10.100  1.5336  0.9748 -2.6376
  533MOL0     H70304  -0.073   6.648  10.204 -1.2153 -1.3099  0.4555
  533MOL0     H70305  -0.274   6.619   9.980 -0.2191  0.3401 -1.1321
  533MOL0     H70306  -0.210   6.482  10.072 -2.6932 -0.9295 -0.5106
  533MOL0     H70307  -0.296   6.604  10.286 -1.4497 -0.2284  1.5093
  533MOL0     H70308  -0.398   6.503  10.193  1.4866 -0.6017  0.0895
  533MOL0     H70309  -0.472   6.719   9.954 -5.0649 -1.3741  0.2351
  533MOL0     H70310  -0.484   6.974   9.901 -0.3177 -2.5513  0.1424
  533MOL0     H70311  -0.544   7.084  10.032  0.5247 -0.1890  0.6559
  533MOL0     H70312  -0.772   6.942  10.013  0.1235  1.8860  1.2342
  533MOL0     H70313  -0.701   6.883   9.862 -2.6151 -1.1265  1.3075
  533MOL0     H70314  -0.757   7.186   9.923  0.3723  1.2028 -0.9293
  533MOL0     H70315  -0.678   7.125   9.776 -1.0371 -1.3716 -1.4626
  533MOL0     H70316  -0.885   7.003   9.716  2.8547 -0.3391 -0.4635
  533MOL0     H70317  -0.885   7.175   9.711  0.2323  0.4217  0.6707
  533MOL0     H70318  -1.194   6.933   9.946 -2.1261  1.3704  4.1932
  533MOL0     H70319  -1.437   6.966   9.872  0.8624 -1.6381 -1.2545
  533MOL0     H70320  -1.623   7.315   9.413 -1.5367 -1.3549  0.6132
  533MOL0     H70321  -1.841   7.359   9.344 -0.0487  3.2927 -0.7327
  533MOL0     H70322  -2.045   7.355   9.335  2.5102 -0.0244  0.5401
  533MOL0     H70323  -2.017   7.521   9.296  1.0676 -0.8622  1.5848
  533MOL0     H70324  -2.230   7.508   9.223 -0.8112 -2.9374 -0.3281
  533MOL0     H70325  -2.219   7.610   9.366  0.2578 -0.7781 -0.2089
  533MOL0     H70326  -2.318   7.442   9.506 -1.8912  2.7878 -1.2366
  533MOL0     H70327  -2.299   7.329   9.379 -0.3515  0.9488  0.0089
  533MOL0     H70328  -2.478   7.578   9.351 -1.5163 -0.8208  2.0972
  533MOL0     H70329  -2.487   7.428   9.239  0.4687 -0.6693 -0.1983
  533MOL0     H70330  -2.601   7.462   9.514 -0.8537  1.7370 -1.0170
  533MOL0     H70331  -2.548   7.311   9.444  0.9683 -0.3292 -1.3957
  533MOL0     H70332  -2.787   7.355   9.424  1.1435 -1.2765 -0.2968
  533MOL0     H70333  -2.715   7.342   9.260 -0.5747  1.3368 -0.9335
  533MOL0     H70334  -2.785   7.619   9.386  0.3271  0.4576  0.4183
  533MOL0     H70335  -2.706   7.585   9.238 -0.5594  1.0980 -1.1318
  533MOL0     H70336  -2.900   7.470   9.137 -3.2712 -1.3902 -0.5014
  533MOL0     H70337  -2.930   7.633   9.187  0.3311  1.8515  2.4317
  533MOL0     H70338  -1.968   7.440   9.757 -2.7427 -1.5678 -2.1406
  533MOL0     H70339  -1.734   7.390   9.829 -0.7539  1.2897 -0.6905
  533MOL0     H70340  -1.287   7.337   9.681 -1.6854 -2.1463 -1.8330
  533MOL0     H70341  -1.069   7.288   9.746  0.0247  0.5700  0.7457
  533MOL0     H70342   0.643   6.832  10.281  2.7441 -3.9543  2.4808
  533MOL0     H70343   0.702   6.816  10.507 -0.1171 -0.0610  1.6690
  533MOL0     H70344   0.561   6.887  10.931 -2.0999 -2.1617 -0.7677
  533MOL0     H70345   0.640   6.918  11.155 -0.9919  0.5098 -0.3611
  533MOL0     H70346   0.905   6.855  11.436  0.6029 -1.8001 -0.2302
  533MOL0     H70347   0.814   6.942  11.313 -0.2239  0.6313  3.8499
  533MOL0     H70348   0.977   6.922  11.141 -0.3728 -0.3068  0.4675
  533MOL0     H70349   1.065   6.973  11.274 -0.7617  1.7233 -1.7811
  533MOL0     H70350   1.162   6.777  11.133  1.0729  1.0757  0.3991
  533MOL0     H70351   1.052   6.676  11.219 -1.6765  1.3443 -2.2862
  533MOL0     H70352   1.252   6.853  11.372  2.0883 -0.6776 -0.9086
  533MOL0     H70353   1.150   6.722  11.433  0.6969 -3.6594 -1.3791
  533MOL0     H70354   1.432   6.494  11.230 -0.0668 -0.5738  1.9156
  533MOL0     H70355   0.819   6.522  11.145 -0.6807 -3.3789 -3.9109
  533MOL0     H70356   0.737   6.494  10.909  2.2212  0.8856 -0.3032
  534MOL0     O70357   6.979  11.199   1.365 -0.5985  0.0266 -0.2184
  534MOL0     C70358   7.060  11.233   1.271  0.4024  0.2281 -0.3186
  534MOL0     O70359   7.027  11.282   1.153 -0.1610 -0.5913  0.0441
  534MOL0     C70360   6.892  11.294   1.125 -0.4547  0.2639 -0.2380
  534MOL0     C70361   6.827  11.174   1.120  0.0570  0.5547 -0.1643
  534MOL0     C70362   6.684  11.176   1.125 -0.1418 -0.0023  0.2915
  534MOL0     C70363   6.615  11.300   1.115  0.1641  0.0313  0.5095
  534MOL0     O70364   6.476  11.286   1.114  0.4345  0.4332 -0.3181
  534MOL0     C70365   6.394  11.391   1.068  0.9296 -0.4522 -0.0780
  534MOL0     C70366   6.246  11.354   1.066  0.0592  0.2461 -0.5645
  534MOL0     C70367   6.162  11.454   0.993 -0.1057  0.1405 -0.3136
  534MOL0     C70368   6.019  11.411   1.006  0.6909  0.2078 -0.5276
  534MOL0     C70369   5.953  11.451   1.130  0.0947 -0.1135 -0.0694
  534MOL0     C70370   5.799  11.445   1.101  0.4005  0.5273  0.2777
  534MOL0     C70371   5.703  11.461   1.215 -0.8332 -0.6477 -0.8972
  534MOL0     C70372   5.574  11.518   1.178 -0.2302  0.3259 -0.5828
  534MOL0     N70373   5.505  11.420   1.102  0.7055  0.7951  0.6507
  534MOL0     C70374   5.421  11.333   1.169 -0.5057 -0.6702  0.0297
  534MOL0     C70375   5.361  11.270   1.062 -0.1445  0.2302 -0.3474
  534MOL0     C70376   5.260  11.161   1.076  0.5735  0.5455 -0.4171
  534MOL0     C70377   5.138  11.221   1.148  0.2553  0.5574  0.0196
  534MOL0     C70378   5.015  11.124   1.161  0.5128 -0.6475 -0.7065
  534MOL0     C70379   4.892  11.209   1.190  0.2296  0.1278 -0.2062
  534MOL0     O70380   4.786  11.115   1.217 -0.0655  0.3862 -0.0829
  534MOL0     C70381   4.661  11.160   1.232  0.2840  0.3876  1.2842
  534MOL0     C70382   4.622  11.296   1.207  0.0717  0.4346  0.5328
  534MOL0     C70383   4.485  11.320   1.219  0.3400  0.1381 -0.4703
  534MOL0     C70384   4.389  11.229   1.261  0.8396 -0.2091 -0.0229
  534MOL0     C70385   4.249  11.274   1.276  0.5585  0.5866 -1.4982
  534MOL0     O70386   4.165  11.175   1.325  0.3841 -0.0536  0.3865
  534MOL0     C70387   4.032  11.210   1.354 -0.1703 -0.2377  0.4650
  534MOL0     C70388   3.952  11.252   1.251  0.2195 -0.2587  0.1114
  534MOL0     C70389   3.826  11.310   1.278 -0.5629 -0.7778  0.9265
  534MOL0     C70390   3.763  11.298   1.403  0.3266 -0.0014 -0.8845
  534MOL0     O70391   3.642  11.357   1.435 -0.1818  0.3425 -0.5537
  534MOL0     C70392   3.655  11.491   1.482  0.1372 -0.3603  0.5625
  534MOL0     C70393   3.538  11.569   1.434  0.4376  0.3793 -0.1990
  534MOL0     C70394   3.419  11.564   1.540 -0.2262 -0.2714 -0.3198
  534MOL0     C70395   3.293  11.642   1.491  0.4130 -0.2378  0.4307
  534MOL0     C70396   3.174  11.612   1.591 -0.0078  0.0003 -0.6231
  534MOL0     C70397   3.048  11.698   1.569 -0.6059 -0.0801 -0.4047
  534MOL0     C70398   2.933  11.651   1.648 -0.0673  0.4047  1.2496
  534MOL0     C70399   2.808  11.732   1.641  0.1375 -0.8525  1.1029
  534MOL0    Cl70400   2.700  11.657   1.763 -0.0669  0.1105  0.0708
  534MOL0     C70401   3.836  11.229   1.502  0.1468  0.3410 -0.2283
  534MOL0     C70402   3.970  11.185   1.478  0.5323 -0.3955  1.0396
  534MOL0     O70403   4.207  11.382   1.240 -0.0584  0.1671  0.4595
  534MOL0     C70404   4.432  11.093   1.256  0.1804  0.3332 -1.0373
  534MOL0     C70405   4.565  11.054   1.246 -0.5520 -0.3055  0.4224
  534MOL0     N70406   5.423  11.307   0.945 -0.1628 -0.0755  0.1928
  534MOL0     N70407   5.506  11.408   0.967  0.5613  0.6267  0.1426
  534MOL0     C70408   6.683  11.422   1.115  0.9190 -0.1129 -0.1337
  534MOL0     C70409   6.824  11.418   1.120 -0.6869 -0.2125  0.1655
  534MOL0     C70410   7.209  11.229   1.306 -0.6824 -0.4029  1.0622
  534MOL0     C70411   7.252  11.221   1.440  0.3458  0.6422  0.2053
  534MOL0     C70412   7.383  11.231   1.478  0.1513  0.2641  0.0063
  534MOL0     C70413   7.484  11.268   1.382  0.5029  0.7264  0.6486
  534MOL0     O70414   7.609  11.268   1.439  0.2589 -0.1467  0.6716
  534MOL0     C70415   7.699  11.182   1.375 -1.0613 -0.0642 -0.2653
  534MOL0     C70416   7.846  11.235   1.407 -0.6395  0.4257  0.1955
  534MOL0     C70417   7.864  11.368   1.343  0.0341 -0.5274  0.6773
  534MOL0     C70418   8.015  11.415   1.344 -0.4136 -0.4537 -0.1229
  534MOL0     C70419   8.101  11.351   1.242  1.1922 -0.0781 -0.2034
  534MOL0     C70420   8.159  11.293   1.152 -0.2348 -0.3396 -0.0017
  534MOL0     C70421   7.444  11.283   1.247  0.1196  0.4792  0.0758
  534MOL0     C70422   7.314  11.265   1.211 -0.0229 -0.0750  0.5128
  534MOL0     H70423   6.876  11.077   1.126  0.1574  0.6577  0.9587
  534MOL0     H70424   6.633  11.080   1.118 -0.0767 -0.1434  1.5771
  534MOL0     H70425   6.431  11.427   0.971  2.0200  1.4240  0.9938
  534MOL0     H70426   6.396  11.468   1.145 -1.5265 -1.3620  0.9973
  534MOL0     H70427   6.219  11.341   1.171 -3.8661 -0.5153 -1.5025
  534MOL0     H70428   6.243  11.260   1.012  1.6273  1.1072 -2.2495
  534MOL0     H70429   6.201  11.463   0.891  0.9268  1.1985  0.1669
  534MOL0     H70430   6.174  11.554   1.034  2.9244 -0.8935  1.6518
  534MOL0     H70431   5.964  11.448   0.919  0.4920 -0.5263 -0.7250
  534MOL0     H70432   6.015  11.305   0.980  3.3171 -0.3217  0.8371
  534MOL0     H70433   5.997  11.544   1.167 -0.1143 -0.5003  1.2021
  534MOL0     H70434   5.981  11.371   1.200  2.1577 -0.8344 -1.5911
  534MOL0     H70435   5.772  11.354   1.047  3.3564  0.4004 -1.2177
  534MOL0     H70436   5.787  11.524   1.026  2.8235 -0.1448 -0.9119
  534MOL0     H70437   5.686  11.361   1.256 -2.1837  0.0070  0.1809
  534MOL0     H70438   5.759  11.519   1.290 -0.4423 -0.4288 -1.3501
  534MOL0     H70439   5.607  11.607   1.124  2.6112 -0.5945 -0.5215
  534MOL0     H70440   5.512  11.550   1.263 -1.2878 -2.0012 -0.4010
  534MOL0     H70441   5.409  11.302   1.272 -1.0305 -1.8286 -0.3654
  534MOL0     H70442   5.293  11.073   1.131 -0.7803 -1.0649 -2.0799
  534MOL0     H70443   5.226  11.127   0.978  4.3864  0.8707 -2.0165
  534MOL0     H70444   5.111  11.311   1.092  0.1576  0.6209  0.1691
  534MOL0     H70445   5.164  11.259   1.247  3.6290  1.4469 -1.0775
  534MOL0     H70446   5.007  11.066   1.069  0.5493 -1.9003  0.0581
  534MOL0     H70447   5.027  11.051   1.241  0.2446 -0.6913 -0.7056
  534MOL0     H70448   4.875  11.271   1.102 -0.9553 -1.1711 -0.9274
  534MOL0     H70449   4.897  11.275   1.278  1.2275  0.8005 -0.7431
  534MOL0     H70450   4.687  11.378   1.177 -1.7097  1.7563  0.1793
  534MOL0     H70451   4.453  11.422   1.198  0.6999  1.2290  3.4888
  534MOL0     H70452   3.996  11.271   1.154 -1.2297 -2.2875 -1.0165
  534MOL0     H70453   3.791  11.361   1.188  0.8560 -2.1985 -0.5080
  534MOL0     H70454   3.745  11.527   1.432 -1.1470 -0.0623 -1.6735
  534MOL0     H70455   3.662  11.491   1.591  1.3766 -2.1069  0.5269
  534MOL0     H70456   3.499  11.553   1.333 -0.9802  1.7193  0.1027
  534MOL0     H70457   3.564  11.675   1.435 -2.0385  1.0444  0.3458
  534MOL0     H70458   3.450  11.612   1.633  0.7088 -1.6015  0.0761
  534MOL0     H70459   3.387  11.461   1.556 -0.0158 -0.2632  0.1486
  534MOL0     H70460   3.320  11.748   1.490 -1.0581  0.1839  1.7331
  534MOL0     H70461   3.257  11.602   1.396 -0.1789  0.5167  0.3200
  534MOL0     H70462   3.221  11.636   1.687 -2.3059  0.7601  0.3874
  534MOL0     H70463   3.148  11.506   1.593 -0.2268  0.0095  2.8517
  534MOL0     H70464   3.007  11.692   1.467  0.0393 -1.7851 -0.5892
  534MOL0     H70465   3.074  11.803   1.586 -0.1717 -0.6342  3.0921
  534MOL0     H70466   2.908  11.553   1.606 -0.5376  1.1340 -0.2689
  534MOL0     H70467   2.965  11.622   1.748 -0.5495  2.0499  1.9152
  534MOL0     H70468   2.771  11.734   1.538 -1.4047  1.3460  1.6087
  534MOL0     H70469   2.823  11.835   1.676 -1.4618 -1.0438  2.4835
  534MOL0     H70470   3.797  11.216   1.602  1.5282  0.7923  0.3927
  534MOL0     H70471   4.025  11.155   1.566  1.7759 -1.0155  0.0871
  534MOL0     H70472   4.366  11.009   1.276  1.1008 -0.0283  0.7228
  534MOL0     H70473   4.591  10.949   1.254 -1.4729 -0.4451  1.9896
  534MOL0     H70474   6.635  11.519   1.110  1.6549  0.4197  2.0672
  534MOL0     H70475   6.889  11.504   1.131 -1.6128  0.6170 -0.6661
  534MOL0     H70476   7.177  11.207   1.518  0.2814  0.9964  0.2105
  534MOL0     H70477   7.408  11.217   1.583 -1.3401 -1.5488  0.1690
  534MOL0     H70478   7.683  11.172   1.267  3.0417 -2.8976 -0.8461
  534MOL0     H70479   7.700  11.079   1.413  4.3051 -0.2837 -0.3098
  534MOL0     H70480   7.854  11.239   1.516 -1.9550  2.9914  0.2687
  534MOL0     H70481   7.931  11.174   1.374  1.0139  0.7219  3.4653
  534MOL0     H70482   7.798  11.439   1.393 -0.4099 -1.1510  0.9876
  534MOL0     H70483   7.815  11.370   1.245 -2.2200  0.3072  1.7624
  534MOL0     H70484   8.006  11.522   1.323 -0.7789 -0.1099  1.5819
  534MOL0     H70485   8.046  11.407   1.449  0.5753  0.7116 -0.3008
  534MOL0     H70486   8.206  11.249   1.066 -1.0561  0.4513 -0.8789
  534MOL0     H70487   7.504  11.322   1.165  0.8493  0.3983  0.5643
  534MOL0     H70488   7.289  11.275   1.105  1.3201  1.7644  0.3195
  535MOL0     O70489   7.163   1.506   4.344 -0.0794 -0.4346  0.7988
  535MOL0     C70490   7.233   1.593   4.393  0.0541 -2.0326  0.2878
  535MOL0     O70491   7.182   1.725   4.408  0.1755 -0.2988 -0.1868
  535MOL0     C70492   7.064   1.760   4.364  0.9266  0.2212 -0.8574
  535MOL0     C70493   7.009   1.734   4.234 -0.2928  0.2833  0.3677
  535MOL0     C70494   6.882   1.782   4.200 -0.7060 -0.5259  0.2158
  535MOL0     C70495   6.810   1.865   4.286 -0.4374  0.2616 -0.5351
  535MOL0     O70496   6.700   1.928   4.236  0.6254 -0.1770 -0.5263
  535MOL0     C70497   6.627   2.028   4.306  0.2659 -0.0598  0.2683
  535MOL0     C70498   6.537   1.956   4.405  0.5213 -0.4828 -0.4960
  535MOL0     C70499   6.408   1.914   4.334 -0.4174 -0.6103 -0.4405
  535MOL0     C70500   6.309   1.852   4.432  1.0544 -0.4188  0.6328
  535MOL0     C70501   6.168   1.839   4.369 -0.6864 -0.1656  0.3517
  535MOL0     C70502   6.063   1.806   4.475 -0.9153  0.2396 -0.1042
  535MOL0     C70503   5.926   1.777   4.413 -0.1730 -0.8216 -0.5882
  535MOL0     C70504   5.865   1.903   4.346 -0.1855 -0.1519  0.8715
  535MOL0     N70505   5.723   1.892   4.341  0.1888  0.4277 -0.2110
  535MOL0     C70506   5.649   1.823   4.244 -0.9434  0.0739  0.1375
  535MOL0     C70507   5.520   1.841   4.277  0.2698  0.2523 -0.4807
  535MOL0     C70508   5.406   1.761   4.224 -0.2104 -0.8520 -0.0940
  535MOL0     C70509   5.405   1.622   4.283 -0.4231  0.3276  0.1422
  535MOL0     C70510   5.377   1.609   4.427 -0.0001  0.5695 -0.8362
  535MOL0     C70511   5.239   1.654   4.475 -0.3837 -0.4199  0.2228
  535MOL0     O70512   5.242   1.615   4.614 -0.4683 -0.4427  0.5596
  535MOL0     C70513   5.126   1.638   4.680  0.5689 -0.8359 -0.4352
  535MOL0     C70514   5.131   1.611   4.823  0.1872 -0.1707  1.4035
  535MOL0     C70515   5.017   1.613   4.895  0.1906 -0.1222 -0.3851
  535MOL0     C70516   4.894   1.620   4.828 -0.2579  0.3382 -0.0310
  535MOL0     C70517   4.772   1.584   4.901 -0.4514  0.2828  0.1538
  535MOL0     O70518   4.657   1.591   4.835 -0.1869 -0.0382 -0.0027
  535MOL0     C70519   4.539   1.544   4.882 -0.6477  0.4276 -0.6286
  535MOL0     C70520   4.424   1.623   4.881  0.3234 -0.3094  0.0028
  535MOL0     C70521   4.300   1.586   4.926 -0.0599 -0.3490 -0.4471
  535MOL0     C70522   4.281   1.458   4.988 -0.1912  0.9721  0.1113
  535MOL0     O70523   4.160   1.399   5.017  0.0034  0.2338 -0.2849
  535MOL0     C70524   4.046   1.449   4.945 -1.0570  0.2643 -0.2312
  535MOL0     C70525   3.957   1.548   5.033  0.4456 -0.6580 -0.3206
  535MOL0     C70526   3.903   1.480   5.151 -0.0137 -0.2290  0.1776
  535MOL0     C70527   3.805   1.568   5.240 -0.8578 -0.6855  0.9340
  535MOL0     C70528   3.662   1.609   5.180 -0.7783  0.3053  0.0912
  535MOL0     C70529   3.582   1.702   5.276  0.2660  0.2942 -0.4426
  535MOL0     C70530   3.539   1.635   5.410 -0.3110  0.0813 -0.0105
  535MOL0     C70531   3.501   1.747   5.504 -0.2212  0.5132 -0.1669
  535MOL0    Cl70532   3.332   1.711   5.560 -0.1530 -0.0759 -0.2845
  535MOL0     C70533   4.394   1.382   4.994 -1.1093  0.4876  0.4231
  535MOL0     C70534   4.518   1.417   4.935  0.6784 -0.4639 -0.1088
  535MOL0     O70535   4.789   1.547   5.014  0.1509  0.7595 -0.0790
  535MOL0     C70536   4.887   1.658   4.691 -0.1184  0.0879  0.6759
  535MOL0     C70537   5.003   1.674   4.626  0.6880  0.4516 -0.1728
  535MOL0     N70538   5.517   1.923   4.390 -0.0682 -0.0413 -0.2679
  535MOL0     N70539   5.639   1.963   4.417  0.5608 -0.7033  0.2977
  535MOL0     C70540   6.858   1.872   4.416 -0.1694  0.5004 -0.2284
  535MOL0     C70541   6.983   1.829   4.459 -0.3149 -0.0310  0.5414
  535MOL0     C70542   7.367   1.570   4.441  0.1247  0.3660 -0.6694
  535MOL0     C70543   7.439   1.674   4.500  0.3238  0.0616  0.6781
  535MOL0     C70544   7.560   1.649   4.557  0.4319  0.3752  0.3733
  535MOL0     C70545   7.606   1.521   4.576  0.4012  0.3090  1.0263
  535MOL0     O70546   7.727   1.485   4.628  0.1410 -0.1707  0.1633
  535MOL0     C70547   7.829   1.576   4.590 -0.3539  0.1433  0.1847
  535MOL0     C70548   7.972   1.511   4.599  0.5841 -0.2163 -0.7173
  535MOL0     C70549   8.043   1.548   4.746  0.3003  0.4014  0.9851
  535MOL0     C70550   8.186   1.506   4.776 -0.1377 -0.0771  0.2850
  535MOL0     C70551   8.287   1.581   4.694 -0.2220 -0.3849  0.4033
  535MOL0     C70552   8.365   1.644   4.626 -0.0647  0.2386 -0.6402
  535MOL0     C70553   7.530   1.415   4.514 -0.2796  0.6427 -0.4664
  535MOL0     C70554   7.416   1.442   4.446 -0.0041  0.0369 -0.3222
  535MOL0     H70555   7.062   1.685   4.153 -2.3071  0.2663 -1.0281
  535MOL0     H70556   6.835   1.757   4.105 -2.2658 -1.7786  1.2493
  535MOL0     H70557   6.561   2.088   4.243 -3.0004 -0.1484  3.2972
  535MOL0     H70558   6.703   2.089   4.356 -0.9945 -0.9817  3.5066
  535MOL0     H70559   6.514   2.036   4.476 -1.2610 -0.8410 -0.6149
  535MOL0     H70560   6.581   1.874   4.463 -1.6253 -1.1305  0.3325
  535MOL0     H70561   6.432   1.850   4.249 -0.6520 -2.8982  1.1193
  535MOL0     H70562   6.358   2.003   4.296 -1.1700  0.0410  1.8702
  535MOL0     H70563   6.343   1.755   4.469  0.8041 -0.2102  1.4297
  535MOL0     H70564   6.305   1.922   4.516  0.6808 -1.3742  1.4347
  535MOL0     H70565   6.157   1.753   4.302 -2.7641  2.1463 -2.5488
  535MOL0     H70566   6.160   1.926   4.304 -1.1459 -0.0147  0.6109
  535MOL0     H70567   6.063   1.888   4.548  3.3203  1.2208 -0.9670
  535MOL0     H70568   6.096   1.715   4.527 -1.4739 -0.3111 -0.7043
  535MOL0     H70569   5.925   1.694   4.341 -1.5322 -0.0141 -1.5462
  535MOL0     H70570   5.871   1.753   4.505  2.6479  1.1836  1.8339
  535MOL0     H70571   5.921   1.909   4.252  2.6075 -1.2457  2.3522
  535MOL0     H70572   5.882   1.990   4.410  0.7234  0.7187 -0.4908
  535MOL0     H70573   5.695   1.752   4.176  0.0140  0.5950  0.2193
  535MOL0     H70574   5.410   1.749   4.116  1.3409 -0.0680 -0.1557
  535MOL0     H70575   5.312   1.814   4.241 -0.1559 -1.0509  0.9014
  535MOL0     H70576   5.503   1.579   4.260 -0.7241  0.3525 -1.2828
  535MOL0     H70577   5.329   1.554   4.243  0.5714 -1.0031  0.4335
  535MOL0     H70578   5.381   1.503   4.454 -1.4936  1.1926  2.2514
  535MOL0     H70579   5.459   1.662   4.477  0.5942 -1.4861  0.5092
  535MOL0     H70580   5.168   1.612   4.403  1.3641 -1.4085 -0.9952
  535MOL0     H70581   5.240   1.763   4.464 -1.5314 -0.4513 -0.3195
  535MOL0     H70582   5.227   1.574   4.857  1.2838 -0.6829 -1.8324
  535MOL0     H70583   5.033   1.584   4.998 -1.2434 -0.6984 -0.2931
  535MOL0     H70584   4.442   1.720   4.835 -0.7700 -0.5132 -0.9000
  535MOL0     H70585   4.218   1.654   4.904  1.9586  1.6866 -2.1656
  535MOL0     H70586   3.980   1.367   4.913  1.0979 -1.3754 -0.7414
  535MOL0     H70587   4.077   1.504   4.856  2.6627  0.5542  1.0660
  535MOL0     H70588   3.880   1.578   4.962 -0.5449  0.9695  1.3611
  535MOL0     H70589   4.016   1.633   5.069  0.7046 -1.3303  0.8696
  535MOL0     H70590   3.985   1.453   5.218 -0.2635  1.4239  1.2185
  535MOL0     H70591   3.856   1.385   5.125 -1.6538  0.5627  0.1474
  535MOL0     H70592   3.781   1.503   5.325 -1.4680 -0.6822  0.7697
  535MOL0     H70593   3.852   1.657   5.283 -1.3570  1.1248 -2.0039
  535MOL0     H70594   3.604   1.522   5.149  3.6013 -2.5337 -1.0313
  535MOL0     H70595   3.681   1.659   5.085  0.5087 -2.9162 -1.5226
  535MOL0     H70596   3.486   1.735   5.233  0.7101 -2.1098 -3.6883
  535MOL0     H70597   3.642   1.789   5.301  2.7776 -2.1863  3.0085
  535MOL0     H70598   3.450   1.576   5.390 -2.3071  2.8824 -0.0587
  535MOL0     H70599   3.622   1.573   5.444 -0.9661  0.9430  3.5692
  535MOL0     H70600   3.514   1.850   5.469 -0.4174  0.3252 -0.8075
  535MOL0     H70601   3.564   1.736   5.593  2.1425  0.0887 -1.8175
  535MOL0     H70602   4.393   1.280   5.032  1.9743 -1.2228 -3.3063
  535MOL0     H70603   4.608   1.356   4.928  0.5169 -0.8297  0.8628
  535MOL0     H70604   4.801   1.671   4.626 -1.1624  1.0208  2.1648
  535MOL0     H70605   4.993   1.694   4.520  3.0703  1.8605 -0.2105
  535MOL0     H70606   6.817   1.923   4.502  2.4003  0.1947  1.2891
  535MOL0     H70607   7.020   1.844   4.560 -1.0844  0.1835  0.8005
  535MOL0     H70608   7.395   1.773   4.508 -0.8299 -0.4026  0.2307
  535MOL0     H70609   7.618   1.728   4.604 -1.0409  0.7691  1.6461
  535MOL0     H70610   7.828   1.663   4.656  0.7503  1.7290 -1.8071
  535MOL0     H70611   7.813   1.615   4.490  0.3389  0.1423  0.0700
  535MOL0     H70612   7.962   1.402   4.599 -0.7490 -0.1148  0.1840
  535MOL0     H70613   8.039   1.542   4.518 -0.3826  1.8227 -0.7925
  535MOL0     H70614   7.983   1.494   4.819  1.9082 -1.3493  1.0719
  535MOL0     H70615   8.043   1.657   4.758  1.5673  0.5956 -0.4824
  535MOL0     H70616   8.204   1.523   4.882 -1.2379 -0.8452  0.6107
  535MOL0     H70617   8.200   1.399   4.756 -1.0279 -0.4672  1.6296
  535MOL0     H70618   8.433   1.712   4.579 -1.3154  0.4123 -2.2804
  535MOL0     H70619   7.566   1.315   4.533  1.3053  1.1079 -0.8536
  535MOL0     H70620   7.362   1.362   4.397  0.5308 -0.5855  0.0764
  536MOL0     O70621   5.592   6.486   4.166 -0.6054 -0.0609 -0.1244
  536MOL0     C70622   5.516   6.437   4.081  0.5382  0.5471 -0.3702
  536MOL0     O70623   5.551   6.348   3.982 -0.1396 -0.3483 -0.0422
  536MOL0     C70624   5.687   6.333   3.976  0.2471 -0.0857 -0.6977
  536MOL0     C70625   5.782   6.431   3.929 -0.7439  0.0123 -0.2334
  536MOL0     C70626   5.918   6.401   3.915 -0.0686  0.5607 -0.1602
  536MOL0     C70627   5.964   6.275   3.944  0.0800  0.2847  0.3453
  536MOL0     O70628   6.096   6.245   3.913  0.5969 -0.2420  0.5503
  536MOL0     C70629   6.118   6.138   3.819 -0.2924 -0.0661  0.8817
  536MOL0     C70630   6.267   6.112   3.798 -0.7865 -0.4654 -0.2420
  536MOL0     C70631   6.351   6.238   3.766  0.0170 -0.6281 -0.3527
  536MOL0     C70632   6.503   6.201   3.775  0.3575 -0.3161 -0.5852
  536MOL0     C70633   6.585   6.330   3.730  0.6788  0.3257  0.6058
  536MOL0     C70634   6.735   6.316   3.740 -0.5491  0.3570  0.6020
  536MOL0     C70635   6.827   6.436   3.694  0.1624  0.5346 -0.8007
  536MOL0     C70636   6.765   6.542   3.593  0.2470 -0.2864 -0.4049
  536MOL0     N70637   6.868   6.631   3.539  0.0992 -0.0639  0.3383
  536MOL0     C70638   6.846   6.700   3.415  0.2834  0.3812  0.4703
  536MOL0     C70639   6.933   6.801   3.412  0.6135  1.0363 -0.4938
  536MOL0     C70640   6.972   6.887   3.297 -0.5659 -0.3133  0.1666
  536MOL0     C70641   7.122   6.885   3.260 -0.3685  0.7306 -0.3816
  536MOL0     C70642   7.155   6.977   3.140  0.4728  0.0265 -0.4494
  536MOL0     C70643   7.300   6.992   3.107 -0.7551 -0.4984 -1.1603
  536MOL0     O70644   7.310   7.120   3.040  0.2779  0.3370  0.6209
  536MOL0     C70645   7.430   7.147   2.975  0.0311 -0.4722 -0.4241
  536MOL0     C70646   7.526   7.053   2.963 -0.4592 -0.1559 -0.8936
  536MOL0     C70647   7.652   7.091   2.907  0.4445  0.4603  0.7542
  536MOL0     C70648   7.682   7.223   2.877 -0.0940 -0.2982  0.5641
  536MOL0     C70649   7.810   7.265   2.818  1.0650  0.1429  1.3065
  536MOL0     O70650   7.915   7.173   2.809 -1.4203 -0.2818  0.0043
  536MOL0     C70651   8.034   7.217   2.744  0.4383 -0.5345 -0.1563
  536MOL0     C70652   8.079   7.347   2.754 -0.2254  0.4486  0.2348
  536MOL0     C70653   8.206   7.393   2.702  0.5732 -0.2913  0.3108
  536MOL0     C70654   8.293   7.291   2.645  0.8260 -0.8803 -0.8763
  536MOL0     O70655   8.413   7.314   2.588  0.3529  0.4434  0.6536
  536MOL0     C70656   8.478   7.438   2.588  0.2466 -0.2785 -0.6780
  536MOL0     C70657   8.627   7.418   2.541  0.7661  0.3359 -0.0066
  536MOL0     C70658   8.700   7.554   2.543  0.1081 -0.3326 -0.0008
  536MOL0     C70659   8.846   7.536   2.485  0.1533 -0.2136 -0.7681
  536MOL0     C70660   8.918   7.669   2.453 -0.4799  0.1534  0.1423
  536MOL0     C70661   9.066   7.622   2.412 -0.1651 -0.4188 -0.0293
  536MOL0     C70662   9.136   7.744   2.347  0.1867 -0.4282 -0.5767
  536MOL0     C70663   9.288   7.721   2.346  0.0185  0.2117 -0.5038
  536MOL0    Cl70664   9.369   7.841   2.236 -0.0340  0.1865  0.2397
  536MOL0     C70665   8.255   7.155   2.654  0.2998  0.1921  0.3574
  536MOL0     C70666   8.127   7.122   2.706 -0.2781 -0.1234  0.3373
  536MOL0     O70667   7.805   7.378   2.764 -0.2137 -0.2205  0.3971
  536MOL0     C70668   7.577   7.316   2.894  0.2495 -0.7328  0.5279
  536MOL0     C70669   7.447   7.278   2.934 -0.7739  0.0059  0.1789
  536MOL0     N70670   6.994   6.799   3.530 -0.4049  0.1901 -0.4536
  536MOL0     N70671   6.956   6.707   3.615  0.2436 -0.4944  0.6803
  536MOL0     C70672   5.879   6.175   3.975  0.9460  0.8330 -0.1415
  536MOL0     C70673   5.741   6.204   3.995  1.0373  0.3730 -0.2857
  536MOL0     C70674   5.376   6.479   4.085  0.0529  0.2378  0.2089
  536MOL0     C70675   5.327   6.569   4.167 -0.3663 -0.1465  0.0666
  536MOL0     C70676   5.193   6.604   4.174  0.9279 -0.3012 -0.4096
  536MOL0     C70677   5.096   6.554   4.093  0.0615  0.1433 -0.0561
  536MOL0     O70678   4.960   6.585   4.107  0.1772  0.2981 -0.2241
  536MOL0     C70679   4.921   6.705   4.177  0.0757 -0.8822 -0.6954
  536MOL0     C70680   4.822   6.790   4.088 -0.1148 -0.7815  0.6485
  536MOL0     C70681   4.695   6.709   4.050 -0.0943 -0.1597 -0.0763
  536MOL0     C70682   4.603   6.799   3.965 -0.7917  0.1302 -0.0773
  536MOL0     C70683   4.486   6.728   3.922 -0.4402 -0.1857 -0.4604
  536MOL0     C70684   4.387   6.668   3.902 -0.2108  0.1735  0.8253
  536MOL0     C70685   5.146   6.463   3.997  0.1055  0.1238 -0.2876
  536MOL0     C70686   5.280   6.424   4.001 -0.5333  0.7735 -0.0569
  536MOL0     H70687   5.742   6.532   3.920 -2.2480 -0.6086 -0.7916
  536MOL0     H70688   5.986   6.476   3.877  1.1199  0.7315  2.1389
  536MOL0     H70689   6.079   6.172   3.723  2.2403  0.9745  0.1314
  536MOL0     H70690   6.068   6.048   3.856  2.1717 -0.9349  2.3473
  536MOL0     H70691   6.273   6.045   3.712 -0.7523 -1.1710  0.2946
  536MOL0     H70692   6.311   6.063   3.886  2.6318  2.8479  0.1517
  536MOL0     H70693   6.337   6.328   3.827  0.2576  1.1896 -2.8012
  536MOL0     H70694   6.321   6.273   3.666 -1.0310  2.5041  0.9246
  536MOL0     H70695   6.538   6.174   3.875  3.9304 -0.1219 -1.6630
  536MOL0     H70696   6.531   6.115   3.714  0.9312 -1.1673  0.8246
  536MOL0     H70697   6.556   6.410   3.799 -0.5090 -1.6662  2.5324
  536MOL0     H70698   6.546   6.350   3.629 -3.4394  0.9381  2.1082
  536MOL0     H70699   6.755   6.232   3.672  1.8743  0.0935  1.5230
  536MOL0     H70700   6.762   6.280   3.840 -1.3697 -0.9079  0.3876
  536MOL0     H70701   6.850   6.490   3.787  1.4628 -1.3433  0.0395
  536MOL0     H70702   6.915   6.383   3.657 -0.0602 -2.8809  2.8718
  536MOL0     H70703   6.692   6.598   3.652  1.1777  0.1146  0.3973
  536MOL0     H70704   6.704   6.505   3.510 -1.6532  2.4450 -0.3546
  536MOL0     H70705   6.780   6.672   3.333  0.4143 -1.8228  1.0613
  536MOL0     H70706   6.946   6.991   3.320  3.7382  1.3951 -1.6331
  536MOL0     H70707   6.920   6.839   3.213  0.2379 -0.9882  0.0456
  536MOL0     H70708   7.154   6.782   3.241 -0.4395  0.9354 -1.7513
  536MOL0     H70709   7.176   6.909   3.351 -0.4046 -2.3365  0.5609
  536MOL0     H70710   7.113   6.944   3.045 -0.4661 -0.7261  0.1998
  536MOL0     H70711   7.114   7.073   3.171  3.5178  1.2379  0.1735
  536MOL0     H70712   7.324   6.915   3.033  1.2656  0.4467 -1.5853
  536MOL0     H70713   7.367   6.994   3.194 -2.4382 -0.4542  0.1730
  536MOL0     H70714   7.528   6.948   2.989  3.0745  0.0005  0.0309
  536MOL0     H70715   7.726   7.014   2.884  0.2031  0.2143  0.8010
  536MOL0     H70716   8.027   7.427   2.805 -0.0215  0.8317 -0.1478
  536MOL0     H70717   8.231   7.498   2.708  0.4955 -0.2866  0.5793
  536MOL0     H70718   8.489   7.470   2.692  0.7366  4.5954 -1.9880
  536MOL0     H70719   8.430   7.512   2.523 -4.7966 -2.5964 -0.1114
  536MOL0     H70720   8.636   7.368   2.444  3.4027 -1.1891  0.9341
  536MOL0     H70721   8.689   7.359   2.609 -0.5247 -1.0836  0.0082
  536MOL0     H70722   8.700   7.602   2.641  1.8027  0.6337 -0.4247
  536MOL0     H70723   8.648   7.630   2.484  2.5751 -0.1593 -2.1596
  536MOL0     H70724   8.906   7.472   2.550  0.7764 -0.0323 -1.1534
  536MOL0     H70725   8.842   7.488   2.387  1.2617 -2.2814  0.1395
  536MOL0     H70726   8.916   7.736   2.539 -0.6037 -0.1790  0.3980
  536MOL0     H70727   8.869   7.722   2.371  2.1078  2.3094 -0.1827
  536MOL0     H70728   9.063   7.545   2.335  2.0464  1.6343 -2.3896
  536MOL0     H70729   9.126   7.594   2.499  1.8530 -0.8197 -1.4793
  536MOL0     H70730   9.095   7.756   2.247 -1.7884  2.8182  0.4821
  536MOL0     H70731   9.115   7.837   2.401  3.2543 -1.3734  2.6499
  536MOL0     H70732   9.308   7.620   2.309  1.1812 -0.7918  2.5074
  536MOL0     H70733   9.323   7.724   2.450 -1.4089  0.0576  0.0063
  536MOL0     H70734   8.331   7.088   2.616 -0.4328 -1.4443  1.6784
  536MOL0     H70735   8.105   7.018   2.730 -0.4423 -0.0924  0.3247
  536MOL0     H70736   7.582   7.419   2.858 -5.2571  0.0594  1.1287
  536MOL0     H70737   7.371   7.353   2.954  0.9976  1.5436  1.6243
  536MOL0     H70738   5.905   6.071   3.993 -1.2970  0.5065  1.6299
  536MOL0     H70739   5.671   6.125   4.021 -1.0484  2.7358  1.8851
  536MOL0     H70740   5.403   6.612   4.232  0.0441  1.1433 -1.2197
  536MOL0     H70741   5.165   6.684   4.242 -1.8488 -1.5263  0.0313
  536MOL0     H70742   5.005   6.773   4.192  2.1078 -3.1024 -1.3242
  536MOL0     H70743   4.876   6.673   4.271  1.0218 -0.6313 -0.1569
  536MOL0     H70744   4.792   6.885   4.133 -0.0831 -0.5292  0.1480
  536MOL0     H70745   4.877   6.817   3.998  1.4941  0.5005  1.9671
  536MOL0     H70746   4.650   6.671   4.142  1.6526 -3.0223 -0.2945
  536MOL0     H70747   4.712   6.619   3.989 -1.0531 -1.5012  1.5376
  536MOL0     H70748   4.553   6.881   4.017 -3.4633 -1.5093  0.0844
  536MOL0     H70749   4.657   6.839   3.878  2.1239 -2.6481  0.2424
  536MOL0     H70750   4.291   6.623   3.886 -2.1669  4.3673 -1.0501
  536MOL0     H70751   5.076   6.419   3.926 -2.1117  0.1120  1.7868
  536MOL0     H70752   5.319   6.351   3.931 -0.8491  0.4722  0.0812
  537MOL0     O70753   6.571   2.351   6.323 -0.6445  0.1228  0.1064
  537MOL0     C70754   6.665   2.272   6.353 -0.4410 -0.5096  0.6039
  537MOL0     O70755   6.681   2.146   6.309 -0.2481  0.1782  0.3279
  537MOL0     C70756   6.578   2.076   6.249  0.3191 -0.4499 -0.2452
  537MOL0     C70757   6.583   2.054   6.111  0.2616  0.0251  0.4491
  537MOL0     C70758   6.474   1.987   6.052  0.0883  0.9014  0.3782
  537MOL0     C70759   6.364   1.940   6.125  1.2630  0.3292  0.7489
  537MOL0     O70760   6.265   1.874   6.068  0.9780 -0.7380 -0.6529
  537MOL0     C70761   6.303   1.760   5.990 -0.3842  0.1547 -0.3884
  537MOL0     C70762   6.224   1.769   5.857  0.2409 -0.1980  0.8775
  537MOL0     C70763   6.075   1.760   5.862  0.2553  0.0871 -0.1342
  537MOL0     C70764   6.024   1.641   5.943 -0.2192 -0.3460 -0.0553
  537MOL0     C70765   5.873   1.617   5.896 -0.3841 -0.1834  0.0506
  537MOL0     C70766   5.810   1.510   5.987 -0.0291 -0.3193  0.1185
  537MOL0     C70767   5.656   1.512   5.960  0.4487  0.1443  0.7186
  537MOL0     C70768   5.584   1.415   6.051 -0.1675  0.0516 -0.1809
  537MOL0     N70769   5.437   1.398   6.025 -0.4642 -0.0202 -0.5321
  537MOL0     C70770   5.338   1.473   6.087  0.6027  0.2210  0.5777
  537MOL0     C70771   5.218   1.403   6.078  0.0130 -0.4380  0.3477
  537MOL0     C70772   5.089   1.465   6.136 -0.3496 -0.4744  0.5681
  537MOL0     C70773   4.983   1.478   6.021  0.3447  0.1015 -0.7114
  537MOL0     C70774   4.854   1.528   6.087 -0.5053 -0.5181 -0.2871
  537MOL0     C70775   4.733   1.480   6.020  0.4104 -0.0086 -0.2051
  537MOL0     O70776   4.713   1.342   6.060 -0.2179 -0.7150  1.1019
  537MOL0     C70777   4.584   1.298   6.030  0.0065  0.0614 -0.3170
  537MOL0     C70778   4.481   1.368   5.953  0.1707  0.6868 -0.3147
  537MOL0     C70779   4.345   1.318   5.950 -0.1381 -1.3206 -0.6482
  537MOL0     C70780   4.311   1.209   6.020  0.3097  0.1407 -0.4959
  537MOL0     C70781   4.178   1.141   5.996  1.2562 -0.4468 -0.0152
  537MOL0     O70782   4.160   1.010   6.001 -0.1959  0.3807  0.1703
  537MOL0     C70783   4.033   0.963   6.017  0.4480  0.4901 -0.3649
  537MOL0     C70784   3.980   0.948   6.151  0.3688  0.0355 -0.3402
  537MOL0     C70785   3.848   0.890   6.169  0.3021 -0.3787  0.4306
  537MOL0     C70786   3.761   0.867   6.061 -0.1598  0.0898  0.3399
  537MOL0     O70787   3.636   0.817   6.086  0.4357  0.1264 -0.1481
  537MOL0     C70788   3.527   0.865   6.009 -0.0686  0.5477  0.7691
  537MOL0     C70789   3.501   1.015   6.010 -0.7134  0.2983 -0.6731
  537MOL0     C70790   3.350   1.042   5.986 -0.1654 -0.2223  0.5853
  537MOL0     C70791   3.294   0.970   5.863  0.1698  0.0837  0.5836
  537MOL0     C70792   3.150   1.012   5.809 -0.2134 -0.0182 -0.2442
  537MOL0     C70793   3.085   0.934   5.691  0.3449 -0.8009  0.7458
  537MOL0     C70794   2.952   0.998   5.660  0.4202 -0.2295 -0.7357
  537MOL0     C70795   2.881   0.958   5.528  0.6943 -0.1441  0.0466
  537MOL0    Cl70796   2.999   0.998   5.403 -0.0931  0.2710  0.1380
  537MOL0     C70797   3.808   0.885   5.928 -0.3141  0.6250  0.0875
  537MOL0     C70798   3.947   0.928   5.909  0.6525  0.5804 -0.6130
  537MOL0     O70799   4.082   1.227   5.983  0.1502  0.3212 -0.1281
  537MOL0     C70800   4.413   1.138   6.084  0.2947  0.6642  0.3465
  537MOL0     C70801   4.545   1.179   6.089  0.1791  0.7826 -0.3000
  537MOL0     N70802   5.247   1.281   6.014  0.0153  0.4731 -0.8449
  537MOL0     N70803   5.376   1.280   5.992 -0.1231  0.0614  1.2317
  537MOL0     C70804   6.365   1.954   6.266  0.7177 -0.0693 -0.4511
  537MOL0     C70805   6.472   2.026   6.320 -0.5906 -0.3754 -0.4712
  537MOL0     C70806   6.770   2.317   6.450 -0.7846  0.0550 -0.3595
  537MOL0     C70807   6.838   2.230   6.538 -0.0316  0.1622 -0.1283
  537MOL0     C70808   6.935   2.272   6.626 -0.6172  0.4729 -0.4192
  537MOL0     C70809   6.976   2.407   6.630 -0.9518 -0.2353  0.4311
  537MOL0     O70810   7.073   2.471   6.703 -0.0975 -0.4166 -0.2039
  537MOL0     C70811   7.151   2.393   6.787  0.0423 -0.2383 -0.4036
  537MOL0     C70812   7.248   2.301   6.720 -0.2606 -0.1846 -0.3706
  537MOL0     C70813   7.391   2.316   6.769  0.8224  0.2065  0.9340
  537MOL0     C70814   7.459   2.433   6.695  0.3004  0.0539 -0.0069
  537MOL0     C70815   7.605   2.429   6.720 -0.8599  0.7232 -0.4478
  537MOL0     C70816   7.724   2.448   6.760  0.3810  0.8749  0.2374
  537MOL0     C70817   6.911   2.497   6.534  0.2867  0.4173 -0.4395
  537MOL0     C70818   6.809   2.451   6.445 -0.2053 -0.0776 -0.4189
  537MOL0     H70819   6.671   2.085   6.055 -1.6390  0.8395 -2.2683
  537MOL0     H70820   6.478   1.970   5.945 -0.1072  1.1488  0.3292
  537MOL0     H70821   6.276   1.666   6.039  1.1315 -0.4931 -0.7491
  537MOL0     H70822   6.411   1.763   5.971  0.1731  0.8525  2.4425
  537MOL0     H70823   6.245   1.678   5.801 -1.8201  1.0109 -2.0938
  537MOL0     H70824   6.256   1.862   5.810  0.1773  0.2393  1.6766
  537MOL0     H70825   6.042   1.766   5.758  2.4694 -0.4929 -0.9112
  537MOL0     H70826   6.028   1.853   5.897 -1.4438  0.5056 -3.2048
  537MOL0     H70827   6.073   1.545   5.923  1.8794  0.4669  0.9192
  537MOL0     H70828   6.018   1.658   6.050 -0.2200  0.1766 -0.1331
  537MOL0     H70829   5.872   1.583   5.792  1.0879 -3.4934  0.9926
  537MOL0     H70830   5.824   1.714   5.908  1.2859  0.6338  0.6270
  537MOL0     H70831   5.831   1.541   6.090  0.1140  4.8072 -1.1934
  537MOL0     H70832   5.855   1.413   5.964  0.5887 -0.3118  1.2128
  537MOL0     H70833   5.622   1.614   5.976 -0.6489 -0.1135  0.1517
  537MOL0     H70834   5.628   1.478   5.860 -0.3953 -2.7972  1.8368
  537MOL0     H70835   5.601   1.449   6.154  1.0823 -0.4752 -0.1910
  537MOL0     H70836   5.626   1.314   6.036  1.0398  1.0420 -5.3960
  537MOL0     H70837   5.345   1.567   6.141 -2.7644 -0.1255  1.8561
  537MOL0     H70838   5.108   1.570   6.160 -2.7105  0.2992 -0.5713
  537MOL0     H70839   5.062   1.405   6.224  0.9196 -0.1875  1.1767
  537MOL0     H70840   4.965   1.378   5.980 -2.3098  0.9116 -1.7511
  537MOL0     H70841   5.010   1.541   5.936 -0.0971  1.3271  0.0176
  537MOL0     H70842   4.862   1.483   6.187  2.0529 -1.7715 -0.9509
  537MOL0     H70843   4.847   1.637   6.085 -2.4963 -0.5407  2.0725
  537MOL0     H70844   4.739   1.482   5.911 -1.1713 -0.6623 -0.3333
  537MOL0     H70845   4.650   1.541   6.056  2.0569  2.1826  0.0984
  537MOL0     H70846   4.509   1.445   5.882  2.6240 -2.3162 -2.9063
  537MOL0     H70847   4.271   1.370   5.890  0.0659 -0.7829 -0.4324
  537MOL0     H70848   4.039   0.960   6.241 -0.2189 -2.3863  0.4327
  537MOL0     H70849   3.820   0.862   6.271  0.4515  0.6400  0.7695
  537MOL0     H70850   3.442   0.808   6.048  1.1391 -1.8109  0.1499
  537MOL0     H70851   3.554   0.833   5.908  1.4649  1.5385  0.8356
  537MOL0     H70852   3.561   1.065   5.933 -1.1589  1.3862 -0.3383
  537MOL0     H70853   3.531   1.065   6.103  0.9519  0.4318 -1.2535
  537MOL0     H70854   3.333   1.146   5.955  0.5688 -0.5851 -1.1616
  537MOL0     H70855   3.289   1.020   6.074  0.0954  0.7138  1.0082
  537MOL0     H70856   3.361   0.987   5.779  0.1327 -1.1241  0.2796
  537MOL0     H70857   3.295   0.861   5.872 -1.4582 -0.1653 -1.5142
  537MOL0     H70858   3.154   1.117   5.779  3.9163 -0.0827 -0.4563
  537MOL0     H70859   3.081   0.990   5.891 -0.6954  0.6316 -0.4686
  537MOL0     H70860   3.069   0.830   5.718 -0.7972 -0.9877 -0.5555
  537MOL0     H70861   3.153   0.943   5.606  1.2849 -1.8166  1.3625
  537MOL0     H70862   2.878   0.981   5.739  0.4255  3.7922  0.3412
  537MOL0     H70863   2.970   1.105   5.655  0.1589 -0.0723  1.2091
  537MOL0     H70864   2.793   1.024   5.516  1.5353  0.7842 -1.3155
  537MOL0     H70865   2.852   0.853   5.531  0.7362 -0.1374  1.0571
  537MOL0     H70866   3.742   0.871   5.844  0.6425  0.5548 -0.6774
  537MOL0     H70867   3.986   0.937   5.808  2.0326 -1.9967 -0.3914
  537MOL0     H70868   4.388   1.045   6.134  3.0509 -2.2285 -3.0843
  537MOL0     H70869   4.616   1.110   6.132 -1.1607 -0.2597  0.3247
  537MOL0     H70870   6.284   1.905   6.320  0.0005  1.4032 -0.1357
  537MOL0     H70871   6.488   2.044   6.426  1.9339 -0.4926 -0.7769
  537MOL0     H70872   6.811   2.125   6.548 -0.5041 -0.0183 -2.6022
  537MOL0     H70873   6.984   2.197   6.687 -0.0236  2.9098  2.3118
  537MOL0     H70874   7.080   2.336   6.847 -0.3073  1.9421  1.3912
  537MOL0     H70875   7.217   2.456   6.848  1.7814 -1.8499 -0.5230
  537MOL0     H70876   7.206   2.204   6.748 -2.4965  0.7863 -0.1252
  537MOL0     H70877   7.245   2.311   6.612 -2.0842 -4.8016 -0.9941
  537MOL0     H70878   7.435   2.222   6.733 -1.9840 -0.7522 -0.2717
  537MOL0     H70879   7.396   2.317   6.878 -0.4466 -0.9295  1.0220
  537MOL0     H70880   7.432   2.434   6.589 -0.9657  1.9076  0.2845
  537MOL0     H70881   7.428   2.524   6.748 -1.9920 -0.2992 -0.6290
  537MOL0     H70882   7.824   2.468   6.791 -0.0042 -0.0234  2.2136
  537MOL0     H70883   6.944   2.601   6.534  0.2268  0.4812  1.4853
  537MOL0     H70884   6.763   2.525   6.381 -0.9202  0.9864  1.2590
  538MOL0     O70885   2.514   3.505   2.099 -0.0852  0.0557  0.1328
  538MOL0     C70886   2.621   3.442   2.131 -0.2240 -0.9632  0.4456
  538MOL0     O70887   2.628   3.317   2.172  0.3801  0.6334 -0.2183
  538MOL0     C70888   2.519   3.237   2.138 -0.4526 -0.0545 -0.1883
  538MOL0     C70889   2.523   3.153   2.026 -0.2467  0.2880 -0.3082
  538MOL0     C70890   2.424   3.056   1.999  0.1007 -0.2644 -0.1221
  538MOL0     C70891   2.313   3.054   2.092 -0.4934 -0.2689 -0.0346
  538MOL0     O70892   2.223   2.955   2.076 -0.1834  0.2804  0.2204
  538MOL0     C70893   2.189   2.897   1.953 -0.5334 -0.0181 -0.4566
  538MOL0     C70894   2.052   2.823   1.958 -0.9479  0.3273  0.7285
  538MOL0     C70895   2.037   2.695   2.042 -0.2870  0.0898 -0.0574
  538MOL0     C70896   1.901   2.638   2.015  0.0360  0.2501 -0.0019
  538MOL0     C70897   1.859   2.526   2.103 -0.0261  0.0050 -0.2243
  538MOL0     C70898   1.950   2.397   2.081  0.9833 -1.0305  0.4278
  538MOL0     C70899   1.920   2.279   2.184 -0.2115 -0.3655  0.3561
  538MOL0     C70900   1.953   2.306   2.325 -0.5687  0.0635 -1.1713
  538MOL0     N70901   1.909   2.215   2.428  0.8792  0.6134 -0.7518
  538MOL0     C70902   1.788   2.217   2.499 -0.9602  0.7928  0.1660
  538MOL0     C70903   1.783   2.100   2.563  0.3127 -0.7993 -0.5957
  538MOL0     C70904   1.672   2.048   2.645 -0.4538 -0.0385  0.2119
  538MOL0     C70905   1.713   1.949   2.758 -0.1248 -0.9299 -0.5070
  538MOL0     C70906   1.605   1.941   2.872 -0.6095 -0.2742  0.6845
  538MOL0     C70907   1.653   1.839   2.977 -1.4457  0.3057 -0.5690
  538MOL0     O70908   1.550   1.748   3.018  0.2895  0.1936 -0.1738
  538MOL0     C70909   1.437   1.800   3.081 -0.1820 -0.2984 -1.0835
  538MOL0     C70910   1.344   1.707   3.106  0.4648 -0.7421 -0.0881
  538MOL0     C70911   1.222   1.741   3.170 -0.1554  0.4156 -0.5948
  538MOL0     C70912   1.192   1.872   3.206 -0.6202 -0.3868 -0.4743
  538MOL0     C70913   1.066   1.912   3.262 -0.5363  1.0253  0.9725
  538MOL0     O70914   0.964   1.826   3.257 -0.0818 -0.3379 -0.3234
  538MOL0     C70915   0.834   1.877   3.267  0.6653  0.4224 -0.2874
  538MOL0     C70916   0.780   1.998   3.240 -0.5012 -0.8092  0.2474
  538MOL0     C70917   0.648   2.036   3.268  0.4117  0.0843  0.1835
  538MOL0     C70918   0.551   1.938   3.302  0.0138 -0.1684  0.2835
  538MOL0     O70919   0.414   1.969   3.311  0.0534  0.1267  0.2788
  538MOL0     C70920   0.385   2.104   3.364 -0.2450 -0.7535 -0.6559
  538MOL0     C70921   0.241   2.110   3.423  0.0548  0.4672  0.6879
  538MOL0     C70922   0.205   2.248   3.463 -0.6476 -0.0187  0.1224
  538MOL0     C70923   0.056   2.263   3.462 -0.2024 -0.3572  0.0243
  538MOL0     C70924   0.017   2.410   3.506  0.2476  0.7914  0.0934
  538MOL0     C70925  -0.130   2.421   3.546  0.1434  0.8660  0.5549
  538MOL0     C70926  -0.157   2.564   3.583  1.1172  0.2349 -0.0002
  538MOL0     C70927  -0.303   2.562   3.649  0.5621  0.9498 -0.2185
  538MOL0    Cl70928  -0.336   2.732   3.712  0.0070 -0.0412  0.2669
  538MOL0     C70929   0.604   1.811   3.318 -0.7902 -0.6650 -0.6902
  538MOL0     C70930   0.742   1.781   3.315 -0.6563  0.6867  0.3491
  538MOL0     O70931   1.063   2.025   3.316 -0.1625  0.4413 -0.0268
  538MOL0     C70932   1.292   1.969   3.184  0.5134  0.5439 -0.2381
  538MOL0     C70933   1.418   1.932   3.122  0.0525 -0.2203 -0.9502
  538MOL0     N70934   1.897   2.032   2.540  0.1625 -0.5348 -0.5657
  538MOL0     N70935   1.975   2.098   2.455  0.1092 -0.3095 -0.6726
  538MOL0     C70936   2.299   3.150   2.200 -0.2293 -0.5921  0.2163
  538MOL0     C70937   2.410   3.238   2.224  0.3015 -0.4417  0.1970
  538MOL0     C70938   2.737   3.525   2.139 -0.5917  0.8423  0.9017
  538MOL0     C70939   2.740   3.655   2.090  0.3734  0.1619  0.6570
  538MOL0     C70940   2.857   3.727   2.102 -0.5603  0.0953  0.5441
  538MOL0     C70941   2.969   3.666   2.166  0.6336  0.2618 -0.5620
  538MOL0     O70942   3.076   3.752   2.200 -0.3825 -0.0003  0.1455
  538MOL0     C70943   3.209   3.693   2.200 -0.3999  0.0736  0.7413
  538MOL0     C70944   3.319   3.798   2.228  0.5642 -0.5362 -0.4362
  538MOL0     C70945   3.456   3.749   2.228  0.5222  0.3789 -0.2276
  538MOL0     C70946   3.559   3.855   2.218  1.0581  0.2229  0.2252
  538MOL0     C70947   3.693   3.832   2.286  0.0355 -0.8752  0.3663
  538MOL0     C70948   3.804   3.803   2.322  0.2862  0.0240  0.1636
  538MOL0     C70949   2.964   3.535   2.218  1.2224 -0.3992 -1.0865
  538MOL0     C70950   2.848   3.466   2.205  0.5835 -0.0741  0.0900
  538MOL0     H70951   2.608   3.142   1.961  1.4299 -0.3474  1.8576
  538MOL0     H70952   2.443   2.986   1.918 -1.5383 -1.2231  0.2637
  538MOL0     H70953   2.268   2.830   1.917  0.7573  1.8226 -1.2100
  538MOL0     H70954   2.188   2.977   1.877  2.4219 -0.8175 -1.4863
  538MOL0     H70955   2.012   2.808   1.858 -1.3487 -4.1227  1.3534
  538MOL0     H70956   1.991   2.899   2.009  1.5355  2.2021  1.1571
  538MOL0     H70957   2.050   2.714   2.149  0.6842  1.0268 -0.3247
  538MOL0     H70958   2.112   2.625   2.004 -1.2619 -0.4052 -1.1475
  538MOL0     H70959   1.827   2.718   2.021  0.5595  0.7869 -0.5425
  538MOL0     H70960   1.901   2.596   1.914 -1.5790 -0.2623  0.1759
  538MOL0     H70961   1.755   2.503   2.078  0.9783 -3.2792 -1.8494
  538MOL0     H70962   1.861   2.560   2.207  1.5010 -1.3517  0.2354
  538MOL0     H70963   2.055   2.424   2.093  1.0818 -0.9461 -0.5680
  538MOL0     H70964   1.928   2.373   1.977  0.6655  1.9449 -0.2713
  538MOL0     H70965   1.814   2.260   2.168  0.0503 -2.0542  0.4182
  538MOL0     H70966   1.984   2.196   2.152 -0.6544 -0.6629  0.2405
  538MOL0     H70967   1.923   2.407   2.355  0.4870  0.9840 -3.0263
  538MOL0     H70968   2.062   2.307   2.337 -0.8853  0.2954  3.5505
  538MOL0     H70969   1.706   2.288   2.493 -1.1491  0.4749 -1.5074
  538MOL0     H70970   1.598   2.010   2.575 -0.2684  1.3038 -0.7627
  538MOL0     H70971   1.624   2.134   2.693  0.5101  1.0278 -0.6567
  538MOL0     H70972   1.804   1.993   2.799 -0.3646 -0.4940 -0.4356
  538MOL0     H70973   1.738   1.848   2.725  4.0688  0.7097 -3.1925
  538MOL0     H70974   1.595   2.039   2.920  1.7297 -0.3433  1.4378
  538MOL0     H70975   1.515   1.913   2.817 -1.1054  1.5900  0.4878
  538MOL0     H70976   1.695   1.892   3.063 -1.9222 -0.5536  0.2142
  538MOL0     H70977   1.737   1.776   2.944  1.1317  0.9710  3.9044
  538MOL0     H70978   1.354   1.602   3.078  1.0820 -0.9956  0.9960
  538MOL0     H70979   1.154   1.662   3.201  0.1069  1.2682  2.4586
  538MOL0     H70980   0.854   2.067   3.200  0.9303 -2.6052 -0.3177
  538MOL0     H70981   0.624   2.140   3.253 -0.2370 -0.1370 -0.3448
  538MOL0     H70982   0.402   2.170   3.278  0.0106 -1.6606 -1.3175
  538MOL0     H70983   0.453   2.123   3.448 -2.9226  2.4396  1.0036
  538MOL0     H70984   0.238   2.042   3.509  2.0707 -0.7794 -0.1586
  538MOL0     H70985   0.174   2.065   3.350  0.2184  0.0047  0.8214
  538MOL0     H70986   0.256   2.322   3.400  1.7857  0.5796  2.6298
  538MOL0     H70987   0.244   2.263   3.563  1.6193  0.5709 -0.8008
  538MOL0     H70988   0.013   2.238   3.364  0.8967 -0.4135 -0.4506
  538MOL0     H70989   0.003   2.193   3.527 -1.9544  0.3821 -0.5385
  538MOL0     H70990   0.046   2.472   3.420 -2.4770  0.7801 -0.9402
  538MOL0     H70991   0.071   2.444   3.594  2.3103 -0.8478 -0.4717
  538MOL0     H70992  -0.163   2.357   3.628 -0.9423 -0.3894 -0.7909
  538MOL0     H70993  -0.186   2.388   3.458  0.0698 -1.6148  1.4381
  538MOL0     H70994  -0.089   2.608   3.657 -0.8550  2.3070  0.7209
  538MOL0     H70995  -0.157   2.625   3.492  1.4561  2.4354  1.4113
  538MOL0     H70996  -0.299   2.495   3.735 -1.2442 -1.4992 -1.9027
  538MOL0     H70997  -0.368   2.529   3.568  1.6494 -2.0607  0.0220
  538MOL0     H70998   0.529   1.733   3.333 -1.4732  0.0392 -0.3591
  538MOL0     H70999   0.777   1.681   3.338 -1.6175 -0.0279 -1.1589
  538MOL0     H71000   1.275   2.073   3.211 -2.5809  0.0050  0.2549
  538MOL0     H71001   1.494   2.007   3.102  1.4881 -0.8954  1.5581
  538MOL0     H71002   2.204   3.153   2.252 -0.3190 -0.6043  0.0529
  538MOL0     H71003   2.417   3.305   2.309  0.1640 -1.2451  0.8534
  538MOL0     H71004   2.659   3.703   2.036  0.2759 -1.1923 -0.4587
  538MOL0     H71005   2.860   3.832   2.076  1.9544  0.7037  2.9259
  538MOL0     H71006   3.228   3.635   2.109 -0.3018 -0.7737  1.3009
  538MOL0     H71007   3.216   3.627   2.287 -1.9554  0.1337  0.9294
  538MOL0     H71008   3.323   3.871   2.146 -0.0932  0.0893  0.0702
  538MOL0     H71009   3.298   3.852   2.320 -3.6738  0.2609 -1.6445
  538MOL0     H71010   3.465   3.680   2.144  2.9458  0.9934 -0.5614
  538MOL0     H71011   3.468   3.695   2.323  1.4760 -4.3255 -2.7363
  538MOL0     H71012   3.563   3.874   2.111 -2.1014 -3.7619 -0.8403
  538MOL0     H71013   3.516   3.943   2.266  2.7123  0.5813  1.1527
  538MOL0     H71014   3.904   3.784   2.355  0.3480 -0.5528 -0.3524
  538MOL0     H71015   3.046   3.498   2.280  0.5949 -0.5060 -0.3041
  538MOL0     H71016   2.843   3.368   2.249  1.7355 -0.0765  0.2364
  539MOL0     O71017   3.594   8.485   0.119  0.5013 -0.5576 -0.9002
  539MOL0     C71018   3.691   8.416   0.155 -0.3747 -0.2367 -0.5694
  539MOL0     O71019   3.685   8.312   0.251 -0.5661  0.3537  0.4561
  539MOL0     C71020   3.579   8.298   0.332  0.4836 -0.3729 -0.7486
  539MOL0     C71021   3.599   8.328   0.470  0.5800  0.7107 -0.2823
  539MOL0     C71022   3.485   8.322   0.552 -0.5704  0.0778 -0.0795
  539MOL0     C71023   3.358   8.282   0.504 -1.2438 -0.7075  0.0564
  539MOL0     O71024   3.260   8.258   0.598 -0.6602  0.1357  0.4170
  539MOL0     C71025   3.122   8.251   0.556  0.0164  0.2322 -0.2136
  539MOL0     C71026   3.028   8.289   0.678  0.1768  0.6827  0.2905
  539MOL0     C71027   3.061   8.202   0.802 -0.5379 -0.4570  0.1342
  539MOL0     C71028   2.989   8.069   0.797  0.4090  0.5632 -0.0684
  539MOL0     C71029   2.999   7.990   0.928 -0.3494 -0.1942 -0.2978
  539MOL0     C71030   2.932   7.859   0.923 -0.2379 -0.3366  0.4445
  539MOL0     C71031   2.961   7.765   1.049 -0.1330  0.1542 -0.4921
  539MOL0     C71032   2.864   7.649   1.076  0.4084 -0.6857 -0.1973
  539MOL0     N71033   2.861   7.537   0.983 -0.7004  0.0745  0.2454
  539MOL0     C71034   2.967   7.477   0.921  0.5119  0.0126 -0.0330
  539MOL0     C71035   2.917   7.387   0.835 -0.4395  0.7271  0.1217
  539MOL0     C71036   2.988   7.280   0.746 -0.5917 -0.3511 -0.4279
  539MOL0     C71037   3.126   7.231   0.805  0.9410 -0.4607  0.6448
  539MOL0     C71038   3.156   7.085   0.766 -0.0235  0.5083  0.5786
  539MOL0     C71039   3.302   7.042   0.791 -0.0987 -0.1377  0.5717
  539MOL0     O71040   3.323   7.025   0.926 -0.6076  0.5510 -0.2547
  539MOL0     C71041   3.455   7.046   0.961 -0.0003  0.7828 -0.2264
  539MOL0     C71042   3.553   6.943   0.927  0.9661  0.1282 -0.9910
  539MOL0     C71043   3.686   6.963   0.972  0.4246 -1.1457 -0.1283
  539MOL0     C71044   3.722   7.067   1.055 -0.3736 -0.5357  0.0158
  539MOL0     C71045   3.867   7.092   1.095  1.1741  0.4091 -0.6195
  539MOL0     O71046   3.951   7.005   1.036 -0.1340 -0.0488 -0.3031
  539MOL0     C71047   4.087   6.994   1.057 -0.6190 -0.0078 -0.1207
  539MOL0     C71048   4.143   6.864   1.062  0.1772  0.6003 -0.4864
  539MOL0     C71049   4.271   6.851   1.089 -0.1003  0.6783 -0.5399
  539MOL0     C71050   4.362   6.952   1.084 -0.3903  0.2513  0.1319
  539MOL0     O71051   4.490   6.926   1.122 -0.7368 -0.3523  0.7191
  539MOL0     C71052   4.566   6.831   1.043 -0.8536  1.0145 -0.0165
  539MOL0     C71053   4.665   6.764   1.132  0.7562 -0.2110  0.2261
  539MOL0     C71054   4.802   6.819   1.136  0.2661  0.0969  0.2626
  539MOL0     C71055   4.880   6.788   1.001 -0.4408  0.4554  0.3711
  539MOL0     C71056   5.019   6.849   1.021 -0.7117  0.0334  0.6091
  539MOL0     C71057   5.103   6.825   0.898  0.0335  0.1028 -0.2672
  539MOL0     C71058   5.244   6.894   0.913  1.3310 -1.1513 -0.2173
  539MOL0     C71059   5.328   6.894   0.789 -0.1069  0.3298  0.1837
  539MOL0    Cl71060   5.364   6.725   0.762  0.1181  0.6630  0.0438
  539MOL0     C71061   4.313   7.078   1.058  0.7258  0.0099  0.0889
  539MOL0     C71062   4.174   7.096   1.050 -0.1677  0.3647  0.2932
  539MOL0     O71063   3.894   7.188   1.164 -0.3509  0.1642 -0.8257
  539MOL0     C71064   3.626   7.157   1.091  0.2924 -0.3589 -0.4687
  539MOL0     C71065   3.495   7.152   1.044 -0.1198  0.2037  0.1866
  539MOL0     N71066   2.782   7.401   0.842 -0.3129 -0.2987  1.0122
  539MOL0     N71067   2.746   7.494   0.925  0.5574  0.4211 -0.0695
  539MOL0     C71068   3.343   8.245   0.371  0.2070 -0.8241 -0.1127
  539MOL0     C71069   3.451   8.256   0.284 -0.0459  0.4212  1.0964
  539MOL0     C71070   3.822   8.432   0.083  0.3477  0.2081  0.5274
  539MOL0     C71071   3.942   8.373   0.128  0.6032  0.4764  0.3765
  539MOL0     C71072   4.057   8.387   0.053  0.3194 -0.1527 -0.5160
  539MOL0     C71073   4.057   8.467  -0.061  0.4439 -0.1754  0.2147
  539MOL0     O71074   4.167   8.488  -0.137 -0.2259  0.6385  0.8906
  539MOL0     C71075   4.299   8.454  -0.080 -0.6610 -0.1830  0.1554
  539MOL0     C71076   4.417   8.499  -0.174 -0.0472 -0.2280 -0.0851
  539MOL0     C71077   4.407   8.650  -0.191  0.4459 -0.3963 -1.2956
  539MOL0     C71078   4.501   8.692  -0.313 -0.2930  0.4276 -0.0678
  539MOL0     C71079   4.643   8.681  -0.277  0.1437  0.1463  0.2064
  539MOL0     C71080   4.759   8.679  -0.248  0.4443 -0.4926 -0.3381
  539MOL0     C71081   3.943   8.532  -0.103  0.7865 -0.5059  0.5201
  539MOL0     C71082   3.824   8.511  -0.033  0.0702  0.4026 -0.0167
  539MOL0     H71083   3.695   8.372   0.496 -0.1336  2.0890  0.1119
  539MOL0     H71084   3.496   8.348   0.657  1.2508 -2.6037  0.4818
  539MOL0     H71085   3.101   8.149   0.521 -2.7353  0.5074  0.3845
  539MOL0     H71086   3.104   8.306   0.463 -2.0310  3.3336  1.8356
  539MOL0     H71087   2.923   8.272   0.649 -0.1384  2.1420  0.5299
  539MOL0     H71088   3.047   8.394   0.700  2.2797  0.6046 -0.9129
  539MOL0     H71089   3.030   8.254   0.893  0.2839  1.4759 -0.6461
  539MOL0     H71090   3.167   8.180   0.813 -0.7002 -1.7697 -0.6758
  539MOL0     H71091   2.888   8.074   0.757  0.7555 -0.2437 -1.0965
  539MOL0     H71092   3.039   8.006   0.723 -0.2927 -0.7444  0.5298
  539MOL0     H71093   2.962   8.047   1.014 -3.0658 -2.7999  0.4135
  539MOL0     H71094   3.105   7.974   0.948 -0.4027  0.6394  0.8139
  539MOL0     H71095   2.965   7.811   0.830  2.3094  0.0632  1.0734
  539MOL0     H71096   2.824   7.865   0.911 -0.0015 -0.9344 -2.9630
  539MOL0     H71097   3.057   7.717   1.026  0.0961  0.7192 -0.7351
  539MOL0     H71098   2.979   7.826   1.138  2.8936  1.5816 -1.9496
  539MOL0     H71099   2.762   7.687   1.088  1.3527  1.8255  0.4165
  539MOL0     H71100   2.905   7.601   1.165  1.8907  0.0927 -0.4311
  539MOL0     H71101   3.073   7.491   0.940 -0.4116  2.4168  4.5352
  539MOL0     H71102   3.003   7.322   0.647 -0.9723 -0.1729 -0.4120
  539MOL0     H71103   2.924   7.191   0.749  0.1625 -0.8952 -0.1030
  539MOL0     H71104   3.114   7.221   0.914 -0.7624  1.0218  0.6461
  539MOL0     H71105   3.216   7.291   0.789 -0.3633  1.3669 -0.2196
  539MOL0     H71106   3.091   7.026   0.831 -1.8839  1.6467 -0.1527
  539MOL0     H71107   3.126   7.071   0.661  0.6065  0.6068  0.3836
  539MOL0     H71108   3.375   7.109   0.743  2.6408 -2.6377  0.9269
  539MOL0     H71109   3.307   6.939   0.752 -2.5203 -0.5706  1.2866
  539MOL0     H71110   3.528   6.858   0.863 -2.9886 -0.6493  1.2261
  539MOL0     H71111   3.763   6.892   0.942  0.0804 -2.1494  1.2843
  539MOL0     H71112   4.071   6.782   1.063  3.0242 -2.1840 -2.5713
  539MOL0     H71113   4.304   6.748   1.095  2.4364  1.5068  1.7786
  539MOL0     H71114   4.626   6.879   0.965 -0.3444  2.1864  1.0645
  539MOL0     H71115   4.501   6.755   0.999  1.1628  0.4415 -2.2651
  539MOL0     H71116   4.677   6.659   1.103  1.4684  0.4863 -2.2249
  539MOL0     H71117   4.634   6.766   1.237  1.8666 -0.9664  0.5893
  539MOL0     H71118   4.865   6.781   1.216 -0.9999 -0.5282  0.9890
  539MOL0     H71119   4.804   6.926   1.158  0.0859  0.2079 -0.2285
  539MOL0     H71120   4.879   6.680   0.985 -0.6557  0.8171 -2.5876
  539MOL0     H71121   4.827   6.830   0.914 -2.1097 -0.0091  1.1258
  539MOL0     H71122   5.082   6.803   1.098  2.0547  2.8929  0.2795
  539MOL0     H71123   5.015   6.956   1.045 -2.3469  0.1028  0.1097
  539MOL0     H71124   5.053   6.866   0.809 -0.3290  0.0159 -0.1053
  539MOL0     H71125   5.123   6.718   0.884  2.5559  0.3259  1.1368
  539MOL0     H71126   5.237   7.000   0.940 -1.3099  0.0384 -4.4616
  539MOL0     H71127   5.299   6.840   0.990  1.4109 -0.8337 -0.0504
  539MOL0     H71128   5.425   6.934   0.818  0.0616 -0.0989  0.2135
  539MOL0     H71129   5.287   6.956   0.708  0.9908 -1.5225 -1.9092
  539MOL0     H71130   4.379   7.164   1.054 -1.9781  2.1662 -1.6958
  539MOL0     H71131   4.133   7.194   1.026  1.2050  0.8419 -0.2180
  539MOL0     H71132   3.652   7.243   1.153 -1.1308  1.3581 -2.1153
  539MOL0     H71133   3.422   7.227   1.072 -1.4821 -0.9124 -0.2351
  539MOL0     H71134   3.247   8.205   0.339 -1.4471  1.4170  1.6695
  539MOL0     H71135   3.451   8.208   0.187 -0.7301  0.5775  1.0128
  539MOL0     H71136   3.944   8.309   0.215 -2.2913 -1.2630 -0.6845
  539MOL0     H71137   4.142   8.324   0.077  0.9251  0.5191 -0.8366
  539MOL0     H71138   4.301   8.345  -0.079  0.1018 -0.2236 -2.0011
  539MOL0     H71139   4.326   8.493   0.019  2.9189  0.0812 -0.7990
  539MOL0     H71140   4.514   8.467  -0.134  1.1572  1.1859 -1.7153
  539MOL0     H71141   4.406   8.459  -0.275 -0.4688  2.0837 -1.0194
  539MOL0     H71142   4.432   8.709  -0.103 -2.0090  0.3387 -1.0238
  539MOL0     H71143   4.307   8.684  -0.219 -0.2303 -1.3934 -0.1727
  539MOL0     H71144   4.489   8.619  -0.394 -1.5350  2.2361 -1.6198
  539MOL0     H71145   4.478   8.791  -0.354 -1.4606 -0.2296 -1.0729
  539MOL0     H71146   4.855   8.662  -0.204 -0.2991  0.4737  1.7542
  539MOL0     H71147   3.930   8.587  -0.196 -0.8277  0.1303  1.0874
  539MOL0     H71148   3.734   8.549  -0.078  1.9757  1.2142 -3.4891
  540MOL0     O71149  10.156   7.642   7.056  0.4774 -0.5674  0.5949
  540MOL0     C71150  10.162   7.577   7.162 -0.0398 -0.3548 -0.5517
  540MOL0     O71151  10.054   7.535   7.242  0.5791 -0.0662  0.1317
  540MOL0     C71152   9.933   7.566   7.188  0.9950 -0.8552  0.5199
  540MOL0     C71153   9.901   7.702   7.171  0.3264 -0.4155 -0.1052
  540MOL0     C71154   9.773   7.745   7.132  0.3306  1.2587 -1.2781
  540MOL0     C71155   9.678   7.644   7.098 -0.8212  0.4661 -0.7878
  540MOL0     O71156   9.551   7.685   7.064 -0.2307  0.2095 -0.1845
  540MOL0     C71157   9.473   7.756   7.167  0.2137 -0.7042  0.4933
  540MOL0     C71158   9.326   7.719   7.146 -0.0023 -0.3911 -0.2612
  540MOL0     C71159   9.274   7.781   7.019  0.3757  0.1987 -0.2036
  540MOL0     C71160   9.121   7.737   7.024  0.1339 -0.2185 -0.4127
  540MOL0     C71161   9.021   7.786   6.920  0.4152 -0.3301  0.4482
  540MOL0     C71162   8.886   7.725   6.947  0.5830 -0.9147 -1.2118
  540MOL0     C71163   8.812   7.725   6.823  0.0645 -0.3143 -0.2966
  540MOL0     C71164   8.660   7.730   6.851  0.1613  0.5168  0.7567
  540MOL0     N71165   8.593   7.711   6.716  0.1134  0.1237  0.3214
  540MOL0     C71166   8.576   7.582   6.658 -0.2598  0.4438 -0.1848
  540MOL0     C71167   8.514   7.611   6.540 -0.5141 -0.3222  0.7361
  540MOL0     C71168   8.492   7.531   6.421 -0.7319 -0.4543  0.6578
  540MOL0     C71169   8.521   7.613   6.282  0.2386  0.3553  0.0361
  540MOL0     C71170   8.648   7.703   6.277 -0.0246  0.4065  1.0390
  540MOL0     C71171   8.778   7.623   6.263  0.3889  0.2959  0.6115
  540MOL0     O71172   8.885   7.705   6.214 -0.7953  0.1553 -0.1573
  540MOL0     C71173   9.011   7.653   6.223  0.2119  1.0246  0.1655
  540MOL0     C71174   9.051   7.520   6.236 -0.2684 -0.0302 -1.0277
  540MOL0     C71175   9.179   7.465   6.257 -0.0119 -0.5295 -0.0447
  540MOL0     C71176   9.282   7.549   6.237 -0.3132 -0.3036  0.0556
  540MOL0     C71177   9.413   7.489   6.255  0.1690 -0.0918  0.1790
  540MOL0     O71178   9.509   7.580   6.249  0.5221 -0.6026  0.4464
  540MOL0     C71179   9.636   7.552   6.201  0.3263  0.8418  0.5478
  540MOL0     C71180   9.657   7.524   6.071  0.1770  0.9538  0.9051
  540MOL0     C71181   9.783   7.493   6.018 -0.1312  0.5006  0.6450
  540MOL0     C71182   9.898   7.500   6.101  0.1555 -0.1476  0.5953
  540MOL0     O71183  10.020   7.473   6.030  0.3376 -0.1794 -0.5799
  540MOL0     C71184  10.144   7.438   6.103 -0.1794  0.3535  0.2916
  540MOL0     C71185  10.259   7.412   6.016  0.0661 -1.1692  0.2076
  540MOL0     C71186  10.259   7.276   5.949  0.1310 -0.0463 -0.2558
  540MOL0     C71187  10.359   7.250   5.843 -0.8774  0.4554 -0.0101
  540MOL0     C71188  10.337   7.110   5.781  0.2125 -0.2156  0.2459
  540MOL0     C71189  10.343   6.982   5.877  0.4213  0.2353 -0.0171
  540MOL0     C71190  10.479   6.965   5.951  0.0407  0.4705 -0.3254
  540MOL0     C71191  10.461   6.833   6.022  0.2247 -0.1644  0.3427
  540MOL0    Cl71192  10.607   6.780   6.107  0.1316 -0.0833 -0.1215
  540MOL0     C71193   9.870   7.528   6.238 -0.1821 -0.4086  0.2165
  540MOL0     C71194   9.741   7.549   6.291 -0.2286  0.1531 -0.1702
  540MOL0     O71195   9.431   7.367   6.259 -0.0746 -0.1092  0.0940
  540MOL0     C71196   9.256   7.689   6.219  0.3495  0.0439 -1.1839
  540MOL0     C71197   9.124   7.733   6.210  1.0340 -0.2994 -0.4751
  540MOL0     N71198   8.474   7.745   6.551  0.0005  0.0833  0.4448
  540MOL0     N71199   8.514   7.797   6.660  0.2683 -0.1826  0.0738
  540MOL0     C71200   9.724   7.514   7.095  0.6490 -1.3474  0.1775
  540MOL0     C71201   9.847   7.472   7.145  0.2079  0.1478  0.3501
  540MOL0     C71202  10.310   7.553   7.211  0.6442 -0.0985 -0.1203
  540MOL0     C71203  10.412   7.643   7.178 -1.4097 -0.4089  0.5434
  540MOL0     C71204  10.540   7.628   7.229 -0.2777 -0.4503  0.3080
  540MOL0     C71205  10.574   7.517   7.305  0.9446 -0.2929 -0.2630
  540MOL0     O71206  10.697   7.482   7.340  0.0120 -0.1722 -0.2024
  540MOL0     C71207  10.779   7.587   7.395 -0.3271  0.2341 -0.4198
  540MOL0     C71208  10.805   7.545   7.540  0.3881  0.5077 -0.2188
  540MOL0     C71209  10.884   7.417   7.567  0.1524 -0.0909  0.6490
  540MOL0     C71210  11.016   7.402   7.498  0.7561 -0.1015 -0.8035
  540MOL0     C71211  11.089   7.296   7.568  1.0287 -0.6907  0.9437
  540MOL0     C71212  11.148   7.205   7.625  0.1418  0.7782 -0.5644
  540MOL0     C71213  10.479   7.422   7.334 -0.0935 -0.1236  0.0168
  540MOL0     C71214  10.345   7.434   7.289 -0.4105 -0.1972  0.1831
  540MOL0     H71215   9.971   7.780   7.200  1.4970 -1.4408 -0.1294
  540MOL0     H71216   9.741   7.848   7.127 -1.7822  0.6654 -0.7497
  540MOL0     H71217   9.489   7.864   7.162  1.0683 -0.7156  2.0699
  540MOL0     H71218   9.506   7.725   7.267  0.1486 -1.2558  0.3484
  540MOL0     H71219   9.266   7.754   7.230 -0.7672 -0.6201 -0.6960
  540MOL0     H71220   9.308   7.611   7.140  4.1996 -1.2045 -2.1109
  540MOL0     H71221   9.317   7.741   6.927 -1.0302 -2.4019  0.1657
  540MOL0     H71222   9.292   7.886   7.041 -0.3093 -0.0952  2.1142
  540MOL0     H71223   9.116   7.628   7.027 -2.0117 -0.1315  0.0633
  540MOL0     H71224   9.079   7.780   7.115 -2.3341 -0.0868 -1.5555
  540MOL0     H71225   9.059   7.756   6.822  1.6016 -1.0189  1.0926
  540MOL0     H71226   9.003   7.894   6.924 -2.8621 -0.6695 -1.8341
  540MOL0     H71227   8.835   7.770   7.032 -0.3457 -5.2058  0.8090
  540MOL0     H71228   8.898   7.622   6.983 -1.0847 -0.8686 -0.4310
  540MOL0     H71229   8.843   7.820   6.777  1.0746 -0.0146  0.9571
  540MOL0     H71230   8.845   7.644   6.757  0.3729  0.3993 -1.0385
  540MOL0     H71231   8.633   7.824   6.900  3.5097  1.0044  1.8736
  540MOL0     H71232   8.636   7.645   6.916  0.2991 -0.0801  0.0351
  540MOL0     H71233   8.623   7.488   6.686 -0.0041  0.9523  1.1850
  540MOL0     H71234   8.393   7.486   6.409 -0.6911 -0.8133  1.5861
  540MOL0     H71235   8.563   7.447   6.421 -1.3315 -0.9904 -0.3927
  540MOL0     H71236   8.434   7.678   6.264 -0.7511 -1.2833 -1.4622
  540MOL0     H71237   8.536   7.535   6.206 -2.3773  1.0585 -1.3355
  540MOL0     H71238   8.627   7.774   6.196 -1.7277  2.0529  2.8181
  540MOL0     H71239   8.669   7.761   6.367  1.9265  1.1269  0.1541
  540MOL0     H71240   8.762   7.549   6.184 -0.3084  1.9460 -0.8629
  540MOL0     H71241   8.795   7.576   6.360 -1.4114 -1.8812 -0.0631
  540MOL0     H71242   8.978   7.440   6.244  1.8088 -1.8746  0.7576
  540MOL0     H71243   9.195   7.364   6.293 -1.6662  0.1304  2.8385
  540MOL0     H71244   9.575   7.530   6.001  1.8800 -1.2377 -1.4667
  540MOL0     H71245   9.795   7.453   5.918  0.8683  0.3848  0.7976
  540MOL0     H71246  10.120   7.346   6.156 -0.9806  0.8280  0.7783
  540MOL0     H71247  10.173   7.513   6.177  3.4300  2.5857 -2.9816
  540MOL0     H71248  10.354   7.425   6.068 -0.1943 -0.7203  0.5790
  540MOL0     H71249  10.259   7.491   5.939 -0.9159 -0.6284  0.7439
  540MOL0     H71250  10.160   7.264   5.906 -0.6717  0.4019  1.3777
  540MOL0     H71251  10.269   7.203   6.030 -1.0498  1.4425  1.3093
  540MOL0     H71252  10.365   7.322   5.761  1.3119 -2.8087 -3.0030
  540MOL0     H71253  10.461   7.244   5.883 -1.4406 -0.2181  1.3901
  540MOL0     H71254  10.413   7.095   5.704 -2.2207  1.2771 -2.7457
  540MOL0     H71255  10.247   7.114   5.718  0.2366 -1.7359  0.0680
  540MOL0     H71256  10.314   6.890   5.825  0.1448  0.0008  0.5372
  540MOL0     H71257  10.268   7.003   5.953  0.3065 -2.4774  0.7252
  540MOL0     H71258  10.568   6.963   5.888 -1.0261 -0.7279 -1.8817
  540MOL0     H71259  10.487   7.044   6.026 -3.9328  0.3435  0.4834
  540MOL0     H71260  10.426   6.758   5.950  1.2673 -0.2810 -0.0517
  540MOL0     H71261  10.381   6.848   6.095 -1.2914  2.5287 -1.6621
  540MOL0     H71262   9.947   7.536   6.314  1.5736  0.5428 -1.5253
  540MOL0     H71263   9.715   7.564   6.395  0.1349 -2.8399  0.4238
  540MOL0     H71264   9.340   7.757   6.208  0.3089  0.1736 -0.7162
  540MOL0     H71265   9.105   7.837   6.186 -3.9773 -0.7074  0.6760
  540MOL0     H71266   9.667   7.429   7.060 -1.9170  0.1674  0.4828
  540MOL0     H71267   9.877   7.369   7.161  0.0807 -0.0440 -0.6169
  540MOL0     H71268  10.382   7.722   7.111  1.8911 -0.6912 -1.4880
  540MOL0     H71269  10.614   7.704   7.205  0.0050 -0.8201 -0.0059
  540MOL0     H71270  10.732   7.685   7.403 -0.6706  0.0285  0.0853
  540MOL0     H71271  10.874   7.603   7.342  0.4970 -1.5238  0.4461
  540MOL0     H71272  10.842   7.634   7.592  1.3660  2.1060 -3.4229
  540MOL0     H71273  10.703   7.528   7.576  0.5983 -0.0062  0.1418
  540MOL0     H71274  10.826   7.330   7.534  2.7234 -1.3051 -1.0048
  540MOL0     H71275  10.880   7.408   7.676 -1.2769  2.1484  0.8512
  540MOL0     H71276  11.001   7.376   7.392 -0.4509  0.4750 -0.7855
  540MOL0     H71277  11.064   7.499   7.511  0.1083 -0.0811  1.8638
  540MOL0     H71278  11.204   7.127   7.672  1.1884  3.0037  2.1259
  540MOL0     H71279  10.513   7.332   7.384 -4.7501 -3.7294 -2.4932
  540MOL0     H71280  10.277   7.356   7.321  2.3314 -1.8488  2.3561
  541MOL0     O71281   3.275   4.687   4.502  0.0974 -0.0338  0.4738
  541MOL0     C71282   3.331   4.733   4.400 -0.1481  0.5417 -0.0517
  541MOL0     O71283   3.271   4.759   4.278 -0.1395  0.0106  0.2305
  541MOL0     C71284   3.137   4.734   4.248 -0.4607 -0.0430  0.2082
  541MOL0     C71285   3.080   4.846   4.190 -0.7725  0.5431  0.4087
  541MOL0     C71286   2.941   4.844   4.169  0.1418 -0.1119  0.1811
  541MOL0     C71287   2.859   4.739   4.201 -0.0761  0.2931 -1.1845
  541MOL0     O71288   2.718   4.732   4.184  0.6073 -0.4932 -0.2799
  541MOL0     C71289   2.650   4.858   4.208  0.0048  1.0830  0.2143
  541MOL0     C71290   2.503   4.832   4.198  0.1790  0.7020  0.0919
  541MOL0     C71291   2.460   4.788   4.057  0.5209  0.0856 -1.1378
  541MOL0     C71292   2.308   4.791   4.032 -0.4143 -1.2319 -0.6413
  541MOL0     C71293   2.290   4.813   3.884  0.5590  0.8902 -0.6468
  541MOL0     C71294   2.149   4.832   3.828  0.0797 -0.0537 -0.7637
  541MOL0     C71295   2.071   4.958   3.874 -0.5153  0.5821 -0.6316
  541MOL0     C71296   1.969   5.007   3.782  0.3762 -0.6368 -0.5188
  541MOL0     N71297   2.025   5.047   3.657  0.2857  0.1343 -0.3578
  541MOL0     C71298   2.087   5.171   3.629 -0.4972 -0.9112 -0.4682
  541MOL0     C71299   2.095   5.171   3.491  0.2601  1.1337  0.3853
  541MOL0     C71300   2.128   5.282   3.400  1.0167 -0.7337  1.4003
  541MOL0     C71301   2.007   5.320   3.318 -0.8449 -0.0264 -0.1576
  541MOL0     C71302   2.037   5.424   3.213 -0.3566 -0.2083  0.5456
  541MOL0     C71303   2.096   5.371   3.083 -0.3244  0.3675 -0.0430
  541MOL0     O71304   2.013   5.269   3.018  0.0379  0.2390  0.1797
  541MOL0     C71305   1.892   5.307   2.972 -0.2244 -0.4486 -0.5031
  541MOL0     C71306   1.787   5.212   2.960  0.4648 -0.4725  1.2507
  541MOL0     C71307   1.655   5.244   2.929  0.7631 -0.1184  0.3675
  541MOL0     C71308   1.617   5.374   2.896  0.4472  0.7934 -0.9383
  541MOL0     C71309   1.487   5.404   2.838  0.2562 -0.4687  0.1160
  541MOL0     O71310   1.443   5.313   2.743  0.7320 -0.2312 -0.0039
  541MOL0     C71311   1.321   5.323   2.680  0.5994  0.2136  0.2682
  541MOL0     C71312   1.298   5.242   2.563  1.1721  0.2358 -0.1674
  541MOL0     C71313   1.172   5.248   2.498 -0.4748  0.5144 -0.1773
  541MOL0     C71314   1.075   5.340   2.543 -0.9422  0.3882 -0.1829
  541MOL0     O71315   0.950   5.358   2.478  0.0207 -0.4560  0.2871
  541MOL0     C71316   0.959   5.331   2.340 -0.0287 -0.6649  0.0613
  541MOL0     C71317   0.859   5.398   2.252 -0.3260  0.0594  0.0439
  541MOL0     C71318   0.718   5.359   2.292 -0.1350 -0.5161  0.4529
  541MOL0     C71319   0.615   5.431   2.200  0.3319  0.0461  0.0212
  541MOL0     C71320   0.470   5.395   2.235  0.1138  0.2198 -0.6980
  541MOL0     C71321   0.375   5.461   2.133 -0.6312  0.2080 -0.2821
  541MOL0     C71322   0.226   5.437   2.178 -0.7440  0.6181  1.0245
  541MOL0     C71323   0.135   5.537   2.105  1.2269  0.1470  0.3944
  541MOL0    Cl71324  -0.007   5.543   2.206  0.5527 -0.0259 -0.0175
  541MOL0     C71325   1.087   5.406   2.660  0.5634  0.4758 -0.3618
  541MOL0     C71326   1.210   5.395   2.725 -0.1322 -0.6405 -0.7860
  541MOL0     O71327   1.435   5.514   2.874 -0.8180  0.0613 -0.6058
  541MOL0     C71328   1.718   5.476   2.907 -0.2371  0.3809 -0.7893
  541MOL0     C71329   1.852   5.441   2.940  0.7366 -0.4023 -0.3821
  541MOL0     N71330   2.055   5.044   3.449 -0.0667 -0.3433  0.7343
  541MOL0     N71331   2.006   4.973   3.544 -0.4340  0.3363  0.4832
  541MOL0     C71332   2.922   4.630   4.255  0.7316  0.6727  0.0489
  541MOL0     C71333   3.057   4.630   4.289  0.1139  0.2676 -0.2161
  541MOL0     C71334   3.473   4.775   4.413 -0.7803  0.5194  0.1144
  541MOL0     C71335   3.555   4.809   4.302 -0.3083 -0.1344 -0.6610
  541MOL0     C71336   3.688   4.838   4.319 -0.1479 -0.2362  0.2508
  541MOL0     C71337   3.752   4.826   4.442 -0.0722 -0.6500  0.1028
  541MOL0     O71338   3.883   4.834   4.474  0.2379  0.3536  0.4100
  541MOL0     C71339   3.918   4.972   4.489  0.2237  0.9115  0.1282
  541MOL0     C71340   4.051   4.971   4.543 -0.1151 -0.0992  0.1701
  541MOL0     C71341   4.076   4.864   4.652 -0.0216  0.2867  0.4719
  541MOL0     C71342   4.222   4.870   4.716  0.2807  0.2835 -0.4766
  541MOL0     C71343   4.251   4.999   4.785 -0.1250  0.2812  0.2585
  541MOL0     C71344   4.263   5.092   4.861  0.4339 -0.7296  0.7932
  541MOL0     C71345   3.670   4.794   4.551 -0.2151 -0.0408 -0.6826
  541MOL0     C71346   3.538   4.767   4.542 -0.4331 -0.4333  0.6535
  541MOL0     H71347   3.145   4.930   4.166 -3.1253  2.6099  0.8508
  541MOL0     H71348   2.903   4.938   4.133  0.2294 -0.2849 -0.3669
  541MOL0     H71349   2.672   4.933   4.131  0.5263  0.6369 -0.0859
  541MOL0     H71350   2.678   4.896   4.307 -0.8403  0.7769  0.5758
  541MOL0     H71351   2.450   4.923   4.227  2.1559  2.8072 -2.5053
  541MOL0     H71352   2.487   4.750   4.269  0.8229  0.8011  0.3628
  541MOL0     H71353   2.488   4.683   4.041 -2.5178 -1.2360  1.3259
  541MOL0     H71354   2.516   4.850   3.986  2.4774 -2.0028 -1.5365
  541MOL0     H71355   2.249   4.704   4.064 -2.6991  0.6579  0.6190
  541MOL0     H71356   2.264   4.869   4.094  1.0944 -0.4489 -0.5260
  541MOL0     H71357   2.332   4.735   3.820  0.3156  1.1039 -1.0700
  541MOL0     H71358   2.351   4.899   3.854 -1.1142  2.5574  0.4779
  541MOL0     H71359   2.092   4.742   3.853  0.1932  0.6330  2.3142
  541MOL0     H71360   2.151   4.830   3.718 -1.0843 -0.3136 -0.7911
  541MOL0     H71361   2.015   4.944   3.967 -2.7791  0.8236 -1.8829
  541MOL0     H71362   2.142   5.039   3.890 -0.8590  0.2614  3.7750
  541MOL0     H71363   1.928   5.095   3.832  3.7491  0.7053  0.2095
  541MOL0     H71364   1.887   4.936   3.771  0.7297 -0.9290 -1.3300
  541MOL0     H71365   2.115   5.252   3.695  0.6978 -0.8135 -1.0694
  541MOL0     H71366   2.209   5.249   3.333 -2.6293 -1.9405 -2.9375
  541MOL0     H71367   2.151   5.378   3.448 -3.4824  2.5509 -2.1294
  541MOL0     H71368   1.934   5.366   3.385  0.1748  2.7077 -0.8016
  541MOL0     H71369   1.964   5.233   3.269 -0.9013  0.0239 -0.1965
  541MOL0     H71370   1.946   5.483   3.199  1.0779  2.1846  0.7137
  541MOL0     H71371   2.109   5.501   3.243  1.7766 -1.2743 -1.5335
  541MOL0     H71372   2.198   5.334   3.099  0.1500  2.2547  1.7436
  541MOL0     H71373   2.114   5.451   3.011  0.6646 -0.1954 -0.4333
  541MOL0     H71374   1.804   5.109   2.992 -2.6750 -0.5099  3.2301
  541MOL0     H71375   1.586   5.162   2.914 -0.0090  0.4488  0.7252
  541MOL0     H71376   1.378   5.181   2.521  0.0239  0.5539 -3.0942
  541MOL0     H71377   1.159   5.190   2.407  2.6991  1.0778 -1.1384
  541MOL0     H71378   0.957   5.222   2.338  1.2252 -0.7901  2.4170
  541MOL0     H71379   1.054   5.369   2.302 -1.0753  0.7197 -1.2983
  541MOL0     H71380   0.880   5.375   2.146  0.4661 -0.4622  0.2991
  541MOL0     H71381   0.871   5.504   2.275 -0.4479 -0.0276  0.5053
  541MOL0     H71382   0.700   5.383   2.397  1.0969  0.2722  0.5145
  541MOL0     H71383   0.694   5.253   2.286 -1.7747 -0.1122 -0.7437
  541MOL0     H71384   0.622   5.538   2.218 -1.3931 -0.1366  2.2238
  541MOL0     H71385   0.638   5.415   2.094 -1.1463  2.1627 -0.6836
  541MOL0     H71386   0.443   5.442   2.330  0.6969 -1.3449  0.2751
  541MOL0     H71387   0.460   5.286   2.237 -0.5110  0.2601  1.6454
  541MOL0     H71388   0.395   5.415   2.036 -0.1916 -1.2061  0.4466
  541MOL0     H71389   0.385   5.570   2.132  0.3032  0.1418 -1.7756
  541MOL0     H71390   0.195   5.333   2.161  3.4911 -0.8388  0.9787
  541MOL0     H71391   0.217   5.456   2.286 -0.6514  2.9497  0.6708
  541MOL0     H71392   0.115   5.520   1.999  0.1328  0.5944  0.5127
  541MOL0     H71393   0.180   5.637   2.110  0.4667  0.4305  2.2505
  541MOL0     H71394   1.009   5.469   2.700  3.6444  4.0213  0.6079
  541MOL0     H71395   1.219   5.454   2.816  0.9730 -2.3907  0.2866
  541MOL0     H71396   1.683   5.574   2.876 -2.4732  0.5265  1.8502
  541MOL0     H71397   1.931   5.515   2.942  0.0279  0.3824 -1.1183
  541MOL0     H71398   2.857   4.546   4.278 -0.2828  0.9937 -1.4947
  541MOL0     H71399   3.098   4.541   4.335 -3.1152 -1.0646  0.3585
  541MOL0     H71400   3.536   4.821   4.196  2.0206  0.6188 -1.0668
  541MOL0     H71401   3.743   4.853   4.226 -0.2079  0.2373  0.2893
  541MOL0     H71402   3.850   5.017   4.561 -2.6818 -2.3553 -0.3412
  541MOL0     H71403   3.930   5.020   4.391  0.4462 -0.1900 -0.4032
  541MOL0     H71404   4.113   4.973   4.452  0.2932 -0.9793  0.4182
  541MOL0     H71405   4.070   5.069   4.589 -0.8457  0.0204  0.2262
  541MOL0     H71406   4.060   4.762   4.617 -0.0461  0.4610 -0.0260
  541MOL0     H71407   4.001   4.862   4.732 -0.3837 -1.8264  0.1540
  541MOL0     H71408   4.229   4.794   4.794 -2.0167  0.0203 -0.4805
  541MOL0     H71409   4.304   4.842   4.648  1.7622 -2.0111  2.0519
  541MOL0     H71410   4.274   5.175   4.927 -0.1508  1.2077 -1.4157
  541MOL0     H71411   3.726   4.767   4.640 -0.7548 -0.8415 -0.5769
  541MOL0     H71412   3.500   4.735   4.639 -1.7096  1.5931  0.8812
  542MOL0     O71413   1.400   7.766   7.119 -0.2734 -1.1925  0.4189
  542MOL0     C71414   1.409   7.653   7.083  0.5618  0.2747  0.9620
  542MOL0     O71415   1.311   7.585   7.014  0.1669  0.4876 -0.8874
  542MOL0     C71416   1.201   7.666   6.983  0.4254 -0.3448 -0.7711
  542MOL0     C71417   1.094   7.681   7.069  0.0236  1.6295 -0.2385
  542MOL0     C71418   0.969   7.737   7.028 -0.3327  0.7933 -0.2386
  542MOL0     C71419   0.950   7.758   6.891  0.7069 -0.9610 -0.2414
  542MOL0     O71420   0.825   7.787   6.828  0.0247  0.6474  0.0530
  542MOL0     C71421   0.718   7.849   6.899  0.5730  0.3333  0.0003
  542MOL0     C71422   0.624   7.744   6.956 -0.6096 -0.8820  0.2966
  542MOL0     C71423   0.474   7.787   6.976  0.1139 -0.2013 -0.5425
  542MOL0     C71424   0.457   7.894   7.080 -0.5857 -0.0666 -0.1828
  542MOL0     C71425   0.314   7.943   7.118  0.4976  0.1215 -0.3175
  542MOL0     C71426   0.217   7.831   7.179 -0.8633 -0.2423 -0.2141
  542MOL0     C71427   0.261   7.779   7.319 -0.0246  0.0481 -0.3707
  542MOL0     C71428   0.149   7.706   7.393 -0.2705 -0.1753  0.5286
  542MOL0     N71429   0.039   7.798   7.449 -0.5970  0.3281 -0.0977
  542MOL0     C71430   0.053   7.871   7.567 -0.3996 -0.4132 -0.8199
  542MOL0     C71431  -0.068   7.926   7.571 -0.9347 -0.9842 -0.6089
  542MOL0     C71432  -0.105   8.001   7.691  0.0660  0.5516 -0.0893
  542MOL0     C71433  -0.250   8.044   7.689  0.4294 -0.4713  0.9228
  542MOL0     C71434  -0.348   7.928   7.711  0.2086  0.3151 -0.6646
  542MOL0     C71435  -0.479   7.950   7.662 -0.9548  0.5813 -0.8618
  542MOL0     O71436  -0.542   7.820   7.681 -0.1383 -0.3157 -0.2590
  542MOL0     C71437  -0.681   7.825   7.675  0.7371 -0.0005 -0.5334
  542MOL0     C71438  -0.750   7.714   7.647  0.3079 -0.0779  0.3089
  542MOL0     C71439  -0.889   7.701   7.638  0.6250  0.9743  0.3757
  542MOL0     C71440  -0.970   7.810   7.660 -0.0504  0.4914 -0.8572
  542MOL0     C71441  -1.117   7.814   7.655  0.5220  0.2056 -0.5992
  542MOL0     O71442  -1.183   7.940   7.626 -0.5074  0.0970  0.3251
  542MOL0     C71443  -1.322   7.930   7.598 -1.3187  0.2595  0.9805
  542MOL0     C71444  -1.376   7.839   7.509  0.9077  0.2045  0.0182
  542MOL0     C71445  -1.516   7.841   7.475  0.1411 -0.1209 -0.6026
  542MOL0     C71446  -1.598   7.933   7.538 -0.9055 -0.2078  0.1821
  542MOL0     O71447  -1.728   7.934   7.494  0.0883  0.5122 -0.3436
  542MOL0     C71448  -1.792   8.062   7.484  0.4772  0.0497  0.4876
  542MOL0     C71449  -1.907   8.026   7.400 -0.1744  0.1522 -0.0641
  542MOL0     C71450  -1.996   8.150   7.378  0.3939 -0.4530  0.1185
  542MOL0     C71451  -2.121   8.112   7.289 -0.9514 -0.5481 -0.1936
  542MOL0     C71452  -2.224   8.218   7.302  0.5400  0.6753 -0.3748
  542MOL0     C71453  -2.357   8.175   7.241  0.6359 -0.1661  0.7474
  542MOL0     C71454  -2.357   8.130   7.092  0.2014  0.8200  0.4986
  542MOL0     C71455  -2.493   8.074   7.063 -0.2391 -0.2178 -0.1464
  542MOL0    Cl71456  -2.533   8.067   6.889 -0.5009 -0.3570 -0.1909
  542MOL0     C71457  -1.535   8.031   7.613 -0.1192 -0.5168 -0.5361
  542MOL0     C71458  -1.398   8.030   7.647  0.1919 -0.5915  0.3768
  542MOL0     O71459  -1.180   7.711   7.686  0.2339  0.0945  0.3073
  542MOL0     C71460  -0.899   7.923   7.707  1.2496 -0.2058 -0.1261
  542MOL0     C71461  -0.762   7.933   7.705  0.4161 -0.2753  0.1870
  542MOL0     N71462  -0.144   7.896   7.463  0.1658 -0.4261  0.8901
  542MOL0     N71463  -0.077   7.821   7.387  0.4683  0.2575 -0.2296
  542MOL0     C71464   1.058   7.744   6.808  0.0414 -0.5370 -0.5778
  542MOL0     C71465   1.180   7.709   6.850 -0.4520  0.1465 -0.1537
  542MOL0     C71466   1.532   7.581   7.104 -0.9120  0.4546  1.0566
  542MOL0     C71467   1.632   7.630   7.191  0.1196 -0.3338  0.3075
  542MOL0     C71468   1.750   7.556   7.213  0.4060  0.5922 -0.1296
  542MOL0     C71469   1.780   7.433   7.154 -0.0361  0.7263  0.2275
  542MOL0     O71470   1.902   7.365   7.165 -0.1382  0.0434 -0.6752
  542MOL0     C71471   1.996   7.390   7.272 -0.2078 -0.2556 -0.3886
  542MOL0     C71472   1.986   7.284   7.381  0.4914 -0.1182 -0.1781
  542MOL0     C71473   2.051   7.157   7.338  0.8473  0.4574  0.0499
  542MOL0     C71474   2.013   7.057   7.443 -0.5585 -0.3430 -0.1309
  542MOL0     C71475   2.046   7.074   7.579 -0.3410  0.9220  0.3037
  542MOL0     C71476   2.066   7.094   7.696 -0.0340  0.0323 -0.6689
  542MOL0     C71477   1.672   7.382   7.073  0.5623  0.5451 -0.0879
  542MOL0     C71478   1.557   7.453   7.044  0.2784 -0.1127 -0.6164
  542MOL0     H71479   1.110   7.641   7.168  1.6178 -0.9693 -1.4297
  542MOL0     H71480   0.883   7.748   7.093 -0.8003 -0.8098 -0.5410
  542MOL0     H71481   0.654   7.904   6.830 -0.1690 -2.5321 -1.7629
  542MOL0     H71482   0.749   7.921   6.975  1.2510  1.2166 -1.0828
  542MOL0     H71483   0.666   7.698   7.046 -1.6574  0.0922  1.3245
  542MOL0     H71484   0.627   7.660   6.887  2.2667 -0.0530 -0.7326
  542MOL0     H71485   0.412   7.700   6.999  0.4519  0.4046  3.2449
  542MOL0     H71486   0.442   7.837   6.884  1.1035 -1.2119 -1.4621
  542MOL0     H71487   0.518   7.859   7.164  1.7085  2.6153 -0.6007
  542MOL0     H71488   0.504   7.982   7.036  1.9299 -0.8548  0.7360
  542MOL0     H71489   0.269   7.996   7.034 -1.8427  0.3792  1.0150
  542MOL0     H71490   0.331   8.017   7.196 -1.1623  1.6299 -1.3364
  542MOL0     H71491   0.214   7.750   7.105 -0.4617 -0.0547 -0.4347
  542MOL0     H71492   0.119   7.878   7.186  0.1343  2.1694 -1.4454
  542MOL0     H71493   0.340   7.704   7.317 -2.6409 -3.0761  1.9860
  542MOL0     H71494   0.289   7.868   7.375  0.4979 -1.1660  1.3956
  542MOL0     H71495   0.195   7.647   7.473  2.3755 -1.2398 -1.6095
  542MOL0     H71496   0.104   7.627   7.331  1.6538  0.1506 -1.4103
  542MOL0     H71497   0.139   7.868   7.634 -0.3382 -0.6857 -0.9081
  542MOL0     H71498  -0.038   8.087   7.689 -1.5357  1.8479 -0.9333
  542MOL0     H71499  -0.076   7.940   7.776  0.5658 -0.3760 -0.9097
  542MOL0     H71500  -0.280   8.097   7.598 -0.3429 -1.0020  0.8559
  542MOL0     H71501  -0.270   8.115   7.769  1.7423  1.2772 -0.2374
  542MOL0     H71502  -0.308   7.844   7.653  3.4150  2.8350 -2.4690
  542MOL0     H71503  -0.344   7.898   7.816  1.6256 -0.5612 -0.9286
  542MOL0     H71504  -0.478   7.978   7.557  1.0087 -1.7266 -1.5289
  542MOL0     H71505  -0.520   8.031   7.723 -0.5873 -1.2065  1.9322
  542MOL0     H71506  -0.691   7.623   7.636 -0.4737 -0.7270  1.2903
  542MOL0     H71507  -0.947   7.614   7.611  0.7431  0.8092  0.6494
  542MOL0     H71508  -1.320   7.761   7.459 -1.0606 -1.1250 -0.2685
  542MOL0     H71509  -1.555   7.773   7.401 -0.8629 -0.4981  0.2407
  542MOL0     H71510  -1.734   8.146   7.444  0.4400  0.4531  1.2620
  542MOL0     H71511  -1.830   8.095   7.581  1.2512 -3.0553  1.9882
  542MOL0     H71512  -1.964   7.941   7.440 -0.7383  1.9415  3.2555
  542MOL0     H71513  -1.858   7.998   7.306  0.7458  0.1064  0.4196
  542MOL0     H71514  -1.944   8.235   7.331  1.3221  2.1682  5.1962
  542MOL0     H71515  -2.036   8.192   7.470 -0.3215 -0.7282 -0.0600
  542MOL0     H71516  -2.094   8.104   7.183 -1.3754 -1.1317 -0.2616
  542MOL0     H71517  -2.162   8.014   7.317  3.5099 -3.7164 -3.1466
  542MOL0     H71518  -2.198   8.314   7.257 -1.2296  2.0398  1.2702
  542MOL0     H71519  -2.235   8.239   7.409  3.2760 -3.3596  0.9117
  542MOL0     H71520  -2.431   8.255   7.252 -0.2974 -0.3892 -2.6459
  542MOL0     H71521  -2.399   8.098   7.307 -0.4164 -0.1056  0.1741
  542MOL0     H71522  -2.351   8.207   7.015  1.0821 -2.2784 -2.7692
  542MOL0     H71523  -2.282   8.053   7.072 -0.9193 -0.0305 -0.5431
  542MOL0     H71524  -2.569   8.142   7.101  0.1563  0.4301 -0.4990
  542MOL0     H71525  -2.495   7.974   7.107  0.0541  0.5507  1.6917
  542MOL0     H71526  -1.600   8.113   7.641 -1.8821 -1.6811 -1.0710
  542MOL0     H71527  -1.353   8.117   7.693 -0.3209 -0.1066 -0.0200
  542MOL0     H71528  -0.965   8.006   7.732 -2.8396 -2.7182 -1.6717
  542MOL0     H71529  -0.723   8.030   7.732  0.5131 -0.1507 -0.3769
  542MOL0     H71530   1.045   7.760   6.702  1.0122  0.2009 -0.5988
  542MOL0     H71531   1.248   7.680   6.770 -1.9229 -0.3389 -1.2647
  542MOL0     H71532   1.614   7.720   7.248  0.4691  1.0504 -1.6486
  542MOL0     H71533   1.824   7.590   7.285  1.8111 -0.9747 -0.7456
  542MOL0     H71534   1.982   7.483   7.328 -1.1934 -0.0077 -1.0376
  542MOL0     H71535   2.099   7.388   7.235  1.1537  0.2426  2.9856
  542MOL0     H71536   2.028   7.329   7.471  0.3306 -3.3145  1.6299
  542MOL0     H71537   1.882   7.253   7.396  0.2110 -0.0777 -1.8286
  542MOL0     H71538   2.159   7.167   7.325  0.7996  1.1629  0.1862
  542MOL0     H71539   2.007   7.121   7.244 -1.2460  0.4865  0.9696
  542MOL0     H71540   1.907   7.030   7.444 -0.3016 -1.6621 -2.6074
  542MOL0     H71541   2.062   6.970   7.399 -0.8872 -1.2599  1.2503
  542MOL0     H71542   2.090   7.110   7.799 -1.3267  0.5583 -0.4392
  542MOL0     H71543   1.686   7.284   7.029  2.3038  0.9561 -0.5389
  542MOL0     H71544   1.479   7.417   6.978 -1.4583  1.3827  0.5130
  543MOL0     O71545   5.863  10.808   4.560  0.8709  1.3661  0.6663
  543MOL0     C71546   5.911  10.747   4.655  0.9989 -0.4375  0.6231
  543MOL0     O71547   5.884  10.776   4.791  0.1461  0.4953  0.8576
  543MOL0     C71548   5.765  10.837   4.824 -0.5476  0.1781  0.1845
  543MOL0     C71549   5.641  10.792   4.773 -0.1028 -0.0299 -0.3247
  543MOL0     C71550   5.511  10.842   4.803  0.5877 -0.5996 -0.8396
  543MOL0     C71551   5.506  10.936   4.899  0.9639 -0.4209  0.2742
  543MOL0     O71552   5.390  10.984   4.947  0.0152 -0.4663  0.0924
  543MOL0     C71553   5.271  10.950   4.878  0.7293  0.1371 -0.0296
  543MOL0     C71554   5.157  11.025   4.947  0.1998  0.0945  0.0410
  543MOL0     C71555   5.158  11.168   4.909  0.0466  0.5959  0.2602
  543MOL0     C71556   5.022  11.236   4.940  1.2837  0.4621 -0.5645
  543MOL0     C71557   4.913  11.195   4.841 -0.1767  0.1045  0.4891
  543MOL0     C71558   4.782  11.255   4.893  0.8254 -0.7404 -0.0208
  543MOL0     C71559   4.650  11.251   4.810  0.0679 -0.6717 -0.2675
  543MOL0     C71560   4.531  11.275   4.911 -0.2110  0.8280 -0.4890
  543MOL0     N71561   4.391  11.264   4.861 -0.3757 -0.0777  0.4283
  543MOL0     C71562   4.278  11.306   4.928  0.3624  0.2962  0.0483
  543MOL0     C71563   4.177  11.262   4.854 -0.2588 -0.0519  0.0134
  543MOL0     C71564   4.030  11.283   4.854 -0.0968 -0.6855  0.7288
  543MOL0     C71565   3.950  11.158   4.878  0.1247  0.3792  0.5973
  543MOL0     C71566   3.804  11.168   4.826 -0.6950  0.9094 -0.6171
  543MOL0     C71567   3.732  11.032   4.845  0.3889 -0.7611 -0.5854
  543MOL0     O71568   3.588  11.043   4.829  0.1640 -0.4351 -0.7613
  543MOL0     C71569   3.508  10.934   4.844 -0.2287  0.0439  0.7113
  543MOL0     C71570   3.544  10.801   4.832 -0.4437 -0.3456 -0.6860
  543MOL0     C71571   3.456  10.695   4.861  0.5984  0.7793  0.2078
  543MOL0     C71572   3.315  10.719   4.884 -1.0646 -0.5734  0.9981
  543MOL0     C71573   3.211  10.616   4.893 -0.8427  0.1638 -0.0981
  543MOL0     O71574   3.079  10.656   4.884  0.2696 -0.6224  0.6576
  543MOL0     C71575   2.963  10.571   4.886 -0.0361 -0.4547  0.2127
  543MOL0     C71576   2.959  10.433   4.877 -0.7096 -0.3036 -0.7467
  543MOL0     C71577   2.840  10.364   4.883  0.4373 -0.1057  0.2942
  543MOL0     C71578   2.714  10.434   4.900 -0.1672 -0.2998 -0.0547
  543MOL0     O71579   2.600  10.357   4.887  1.2549  0.3478 -0.3125
  543MOL0     C71580   2.484  10.423   4.945 -0.2966 -0.2331 -0.7399
  543MOL0     C71581   2.370  10.319   4.941  0.3977 -0.3224  0.3312
  543MOL0     C71582   2.391  10.203   5.037  0.7762 -0.5837  0.2210
  543MOL0     C71583   2.292  10.089   5.013  0.5873 -0.3512  0.3046
  543MOL0     C71584   2.288   9.959   5.103 -0.4588  0.6898 -0.3228
  543MOL0     C71585   2.332   9.989   5.247 -0.1862 -0.0060  1.0932
  543MOL0     C71586   2.232  10.069   5.327 -0.7975 -0.1110 -0.1823
  543MOL0     C71587   2.090  10.020   5.344  0.6009  0.3650  0.7562
  543MOL0    Cl71588   2.109   9.884   5.452 -0.4143  0.2259  0.1776
  543MOL0     C71589   2.719  10.576   4.897  1.0258 -0.6265  0.2265
  543MOL0     C71590   2.838  10.641   4.885 -0.4902 -0.1365 -0.6566
  543MOL0     O71591   3.246  10.500   4.916  0.3391  0.6462  0.0744
  543MOL0     C71592   3.280  10.855   4.889 -0.5457  0.7267  0.6383
  543MOL0     C71593   3.373  10.959   4.868  0.2707  0.4789 -0.9910
  543MOL0     N71594   4.227  11.187   4.750 -0.2508 -0.0305 -0.4016
  543MOL0     N71595   4.355  11.179   4.758 -0.2291  0.0388 -0.1572
  543MOL0     C71596   5.626  10.990   4.951  0.1404  0.4378 -0.1691
  543MOL0     C71597   5.753  10.938   4.923 -0.6384 -0.6623  0.6829
  543MOL0     C71598   6.016  10.647   4.627 -0.0749  0.3124  0.1702
  543MOL0     C71599   6.056  10.557   4.722 -0.2413  0.1410  0.4787
  543MOL0     C71600   6.152  10.452   4.696  0.6691 -0.2003  0.2167
  543MOL0     C71601   6.208  10.450   4.570  0.2632 -0.4322 -0.1092
  543MOL0     O71602   6.310  10.361   4.565 -1.2783  0.6977  0.1493
  543MOL0     C71603   6.438  10.388   4.500  0.8650  0.4442 -0.8061
  543MOL0     C71604   6.546  10.304   4.575  0.0247  0.5490  0.0707
  543MOL0     C71605   6.544  10.157   4.528 -0.5711 -0.9820 -0.0238
  543MOL0     C71606   6.425  10.074   4.558  0.4574 -1.2617  0.6882
  543MOL0     C71607   6.455   9.929   4.536  0.7721  0.2052  0.2617
  543MOL0     C71608   6.458   9.803   4.545  0.0587  0.2986  0.2525
  543MOL0     C71609   6.166  10.532   4.470  0.1436 -0.4721  0.2068
  543MOL0     C71610   6.071  10.637   4.494  0.2092 -0.1570  0.4082
  543MOL0     H71611   5.647  10.719   4.692  1.9136  1.2707 -1.4367
  543MOL0     H71612   5.427  10.803   4.747  0.8384 -2.0527 -0.2278
  543MOL0     H71613   5.242  10.845   4.883 -3.0161  0.9222 -1.9674
  543MOL0     H71614   5.276  10.977   4.772 -3.1476 -0.8974 -0.6092
  543MOL0     H71615   5.168  10.989   5.049  0.1118 -4.5656 -1.3597
  543MOL0     H71616   5.064  10.982   4.907  0.1823 -2.1005  2.2501
  543MOL0     H71617   5.178  11.163   4.802 -1.3721  0.0200 -0.0013
  543MOL0     H71618   5.241  11.209   4.968  1.0532 -1.1110  0.1261
  543MOL0     H71619   4.988  11.217   5.042  0.5359  4.1619 -0.0060
  543MOL0     H71620   5.038  11.344   4.933  0.0111  0.7623  0.6633
  543MOL0     H71621   4.900  11.087   4.846  1.8022 -0.1587  0.9704
  543MOL0     H71622   4.942  11.228   4.741  0.5843 -0.8549  0.3779
  543MOL0     H71623   4.806  11.357   4.924 -0.1505 -0.9244  1.4946
  543MOL0     H71624   4.751  11.199   4.982 -0.8096  0.9558  0.5396
  543MOL0     H71625   4.656  11.317   4.722  0.5109  0.1127  0.3348
  543MOL0     H71626   4.631  11.150   4.772 -2.1238 -0.2870 -0.3226
  543MOL0     H71627   4.534  11.378   4.945  2.5500  0.1315  1.7710
  543MOL0     H71628   4.529  11.205   4.995  0.3515 -0.3029 -1.3715
  543MOL0     H71629   4.273  11.367   5.018  1.0757 -0.0939  0.3604
  543MOL0     H71630   4.006  11.338   4.763  1.4350 -2.5337 -0.8579
  543MOL0     H71631   4.015  11.361   4.929  2.0170  2.1919 -1.5853
  543MOL0     H71632   3.938  11.134   4.984 -1.7634  0.9221  0.5399
  543MOL0     H71633   3.998  11.081   4.816 -0.9220  0.1025  0.1050
  543MOL0     H71634   3.754  11.248   4.881  2.9274  1.8396  1.6706
  543MOL0     H71635   3.817  11.185   4.719  2.3745 -1.2602 -0.7285
  543MOL0     H71636   3.760  10.996   4.945  0.7632  0.1604 -0.3457
  543MOL0     H71637   3.772  10.974   4.762  0.2019 -1.7876  0.0222
  543MOL0     H71638   3.651  10.786   4.825 -0.3271 -0.8141  1.4267
  543MOL0     H71639   3.489  10.591   4.866  0.2248  0.6610  0.2313
  543MOL0     H71640   3.050  10.376   4.859 -1.2553 -0.8551 -1.8905
  543MOL0     H71641   2.841  10.256   4.890  2.6102 -0.0965  0.6050
  543MOL0     H71642   2.448  10.506   4.884  1.3054  0.4883 -0.7464
  543MOL0     H71643   2.501  10.456   5.048 -0.8816 -0.0674 -0.6958
  543MOL0     H71644   2.366  10.287   4.836 -1.3811  1.5869 -0.2344
  543MOL0     H71645   2.279  10.373   4.966  1.8679  1.7100  1.6439
  543MOL0     H71646   2.383  10.257   5.132 -0.8249  2.0985 -1.3354
  543MOL0     H71647   2.490  10.155   5.038  0.2677 -1.6864 -0.4782
  543MOL0     H71648   2.187  10.121   5.017 -0.3660 -2.4405 -3.4848
  543MOL0     H71649   2.302  10.058   4.909 -1.5616 -0.4284  0.0766
  543MOL0     H71650   2.352   9.879   5.064 -1.3808 -0.7355  0.9396
  543MOL0     H71651   2.189   9.912   5.108 -0.3899  0.6057  0.2649
  543MOL0     H71652   2.417  10.057   5.246  0.9673 -1.3643 -0.5943
  543MOL0     H71653   2.358   9.897   5.301  0.4715 -0.3124  0.2762
  543MOL0     H71654   2.275  10.095   5.423  1.4090  0.3684 -1.2408
  543MOL0     H71655   2.216  10.167   5.280 -0.7153 -0.2562 -0.5220
  543MOL0     H71656   2.055   9.984   5.247 -0.2307  0.2566  1.0922
  543MOL0     H71657   2.021  10.095   5.382 -2.0408 -1.2440 -0.5693
  543MOL0     H71658   2.629  10.636   4.894  1.3843 -0.0876 -2.3798
  543MOL0     H71659   2.835  10.748   4.903 -1.8420 -0.4313  1.0928
  543MOL0     H71660   3.176  10.873   4.912 -1.3297 -0.7751 -1.4659
  543MOL0     H71661   3.340  11.062   4.874  0.5828  0.6230 -1.6650
  543MOL0     H71662   5.611  11.066   5.027 -0.2223  1.1643 -0.9562
  543MOL0     H71663   5.832  10.989   4.978 -0.9861  2.4960 -1.5135
  543MOL0     H71664   6.008  10.557   4.819 -2.7450 -0.8090 -0.6890
  543MOL0     H71665   6.182  10.383   4.773  2.5771  0.8165  0.4543
  543MOL0     H71666   6.454  10.496   4.512  1.2355  0.3572 -0.4625
  543MOL0     H71667   6.430  10.355   4.396 -0.9302 -0.0778 -0.5299
  543MOL0     H71668   6.639  10.343   4.534 -0.3810 -1.3093 -3.0128
  543MOL0     H71669   6.519  10.309   4.680  2.4994 -1.6711  0.9240
  543MOL0     H71670   6.626  10.113   4.585  1.7767  3.0695  0.1398
  543MOL0     H71671   6.567  10.159   4.421  1.0332  0.3268  0.3111
  543MOL0     H71672   6.394  10.085   4.663 -1.0638 -2.2166  0.3642
  543MOL0     H71673   6.344  10.093   4.488  1.4652  0.1798 -0.1372
  543MOL0     H71674   6.479   9.698   4.550  0.3320  0.1527 -2.5036
  543MOL0     H71675   6.217  10.528   4.374 -1.8612 -1.7446 -0.8896
  543MOL0     H71676   6.027  10.710   4.426 -2.9103 -1.9621  0.3171
  544MOL0     O71677  10.466   2.755   5.358 -0.2917 -0.0334  0.5522
  544MOL0     C71678  10.564   2.785   5.436 -0.0269  0.2637 -0.0666
  544MOL0     O71679  10.564   2.770   5.575 -0.3587  0.0121  0.3376
  544MOL0     C71680  10.453   2.710   5.621 -0.2290  0.3041  0.0718
  544MOL0     C71681  10.464   2.571   5.630  0.9318  1.7115  0.0460
  544MOL0     C71682  10.359   2.494   5.670  0.4046 -0.0070 -0.2298
  544MOL0     C71683  10.241   2.554   5.714  0.0525 -0.5353  0.2378
  544MOL0     O71684  10.138   2.484   5.767  0.3319 -0.7095  0.4153
  544MOL0     C71685  10.025   2.486   5.685 -0.3268 -0.2893  0.3073
  544MOL0     C71686   9.902   2.432   5.752 -0.0930 -0.6544 -0.8169
  544MOL0     C71687   9.844   2.552   5.832  0.2315  0.9571 -0.2913
  544MOL0     C71688   9.732   2.499   5.920 -0.5650  0.4623  0.4689
  544MOL0     C71689   9.621   2.606   5.954 -0.1862 -0.1387  0.2653
  544MOL0     C71690   9.510   2.523   6.005  0.6730 -0.4097  0.0060
  544MOL0     C71691   9.395   2.616   6.062  1.0707  0.4228 -0.4656
  544MOL0     C71692   9.335   2.710   5.961  0.1066  0.7749 -1.0242
  544MOL0     N71693   9.193   2.755   5.985 -0.6191  0.4565  0.3932
  544MOL0     C71694   9.171   2.887   6.009 -0.0860 -0.1306  0.8278
  544MOL0     C71695   9.037   2.898   6.026  0.1350  0.0349 -0.1020
  544MOL0     C71696   8.972   3.026   6.060  0.4524  0.5880  0.9122
  544MOL0     C71697   9.018   3.138   5.963 -0.4091 -0.9467  0.2243
  544MOL0     C71698   8.999   3.118   5.816  0.5387  0.3236 -0.6006
  544MOL0     C71699   8.843   3.104   5.772 -0.6550 -0.3489  0.6353
  544MOL0     O71700   8.766   3.224   5.804 -0.5731 -0.6225  0.3273
  544MOL0     C71701   8.631   3.220   5.787  0.4457 -0.3899 -0.4369
  544MOL0     C71702   8.561   3.330   5.852 -0.3507 -0.5081  0.3779
  544MOL0     C71703   8.423   3.338   5.834 -0.6719 -0.1076  0.1591
  544MOL0     C71704   8.349   3.237   5.771 -0.2815  0.1156 -0.0993
  544MOL0     C71705   8.212   3.248   5.743 -0.2704  0.3182 -0.0444
  544MOL0     O71706   8.131   3.319   5.830 -0.9556 -0.4754 -0.1703
  544MOL0     C71707   7.998   3.331   5.796 -0.7016 -0.3070 -0.6851
  544MOL0     C71708   7.933   3.450   5.850  0.5270  0.8319  0.1587
  544MOL0     C71709   7.799   3.473   5.841 -0.1454  0.4790 -0.1831
  544MOL0     C71710   7.715   3.379   5.777  0.0601 -0.5290  0.2406
  544MOL0     O71711   7.572   3.399   5.776 -0.7967  0.5926  0.3630
  544MOL0     C71712   7.510   3.375   5.647  0.5819 -0.1998  0.6738
  544MOL0     C71713   7.393   3.271   5.649  0.6727  0.1596  0.3245
  544MOL0     C71714   7.296   3.312   5.535 -0.6508 -0.1014  0.2212
  544MOL0     C71715   7.179   3.214   5.537  0.5220 -0.6218 -0.6761
  544MOL0     C71716   7.066   3.272   5.453  0.6825  0.8439 -0.2735
  544MOL0     C71717   6.943   3.188   5.484  0.4480  0.6159 -0.0985
  544MOL0     C71718   6.825   3.254   5.411 -0.2625  0.4050 -0.1497
  544MOL0     C71719   6.706   3.179   5.463 -0.3145 -0.3074  0.2173
  544MOL0    Cl71720   6.698   3.004   5.425 -0.0156  0.2512  0.6745
  544MOL0     C71721   7.770   3.265   5.726 -0.2547  0.7680  0.1882
  544MOL0     C71722   7.910   3.239   5.736 -0.6730  0.6920 -1.0633
  544MOL0     O71723   8.175   3.190   5.641 -0.2315  0.4926  0.3565
  544MOL0     C71724   8.419   3.126   5.719 -0.0399  0.1950 -0.2525
  544MOL0     C71725   8.554   3.118   5.726 -0.5601  0.5705 -0.1131
  544MOL0     N71726   8.982   2.774   5.998  0.3144  0.9198  0.3145
  544MOL0     N71727   9.079   2.692   5.960 -0.4538  0.2010 -0.8353
  544MOL0     C71728  10.227   2.691   5.716 -0.5626  0.3344  0.6836
  544MOL0     C71729  10.334   2.765   5.661  0.2258 -0.1987 -0.3071
  544MOL0     C71730  10.684   2.862   5.392  0.2249 -0.2316  0.6412
  544MOL0     C71731  10.802   2.874   5.471  0.4342  0.0125  0.0881
  544MOL0     C71732  10.910   2.944   5.425 -0.4455  0.1419 -0.3121
  544MOL0     C71733  10.914   2.996   5.294  0.0745 -0.5407 -0.4174
  544MOL0     O71734  11.023   3.064   5.254  1.0119 -0.4725  0.3038
  544MOL0     C71735  11.130   2.983   5.209  0.5257  0.1094 -0.5367
  544MOL0     C71736  11.182   3.016   5.067  0.8304 -0.4160 -0.2162
  544MOL0     C71737  11.319   2.951   5.032  1.4300  0.0500  0.3790
  544MOL0     C71738  11.360   2.968   4.885  0.1793 -0.1927  0.6840
  544MOL0     C71739  11.389   3.113   4.858 -0.3329  0.5633 -0.0058
  544MOL0     C71740  11.448   3.218   4.824  0.7092 -0.9895  0.2824
  544MOL0     C71741  10.795   3.008   5.217 -0.3784  0.2138  0.7170
  544MOL0     C71742  10.677   2.940   5.271  0.0224 -0.7378  0.2068
  544MOL0     H71743  10.563   2.536   5.604  0.5275  1.9085 -1.8822
  544MOL0     H71744  10.364   2.387   5.653  1.7345  0.3326 -2.4637
  544MOL0     H71745  10.042   2.403   5.615  2.1699  1.0617 -0.8188
  544MOL0     H71746  10.007   2.578   5.629  0.3721  0.2540  0.9594
  544MOL0     H71747   9.934   2.356   5.823 -2.7860  0.3426  1.6861
  544MOL0     H71748   9.828   2.388   5.685 -0.1943  0.5546 -1.5423
  544MOL0     H71749   9.821   2.634   5.763  1.2798  0.4067 -1.3287
  544MOL0     H71750   9.913   2.593   5.906  1.0827  1.2316 -1.2090
  544MOL0     H71751   9.685   2.423   5.857  2.7486 -1.2900 -0.1434
  544MOL0     H71752   9.772   2.452   6.010 -0.9866 -0.6230  0.1041
  544MOL0     H71753   9.598   2.656   5.859  1.7564 -1.4283 -0.9415
  544MOL0     H71754   9.650   2.681   6.029 -0.9685 -0.7896  1.2406
  544MOL0     H71755   9.545   2.456   6.085 -1.3888  1.4506  2.6252
  544MOL0     H71756   9.456   2.472   5.925  0.7588  3.5043 -2.8422
  544MOL0     H71757   9.319   2.554   6.110  2.0147  0.7950  1.5795
  544MOL0     H71758   9.441   2.667   6.147  0.7190  0.5824 -0.3715
  544MOL0     H71759   9.341   2.662   5.863 -0.0893  0.1427 -0.7336
  544MOL0     H71760   9.399   2.799   5.954 -0.9875  1.4687 -5.0872
  544MOL0     H71761   9.234   2.975   6.008 -1.5184  0.9304 -0.2104
  544MOL0     H71762   9.014   3.056   6.156 -0.9144 -0.6327  1.9525
  544MOL0     H71763   8.862   3.021   6.064  0.3135 -1.8773 -1.9581
  544MOL0     H71764   9.124   3.159   5.979 -0.3830 -0.5136 -0.4921
  544MOL0     H71765   8.975   3.235   5.989  0.4075 -0.4357 -0.3147
  544MOL0     H71766   9.023   3.206   5.756  0.8324 -0.1758 -1.2165
  544MOL0     H71767   9.063   3.036   5.781  1.3203  1.1769 -1.1971
  544MOL0     H71768   8.801   3.016   5.821 -0.1655  1.1995  4.1452
  544MOL0     H71769   8.840   3.073   5.667  0.5440  1.6262 -0.0377
  544MOL0     H71770   8.622   3.408   5.897  3.4085 -1.5892 -2.3450
  544MOL0     H71771   8.365   3.424   5.868 -1.8468 -1.2830  1.2492
  544MOL0     H71772   7.993   3.536   5.879  0.6317  0.3654  1.3689
  544MOL0     H71773   7.754   3.556   5.895  0.4501  0.5781  0.1679
  544MOL0     H71774   7.573   3.356   5.559 -0.4637  1.3881 -0.4795
  544MOL0     H71775   7.463   3.471   5.623  0.8797 -0.1757  0.1500
  544MOL0     H71776   7.341   3.280   5.745 -0.7231 -1.2081 -0.2651
  544MOL0     H71777   7.443   3.174   5.648 -1.4108 -1.0105  2.1448
  544MOL0     H71778   7.342   3.308   5.436 -1.7020  2.9203 -0.5233
  544MOL0     H71779   7.279   3.420   5.537  0.5968  0.1186 -0.4143
  544MOL0     H71780   7.213   3.122   5.488  0.7617 -0.1479 -1.4116
  544MOL0     H71781   7.148   3.199   5.641  1.0948  0.4829 -0.3230
  544MOL0     H71782   7.091   3.283   5.347  0.6572  0.2984 -0.3395
  544MOL0     H71783   7.042   3.365   5.505 -3.1452 -1.4075  2.4880
  544MOL0     H71784   6.927   3.180   5.592  1.1996  0.6327  0.0192
  544MOL0     H71785   6.969   3.090   5.442  2.1921  0.5962  0.9373
  544MOL0     H71786   6.821   3.363   5.421 -1.6888  0.4986 -1.2676
  544MOL0     H71787   6.838   3.241   5.303  0.2403 -0.2777 -0.0115
  544MOL0     H71788   6.616   3.228   5.425 -0.3371  1.3149  2.1762
  544MOL0     H71789   6.712   3.196   5.571  0.0956 -0.1120  0.1694
  544MOL0     H71790   7.711   3.184   5.682 -0.0563 -0.1490  1.5603
  544MOL0     H71791   7.944   3.139   5.711  0.7927  1.2555 -1.4230
  544MOL0     H71792   8.365   3.040   5.680 -1.2973  0.0622  1.6566
  544MOL0     H71793   8.598   3.023   5.698 -2.5286 -0.5252  0.3753
  544MOL0     H71794  10.139   2.753   5.731 -2.1448 -0.6367 -3.2261
  544MOL0     H71795  10.322   2.872   5.649 -0.6422 -0.2327  0.1873
  544MOL0     H71796  10.793   2.833   5.571  0.6255  0.3484  0.2428
  544MOL0     H71797  10.999   2.956   5.486 -0.3005 -0.3008 -0.4338
  544MOL0     H71798  11.107   2.876   5.209  0.1722  0.1307 -3.2123
  544MOL0     H71799  11.213   2.997   5.279 -0.1759 -0.4172  0.4328
  544MOL0     H71800  11.113   2.979   4.991 -0.1787  0.6574  0.1573
  544MOL0     H71801  11.203   3.123   5.065  1.5396 -0.4759  1.7285
  544MOL0     H71802  11.302   2.845   5.053 -3.5573  0.3323 -0.9275
  544MOL0     H71803  11.399   2.992   5.096  1.6299  2.6461 -1.3606
  544MOL0     H71804  11.452   2.913   4.864  0.9251  0.6220  1.6803
  544MOL0     H71805  11.278   2.941   4.818 -2.2446  1.1693  2.8659
  544MOL0     H71806  11.507   3.305   4.802 -2.4013  1.4933  1.0681
  544MOL0     H71807  10.793   3.064   5.124  1.0297  0.4153  0.7859
  544MOL0     H71808  10.587   2.939   5.211 -0.3796  1.6668  0.6430
  545MOL0     O71809  10.122  10.665   4.890 -0.4192 -0.4180 -0.5944
  545MOL0     C71810  10.194  10.684   4.792 -0.9224  0.2578 -0.3946
  545MOL0     O71811  10.153  10.687   4.665 -0.6769  0.1981  0.2440
  545MOL0     C71812  10.019  10.672   4.627  0.9444  0.3542  0.5685
  545MOL0     C71813   9.979  10.570   4.541  0.4692 -0.5290 -0.5856
  545MOL0     C71814   9.842  10.557   4.505 -0.7232  0.0356 -0.2747
  545MOL0     C71815   9.745  10.647   4.547  0.6938 -0.5622 -0.6907
  545MOL0     O71816   9.613  10.631   4.520 -0.1225  0.3843 -0.4033
  545MOL0     C71817   9.588  10.582   4.387 -0.5344 -0.2065  1.2350
  545MOL0     C71818   9.457  10.615   4.328  0.5692  0.0196 -0.4301
  545MOL0     C71819   9.355  10.537   4.408 -0.6428  0.0752 -0.6888
  545MOL0     C71820   9.226  10.573   4.330  0.4483  0.2959  0.0720
  545MOL0     C71821   9.111  10.478   4.373  0.0815  0.3231  0.0981
  545MOL0     C71822   8.969  10.501   4.304  0.6960 -0.5324 -0.6960
  545MOL0     C71823   8.914  10.644   4.338  0.5386 -0.0067  0.2429
  545MOL0     C71824   8.761  10.663   4.294  0.7186  0.0797  0.1800
  545MOL0     N71825   8.741  10.715   4.158 -0.4498  0.2531 -0.1089
  545MOL0     C71826   8.797  10.827   4.105  0.2396 -0.5352 -0.2740
  545MOL0     C71827   8.754  10.832   3.974 -0.3427  0.1679 -0.0246
  545MOL0     C71828   8.766  10.943   3.880 -0.4566  0.3886  0.1649
  545MOL0     C71829   8.700  11.074   3.925  0.1607 -0.0047 -0.3324
  545MOL0     C71830   8.719  11.190   3.825  0.6416  0.4014 -0.2476
  545MOL0     C71831   8.683  11.322   3.885 -0.2772 -0.4686 -0.3568
  545MOL0     O71832   8.581  11.327   3.989  0.2560 -0.1915  0.0608
  545MOL0     C71833   8.456  11.290   3.960 -0.1617  0.1431  0.0009
  545MOL0     C71834   8.356  11.293   4.056  0.0610  0.6374 -1.0184
  545MOL0     C71835   8.216  11.281   4.035  0.0776 -0.5401  0.1097
  545MOL0     C71836   8.175  11.242   3.907 -0.1023 -0.2615  0.7120
  545MOL0     C71837   8.036  11.207   3.888 -0.3626  0.8516 -0.0578
  545MOL0     O71838   7.961  11.199   4.002 -0.4780  0.1519 -0.0535
  545MOL0     C71839   7.836  11.142   3.989 -0.2431  0.8157 -0.2066
  545MOL0     C71840   7.811  11.041   4.087 -0.5508  0.4749 -0.9641
  545MOL0     C71841   7.699  10.968   4.078  0.0568 -0.1869  0.5265
  545MOL0     C71842   7.593  11.006   3.985 -0.9299 -0.2609  0.0673
  545MOL0     O71843   7.477  10.930   3.975  0.5547 -0.0327 -0.6946
  545MOL0     C71844   7.420  10.850   4.077  0.6886  0.2155  0.0212
  545MOL0     C71845   7.386  10.709   4.021  0.3468  0.1042 -1.3152
  545MOL0     C71846   7.241  10.701   3.972  0.3913  0.1253 -0.3168
  545MOL0     C71847   7.217  10.581   3.889 -0.2970  1.0736  1.4505
  545MOL0     C71848   7.073  10.546   3.882 -0.2556 -0.0970 -0.0468
  545MOL0     C71849   7.041  10.451   3.769 -0.0293  1.1756  0.5694
  545MOL0     C71850   7.064  10.504   3.624  0.1595  0.0535  0.9423
  545MOL0     C71851   6.980  10.637   3.589 -0.4848 -0.1163 -0.4308
  545MOL0    Cl71852   6.988  10.675   3.406 -0.0233  0.2034 -0.0357
  545MOL0     C71853   7.610  11.121   3.907  0.1944  0.0984  0.2792
  545MOL0     C71854   7.734  11.190   3.906  0.1568  0.3439  0.0430
  545MOL0     O71855   7.996  11.202   3.774 -0.3996  0.4995 -0.3482
  545MOL0     C71856   8.272  11.239   3.805 -0.2984  0.4419  0.0925
  545MOL0     C71857   8.409  11.259   3.829  0.0229 -0.0410 -0.0105
  545MOL0     N71858   8.676  10.716   3.955 -0.3619 -0.8371 -0.5270
  545MOL0     N71859   8.684  10.642   4.060 -0.1621  0.0315  0.1515
  545MOL0     C71860   9.787  10.748   4.636 -0.4643  0.6219  1.1234
  545MOL0     C71861   9.920  10.752   4.675  0.0839  0.1428 -0.9027
  545MOL0     C71862  10.344  10.676   4.806  0.4282  0.6456 -0.0384
  545MOL0     C71863  10.426  10.674   4.692  0.4269 -0.4814  0.5084
  545MOL0     C71864  10.562  10.641   4.700  0.3994  0.2758 -0.5367
  545MOL0     C71865  10.618  10.607   4.820 -0.0329  0.5774 -0.0042
  545MOL0     O71866  10.743  10.557   4.813 -1.0918 -0.6872  1.0713
  545MOL0     C71867  10.815  10.540   4.932  0.7116  0.4265  0.4427
  545MOL0     C71868  10.953  10.478   4.915 -0.3495  0.1648  0.3246
  545MOL0     C71869  11.022  10.444   5.045  0.0416 -0.2208  0.3254
  545MOL0     C71870  10.947  10.337   5.128 -0.7453 -0.1443  0.2328
  545MOL0     C71871  10.984  10.198   5.090 -0.3047 -0.5162  0.8629
  545MOL0     C71872  11.011  10.082   5.052  0.5628  0.0520  0.7004
  545MOL0     C71873  10.538  10.600   4.933  0.0378  0.8128 -0.1882
  545MOL0     C71874  10.404  10.645   4.927  0.2661 -0.4742  0.2028
  545MOL0     H71875  10.059  10.506   4.502  1.1962  0.8596 -1.4357
  545MOL0     H71876   9.811  10.475   4.442 -4.2059  0.1700  1.0340
  545MOL0     H71877   9.607  10.474   4.382 -0.0312 -0.1197  1.1821
  545MOL0     H71878   9.666  10.621   4.321 -0.2190  0.4266  1.9728
  545MOL0     H71879   9.453  10.602   4.219 -1.0952 -1.1035 -0.2734
  545MOL0     H71880   9.444  10.723   4.343  0.7334 -0.2053  1.5175
  545MOL0     H71881   9.356  10.577   4.510  0.0692 -1.0468 -0.2370
  545MOL0     H71882   9.381  10.432   4.396 -1.9258 -0.0186 -3.3777
  545MOL0     H71883   9.201  10.678   4.344  2.2030  0.7102  0.2204
  545MOL0     H71884   9.250  10.559   4.224  0.4222 -0.8342  0.1973
  545MOL0     H71885   9.088  10.470   4.479 -0.4842  0.8561  0.0262
  545MOL0     H71886   9.150  10.379   4.348 -0.4409  0.1254  0.0344
  545MOL0     H71887   8.902  10.429   4.352 -2.1643  1.3042 -1.6914
  545MOL0     H71888   8.977  10.480   4.197  0.8468 -2.7414 -0.3073
  545MOL0     H71889   8.929  10.662   4.445  2.3801 -2.1977  0.4144
  545MOL0     H71890   8.977  10.715   4.283 -0.4161 -1.4480 -2.9422
  545MOL0     H71891   8.720  10.725   4.374  1.8197 -2.9012  3.3085
  545MOL0     H71892   8.706  10.568   4.303 -1.4815  1.1431 -1.0963
  545MOL0     H71893   8.862  10.898   4.156 -0.9924  3.0424 -3.2424
  545MOL0     H71894   8.714  10.920   3.786 -1.6837  3.3580  0.0179
  545MOL0     H71895   8.873  10.963   3.872  0.0907 -0.8652  2.9314
  545MOL0     H71896   8.756  11.092   4.018 -1.9862 -1.4382  1.3302
  545MOL0     H71897   8.597  11.044   3.947  0.9321 -3.2190 -0.5786
  545MOL0     H71898   8.821  11.185   3.786  0.0167 -0.2468 -1.9316
  545MOL0     H71899   8.658  11.170   3.736  0.8766  0.2384 -0.3747
  545MOL0     H71900   8.659  11.395   3.807 -1.5166 -0.8355 -0.3363
  545MOL0     H71901   8.774  11.341   3.943 -0.1033  0.2573 -0.8485
  545MOL0     H71902   8.392  11.309   4.158  1.3067  0.1667 -1.3701
  545MOL0     H71903   8.148  11.301   4.117  0.3720 -0.4451  0.3311
  545MOL0     H71904   7.901  11.010   4.140 -0.1566 -0.2609 -2.0305
  545MOL0     H71905   7.677  10.879   4.136  0.0168 -0.3150  0.3174
  545MOL0     H71906   7.331  10.894   4.123  1.5353  2.2357 -0.1675
  545MOL0     H71907   7.494  10.844   4.158  1.2751  0.1368 -0.5098
  545MOL0     H71908   7.410  10.629   4.091 -1.6161 -0.2633 -1.0008
  545MOL0     H71909   7.448  10.678   3.937  0.3991 -1.8687 -0.5893
  545MOL0     H71910   7.206  10.783   3.909  3.4502 -0.4219 -2.9615
  545MOL0     H71911   7.175  10.693   4.059 -1.3040  0.2950 -1.5280
  545MOL0     H71912   7.256  10.609   3.791 -0.5305 -0.5498  0.8517
  545MOL0     H71913   7.275  10.494   3.921 -1.0974 -0.3007 -0.5747
  545MOL0     H71914   7.014  10.637   3.872 -2.5402 -1.1551  2.4968
  545MOL0     H71915   7.053  10.519   3.986 -0.9912  1.2955  0.1971
  545MOL0     H71916   6.937  10.418   3.781  0.0866  0.6534  0.1566
  545MOL0     H71917   7.114  10.372   3.785  2.4366  2.8081 -1.8141
  545MOL0     H71918   7.165  10.529   3.592 -0.4309  0.1334 -0.9784
  545MOL0     H71919   7.026  10.419   3.567  1.0294 -0.7288  1.5100
  545MOL0     H71920   7.011  10.725   3.647  1.4688 -0.5649 -0.7021
  545MOL0     H71921   6.877  10.615   3.620 -0.6845 -2.7296 -2.6279
  545MOL0     H71922   7.534  11.138   3.831 -0.5968 -0.8474  0.8433
  545MOL0     H71923   7.747  11.272   3.837  0.2798 -0.1220 -0.5003
  545MOL0     H71924   8.244  11.220   3.702  1.6785  1.6982 -0.7469
  545MOL0     H71925   8.487  11.244   3.755 -0.6052 -0.6489 -0.5672
  545MOL0     H71926   9.713  10.823   4.662 -2.6111 -0.1012 -2.3131
  545MOL0     H71927   9.957  10.828   4.743 -0.4207 -2.0397  2.0125
  545MOL0     H71928  10.380  10.695   4.597  2.3259  0.9775 -0.1554
  545MOL0     H71929  10.625  10.641   4.611 -0.1258 -0.2119 -0.9174
  545MOL0     H71930  10.765  10.466   4.995  0.6310  1.1649  1.2628
  545MOL0     H71931  10.826  10.641   4.974 -0.0734  1.4675 -1.6761
  545MOL0     H71932  10.941  10.381   4.867  1.5401 -0.3194  0.7481
  545MOL0     H71933  11.012  10.548   4.854 -1.2021  1.4274  0.9064
  545MOL0     H71934  11.041  10.538   5.098  1.1958 -0.3249  0.1285
  545MOL0     H71935  11.120  10.406   5.015 -0.0615  1.1429 -1.9696
  545MOL0     H71936  10.983  10.348   5.231  1.6261  1.8808 -0.7093
  545MOL0     H71937  10.840  10.347   5.147 -0.5448 -2.1062  2.8308
  545MOL0     H71938  11.028   9.978   5.031  1.2175 -0.0517  1.6982
  545MOL0     H71939  10.578  10.558   5.025 -0.6281 -1.7523 -0.9713
  545MOL0     H71940  10.346  10.623   5.016  1.7547 -0.7759  1.1459
  546MOL0     O71941   9.979   8.384   0.499 -0.0334 -0.9632 -0.0310
  546MOL0     C71942  10.027   8.385   0.611  0.2248  0.3923 -0.9246
  546MOL0     O71943   9.948   8.391   0.721  0.1080 -0.1368 -0.3705
  546MOL0     C71944   9.810   8.356   0.713 -0.2279 -0.2335  0.2447
  546MOL0     C71945   9.763   8.240   0.650  0.1511  0.0422 -0.4808
  546MOL0     C71946   9.627   8.210   0.648  0.1564  0.0075  0.0273
  546MOL0     C71947   9.537   8.297   0.711 -0.2234  0.3278 -0.0499
  546MOL0     O71948   9.401   8.267   0.709  0.3745 -0.4324 -0.4428
  546MOL0     C71949   9.337   8.324   0.593  0.0422 -1.2017  0.0584
  546MOL0     C71950   9.318   8.211   0.492  0.0290 -0.1490 -0.5972
  546MOL0     C71951   9.196   8.233   0.405  0.2436  0.6384 -0.0977
  546MOL0     C71952   9.128   8.107   0.352 -0.2141 -0.2905 -0.6190
  546MOL0     C71953   9.220   8.047   0.250  0.6960 -0.6121 -0.1461
  546MOL0     C71954   9.135   7.981   0.138  0.2692  0.4724 -0.3291
  546MOL0     C71955   9.082   8.086   0.041  0.4175 -0.7203  0.0949
  546MOL0     C71956   9.035   8.031  -0.087  0.0292 -0.5786  0.2367
  546MOL0     N71957   8.914   7.950  -0.068 -0.5174  0.1325 -0.0081
  546MOL0     C71958   8.915   7.813  -0.113 -0.4299  0.1244  0.1393
  546MOL0     C71959   8.787   7.775  -0.105  0.6399  0.0581 -0.2107
  546MOL0     C71960   8.744   7.627  -0.136 -0.5270  1.1395  0.8040
  546MOL0     C71961   8.810   7.520  -0.044  0.4621  0.0632  0.2284
  546MOL0     C71962   8.783   7.377  -0.081  0.4316  0.3159  0.1565
  546MOL0     C71963   8.634   7.341  -0.061  0.2508  0.4878  0.8855
  546MOL0     O71964   8.616   7.351   0.076  0.4211 -0.6774 -0.1832
  546MOL0     C71965   8.482   7.337   0.118 -0.0399  0.3898 -0.1998
  546MOL0     C71966   8.384   7.265   0.051  0.0277 -0.2748 -0.1009
  546MOL0     C71967   8.250   7.264   0.108 -1.1579  0.8910  0.5742
  546MOL0     C71968   8.219   7.336   0.223 -1.0356  0.0541 -0.3877
  546MOL0     C71969   8.085   7.333   0.277  1.2537  0.8236  0.2107
  546MOL0     O71970   8.048   7.451   0.346  0.1697  1.3003  0.5345
  546MOL0     C71971   7.919   7.480   0.369 -0.2202 -1.0607  0.4344
  546MOL0     C71972   7.887   7.542   0.490 -0.7738 -0.3791 -0.8034
  546MOL0     C71973   7.753   7.579   0.528  0.1795 -0.2115  0.8149
  546MOL0     C71974   7.649   7.556   0.439 -0.0222 -0.7518  0.4363
  546MOL0     O71975   7.533   7.604   0.467  0.4633  0.3715  0.3187
  546MOL0     C71976   7.411   7.546   0.407  0.8879  0.3842  0.2409
  546MOL0     C71977   7.297   7.583   0.512 -0.2972  0.2489 -0.1952
  546MOL0     C71978   7.159   7.553   0.440  0.5295  0.2071 -0.5942
  546MOL0     C71979   7.048   7.550   0.542  0.3250 -0.4679  0.4062
  546MOL0     C71980   6.905   7.524   0.490 -0.6100 -0.2992  1.1008
  546MOL0     C71981   6.799   7.496   0.603 -0.1215  0.3644  0.5950
  546MOL0     C71982   6.659   7.473   0.553 -1.3027 -0.2255 -0.0509
  546MOL0     C71983   6.547   7.471   0.657  0.0602 -0.7268 -0.1608
  546MOL0    Cl71984   6.384   7.451   0.586  0.4117 -0.4517 -0.2354
  546MOL0     C71985   7.678   7.499   0.316 -0.9582  0.4261  1.2354
  546MOL0     C71986   7.816   7.467   0.277 -0.2978 -0.5884 -0.1234
  546MOL0     O71987   8.005   7.238   0.245  0.0123  0.3248 -0.0072
  546MOL0     C71988   8.313   7.425   0.273 -0.4937 -0.4252  0.6801
  546MOL0     C71989   8.443   7.426   0.216  0.1761  0.1169 -0.3958
  546MOL0     N71990   8.716   7.878  -0.054  0.8466 -0.3556 -0.6074
  546MOL0     N71991   8.791   7.982  -0.029 -0.3719 -0.8602  0.1913
  546MOL0     C71992   9.586   8.409   0.782 -0.0516  0.0695 -0.3708
  546MOL0     C71993   9.719   8.441   0.780  0.8617  0.0786  0.1496
  546MOL0     C71994  10.171   8.411   0.635  0.2134 -0.2226 -0.2456
  546MOL0     C71995  10.267   8.400   0.531  0.1271  0.2413 -0.0076
  546MOL0     C71996  10.406   8.422   0.555 -0.0858  0.2031  0.3787
  546MOL0     C71997  10.452   8.465   0.673 -0.1539 -0.2189 -0.2622
  546MOL0     O71998  10.590   8.474   0.709  0.2802  0.6573  0.4832
  546MOL0     C71999  10.684   8.409   0.625 -0.8390 -0.5480 -0.3468
  546MOL0     C72000  10.819   8.373   0.692  1.0274  0.2555  0.1250
  546MOL0     C72001  10.924   8.299   0.601  0.0935 -0.1412 -0.3660
  546MOL0     C72002  10.949   8.163   0.653 -0.0751  0.7252  0.1725
  546MOL0     C72003  10.832   8.075   0.638 -0.8749  0.1467 -0.2579
  546MOL0     C72004  10.737   8.010   0.638  0.5540 -0.6081 -0.4076
  546MOL0     C72005  10.356   8.480   0.775 -0.0136  0.7158  0.1681
  546MOL0     C72006  10.217   8.461   0.754 -0.2401 -0.1074 -0.4488
  546MOL0     H72007   9.838   8.177   0.603 -0.4207 -2.9282  2.1863
  546MOL0     H72008   9.577   8.127   0.601  1.7290 -0.7627 -0.3626
  546MOL0     H72009   9.397   8.399   0.540 -1.4204 -0.8928 -1.2540
  546MOL0     H72010   9.249   8.382   0.622  0.7856  0.2526 -0.4759
  546MOL0     H72011   9.302   8.125   0.559 -0.6443  1.5505  1.5545
  546MOL0     H72012   9.407   8.190   0.434  0.9488  0.1814  0.6462
  546MOL0     H72013   9.237   8.300   0.329  5.0725 -0.8138  0.8750
  546MOL0     H72014   9.118   8.286   0.462 -1.6690 -2.5175  0.4531
  546MOL0     H72015   9.104   8.031   0.427  1.4662  0.4556  0.7460
  546MOL0     H72016   9.032   8.143   0.315 -0.0195  0.7607 -0.1282
  546MOL0     H72017   9.276   7.974   0.309 -1.4898 -1.0492  1.5202
  546MOL0     H72018   9.289   8.122   0.210 -1.5774  1.5701 -0.2664
  546MOL0     H72019   9.051   7.919   0.170  0.4705 -0.4840 -1.5430
  546MOL0     H72020   9.199   7.915   0.078  2.7380  0.0688  2.5180
  546MOL0     H72021   8.992   8.133   0.081  0.2950 -0.9011  0.0320
  546MOL0     H72022   9.156   8.165   0.025 -0.2159  0.5165  2.6769
  546MOL0     H72023   9.117   7.981  -0.138  0.4411  1.6954 -1.5116
  546MOL0     H72024   9.005   8.121  -0.142 -2.2629 -0.2965  1.8158
  546MOL0     H72025   8.998   7.748  -0.139  0.2386  0.8722  0.3785
  546MOL0     H72026   8.767   7.594  -0.237  2.1933  1.9913  1.0869
  546MOL0     H72027   8.635   7.633  -0.123 -0.6562  0.8077 -0.1043
  546MOL0     H72028   8.766   7.543   0.054 -0.8330  1.1709 -0.5740
  546MOL0     H72029   8.917   7.539  -0.036  0.2889  0.8676  0.7297
  546MOL0     H72030   8.811   7.368  -0.187  1.1709 -0.9461  0.4399
  546MOL0     H72031   8.850   7.316  -0.020  0.4374 -4.0766 -3.6548
  546MOL0     H72032   8.615   7.240  -0.099 -0.8034  0.6143  1.0405
  546MOL0     H72033   8.569   7.406  -0.120 -0.4943  1.2119  2.4491
  546MOL0     H72034   8.395   7.206  -0.040  0.1676  0.5737 -0.6397
  546MOL0     H72035   8.166   7.208   0.068  0.5841 -2.1051  0.8106
  546MOL0     H72036   7.959   7.551   0.571 -0.4328 -0.2722 -1.1201
  546MOL0     H72037   7.732   7.626   0.623  0.3742  4.6385 -1.2537
  546MOL0     H72038   7.411   7.438   0.391  5.0689 -0.0201  1.7113
  546MOL0     H72039   7.380   7.586   0.310  0.1588 -1.6409 -0.4033
  546MOL0     H72040   7.306   7.689   0.537  2.1365 -0.0562  0.5102
  546MOL0     H72041   7.307   7.526   0.604  4.0100 -1.0680 -1.2465
  546MOL0     H72042   7.156   7.453   0.394 -1.6575 -0.5797  1.0500
  546MOL0     H72043   7.138   7.636   0.372  1.4920 -0.3853 -1.6544
  546MOL0     H72044   7.089   7.472   0.607  3.9423 -1.5037 -2.7713
  546MOL0     H72045   7.044   7.640   0.605 -0.1836 -1.8811  2.4908
  546MOL0     H72046   6.901   7.440   0.420  1.1558 -0.5616  1.2562
  546MOL0     H72047   6.879   7.607   0.424  0.5490 -2.4466 -2.3160
  546MOL0     H72048   6.795   7.584   0.667 -3.9399 -0.0702  1.1748
  546MOL0     H72049   6.826   7.407   0.660 -2.1744 -1.6297 -1.3399
  546MOL0     H72050   6.631   7.548   0.478 -0.8047 -1.7230 -1.8002
  546MOL0     H72051   6.653   7.376   0.502  2.9158 -0.4089 -0.4860
  546MOL0     H72052   6.542   7.570   0.705 -2.1473 -0.1247 -1.5085
  546MOL0     H72053   6.561   7.404   0.743 -1.1858 -1.7037 -0.6787
  546MOL0     H72054   7.603   7.485   0.239 -0.7602  1.3528  0.8613
  546MOL0     H72055   7.844   7.431   0.179  1.0737 -1.2013  0.4619
  546MOL0     H72056   8.302   7.485   0.363  1.1333 -1.5860  1.7320
  546MOL0     H72057   8.523   7.493   0.243  0.6655  0.5251 -2.6860
  546MOL0     H72058   9.514   8.463   0.842 -1.2822  0.3080 -2.0060
  546MOL0     H72059   9.767   8.523   0.832 -1.4778  0.4272  1.9387
  546MOL0     H72060  10.230   8.362   0.436 -1.7880 -2.4779  1.6828
  546MOL0     H72061  10.476   8.413   0.473 -0.0137  3.0281  0.0130
  546MOL0     H72062  10.702   8.478   0.542  0.8549 -0.5582 -0.0185
  546MOL0     H72063  10.644   8.315   0.586 -1.0989 -1.6320  2.3304
  546MOL0     H72064  10.855   8.467   0.736 -2.7332  0.3512  3.5499
  546MOL0     H72065  10.799   8.317   0.783 -1.1407 -1.3235 -1.2497
  546MOL0     H72066  11.022   8.346   0.590 -0.0882  0.5395  0.7483
  546MOL0     H72067  10.884   8.291   0.500  2.2492 -0.5439 -1.2365
  546MOL0     H72068  11.035   8.121   0.602 -1.7003 -0.5103 -1.6752
  546MOL0     H72069  10.974   8.168   0.760 -0.0122 -1.1597  0.2742
  546MOL0     H72070  10.651   7.947   0.627 -0.3927  0.8944 -1.9991
  546MOL0     H72071  10.393   8.506   0.873  0.1503 -0.8624  0.5608
  546MOL0     H72072  10.141   8.493   0.824 -1.7893 -1.2185 -1.5661
  547MOL0     O72073   0.770  10.547   9.137  0.1834 -0.7140  0.1494
  547MOL0     C72074   0.755  10.647   9.204  0.1004  0.2130  0.3329
  547MOL0     O72075   0.633  10.686   9.263  0.0290  0.1970 -0.2254
  547MOL0     C72076   0.544  10.585   9.292 -0.1845  0.1209 -0.1926
  547MOL0     C72077   0.589  10.478   9.374  0.0108 -0.0938  0.0927
  547MOL0     C72078   0.514  10.364   9.397 -0.1010 -0.8033 -0.4936
  547MOL0     C72079   0.383  10.365   9.347 -0.4917 -0.4528  0.4008
  547MOL0     O72080   0.290  10.266   9.365 -0.0609  0.4055 -0.5851
  547MOL0     C72081   0.328  10.152   9.441 -0.7451 -0.3647 -0.6449
  547MOL0     C72082   0.204  10.062   9.457  0.1706  0.1211  0.0115
  547MOL0     C72083   0.091  10.139   9.521 -0.0991 -0.8835  0.6084
  547MOL0     C72084  -0.034  10.046   9.525  0.6467 -0.0411 -0.0875
  547MOL0     C72085  -0.150  10.125   9.604 -0.1993  0.1204  0.3199
  547MOL0     C72086  -0.279  10.036   9.632 -0.1632 -0.7399  0.0638
  547MOL0     C72087  -0.391  10.133   9.681  0.4872 -0.2044  0.2594
  547MOL0     C72088  -0.513  10.051   9.736 -0.0597 -0.7768  0.5846
  547MOL0     N72089  -0.610  10.135   9.810  0.6641 -0.3594 -0.0495
  547MOL0     C72090  -0.749  10.125   9.827 -0.5609  0.8770 -0.1741
  547MOL0     C72091  -0.788  10.229   9.896  0.2218  0.1123  0.3501
  547MOL0     C72092  -0.928  10.252   9.945 -1.1223  1.4122  0.1705
  547MOL0     C72093  -0.992  10.362   9.859 -1.0908  0.1844  0.0871
  547MOL0     C72094  -1.129  10.398   9.905  0.1151  0.4786  0.2291
  547MOL0     C72095  -1.211  10.479   9.801 -0.1846 -0.0525 -0.7072
  547MOL0     O72096  -1.340  10.517   9.855  0.5764  0.5137  0.7853
  547MOL0     C72097  -1.437  10.433   9.840  0.7478  0.2723 -0.1824
  547MOL0     C72098  -1.434  10.311   9.774 -0.0339 -0.3141 -0.3069
  547MOL0     C72099  -1.553  10.241   9.743 -0.3347 -0.2586 -1.0591
  547MOL0     C72100  -1.680  10.287   9.796 -0.6145  0.1631 -0.6047
  547MOL0     C72101  -1.809  10.220   9.760 -0.4581  0.6027  0.6566
  547MOL0     O72102  -1.820  10.152   9.639 -0.0965 -0.1889  0.1148
  547MOL0     C72103  -1.930  10.079   9.607  0.5034  1.3151 -0.0985
  547MOL0     C72104  -2.059  10.139   9.627  0.0170  0.2203 -0.0804
  547MOL0     C72105  -2.175  10.058   9.608  1.0842  0.1538  0.5517
  547MOL0     C72106  -2.156   9.920   9.572  0.0348 -0.6057 -0.7287
  547MOL0     O72107  -2.269   9.845   9.589  0.5521  0.3738 -0.4811
  547MOL0     C72108  -2.329   9.819   9.456 -0.4800  0.3484 -0.6909
  547MOL0     C72109  -2.475   9.861   9.456  0.8252 -0.2708  0.2915
  547MOL0     C72110  -2.536   9.808   9.325  0.8000 -0.0616 -0.4431
  547MOL0     C72111  -2.694   9.809   9.337  0.3770  0.3738  0.1565
  547MOL0     C72112  -2.757   9.949   9.367 -0.2302 -0.4893 -0.1736
  547MOL0     C72113  -2.747  10.055   9.258 -0.2591  0.5344  0.0439
  547MOL0     C72114  -2.830  10.189   9.287 -1.0406  0.0017 -0.8734
  547MOL0     C72115  -2.836  10.300   9.180 -0.3337  0.2183  0.5458
  547MOL0    Cl72116  -2.940  10.237   9.037  0.2798 -0.1618 -0.1672
  547MOL0     C72117  -2.034   9.864   9.553  0.3802  0.3685 -0.0174
  547MOL0     C72118  -1.917   9.943   9.569 -0.7307 -0.9863  0.9719
  547MOL0     O72119  -1.895  10.227   9.845  0.1936 -0.2211 -0.0140
  547MOL0     C72120  -1.683  10.408   9.866  0.2275 -0.2846 -0.5090
  547MOL0     C72121  -1.566  10.478   9.887 -0.8069 -0.1270 -0.1118
  547MOL0     N72122  -0.684  10.305   9.938  0.0090 -0.4344  0.3733
  547MOL0     N72123  -0.577  10.239   9.890  0.1015 -0.4203 -0.3324
  547MOL0     C72124   0.335  10.483   9.276 -0.3689  1.1831 -0.8029
  547MOL0     C72125   0.417  10.585   9.239  0.0815  0.5106 -0.4649
  547MOL0     C72126   0.870  10.722   9.228  0.2118 -1.6113  0.6418
  547MOL0     C72127   0.859  10.851   9.286  1.2115 -0.7425 -0.6026
  547MOL0     C72128   0.968  10.928   9.309  0.5623  0.0575  0.2165
  547MOL0     C72129   1.092  10.893   9.267  0.4317 -0.8897 -0.0047
  547MOL0     O72130   1.197  10.978   9.295  0.2907  0.0694  0.3850
  547MOL0     C72131   1.336  10.940   9.321 -0.5702 -1.1961 -0.4556
  547MOL0     C72132   1.417  10.964   9.188 -0.1195  0.1739 -0.8921
  547MOL0     C72133   1.568  10.970   9.213  0.3264 -0.6013  0.1367
  547MOL0     C72134   1.632  10.840   9.245 -0.3411 -0.0262 -0.4995
  547MOL0     C72135   1.772  10.858   9.248 -0.0258  0.7598 -0.3582
  547MOL0     C72136   1.893  10.867   9.239  0.0611  0.2321 -0.2222
  547MOL0     C72137   1.108  10.759   9.219  0.2814 -0.8880 -0.2743
  547MOL0     C72138   0.995  10.681   9.195 -0.3354  0.1745 -0.0085
  547MOL0     H72139   0.689  10.475   9.418  0.1687  0.1949 -0.2374
  547MOL0     H72140   0.555  10.293   9.468  0.9816  0.7028  0.4392
  547MOL0     H72141   0.371  10.185   9.536 -2.8855  0.6613  0.0506
  547MOL0     H72142   0.410  10.097   9.394  2.1279  2.4688  0.5995
  547MOL0     H72143   0.244   9.979   9.517 -1.4802  0.9828  2.4560
  547MOL0     H72144   0.158  10.032   9.363  0.5142 -2.6786  0.6398
  547MOL0     H72145   0.069  10.233   9.468  1.7582 -0.1816  0.9987
  547MOL0     H72146   0.121  10.167   9.622 -2.6453  0.1698  1.1519
  547MOL0     H72147  -0.068  10.014   9.426 -3.4573 -2.2033  1.7613
  547MOL0     H72148  -0.016   9.954   9.581  1.3194 -0.3427 -0.7836
  547MOL0     H72149  -0.171  10.214   9.545 -0.4630  0.1135  0.4022
  547MOL0     H72150  -0.113  10.153   9.703 -0.8114 -1.0427  0.8963
  547MOL0     H72151  -0.265   9.956   9.705 -2.5592 -0.1141  1.3191
  547MOL0     H72152  -0.322   9.995   9.540 -3.6793  2.6204 -0.0575
  547MOL0     H72153  -0.351  10.201   9.758 -0.0208 -1.0856  1.3366
  547MOL0     H72154  -0.430  10.188   9.595 -2.4670 -0.4450  1.3238
  547MOL0     H72155  -0.463   9.978   9.800 -0.8730  1.6851  4.3390
  547MOL0     H72156  -0.568  10.005   9.654 -0.4009  1.4872 -0.5433
  547MOL0     H72157  -0.812  10.040   9.803 -0.1964  0.9646 -1.4952
  547MOL0     H72158  -0.913  10.279  10.050  0.1262 -2.7139  1.2623
  547MOL0     H72159  -0.989  10.161   9.935 -1.9671  1.9821  0.0137
  547MOL0     H72160  -0.993  10.327   9.756 -2.0037 -0.0384  0.1584
  547MOL0     H72161  -0.932  10.453   9.864  2.0530 -1.5908 -1.9794
  547MOL0     H72162  -1.189  10.308   9.922 -0.6758  0.4623 -2.1443
  547MOL0     H72163  -1.116  10.458   9.995 -1.2899  1.5913 -0.2643
  547MOL0     H72164  -1.222  10.429   9.704  0.4277 -0.6635 -0.4726
  547MOL0     H72165  -1.158  10.573   9.782 -0.1932  0.1649  0.2908
  547MOL0     H72166  -1.345  10.260   9.738 -0.5678 -1.9654  0.5780
  547MOL0     H72167  -1.545  10.140   9.703  2.0850 -2.4719  4.1468
  547MOL0     H72168  -2.075  10.243   9.655 -0.9107 -0.4384  2.0447
  547MOL0     H72169  -2.281  10.083   9.611  0.9777 -0.0759 -0.8132
  547MOL0     H72170  -2.318   9.712   9.437 -1.4328  0.3969 -1.6770
  547MOL0     H72171  -2.270   9.874   9.382  1.1743 -0.9174 -0.3602
  547MOL0     H72172  -2.487   9.968   9.474 -0.1547 -0.4609  0.8189
  547MOL0     H72173  -2.525   9.820   9.544  0.0561 -0.3961 -0.1978
  547MOL0     H72174  -2.504   9.705   9.308 -0.5246 -0.2090 -2.4748
  547MOL0     H72175  -2.522   9.871   9.237  1.8853  2.3681  1.3418
  547MOL0     H72176  -2.745   9.766   9.250  2.8513  2.0012 -2.2434
  547MOL0     H72177  -2.728   9.755   9.426 -0.9578  1.1955  0.1765
  547MOL0     H72178  -2.710   9.987   9.459  4.2074 -3.2411 -1.0220
  547MOL0     H72179  -2.864   9.934   9.380  0.2541 -1.8138  3.2848
  547MOL0     H72180  -2.775  10.020   9.158  1.2365  0.7236 -0.4765
  547MOL0     H72181  -2.643  10.089   9.260 -0.5953  1.6219 -0.4368
  547MOL0     H72182  -2.934  10.169   9.315 -1.1644  1.1712 -0.4499
  547MOL0     H72183  -2.774  10.225   9.373  1.3533 -0.3637 -2.1812
  547MOL0     H72184  -2.736  10.312   9.136 -0.6457  0.0561 -0.2192
  547MOL0     H72185  -2.881  10.393   9.215  0.3878  0.8158 -0.0748
  547MOL0     H72186  -2.033   9.758   9.530 -0.9857  0.3512 -0.0534
  547MOL0     H72187  -1.821   9.894   9.571 -2.0274 -3.6733  2.0280
  547MOL0     H72188  -1.779  10.453   9.889  0.2007  0.1220 -1.3759
  547MOL0     H72189  -1.567  10.578   9.929  0.3628  0.8540 -2.2155
  547MOL0     H72190   0.236  10.468   9.234 -0.5534  0.1128 -0.0504
  547MOL0     H72191   0.386  10.660   9.167 -2.3146  0.0667  0.0293
  547MOL0     H72192   0.759  10.883   9.315  1.6489 -0.1096  0.2486
  547MOL0     H72193   0.941  11.022   9.357 -0.9720  0.0127 -0.4985
  547MOL0     H72194   1.349  10.844   9.370  2.7949 -1.0604 -0.9049
  547MOL0     H72195   1.375  11.016   9.388 -1.3234 -0.8449 -0.3982
  547MOL0     H72196   1.411  10.883   9.115  0.7153 -1.2990  0.5846
  547MOL0     H72197   1.381  11.055   9.140 -0.1277  0.9026  0.4511
  547MOL0     H72198   1.583  11.042   9.294  0.6303  1.7286 -1.8619
  547MOL0     H72199   1.617  11.008   9.122 -1.5372  3.5841  0.6393
  547MOL0     H72200   1.594  10.807   9.343  0.0438  0.6801 -0.0984
  547MOL0     H72201   1.610  10.757   9.178 -0.9201 -2.9374  2.9321
  547MOL0     H72202   2.000  10.862   9.244  0.0974  1.5507  1.4268
  547MOL0     H72203   1.205  10.722   9.188 -1.1984 -4.0025 -1.5842
  547MOL0     H72204   1.008  10.584   9.146 -1.5800 -0.5099  0.9648
  548MOL0     O72205   3.413  11.062  10.786 -0.1352 -0.3912  0.2345
  548MOL0     C72206   3.509  11.004  10.847  0.3797  0.5255 -0.8487
  548MOL0     O72207   3.496  10.908  10.944 -0.4185  0.2260 -0.4277
  548MOL0     C72208   3.363  10.875  10.976 -1.1332  0.2078 -0.2775
  548MOL0     C72209   3.327  10.893  11.113  0.1730  0.0158 -0.6810
  548MOL0     C72210   3.194  10.867  11.161 -0.2121  0.3225  0.3747
  548MOL0     C72211   3.095  10.831  11.068  0.0220 -0.3730  0.2021
  548MOL0     O72212   2.964  10.810  11.123 -0.2198 -0.1934  0.4985
  548MOL0     C72213   2.841  10.866  11.064  0.2212  0.4643 -0.5390
  548MOL0     C72214   2.722  10.807  11.142 -0.1883  0.4784 -0.0900
  548MOL0     C72215   2.607  10.789  11.038 -0.9507  0.3510  0.2621
  548MOL0     C72216   2.471  10.740  11.095 -1.7043 -1.3338  0.3492
  548MOL0     C72217   2.351  10.777  11.009 -0.9124  0.0160  0.8288
  548MOL0     C72218   2.224  10.699  11.050  0.4962 -0.4513 -0.1052
  548MOL0     C72219   2.103  10.761  10.974 -0.3013 -0.0707 -0.1310
  548MOL0     C72220   2.009  10.847  11.061 -0.8515  0.0570  0.3700
  548MOL0     N72221   1.880  10.842  10.999 -0.2286 -0.2049 -0.0564
  548MOL0     C72222   1.770  10.772  11.042  0.9868  0.1683 -0.9104
  548MOL0     C72223   1.663  10.807  10.968 -0.5898 -0.2725 -0.3256
  548MOL0     C72224   1.518  10.769  10.985 -0.2415  0.2508  0.2939
  548MOL0     C72225   1.450  10.854  11.087 -0.6392 -0.7997  0.7533
  548MOL0     C72226   1.413  10.993  11.032  0.0488  0.2586 -0.8798
  548MOL0     C72227   1.271  10.997  11.000 -0.0348 -0.6109 -0.5659
  548MOL0     O72228   1.204  10.993  11.123 -0.4657  0.3060  0.0273
  548MOL0     C72229   1.068  11.005  11.123  0.2330 -0.6128  0.4207
  548MOL0     C72230   0.988  11.078  11.033  0.2348  0.7841 -0.5874
  548MOL0     C72231   0.846  11.090  11.053 -0.2826 -0.7805 -0.1016
  548MOL0     C72232   0.777  11.039  11.162 -0.4505 -0.1619 -1.0919
  548MOL0     C72233   0.629  11.061  11.172 -0.3555 -0.0556  0.0547
  548MOL0     O72234   0.570  11.026  11.295  0.2002 -0.5742 -0.5291
  548MOL0     C72235   0.435  11.048  11.307  0.3122  0.0684 -0.4592
  548MOL0     C72236   0.343  10.940  11.326  0.6912 -0.6106  0.6512
  548MOL0     C72237   0.205  10.967  11.345 -0.1837  0.3429  0.0490
  548MOL0     C72238   0.153  11.095  11.323 -0.9742  0.1442  0.0022
  548MOL0     O72239   0.023  11.126  11.329 -0.1599 -0.2371  0.2244
  548MOL0     C72240  -0.072  11.016  11.355 -0.3913  0.3193 -0.0461
  548MOL0     C72241  -0.216  11.058  11.352 -0.2574 -0.6551 -0.0156
  548MOL0     C72242  -0.312  10.940  11.361  0.1834  0.2848  0.2053
  548MOL0     C72243  -0.455  10.987  11.352 -0.4372  0.1913 -0.3114
  548MOL0     C72244  -0.560  10.876  11.371 -0.4068  0.5659 -0.0282
  548MOL0     C72245  -0.702  10.916  11.339  0.1154 -0.0008  0.5717
  548MOL0     C72246  -0.801  10.813  11.383  1.3488 -1.3388  0.4197
  548MOL0     C72247  -0.933  10.864  11.332 -0.6471  0.9354  0.1629
  548MOL0    Cl72248  -1.050  10.743  11.378 -0.0779  0.4617 -0.1067
  548MOL0     C72249   0.240  11.199  11.295 -1.0982  0.7815  1.2954
  548MOL0     C72250   0.379  11.177  11.288  0.2545  0.0462 -0.4967
  548MOL0     O72251   0.572  11.105  11.074  0.6687 -0.5863 -0.3878
  548MOL0     C72252   0.856  10.966  11.252 -0.2444  0.9202  0.2799
  548MOL0     C72253   0.998  10.954  11.236  0.5444 -0.7591  0.0687
  548MOL0     N72254   1.714  10.896  10.876  0.0830 -0.1002  0.0728
  548MOL0     N72255   1.844  10.912  10.890 -0.1193  0.0943 -0.7309
  548MOL0     C72256   3.126  10.828  10.926 -0.2178  0.1150 -0.3417
  548MOL0     C72257   3.262  10.840  10.884 -0.8207 -0.4142 -0.3168
  548MOL0     C72258   3.639  11.040  10.808  0.2270 -0.1531 -0.0007
  548MOL0     C72259   3.745  11.040  10.901 -0.3073  0.3340  0.2190
  548MOL0     C72260   3.873  11.079  10.863 -0.1908  0.9732  0.2299
  548MOL0     C72261   3.903  11.123  10.734 -0.1036  0.1645 -0.3320
  548MOL0     O72262   4.025  11.174  10.700 -0.1969 -0.0023 -0.1170
  548MOL0     C72263   4.126  11.074  10.726  1.2094 -0.2124 -0.5173
  548MOL0     C72264   4.247  11.111  10.649  0.3541  0.5293  0.5235
  548MOL0     C72265   4.370  11.016  10.685 -0.0930  0.2340  0.4188
  548MOL0     C72266   4.442  11.045  10.821  0.6875  0.6570 -0.0083
  548MOL0     C72267   4.565  10.977  10.854  0.1001  0.4759 -0.9303
  548MOL0     C72268   4.668  10.915  10.881 -0.7879 -0.3231  0.0880
  548MOL0     C72269   3.802  11.113  10.640  0.1270  0.8066  0.4531
  548MOL0     C72270   3.672  11.074  10.678  0.7437 -0.5183 -0.6222
  548MOL0     H72271   3.405  10.919  11.184 -0.2272  1.4465 -0.7476
  548MOL0     H72272   3.172  10.881  11.267 -0.8276  2.9405 -0.0154
  548MOL0     H72273   2.831  10.848  10.956 -2.3091 -1.3824 -0.0624
  548MOL0     H72274   2.844  10.974  11.080  0.9003  0.4298 -0.4041
  548MOL0     H72275   2.689  10.876  11.220 -0.1325  2.0166 -1.3540
  548MOL0     H72276   2.752  10.713  11.189 -2.0884 -1.1247 -1.8679
  548MOL0     H72277   2.646  10.710  10.974 -0.2961  1.0885 -0.2656
  548MOL0     H72278   2.594  10.880  10.978  2.2693  1.1523  0.6157
  548MOL0     H72279   2.468  10.631  11.104 -0.9008 -1.8800 -3.8920
  548MOL0     H72280   2.463  10.797  11.189  0.6973  2.4095 -1.4569
  548MOL0     H72281   2.369  10.740  10.908  3.3400 -1.2600  1.8165
  548MOL0     H72282   2.334  10.885  11.008 -2.4642 -0.1865 -1.4593
  548MOL0     H72283   2.224  10.705  11.159  5.6906 -5.0446  0.5321
  548MOL0     H72284   2.228  10.592  11.030 -2.1131 -0.3995 -1.3466
  548MOL0     H72285   2.145  10.819  10.891  0.9832  0.1815  0.6636
  548MOL0     H72286   2.047  10.677  10.933  1.2068 -0.8260 -0.7301
  548MOL0     H72287   2.047  10.949  11.066 -1.4467  0.2461  1.1767
  548MOL0     H72288   2.019  10.809  11.163  0.5387  1.3784  0.7542
  548MOL0     H72289   1.767  10.704  11.127 -2.8423 -1.2865 -1.9901
  548MOL0     H72290   1.523  10.662  11.010 -0.3216 -0.1247 -1.1689
  548MOL0     H72291   1.468  10.772  10.888 -1.2339  1.3079  0.8182
  548MOL0     H72292   1.513  10.871  11.175  2.4879 -0.6108 -1.3682
  548MOL0     H72293   1.361  10.801  11.122 -1.1068 -0.6633 -0.1971
  548MOL0     H72294   1.437  11.068  11.108 -1.2180  0.1127 -0.3130
  548MOL0     H72295   1.464  11.021  10.939 -0.5076 -0.1088 -1.2964
  548MOL0     H72296   1.252  10.907  10.941  2.3226 -0.1472 -2.1586
  548MOL0     H72297   1.251  11.085  10.939  2.4447  1.3148  1.1802
  548MOL0     H72298   1.037  11.124  10.948 -1.5958  0.9235 -1.5996
  548MOL0     H72299   0.796  11.152  10.980 -0.6040  0.4533  1.1126
  548MOL0     H72300   0.378  10.839  11.344  1.6352 -0.4551 -0.2694
  548MOL0     H72301   0.151  10.879  11.378  1.3494 -1.0364 -0.9543
  548MOL0     H72302  -0.055  10.969  11.452  0.6819 -2.5147 -1.4881
  548MOL0     H72303  -0.060  10.935  11.283  1.2002  0.0496  0.4738
  548MOL0     H72304  -0.224  11.123  11.265  0.1234  0.4223  0.7320
  548MOL0     H72305  -0.226  11.125  11.437  1.1896  2.7255 -2.3061
  548MOL0     H72306  -0.303  10.887  11.456  0.0032 -1.5621 -0.7690
  548MOL0     H72307  -0.286  10.869  11.282 -0.7069 -0.8406  0.8967
  548MOL0     H72308  -0.464  11.071  11.421  1.7986  0.4977 -0.3308
  548MOL0     H72309  -0.460  11.028  11.250  2.5156  1.4506 -0.0505
  548MOL0     H72310  -0.550  10.838  11.473  2.7140 -0.2300 -0.5206
  548MOL0     H72311  -0.539  10.796  11.300  2.1012 -0.7475  2.0409
  548MOL0     H72312  -0.705  10.925  11.230 -0.4668 -0.1640  0.5709
  548MOL0     H72313  -0.731  11.006  11.394  1.0437 -1.1585  3.1035
  548MOL0     H72314  -0.787  10.714  11.338  3.1601 -0.4829 -1.0477
  548MOL0     H72315  -0.804  10.807  11.492  1.4076 -2.0989  0.3831
  548MOL0     H72316  -0.929  10.871  11.223  1.3676 -3.7526 -0.2869
  548MOL0     H72317  -0.968  10.961  11.368 -2.0717  0.1911  0.8415
  548MOL0     H72318   0.195  11.295  11.271  1.0780  1.1403 -2.0396
  548MOL0     H72319   0.438  11.266  11.274 -1.4694  1.0118 -2.1594
  548MOL0     H72320   0.813  10.926  11.343 -1.4140 -0.6948 -0.9003
  548MOL0     H72321   1.056  10.904  11.314  0.7835  0.3034  0.6041
  548MOL0     H72322   3.050  10.818  10.849  0.2036  1.4808 -0.9596
  548MOL0     H72323   3.284  10.838  10.778 -0.9342  0.6962 -0.3669
  548MOL0     H72324   3.726  11.024  11.007 -1.9251  0.0152 -0.0849
  548MOL0     H72325   3.953  11.087  10.936 -0.0050 -1.3597  0.3648
  548MOL0     H72326   4.100  10.976  10.685  2.5978 -0.2700 -1.3098
  548MOL0     H72327   4.142  11.076  10.834  2.0483 -3.8889 -0.4588
  548MOL0     H72328   4.230  11.103  10.541 -1.1195  1.1059  0.6938
  548MOL0     H72329   4.279  11.214  10.668 -0.8029  0.7811  1.1715
  548MOL0     H72330   4.441  11.015  10.603 -0.5942 -0.4968 -0.0187
  548MOL0     H72331   4.334  10.912  10.686  4.7212 -1.6688  1.0091
  548MOL0     H72332   4.466  11.152  10.828 -0.8039  1.0050  0.2046
  548MOL0     H72333   4.365  11.032  10.898  0.7818  0.3473  0.0309
  548MOL0     H72334   4.745  10.845  10.908 -0.1972 -1.3405 -3.7061
  548MOL0     H72335   3.824  11.150  10.541  1.2046 -1.3975 -0.1825
  548MOL0     H72336   3.591  11.076  10.606 -1.0376  0.5010  1.3153
  549MOL0     O72337  10.550   6.261   4.811 -0.0490  0.3699 -0.5815
  549MOL0     C72338  10.518   6.318   4.708  0.7287  0.4331 -0.6210
  549MOL0     O72339  10.392   6.342   4.663  0.3168 -0.0178 -0.5764
  549MOL0     C72340  10.285   6.282   4.725  0.3916 -0.5724 -0.0689
  549MOL0     C72341  10.189   6.369   4.790 -0.0268  0.1252 -0.1192
  549MOL0     C72342  10.080   6.300   4.859 -0.4362 -0.4950 -0.2632
  549MOL0     C72343  10.051   6.166   4.845 -0.4706 -0.2593  1.0697
  549MOL0     O72344   9.934   6.123   4.891  0.2132  0.1249  0.1137
  549MOL0     C72345   9.887   5.992   4.855 -0.0586 -0.6722  0.3994
  549MOL0     C72346   9.733   5.995   4.872  0.9874 -0.3258 -0.2664
  549MOL0     C72347   9.670   5.992   5.009 -0.0856  0.2547  0.2795
  549MOL0     C72348   9.697   5.861   5.089  0.1298  0.4817  0.8506
  549MOL0     C72349   9.618   5.739   5.037 -0.0338 -0.2445  1.8708
  549MOL0     C72350   9.650   5.617   5.110  0.1728  0.1676 -1.0953
  549MOL0     C72351   9.572   5.610   5.251  0.0165  0.1056 -0.1367
  549MOL0     C72352   9.422   5.574   5.232 -0.7659 -0.0886  0.1566
  549MOL0     N72353   9.362   5.516   5.353 -0.2693  0.2848  0.1555
  549MOL0     C72354   9.382   5.561   5.479 -0.2728 -0.2601  0.0745
  549MOL0     C72355   9.300   5.493   5.567  0.2979  0.1274  0.0068
  549MOL0     C72356   9.283   5.509   5.712  0.2963 -1.4969 -0.8295
  549MOL0     C72357   9.141   5.571   5.737  0.3881  0.6944  0.4611
  549MOL0     C72358   9.030   5.457   5.750  0.0071  0.1254  0.2780
  549MOL0     C72359   8.888   5.511   5.794  0.8807  0.4520 -0.1636
  549MOL0     O72360   8.892   5.551   5.935 -0.2978 -0.1696 -0.1876
  549MOL0     C72361   8.776   5.573   6.007 -0.1721 -0.0286 -0.6526
  549MOL0     C72362   8.788   5.544   6.143  0.2646  0.0340 -0.1882
  549MOL0     C72363   8.676   5.553   6.228 -0.2516 -0.3843 -0.1324
  549MOL0     C72364   8.548   5.595   6.172 -0.6879 -0.5977  0.5529
  549MOL0     C72365   8.426   5.596   6.253  1.0496  0.2693 -0.5481
  549MOL0     O72366   8.433   5.593   6.388 -0.4005 -0.1999 -0.4702
  549MOL0     C72367   8.329   5.544   6.470 -0.2142  0.7298 -0.4384
  549MOL0     C72368   8.243   5.438   6.435  0.5361 -0.0369 -0.6111
  549MOL0     C72369   8.145   5.395   6.520  0.0247  0.9261 -0.5402
  549MOL0     C72370   8.136   5.452   6.647 -0.6497 -0.7471  0.8628
  549MOL0     O72371   8.047   5.414   6.745 -0.9610  0.4665  0.7636
  549MOL0     C72372   8.006   5.281   6.746 -0.1222  0.2330 -0.3125
  549MOL0     C72373   7.879   5.277   6.839 -0.6059  0.2768  0.5749
  549MOL0     C72374   7.800   5.154   6.812 -0.3401  0.1244 -1.1133
  549MOL0     C72375   7.673   5.148   6.890  0.2875  0.2228 -0.8113
  549MOL0     C72376   7.578   5.262   6.865  0.5509  1.0428  0.6248
  549MOL0     C72377   7.434   5.228   6.892 -0.1745 -0.3853 -0.5023
  549MOL0     C72378   7.357   5.360   6.897 -0.1073 -0.2705  0.1448
  549MOL0     C72379   7.197   5.341   6.889  0.0994 -0.2701 -0.2672
  549MOL0    Cl72380   7.147   5.242   7.017 -0.3225  0.5280  0.0602
  549MOL0     C72381   8.225   5.555   6.692 -0.1970 -0.6598 -0.7016
  549MOL0     C72382   8.320   5.594   6.603  0.6942  0.2580 -0.3325
  549MOL0     O72383   8.317   5.597   6.189  0.0135 -0.2537 -0.9482
  549MOL0     C72384   8.545   5.623   6.029 -0.4207 -0.6305 -0.2424
  549MOL0     C72385   8.651   5.599   5.949 -0.5768 -0.7348 -0.4269
  549MOL0     N72386   9.227   5.404   5.480  0.1224 -0.0267  0.7872
  549MOL0     N72387   9.268   5.421   5.359 -0.8249  0.3122 -0.1585
  549MOL0     C72388  10.158   6.084   4.792  0.4210 -0.2375  0.1662
  549MOL0     C72389  10.274   6.144   4.742  0.1940 -0.3923  0.1397
  549MOL0     C72390  10.634   6.376   4.636  0.3771 -0.1022  1.0492
  549MOL0     C72391  10.622   6.479   4.545  0.7716  0.2558  1.0326
  549MOL0     C72392  10.737   6.517   4.471 -0.4032 -1.2730 -0.2704
  549MOL0     C72393  10.864   6.464   4.486  0.6216 -0.2298 -0.0910
  549MOL0     O72394  10.965   6.525   4.421 -0.0274  0.0138 -0.3572
  549MOL0     C72395  11.098   6.453   4.398  1.2285 -0.7284  0.2137
  549MOL0     C72396  11.189   6.526   4.301  0.3770 -0.0115 -0.6620
  549MOL0     C72397  11.303   6.423   4.294  0.7214  0.4515 -0.1017
  549MOL0     C72398  11.372   6.435   4.160 -0.6286  0.7078 -0.1931
  549MOL0     C72399  11.476   6.336   4.142  0.0129 -0.4628  0.3475
  549MOL0     C72400  11.571   6.264   4.116  0.5374 -0.2736  0.9073
  549MOL0     C72401  10.876   6.366   4.591 -0.2480  1.3602 -0.4635
  549MOL0     C72402  10.762   6.319   4.655 -0.7222 -0.0087 -0.2051
  549MOL0     H72403  10.198   6.478   4.787  0.3651  0.0735 -0.9078
  549MOL0     H72404  10.004   6.356   4.914 -0.2561 -0.1384 -0.3777
  549MOL0     H72405   9.922   5.915   4.924 -1.6477  0.0841  2.1341
  549MOL0     H72406   9.904   5.973   4.748 -0.1359  1.1164  0.0398
  549MOL0     H72407   9.694   5.907   4.820 -0.3643  1.3009 -2.1581
  549MOL0     H72408   9.690   6.084   4.826  1.3922  0.4259  0.7882
  549MOL0     H72409   9.564   6.016   5.018 -0.4450 -0.9424 -0.5837
  549MOL0     H72410   9.719   6.070   5.069  0.8290  0.6139 -0.8961
  549MOL0     H72411   9.803   5.836   5.084 -0.3906 -1.8228 -2.3916
  549MOL0     H72412   9.666   5.874   5.193  1.1017 -1.3658  1.4126
  549MOL0     H72413   9.645   5.724   4.932  0.9859  0.4358  2.0186
  549MOL0     H72414   9.510   5.750   5.044 -0.1796  1.8966 -1.3958
  549MOL0     H72415   9.757   5.615   5.133 -0.5167 -1.9406  2.9112
  549MOL0     H72416   9.638   5.518   5.064  7.6022 -2.5010  1.2840
  549MOL0     H72417   9.631   5.541   5.313 -0.0960 -1.7937 -2.0350
  549MOL0     H72418   9.571   5.704   5.308 -1.8017  0.0249  0.0207
  549MOL0     H72419   9.399   5.519   5.141 -0.6552  1.4191 -0.8072
  549MOL0     H72420   9.367   5.667   5.219 -0.8117  0.0306  1.1018
  549MOL0     H72421   9.444   5.649   5.496  2.4168 -1.8164 -1.0472
  549MOL0     H72422   9.355   5.584   5.745 -1.7091 -0.6949  2.1601
  549MOL0     H72423   9.287   5.414   5.767  0.7052 -0.1348  1.6645
  549MOL0     H72424   9.111   5.646   5.664  3.1543  0.8375 -0.6600
  549MOL0     H72425   9.136   5.614   5.837 -2.0459  1.1396  0.2035
  549MOL0     H72426   9.018   5.402   5.656 -0.6193 -2.2919  1.6722
  549MOL0     H72427   9.057   5.389   5.832 -0.5449  1.2219  1.3995
  549MOL0     H72428   8.812   5.435   5.776  2.5010 -1.1519 -0.6139
  549MOL0     H72429   8.863   5.601   5.738 -2.8245  0.4098  1.1706
  549MOL0     H72430   8.881   5.512   6.189  0.6052  0.8872 -0.2649
  549MOL0     H72431   8.692   5.539   6.334 -1.7974  3.1874  0.7352
  549MOL0     H72432   8.252   5.401   6.334  2.1493 -0.8337 -0.2132
  549MOL0     H72433   8.065   5.335   6.478 -0.4275  1.4857 -0.4785
  549MOL0     H72434   8.086   5.216   6.782  0.3807  0.3568 -1.1721
  549MOL0     H72435   7.974   5.245   6.648  0.9560 -1.7662  0.0191
  549MOL0     H72436   7.825   5.370   6.818 -0.3532 -0.0004 -1.5608
  549MOL0     H72437   7.918   5.286   6.940  3.7022  0.1127 -0.8439
  549MOL0     H72438   7.860   5.065   6.832  2.3364  1.9313 -0.6561
  549MOL0     H72439   7.782   5.151   6.704 -2.0963 -0.9919 -0.8383
  549MOL0     H72440   7.628   5.052   6.861  1.0777 -0.1668 -0.7689
  549MOL0     H72441   7.684   5.124   6.996 -5.5181 -1.5375 -0.2162
  549MOL0     H72442   7.591   5.312   6.768  2.5554 -0.2414  0.1837
  549MOL0     H72443   7.605   5.347   6.929  2.1304 -1.0613  2.9000
  549MOL0     H72444   7.430   5.168   6.983  3.2443  1.6285  1.1951
  549MOL0     H72445   7.389   5.175   6.808 -1.3529  4.3625 -3.2285
  549MOL0     H72446   7.368   5.406   6.995 -0.6855 -2.1387  1.1425
  549MOL0     H72447   7.392   5.417   6.810  0.9155 -1.7932 -0.4827
  549MOL0     H72448   7.176   5.303   6.788 -1.1641  1.0608 -0.5346
  549MOL0     H72449   7.141   5.431   6.913  1.7258  0.1154  2.5733
  549MOL0     H72450   8.217   5.598   6.792  0.3046 -0.8305 -0.5856
  549MOL0     H72451   8.387   5.675   6.629  1.0052  0.2334 -1.0375
  549MOL0     H72452   8.457   5.645   5.969 -0.3081  1.1475  0.1843
  549MOL0     H72453   8.648   5.605   5.841  2.9533 -1.9150 -0.7356
  549MOL0     H72454  10.155   5.977   4.773  1.3884 -0.3590  0.6345
  549MOL0     H72455  10.346   6.075   4.699  2.4038  0.7347  1.8806
  549MOL0     H72456  10.523   6.520   4.526 -0.0075 -1.6923  0.6807
  549MOL0     H72457  10.733   6.598   4.398 -0.3548 -1.1681 -0.1565
  549MOL0     H72458  11.063   6.359   4.353  0.6268 -0.8675  0.9518
  549MOL0     H72459  11.137   6.436   4.498 -0.2604  0.5778  1.0652
  549MOL0     H72460  11.139   6.543   4.205  0.8853  1.9154 -0.6284
  549MOL0     H72461  11.223   6.621   4.344 -0.0295 -0.3378  0.4231
  549MOL0     H72462  11.256   6.326   4.315 -2.0394  1.5698 -0.7204
  549MOL0     H72463  11.363   6.437   4.385 -2.2358 -1.7748  2.4385
  549MOL0     H72464  11.287   6.417   4.094 -0.7280 -0.6306  0.2846
  549MOL0     H72465  11.415   6.536   4.156  1.6592 -0.1961 -0.2285
  549MOL0     H72466  11.660   6.204   4.111  0.7378 -0.2283  3.0137
  549MOL0     H72467  10.971   6.318   4.612 -2.4129 -3.4221 -0.4029
  549MOL0     H72468  10.777   6.245   4.733  1.2129 -0.5572 -1.0260
  550MOL0     O72469   6.546   3.019   1.420  0.3981 -0.3881  0.1980
  550MOL0     C72470   6.590   3.051   1.530 -0.4991  0.1929  0.8668
  550MOL0     O72471   6.511   3.096   1.636 -0.4390  0.0955 -1.1620
  550MOL0     C72472   6.380   3.097   1.609  0.4075 -1.0004  0.3191
  550MOL0     C72473   6.317   3.209   1.561 -0.0628  0.1878 -0.0912
  550MOL0     C72474   6.178   3.214   1.541 -0.1930  0.5211 -1.0512
  550MOL0     C72475   6.099   3.097   1.577 -0.5123 -0.6425  0.2452
  550MOL0     O72476   5.966   3.110   1.555 -0.3768 -0.0241 -0.2176
  550MOL0     C72477   5.883   3.028   1.643  0.3405  0.6592  0.7619
  550MOL0     C72478   5.745   3.046   1.605  0.0928  0.8786  0.1316
  550MOL0     C72479   5.698   3.187   1.555 -0.4189 -0.5999  0.2261
  550MOL0     C72480   5.557   3.184   1.477 -0.4633  0.4148 -0.1110
  550MOL0     C72481   5.513   3.324   1.433 -0.1432 -0.2025 -0.2141
  550MOL0     C72482   5.372   3.320   1.367 -0.1846 -0.1138  0.0942
  550MOL0     C72483   5.297   3.453   1.358 -0.0046 -0.6125 -0.1911
  550MOL0     C72484   5.170   3.451   1.276  0.3022  0.0313 -0.2314
  550MOL0     N72485   5.054   3.388   1.349  0.3732  0.3059  0.4584
  550MOL0     C72486   5.010   3.261   1.333 -0.1704  0.0863  0.1191
  550MOL0     C72487   4.889   3.258   1.373  0.0434  0.3643 -0.4375
  550MOL0     C72488   4.797   3.138   1.387 -0.3784 -1.6811 -0.8109
  550MOL0     C72489   4.675   3.167   1.473 -0.3509  0.0380  0.5892
  550MOL0     C72490   4.562   3.217   1.382  0.1325 -0.0600  0.0722
  550MOL0     C72491   4.425   3.205   1.458 -0.4037  0.4070  0.1486
  550MOL0     O72492   4.333   3.287   1.395  0.7735 -0.1429  0.3752
  550MOL0     C72493   4.206   3.284   1.445 -0.7517  0.4665  0.8844
  550MOL0     C72494   4.166   3.283   1.579 -0.0092 -0.3515 -0.1245
  550MOL0     C72495   4.034   3.251   1.618  0.2919 -0.1129  0.2514
  550MOL0     C72496   3.938   3.231   1.523 -0.6493 -0.2804 -0.0062
  550MOL0     C72497   3.803   3.172   1.565 -0.5082  0.0424  0.1312
  550MOL0     O72498   3.715   3.147   1.462  0.1767  0.8398  0.3372
  550MOL0     C72499   3.580   3.112   1.471 -0.2122  0.1817  0.0089
  550MOL0     C72500   3.520   3.044   1.360 -0.2206 -0.0746  0.6461
  550MOL0     C72501   3.412   2.965   1.391  0.1531 -0.2713 -0.7947
  550MOL0     C72502   3.330   2.985   1.498 -0.0792 -0.0098  0.0684
  550MOL0     O72503   3.212   2.925   1.537  0.1697  0.5300 -0.4738
  550MOL0     C72504   3.173   2.804   1.462 -0.4036  0.1784 -1.2182
  550MOL0     C72505   3.061   2.740   1.535 -0.5901  0.3146 -0.0707
  550MOL0     C72506   2.988   2.628   1.449  0.0600  0.0746 -0.2520
  550MOL0     C72507   2.937   2.694   1.317  0.0837 -0.0428 -0.3806
  550MOL0     C72508   2.828   2.602   1.258  0.6623 -0.4455 -0.9230
  550MOL0     C72509   2.744   2.672   1.144  0.6835  0.0908  0.2787
  550MOL0     C72510   2.657   2.582   1.065 -0.4281  0.5916 -0.2029
  550MOL0     C72511   2.519   2.557   1.107  0.2221 -0.2061  0.1062
  550MOL0    Cl72512   2.506   2.515   1.286 -0.0593 -0.2527 -0.1598
  550MOL0     C72513   3.386   3.066   1.601 -0.7089  0.3932  0.3215
  550MOL0     C72514   3.509   3.130   1.589 -0.1467 -0.3431 -0.1924
  550MOL0     O72515   3.777   3.160   1.689  0.5454 -0.3681 -0.3234
  550MOL0     C72516   3.968   3.265   1.386  0.1521  0.9393 -0.1357
  550MOL0     C72517   4.101   3.292   1.354  0.4478  0.7479  0.3569
  550MOL0     N72518   4.853   3.386   1.417  0.5644  0.4027  0.4029
  550MOL0     N72519   4.950   3.461   1.391  0.2992  0.3440 -0.0765
  550MOL0     C72520   6.161   2.985   1.627  0.9069  0.1399 -0.6449
  550MOL0     C72521   6.295   2.992   1.649  0.2872  0.0998  0.4862
  550MOL0     C72522   6.734   3.033   1.558  0.2319 -0.2463 -0.3003
  550MOL0     C72523   6.779   3.025   1.688  0.4400  0.3071  0.2969
  550MOL0     C72524   6.911   2.992   1.709  0.5011 -0.1007 -0.2974
  550MOL0     C72525   7.000   2.964   1.605 -0.4978 -0.4304  0.2061
  550MOL0     O72526   7.121   2.917   1.649 -0.0861 -0.5147 -0.1786
  550MOL0     C72527   7.226   2.888   1.557 -0.5952  0.2866  0.7774
  550MOL0     C72528   7.373   2.896   1.610 -0.0531  1.4827 -0.2812
  550MOL0     C72529   7.418   3.045   1.648  0.9819 -0.4945 -0.3847
  550MOL0     C72530   7.562   3.038   1.695 -0.3258  0.9787  0.1204
  550MOL0     C72531   7.673   3.027   1.602 -0.5367 -1.3125 -0.2341
  550MOL0     C72532   7.759   3.009   1.513 -0.3066 -0.4493  0.0126
  550MOL0     C72533   6.955   2.957   1.473  0.9939  0.1015  0.1964
  550MOL0     C72534   6.817   2.987   1.451  0.4026 -0.3147 -0.2607
  550MOL0     H72535   6.383   3.293   1.538  0.0984 -0.7715 -3.8921
  550MOL0     H72536   6.128   3.303   1.505  2.0529  1.8573 -1.1212
  550MOL0     H72537   5.894   3.059   1.747 -0.9317 -0.4261  1.2458
  550MOL0     H72538   5.905   2.922   1.634 -0.3266  0.6879 -2.4997
  550MOL0     H72539   5.678   3.013   1.685  1.4239 -0.5044  0.7435
  550MOL0     H72540   5.720   2.986   1.517 -1.9610  0.3609  1.0120
  550MOL0     H72541   5.778   3.227   1.492 -0.0951 -1.7837 -0.1335
  550MOL0     H72542   5.682   3.256   1.639 -0.4424 -1.4710  0.9466
  550MOL0     H72543   5.570   3.121   1.389  2.8004 -1.0363  1.2312
  550MOL0     H72544   5.479   3.137   1.538 -0.2641 -1.8930 -1.5179
  550MOL0     H72545   5.590   3.371   1.371 -1.4345 -0.5191 -2.1714
  550MOL0     H72546   5.511   3.395   1.516  1.3058  2.7925 -2.5569
  550MOL0     H72547   5.307   3.248   1.417  2.9195 -2.2092  1.4168
  550MOL0     H72548   5.385   3.287   1.264 -0.4229  1.3598 -0.4369
  550MOL0     H72549   5.282   3.482   1.462  1.7224 -1.6147  0.3874
  550MOL0     H72550   5.365   3.524   1.311  1.4065 -0.6324  1.6819
  550MOL0     H72551   5.179   3.400   1.180  1.2525 -0.6415  0.2002
  550MOL0     H72552   5.149   3.554   1.246  1.7650  1.1010  2.0792
  550MOL0     H72553   5.066   3.174   1.301 -0.6551 -1.2523  2.6372
  550MOL0     H72554   4.865   3.063   1.429  0.1931 -0.3197  0.8476
  550MOL0     H72555   4.765   3.114   1.285 -2.1768  0.3279 -0.7939
  550MOL0     H72556   4.698   3.242   1.549 -1.7733  2.3021 -1.1289
  550MOL0     H72557   4.657   3.074   1.528  0.1267  0.7371  1.9816
  550MOL0     H72558   4.571   3.326   1.367 -0.8583 -0.1316 -1.1956
  550MOL0     H72559   4.556   3.171   1.283 -0.1972  0.2200 -0.0402
  550MOL0     H72560   4.442   3.230   1.563 -0.1610 -1.8661  0.7188
  550MOL0     H72561   4.393   3.100   1.454 -0.5183  0.4262  0.5328
  550MOL0     H72562   4.234   3.293   1.663 -3.0380  1.4048  2.3421
  550MOL0     H72563   3.996   3.244   1.719 -2.6326  0.1757 -0.7356
  550MOL0     H72564   3.582   3.033   1.272  0.1135 -1.4024  1.0266
  550MOL0     H72565   3.385   2.887   1.321 -1.7021 -0.9035  0.5518
  550MOL0     H72566   3.258   2.735   1.462  0.5371  1.0750  2.2952
  550MOL0     H72567   3.136   2.836   1.364 -1.0442 -2.1003 -1.7712
  550MOL0     H72568   2.992   2.824   1.541  1.5876  2.5852 -3.2596
  550MOL0     H72569   3.089   2.701   1.633 -1.7662 -0.4125 -0.0136
  550MOL0     H72570   2.905   2.591   1.511  0.5349  0.7684  0.8418
  550MOL0     H72571   3.050   2.543   1.417  0.9255  1.4151 -2.3300
  550MOL0     H72572   2.894   2.793   1.334 -0.0061  0.1569 -1.6701
  550MOL0     H72573   3.014   2.716   1.242 -0.4615  1.7223 -0.4617
  550MOL0     H72574   2.755   2.574   1.334  0.3792  0.5750 -0.7974
  550MOL0     H72575   2.869   2.505   1.229  2.1791 -0.4519  1.0124
  550MOL0     H72576   2.817   2.710   1.073 -1.5091 -0.2213 -2.2957
  550MOL0     H72577   2.686   2.752   1.191 -2.4125 -0.1029 -2.7607
  550MOL0     H72578   2.662   2.643   0.974 -0.2079  0.3597 -0.3484
  550MOL0     H72579   2.707   2.485   1.051  0.3183  0.6419  1.8450
  550MOL0     H72580   2.474   2.481   1.042 -0.4858 -0.0912  0.4431
  550MOL0     H72581   2.461   2.647   1.084  2.1146  0.5374 -2.0968
  550MOL0     H72582   3.333   3.069   1.696  0.9041 -0.9339  1.3159
  550MOL0     H72583   3.556   3.176   1.675 -0.8958 -1.4333  0.8381
  550MOL0     H72584   3.899   3.259   1.303  0.7968 -0.6026 -0.5956
  550MOL0     H72585   4.110   3.327   1.252 -0.4267  2.2794  0.7557
  550MOL0     H72586   6.102   2.901   1.661  1.8593 -0.9588 -1.6183
  550MOL0     H72587   6.343   2.906   1.694 -1.9125 -0.1328  2.5954
  550MOL0     H72588   6.719   3.057   1.772 -0.0930  0.9552 -0.3217
  550MOL0     H72589   6.943   2.999   1.812 -3.1400  0.4104  0.9224
  550MOL0     H72590   7.222   2.963   1.477 -1.8999  1.0468  1.5212
  550MOL0     H72591   7.213   2.788   1.513  0.8031  1.0580 -1.5761
  550MOL0     H72592   7.377   2.827   1.695  1.8955  3.4625  1.3303
  550MOL0     H72593   7.440   2.856   1.533  0.3910  0.6368  0.5188
  550MOL0     H72594   7.357   3.092   1.725  0.7936 -0.7007 -0.4084
  550MOL0     H72595   7.418   3.111   1.561  1.5160  3.2914  2.2237
  550MOL0     H72596   7.577   3.134   1.745 -1.4215  0.1888  2.0730
  550MOL0     H72597   7.573   2.954   1.764  1.1816  0.0422 -1.2092
  550MOL0     H72598   7.836   3.004   1.439 -2.2428 -1.6396 -2.0192
  550MOL0     H72599   7.016   2.930   1.388  1.2214  3.6478 -0.9360
  550MOL0     H72600   6.775   2.972   1.351 -0.0042 -0.6415 -0.0425
  551MOL0     O72601  10.897   3.597   9.760 -0.3528 -0.2452 -0.5706
  551MOL0     C72602  10.932   3.588   9.877  0.9588 -0.0901 -0.0377
  551MOL0     O72603  10.853   3.552   9.979 -0.4163 -0.3195 -0.0818
  551MOL0     C72604  10.738   3.486   9.949 -0.5190 -0.0888 -0.0252
  551MOL0     C72605  10.641   3.538   9.867 -0.0391 -0.0621 -0.7525
  551MOL0     C72606  10.527   3.466   9.827 -0.3300 -0.3395 -0.2016
  551MOL0     C72607  10.518   3.332   9.869 -0.2046  0.2448  0.6971
  551MOL0     O72608  10.403   3.261   9.826  0.4578 -0.3400  0.0096
  551MOL0     C72609  10.357   3.151   9.905  0.0383  0.3433 -0.1815
  551MOL0     C72610  10.204   3.136   9.884 -0.0573 -0.2164 -0.6076
  551MOL0     C72611  10.177   3.121   9.732  0.5095 -0.3052 -0.0985
  551MOL0     C72612  10.060   3.019   9.701 -0.3411  0.1402  0.9441
  551MOL0     C72613  10.007   3.036   9.552 -0.2886 -0.3740  0.1979
  551MOL0     C72614   9.952   2.913   9.500  0.6006  0.6484 -0.2565
  551MOL0     C72615   9.825   2.866   9.578  0.4015  0.4403  0.4033
  551MOL0     C72616   9.775   2.723   9.539 -0.3422  0.1190  0.1758
  551MOL0     N72617   9.635   2.707   9.586  0.7314 -0.5424 -0.0053
  551MOL0     C72618   9.520   2.730   9.515  0.8922 -0.5000 -0.3706
  551MOL0     C72619   9.419   2.738   9.599  0.0838  0.2268 -0.7718
  551MOL0     C72620   9.268   2.770   9.580 -0.1527  1.0371 -0.5283
  551MOL0     C72621   9.179   2.657   9.645 -0.3928 -0.2422  0.1094
  551MOL0     C72622   9.033   2.686   9.623  0.0179 -0.1429  0.3809
  551MOL0     C72623   8.947   2.571   9.671  0.4176 -0.4571 -0.1973
  551MOL0     O72624   8.844   2.626   9.738  0.7347  0.0391  0.3715
  551MOL0     C72625   8.743   2.537   9.773  0.5570 -0.9402 -0.0679
  551MOL0     C72626   8.749   2.401   9.767 -1.1330 -0.3916  0.6348
  551MOL0     C72627   8.635   2.323   9.787 -0.1625  0.4813 -0.6183
  551MOL0     C72628   8.518   2.378   9.847  0.3347  0.4100 -0.9773
  551MOL0     C72629   8.399   2.304   9.885  0.4540 -0.6204  0.1861
  551MOL0     O72630   8.271   2.369   9.911 -0.0416  0.1573  0.3711
  551MOL0     C72631   8.171   2.278   9.926 -0.7590 -0.1153  0.4390
  551MOL0     C72632   8.112   2.256  10.049  0.5593  0.3070 -0.7941
  551MOL0     C72633   8.006   2.156  10.058 -0.0225 -0.2090  0.2539
  551MOL0     C72634   7.963   2.089   9.952 -0.3190  0.2588  1.4171
  551MOL0     O72635   7.855   1.995   9.963  0.3829  0.3139 -0.5043
  551MOL0     C72636   7.736   2.047  10.034 -1.3796 -0.1798  0.2111
  551MOL0     C72637   7.596   1.999   9.982 -0.8771 -0.5156  0.6219
  551MOL0     C72638   7.574   2.050   9.839  0.6047  0.1129 -0.0196
  551MOL0     C72639   7.463   1.958   9.775 -0.0824  0.6851 -0.7323
  551MOL0     C72640   7.416   2.013   9.640 -0.0590  0.0528  0.4278
  551MOL0     C72641   7.336   1.906   9.568 -0.5179 -0.0003 -0.8854
  551MOL0     C72642   7.314   1.929   9.415 -0.3825 -0.1907  0.0533
  551MOL0     C72643   7.214   2.042   9.385 -0.5046  0.7998  0.7976
  551MOL0    Cl72644   7.210   2.058   9.204  0.2862  0.1038 -0.0080
  551MOL0     C72645   8.033   2.104   9.826  0.6635 -0.3177  0.2256
  551MOL0     C72646   8.129   2.203   9.817  0.0657 -0.1437 -0.8406
  551MOL0     O72647   8.426   2.190   9.906  0.6100 -0.5233 -0.3385
  551MOL0     C72648   8.514   2.516   9.860 -0.0345 -0.0443  0.2522
  551MOL0     C72649   8.618   2.598   9.814 -0.5641  0.9924  0.6346
  551MOL0     N72650   9.476   2.711   9.724  0.2175  0.8593  0.0456
  551MOL0     N72651   9.603   2.695   9.714 -0.4624  0.0850  0.6642
  551MOL0     C72652  10.612   3.280   9.963 -0.2591 -0.5872 -0.2091
  551MOL0     C72653  10.725   3.355   9.994  0.7944 -0.2467  0.0205
  551MOL0     C72654  11.073   3.612   9.911 -0.3504  0.5569  0.9341
  551MOL0     C72655  11.137   3.568  10.033  0.0807  0.6773 -0.4162
  551MOL0     C72656  11.268   3.580  10.054  0.2703  1.0227 -0.5004
  551MOL0     C72657  11.353   3.643   9.969  0.1513 -0.1537  0.7531
  551MOL0     O72658  11.489   3.624   9.999  0.1413  0.0487  0.0105
  551MOL0     C72659  11.594   3.627   9.904  0.1218  0.4514 -0.0815
  551MOL0     C72660  11.735   3.647   9.963 -0.1578 -0.1227  0.7796
  551MOL0     C72661  11.758   3.796  10.011 -0.0274  0.5603 -0.6508
  551MOL0     C72662  11.898   3.805  10.074  0.0584  0.3894 -0.4473
  551MOL0     C72663  11.932   3.935  10.095 -0.5870 -0.0433  0.1454
  551MOL0     C72664  11.964   4.050  10.117 -0.0112  0.1486  1.1368
  551MOL0     C72665  11.296   3.699   9.850 -0.9812  0.3375  0.3310
  551MOL0     C72666  11.164   3.677   9.817 -0.0550 -0.0394 -0.2785
  551MOL0     H72667  10.649   3.634   9.816 -0.7562 -0.5539 -1.8352
  551MOL0     H72668  10.456   3.510   9.757 -0.1884  1.3125  0.6278
  551MOL0     H72669  10.382   3.179  10.008  3.1673 -0.2998 -0.6438
  551MOL0     H72670  10.414   3.060   9.883 -0.3977 -0.2046  0.9131
  551MOL0     H72671  10.168   3.233   9.920  0.1042 -0.7901  1.1656
  551MOL0     H72672  10.156   3.053   9.937  1.2953 -1.7195 -1.6531
  551MOL0     H72673  10.269   3.081   9.686  0.8719 -0.3554  0.6523
  551MOL0     H72674  10.147   3.219   9.693  0.7845 -0.3551 -0.4459
  551MOL0     H72675  10.093   2.917   9.724 -1.3895  0.2154  2.9667
  551MOL0     H72676   9.980   3.043   9.771 -2.3090 -1.8522 -0.4544
  551MOL0     H72677  10.096   3.053   9.490 -0.0442  0.0923  0.6647
  551MOL0     H72678   9.945   3.126   9.542  0.3267  0.2555  1.6625
  551MOL0     H72679  10.026   2.832   9.501 -0.2950 -0.2321 -1.7824
  551MOL0     H72680   9.931   2.923   9.393  0.6328  0.5012 -0.2780
  551MOL0     H72681   9.853   2.877   9.683  0.6888 -0.7064  0.4611
  551MOL0     H72682   9.745   2.935   9.550  0.7912  0.4701 -0.7041
  551MOL0     H72683   9.838   2.647   9.585 -1.6710  0.7609  3.3112
  551MOL0     H72684   9.776   2.711   9.430 -1.3585  0.2899  0.1386
  551MOL0     H72685   9.519   2.742   9.407 -1.4025 -2.1442 -0.5963
  551MOL0     H72686   9.245   2.788   9.475  1.2740 -1.2953 -1.3354
  551MOL0     H72687   9.254   2.861   9.638  0.3361  0.4633  0.5176
  551MOL0     H72688   9.201   2.641   9.751 -0.2641  3.2424  0.7183
  551MOL0     H72689   9.197   2.561   9.596  1.4339 -0.0131  0.2411
  551MOL0     H72690   9.008   2.773   9.683 -0.0704 -0.0909  0.2696
  551MOL0     H72691   9.010   2.710   9.518  5.2677 -1.7985 -1.4526
  551MOL0     H72692   9.003   2.502   9.734  3.4516  1.3022 -0.7771
  551MOL0     H72693   8.913   2.516   9.583  1.1009 -1.3442  0.0797
  551MOL0     H72694   8.841   2.353   9.736  0.3285  2.1878  0.7188
  551MOL0     H72695   8.644   2.216   9.772 -0.3986  0.0782  1.7573
  551MOL0     H72696   8.131   2.317  10.137 -0.4244  1.7250 -1.5182
  551MOL0     H72697   7.953   2.145  10.153 -4.0299  3.4956 -1.1716
  551MOL0     H72698   7.747   2.156  10.041 -0.8729 -0.2217  0.1107
  551MOL0     H72699   7.744   2.016  10.139 -0.7427  0.5563  0.3925
  551MOL0     H72700   7.513   2.030  10.046 -0.7374 -0.4158  0.7536
  551MOL0     H72701   7.597   1.889   9.980 -1.4856 -0.5446  1.3687
  551MOL0     H72702   7.667   2.035   9.784  0.9307 -1.9721  0.9734
  551MOL0     H72703   7.543   2.154   9.848  0.1804 -0.1497  2.1959
  551MOL0     H72704   7.498   1.857   9.756 -0.4081  0.2067  1.0394
  551MOL0     H72705   7.374   1.950   9.838  0.2808 -1.0941 -0.4083
  551MOL0     H72706   7.502   2.043   9.579 -1.1791  2.7906  0.0190
  551MOL0     H72707   7.366   2.110   9.655  2.1166  1.1129  1.3735
  551MOL0     H72708   7.247   1.889   9.629  0.7163  0.1235  1.0336
  551MOL0     H72709   7.393   1.813   9.576  1.3206  0.7830 -3.4729
  551MOL0     H72710   7.414   1.953   9.378  1.2380  0.1401  4.0781
  551MOL0     H72711   7.278   1.839   9.365  2.7440 -1.7484  0.3427
  551MOL0     H72712   7.255   2.133   9.429 -0.3564  0.6385  0.9918
  551MOL0     H72713   7.118   2.013   9.429 -0.4549 -0.4518  0.1246
  551MOL0     H72714   8.012   2.050   9.735  0.5484 -3.7539  2.1043
  551MOL0     H72715   8.167   2.221   9.717  0.4103  1.6358 -0.4282
  551MOL0     H72716   8.441   2.573   9.916  0.3092 -1.0155  1.7267
  551MOL0     H72717   8.602   2.702   9.840 -0.3342  0.6847  2.0709
  551MOL0     H72718  10.609   3.178  10.000  1.4538 -0.7836 -0.5032
  551MOL0     H72719  10.793   3.315  10.068  1.9466 -0.0425 -0.9057
  551MOL0     H72720  11.094   3.519  10.119  1.2299  0.1040 -0.1543
  551MOL0     H72721  11.314   3.541  10.144 -0.5027 -0.1191 -0.5810
  551MOL0     H72722  11.584   3.704   9.828  1.1667  0.1956 -0.4928
  551MOL0     H72723  11.600   3.531   9.851 -0.0057  0.3994 -0.0022
  551MOL0     H72724  11.750   3.581  10.049 -2.3232 -0.9649  0.5652
  551MOL0     H72725  11.806   3.617   9.886 -0.9864  2.3008 -1.0461
  551MOL0     H72726  11.686   3.830  10.086  2.3765  0.9104  1.6259
  551MOL0     H72727  11.753   3.864   9.925  0.5863  0.2449 -0.9376
  551MOL0     H72728  11.908   3.750  10.169 -1.5097  1.1609  0.2022
  551MOL0     H72729  11.970   3.764  10.003 -0.9579 -0.2421 -1.1469
  551MOL0     H72730  11.982   4.156  10.119 -0.5482  0.2530  0.7630
  551MOL0     H72731  11.368   3.753   9.789  0.1901 -0.6478  0.8101
  551MOL0     H72732  11.121   3.719   9.727 -0.7811  0.7764  0.4263
  552MOL0     O72733   5.974   2.723   2.341  0.4065  0.7124 -0.6843
  552MOL0     C72734   5.923   2.620   2.390  0.0670 -0.1428 -0.0339
  552MOL0     O72735   5.989   2.502   2.418 -0.0083  0.5339  0.5132
  552MOL0     C72736   6.127   2.499   2.407  0.3191 -0.1385 -1.0209
  552MOL0     C72737   6.202   2.462   2.524 -0.5361 -0.4193  0.6668
  552MOL0     C72738   6.340   2.451   2.528  0.1772  0.0291  0.1981
  552MOL0     C72739   6.416   2.500   2.422 -0.4997  0.3709 -0.2794
  552MOL0     O72740   6.556   2.510   2.409  0.0060 -0.3209  0.2399
  552MOL0     C72741   6.634   2.422   2.495 -0.3256  0.1767  0.0721
  552MOL0     C72742   6.768   2.411   2.429 -0.9032 -0.5860 -0.3974
  552MOL0     C72743   6.846   2.308   2.514  0.0536 -0.0099  0.6591
  552MOL0     C72744   7.001   2.308   2.483  0.4655  0.3881 -0.3036
  552MOL0     C72745   7.078   2.272   2.611 -0.0435  0.1564 -0.2623
  552MOL0     C72746   7.231   2.260   2.578 -0.4792  0.0555  0.0249
  552MOL0     C72747   7.323   2.195   2.681  0.5204  0.3424 -1.2084
  552MOL0     C72748   7.323   2.043   2.686 -0.1820  0.0031 -0.0276
  552MOL0     N72749   7.201   1.977   2.733 -0.1177  0.0970  0.8552
  552MOL0     C72750   7.148   1.983   2.859  0.1024 -0.5868  0.6884
  552MOL0     C72751   7.035   1.905   2.841 -0.4776 -0.4689 -0.6715
  552MOL0     C72752   6.928   1.894   2.953 -0.3109 -0.1301  0.0998
  552MOL0     C72753   6.781   1.920   2.913 -0.4873  0.7676  0.1544
  552MOL0     C72754   6.766   2.051   2.832  0.4843  1.0195 -0.4644
  552MOL0     C72755   6.618   2.084   2.808 -0.1277  0.0789 -0.7160
  552MOL0     O72756   6.565   2.159   2.914  0.0002 -0.2266  0.0524
  552MOL0     C72757   6.432   2.195   2.917 -0.3513 -0.0506  0.2310
  552MOL0     C72758   6.391   2.272   3.023  0.0980  0.4406  0.4961
  552MOL0     C72759   6.256   2.302   3.039  0.0003 -0.0252  0.5542
  552MOL0     C72760   6.155   2.249   2.949 -0.5398  0.1911 -0.0402
  552MOL0     C72761   6.004   2.272   2.965 -0.1598 -0.1026  0.3695
  552MOL0     O72762   5.959   2.312   3.092 -0.0659 -0.2494 -0.0218
  552MOL0     C72763   5.822   2.330   3.110 -0.8478  0.0060 -0.2728
  552MOL0     C72764   5.730   2.231   3.079 -0.5269 -0.2674 -0.2375
  552MOL0     C72765   5.593   2.246   3.114  0.3712 -0.2213 -1.2037
  552MOL0     C72766   5.545   2.369   3.167 -0.6903 -0.7261  0.6705
  552MOL0     O72767   5.421   2.398   3.211  0.5158 -0.7804  0.0523
  552MOL0     C72768   5.311   2.349   3.139  0.2305  0.6281  0.6018
  552MOL0     C72769   5.183   2.380   3.227 -0.2662  0.3431 -0.2573
  552MOL0     C72770   5.049   2.346   3.164  0.0134 -0.6073  0.3067
  552MOL0     C72771   4.942   2.375   3.271 -0.3443  0.4641  0.4908
  552MOL0     C72772   4.805   2.406   3.209 -1.0628 -0.0473 -0.2683
  552MOL0     C72773   4.708   2.438   3.322  0.2999  0.3995 -0.4586
  552MOL0     C72774   4.569   2.458   3.266  0.4619 -0.5218  0.0875
  552MOL0     C72775   4.466   2.454   3.378  0.2612  0.7653  0.4651
  552MOL0    Cl72776   4.303   2.540   3.330  0.0573 -0.4387 -0.2659
  552MOL0     C72777   5.640   2.472   3.199  0.1865 -0.3235 -0.5350
  552MOL0     C72778   5.775   2.435   3.188 -0.1758  0.1202  0.2393
  552MOL0     O72779   5.936   2.248   2.865  0.2353  0.1916 -0.0574
  552MOL0     C72780   6.203   2.177   2.837 -0.0008  0.2348 -0.5602
  552MOL0     C72781   6.337   2.149   2.821  0.8638  0.0442 -0.1148
  552MOL0     N72782   7.025   1.850   2.717 -0.8446 -0.2774  0.3492
  552MOL0     N72783   7.131   1.893   2.654 -0.5208  0.6143 -0.1918
  552MOL0     C72784   6.344   2.545   2.304 -0.2552 -0.0602 -0.3679
  552MOL0     C72785   6.203   2.540   2.297 -0.4056 -0.8892 -0.1318
  552MOL0     C72786   5.781   2.629   2.438 -0.3140 -0.1508 -0.4059
  552MOL0     C72787   5.717   2.516   2.488 -0.6931 -0.2282  0.5246
  552MOL0     C72788   5.580   2.517   2.525  0.5045 -0.3471  0.8422
  552MOL0     C72789   5.514   2.637   2.532  0.3521  0.0144  0.2436
  552MOL0     O72790   5.382   2.627   2.568 -0.4568  0.3574 -0.0818
  552MOL0     C72791   5.308   2.749   2.566 -0.4710  0.0903  0.3105
  552MOL0     C72792   5.153   2.713   2.590  0.1840  0.8373  1.2697
  552MOL0     C72793   5.112   2.589   2.671 -0.8900  0.6053  0.6526
  552MOL0     C72794   4.958   2.564   2.701 -0.2459 -0.4547  0.2735
  552MOL0     C72795   4.891   2.522   2.581 -0.0330 -0.2647  0.0152
  552MOL0     C72796   4.840   2.474   2.483  0.9512  0.5405  0.4219
  552MOL0     C72797   5.581   2.759   2.485 -0.3258  0.7818 -0.3405
  552MOL0     C72798   5.706   2.746   2.444 -0.2347 -0.1391 -0.4619
  552MOL0     H72799   6.142   2.423   2.606 -0.9951  1.8321  1.4999
  552MOL0     H72800   6.379   2.403   2.617 -0.4145 -1.6652 -0.4162
  552MOL0     H72801   6.589   2.322   2.494  0.6599 -0.4439 -4.3011
  552MOL0     H72802   6.651   2.471   2.591  2.5774  0.3420 -0.4376
  552MOL0     H72803   6.825   2.504   2.417 -0.8649 -0.2314  2.0131
  552MOL0     H72804   6.748   2.363   2.333 -2.1249 -1.6687  0.3661
  552MOL0     H72805   6.806   2.207   2.503  0.5999 -0.5432  3.0579
  552MOL0     H72806   6.830   2.339   2.617 -0.1927  1.2047  0.2664
  552MOL0     H72807   7.018   2.226   2.413  2.2383  0.5671 -0.1286
  552MOL0     H72808   7.042   2.395   2.433  1.3275 -0.5006 -1.1845
  552MOL0     H72809   7.041   2.171   2.630 -3.5318  0.3723 -4.4928
  552MOL0     H72810   7.055   2.341   2.693 -0.6096  0.8113 -0.9618
  552MOL0     H72811   7.267   2.360   2.552 -3.2888  1.5807  1.4399
  552MOL0     H72812   7.248   2.195   2.492  0.5834  1.3397 -0.7607
  552MOL0     H72813   7.420   2.244   2.672  0.3000  0.8150 -1.0336
  552MOL0     H72814   7.288   2.241   2.774  1.0355 -1.6559  0.0346
  552MOL0     H72815   7.400   2.021   2.761 -0.0088  0.0434 -0.1919
  552MOL0     H72816   7.355   1.995   2.593 -0.7966  0.5111 -0.5095
  552MOL0     H72817   7.185   2.034   2.947 -2.1803 -2.1237  2.6803
  552MOL0     H72818   6.963   1.958   3.034  1.8604 -1.4123  0.2412
  552MOL0     H72819   6.944   1.798   3.002  0.5072  0.1718  0.4377
  552MOL0     H72820   6.725   1.926   3.006  2.2055  4.9026  1.7949
  552MOL0     H72821   6.751   1.838   2.848 -0.5752  2.4821 -2.1089
  552MOL0     H72822   6.813   2.131   2.891  0.5550 -0.6671  1.9290
  552MOL0     H72823   6.818   2.034   2.737  0.6616  0.3612 -0.2565
  552MOL0     H72824   6.578   1.984   2.788  0.7911 -0.1932 -1.2575
  552MOL0     H72825   6.605   2.148   2.720  0.3726 -1.9082 -2.3117
  552MOL0     H72826   6.451   2.298   3.111  0.4775  0.8462  0.1246
  552MOL0     H72827   6.221   2.357   3.126  1.5875 -1.5315  2.2604
  552MOL0     H72828   5.758   2.131   3.046 -1.7786 -0.8961  0.5228
  552MOL0     H72829   5.519   2.167   3.110 -0.1582  0.0950  1.0894
  552MOL0     H72830   5.308   2.240   3.138  0.6870  0.6124  0.7815
  552MOL0     H72831   5.317   2.380   3.034  1.7772 -2.4266 -0.3369
  552MOL0     H72832   5.190   2.488   3.244  0.9777  0.4158 -1.0629
  552MOL0     H72833   5.199   2.318   3.316 -1.6496  0.6636  0.2458
  552MOL0     H72834   5.049   2.239   3.142  0.2718 -0.4461 -0.4909
  552MOL0     H72835   5.036   2.407   3.074  2.6738 -1.2680 -0.6360
  552MOL0     H72836   4.932   2.290   3.338  0.6360  1.5410  2.0551
  552MOL0     H72837   4.978   2.454   3.338  1.0529 -1.5387  2.2276
  552MOL0     H72838   4.765   2.319   3.155  1.5839  0.3844 -3.2651
  552MOL0     H72839   4.796   2.486   3.135 -3.2461 -1.0113 -1.1339
  552MOL0     H72840   4.729   2.532   3.374  0.9624 -0.6152  1.1946
  552MOL0     H72841   4.703   2.362   3.401 -0.7694  1.4007  0.4850
  552MOL0     H72842   4.564   2.556   3.218  0.9026 -1.2644 -1.5358
  552MOL0     H72843   4.538   2.382   3.194  0.5838 -1.0970  0.6370
  552MOL0     H72844   4.506   2.490   3.473 -1.1824  0.4017  1.2372
  552MOL0     H72845   4.432   2.353   3.404  0.7044  0.3666 -0.4604
  552MOL0     H72846   5.603   2.562   3.245 -1.0354 -2.5679  3.3898
  552MOL0     H72847   5.842   2.519   3.206  1.4766 -1.4181  1.5888
  552MOL0     H72848   6.141   2.138   2.757  0.9121 -0.5632 -0.9023
  552MOL0     H72849   6.367   2.088   2.736  1.4563 -1.1810  0.9401
  552MOL0     H72850   6.392   2.581   2.213 -1.7259  2.2345 -0.3238
  552MOL0     H72851   6.141   2.558   2.210  0.6101 -2.5924 -1.2798
  552MOL0     H72852   5.772   2.423   2.477 -0.4171 -0.1601  1.2831
  552MOL0     H72853   5.539   2.422   2.556 -2.5104 -0.3526 -2.4723
  552MOL0     H72854   5.316   2.800   2.469 -1.4698 -1.4948 -0.6420
  552MOL0     H72855   5.345   2.817   2.644 -0.4401  1.4025 -0.7976
  552MOL0     H72856   5.102   2.795   2.641 -0.8553  0.9675  0.0841
  552MOL0     H72857   5.102   2.708   2.493  0.8321 -0.9844  0.9827
  552MOL0     H72858   5.176   2.599   2.759  0.4420 -1.3418 -0.0269
  552MOL0     H72859   5.150   2.508   2.609  0.8931  2.2889 -0.5588
  552MOL0     H72860   4.957   2.488   2.779  2.0237  0.3190  1.1327
  552MOL0     H72861   4.907   2.648   2.750  2.3002  1.9344 -0.9572
  552MOL0     H72862   4.797   2.421   2.401 -1.8190  2.8184  0.2346
  552MOL0     H72863   5.527   2.854   2.487 -0.1289  0.8987 -0.5654
  552MOL0     H72864   5.760   2.835   2.411  2.5309 -2.1483 -1.8027
  553MOL0     O72865   5.928   0.618   5.204 -0.3920 -0.0838 -0.3613
  553MOL0     C72866   5.947   0.731   5.168 -0.0892 -0.4248  0.6595
  553MOL0     O72867   5.847   0.826   5.144 -1.3114  0.0119 -0.6203
  553MOL0     C72868   5.725   0.796   5.194  0.2449  0.9103  0.6951
  553MOL0     C72869   5.681   0.854   5.310  0.1472  0.1774 -0.4422
  553MOL0     C72870   5.546   0.836   5.350 -1.1113 -0.5285  0.6703
  553MOL0     C72871   5.464   0.741   5.279 -0.2834  0.0772 -0.5306
  553MOL0     O72872   5.347   0.701   5.342  0.0228  0.5252  0.2379
  553MOL0     C72873   5.244   0.697   5.246  0.8034  0.7067 -0.2643
  553MOL0     C72874   5.109   0.703   5.331  0.8782  0.6201 -0.5418
  553MOL0     C72875   5.099   0.834   5.412 -0.1192 -0.3347  0.6513
  553MOL0     C72876   4.992   0.825   5.521 -0.6876 -0.0308  0.7569
  553MOL0     C72877   4.846   0.807   5.473 -0.3611  0.4489 -0.3872
  553MOL0     C72878   4.752   0.764   5.576 -0.6489 -0.0885  0.1396
  553MOL0     C72879   4.614   0.743   5.527  0.2037  0.3032 -1.0666
  553MOL0     C72880   4.512   0.732   5.649  0.1232  0.6199  0.6575
  553MOL0     N72881   4.376   0.701   5.598  0.0281  0.1180  0.2335
  553MOL0     C72882   4.278   0.791   5.556 -0.1801  0.6721 -1.1496
  553MOL0     C72883   4.176   0.707   5.508  0.1256 -0.5307  0.0424
  553MOL0     C72884   4.039   0.747   5.445 -0.0204 -0.5910 -0.3726
  553MOL0     C72885   3.926   0.733   5.547 -0.3652 -0.3046  0.5194
  553MOL0     C72886   3.804   0.813   5.501  0.4797  0.2695 -0.0972
  553MOL0     C72887   3.667   0.759   5.563  0.3343  0.5714  0.1157
  553MOL0     O72888   3.554   0.827   5.500  0.3457 -0.1868  0.2390
  553MOL0     C72889   3.448   0.753   5.473 -0.7327  0.3391  0.1485
  553MOL0     C72890   3.367   0.719   5.581  0.1039  0.6009 -0.7529
  553MOL0     C72891   3.246   0.656   5.558  0.5416  0.1656 -0.0138
  553MOL0     C72892   3.193   0.635   5.426 -1.2428  0.5146 -0.3125
  553MOL0     C72893   3.064   0.577   5.405 -0.4477  0.2817 -0.4873
  553MOL0     O72894   2.979   0.577   5.514 -0.7477  0.0404 -0.1241
  553MOL0     C72895   2.849   0.551   5.500 -0.0633 -0.7086 -0.5367
  553MOL0     C72896   2.790   0.558   5.628  1.0569 -0.5735 -0.3112
  553MOL0     C72897   2.653   0.533   5.645 -0.6704  0.4888  0.1779
  553MOL0     C72898   2.576   0.497   5.530 -1.2491 -0.0444  0.3447
  553MOL0     O72899   2.443   0.479   5.542 -0.2110  0.4638 -0.1301
  553MOL0     C72900   2.372   0.528   5.658  0.6346 -0.9526 -0.8802
  553MOL0     C72901   2.228   0.568   5.643 -0.1899 -0.3859 -0.8820
  553MOL0     C72902   2.135   0.467   5.581 -0.3164 -0.7254  0.3590
  553MOL0     C72903   2.000   0.527   5.540  0.3715 -0.2982  0.2368
  553MOL0     C72904   1.921   0.432   5.445  0.0460  0.2200 -0.6995
  553MOL0     C72905   1.964   0.449   5.291 -0.7310  0.1735  0.4121
  553MOL0     C72906   1.886   0.562   5.225  0.5441 -0.3569 -0.3391
  553MOL0     C72907   1.964   0.598   5.098  0.3832  0.9344 -1.0661
  553MOL0    Cl72908   2.101   0.710   5.140  0.0390  0.3400  0.3107
  553MOL0     C72909   2.634   0.492   5.406 -0.1632  0.1145 -0.1711
  553MOL0     C72910   2.771   0.524   5.386  0.3412  0.4536  1.3201
  553MOL0     O72911   3.045   0.514   5.304 -0.5871  0.1615 -0.4308
  553MOL0     C72912   3.266   0.676   5.323  0.1026  0.0663  0.6321
  553MOL0     C72913   3.398   0.727   5.346  0.2002 -0.3179 -0.3424
  553MOL0     N72914   4.210   0.579   5.533 -0.4867  0.2513 -0.0340
  553MOL0     N72915   4.324   0.577   5.584  0.4595 -0.6084  0.0388
  553MOL0     C72916   5.522   0.667   5.163 -0.4700  0.1047 -0.4328
  553MOL0     C72917   5.653   0.696   5.123  1.2022 -0.3256  0.5782
  553MOL0     C72918   6.089   0.769   5.123  0.7029  0.0808 -0.1151
  553MOL0     C72919   6.180   0.676   5.070 -0.4507  0.6700  0.2609
  553MOL0     C72920   6.306   0.716   5.035  0.1497 -0.7693  0.7219
  553MOL0     C72921   6.352   0.846   5.044  0.2300 -0.0976  0.2621
  553MOL0     O72922   6.472   0.877   4.993  0.0115  0.1357 -0.2636
  553MOL0     C72923   6.529   1.009   5.029  0.4846  0.4311 -0.6961
  553MOL0     C72924   6.515   1.113   4.919  0.2681 -0.5827 -0.4007
  553MOL0     C72925   6.597   1.085   4.802 -0.2876  0.2342  0.7705
  553MOL0     C72926   6.752   1.075   4.822 -0.1477 -0.3116  0.9679
  553MOL0     C72927   6.810   1.192   4.887  0.5674  0.0659 -0.1130
  553MOL0     C72928   6.859   1.298   4.925 -0.3580 -0.2449  0.9999
  553MOL0     C72929   6.258   0.943   5.076  0.6678 -0.2401  0.0381
  553MOL0     C72930   6.128   0.908   5.122  0.1373 -0.5599  0.8005
  553MOL0     H72931   5.744   0.908   5.379  0.2741 -0.2227 -0.2412
  553MOL0     H72932   5.498   0.883   5.435 -2.5653  2.9693 -1.8654
  553MOL0     H72933   5.241   0.613   5.176 -1.1895 -1.1202  1.8589
  553MOL0     H72934   5.239   0.790   5.189  2.4823 -0.9356 -3.3768
  553MOL0     H72935   5.101   0.607   5.382 -0.9686 -1.0590 -3.6633
  553MOL0     H72936   5.020   0.699   5.267 -0.2614 -1.2257  1.0592
  553MOL0     H72937   5.072   0.917   5.347  0.3475 -0.8159 -0.1704
  553MOL0     H72938   5.196   0.854   5.459  1.5519 -2.6999 -1.5220
  553MOL0     H72939   5.024   0.754   5.599  0.8843  2.0220  2.0820
  553MOL0     H72940   5.002   0.914   5.584  0.5389  0.0724  0.4534
  553MOL0     H72941   4.840   0.746   5.382 -0.3285 -1.2245  0.6879
  553MOL0     H72942   4.816   0.906   5.439 -2.2935  0.4561  1.1927
  553MOL0     H72943   4.756   0.844   5.650  1.5148  3.8749 -3.7830
  553MOL0     H72944   4.786   0.670   5.620 -0.7087  0.0325  0.4468
  553MOL0     H72945   4.585   0.821   5.456  1.2232 -0.7455 -2.7074
  553MOL0     H72946   4.605   0.648   5.473 -0.4467 -0.4859  0.3820
  553MOL0     H72947   4.500   0.823   5.708 -1.1202 -1.3944  3.7719
  553MOL0     H72948   4.540   0.648   5.713  0.4947 -0.8384 -1.3036
  553MOL0     H72949   4.285   0.899   5.559 -1.1770  0.7398  1.7018
  553MOL0     H72950   4.024   0.682   5.358  1.3065 -2.6710  0.8531
  553MOL0     H72951   4.050   0.853   5.421  2.2723 -0.6161  0.2722
  553MOL0     H72952   3.943   0.778   5.645  1.0851  0.4607 -0.0517
  553MOL0     H72953   3.911   0.625   5.557  0.4189 -0.7498 -2.2562
  553MOL0     H72954   3.811   0.921   5.511 -0.2979  0.4242 -1.0670
  553MOL0     H72955   3.799   0.802   5.392  1.3770 -1.8622  0.0197
  553MOL0     H72956   3.665   0.767   5.673 -2.7012  1.7551  0.0679
  553MOL0     H72957   3.655   0.651   5.552 -0.9080  0.6712  0.2792
  553MOL0     H72958   3.410   0.744   5.678  2.1255 -1.9386 -0.8905
  553MOL0     H72959   3.187   0.630   5.645  1.1024 -1.3207 -0.0508
  553MOL0     H72960   2.857   0.581   5.710 -0.7853  2.8874  0.4155
  553MOL0     H72961   2.620   0.541   5.748 -1.6135  0.2903 -0.1040
  553MOL0     H72962   2.415   0.616   5.706  1.5915 -1.1062 -1.4311
  553MOL0     H72963   2.377   0.450   5.735 -0.7191  0.4140  0.7007
  553MOL0     H72964   2.222   0.658   5.582 -3.5502  0.0382 -0.1339
  553MOL0     H72965   2.186   0.598   5.740 -0.7433 -2.2623 -0.4868
  553MOL0     H72966   2.112   0.386   5.650  2.1212 -0.6294  1.3839
  553MOL0     H72967   2.193   0.427   5.497  1.0016 -2.3632  1.9739
  553MOL0     H72968   1.950   0.539   5.637  1.3537 -2.9010  1.1574
  553MOL0     H72969   2.019   0.616   5.478  0.3322 -1.8398 -2.1099
  553MOL0     H72970   1.812   0.441   5.443 -0.0491 -0.7680 -0.7941
  553MOL0     H72971   1.935   0.329   5.480 -0.4007  2.1422  6.8048
  553MOL0     H72972   1.951   0.351   5.244 -0.6204  0.4835 -0.2863
  553MOL0     H72973   2.072   0.467   5.289 -0.5682 -0.6533  1.1349
  553MOL0     H72974   1.795   0.516   5.185 -0.8135 -0.4173  2.5824
  553MOL0     H72975   1.854   0.651   5.279 -2.6399 -1.8713  0.5121
  553MOL0     H72976   1.892   0.646   5.031  0.8344  1.3190 -1.2827
  553MOL0     H72977   2.004   0.504   5.060  1.9258  0.1025  2.2296
  553MOL0     H72978   2.579   0.460   5.318 -0.6708  2.9141 -1.0040
  553MOL0     H72979   2.819   0.510   5.290  0.8093 -0.4501  1.6692
  553MOL0     H72980   3.229   0.668   5.221  0.4022  0.5149  0.4902
  553MOL0     H72981   3.462   0.741   5.260 -1.7035 -1.8815 -2.1088
  553MOL0     H72982   5.467   0.586   5.116  1.3793 -0.7265 -1.2230
  553MOL0     H72983   5.682   0.629   5.043 -2.2583  0.4605 -1.5206
  553MOL0     H72984   6.138   0.577   5.057 -0.1391  0.5490  0.1733
  553MOL0     H72985   6.378   0.642   5.001 -0.2717 -0.0434 -1.9482
  553MOL0     H72986   6.634   0.984   5.047 -0.2516 -0.1068  4.5416
  553MOL0     H72987   6.489   1.045   5.124 -1.7278  1.1312 -1.8273
  553MOL0     H72988   6.412   1.124   4.886  0.3535  1.9087 -0.0320
  553MOL0     H72989   6.538   1.214   4.955  1.4012 -0.8000 -0.4605
  553MOL0     H72990   6.576   1.165   4.730  0.5704  1.5546  1.9492
  553MOL0     H72991   6.555   0.993   4.760 -2.3917 -0.6940  4.4880
  553MOL0     H72992   6.779   0.983   4.875  4.5438 -0.1343 -0.7126
  553MOL0     H72993   6.802   1.067   4.725  0.2376  1.8966  0.9401
  553MOL0     H72994   6.908   1.385   4.962  0.0189 -0.1038  0.1907
  553MOL0     H72995   6.275   1.046   5.048 -2.8314  0.3255 -0.4656
  553MOL0     H72996   6.060   0.987   5.152  0.3349 -0.2400  0.4206
  554MOL0     O72997   1.682   8.780   1.055  0.0774  0.2544 -0.1951
  554MOL0     C72998   1.695   8.875   0.978 -0.6121  0.7128  0.1539
  554MOL0     O72999   1.606   8.923   0.886 -0.3956  0.1942 -0.0778
  554MOL0     C73000   1.482   8.859   0.853 -0.3727 -0.1514 -0.0594
  554MOL0     C73001   1.369   8.923   0.807 -0.5122 -0.9895  0.7906
  554MOL0     C73002   1.259   8.852   0.755 -0.0139  1.2183 -0.0946
  554MOL0     C73003   1.262   8.711   0.736 -0.1077  0.0536  0.6462
  554MOL0     O73004   1.161   8.643   0.669  0.0031  0.0651 -0.6080
  554MOL0     C73005   1.162   8.492   0.678 -0.4544 -0.2106 -0.2397
  554MOL0     C73006   1.034   8.443   0.613  0.1508  0.8412  1.0971
  554MOL0     C73007   0.910   8.458   0.701 -0.6435  0.0998 -0.8545
  554MOL0     C73008   0.775   8.441   0.631 -0.0304  0.8993 -0.6284
  554MOL0     C73009   0.658   8.453   0.726 -0.0825 -0.0499  0.6302
  554MOL0     C73010   0.533   8.446   0.643 -0.0186  1.0946 -0.0184
  554MOL0     C73011   0.411   8.521   0.702 -0.0240  0.1540 -0.5881
  554MOL0     C73012   0.308   8.534   0.600  0.5615  0.2830  0.5229
  554MOL0     N73013   0.182   8.575   0.667  0.6724  0.0847 -0.2709
  554MOL0     C73014   0.124   8.699   0.668  0.4738 -0.7067  0.0661
  554MOL0     C73015   0.001   8.676   0.720 -0.2715 -0.5828 -0.3360
  554MOL0     C73016  -0.102   8.786   0.749 -0.0255  0.3198  0.5483
  554MOL0     C73017  -0.250   8.735   0.740 -0.5359  0.1685 -0.0165
  554MOL0     C73018  -0.348   8.844   0.702  0.2478  0.3411  0.5582
  554MOL0     C73019  -0.494   8.808   0.697  0.4469  0.7911 -0.6610
  554MOL0     O73020  -0.573   8.919   0.729  0.5389  0.3493 -0.2093
  554MOL0     C73021  -0.710   8.897   0.748  0.1745 -0.9564  0.0095
  554MOL0     C73022  -0.790   8.795   0.689  0.0641  0.8469 -0.0747
  554MOL0     C73023  -0.928   8.791   0.718 -0.1545  0.5636 -0.0304
  554MOL0     C73024  -0.988   8.875   0.814 -0.1785  0.6273 -0.5327
  554MOL0     C73025  -1.131   8.865   0.844  0.4969  0.2322 -1.1243
  554MOL0     O73026  -1.210   8.973   0.887 -0.1774 -0.1322  0.1443
  554MOL0     C73027  -1.342   8.947   0.922 -0.4267 -0.6068  0.5773
  554MOL0     C73028  -1.393   8.846   1.006  0.4294 -0.3768  0.0636
  554MOL0     C73029  -1.528   8.846   1.034  0.0602  1.0638  0.2297
  554MOL0     C73030  -1.616   8.938   0.986  0.6773  0.1515  0.6172
  554MOL0     O73031  -1.746   8.941   1.014 -0.3233 -0.0886 -0.1853
  554MOL0     C73032  -1.806   8.859   1.112 -1.1520 -0.0217 -0.4785
  554MOL0     C73033  -1.957   8.871   1.101  0.4385  0.1886 -0.3084
  554MOL0     C73034  -2.025   8.820   0.975 -0.3385  0.6390 -0.7373
  554MOL0     C73035  -2.180   8.837   0.949  0.0800  0.1994  0.5928
  554MOL0     C73036  -2.229   8.743   0.840 -0.4074 -0.7934 -0.1424
  554MOL0     C73037  -2.199   8.806   0.702 -0.3568  0.2153  0.5779
  554MOL0     C73038  -2.283   8.741   0.592 -0.7568  0.2613 -0.1253
  554MOL0     C73039  -2.427   8.794   0.579 -0.1061 -0.4894 -0.6039
  554MOL0    Cl73040  -2.517   8.668   0.504  0.0208  0.2213 -0.1926
  554MOL0     C73041  -1.576   9.035   0.897  0.2423 -0.1811 -0.1310
  554MOL0     C73042  -1.436   9.038   0.878  0.1999 -0.2951  0.2663
  554MOL0     O73043  -1.168   8.750   0.844  0.2063  0.3390  0.5717
  554MOL0     C73044  -0.904   8.969   0.883  0.0581  0.6769 -1.0199
  554MOL0     C73045  -0.762   8.976   0.848  0.0237  0.8935 -0.2316
  554MOL0     N73046  -0.021   8.538   0.738  1.0679 -0.3343  0.2690
  554MOL0     N73047   0.092   8.481   0.715  0.0773 -0.0737  0.0940
  554MOL0     C73048   1.377   8.653   0.779 -0.7878  0.4737 -0.2585
  554MOL0     C73049   1.481   8.719   0.842  0.5885 -0.1171 -0.0252
  554MOL0     C73050   1.818   8.952   1.002  0.2538  0.0633 -0.7230
  554MOL0     C73051   1.926   8.892   1.070 -0.8327  0.5944  0.4225
  554MOL0     C73052   2.037   8.971   1.105 -0.1383 -0.1713  0.1377
  554MOL0     C73053   2.046   9.101   1.059  0.2614 -0.3947  0.2202
  554MOL0     O73054   2.163   9.169   1.097 -0.5913 -0.4106  0.5049
  554MOL0     C73055   2.201   9.290   1.032  0.3709  0.0413 -0.6857
  554MOL0     C73056   2.166   9.410   1.121  0.1873 -0.4608  0.2964
  554MOL0     C73057   2.218   9.394   1.264  0.2362 -0.2077 -0.6491
  554MOL0     C73058   2.223   9.521   1.353  0.7394  0.1654  0.5306
  554MOL0     C73059   2.241   9.493   1.491  0.0563 -0.5832 -0.7851
  554MOL0     C73060   2.265   9.485   1.611 -0.5825  0.1488 -0.5819
  554MOL0     C73061   1.937   9.166   0.981 -0.0069  0.2864 -0.8342
  554MOL0     C73062   1.820   9.089   0.962  0.1043  0.2341 -0.0479
  554MOL0     H73063   1.353   9.030   0.812  1.1711 -0.5606 -1.5637
  554MOL0     H73064   1.163   8.894   0.728 -0.9020 -0.4875  0.2467
  554MOL0     H73065   1.162   8.472   0.786 -0.5665  0.0741 -0.1857
  554MOL0     H73066   1.252   8.455   0.628  0.9722  1.3534  1.0189
  554MOL0     H73067   1.038   8.341   0.573 -2.0392  2.0742 -2.7979
  554MOL0     H73068   1.035   8.510   0.527  2.6648 -1.6563 -0.9949
  554MOL0     H73069   0.921   8.553   0.753  0.0312 -1.4212  2.0342
  554MOL0     H73070   0.930   8.388   0.783 -2.5467 -0.9771 -1.2639
  554MOL0     H73071   0.771   8.520   0.555 -2.6257  1.4199 -0.0201
  554MOL0     H73072   0.759   8.345   0.579 -0.7210  1.9447 -2.4546
  554MOL0     H73073   0.670   8.557   0.759  0.8978  0.6593 -1.6998
  554MOL0     H73074   0.660   8.386   0.812 -1.0782 -2.0765 -0.8546
  554MOL0     H73075   0.518   8.339   0.627  1.2372  1.1090 -1.5562
  554MOL0     H73076   0.561   8.489   0.546 -0.8705 -0.8940 -1.2166
  554MOL0     H73077   0.375   8.483   0.799  3.4583  0.8212  1.1102
  554MOL0     H73078   0.441   8.623   0.727  0.3672  0.2769 -1.5616
  554MOL0     H73079   0.300   8.439   0.547 -0.3583 -0.0000  1.1629
  554MOL0     H73080   0.337   8.609   0.525  2.0263 -0.4388  0.3178
  554MOL0     H73081   0.175   8.790   0.639 -0.4290  0.3505  1.6260
  554MOL0     H73082  -0.094   8.870   0.680  2.3322 -1.5685 -1.6501
  554MOL0     H73083  -0.085   8.829   0.848 -2.1900 -0.8741  1.5195
  554MOL0     H73084  -0.286   8.689   0.832 -0.8007  0.3390 -0.0331
  554MOL0     H73085  -0.261   8.653   0.668 -1.0424  0.0272  0.2203
  554MOL0     H73086  -0.342   8.917   0.783 -0.9647 -0.6111  1.5603
  554MOL0     H73087  -0.322   8.880   0.602  0.2910 -2.6278 -0.5993
  554MOL0     H73088  -0.516   8.723   0.762 -1.4444  2.5357  1.1486
  554MOL0     H73089  -0.512   8.774   0.594  0.5705  0.2502 -0.5095
  554MOL0     H73090  -0.751   8.728   0.613 -0.5566  2.3775 -1.8391
  554MOL0     H73091  -0.975   8.708   0.666 -1.3060 -1.0368  3.2743
  554MOL0     H73092  -1.331   8.763   1.038 -1.1764 -2.0106 -0.8220
  554MOL0     H73093  -1.557   8.760   1.094  1.2491  1.2894  1.1750
  554MOL0     H73094  -1.771   8.886   1.212  0.2820 -1.2834 -0.6154
  554MOL0     H73095  -1.776   8.754   1.102 -2.6081 -0.2894 -2.9026
  554MOL0     H73096  -1.997   8.971   1.121 -2.5379 -1.3020  2.0720
  554MOL0     H73097  -2.009   8.823   1.185  1.0117  1.9344  1.1076
  554MOL0     H73098  -1.999   8.715   0.960 -0.0173  0.9471 -2.5868
  554MOL0     H73099  -1.973   8.869   0.892 -0.0472  0.6357 -0.5579
  554MOL0     H73100  -2.221   8.801   1.044  0.5804 -1.1034  0.3428
  554MOL0     H73101  -2.209   8.941   0.937 -1.4289  0.4292  4.6847
  554MOL0     H73102  -2.336   8.731   0.859 -0.5408  2.2826  1.7075
  554MOL0     H73103  -2.184   8.647   0.866  0.7860  0.0325  1.0047
  554MOL0     H73104  -2.092   8.793   0.681 -0.9790 -2.5774 -1.4024
  554MOL0     H73105  -2.223   8.913   0.694  0.7453  0.3391 -3.6493
  554MOL0     H73106  -2.221   8.764   0.504  1.1226  1.0249  1.3443
  554MOL0     H73107  -2.288   8.633   0.610 -2.8308  0.7501  3.0885
  554MOL0     H73108  -2.433   8.889   0.524  0.8074  1.0556  1.7642
  554MOL0     H73109  -2.475   8.797   0.678 -0.7596 -4.5953 -0.6484
  554MOL0     H73110  -1.652   9.102   0.857 -0.8223 -0.4729  1.3083
  554MOL0     H73111  -1.406   9.115   0.807 -2.2778  0.9063  0.4120
  554MOL0     H73112  -0.944   9.023   0.969  0.8918 -1.0977  0.5660
  554MOL0     H73113  -0.697   9.044   0.903  0.6766  0.6369 -0.6645
  554MOL0     H73114   1.408   8.550   0.783 -0.7006  0.4437  4.4433
  554MOL0     H73115   1.566   8.658   0.871  0.2747 -0.5349  0.0333
  554MOL0     H73116   1.923   8.786   1.097 -1.1681 -0.0174 -1.8564
  554MOL0     H73117   2.116   8.929   1.166 -2.3168  1.1573  4.3370
  554MOL0     H73118   2.153   9.304   0.935 -0.8794  0.3101 -0.0445
  554MOL0     H73119   2.308   9.282   1.009 -0.0269  0.0301 -2.7359
  554MOL0     H73120   2.212   9.500   1.080 -0.6007  0.3069  1.0381
  554MOL0     H73121   2.061   9.441   1.131  0.7525  1.0387  2.2679
  554MOL0     H73122   2.321   9.361   1.244 -0.1040 -2.8767  1.5071
  554MOL0     H73123   2.174   9.308   1.314  2.6298 -2.0904 -1.5477
  554MOL0     H73124   2.307   9.585   1.324 -0.3390  2.9528  3.0936
  554MOL0     H73125   2.135   9.583   1.336  0.2272 -0.6488  0.1365
  554MOL0     H73126   2.292   9.486   1.715  1.0672  0.0247 -0.9695
  554MOL0     H73127   1.933   9.269   0.946 -0.5412  0.2281 -0.9529
  554MOL0     H73128   1.735   9.132   0.911 -2.4862 -3.7830  0.3979
  555MOL0     O73129   2.071   5.890   7.217 -0.0238  0.3434  0.0183
  555MOL0     C73130   2.015   5.793   7.167  0.7063  0.0951  1.2166
  555MOL0     O73131   2.058   5.658   7.167 -0.2671  0.0802  0.2661
  555MOL0     C73132   2.169   5.619   7.239  0.2693 -0.0241  0.7807
  555MOL0     C73133   2.163   5.503   7.309  0.8249  0.1961  0.3309
  555MOL0     C73134   2.262   5.457   7.390 -0.6008  0.6589  0.1828
  555MOL0     C73135   2.383   5.534   7.394  0.8803  0.4422  0.0512
  555MOL0     O73136   2.479   5.495   7.480  0.6343 -0.4890  0.7066
  555MOL0     C73137   2.583   5.578   7.520 -0.1189  1.1004 -0.6118
  555MOL0     C73138   2.688   5.511   7.611  0.4672 -0.7152  0.2870
  555MOL0     C73139   2.823   5.576   7.595 -0.5269 -0.3663  0.8866
  555MOL0     C73140   2.917   5.508   7.694  0.0473 -0.3601  0.7722
  555MOL0     C73141   3.045   5.574   7.725  0.1755  0.8649  0.7265
  555MOL0     C73142   3.115   5.508   7.845  0.0468 -0.1882 -0.9653
  555MOL0     C73143   3.267   5.528   7.856 -0.6342 -0.8240 -0.4353
  555MOL0     C73144   3.357   5.450   7.759  0.6436 -0.1407  0.6422
  555MOL0     N73145   3.505   5.459   7.797  0.3646 -0.4143  0.4077
  555MOL0     C73146   3.595   5.365   7.757 -0.1635  0.3718 -0.1531
  555MOL0     C73147   3.721   5.425   7.763 -0.0933 -0.3169 -0.3171
  555MOL0     C73148   3.849   5.362   7.709  0.4108 -0.8729  1.0166
  555MOL0     C73149   3.840   5.292   7.565 -0.7406  0.4047 -0.3957
  555MOL0     C73150   3.839   5.393   7.446  0.5786  0.3626  0.4656
  555MOL0     C73151   3.732   5.499   7.452  0.4823  0.5849  0.2047
  555MOL0     O73152   3.607   5.432   7.432 -0.2224  0.4154 -0.3601
  555MOL0     C73153   3.501   5.507   7.431 -0.7864  0.4272 -0.8459
  555MOL0     C73154   3.397   5.445   7.357 -0.1282 -0.0083  0.4712
  555MOL0     C73155   3.276   5.514   7.327 -0.2203  0.1894 -0.2513
  555MOL0     C73156   3.260   5.646   7.377 -1.2707 -0.0072  1.0554
  555MOL0     C73157   3.145   5.717   7.339  1.7744 -0.7150  0.3717
  555MOL0     O73158   3.023   5.650   7.316 -0.2825 -0.1492 -0.4950
  555MOL0     C73159   2.916   5.718   7.250  0.8031  0.5933 -0.8195
  555MOL0     C73160   2.846   5.828   7.305 -0.3972 -0.3478 -0.2589
  555MOL0     C73161   2.737   5.889   7.234  0.0051  0.7881 -0.0241
  555MOL0     C73162   2.688   5.837   7.113  0.0941  0.3468  0.0070
  555MOL0     O73163   2.573   5.889   7.068  0.0176  0.1451  0.0735
  555MOL0     C73164   2.540   5.844   6.938  0.4038  0.3871  0.0843
  555MOL0     C73165   2.431   5.937   6.885  0.1567  0.2217 -0.1973
  555MOL0     C73166   2.296   5.852   6.853  0.2276 -0.5882 -0.9393
  555MOL0     C73167   2.181   5.935   6.790  0.3241 -0.1148 -0.7655
  555MOL0     C73168   2.061   5.850   6.753  0.5070  0.2285 -0.5409
  555MOL0     C73169   1.935   5.933   6.703  0.0861  0.4913  0.7507
  555MOL0     C73170   1.826   5.824   6.658 -0.2192 -0.1823 -0.1085
  555MOL0     C73171   1.684   5.898   6.635 -0.0178  0.1872  0.2077
  555MOL0    Cl73172   1.679   6.034   6.517 -0.0740 -0.0181 -0.4647
  555MOL0     C73173   2.751   5.720   7.058 -0.3641 -0.1185  0.0157
  555MOL0     C73174   2.863   5.664   7.135 -0.8203  0.6286 -0.2432
  555MOL0     O73175   3.150   5.840   7.328  0.0686  0.2462 -0.4042
  555MOL0     C73176   3.372   5.705   7.455  0.4369 -0.1932 -1.0998
  555MOL0     C73177   3.480   5.629   7.489  1.0416 -0.5462 -0.7502
  555MOL0     N73178   3.704   5.546   7.832  0.3817 -0.2254 -0.4686
  555MOL0     N73179   3.571   5.566   7.845 -0.8019 -0.1045  0.2200
  555MOL0     C73180   2.398   5.652   7.318  1.0371  0.3780  0.5840
  555MOL0     C73181   2.286   5.689   7.242  0.1453 -0.5312 -0.9753
  555MOL0     C73182   1.884   5.835   7.104  0.0892  0.6829  0.5622
  555MOL0     C73183   1.807   5.724   7.058 -0.3918 -0.0707  0.3632
  555MOL0     C73184   1.682   5.752   7.010 -0.1574 -0.3055  0.2744
  555MOL0     C73185   1.639   5.883   6.990  0.1463 -0.2355  0.1848
  555MOL0     O73186   1.520   5.897   6.923 -0.1805 -0.4174 -0.5367
  555MOL0     C73187   1.407   5.799   6.940  0.0539 -0.6737  0.9403
  555MOL0     C73188   1.271   5.870   6.900 -0.4631  0.1834 -0.5872
  555MOL0     C73189   1.243   5.977   7.006  0.8488 -0.9121  0.3317
  555MOL0     C73190   1.104   6.047   6.989 -0.1708  0.2256  0.2180
  555MOL0     C73191   0.989   5.962   6.977  0.8375  0.8978  0.8251
  555MOL0     C73192   0.891   5.896   6.955  0.1543 -0.6549  0.2326
  555MOL0     C73193   1.720   5.988   7.032 -1.3328  0.9663 -0.6391
  555MOL0     C73194   1.845   5.967   7.079 -0.5254 -0.4201  0.1708
  555MOL0     H73195   2.071   5.445   7.308  0.4008  0.8459 -0.6967
  555MOL0     H73196   2.255   5.367   7.451  1.9252  1.0178  1.1111
  555MOL0     H73197   2.539   5.661   7.576  0.9132 -0.2582  2.4215
  555MOL0     H73198   2.636   5.603   7.428  0.7095  0.7048 -0.2480
  555MOL0     H73199   2.695   5.406   7.581  1.6978 -0.5629  0.0018
  555MOL0     H73200   2.659   5.514   7.716  0.9602 -0.8877  0.4274
  555MOL0     H73201   2.810   5.682   7.616 -2.2551 -0.1380 -0.9470
  555MOL0     H73202   2.863   5.574   7.493 -4.0680 -2.1464 -0.6604
  555MOL0     H73203   2.879   5.496   7.796  0.1058 -1.1451  0.7110
  555MOL0     H73204   2.929   5.408   7.650 -2.8262 -0.8001  0.8015
  555MOL0     H73205   3.038   5.683   7.738 -2.2292  0.6605  1.8685
  555MOL0     H73206   3.099   5.551   7.633  0.0152 -3.2649  1.4681
  555MOL0     H73207   3.088   5.402   7.839 -0.7723 -0.0383 -0.1414
  555MOL0     H73208   3.070   5.542   7.939  2.8600 -0.4962  0.6029
  555MOL0     H73209   3.285   5.634   7.836  2.3489 -1.0153  0.6483
  555MOL0     H73210   3.298   5.510   7.959  0.6198 -1.0818 -0.8400
  555MOL0     H73211   3.342   5.477   7.655 -2.1636  0.8800  1.2242
  555MOL0     H73212   3.331   5.344   7.772 -0.9138  0.3732  1.9364
  555MOL0     H73213   3.563   5.266   7.728 -3.5729  0.6311  2.0570
  555MOL0     H73214   3.895   5.295   7.781 -1.4210 -1.1254  2.0260
  555MOL0     H73215   3.918   5.445   7.692  0.8699 -1.6634 -1.3897
  555MOL0     H73216   3.748   5.232   7.559 -2.2092  2.6072 -1.0854
  555MOL0     H73217   3.924   5.223   7.551 -1.2537 -0.2000 -0.5565
  555MOL0     H73218   3.939   5.435   7.457  0.3990  1.2219 -0.9326
  555MOL0     H73219   3.822   5.329   7.359 -1.9815 -0.3835  1.4275
  555MOL0     H73220   3.738   5.567   7.366 -2.0631 -3.0455 -3.2069
  555MOL0     H73221   3.742   5.550   7.548 -0.7127 -3.2249  2.5355
  555MOL0     H73222   3.413   5.347   7.313  1.5477  1.2539 -2.0045
  555MOL0     H73223   3.195   5.463   7.274  0.5837 -2.2638  0.7431
  555MOL0     H73224   2.878   5.868   7.400  2.8725  0.5844 -1.6088
  555MOL0     H73225   2.690   5.983   7.261  0.6460  0.7560  1.2662
  555MOL0     H73226   2.506   5.741   6.947 -1.3159  0.9014 -0.0606
  555MOL0     H73227   2.626   5.861   6.872 -0.6367  0.7295 -1.2380
  555MOL0     H73228   2.470   5.991   6.798 -5.0004  2.1533 -1.6671
  555MOL0     H73229   2.400   6.017   6.952 -4.6148 -2.5062  1.3363
  555MOL0     H73230   2.264   5.807   6.947  1.2474  1.7265  0.5955
  555MOL0     H73231   2.330   5.771   6.788  3.2326 -2.1653  2.2225
  555MOL0     H73232   2.164   6.014   6.864 -3.6462 -1.3511 -0.1105
  555MOL0     H73233   2.214   5.988   6.700 -0.5668  1.8485  0.0021
  555MOL0     H73234   2.040   5.790   6.842 -0.3285 -1.4419 -1.8115
  555MOL0     H73235   2.099   5.782   6.677  2.6927  0.3990  0.3391
  555MOL0     H73236   1.961   5.998   6.620  1.5652 -1.5655 -0.5030
  555MOL0     H73237   1.894   5.985   6.790 -3.7396  0.6638 -0.9813
  555MOL0     H73238   1.852   5.767   6.569 -0.1129 -0.8521  0.3509
  555MOL0     H73239   1.814   5.746   6.734 -1.8421 -0.0035 -0.1481
  555MOL0     H73240   1.653   5.937   6.733 -2.4518 -2.1355  0.4770
  555MOL0     H73241   1.623   5.815   6.601  0.9273 -0.0790 -0.8997
  555MOL0     H73242   2.720   5.660   6.973  0.8165 -0.1519 -0.4218
  555MOL0     H73243   2.894   5.563   7.111  0.5232  0.6908  1.0587
  555MOL0     H73244   3.350   5.804   7.493 -3.9419 -1.0638 -0.7475
  555MOL0     H73245   3.556   5.677   7.550 -0.1741 -2.0263  2.1008
  555MOL0     H73246   2.495   5.700   7.309  1.6314 -0.6580  1.2744
  555MOL0     H73247   2.297   5.775   7.177  0.9221  1.0602  1.1500
  555MOL0     H73248   1.822   5.619   7.084 -0.7545 -0.7363 -1.9189
  555MOL0     H73249   1.612   5.672   6.990  1.3291 -2.1164  1.9386
  555MOL0     H73250   1.408   5.785   7.048  1.0126  0.9312  1.1660
  555MOL0     H73251   1.408   5.703   6.887  1.2795  0.8012 -1.9359
  555MOL0     H73252   1.284   5.912   6.799 -0.3898 -2.0870 -1.5810
  555MOL0     H73253   1.193   5.794   6.897 -0.4182  0.1519 -1.5180
  555MOL0     H73254   1.320   6.054   7.015  0.4879 -0.7733  3.0801
  555MOL0     H73255   1.243   5.934   7.107  2.6335  3.6720  2.5958
  555MOL0     H73256   1.085   6.098   7.084  1.7743 -2.3084  2.1290
  555MOL0     H73257   1.102   6.120   6.908 -1.6808 -0.4509 -0.4028
  555MOL0     H73258   0.801   5.842   6.935  0.5790 -2.2128  2.1753
  555MOL0     H73259   1.687   6.092   7.028  1.4703  2.1256  2.2042
  555MOL0     H73260   1.916   6.043   7.108  0.2420 -1.6147  1.5267
  556MOL0     O73261   9.997   4.120  10.795 -0.5327  0.4818 -0.2052
  556MOL0     C73262  10.015   4.221  10.864 -0.2238 -0.3941  0.0449
  556MOL0     O73263   9.910   4.297  10.915 -0.0191 -0.2504 -0.0268
  556MOL0     C73264   9.793   4.242  10.943 -0.0531 -0.1912 -0.5089
  556MOL0     C73265   9.777   4.114  10.997  0.0191  0.3639 -0.2676
  556MOL0     C73266   9.649   4.076  11.028 -0.6482 -0.2047  0.1976
  556MOL0     C73267   9.535   4.158  11.020 -0.9035 -0.4942 -0.7458
  556MOL0     O73268   9.411   4.123  11.061  0.0270 -0.0608 -0.4649
  556MOL0     C73269   9.386   3.988  11.099 -0.4298  1.0069 -0.4514
  556MOL0     C73270   9.236   3.961  11.113  0.3634 -0.2212  0.5700
  556MOL0     C73271   9.188   4.051  11.232  0.1771 -0.0051  0.5388
  556MOL0     C73272   9.046   3.998  11.257  0.7375  0.2764  0.2749
  556MOL0     C73273   8.997   4.073  11.379  0.1678  0.0278  0.0928
  556MOL0     C73274   8.859   4.012  11.416  0.0105  0.9037 -0.2769
  556MOL0     C73275   8.818   4.040  11.565  0.5588 -0.1582  0.0543
  556MOL0     C73276   8.705   3.955  11.612 -0.0801  0.2804 -0.5675
  556MOL0     N73277   8.678   3.984  11.752 -0.2765 -0.4134  0.2686
  556MOL0     C73278   8.761   3.974  11.861  0.5547  0.7145 -0.7171
  556MOL0     C73279   8.682   3.997  11.973  0.0788 -0.1388 -0.4054
  556MOL0     C73280   8.731   3.967  12.107 -0.4799  0.4366 -0.3307
  556MOL0     C73281   8.760   3.816  12.131 -0.1928 -0.4174 -0.8836
  556MOL0     C73282   8.663   3.719  12.069 -0.1974  0.1038 -0.0696
  556MOL0     C73283   8.514   3.757  12.095  0.1165  0.2873  0.2900
  556MOL0     O73284   8.468   3.695  12.221 -0.3122  0.0913  0.8624
  556MOL0     C73285   8.337   3.681  12.232 -0.1045 -0.7758 -0.7722
  556MOL0     C73286   8.245   3.769  12.185 -0.0537  0.3229 -0.7463
  556MOL0     C73287   8.108   3.746  12.213 -0.0389 -0.0556 -0.7705
  556MOL0     C73288   8.061   3.637  12.294 -0.3292  0.3473  0.2817
  556MOL0     C73289   7.925   3.609  12.334  0.4501  0.6765  0.8999
  556MOL0     O73290   7.902   3.490  12.395 -0.2000  0.4774  0.0540
  556MOL0     C73291   7.775   3.473  12.451  0.0079 -0.0006  0.6679
  556MOL0     C73292   7.710   3.571  12.540 -0.6309  0.4040 -0.3408
  556MOL0     C73293   7.584   3.543  12.601 -0.2288  0.1691 -0.4478
  556MOL0     C73294   7.517   3.422  12.584 -0.9956  0.3084 -0.5775
  556MOL0     O73295   7.400   3.398  12.647 -0.0468  0.4429 -0.1693
  556MOL0     C73296   7.303   3.320  12.581 -0.0117 -1.1439  0.2672
  556MOL0     C73297   7.169   3.392  12.602  0.9982 -0.7504 -0.3620
  556MOL0     C73298   7.049   3.303  12.539 -0.8625  0.1197 -0.1885
  556MOL0     C73299   7.069   3.268  12.390 -0.7959 -0.3036 -0.9796
  556MOL0     C73300   6.939   3.206  12.330 -0.7389  0.2708  0.0877
  556MOL0     C73301   6.836   3.307  12.284 -0.9072  0.6107  0.0407
  556MOL0     C73302   6.704   3.223  12.267  0.1221  0.7013  0.0420
  556MOL0     C73303   6.599   3.297  12.188  0.4393  0.3171  0.0457
  556MOL0    Cl73304   6.456   3.199  12.161 -0.5168  0.2913 -0.9070
  556MOL0     C73305   7.580   3.327  12.496  0.0444  0.0704 -0.7938
  556MOL0     C73306   7.702   3.356  12.431 -0.6240  0.0004 -0.0084
  556MOL0     O73307   7.844   3.691  12.300  0.0574 -0.8314  0.8738
  556MOL0     C73308   8.161   3.559  12.351 -0.2520  0.5995  0.7272
  556MOL0     C73309   8.301   3.571  12.315  0.8642 -0.6703  0.3040
  556MOL0     N73310   8.554   4.029  11.922  0.7662 -0.0468  0.6146
  556MOL0     N73311   8.554   4.013  11.797  0.3970 -0.5780 -0.4731
  556MOL0     C73312   9.547   4.288  10.977 -0.0233  0.5236  0.3846
  556MOL0     C73313   9.681   4.334  10.941 -0.3906  0.0772  0.8527
  556MOL0     C73314  10.163   4.267  10.889  0.9017 -0.0017 -0.3941
  556MOL0     C73315  10.275   4.209  10.819  0.0945  0.3009 -0.0301
  556MOL0     C73316  10.405   4.254  10.850  0.5063  0.8090 -0.1117
  556MOL0     C73317  10.432   4.355  10.942  0.5816 -1.1277  0.1717
  556MOL0     O73318  10.555   4.411  10.967 -0.3231 -0.6683 -0.1327
  556MOL0     C73319  10.659   4.316  10.952 -0.5226 -0.4549 -0.1453
  556MOL0     C73320  10.798   4.373  10.993  0.1110 -0.1906  0.4786
  556MOL0     C73321  10.856   4.466  10.885  0.5097  0.5114 -0.2006
  556MOL0     C73322  11.004   4.503  10.917  0.1567  0.6909 -0.1092
  556MOL0     C73323  11.091   4.387  10.891 -0.6502 -0.1216  0.0662
  556MOL0     C73324  11.150   4.278  10.874  0.6585 -0.5782 -0.6185
  556MOL0     C73325  10.323   4.414  11.000  0.1984 -0.1526 -0.0891
  556MOL0     C73326  10.194   4.367  10.978  0.3155 -0.7013  0.1417
  556MOL0     H73327   9.858   4.043  11.011 -0.9093 -0.8745 -0.9897
  556MOL0     H73328   9.638   3.979  11.078 -3.8799  0.8774  1.8991
  556MOL0     H73329   9.436   3.976  11.195  0.6933  2.6298 -0.8057
  556MOL0     H73330   9.427   3.912  11.031 -0.4679 -1.2631  1.9323
  556MOL0     H73331   9.214   3.856  11.132  1.0022 -0.1677  1.7184
  556MOL0     H73332   9.179   3.989  11.024  0.4839  2.2006  1.1740
  556MOL0     H73333   9.186   4.155  11.199  0.4872 -0.4238 -0.8466
  556MOL0     H73334   9.252   4.052  11.320  2.1946 -0.4361 -0.8566
  556MOL0     H73335   8.996   4.031  11.165  0.7962  0.7229  0.3992
  556MOL0     H73336   9.046   3.890  11.275 -2.1222  0.4009  1.5623
  556MOL0     H73337   8.995   4.182  11.372 -2.1958  0.0028 -0.3487
  556MOL0     H73338   9.061   4.053  11.465 -0.7820  1.3182  1.1428
  556MOL0     H73339   8.868   3.905  11.397  0.8082  0.8923  0.1653
  556MOL0     H73340   8.787   4.068  11.355 -1.4748  0.7224  1.2209
  556MOL0     H73341   8.905   4.012  11.624  2.0909  1.3381 -1.3596
  556MOL0     H73342   8.804   4.148  11.580  0.4637 -0.2212  0.4316
  556MOL0     H73343   8.729   3.849  11.598 -0.6639  0.2772 -1.6811
  556MOL0     H73344   8.614   3.972  11.553  1.3180  0.9856 -2.6528
  556MOL0     H73345   8.865   3.944  11.861  0.4984  0.3646  1.6946
  556MOL0     H73346   8.660   3.993  12.186 -1.0128 -2.7945  0.4043
  556MOL0     H73347   8.819   4.031  12.118  0.4530 -0.8581  0.0300
  556MOL0     H73348   8.750   3.800  12.238 -1.4064  1.8340 -0.5877
  556MOL0     H73349   8.864   3.794  12.108 -0.5949 -3.9773  0.1222
  556MOL0     H73350   8.680   3.708  11.961 -0.9517 -0.8577 -0.1025
  556MOL0     H73351   8.675   3.621  12.116  1.7829 -0.1867 -1.0660
  556MOL0     H73352   8.457   3.725  12.008  3.1592 -1.1973 -1.3315
  556MOL0     H73353   8.502   3.865  12.099  0.0979  0.3176 -0.4940
  556MOL0     H73354   8.268   3.843  12.110 -1.3455  1.2287 -0.2857
  556MOL0     H73355   8.030   3.807  12.168 -2.0198 -2.6365 -1.0235
  556MOL0     H73356   7.752   3.668  12.566 -3.8733  1.8512 -0.0615
  556MOL0     H73357   7.534   3.625  12.651  1.3069  1.0726 -0.3170
  556MOL0     H73358   7.289   3.224  12.631  2.5136 -0.7544  1.9266
  556MOL0     H73359   7.323   3.298  12.476  3.0378  2.0437 -0.0147
  556MOL0     H73360   7.173   3.484  12.542 -2.2670 -0.8185 -0.8728
  556MOL0     H73361   7.149   3.423  12.705  0.4676 -0.8052 -0.4441
  556MOL0     H73362   6.952   3.354  12.546 -1.8832 -1.8238  0.3470
  556MOL0     H73363   7.047   3.212  12.600  1.5269  1.8427  2.7956
  556MOL0     H73364   7.095   3.359  12.336  0.0397 -0.1139 -0.2806
  556MOL0     H73365   7.146   3.191  12.399 -0.5077  0.2548  3.4191
  556MOL0     H73366   6.899   3.146  12.412 -3.8787  0.3894 -1.2226
  556MOL0     H73367   6.973   3.144  12.247  0.0691  0.0590  0.5604
  556MOL0     H73368   6.873   3.349  12.190  1.3688  2.2739  1.5697
  556MOL0     H73369   6.811   3.388  12.353 -0.4274  1.8326 -1.1914
  556MOL0     H73370   6.727   3.132  12.211 -0.4806  1.7715 -2.0587
  556MOL0     H73371   6.669   3.201  12.368 -1.2176  2.0129 -0.0920
  556MOL0     H73372   6.629   3.326  12.087  0.1987  0.3275 -0.0238
  556MOL0     H73373   6.579   3.391  12.241  1.6682 -0.0908  1.2860
  556MOL0     H73374   7.534   3.229  12.487 -0.0957 -0.1387  1.6067
  556MOL0     H73375   7.744   3.281  12.365 -0.2037 -0.0141  0.2704
  556MOL0     H73376   8.121   3.489  12.424 -4.2658  2.4574  0.5767
  556MOL0     H73377   8.377   3.509  12.362  0.6515 -1.6019 -0.5263
  556MOL0     H73378   9.460   4.352  10.979 -1.7214 -1.6932  1.5972
  556MOL0     H73379   9.699   4.438  10.918 -2.2959  0.7436  2.1202
  556MOL0     H73380  10.255   4.138  10.739 -1.1862  1.4789 -0.7925
  556MOL0     H73381  10.492   4.207  10.805  0.3760  1.8179 -1.5082
  556MOL0     H73382  10.666   4.277  10.850  0.3620 -0.3758 -0.1227
  556MOL0     H73383  10.645   4.231  11.020 -2.0702 -2.6029 -2.9334
  556MOL0     H73384  10.788   4.416  11.093  0.6505 -3.8741  2.2933
  556MOL0     H73385  10.858   4.282  11.001 -0.8686 -0.8284  0.7720
  556MOL0     H73386  10.803   4.561  10.895  2.6093  1.6628  0.6402
  556MOL0     H73387  10.849   4.412  10.791 -0.8529 -2.7098  1.5944
  556MOL0     H73388  11.044   4.579  10.849 -1.6127  0.4622 -1.4475
  556MOL0     H73389  11.021   4.537  11.020  1.4099  1.6011 -0.5929
  556MOL0     H73390  11.198   4.182  10.880 -2.4718 -2.2715 -0.7572
  556MOL0     H73391  10.338   4.501  11.064 -0.2364 -1.7248  2.2893
  556MOL0     H73392  10.116   4.413  11.038 -0.3155  0.5257 -1.5610
  557MOL0     O73393   5.266   7.413   6.153 -0.4256 -0.2330 -0.1912
  557MOL0     C73394   5.178   7.422   6.241  0.4432 -1.2833 -0.2323
  557MOL0     O73395   5.190   7.448   6.375 -0.4610  0.4226 -0.4161
  557MOL0     C73396   5.319   7.453   6.430  0.1702  0.0985 -0.3559
  557MOL0     C73397   5.361   7.565   6.499  0.7439 -0.7760  0.0734
  557MOL0     C73398   5.496   7.585   6.544  0.0127 -0.1857 -0.2203
  557MOL0     C73399   5.586   7.466   6.546  0.1754 -0.3513  0.5093
  557MOL0     O73400   5.702   7.449   6.615 -0.1793 -0.1250  0.3840
  557MOL0     C73401   5.783   7.567   6.644  0.5397  0.6525  0.0235
  557MOL0     C73402   5.885   7.520   6.737  0.3440 -0.1166 -0.4775
  557MOL0     C73403   6.008   7.613   6.743  0.5196  0.3705  1.0994
  557MOL0     C73404   6.118   7.555   6.841 -0.1230  0.6805  0.4309
  557MOL0     C73405   6.241   7.646   6.850 -0.1863  0.0856  0.4494
  557MOL0     C73406   6.361   7.583   6.914  1.2099 -0.2759  0.2391
  557MOL0     C73407   6.461   7.695   6.948  0.0463  1.0188 -0.1057
  557MOL0     C73408   6.542   7.743   6.829  0.4480  0.2618 -0.1696
  557MOL0     N73409   6.592   7.880   6.836 -0.0791  0.1600  0.2569
  557MOL0     C73410   6.663   7.935   6.939 -0.3728 -0.0084  0.9049
  557MOL0     C73411   6.670   8.064   6.904  0.0346 -0.4200  0.5122
  557MOL0     C73412   6.731   8.175   6.986  0.4046  0.3574  0.0550
  557MOL0     C73413   6.649   8.262   7.069  0.5232 -0.4508 -0.0839
  557MOL0     C73414   6.556   8.199   7.178  0.0100 -0.5226 -0.4775
  557MOL0     C73415   6.443   8.299   7.214 -0.5128 -0.4892  0.3855
  557MOL0     O73416   6.367   8.354   7.106 -1.0413 -0.1537 -0.5906
  557MOL0     C73417   6.268   8.275   7.058  0.0244  0.6326 -0.5678
  557MOL0     C73418   6.284   8.170   6.963  1.4673 -0.8349 -0.4852
  557MOL0     C73419   6.178   8.094   6.914 -0.1093 -1.0163  0.6455
  557MOL0     C73420   6.048   8.133   6.963  0.0799  0.1832 -0.7456
  557MOL0     C73421   5.923   8.063   6.907 -0.5554 -1.1059  0.6123
  557MOL0     O73422   5.811   8.144   6.904  0.0573 -0.5528 -0.1572
  557MOL0     C73423   5.681   8.103   6.878 -0.4968 -0.3259  0.0223
  557MOL0     C73424   5.641   7.987   6.814 -0.0662  0.1192 -0.1351
  557MOL0     C73425   5.506   7.950   6.792  0.0007 -0.5771  0.2781
  557MOL0     C73426   5.405   8.034   6.831 -0.3068  0.0955  0.1967
  557MOL0     O73427   5.274   7.999   6.793  0.8591  0.2952 -0.1333
  557MOL0     C73428   5.180   8.113   6.774 -0.5246  1.0673  0.6009
  557MOL0     C73429   5.046   8.062   6.706  0.2602 -0.0655 -0.5106
  557MOL0     C73430   4.932   8.062   6.816  0.1603  0.0887  0.5317
  557MOL0     C73431   4.806   8.019   6.749  0.2109 -0.7199  0.6322
  557MOL0     C73432   4.709   7.970   6.857  0.4303 -0.5770  0.3026
  557MOL0     C73433   4.564   7.956   6.811 -0.4461  0.7922 -0.7942
  557MOL0     C73434   4.553   7.875   6.675  0.8822 -0.8027 -0.7249
  557MOL0     C73435   4.414   7.812   6.655  0.4035  0.3976  0.3078
  557MOL0    Cl73436   4.309   7.937   6.583 -0.1502  0.6911  0.0460
  557MOL0     C73437   5.446   8.148   6.909  0.1589 -0.2257 -0.8509
  557MOL0     C73438   5.580   8.182   6.932  0.2141  0.2275  0.1513
  557MOL0     O73439   5.930   7.951   6.865 -0.4420  0.0254 -0.0432
  557MOL0     C73440   6.020   8.246   7.048 -0.3386 -0.4998  0.4350
  557MOL0     C73441   6.133   8.312   7.094 -0.4356  0.2774 -0.1579
  557MOL0     N73442   6.605   8.089   6.781  0.1643  0.0111 -0.0774
  557MOL0     N73443   6.582   7.971   6.734 -0.7086  1.0080  0.4881
  557MOL0     C73444   5.538   7.352   6.479  0.1539 -0.5982 -0.5915
  557MOL0     C73445   5.416   7.352   6.423  0.1142  0.0604  0.1696
  557MOL0     C73446   5.038   7.424   6.198  0.5083  0.2189  0.2070
  557MOL0     C73447   5.001   7.359   6.080  0.1188  0.2273 -0.3450
  557MOL0     C73448   4.867   7.351   6.045 -0.5665  0.1469 -0.2483
  557MOL0     C73449   4.772   7.415   6.116 -0.0130  0.1955 -0.3756
  557MOL0     O73450   4.649   7.420   6.049 -0.0599 -0.2678 -0.7686
  557MOL0     C73451   4.560   7.528   6.087  0.4233  0.2335  0.2202
  557MOL0     C73452   4.433   7.465   6.150 -0.1280  0.7803 -0.2717
  557MOL0     C73453   4.460   7.394   6.287 -0.3860 -1.1428 -0.1353
  557MOL0     C73454   4.328   7.371   6.369 -0.5093 -0.2727 -0.4217
  557MOL0     C73455   4.355   7.270   6.470 -0.0365  0.0245 -0.0577
  557MOL0     C73456   4.365   7.172   6.550  0.7143 -0.7122 -0.0784
  557MOL0     C73457   4.808   7.486   6.232 -0.2650  0.9756 -0.2347
  557MOL0     C73458   4.942   7.490   6.279 -0.1034  0.5351  0.4295
  557MOL0     H73459   5.299   7.654   6.496  2.4429  0.4512  0.2681
  557MOL0     H73460   5.534   7.682   6.575 -1.5973  0.2875  0.3886
  557MOL0     H73461   5.726   7.648   6.690  0.1946  2.5774 -3.4526
  557MOL0     H73462   5.829   7.598   6.549  1.0112 -0.0893  0.0024
  557MOL0     H73463   5.913   7.422   6.699 -2.0795 -0.4939 -1.4861
  557MOL0     H73464   5.843   7.513   6.838 -2.6997  2.4149 -1.3911
  557MOL0     H73465   5.984   7.714   6.777  0.0943  1.4538 -2.0868
  557MOL0     H73466   6.052   7.625   6.644 -0.0028 -5.9989 -0.3332
  557MOL0     H73467   6.075   7.544   6.941  2.2951 -1.9597  1.3277
  557MOL0     H73468   6.150   7.456   6.807  0.1527  1.7862 -2.8780
  557MOL0     H73469   6.218   7.741   6.899 -0.3899  1.9456 -2.9325
  557MOL0     H73470   6.256   7.679   6.746 -1.6228 -1.9644 -0.4667
  557MOL0     H73471   6.399   7.505   6.848 -1.5118 -0.0148 -1.8058
  557MOL0     H73472   6.326   7.521   6.998 -3.0103  1.9576  0.4182
  557MOL0     H73473   6.409   7.775   7.003 -2.8305  0.0892 -1.3087
  557MOL0     H73474   6.529   7.639   7.012  0.3213 -0.2333 -1.4699
  557MOL0     H73475   6.480   7.744   6.739 -2.1049  0.9589  1.4673
  557MOL0     H73476   6.625   7.674   6.810 -1.0658 -2.2447  1.6005
  557MOL0     H73477   6.693   7.894   7.035 -0.5934 -0.0444  0.9578
  557MOL0     H73478   6.785   8.233   6.911 -1.8400 -2.5579 -4.2983
  557MOL0     H73479   6.808   8.128   7.048 -0.3988 -2.1739 -0.6963
  557MOL0     H73480   6.582   8.321   7.006 -0.4661 -1.2880  0.1677
  557MOL0     H73481   6.710   8.333   7.126 -1.3843 -0.5908  2.3120
  557MOL0     H73482   6.517   8.104   7.141  3.1526 -1.9724 -0.3935
  557MOL0     H73483   6.621   8.171   7.262  2.2682  0.0621 -1.9425
  557MOL0     H73484   6.487   8.384   7.267 -2.2098  0.7743 -0.1463
  557MOL0     H73485   6.379   8.238   7.278  0.2556 -1.1156  0.5688
  557MOL0     H73486   6.379   8.132   6.927  1.4817 -0.0972 -1.2651
  557MOL0     H73487   6.174   8.016   6.839  0.6612 -0.5269  0.0782
  557MOL0     H73488   5.721   7.924   6.778  0.3952 -0.0855  1.1889
  557MOL0     H73489   5.485   7.861   6.734  1.0669 -0.4279 -0.3715
  557MOL0     H73490   5.223   8.185   6.703  0.5238  1.2585  1.3978
  557MOL0     H73491   5.149   8.168   6.863 -0.4439  1.0068  0.6663
  557MOL0     H73492   5.071   7.961   6.670  2.4667  0.6467 -1.0965
  557MOL0     H73493   5.015   8.115   6.616 -2.7972 -0.9904 -0.1256
  557MOL0     H73494   4.926   8.159   6.866  1.1413  1.3014 -1.5441
  557MOL0     H73495   4.956   7.990   6.894  2.1812  0.6261  0.4661
  557MOL0     H73496   4.767   8.095   6.681  1.7460 -1.4791 -1.2244
  557MOL0     H73497   4.823   7.940   6.674  2.4145  0.5507 -0.3036
  557MOL0     H73498   4.701   8.041   6.939 -0.9790  1.5170 -1.5236
  557MOL0     H73499   4.751   7.873   6.885  0.6161 -1.4727 -2.7252
  557MOL0     H73500   4.519   8.056   6.802  0.6113  1.3263 -0.3400
  557MOL0     H73501   4.506   7.908   6.890  0.9140 -2.2668 -1.5206
  557MOL0     H73502   4.573   7.952   6.599 -0.9003 -0.4469 -0.8594
  557MOL0     H73503   4.631   7.799   6.663  2.5908  0.6725  0.3538
  557MOL0     H73504   4.377   7.792   6.756  2.5000  2.7109  1.6505
  557MOL0     H73505   4.431   7.724   6.592  1.6596  0.4735  0.5261
  557MOL0     H73506   5.371   8.212   6.956  0.9975 -1.5804  2.6774
  557MOL0     H73507   5.599   8.261   7.004 -1.4431 -0.1921  1.1085
  557MOL0     H73508   5.918   8.273   7.071 -0.4357 -1.4123  1.1189
  557MOL0     H73509   6.124   8.400   7.157 -0.4472 -0.7241  1.2675
  557MOL0     H73510   5.596   7.261   6.468 -0.9947 -1.0434 -4.8134
  557MOL0     H73511   5.378   7.259   6.380 -1.7815  0.7542  0.2285
  557MOL0     H73512   5.080   7.303   6.030  1.8726  1.5975  0.7758
  557MOL0     H73513   4.849   7.291   5.956  0.0939 -0.9950  0.3578
  557MOL0     H73514   4.530   7.580   5.996  0.1154  2.1419  1.3598
  557MOL0     H73515   4.598   7.608   6.151 -0.0778  0.3123  0.4223
  557MOL0     H73516   4.356   7.542   6.153 -1.6395 -0.6366 -1.1334
  557MOL0     H73517   4.392   7.390   6.082  1.3437 -0.8534  0.5509
  557MOL0     H73518   4.519   7.464   6.347 -0.1315 -2.4931  1.2670
  557MOL0     H73519   4.518   7.304   6.263  0.1195 -0.3784 -1.9300
  557MOL0     H73520   4.289   7.455   6.427 -1.9964 -0.1709 -1.5319
  557MOL0     H73521   4.242   7.351   6.305  0.1817 -3.4656 -0.5266
  557MOL0     H73522   4.360   7.109   6.637 -0.1270  2.0775  2.0202
  557MOL0     H73523   4.728   7.529   6.290  0.3786 -1.7265  3.0062
  557MOL0     H73524   4.975   7.542   6.368  0.5811 -0.8779  1.0310
  558MOL0     O73525  10.104   8.907   4.075  0.0515 -0.6432 -0.0679
  558MOL0     C73526  10.111   8.996   3.991 -0.6711 -0.1629  0.4976
  558MOL0     O73527  10.007   9.073   3.953 -0.0150 -0.0570  0.2542
  558MOL0     C73528   9.897   9.068   4.035  0.2653  0.0895  0.1565
  558MOL0     C73529   9.889   9.149   4.143  0.7279 -0.3506  0.1990
  558MOL0     C73530   9.771   9.158   4.219  1.0791 -0.1477  0.0228
  558MOL0     C73531   9.663   9.083   4.192  0.8365 -0.1771 -0.5030
  558MOL0     O73532   9.554   9.074   4.273 -0.1218  1.4705  0.2150
  558MOL0     C73533   9.427   9.071   4.212  0.7605  0.0518 -0.0669
  558MOL0     C73534   9.363   8.943   4.262  0.6323  0.2930 -0.4020
  558MOL0     C73535   9.213   8.941   4.282  0.9412 -0.0195 -0.5318
  558MOL0     C73536   9.126   9.000   4.165  0.4951 -0.4235  1.1093
  558MOL0     C73537   8.972   8.986   4.169  1.0622 -0.8530 -0.0673
  558MOL0     C73538   8.922   9.058   4.295  0.3384 -0.3745 -0.7467
  558MOL0     C73539   8.773   9.086   4.300  0.5074 -0.0137 -0.1334
  558MOL0     C73540   8.699   8.949   4.310  0.1913  0.9001 -0.0841
  558MOL0     N73541   8.581   8.961   4.398 -0.0312 -0.3296  0.0684
  558MOL0     C73542   8.449   8.916   4.372 -1.1317  0.5713  0.1753
  558MOL0     C73543   8.387   8.915   4.487  1.3552 -0.7693 -0.1111
  558MOL0     C73544   8.243   8.869   4.494 -0.2088 -0.8797 -0.1801
  558MOL0     C73545   8.148   8.978   4.437  0.1934  0.6226  0.2490
  558MOL0     C73546   8.103   9.093   4.533 -0.7029 -0.0960 -0.6856
  558MOL0     C73547   7.975   9.154   4.493 -0.1723  0.6221  0.6642
  558MOL0     O73548   7.854   9.068   4.518 -0.1679 -0.4129  0.3362
  558MOL0     C73549   7.737   9.098   4.447  0.5368  0.3458  0.3662
  558MOL0     C73550   7.644   8.994   4.453  0.1808 -0.1167  0.9425
  558MOL0     C73551   7.522   9.012   4.394  0.3263  0.2629  0.2848
  558MOL0     C73552   7.481   9.134   4.346  0.4370  0.0573  0.6044
  558MOL0     C73553   7.344   9.163   4.291 -0.6408  0.8183  0.5137
  558MOL0     O73554   7.318   9.289   4.243  0.3573 -0.0101  0.3113
  558MOL0     C73555   7.195   9.324   4.209  0.1916  0.1817 -1.0142
  558MOL0     C73556   7.111   9.232   4.129  0.1089  0.3890 -0.2516
  558MOL0     C73557   6.989   9.287   4.076  0.6785 -0.5069 -0.2529
  558MOL0     C73558   6.952   9.416   4.103 -0.0070 -0.7970  0.8227
  558MOL0     O73559   6.832   9.467   4.052  0.4267 -0.1210  0.4634
  558MOL0     C73560   6.813   9.469   3.907 -0.0039  0.0770 -0.3061
  558MOL0     C73561   6.880   9.582   3.837  0.3079 -0.7521 -0.2500
  558MOL0     C73562   6.832   9.581   3.694 -0.1890  0.0609 -1.0119
  558MOL0     C73563   6.904   9.694   3.619  0.7802  0.6588 -0.2544
  558MOL0     C73564   6.838   9.701   3.479 -0.3182 -0.5123  0.3342
  558MOL0     C73565   6.893   9.814   3.402  0.3148  1.0800  0.2000
  558MOL0     C73566   6.824   9.809   3.261  0.3286  0.2800  0.2424
  558MOL0     C73567   6.899   9.909   3.167  0.4672 -0.3207 -0.3214
  558MOL0    Cl73568   6.820   9.954   3.020 -0.0345 -0.1950 -0.2343
  558MOL0     C73569   7.036   9.502   4.174  0.2721 -1.0400 -0.5490
  558MOL0     C73570   7.154   9.458   4.228  0.3719  0.8249 -0.9898
  558MOL0     O73571   7.272   9.066   4.288  1.1915  0.4014  0.1922
  558MOL0     C73572   7.569   9.241   4.353  0.3177  0.1169 -0.3414
  558MOL0     C73573   7.697   9.223   4.401  0.5065 -0.7005  0.2422
  558MOL0     N73574   8.475   8.961   4.586 -0.4502  0.5289  0.4561
  558MOL0     N73575   8.594   8.992   4.529 -0.1955 -0.2338 -0.7276
  558MOL0     C73576   9.676   8.985   4.089 -0.0484  0.0697 -0.2404
  558MOL0     C73577   9.790   8.982   4.005  0.5929  0.8057  0.2921
  558MOL0     C73578  10.248   9.025   3.929  0.3698  0.4541 -0.7961
  558MOL0     C73579  10.262   9.124   3.828 -1.0891  0.7833  0.1000
  558MOL0     C73580  10.388   9.163   3.778 -0.1798 -0.3658  0.0181
  558MOL0     C73581  10.507   9.103   3.827 -0.1194 -0.5123 -0.1103
  558MOL0     O73582  10.630   9.125   3.771 -0.3017  0.1513 -0.1102
  558MOL0     C73583  10.650   9.224   3.675  0.0459 -0.9444  0.5288
  558MOL0     C73584  10.792   9.269   3.685  0.5449  0.9086  0.2648
  558MOL0     C73585  10.818   9.388   3.588  0.5433  0.3225 -0.3417
  558MOL0     C73586  10.965   9.416   3.560  0.4224  0.1343 -0.3516
  558MOL0     C73587  10.985   9.550   3.500 -0.1247 -0.9214  0.3292
  558MOL0     C73588  11.000   9.659   3.447  0.5468 -1.3499 -0.6481
  558MOL0     C73589  10.496   9.004   3.926 -0.1901 -0.8546  0.1706
  558MOL0     C73590  10.373   8.966   3.977  1.0833 -1.1627 -0.6977
  558MOL0     H73591   9.979   9.209   4.156 -0.9571  2.7530 -1.2869
  558MOL0     H73592   9.770   9.217   4.310 -2.3837 -0.9457  0.6273
  558MOL0     H73593   9.439   9.079   4.104 -3.2507 -0.4079 -0.7179
  558MOL0     H73594   9.376   9.164   4.241 -1.0481 -1.1322  0.7706
  558MOL0     H73595   9.421   8.916   4.350  0.6373  0.3979 -0.3733
  558MOL0     H73596   9.387   8.875   4.180  0.8360  1.4508 -1.3226
  558MOL0     H73597   9.192   8.995   4.374 -0.7815  0.4190 -1.1327
  558MOL0     H73598   9.183   8.838   4.304 -0.3394  0.3533 -0.4598
  558MOL0     H73599   9.151   9.107   4.165 -1.2303  0.0167  0.0325
  558MOL0     H73600   9.161   8.958   4.071 -0.4831 -1.9111  1.3862
  558MOL0     H73601   8.944   8.881   4.168 -1.1758 -0.3251  0.4560
  558MOL0     H73602   8.928   9.036   4.082 -2.2433 -0.3123  1.7332
  558MOL0     H73603   8.975   9.153   4.309 -0.2509 -0.5071  4.5851
  558MOL0     H73604   8.959   9.004   4.383  2.7128  0.0197 -1.4302
  558MOL0     H73605   8.760   9.147   4.390  1.6362 -0.1960  0.1765
  558MOL0     H73606   8.745   9.138   4.208 -0.8870 -1.3491 -0.4954
  558MOL0     H73607   8.766   8.872   4.350  0.3523  0.9342 -0.2857
  558MOL0     H73608   8.663   8.918   4.211 -0.2972  2.8351 -0.5544
  558MOL0     H73609   8.410   8.884   4.276  1.1940  0.3663 -0.7795
  558MOL0     H73610   8.227   8.847   4.600  1.9335  2.4804  0.9978
  558MOL0     H73611   8.241   8.785   4.424  0.9448  0.5870 -2.0578
  558MOL0     H73612   8.061   8.926   4.396 -0.5793  2.1002 -0.0541
  558MOL0     H73613   8.197   9.015   4.347 -0.0698 -2.2201 -1.1747
  558MOL0     H73614   8.088   9.052   4.634  0.4077  0.3576 -0.3184
  558MOL0     H73615   8.187   9.161   4.550  1.6979 -3.0375  0.0328
  558MOL0     H73616   7.985   9.181   4.387 -1.5043 -0.4486  0.2294
  558MOL0     H73617   7.948   9.250   4.539 -2.9362 -0.0464  0.6534
  558MOL0     H73618   7.679   8.898   4.488  2.2219  0.6223  1.0781
  558MOL0     H73619   7.447   8.933   4.391 -0.8954  1.3587  1.1415
  558MOL0     H73620   7.123   9.128   4.102  0.4415  0.2990  0.2311
  558MOL0     H73621   6.921   9.225   4.020 -2.1043  1.4055  0.7746
  558MOL0     H73622   6.708   9.497   3.901 -0.2243 -0.9043 -1.3526
  558MOL0     H73623   6.845   9.375   3.861  2.9265  1.3576 -1.1263
  558MOL0     H73624   6.988   9.587   3.851 -0.0081  1.6652  2.1747
  558MOL0     H73625   6.842   9.667   3.893  0.4667 -0.2530 -0.8898
  558MOL0     H73626   6.723   9.588   3.697 -0.6225 -4.2771  0.3241
  558MOL0     H73627   6.855   9.486   3.644 -2.5002  0.3038 -2.6953
  558MOL0     H73628   6.904   9.791   3.670  2.2592  0.1088  0.8585
  558MOL0     H73629   7.008   9.663   3.610 -0.0958 -2.2934 -1.2035
  558MOL0     H73630   6.732   9.725   3.482 -0.2622 -0.2766  0.4492
  558MOL0     H73631   6.839   9.605   3.428 -3.5771  0.0114 -0.9558
  558MOL0     H73632   6.998   9.791   3.386  0.1432 -1.2723  1.8594
  558MOL0     H73633   6.877   9.913   3.448  0.0593  1.0811  0.1091
  558MOL0     H73634   6.813   9.709   3.218 -2.0454  0.7941 -0.4634
  558MOL0     H73635   6.726   9.857   3.266  0.7530  1.0829  1.8393
  558MOL0     H73636   7.001   9.880   3.142  1.3463 -0.5560  2.9998
  558MOL0     H73637   6.910  10.005   3.218 -3.0350  1.2717 -2.1868
  558MOL0     H73638   7.019   9.607   4.198  2.7385 -0.6709 -0.1260
  558MOL0     H73639   7.228   9.511   4.286  0.9451  1.3676 -2.1692
  558MOL0     H73640   7.533   9.341   4.334 -1.7659 -0.2703  1.2317
  558MOL0     H73641   7.758   9.312   4.401  2.8252 -2.1953  1.3241
  558MOL0     H73642   9.594   8.918   4.065  1.4766 -1.4884 -1.4097
  558MOL0     H73643   9.807   8.910   3.926  1.3092 -1.5781  2.5113
  558MOL0     H73644  10.176   9.173   3.783 -2.3979 -1.1464  0.3858
  558MOL0     H73645  10.390   9.246   3.707  1.2483  0.1392  0.6081
  558MOL0     H73646  10.594   9.318   3.684  4.2197  1.7874  0.3842
  558MOL0     H73647  10.639   9.182   3.575 -0.4527  0.2138  0.0814
  558MOL0     H73648  10.834   9.286   3.784 -1.0067 -0.7403  1.2692
  558MOL0     H73649  10.842   9.181   3.643 -0.6708 -0.8291  2.2602
  558MOL0     H73650  10.765   9.476   3.626 -3.4744 -2.1740  0.4103
  558MOL0     H73651  10.771   9.362   3.493 -1.1497  1.7400  0.0527
  558MOL0     H73652  11.027   9.402   3.649  0.5304 -0.0734 -0.4581
  558MOL0     H73653  10.996   9.329   3.501 -3.1617 -2.4041  1.1380
  558MOL0     H73654  11.026   9.745   3.390  0.5676 -0.7887  0.1905
  558MOL0     H73655  10.592   8.980   3.971  0.4856  0.1773 -0.6744
  558MOL0     H73656  10.374   8.892   4.057 -0.6918  0.3588  0.8273
  559MOL0     O73657   0.687   3.388   9.671 -0.0071  0.2066 -0.0381
  559MOL0     C73658   0.729   3.285   9.715  0.7860  0.4221 -0.6204
  559MOL0     O73659   0.648   3.177   9.760  0.2358  0.1352  0.0330
  559MOL0     C73660   0.514   3.199   9.758 -0.2328 -0.1753 -0.6857
  559MOL0     C73661   0.440   3.230   9.647 -0.0056 -0.6105 -0.2184
  559MOL0     C73662   0.300   3.248   9.664 -0.6040 -0.7352 -0.4097
  559MOL0     C73663   0.248   3.271   9.792 -0.0638 -0.2882  0.7705
  559MOL0     O73664   0.114   3.302   9.815 -0.1893 -0.9573 -0.1534
  559MOL0     C73665   0.008   3.254   9.730 -0.1347 -0.3767 -0.1090
  559MOL0     C73666  -0.126   3.253   9.800 -0.9166 -0.2912 -0.3214
  559MOL0     C73667  -0.221   3.150   9.747  0.0291  0.5622  0.3804
  559MOL0     C73668  -0.232   3.152   9.597  0.6244 -0.4211  0.1502
  559MOL0     C73669  -0.327   3.051   9.537  1.0850  0.4351 -0.2064
  559MOL0     C73670  -0.468   3.034   9.597 -0.2886 -0.4236 -0.6723
  559MOL0     C73671  -0.561   2.943   9.513 -0.0705  0.2866 -0.0990
  559MOL0     C73672  -0.703   2.973   9.508 -0.2227 -0.5670  0.4464
  559MOL0     N73673  -0.787   2.887   9.423  0.0648  0.5281 -0.0376
  559MOL0     C73674  -0.806   2.913   9.291 -0.2156  0.0489 -0.0351
  559MOL0     C73675  -0.895   2.817   9.245  0.0355 -0.2204 -0.7451
  559MOL0     C73676  -0.945   2.814   9.104  0.6155  0.8133  0.2643
  559MOL0     C73677  -0.983   2.958   9.055  0.0101 -0.3368 -0.6198
  559MOL0     C73678  -1.100   3.005   9.139 -0.5225  0.6552 -0.1654
  559MOL0     C73679  -1.164   3.124   9.073 -0.6501 -0.2044 -0.4394
  559MOL0     O73680  -1.249   3.198   9.162 -0.0775 -0.1272  0.3257
  559MOL0     C73681  -1.370   3.152   9.198 -0.1850 -0.1396 -0.4487
  559MOL0     C73682  -1.445   3.231   9.284 -0.8415  0.5562  0.1014
  559MOL0     C73683  -1.583   3.204   9.317 -1.0580  0.8815  0.6575
  559MOL0     C73684  -1.639   3.084   9.272  0.5210  0.4329  0.1743
  559MOL0     C73685  -1.786   3.048   9.310 -0.0810  0.2412 -0.0966
  559MOL0     O73686  -1.871   3.154   9.345 -0.0583 -0.0405  0.6355
  559MOL0     C73687  -1.991   3.130   9.410  0.1748  0.0049 -0.2664
  559MOL0     C73688  -2.001   3.110   9.547 -0.5251  0.9359  0.3364
  559MOL0     C73689  -2.123   3.068   9.599 -0.8127  0.0960 -0.2669
  559MOL0     C73690  -2.234   3.045   9.518  0.2762 -0.2610 -0.5486
  559MOL0     O73691  -2.351   3.002   9.564 -0.0803 -0.3588  1.6963
  559MOL0     C73692  -2.419   3.084   9.662 -0.0551  0.2574 -0.7824
  559MOL0     C73693  -2.560   3.033   9.699  0.4071 -0.4267 -0.1851
  559MOL0     C73694  -2.676   3.067   9.596 -0.1471 -0.1571 -0.3749
  559MOL0     C73695  -2.807   3.018   9.644  0.4018 -0.3785 -0.0612
  559MOL0     C73696  -2.911   3.130   9.668  0.4266 -0.2938 -0.1164
  559MOL0     C73697  -3.038   3.085   9.732 -0.1530 -0.0438 -0.1763
  559MOL0     C73698  -3.159   3.017   9.660 -0.7661  0.6371  0.0788
  559MOL0     C73699  -3.280   3.002   9.747 -0.2169 -0.5319  0.6914
  559MOL0    Cl73700  -3.405   2.960   9.638  0.1798  0.2408  0.3692
  559MOL0     C73701  -2.219   3.059   9.377  0.0968  0.2848  0.6002
  559MOL0     C73702  -2.098   3.101   9.322 -0.9446  0.8703 -0.2324
  559MOL0     O73703  -1.811   2.930   9.308 -0.0201  0.3943  0.0391
  559MOL0     C73704  -1.560   2.999   9.186  0.4056 -0.8662  0.1532
  559MOL0     C73705  -1.428   3.034   9.154 -0.5984  0.0309 -0.3157
  559MOL0     N73706  -0.922   2.737   9.357  0.3156 -0.1772 -0.4872
  559MOL0     N73707  -0.848   2.774   9.460 -0.1425  0.1197 -0.6931
  559MOL0     C73708   0.332   3.245   9.902 -0.1201  0.6477  0.4000
  559MOL0     C73709   0.462   3.203   9.888 -0.0830 -0.5456  0.5494
  559MOL0     C73710   0.874   3.259   9.726  0.1547 -0.8219  0.1023
  559MOL0     C73711   0.912   3.146   9.798  0.1447  0.0487  0.7095
  559MOL0     C73712   1.050   3.119   9.818  0.3298  0.4737 -0.0029
  559MOL0     C73713   1.156   3.199   9.766  0.6478  0.4298  0.2052
  559MOL0     O73714   1.286   3.160   9.802 -0.5435 -0.2512 -0.1862
  559MOL0     C73715   1.386   3.263   9.810 -0.1556  0.3293  0.5981
  559MOL0     C73716   1.353   3.377   9.907 -0.3910 -0.2841  0.1372
  559MOL0     C73717   1.339   3.325  10.049 -0.1320 -0.4341  0.0900
  559MOL0     C73718   1.318   3.458  10.136  0.6542  0.0493 -0.1502
  559MOL0     C73719   1.442   3.534  10.155  0.3962  1.2522  0.4504
  559MOL0     C73720   1.541   3.592  10.192  0.5568  0.0570 -0.1086
  559MOL0     C73721   1.111   3.315   9.692  0.3913 -0.0122  1.2571
  559MOL0     C73722   0.977   3.344   9.672 -0.9929  0.2905  0.0470
  559MOL0     H73723   0.472   3.233   9.543 -0.1178 -0.0784 -0.2391
  559MOL0     H73724   0.235   3.249   9.577 -1.3589  0.6458  0.1529
  559MOL0     H73725   0.028   3.156   9.685 -0.4859 -0.0021 -1.1288
  559MOL0     H73726   0.007   3.324   9.646 -2.3501 -0.1447  0.0634
  559MOL0     H73727  -0.175   3.350   9.784 -0.6990  0.2692  2.1090
  559MOL0     H73728  -0.110   3.242   9.907 -0.0623  0.4832 -0.3585
  559MOL0     H73729  -0.319   3.166   9.793 -0.0665 -1.3085  0.9005
  559MOL0     H73730  -0.187   3.050   9.776 -1.3148 -0.5566 -1.6259
  559MOL0     H73731  -0.260   3.251   9.560 -2.7569 -1.7227 -1.1568
  559MOL0     H73732  -0.131   3.131   9.559  0.6975 -1.2492  0.7735
  559MOL0     H73733  -0.282   2.953   9.553 -1.6897 -0.7789  0.8932
  559MOL0     H73734  -0.348   3.065   9.430  0.6275 -2.1583 -0.5308
  559MOL0     H73735  -0.521   3.129   9.605 -0.3894 -0.6163  1.5031
  559MOL0     H73736  -0.468   3.002   9.701 -1.3257  1.6040  0.0089
  559MOL0     H73737  -0.526   2.937   9.410  2.0998 -2.1319  0.6638
  559MOL0     H73738  -0.547   2.842   9.551  2.7350  0.0530 -1.5191
  559MOL0     H73739  -0.700   3.075   9.467  1.6486 -0.8866 -0.3085
  559MOL0     H73740  -0.733   2.964   9.613 -0.2868  0.2911  0.5117
  559MOL0     H73741  -0.778   3.003   9.236 -2.5512  0.1349 -1.2107
  559MOL0     H73742  -1.033   2.750   9.107  0.7260  0.6932  1.5323
  559MOL0     H73743  -0.874   2.764   9.037  0.5910  2.7092 -1.2944
  559MOL0     H73744  -1.037   2.954   8.960 -5.2431  2.3182  1.7795
  559MOL0     H73745  -0.897   3.026   9.055  0.5693 -1.0145  0.5121
  559MOL0     H73746  -1.165   2.917   9.147  0.9452 -0.4067  0.6489
  559MOL0     H73747  -1.066   3.045   9.235 -1.0807  1.6092 -0.3529
  559MOL0     H73748  -1.211   3.085   8.982 -0.1720 -2.5058  0.2400
  559MOL0     H73749  -1.092   3.193   9.028  0.2504 -1.5003 -1.0370
  559MOL0     H73750  -1.392   3.316   9.326  2.2626 -1.3112  0.2491
  559MOL0     H73751  -1.639   3.278   9.373  2.1837  4.2184 -0.1706
  559MOL0     H73752  -1.910   3.126   9.603  0.5065 -1.4430 -0.5008
  559MOL0     H73753  -2.124   3.043   9.705  2.0280 -0.5438 -0.3344
  559MOL0     H73754  -2.434   3.187   9.628 -0.6783  0.0443 -1.1746
  559MOL0     H73755  -2.351   3.090   9.748  0.0715 -2.1738 -0.6386
  559MOL0     H73756  -2.592   3.079   9.794 -0.9489  3.0745 -2.1240
  559MOL0     H73757  -2.552   2.927   9.723 -0.5466 -0.5460 -0.3523
  559MOL0     H73758  -2.657   3.016   9.501 -0.3493 -0.3879 -0.2915
  559MOL0     H73759  -2.685   3.172   9.567  0.2807 -0.0691 -0.1969
  559MOL0     H73760  -2.838   2.962   9.556  0.5435  0.3381 -0.5866
  559MOL0     H73761  -2.796   2.964   9.738 -2.8023 -0.0363  0.6193
  559MOL0     H73762  -2.946   3.172   9.573  0.2051 -0.9632 -0.3421
  559MOL0     H73763  -2.875   3.209   9.734 -1.5443  0.7180 -0.1801
  559MOL0     H73764  -3.075   3.176   9.780 -1.9037 -1.9438  2.3688
  559MOL0     H73765  -3.029   3.026   9.824  1.4508  1.6774  0.8624
  559MOL0     H73766  -3.192   3.066   9.568 -0.5420  0.5566 -0.0456
  559MOL0     H73767  -3.142   2.913   9.631 -1.5545  0.1541  1.2854
  559MOL0     H73768  -3.309   3.096   9.796  1.1796  0.4983 -0.3585
  559MOL0     H73769  -3.275   2.916   9.814  0.7873 -0.9076  0.1482
  559MOL0     H73770  -2.297   3.029   9.308 -0.6241 -2.4025  2.4177
  559MOL0     H73771  -2.085   3.118   9.216 -4.2666  3.5503 -0.3605
  559MOL0     H73772  -1.606   2.917   9.134  1.0210 -0.3080 -1.3119
  559MOL0     H73773  -1.374   2.959   9.097 -2.5822 -1.0038 -0.9328
  559MOL0     H73774   0.300   3.274  10.002 -0.0018  1.6021  0.1667
  559MOL0     H73775   0.534   3.184   9.968 -0.3224 -0.5985  0.7532
  559MOL0     H73776   0.849   3.074   9.848  0.3576 -1.0213 -0.4898
  559MOL0     H73777   1.092   3.035   9.873  1.3929  0.3254 -0.9942
  559MOL0     H73778   1.398   3.281   9.703  1.0541 -3.8882 -0.1655
  559MOL0     H73779   1.479   3.216   9.845 -0.0441  0.2669  0.2191
  559MOL0     H73780   1.444   3.438   9.910  0.7688 -1.9782  1.9896
  559MOL0     H73781   1.265   3.439   9.887 -1.8379 -1.1742  3.1509
  559MOL0     H73782   1.427   3.269  10.079  0.2179 -0.3583 -0.7502
  559MOL0     H73783   1.247   3.266  10.046  1.1795 -2.6584  1.4687
  559MOL0     H73784   1.241   3.521  10.092 -2.1674 -0.0297  4.0726
  559MOL0     H73785   1.278   3.429  10.234 -0.7351 -3.0838 -1.5169
  559MOL0     H73786   1.634   3.631  10.227 -0.5744  0.9103  2.1375
  559MOL0     H73787   1.183   3.382   9.645  1.0091 -1.8553 -0.5664
  559MOL0     H73788   0.954   3.440   9.628  1.9112  0.8447 -0.4404
  560MOL0     O73789   3.483   8.316   6.648 -0.3934  0.9268 -0.1054
  560MOL0     C73790   3.514   8.287   6.759  0.7628 -0.1912  0.0363
  560MOL0     O73791   3.475   8.182   6.834 -0.0998 -0.1752 -0.1735
  560MOL0     C73792   3.359   8.117   6.799 -0.0257 -0.3411 -0.3464
  560MOL0     C73793   3.350   8.040   6.680  0.2498  0.2078 -0.0682
  560MOL0     C73794   3.228   7.976   6.629  0.1776 -0.9829 -0.9907
  560MOL0     C73795   3.116   7.990   6.713 -0.8756  0.2977 -0.2575
  560MOL0     O73796   2.994   7.932   6.684 -0.1127  0.0447 -0.2228
  560MOL0     C73797   2.876   8.020   6.683  0.1291  0.9437  0.1203
  560MOL0     C73798   2.759   7.945   6.623 -0.7442  0.6018 -0.0446
  560MOL0     C73799   2.649   8.039   6.570  0.7710 -0.0848  0.5381
  560MOL0     C73800   2.522   7.961   6.552  0.4734 -0.8837 -0.4894
  560MOL0     C73801   2.392   8.037   6.545 -0.0532  0.3548 -0.5249
  560MOL0     C73802   2.266   7.933   6.547 -0.2100 -0.2666  0.0744
  560MOL0     C73803   2.146   8.017   6.508  0.5697 -0.4495 -0.0663
  560MOL0     C73804   2.005   7.959   6.507  0.2967  0.2934  0.6947
  560MOL0     N73805   1.897   8.039   6.452  0.2026 -0.1060 -0.1130
  560MOL0     C73806   1.826   8.003   6.344  0.1018 -0.8034  1.0424
  560MOL0     C73807   1.709   8.078   6.345 -0.1152 -0.0840  0.3753
  560MOL0     C73808   1.607   8.082   6.233 -0.7686 -0.2905  0.3055
  560MOL0     C73809   1.586   8.226   6.183  0.3659 -0.5820  0.7641
  560MOL0     C73810   1.691   8.274   6.083  0.2688 -0.7838 -0.2021
  560MOL0     C73811   1.842   8.289   6.116 -0.2031 -0.0259  0.7323
  560MOL0     O73812   1.855   8.344   6.242 -0.1556  0.4835  0.6089
  560MOL0     C73813   1.967   8.338   6.313  0.3520  0.0564 -0.7592
  560MOL0     C73814   1.955   8.414   6.428  0.4419  0.3086 -0.2282
  560MOL0     C73815   2.071   8.442   6.503  0.6326 -1.0107 -0.2460
  560MOL0     C73816   2.202   8.422   6.452 -0.2028  0.2388 -0.1120
  560MOL0     C73817   2.318   8.449   6.538 -0.2332  0.2242  0.0674
  560MOL0     O73818   2.433   8.395   6.499 -0.0805  0.3803 -0.5623
  560MOL0     C73819   2.547   8.419   6.568 -0.0871 -0.4016 -0.9300
  560MOL0     C73820   2.572   8.373   6.702 -0.1656 -0.6636 -0.1181
  560MOL0     C73821   2.699   8.389   6.757  0.5302  0.2281 -0.6603
  560MOL0     C73822   2.797   8.443   6.691 -0.1395  0.0862  1.0414
  560MOL0     O73823   2.917   8.444   6.758 -0.5355  0.2099  0.0761
  560MOL0     C73824   3.013   8.555   6.730 -0.2342 -0.6993  0.1647
  560MOL0     C73825   3.120   8.568   6.840 -0.7569  0.4065 -0.7595
  560MOL0     C73826   3.208   8.696   6.808  0.7829 -0.1533  0.8882
  560MOL0     C73827   3.316   8.707   6.907 -0.3890  0.4447 -0.5339
  560MOL0     C73828   3.421   8.809   6.846 -1.3095 -0.1455 -0.3603
  560MOL0     C73829   3.543   8.832   6.939  0.3267  0.2285  0.0530
  560MOL0     C73830   3.636   8.921   6.864  0.4006 -0.2636 -0.6399
  560MOL0     C73831   3.740   8.965   6.961 -0.5499 -0.1006 -0.4608
  560MOL0    Cl73832   3.698   9.055   7.110 -0.0446  0.2297  0.6161
  560MOL0     C73833   2.774   8.505   6.564 -0.2134 -0.3285  0.5817
  560MOL0     C73834   2.648   8.491   6.503  0.1315  0.6540  0.3343
  560MOL0     O73835   2.310   8.516   6.638  0.4878 -0.3382  0.7692
  560MOL0     C73836   2.211   8.346   6.335 -0.0570 -0.2218 -0.0644
  560MOL0     C73837   2.094   8.305   6.264 -0.4145  0.1401 -0.4464
  560MOL0     N73838   1.713   8.137   6.467  0.1041 -0.2081  0.3336
  560MOL0     N73839   1.814   8.108   6.531  0.0109  0.4176 -0.6550
  560MOL0     C73840   3.121   8.068   6.830 -0.9109 -0.7478  0.2673
  560MOL0     C73841   3.239   8.142   6.865  1.3652 -0.1624  0.0872
  560MOL0     C73842   3.608   8.385   6.815 -0.0557  0.3696  0.2299
  560MOL0     C73843   3.648   8.372   6.951 -0.5644  0.7624  0.7255
  560MOL0     C73844   3.745   8.464   7.001  0.1044  0.2314  0.6940
  560MOL0     C73845   3.806   8.555   6.915 -0.0433 -0.7871  0.9122
  560MOL0     O73846   3.899   8.632   6.974  0.4491 -0.0036  0.4904
  560MOL0     C73847   4.014   8.682   6.903 -0.0351 -0.2805  1.1657
  560MOL0     C73848   4.119   8.575   6.861  0.2182  0.1539 -1.0076
  560MOL0     C73849   4.196   8.527   6.983  0.0072  0.3667 -0.3461
  560MOL0     C73850   4.124   8.443   7.095 -0.0147 -0.6307  0.1540
  560MOL0     C73851   4.086   8.311   7.040  0.9706  0.2942 -0.1827
  560MOL0     C73852   4.046   8.206   6.995 -0.2731 -0.1781 -0.9867
  560MOL0     C73853   3.786   8.552   6.774  0.4194 -0.3324  0.1738
  560MOL0     C73854   3.683   8.470   6.731 -0.4820 -0.5859  0.6224
  560MOL0     H73855   3.442   8.024   6.625 -0.1547 -1.9254 -0.1971
  560MOL0     H73856   3.224   7.923   6.534  0.1355  0.7785 -2.0195
  560MOL0     H73857   2.891   8.112   6.627  2.9202 -0.9645 -2.6130
  560MOL0     H73858   2.849   8.036   6.788 -0.8539  0.1259  0.0219
  560MOL0     H73859   2.703   7.892   6.701 -0.4534  1.1333  0.5267
  560MOL0     H73860   2.800   7.882   6.543 -0.5549  0.5215  0.1146
  560MOL0     H73861   2.685   8.079   6.474  0.2638 -1.4521 -0.2503
  560MOL0     H73862   2.641   8.113   6.650 -2.8707 -1.5622  1.7301
  560MOL0     H73863   2.536   7.885   6.474 -1.6804 -0.9184 -0.9126
  560MOL0     H73864   2.507   7.894   6.637 -0.6038 -2.1721 -1.6413
  560MOL0     H73865   2.401   8.102   6.458  2.1898  0.4674 -0.2696
  560MOL0     H73866   2.383   8.102   6.633  0.8985  1.5112 -1.2645
  560MOL0     H73867   2.266   7.894   6.649  0.2699  1.8306  0.9387
  560MOL0     H73868   2.291   7.849   6.481  2.2312 -1.8285  2.7855
  560MOL0     H73869   2.144   8.107   6.570 -1.7164 -0.1842 -0.4095
  560MOL0     H73870   2.168   8.029   6.401  1.8234 -4.5843 -0.4545
  560MOL0     H73871   1.986   7.935   6.612 -1.1001 -1.2971  0.1209
  560MOL0     H73872   2.024   7.863   6.458  0.0860 -0.8617  2.7517
  560MOL0     H73873   1.859   7.949   6.256 -1.9605 -0.6816  0.1289
  560MOL0     H73874   1.512   8.039   6.265 -1.1609  1.4131  1.6357
  560MOL0     H73875   1.656   8.030   6.150 -0.1575  4.5730 -2.7959
  560MOL0     H73876   1.586   8.295   6.268 -2.9844  0.9589 -0.3271
  560MOL0     H73877   1.487   8.226   6.137 -0.3363 -0.5080  2.2383
  560MOL0     H73878   1.691   8.197   6.004 -0.6763 -0.8795 -0.1182
  560MOL0     H73879   1.659   8.373   6.050 -0.4866 -0.1854  2.1739
  560MOL0     H73880   1.886   8.342   6.031 -2.3708 -1.3128 -1.3332
  560MOL0     H73881   1.876   8.185   6.112  1.0772  0.4064 -0.7276
  560MOL0     H73882   1.860   8.452   6.465 -0.4525 -0.4084 -1.6882
  560MOL0     H73883   2.043   8.482   6.599  0.3628 -0.7654 -0.4240
  560MOL0     H73884   2.483   8.322   6.738 -0.6313  1.4096  1.8813
  560MOL0     H73885   2.716   8.352   6.857  0.5290  0.4869 -0.5659
  560MOL0     H73886   2.954   8.647   6.732 -0.6919 -0.9782 -0.1956
  560MOL0     H73887   3.057   8.546   6.630  1.9216  0.1839  0.9693
  560MOL0     H73888   3.182   8.478   6.844 -0.6069  0.5333  2.4590
  560MOL0     H73889   3.069   8.562   6.937  0.2229 -2.9996 -0.3188
  560MOL0     H73890   3.146   8.785   6.820  0.4417 -0.2104 -0.2821
  560MOL0     H73891   3.240   8.693   6.703 -0.1624  2.3726  0.4571
  560MOL0     H73892   3.275   8.735   7.004 -1.9385 -1.6497 -0.5421
  560MOL0     H73893   3.372   8.616   6.932 -0.3943  0.5313 -0.1921
  560MOL0     H73894   3.372   8.903   6.820  0.3322 -0.1412 -4.1920
  560MOL0     H73895   3.461   8.771   6.751  1.4159 -1.0222  1.0506
  560MOL0     H73896   3.581   8.734   6.969 -0.6498  0.1336  1.0793
  560MOL0     H73897   3.511   8.889   7.028 -1.5956 -0.1241 -0.3826
  560MOL0     H73898   3.681   8.862   6.783  1.0829  0.4350 -0.7780
  560MOL0     H73899   3.597   9.015   6.824  3.0306  1.5052  0.6669
  560MOL0     H73900   3.801   9.029   6.896 -2.3906  0.5500 -1.6277
  560MOL0     H73901   3.799   8.877   6.989 -3.9348 -2.7246 -0.9132
  560MOL0     H73902   2.849   8.571   6.519 -0.7923  0.4227  0.6997
  560MOL0     H73903   2.639   8.534   6.404  2.8805 -0.4427 -0.4988
  560MOL0     H73904   2.307   8.310   6.299  0.8766  0.4604  1.6204
  560MOL0     H73905   2.101   8.250   6.171  0.0964 -0.1410 -0.2465
  560MOL0     H73906   3.035   8.078   6.896 -0.3550 -1.5633  1.1455
  560MOL0     H73907   3.243   8.218   6.942  0.3320  1.5042 -1.4106
  560MOL0     H73908   3.600   8.291   7.004 -0.2061 -1.8926 -2.6601
  560MOL0     H73909   3.783   8.468   7.103 -0.1138 -0.0100  0.7841
  560MOL0     H73910   4.065   8.768   6.948 -1.1927  1.2707 -0.3374
  560MOL0     H73911   3.973   8.719   6.809 -1.5503 -3.1687  0.5643
  560MOL0     H73912   4.070   8.490   6.813  1.8257 -1.3678 -0.0913
  560MOL0     H73913   4.195   8.618   6.795  0.6325  2.6684  0.9479
  560MOL0     H73914   4.235   8.616   7.035  1.8388 -0.4763 -0.1987
  560MOL0     H73915   4.288   8.474   6.957  1.4759  1.6496  1.8534
  560MOL0     H73916   4.189   8.418   7.179 -0.6725  0.2502  0.9505
  560MOL0     H73917   4.039   8.499   7.135 -0.1222  0.3737 -1.3732
  560MOL0     H73918   4.008   8.115   6.954  0.1176  0.7233 -3.6082
  560MOL0     H73919   3.835   8.610   6.697 -2.0821 -0.7895 -1.9040
  560MOL0     H73920   3.655   8.467   6.626 -0.2574 -0.9301  0.5710
  561MOL0     O73921   6.661   7.239   6.889 -0.0451  0.7438  0.6202
  561MOL0     C73922   6.700   7.327   6.968 -0.0419  0.6288  0.4013
  561MOL0     O73923   6.661   7.337   7.100  0.6247 -0.5784  0.2412
  561MOL0     C73924   6.560   7.248   7.139  0.4218 -0.5715  0.0422
  561MOL0     C73925   6.431   7.258   7.088 -0.1954  0.7675 -0.1977
  561MOL0     C73926   6.333   7.162   7.133 -0.3228  0.4366  0.1316
  561MOL0     C73927   6.370   7.061   7.222 -0.0861 -0.0431 -0.1749
  561MOL0     O73928   6.298   6.957   7.266  0.5382  0.1763 -0.6028
  561MOL0     C73929   6.178   6.930   7.205 -0.6581  0.5836  1.1373
  561MOL0     C73930   6.093   6.846   7.298 -0.2328  0.2054 -0.0458
  561MOL0     C73931   5.965   6.789   7.255 -0.3207 -0.0794  0.7514
  561MOL0     C73932   5.859   6.887   7.253  0.3695  0.0913 -0.3223
  561MOL0     C73933   5.722   6.821   7.206  0.0886  0.3255 -0.0478
  561MOL0     C73934   5.603   6.917   7.238 -0.3930  0.2703  0.3658
  561MOL0     C73935   5.465   6.861   7.212  0.6187 -0.4813 -0.6242
  561MOL0     C73936   5.444   6.742   7.112 -0.2790 -0.4444  0.0370
  561MOL0     N73937   5.308   6.704   7.082  0.2077 -0.0800 -0.4086
  561MOL0     C73938   5.195   6.719   7.160 -0.9739 -0.0690  0.0416
  561MOL0     C73939   5.097   6.666   7.076 -0.2170 -0.0045  0.0407
  561MOL0     C73940   4.950   6.649   7.111 -0.1336 -0.0817  0.3492
  561MOL0     C73941   4.860   6.633   6.989 -0.0221  0.2797 -0.0126
  561MOL0     C73942   4.715   6.601   7.035  0.8060  0.1542  0.1614
  561MOL0     C73943   4.618   6.646   6.928 -0.0792  0.1086  0.2704
  561MOL0     O73944   4.481   6.619   6.972 -0.1857 -0.3574  0.3135
  561MOL0     C73945   4.382   6.679   6.903  0.4529  0.2403  0.3736
  561MOL0     C73946   4.255   6.644   6.957  0.4405 -0.5112  0.6986
  561MOL0     C73947   4.139   6.690   6.892  0.0583  0.4553 -0.1463
  561MOL0     C73948   4.139   6.772   6.779 -0.2710 -0.8316  0.9936
  561MOL0     C73949   4.016   6.832   6.719 -0.0392  0.0642 -0.5134
  561MOL0     O73950   3.897   6.773   6.765  0.5748  0.2144  0.2723
  561MOL0     C73951   3.776   6.833   6.735  0.5076 -0.1034 -1.0113
  561MOL0     C73952   3.743   6.840   6.596 -1.2399  0.2314 -0.5570
  561MOL0     C73953   3.637   6.913   6.554  0.2269  0.0294  0.3895
  561MOL0     C73954   3.547   6.974   6.645  0.5059  0.2701  0.1900
  561MOL0     O73955   3.431   7.022   6.597  0.2639 -0.0086 -0.0640
  561MOL0     C73956   3.338   7.077   6.691  0.1330  0.6700 -0.1463
  561MOL0     C73957   3.216   7.135   6.620 -0.1889  0.1079  0.0636
  561MOL0     C73958   3.124   7.185   6.727  1.0577 -0.3246 -0.2305
  561MOL0     C73959   2.996   7.259   6.676 -0.2185  0.2842 -0.4652
  561MOL0     C73960   2.903   7.294   6.797 -0.4419 -0.2732 -0.8760
  561MOL0     C73961   2.771   7.225   6.789  1.2508  0.8974 -0.5905
  561MOL0     C73962   2.663   7.288   6.886 -0.4705 -0.1364  0.6371
  561MOL0     C73963   2.546   7.193   6.908  0.4949 -0.8731 -0.8976
  561MOL0    Cl73964   2.395   7.273   6.971  0.2227 -0.1691 -0.3059
  561MOL0     C73965   3.574   6.961   6.781 -0.0234 -0.7728  0.1679
  561MOL0     C73966   3.684   6.886   6.822 -0.9129  0.2699  0.1680
  561MOL0     O73967   4.027   6.916   6.629 -0.7435  0.3842  0.0019
  561MOL0     C73968   4.270   6.797   6.730  0.0857 -0.2555  0.7040
  561MOL0     C73969   4.393   6.756   6.784  0.4069 -0.3542 -0.7648
  561MOL0     N73970   5.149   6.622   6.958  0.0900  0.4821 -0.2394
  561MOL0     N73971   5.271   6.653   6.963 -0.2120  0.2291 -0.1463
  561MOL0     C73972   6.485   7.073   7.290 -0.8256  0.5832  0.6240
  561MOL0     C73973   6.584   7.172   7.253  0.2427 -0.4188  0.0770
  561MOL0     C73974   6.801   7.423   6.925 -0.2013 -0.6509  0.1812
  561MOL0     C73975   6.873   7.514   7.010  0.1065  1.1169  0.4547
  561MOL0     C73976   6.945   7.616   6.949 -0.1424 -0.4272 -0.4302
  561MOL0     C73977   6.958   7.642   6.815 -0.6619 -0.6118  0.2808
  561MOL0     O73978   7.038   7.745   6.770 -0.4655 -0.0406 -0.3509
  561MOL0     C73979   7.061   7.762   6.633  0.1565  0.7604  0.8702
  561MOL0     C73980   7.154   7.645   6.591  0.5246  0.1706  0.3032
  561MOL0     C73981   7.207   7.662   6.443 -0.3959  0.7153  0.4059
  561MOL0     C73982   7.097   7.652   6.336 -0.0157 -0.4140  0.4123
  561MOL0     C73983   7.040   7.514   6.334  0.1176 -0.5718  0.0245
  561MOL0     C73984   6.994   7.402   6.328 -0.3208 -0.4401 -0.0847
  561MOL0     C73985   6.888   7.557   6.731  0.6368  0.5444  0.0751
  561MOL0     C73986   6.813   7.446   6.785  1.2553 -0.2996 -1.1514
  561MOL0     H73987   6.409   7.340   7.021  1.0851  0.2644 -1.2817
  561MOL0     H73988   6.235   7.180   7.090 -0.8451  1.8814  1.8041
  561MOL0     H73989   6.203   6.869   7.118 -2.4859  2.5505 -0.9085
  561MOL0     H73990   6.116   7.014   7.172  1.6438  0.7991 -3.4811
  561MOL0     H73991   6.077   6.893   7.396  0.0813 -0.5723  0.3947
  561MOL0     H73992   6.161   6.763   7.319 -1.4257 -2.8120 -5.9946
  561MOL0     H73993   5.933   6.707   7.320 -2.2392 -2.4411 -2.8209
  561MOL0     H73994   5.959   6.749   7.153 -3.1933  0.9246  0.4268
  561MOL0     H73995   5.846   6.917   7.358 -1.8079 -1.2921 -0.1320
  561MOL0     H73996   5.885   6.970   7.187 -1.8326  0.1003 -1.2609
  561MOL0     H73997   5.705   6.727   7.259  2.3023  0.7323  1.5080
  561MOL0     H73998   5.728   6.793   7.100 -1.5496  0.3334 -0.1671
  561MOL0     H73999   5.622   7.002   7.172  0.7297 -1.6563 -1.9633
  561MOL0     H74000   5.621   6.959   7.337 -0.0050 -2.0617  1.3452
  561MOL0     H74001   5.433   6.827   7.311 -2.4532  2.1653 -0.5243
  561MOL0     H74002   5.390   6.939   7.194  0.3086 -0.4581  0.6553
  561MOL0     H74003   5.497   6.655   7.152 -0.4056  0.3716  2.1345
  561MOL0     H74004   5.499   6.774   7.023 -0.2052  1.5482  0.7445
  561MOL0     H74005   5.185   6.738   7.266  1.3919  0.6421  0.1878
  561MOL0     H74006   4.928   6.728   7.183  2.3037  1.3543 -0.3716
  561MOL0     H74007   4.943   6.556   7.168  1.3539 -0.9604 -0.8232
  561MOL0     H74008   4.905   6.555   6.927  1.7711  0.8984  0.4593
  561MOL0     H74009   4.855   6.723   6.926 -0.9409  1.2805  1.4151
  561MOL0     H74010   4.701   6.493   7.048 -2.0369  0.6678  2.2433
  561MOL0     H74011   4.686   6.643   7.131  1.5974  0.3437  0.3202
  561MOL0     H74012   4.651   6.599   6.835 -2.4480 -1.6644  0.2267
  561MOL0     H74013   4.642   6.752   6.917  1.0145 -0.1514 -0.0165
  561MOL0     H74014   4.237   6.590   7.049  0.4886 -2.7915 -0.5350
  561MOL0     H74015   4.044   6.658   6.934 -1.4828  2.7502 -1.6527
  561MOL0     H74016   3.811   6.790   6.527  0.3918 -2.2731  2.5869
  561MOL0     H74017   3.615   6.930   6.449  0.3287  0.0906  0.3789
  561MOL0     H74018   3.389   7.159   6.744  0.6864  0.6861 -0.6825
  561MOL0     H74019   3.300   7.004   6.763 -0.5913  2.4235  1.3346
  561MOL0     H74020   3.167   7.064   6.552 -1.9135  1.2748  0.0304
  561MOL0     H74021   3.252   7.211   6.550  0.0907 -1.0916 -1.1477
  561MOL0     H74022   3.178   7.254   6.794  0.2160 -0.6713  0.8320
  561MOL0     H74023   3.094   7.096   6.783 -0.4743 -1.1425 -2.2599
  561MOL0     H74024   3.022   7.342   6.610  0.5271  0.7781  0.4264
  561MOL0     H74025   2.956   7.182   6.610  0.2341 -0.6418  0.3291
  561MOL0     H74026   2.888   7.401   6.810  0.3269 -0.0365 -1.8384
  561MOL0     H74027   2.945   7.267   6.894 -2.1293  0.0441 -0.0104
  561MOL0     H74028   2.771   7.117   6.802  1.7232  0.8456 -1.0025
  561MOL0     H74029   2.727   7.248   6.692 -0.9784  2.9428  0.7865
  561MOL0     H74030   2.707   7.316   6.982  0.2735 -1.2410  0.6345
  561MOL0     H74031   2.624   7.377   6.836 -1.4661  0.5153  2.4863
  561MOL0     H74032   2.585   7.110   6.968  3.1547 -0.1597 -1.4773
  561MOL0     H74033   2.522   7.150   6.810 -2.0600  0.2136 -0.8101
  561MOL0     H74034   3.513   6.985   6.867  1.5164 -4.0599  2.4207
  561MOL0     H74035   3.713   6.875   6.926  4.8333  1.0120 -1.0232
  561MOL0     H74036   4.290   6.849   6.637 -0.1545 -0.6034  0.4597
  561MOL0     H74037   4.490   6.781   6.742 -0.0014  0.4957 -1.2191
  561MOL0     H74038   6.516   6.999   7.363 -0.7900 -0.0451 -0.0149
  561MOL0     H74039   6.687   7.168   7.288  0.9887  0.1544 -1.9079
  561MOL0     H74040   6.861   7.502   7.117  3.8418 -1.6577  0.7631
  561MOL0     H74041   7.007   7.689   7.000  0.5290 -0.3612 -1.3222
  561MOL0     H74042   7.108   7.859   6.613 -0.9928  0.9570 -1.1689
  561MOL0     H74043   6.965   7.759   6.580 -1.7215 -0.8418  4.0390
  561MOL0     H74044   7.250   7.648   6.644  0.8259 -0.5324 -0.1952
  561MOL0     H74045   7.114   7.548   6.621 -0.2244  0.7886  1.3752
  561MOL0     H74046   7.275   7.582   6.414 -2.9697 -0.7124 -2.1668
  561MOL0     H74047   7.263   7.756   6.434 -0.6163  0.9567  1.3716
  561MOL0     H74048   7.023   7.729   6.359 -0.2407 -0.6019  0.3234
  561MOL0     H74049   7.140   7.673   6.237 -0.2754  0.2370  0.4274
  561MOL0     H74050   6.940   7.310   6.324 -1.2392  0.0291  0.9297
  561MOL0     H74051   6.895   7.569   6.623 -0.0068  2.4861  0.2128
  561MOL0     H74052   6.763   7.380   6.715  0.9292 -1.2871 -0.0146
  562MOL0     O74053  10.553   3.848   7.894 -0.7847 -0.7601  0.0151
  562MOL0     C74054  10.625   3.928   7.955  0.9697  1.1135  0.0391
  562MOL0     O74055  10.584   4.010   8.062  0.2456  0.1254 -0.3508
  562MOL0     C74056  10.455   4.004   8.104  1.3048  0.3503 -0.1392
  562MOL0     C74057  10.383   3.877   8.113  0.0073 -0.1320  0.3750
  562MOL0     C74058  10.249   3.874   8.159  0.3083  0.6468 -0.1066
  562MOL0     C74059  10.191   3.992   8.199  1.1728  0.8383 -0.3914
  562MOL0     O74060  10.047   3.977   8.236 -0.8329  0.2021  0.1206
  562MOL0     C74061   9.982   4.084   8.312  0.2253 -0.0811 -0.3719
  562MOL0     C74062   9.867   4.023   8.384  0.2837  0.1592 -0.4758
  562MOL0     C74063   9.770   4.129   8.426 -0.2110  0.2385 -0.2725
  562MOL0     C74064   9.646   4.057   8.505 -0.2202 -1.0260  0.2529
  562MOL0     C74065   9.531   4.150   8.547  0.1369  0.3235  0.1491
  562MOL0     C74066   9.478   4.236   8.434  0.6046  0.4300  0.0074
  562MOL0     C74067   9.358   4.323   8.472 -0.5550 -0.4746  0.4419
  562MOL0     C74068   9.309   4.403   8.348  0.5356  0.0319 -0.1116
  562MOL0     N74069   9.208   4.327   8.279  0.8642  0.5941 -0.7571
  562MOL0     C74070   9.206   4.199   8.228 -0.0632 -0.5930 -1.1379
  562MOL0     C74071   9.073   4.166   8.198 -0.3343 -0.3346 -1.0255
  562MOL0     C74072   9.029   4.035   8.156 -0.2722  0.0288  0.4417
  562MOL0     C74073   8.879   4.041   8.111  0.8433  0.7112  0.1854
  562MOL0     C74074   8.768   4.039   8.223 -0.1569  0.7587  0.0781
  562MOL0     C74075   8.621   4.035   8.177 -0.0171  0.5740 -0.1647
  562MOL0     O74076   8.547   3.928   8.230 -0.0903 -0.2897  0.5351
  562MOL0     C74077   8.414   3.920   8.206  0.2774 -0.0074 -0.2989
  562MOL0     C74078   8.336   4.030   8.169 -1.0132  0.2391 -0.5725
  562MOL0     C74079   8.201   4.012   8.141  0.5307  0.5844 -0.0150
  562MOL0     C74080   8.133   3.886   8.145 -0.8820 -0.6424  0.3255
  562MOL0     C74081   7.997   3.849   8.113 -0.9356  0.8810  0.1841
  562MOL0     O74082   7.969   3.714   8.107 -0.0435 -1.2983 -0.2710
  562MOL0     C74083   7.840   3.665   8.123  0.0950  0.1051  0.1620
  562MOL0     C74084   7.739   3.728   8.200 -0.6597  0.9124  0.7286
  562MOL0     C74085   7.615   3.668   8.210 -0.4450  0.1331 -0.4744
  562MOL0     C74086   7.593   3.546   8.144  0.2931 -0.2934  0.0020
  562MOL0     O74087   7.471   3.488   8.164 -0.7710  0.2524 -0.0265
  562MOL0     C74088   7.381   3.528   8.059  0.7943 -0.7341  0.1306
  562MOL0     C74089   7.249   3.452   8.082 -0.6675 -0.0734 -0.3161
  562MOL0     C74090   7.145   3.502   7.984  0.2351  1.0537  0.7789
  562MOL0     C74091   7.017   3.417   7.995  1.3100 -1.2845  0.3687
  562MOL0     C74092   6.889   3.504   7.981 -1.1450  0.1233 -0.7148
  562MOL0     C74093   6.759   3.423   7.960  0.1415 -0.9589 -0.6398
  562MOL0     C74094   6.648   3.521   7.993  1.0182  0.1207  0.1252
  562MOL0     C74095   6.505   3.467   7.983 -0.1696 -0.6487  0.2815
  562MOL0    Cl74096   6.479   3.419   7.812  0.3699 -0.0339  0.0575
  562MOL0     C74097   7.697   3.484   8.062 -0.4243  0.2058  0.3974
  562MOL0     C74098   7.823   3.544   8.061  0.1689  0.4247  0.5277
  562MOL0     O74099   7.920   3.940   8.097  0.5219 -0.2316 -0.3660
  562MOL0     C74100   8.222   3.780   8.182 -0.3285  0.1287  0.9297
  562MOL0     C74101   8.357   3.793   8.208  0.2283  0.5415 -0.3139
  562MOL0     N74102   9.007   4.282   8.221 -0.6210 -0.0013 -0.7331
  562MOL0     N74103   9.086   4.377   8.265  0.0219  0.0154  0.2085
  562MOL0     C74104  10.263   4.115   8.204  0.2283 -0.1523 -0.2517
  562MOL0     C74105  10.391   4.122   8.145  0.1920  0.2131  0.7141
  562MOL0     C74106  10.764   3.940   7.918  0.5799 -0.3057  0.6637
  562MOL0     C74107  10.830   3.840   7.844  0.2825  0.3972 -0.5783
  562MOL0     C74108  10.945   3.864   7.779 -0.3907 -0.3801  0.2195
  562MOL0     C74109  11.017   3.988   7.791  0.1595  0.3606 -0.0133
  562MOL0     O74110  11.140   4.021   7.723  0.5321  0.6690 -0.3276
  562MOL0     C74111  11.153   3.958   7.594 -0.5167 -0.2913 -0.3536
  562MOL0     C74112  11.251   3.847   7.600 -0.1177 -1.2269 -0.4043
  562MOL0     C74113  11.397   3.895   7.582  0.5495  0.5087  0.2146
  562MOL0     C74114  11.445   3.922   7.435 -0.3339 -0.1872  0.0583
  562MOL0     C74115  11.583   3.966   7.444 -0.2942  0.2456 -0.4772
  562MOL0     C74116  11.699   4.004   7.449 -0.1796 -0.2929  0.9924
  562MOL0     C74117  10.964   4.085   7.883  0.2526  0.0095 -0.2819
  562MOL0     C74118  10.841   4.064   7.937  0.4755 -0.3576 -1.0759
  562MOL0     H74119  10.428   3.780   8.094 -1.7886 -0.2310 -4.9590
  562MOL0     H74120  10.200   3.778   8.168  0.0456  0.8514  0.6514
  562MOL0     H74121   9.949   4.171   8.255  3.5297  3.5217  2.6444
  562MOL0     H74122  10.054   4.126   8.383  0.3620  0.0517 -0.5882
  562MOL0     H74123   9.892   3.961   8.470  1.8966  2.3371  0.7330
  562MOL0     H74124   9.807   3.960   8.317 -0.0103  1.0667 -1.0857
  562MOL0     H74125   9.743   4.190   8.340  0.9115  1.9564  0.5307
  562MOL0     H74126   9.824   4.195   8.495 -1.9374  0.2449  1.1215
  562MOL0     H74127   9.610   3.981   8.436 -2.9312  1.6344 -1.5397
  562MOL0     H74128   9.687   4.010   8.595 -2.5350  1.3374  2.7632
  562MOL0     H74129   9.557   4.214   8.632 -0.9661  2.1926 -0.8544
  562MOL0     H74130   9.448   4.092   8.590 -0.3055  1.8925  1.5070
  562MOL0     H74131   9.443   4.161   8.361  1.4862  0.5585 -0.5572
  562MOL0     H74132   9.553   4.297   8.383  1.4260 -1.9000 -1.7719
  562MOL0     H74133   9.279   4.260   8.514 -0.0931 -3.7878 -3.0764
  562MOL0     H74134   9.382   4.393   8.552  0.2383  0.7603 -0.8360
  562MOL0     H74135   9.397   4.411   8.284  0.4896 -3.9374 -0.9124
  562MOL0     H74136   9.270   4.497   8.388  4.2232  1.5539  0.2892
  562MOL0     H74137   9.286   4.126   8.227  3.7209  3.1396 -1.6408
  562MOL0     H74138   9.034   3.953   8.228  0.9223  0.0475  0.3955
  562MOL0     H74139   9.074   4.004   8.061 -2.1032 -0.4274 -0.3165
  562MOL0     H74140   8.860   3.957   8.043 -0.9462  1.3356 -0.1336
  562MOL0     H74141   8.861   4.129   8.049  0.9861  0.5252 -0.1236
  562MOL0     H74142   8.793   3.945   8.274  0.9217 -1.9004 -4.6906
  562MOL0     H74143   8.786   4.131   8.279  2.6009  0.5515 -0.3260
  562MOL0     H74144   8.607   4.042   8.069 -2.1974  0.4113  0.0595
  562MOL0     H74145   8.575   4.126   8.217 -0.9733  0.2091 -0.4054
  562MOL0     H74146   8.374   4.130   8.153  1.7344 -0.0461  2.7904
  562MOL0     H74147   8.147   4.101   8.111  0.7384  0.5727 -0.4317
  562MOL0     H74148   7.742   3.825   8.249 -0.3117  0.7571  1.0299
  562MOL0     H74149   7.536   3.708   8.272 -1.6382 -0.4648 -1.5643
  562MOL0     H74150   7.419   3.505   7.959  0.3563  1.2885 -0.5451
  562MOL0     H74151   7.352   3.634   8.057 -0.8536 -1.1437 -1.2605
  562MOL0     H74152   7.220   3.485   8.182 -1.5167  3.5078 -1.6071
  562MOL0     H74153   7.261   3.343   8.082  0.4290  0.0119  1.6755
  562MOL0     H74154   7.175   3.492   7.880 -0.4526 -0.6292  0.7147
  562MOL0     H74155   7.116   3.605   8.009  0.9865  1.3761  0.3331
  562MOL0     H74156   7.023   3.334   7.923  1.3730 -1.9056  1.0774
  562MOL0     H74157   7.012   3.370   8.094 -1.8625  1.3433  1.6470
  562MOL0     H74158   6.909   3.557   7.887 -2.6871 -0.5914 -1.4781
  562MOL0     H74159   6.886   3.575   8.064  3.1791  0.6853 -0.8155
  562MOL0     H74160   6.758   3.349   8.041 -1.1655  1.0924  1.3264
  562MOL0     H74161   6.755   3.374   7.863  2.2178 -0.7401 -0.8960
  562MOL0     H74162   6.645   3.551   8.099 -1.8924  0.2995  0.0579
  562MOL0     H74163   6.647   3.604   7.922  0.5826 -0.4819 -0.5773
  562MOL0     H74164   6.431   3.539   8.019 -2.3650 -1.1452 -2.8478
  562MOL0     H74165   6.499   3.375   8.040  1.8303 -0.2315  1.2749
  562MOL0     H74166   7.664   3.407   7.994  0.0451  1.7354 -1.6628
  562MOL0     H74167   7.906   3.509   8.000 -0.1306 -0.9200  0.8666
  562MOL0     H74168   8.179   3.681   8.192 -1.7916  0.7385  0.9158
  562MOL0     H74169   8.413   3.703   8.231  0.2259  0.9489  1.4745
  562MOL0     H74170  10.217   4.208   8.235 -1.4751 -1.1401  0.3627
  562MOL0     H74171  10.440   4.218   8.143 -1.2928  1.0230 -1.5423
  562MOL0     H74172  10.773   3.749   7.823  1.0627 -0.4314  0.7493
  562MOL0     H74173  10.983   3.786   7.714  1.7195 -0.8372  1.8808
  562MOL0     H74174  11.188   4.045   7.536 -0.0965  1.7164  2.6937
  562MOL0     H74175  11.060   3.924   7.547  0.2356  0.2325 -2.3280
  562MOL0     H74176  11.250   3.800   7.699  0.3989 -0.0095  0.2042
  562MOL0     H74177  11.237   3.780   7.515  3.7676  0.9741 -3.0983
  562MOL0     H74178  11.466   3.820   7.623 -2.3155 -2.0425  0.8186
  562MOL0     H74179  11.403   3.984   7.645 -2.2906  1.4478 -0.6738
  562MOL0     H74180  11.444   3.828   7.378 -0.5594  1.4411 -2.7940
  562MOL0     H74181  11.380   3.995   7.386 -0.8078 -0.2206  0.6186
  562MOL0     H74182  11.794   4.053   7.446  0.1924 -0.9343 -3.2284
  562MOL0     H74183  11.021   4.176   7.897  0.5275 -0.5272  2.7261
  562MOL0     H74184  10.802   4.143   8.000  1.0841  0.6295 -1.8993
  563MOL0     O74185   4.756   6.320   9.980  0.1755  0.2959  0.5255
  563MOL0     C74186   4.826   6.231   9.934  0.1465  0.5269  0.7250
  563MOL0     O74187   4.776   6.115   9.859 -0.0220 -0.2537 -0.6976
  563MOL0     C74188   4.637   6.099   9.864 -0.0353 -0.4462 -0.2568
  563MOL0     C74189   4.577   5.996   9.933  0.6042  0.7327  0.1248
  563MOL0     C74190   4.439   5.981   9.938  0.4433 -0.0562 -0.0401
  563MOL0     C74191   4.356   6.079   9.885 -0.0721 -0.6334 -0.5874
  563MOL0     O74192   4.217   6.066   9.895  0.0485  0.3848  0.0496
  563MOL0     C74193   4.156   5.953   9.961  0.2321 -0.1845 -0.5845
  563MOL0     C74194   4.012   5.979   9.932  0.0424 -0.1961 -1.2196
  563MOL0     C74195   3.912   5.874   9.977 -0.2170 -0.7763 -0.4511
  563MOL0     C74196   3.767   5.902   9.944 -0.7184  0.1346  0.0045
  563MOL0     C74197   3.659   5.815  10.011 -0.1440  0.8358 -0.1887
  563MOL0     C74198   3.657   5.812  10.166 -0.5568  0.0241  0.0242
  563MOL0     C74199   3.552   5.716  10.218 -0.5809 -0.6724 -0.3392
  563MOL0     C74200   3.538   5.704  10.374  0.5515  0.1557 -0.3699
  563MOL0     N74201   3.564   5.832  10.444  0.7366 -0.6794  0.1776
  563MOL0     C74202   3.682   5.883  10.472  0.2488  0.1371 -0.1520
  563MOL0     C74203   3.660   5.980  10.566  0.4749  0.1752  0.1485
  563MOL0     C74204   3.778   6.034  10.639  0.0657 -0.3212 -0.4990
  563MOL0     C74205   3.870   6.128  10.555 -0.1620  0.9957  0.2062
  563MOL0     C74206   3.974   6.214  10.637  0.8393 -0.4064  0.4523
  563MOL0     C74207   4.092   6.148  10.705  0.2226  0.2407  0.6598
  563MOL0     O74208   4.186   6.106  10.600 -0.0478  0.3269 -0.7611
  563MOL0     C74209   4.305   6.068  10.651 -0.1309  0.0256  0.2836
  563MOL0     C74210   4.330   5.932  10.681  0.7268 -0.2545  0.5295
  563MOL0     C74211   4.462   5.897  10.723  0.4044  1.7037  0.2972
  563MOL0     C74212   4.568   5.991  10.721  0.1223 -0.1379  0.3070
  563MOL0     C74213   4.704   5.951  10.764 -0.2733 -0.7726 -1.6552
  563MOL0     O74214   4.717   5.824  10.816 -0.0134 -0.2992  0.3551
  563MOL0     C74215   4.842   5.766  10.788 -0.5427 -0.3894  0.0482
  563MOL0     C74216   4.865   5.690  10.677 -0.6832  0.1692 -0.5153
  563MOL0     C74217   4.985   5.630  10.648  0.1581 -0.5958  0.1313
  563MOL0     C74218   5.092   5.639  10.734 -0.0349 -0.8548 -0.3626
  563MOL0     O74219   5.212   5.577  10.715 -0.2611  0.3144 -0.0110
  563MOL0     C74220   5.274   5.583  10.588  0.1793  1.0543  0.9694
  563MOL0     C74221   5.424   5.541  10.603 -0.1826 -0.4476  0.0319
  563MOL0     C74222   5.499   5.642  10.690 -0.4772 -0.1705 -0.3944
  563MOL0     C74223   5.646   5.630  10.666 -0.1935 -0.3892  0.2205
  563MOL0     C74224   5.740   5.705  10.759  0.2751 -0.4292 -0.3988
  563MOL0     C74225   5.720   5.855  10.739  0.0566 -0.1400 -0.4537
  563MOL0     C74226   5.839   5.925  10.797 -0.0955  0.5832  0.5901
  563MOL0     C74227   5.862   5.913  10.948  0.7486 -0.3280  0.1538
  563MOL0    Cl74228   6.020   5.990  10.982  0.0586  0.4877  0.1598
  563MOL0     C74229   5.074   5.719  10.857 -0.5199  0.1292  1.0271
  563MOL0     C74230   4.952   5.780  10.884  0.8307  0.1806 -0.6938
  563MOL0     O74231   4.799   6.033  10.759  0.2422  0.2146 -0.8852
  563MOL0     C74232   4.536   6.125  10.687  0.5489  0.3608 -0.2624
  563MOL0     C74233   4.408   6.159  10.655 -0.0851  0.8062  0.0893
  563MOL0     N74234   3.519   5.983  10.597 -0.8169  0.2362 -0.0817
  563MOL0     N74235   3.466   5.895  10.518  0.2520 -0.2383 -0.6699
  563MOL0     C74236   4.416   6.184   9.814  0.4510 -0.0632 -0.4290
  563MOL0     C74237   4.557   6.190   9.802  1.0608  0.1678  0.5719
  563MOL0     C74238   4.979   6.238   9.950  0.6865 -0.3238 -0.3970
  563MOL0     C74239   5.055   6.125   9.906  0.5982 -0.1997  0.1800
  563MOL0     C74240   5.190   6.118   9.958  0.7375  0.2074  0.2104
  563MOL0     C74241   5.241   6.216  10.042  0.6169 -0.3898  0.3475
  563MOL0     O74242   5.363   6.206  10.103  0.6604  0.2722  1.0007
  563MOL0     C74243   5.444   6.095  10.063 -0.1575 -0.3566  0.1799
  563MOL0     C74244   5.584   6.119  10.107  0.5610  0.4151  0.2542
  563MOL0     C74245   5.666   6.205  10.005  0.0116 -0.5869 -0.1507
  563MOL0     C74246   5.813   6.208  10.041  0.2280  0.6624 -0.9112
  563MOL0     C74247   5.887   6.321   9.984  0.7748  0.1833 -0.8676
  563MOL0     C74248   5.960   6.409   9.945  0.5229 -0.2961  0.0505
  563MOL0     C74249   5.169   6.328  10.064  0.4028 -0.4216  0.7706
  563MOL0     C74250   5.034   6.346  10.020  0.2378 -0.0183 -1.2498
  563MOL0     H74251   4.635   5.909   9.963  0.5910  0.1268 -1.5421
  563MOL0     H74252   4.402   5.892   9.988  0.4940  1.0136  2.0283
  563MOL0     H74253   4.183   5.954  10.067 -1.5422 -0.7401 -0.0901
  563MOL0     H74254   4.199   5.869   9.906 -1.0206 -0.1276 -1.6954
  563MOL0     H74255   3.989   5.996   9.827  0.5848 -1.8449 -1.6411
  563MOL0     H74256   3.979   6.066   9.989  2.7904  0.4891 -0.5366
  563MOL0     H74257   3.923   5.850  10.084  1.7656 -2.2024 -0.9008
  563MOL0     H74258   3.937   5.780   9.927  0.8155  0.2303 -1.9240
  563MOL0     H74259   3.753   6.005   9.979 -0.7129  0.2309 -0.2723
  563MOL0     H74260   3.757   5.903   9.835  0.6687  0.8830 -0.1359
  563MOL0     H74261   3.686   5.712   9.989 -3.1525 -0.4741  1.6201
  563MOL0     H74262   3.561   5.831   9.966  0.3612  0.5824 -1.3983
  563MOL0     H74263   3.650   5.916  10.197 -0.6378 -0.2595  0.9776
  563MOL0     H74264   3.753   5.780  10.207  0.2679  1.1700 -0.9686
  563MOL0     H74265   3.454   5.741  10.176 -1.5952 -0.0804  2.2113
  563MOL0     H74266   3.581   5.622  10.170 -0.1978  0.2621 -2.0171
  563MOL0     H74267   3.598   5.623  10.417 -0.7491  0.1425  1.5255
  563MOL0     H74268   3.434   5.673  10.388  0.6694 -0.0282  0.1150
  563MOL0     H74269   3.775   5.843  10.433 -0.4588 -1.1243 -0.5915
  563MOL0     H74270   3.835   5.947  10.672  0.7860  0.3911  0.2101
  563MOL0     H74271   3.749   6.088  10.730 -0.8838 -1.1741 -0.2807
  563MOL0     H74272   3.805   6.204  10.512 -3.2077 -0.4525  1.9407
  563MOL0     H74273   3.922   6.071  10.477 -0.9111  1.9925 -1.0398
  563MOL0     H74274   4.011   6.296  10.574 -1.0324 -0.2912 -0.5715
  563MOL0     H74275   3.918   6.267  10.715  0.1679  1.9464 -1.4721
  563MOL0     H74276   4.064   6.061  10.765  0.1380 -0.6782 -0.6723
  563MOL0     H74277   4.132   6.222  10.774 -0.6620 -1.0548  2.6326
  563MOL0     H74278   4.250   5.858  10.683  2.6648 -2.6059 -1.6856
  563MOL0     H74279   4.486   5.799  10.762  2.3244  2.2421  0.5729
  563MOL0     H74280   4.785   5.674  10.605 -0.7096 -0.3381 -0.3799
  563MOL0     H74281   4.996   5.582  10.552  2.8773  0.5817 -0.2467
  563MOL0     H74282   5.262   5.684  10.549 -2.1713  0.7683  0.8493
  563MOL0     H74283   5.231   5.503  10.527  0.3141  0.4726  1.6311
  563MOL0     H74284   5.462   5.544  10.501 -0.3463 -2.3907 -0.1316
  563MOL0     H74285   5.435   5.442  10.649 -0.6149 -0.2676  0.5369
  563MOL0     H74286   5.470   5.621  10.793 -0.1794  1.5584  0.0760
  563MOL0     H74287   5.472   5.747  10.676  1.3881  0.4134  0.1417
  563MOL0     H74288   5.667   5.524  10.684 -0.4745 -0.8624 -2.0142
  563MOL0     H74289   5.662   5.657  10.562 -2.3108  0.1929 -0.0034
  563MOL0     H74290   5.843   5.682  10.729  1.9408  4.8406  0.2493
  563MOL0     H74291   5.721   5.668  10.860  1.5623  0.7846  0.3371
  563MOL0     H74292   5.630   5.888  10.792  2.1146  0.0461  3.2312
  563MOL0     H74293   5.719   5.878  10.632  0.7154  0.5630 -0.3126
  563MOL0     H74294   5.927   5.874  10.756 -0.9781 -2.0387  1.7136
  563MOL0     H74295   5.835   6.033  10.781  1.3581  0.3371 -1.9018
  563MOL0     H74296   5.860   5.806  10.969  2.1288 -0.3670  0.1721
  563MOL0     H74297   5.781   5.966  10.998 -1.0876 -0.3188 -2.5992
  563MOL0     H74298   5.156   5.718  10.928  1.0857 -0.9883 -0.7578
  563MOL0     H74299   4.939   5.835  10.976 -4.3007 -3.0510  0.9624
  563MOL0     H74300   4.616   6.198  10.674  2.9383 -1.0468  4.2537
  563MOL0     H74301   4.377   6.254  10.613 -0.5982 -0.5736 -2.9966
  563MOL0     H74302   4.354   6.263   9.774 -0.8541 -0.2909  1.0614
  563MOL0     H74303   4.591   6.267   9.734  0.4175 -0.7273 -0.8181
  563MOL0     H74304   5.012   6.053   9.838  1.0126  1.4854 -2.0033
  563MOL0     H74305   5.250   6.029   9.939 -0.2954 -0.2337 -1.1652
  563MOL0     H74306   5.454   6.076   9.956  2.1438  2.1745 -0.1582
  563MOL0     H74307   5.410   6.002  10.110 -1.7926  0.1243 -0.0042
  563MOL0     H74308   5.576   6.168  10.205 -3.0989  0.7007 -0.0377
  563MOL0     H74309   5.622   6.017  10.108 -2.9991 -1.0578 -0.3151
  563MOL0     H74310   5.634   6.308  10.025  1.5859  0.0595 -0.7813
  563MOL0     H74311   5.657   6.170   9.902  3.6494 -2.6824  0.0612
  563MOL0     H74312   5.823   6.202  10.150 -1.9266  2.0163 -0.5778
  563MOL0     H74313   5.860   6.119   9.996  1.4596 -0.1470  1.7459
  563MOL0     H74314   6.027   6.475   9.895  1.8575 -2.5601 -1.3452
  563MOL0     H74315   5.219   6.405  10.123  2.1270 -0.6810 -0.2661
  563MOL0     H74316   4.959   6.416  10.056 -1.1791 -1.3383 -1.5361
  564MOL0     O74317  11.001   4.751   2.521 -0.0175 -0.3248  0.5436
  564MOL0     C74318  11.105   4.809   2.548 -0.5909  0.3587  0.3242
  564MOL0     O74319  11.125   4.935   2.613 -0.3168  0.2912  0.0391
  564MOL0     C74320  11.007   4.982   2.672  0.1407 -0.5283 -0.4490
  564MOL0     C74321  10.971   4.961   2.806 -1.4472  0.7823 -0.1012
  564MOL0     C74322  10.851   5.002   2.858 -0.0402  0.0529  0.7709
  564MOL0     C74323  10.754   5.066   2.780 -1.2734  0.2588 -0.3288
  564MOL0     O74324  10.633   5.116   2.822  0.2756  0.5620  0.0085
  564MOL0     C74325  10.567   5.042   2.932 -0.4467 -0.2625  1.1683
  564MOL0     C74326  10.533   4.903   2.904  0.5099  0.7828 -0.0407
  564MOL0     C74327  10.426   4.893   2.790 -1.2533  0.1255  0.6537
  564MOL0     C74328  10.419   4.752   2.729  0.7503 -0.1315 -0.2089
  564MOL0     C74329  10.312   4.735   2.624 -0.4894 -0.2901  0.0853
  564MOL0     C74330  10.321   4.588   2.561 -0.3795  0.0846 -0.4013
  564MOL0     C74331  10.238   4.562   2.437  0.4254 -0.4675  0.8165
  564MOL0     C74332  10.288   4.642   2.308 -0.0955  1.1602 -0.0734
  564MOL0     N74333  10.205   4.625   2.188  0.3066 -0.3790  0.0964
  564MOL0     C74334  10.067   4.629   2.193  1.0794  0.7078  0.5824
  564MOL0     C74335  10.030   4.600   2.065 -0.2456  0.5539  0.0425
  564MOL0     C74336   9.894   4.575   2.001  0.6463 -0.6820  0.1077
  564MOL0     C74337   9.840   4.433   2.050  0.0588 -0.4307 -0.2676
  564MOL0     C74338   9.724   4.373   1.975  1.0498 -0.3630 -0.4285
  564MOL0     C74339   9.618   4.472   1.940  1.4337 -0.1857 -0.2188
  564MOL0     O74340   9.548   4.492   2.061  0.1050 -0.7107 -0.6148
  564MOL0     C74341   9.413   4.525   2.057 -0.0359 -0.3583  0.7532
  564MOL0     C74342   9.337   4.489   2.163 -0.6433  0.0631 -0.5398
  564MOL0     C74343   9.208   4.525   2.178  0.5598  0.5442 -0.2617
  564MOL0     C74344   9.127   4.588   2.080 -0.2208 -0.1109  0.0274
  564MOL0     C74345   8.996   4.644   2.102  0.0662 -0.4200 -0.2838
  564MOL0     O74346   8.950   4.621   2.232  0.9657 -0.2453  1.0267
  564MOL0     C74347   8.859   4.707   2.282  0.9980 -0.1880 -1.3302
  564MOL0     C74348   8.736   4.746   2.219  0.6487 -0.3621 -0.1688
  564MOL0     C74349   8.641   4.823   2.291  0.1705 -0.2241 -0.2701
  564MOL0     C74350   8.664   4.861   2.427  0.0012 -0.4332 -0.8458
  564MOL0     O74351   8.578   4.935   2.514 -0.0459 -0.3864 -0.0617
  564MOL0     C74352   8.462   4.972   2.439  0.0600 -0.5997 -1.2864
  564MOL0     C74353   8.370   5.067   2.519 -0.0328 -0.3542 -0.0399
  564MOL0     C74354   8.235   5.098   2.453  0.3983 -0.2056  0.4904
  564MOL0     C74355   8.143   5.176   2.540  0.0480 -0.1761  0.0915
  564MOL0     C74356   8.021   5.215   2.459  0.0719 -0.1214  1.1000
  564MOL0     C74357   7.920   5.289   2.545  0.2932  0.0295  0.3336
  564MOL0     C74358   7.785   5.287   2.470 -0.6425  0.3177 -0.3407
  564MOL0     C74359   7.773   5.375   2.342 -0.6737 -0.4267  0.0893
  564MOL0    Cl74360   7.600   5.425   2.313  0.0263  0.3507 -0.0766
  564MOL0     C74361   8.783   4.822   2.488  0.3807  0.2739  0.3588
  564MOL0     C74362   8.868   4.740   2.419  0.1763  0.0936 -0.1064
  564MOL0     O74363   8.957   4.734   2.021 -0.6998  0.1870 -0.4312
  564MOL0     C74364   9.206   4.621   1.966  0.0040  0.4449 -0.8928
  564MOL0     C74365   9.344   4.596   1.956  0.2470  0.6664  0.5904
  564MOL0     N74366  10.142   4.584   1.994 -0.5922 -0.4665 -0.3567
  564MOL0     N74367  10.249   4.617   2.062  0.3569  1.0406 -0.1779
  564MOL0     C74368  10.811   5.112   2.655  0.3313  0.3360 -0.4941
  564MOL0     C74369  10.932   5.068   2.595 -0.2103 -0.2740 -0.5814
  564MOL0     C74370  11.222   4.729   2.501  0.5940 -0.8663 -0.9510
  564MOL0     C74371  11.354   4.784   2.516 -0.3242 -0.2528  0.0387
  564MOL0     C74372  11.475   4.717   2.494  0.0902  1.1242 -0.4920
  564MOL0     C74373  11.466   4.580   2.451  0.4495  0.7822 -0.7426
  564MOL0     O74374  11.568   4.492   2.425 -0.9214  0.4623 -0.4863
  564MOL0     C74375  11.701   4.534   2.438 -0.1632  0.2946 -0.3868
  564MOL0     C74376  11.795   4.441   2.361 -0.2245  0.0372  1.0269
  564MOL0     C74377  11.934   4.482   2.376  0.1169  0.0205 -0.1804
  564MOL0     C74378  12.031   4.378   2.313  0.2532 -0.0959  0.5925
  564MOL0     C74379  12.159   4.448   2.322 -0.1121  0.9634 -0.7287
  564MOL0     C74380  12.264   4.498   2.355 -0.1497  0.1708  0.1480
  564MOL0     C74381  11.338   4.525   2.438 -0.7076 -0.5422  0.3214
  564MOL0     C74382  11.216   4.596   2.469 -0.8791  0.5125 -0.0630
  564MOL0     H74383  11.040   4.908   2.870 -1.4421  0.9462  0.0321
  564MOL0     H74384  10.824   5.000   2.963 -0.9657 -1.8955  0.5371
  564MOL0     H74385  10.472   5.097   2.941 -1.3482 -1.4667 -0.4906
  564MOL0     H74386  10.618   5.049   3.029  0.4834  0.2118  0.6521
  564MOL0     H74387  10.507   4.846   2.993  1.4898  0.4531  0.0466
  564MOL0     H74388  10.617   4.842   2.870 -0.1758 -0.0838 -0.2143
  564MOL0     H74389  10.447   4.957   2.704 -0.0388 -1.5684 -0.3728
  564MOL0     H74390  10.324   4.923   2.816 -1.1976  0.7805  0.1447
  564MOL0     H74391  10.511   4.730   2.674 -0.1196  0.4327 -1.9732
  564MOL0     H74392  10.404   4.677   2.807 -0.6268 -0.3823 -0.6956
  564MOL0     H74393  10.319   4.795   2.533 -2.7781  0.5763  0.4066
  564MOL0     H74394  10.211   4.752   2.663 -0.3395 -0.4376  0.5460
  564MOL0     H74395  10.293   4.519   2.640 -0.8470  2.5135  1.6967
  564MOL0     H74396  10.425   4.560   2.542  0.1305 -0.0180  2.1613
  564MOL0     H74397  10.236   4.454   2.418  2.2472 -0.4777  0.4954
  564MOL0     H74398  10.138   4.604   2.452  0.8899  0.8656  0.3055
  564MOL0     H74399  10.386   4.602   2.278 -0.7352  0.8792 -1.9126
  564MOL0     H74400  10.313   4.744   2.338 -0.8226  0.4663  3.2760
  564MOL0     H74401  10.005   4.656   2.278 -0.8654 -1.5109 -0.0284
  564MOL0     H74402   9.890   4.582   1.892 -1.3304  2.4622  0.2535
  564MOL0     H74403   9.827   4.653   2.038  0.8526  0.1020 -1.1206
  564MOL0     H74404   9.807   4.450   2.153  0.1120  3.9225 -0.7912
  564MOL0     H74405   9.926   4.366   2.042 -0.4467 -0.8407 -3.2460
  564MOL0     H74406   9.761   4.323   1.885  1.7797 -3.2870  1.3602
  564MOL0     H74407   9.675   4.302   2.042 -0.6948  1.7049  0.6323
  564MOL0     H74408   9.543   4.446   1.865  0.6357 -0.5846  0.6956
  564MOL0     H74409   9.645   4.573   1.910 -3.7406  2.1010  1.6680
  564MOL0     H74410   9.378   4.435   2.247  0.0646  1.1682 -0.1491
  564MOL0     H74411   9.163   4.485   2.268  1.8303  0.6786  0.4656
  564MOL0     H74412   8.722   4.713   2.117  0.5461 -0.6954 -0.0464
  564MOL0     H74413   8.550   4.845   2.236 -1.2683 -2.4896  0.9997
  564MOL0     H74414   8.405   4.880   2.423 -0.5598 -0.8936  1.8784
  564MOL0     H74415   8.484   5.034   2.351  0.4651  0.0316 -0.7507
  564MOL0     H74416   8.416   5.161   2.551  3.0279 -0.9458 -2.1989
  564MOL0     H74417   8.347   5.009   2.609 -2.4110 -1.1524 -1.0839
  564MOL0     H74418   8.187   5.003   2.432 -0.5292  0.6196 -1.3219
  564MOL0     H74419   8.245   5.158   2.362  1.2240  3.0536  2.5562
  564MOL0     H74420   8.127   5.117   2.630  2.9406 -2.0396 -0.4593
  564MOL0     H74421   8.197   5.267   2.568 -0.0604 -0.7689  2.3881
  564MOL0     H74422   7.979   5.124   2.415 -1.8792  0.1804  2.2203
  564MOL0     H74423   8.042   5.277   2.371 -2.5873  1.5393  1.5096
  564MOL0     H74424   7.960   5.389   2.565  1.1179  0.1164 -1.5945
  564MOL0     H74425   7.915   5.233   2.639  1.0651  0.9153  0.9282
  564MOL0     H74426   7.754   5.183   2.455  3.3672 -1.2009  0.8047
  564MOL0     H74427   7.710   5.324   2.541 -0.3470 -1.8984  1.2428
  564MOL0     H74428   7.814   5.320   2.256 -1.8563  2.0408 -2.1904
  564MOL0     H74429   7.836   5.460   2.369 -0.3934  0.0814 -1.9971
  564MOL0     H74430   8.806   4.852   2.589  1.0715  1.1125 -0.0355
  564MOL0     H74431   8.961   4.710   2.466 -0.0208  0.1924  0.3589
  564MOL0     H74432   9.156   4.678   1.888 -0.1637  1.8145  0.1738
  564MOL0     H74433   9.395   4.616   1.863  0.1685 -2.0744 -0.1367
  564MOL0     H74434  10.752   5.182   2.596 -0.8454  0.1630  0.4431
  564MOL0     H74435  10.967   5.096   2.497  0.3664  1.4078  0.0643
  564MOL0     H74436  11.348   4.886   2.553  0.5394 -0.1089 -0.2138
  564MOL0     H74437  11.564   4.777   2.509  1.8643 -1.8797  2.4854
  564MOL0     H74438  11.727   4.543   2.544 -2.2264  0.2149  0.1766
  564MOL0     H74439  11.706   4.638   2.407 -1.6854  0.8562  1.0968
  564MOL0     H74440  11.780   4.339   2.397 -3.2482 -0.0770 -0.2415
  564MOL0     H74441  11.767   4.447   2.255 -0.5434  0.8128  1.1475
  564MOL0     H74442  11.957   4.497   2.482  0.0644 -0.7468 -0.0515
  564MOL0     H74443  11.944   4.581   2.330 -3.3248  1.8448  2.5184
  564MOL0     H74444  12.041   4.280   2.361  2.9758  0.3027  0.9914
  564MOL0     H74445  11.998   4.363   2.210  0.8380 -1.7515  0.6170
  564MOL0     H74446  12.355   4.549   2.377  0.2745  0.5927 -2.2349
  564MOL0     H74447  11.347   4.426   2.394  1.1880  0.3260 -1.4521
  564MOL0     H74448  11.127   4.535   2.465 -0.5352 -0.0168 -4.2836
  565MOL0     O74449   0.436   2.460   7.491  0.2261 -0.4944  0.9554
  565MOL0     C74450   0.498   2.365   7.441  0.5048 -0.9128 -0.0610
  565MOL0     O74451   0.435   2.258   7.375 -0.5661  0.1992  0.1409
  565MOL0     C74452   0.302   2.252   7.365  0.1766 -0.2175 -0.4325
  565MOL0     C74453   0.220   2.362   7.351  0.0685  0.0026 -0.0559
  565MOL0     C74454   0.083   2.345   7.367  0.1564 -0.2434 -0.3284
  565MOL0     C74455   0.023   2.219   7.377 -0.1858  0.6324 -0.7645
  565MOL0     O74456  -0.116   2.216   7.386  0.2776  0.2289 -1.0951
  565MOL0     C74457  -0.161   2.118   7.301 -0.5781 -0.5258 -0.2152
  565MOL0     C74458  -0.308   2.127   7.260  0.0385 -0.0719  0.5672
  565MOL0     C74459  -0.419   2.100   7.359  0.0966 -0.2783 -0.1144
  565MOL0     C74460  -0.543   2.059   7.280  0.3324 -0.1495  0.3237
  565MOL0     C74461  -0.668   2.030   7.365 -0.3728 -0.3028 -0.0142
  565MOL0     C74462  -0.767   1.950   7.276 -0.1388 -0.2282  0.1192
  565MOL0     C74463  -0.891   1.916   7.361 -0.0010 -0.2165 -0.1124
  565MOL0     C74464  -0.995   1.826   7.299  0.2609  0.1709  0.0417
  565MOL0     N74465  -1.101   1.905   7.226  0.7937 -0.2186 -0.5722
  565MOL0     C74466  -1.228   1.930   7.286 -0.2722  0.2773  0.8292
  565MOL0     C74467  -1.299   1.987   7.186 -1.1146  0.0841 -0.1958
  565MOL0     C74468  -1.436   2.028   7.192  0.3096 -0.3667  0.0286
  565MOL0     C74469  -1.544   1.922   7.151 -0.1281  0.4056 -0.2809
  565MOL0     C74470  -1.564   1.926   7.006 -0.3365  0.5124 -0.2086
  565MOL0     C74471  -1.688   1.844   6.955 -0.5372 -0.4638 -0.5801
  565MOL0     O74472  -1.814   1.893   6.998  0.1674 -0.0653  0.3897
  565MOL0     C74473  -1.922   1.821   6.950 -0.1430 -0.2250 -0.2009
  565MOL0     C74474  -2.040   1.875   6.987  0.1399  0.0535  0.2662
  565MOL0     C74475  -2.161   1.814   6.964 -0.0816 -0.0497  0.0571
  565MOL0     C74476  -2.169   1.694   6.885  0.6395 -0.1096  0.2940
  565MOL0     C74477  -2.298   1.641   6.848  0.0015 -0.2262 -1.0130
  565MOL0     O74478  -2.406   1.723   6.854  0.0755 -0.1233  0.0536
  565MOL0     C74479  -2.535   1.679   6.821  0.0528 -0.0530 -0.6976
  565MOL0     C74480  -2.591   1.548   6.835 -0.1562 -0.1359  0.0378
  565MOL0     C74481  -2.731   1.522   6.824 -0.7314 -0.2313  0.0314
  565MOL0     C74482  -2.814   1.631   6.807 -0.3789  1.2652  0.1752
  565MOL0     O74483  -2.943   1.606   6.804 -0.0705  0.7443  0.0594
  565MOL0     C74484  -3.029   1.709   6.760  0.1716  0.1481  0.6839
  565MOL0     C74485  -3.163   1.637   6.733  0.2356 -0.8784 -0.6397
  565MOL0     C74486  -3.254   1.739   6.679  0.4381  0.0150  1.6047
  565MOL0     C74487  -3.406   1.692   6.686 -0.1740 -0.2347 -0.6438
  565MOL0     C74488  -3.494   1.787   6.609 -0.3140 -0.1094  0.1379
  565MOL0     C74489  -3.639   1.761   6.637  0.0862 -0.0410  0.4561
  565MOL0     C74490  -3.735   1.874   6.579 -1.1561  0.4289  0.6688
  565MOL0     C74491  -3.885   1.861   6.605 -0.6172  0.2804  0.4479
  565MOL0    Cl74492  -3.950   2.020   6.569 -0.4089  0.1742  0.2186
  565MOL0     C74493  -2.760   1.758   6.787  0.4814  0.4875 -0.0821
  565MOL0     C74494  -2.626   1.783   6.795  0.1870  0.3025  0.7977
  565MOL0     O74495  -2.300   1.538   6.794 -0.6023 -0.5174 -0.4557
  565MOL0     C74496  -2.046   1.639   6.849 -0.3487 -0.0999 -0.7297
  565MOL0     C74497  -1.925   1.701   6.868 -0.3605 -0.5155  0.6206
  565MOL0     N74498  -1.223   1.983   7.077 -0.0624 -0.3599 -0.0505
  565MOL0     N74499  -1.108   1.934   7.098 -0.2035 -0.9259  0.3674
  565MOL0     C74500   0.110   2.102   7.384  0.0071  0.5824  1.5200
  565MOL0     C74501   0.250   2.126   7.389 -0.5751  0.7734 -0.1576
  565MOL0     C74502   0.646   2.353   7.453 -0.4364  0.9000 -0.7893
  565MOL0     C74503   0.707   2.430   7.554  0.2796 -0.3759  0.3895
  565MOL0     C74504   0.843   2.405   7.571  0.6865  0.2247 -0.1295
  565MOL0     C74505   0.912   2.311   7.500 -0.7372  0.3010 -0.5305
  565MOL0     O74506   1.043   2.314   7.527  0.5130  0.0272  0.3582
  565MOL0     C74507   1.140   2.230   7.457 -0.7792  0.3667  0.1244
  565MOL0     C74508   1.284   2.264   7.504 -0.8168 -0.4963 -0.2755
  565MOL0     C74509   1.394   2.165   7.448 -0.5593 -0.8734 -0.3327
  565MOL0     C74510   1.441   2.205   7.307  0.3731  0.3511 -0.3192
  565MOL0     C74511   1.327   2.192   7.207 -0.0398  0.2436 -0.3103
  565MOL0     C74512   1.245   2.176   7.117  0.7204  0.4028 -0.1132
  565MOL0     C74513   0.852   2.243   7.396  0.3694  0.1835 -0.3058
  565MOL0     C74514   0.720   2.266   7.370  0.9384  0.2580  0.5836
  565MOL0     H74515   0.259   2.460   7.327  0.1287  0.2317  0.9620
  565MOL0     H74516   0.021   2.434   7.361 -1.3554 -1.3371 -2.5008
  565MOL0     H74517  -0.135   2.021   7.342  2.0559 -0.6680 -1.9988
  565MOL0     H74518  -0.111   2.132   7.205 -1.8620 -0.7878 -0.9452
  565MOL0     H74519  -0.316   2.059   7.175  0.3674  0.0525  0.4352
  565MOL0     H74520  -0.315   2.223   7.210 -0.6685  1.4324  3.3356
  565MOL0     H74521  -0.440   2.180   7.431  0.7507 -0.7675  0.6317
  565MOL0     H74522  -0.399   2.006   7.411  1.0744 -1.0927 -1.8733
  565MOL0     H74523  -0.564   2.144   7.215  1.2261 -0.0548  0.1513
  565MOL0     H74524  -0.524   1.972   7.218  1.4090  2.4572 -3.3239
  565MOL0     H74525  -0.718   2.122   7.398 -0.6956 -1.0409  1.6810
  565MOL0     H74526  -0.639   1.969   7.451  0.4845  1.8757  1.3018
  565MOL0     H74527  -0.718   1.858   7.244 -1.4167 -0.2628 -1.9573
  565MOL0     H74528  -0.806   1.994   7.184 -0.3469 -2.8167 -1.1195
  565MOL0     H74529  -0.862   1.863   7.453  3.8756 -0.1479 -1.1137
  565MOL0     H74530  -0.940   2.011   7.383 -2.7226 -1.3142 -0.9810
  565MOL0     H74531  -1.050   1.759   7.367 -1.0033  1.1054 -0.0333
  565MOL0     H74532  -0.950   1.766   7.219  0.4840  1.2242 -0.6417
  565MOL0     H74533  -1.266   1.901   7.384 -2.0129  1.0331  0.4258
  565MOL0     H74534  -1.443   2.118   7.130 -2.1642 -1.3925 -1.3269
  565MOL0     H74535  -1.459   2.062   7.293 -0.8973  1.0557 -0.6907
  565MOL0     H74536  -1.635   1.943   7.208 -0.9195 -3.5027  0.1825
  565MOL0     H74537  -1.508   1.826   7.188 -2.4340  0.4675  2.5068
  565MOL0     H74538  -1.576   2.027   6.965 -1.3298  0.0904 -1.0129
  565MOL0     H74539  -1.473   1.884   6.963 -1.6667 -1.8854 -0.8375
  565MOL0     H74540  -1.671   1.738   6.974 -1.1076 -0.6312 -0.9829
  565MOL0     H74541  -1.681   1.839   6.846 -0.8872 -1.3963 -0.5718
  565MOL0     H74542  -2.037   1.964   7.049  0.9394 -1.2607  2.2160
  565MOL0     H74543  -2.250   1.869   6.994  1.5144  3.2544 -0.8552
  565MOL0     H74544  -2.535   1.457   6.855 -2.2790 -1.6044 -0.3302
  565MOL0     H74545  -2.763   1.418   6.829  3.1385 -1.5280  2.6192
  565MOL0     H74546  -3.001   1.758   6.667 -2.6092 -0.3233 -0.5031
  565MOL0     H74547  -3.039   1.784   6.839 -1.9255  0.6210  0.0514
  565MOL0     H74548  -3.200   1.595   6.826  2.6740 -0.1146  0.7667
  565MOL0     H74549  -3.142   1.559   6.659 -0.0677 -2.1980  0.6417
  565MOL0     H74550  -3.240   1.753   6.572  0.0107  2.7095  1.8199
  565MOL0     H74551  -3.245   1.837   6.726  0.8397 -0.1263  1.8289
  565MOL0     H74552  -3.413   1.589   6.650 -2.3866 -0.0235 -0.9553
  565MOL0     H74553  -3.433   1.692   6.792  0.2550  0.8590 -0.5196
  565MOL0     H74554  -3.462   1.768   6.506 -2.4919 -1.6098 -0.3204
  565MOL0     H74555  -3.470   1.890   6.639  0.2875 -0.8342  2.3855
  565MOL0     H74556  -3.656   1.743   6.744  0.0224 -2.7281  0.0760
  565MOL0     H74557  -3.681   1.669   6.593 -0.7457  0.4211  0.2622
  565MOL0     H74558  -3.705   1.970   6.623  3.2493 -0.4529  0.0635
  565MOL0     H74559  -3.711   1.872   6.472  2.7145  1.2989  1.3534
  565MOL0     H74560  -3.904   1.832   6.708 -1.8348 -5.3478 -1.0001
  565MOL0     H74561  -3.923   1.777   6.546  4.1048 -2.0192  0.1771
  565MOL0     H74562  -2.836   1.834   6.768  0.1751  0.6498  1.6362
  565MOL0     H74563  -2.571   1.877   6.784  0.0154  0.2288 -1.0054
  565MOL0     H74564  -2.051   1.549   6.789  0.3843 -0.1338 -0.7394
  565MOL0     H74565  -1.836   1.657   6.824 -0.6863 -1.3700  0.7798
  565MOL0     H74566   0.073   2.000   7.394  1.4883  0.0028  1.4458
  565MOL0     H74567   0.325   2.049   7.395 -2.8004 -1.6330 -1.2178
  565MOL0     H74568   0.647   2.502   7.609  0.3367  1.1496 -1.4527
  565MOL0     H74569   0.895   2.456   7.651  1.1644  0.2706 -0.4649
  565MOL0     H74570   1.133   2.251   7.350  0.6751 -0.2599 -0.1219
  565MOL0     H74571   1.116   2.124   7.465 -1.4963  0.6233  1.9182
  565MOL0     H74572   1.325   2.361   7.476 -1.2160  0.7449  3.0104
  565MOL0     H74573   1.281   2.270   7.613  0.8950 -0.1603 -0.2236
  565MOL0     H74574   1.350   2.066   7.433  1.3114 -1.4880 -2.4270
  565MOL0     H74575   1.477   2.160   7.518 -1.7558 -3.0837  1.0439
  565MOL0     H74576   1.480   2.307   7.301 -0.3763  0.6258 -0.7137
  565MOL0     H74577   1.527   2.144   7.278 -0.4444 -0.4332 -1.1365
  565MOL0     H74578   1.190   2.147   7.029  2.7560  0.5611 -1.5052
  565MOL0     H74579   0.910   2.186   7.324 -0.7358 -0.7137 -0.5164
  565MOL0     H74580   0.662   2.224   7.288 -0.7930 -1.4270  2.5795
  566MOL0     O74581   4.163   5.674   7.692  0.1466  0.6188 -0.2487
  566MOL0     C74582   4.231   5.698   7.594  0.4174 -0.4590  0.0038
  566MOL0     O74583   4.187   5.752   7.475 -0.2893 -0.3419  0.6785
  566MOL0     C74584   4.064   5.804   7.453  0.1927 -1.0774  0.1576
  566MOL0     C74585   4.045   5.892   7.354 -0.2246  0.4013  0.8366
  566MOL0     C74586   3.915   5.952   7.335  0.0582  0.1461  0.5980
  566MOL0     C74587   3.811   5.924   7.423  0.1233  0.5657 -0.1743
  566MOL0     O74588   3.687   5.972   7.427 -0.2754  0.1577  0.8296
  566MOL0     C74589   3.655   6.084   7.337  0.4968  0.1121 -0.7530
  566MOL0     C74590   3.500   6.098   7.359  0.0690  0.6348  0.6167
  566MOL0     C74591   3.444   6.181   7.240  0.1102  0.1789  0.5221
  566MOL0     C74592   3.295   6.172   7.255 -0.4454  0.1695  0.3583
  566MOL0     C74593   3.214   6.257   7.151 -0.3105  0.1121 -0.2414
  566MOL0     C74594   3.071   6.261   7.196 -0.6558 -0.3957 -0.0399
  566MOL0     C74595   2.993   6.334   7.090 -0.2788 -0.1788  0.2337
  566MOL0     C74596   2.848   6.347   7.132  0.4017 -0.3570  0.0880
  566MOL0     N74597   2.755   6.329   7.020  0.1528  0.0126  0.2846
  566MOL0     C74598   2.743   6.416   6.911 -0.1716  0.1456  0.2006
  566MOL0     C74599   2.650   6.360   6.827 -0.2337  0.0512  0.5808
  566MOL0     C74600   2.583   6.419   6.704 -0.7222  0.2133 -0.5231
  566MOL0     C74601   2.436   6.463   6.720  0.3788 -0.3228 -0.3801
  566MOL0     C74602   2.327   6.380   6.654  0.1500  0.7687  0.6113
  566MOL0     C74603   2.290   6.263   6.739 -0.4198 -0.5443  0.7330
  566MOL0     O74604   2.219   6.302   6.860 -0.4300 -0.0695  0.8202
  566MOL0     C74605   2.081   6.310   6.856  0.7323 -0.4257  0.6683
  566MOL0     C74606   2.011   6.319   6.978  0.5120  0.4172  0.3669
  566MOL0     C74607   1.872   6.332   6.970 -0.2144 -0.4343 -0.8269
  566MOL0     C74608   1.798   6.325   6.853 -0.2910 -0.6586 -0.2007
  566MOL0     C74609   1.652   6.308   6.856 -1.3174 -0.3632  0.0778
  566MOL0     O74610   1.596   6.267   6.738  0.0935  0.6883 -0.3074
  566MOL0     C74611   1.463   6.268   6.724  0.0093 -0.0446  0.5779
  566MOL0     C74612   1.398   6.389   6.740  0.4851 -0.1183  0.0653
  566MOL0     C74613   1.261   6.401   6.712 -0.0546 -0.7359 -0.1301
  566MOL0     C74614   1.180   6.300   6.672 -0.5180  0.5612 -0.9247
  566MOL0     O74615   1.047   6.322   6.658  0.5087  0.7016 -0.6339
  566MOL0     C74616   0.957   6.212   6.655  1.1081  1.1496 -0.0412
  566MOL0     C74617   0.821   6.241   6.712  0.3825  0.6370 -0.2213
  566MOL0     C74618   0.721   6.311   6.622  0.3720 -0.5832  0.2988
  566MOL0     C74619   0.592   6.328   6.712  0.4805 -0.8170  0.3829
  566MOL0     C74620   0.482   6.394   6.631  0.1933 -0.0908  0.1566
  566MOL0     C74621   0.342   6.399   6.702  0.1214  0.0174  0.6570
  566MOL0     C74622   0.239   6.481   6.616 -0.2188  0.1203 -0.0516
  566MOL0     C74623   0.095   6.467   6.676 -0.5667 -0.1736 -0.6268
  566MOL0    Cl74624   0.008   6.332   6.578  0.3345 -0.3145  0.0412
  566MOL0     C74625   1.249   6.171   6.661  0.0889 -0.5958  0.3089
  566MOL0     C74626   1.389   6.157   6.677  0.4665  0.2099  0.0078
  566MOL0     O74627   1.592   6.337   6.956 -0.0957  0.2568 -0.0925
  566MOL0     C74628   1.871   6.318   6.730  0.0390  0.4933 -0.1447
  566MOL0     C74629   2.015   6.310   6.736  0.7324  0.8097 -0.1735
  566MOL0     N74630   2.614   6.234   6.882  0.4434 -0.3798  0.2231
  566MOL0     N74631   2.676   6.215   7.003  0.3894  0.0212  0.0481
  566MOL0     C74632   3.832   5.843   7.533 -0.0020 -0.4442  0.7257
  566MOL0     C74633   3.956   5.768   7.533  0.2864 -0.6899 -0.1882
  566MOL0     C74634   4.367   5.648   7.597  0.3066  0.3337 -0.1139
  566MOL0     C74635   4.435   5.597   7.488 -0.1159  0.3678 -0.2027
  566MOL0     C74636   4.571   5.555   7.505 -0.1367  0.3290 -0.6634
  566MOL0     C74637   4.641   5.572   7.625 -0.3031  0.0704  0.5734
  566MOL0     O74638   4.768   5.534   7.639 -0.0898  0.3455  0.2008
  566MOL0     C74639   4.855   5.645   7.673  0.0431  0.4062  0.9715
  566MOL0     C74640   5.001   5.617   7.653 -0.1544  0.6508  0.0229
  566MOL0     C74641   5.027   5.564   7.512 -0.3945  0.1911 -0.4214
  566MOL0     C74642   5.184   5.539   7.484 -0.1376  0.5230 -0.5283
  566MOL0     C74643   5.232   5.408   7.540 -0.6003 -0.9024  0.1835
  566MOL0     C74644   5.267   5.297   7.582 -0.5260  0.4196  0.1183
  566MOL0     C74645   4.571   5.636   7.733 -0.8151  0.3213  0.0085
  566MOL0     C74646   4.439   5.666   7.716 -0.1698  0.0804 -0.9377
  566MOL0     H74647   4.131   5.911   7.291 -1.0379 -2.1891 -1.2653
  566MOL0     H74648   3.900   6.011   7.245  1.4660  1.1985  1.0187
  566MOL0     H74649   3.673   6.056   7.233 -1.1893 -0.6820 -0.8689
  566MOL0     H74650   3.700   6.177   7.372  0.1969 -0.1010  0.2360
  566MOL0     H74651   3.473   6.147   7.453  2.2599  2.2942  0.4300
  566MOL0     H74652   3.464   5.995   7.368  2.0537  0.0349  2.6213
  566MOL0     H74653   3.477   6.131   7.148 -1.4369  0.8957 -0.4682
  566MOL0     H74654   3.477   6.285   7.237 -1.6340  0.7530 -0.0106
  566MOL0     H74655   3.274   6.066   7.237  2.3815 -0.1154 -1.9993
  566MOL0     H74656   3.261   6.215   7.349 -0.3537 -1.6366  1.2582
  566MOL0     H74657   3.221   6.205   7.055 -0.0537 -1.8269  0.7775
  566MOL0     H74658   3.250   6.360   7.140 -0.8463  0.2418 -0.8204
  566MOL0     H74659   3.072   6.313   7.292  0.6521 -1.3458  0.4889
  566MOL0     H74660   3.042   6.158   7.215  2.0905 -0.6354  4.1778
  566MOL0     H74661   3.042   6.431   7.076 -2.8495  1.6036  2.6110
  566MOL0     H74662   2.994   6.263   7.006 -2.0039 -0.1229  0.1247
  566MOL0     H74663   2.833   6.443   7.184  1.0045 -1.1934  1.9033
  566MOL0     H74664   2.831   6.265   7.202 -0.3703  1.2711  1.9282
  566MOL0     H74665   2.788   6.515   6.916 -2.7228  1.3508  1.5204
  566MOL0     H74666   2.585   6.341   6.627  0.5406  0.8364 -1.1365
  566MOL0     H74667   2.647   6.502   6.674  3.1990 -1.6309  1.9729
  566MOL0     H74668   2.438   6.567   6.686  0.6879 -0.6313 -1.3371
  566MOL0     H74669   2.395   6.479   6.820 -1.0866  0.6687 -1.1171
  566MOL0     H74670   2.243   6.444   6.626 -0.9134  0.0382  1.9837
  566MOL0     H74671   2.362   6.330   6.563 -3.1726 -0.5665 -0.0837
  566MOL0     H74672   2.382   6.203   6.745  0.0422 -0.4290 -2.8271
  566MOL0     H74673   2.241   6.187   6.676  2.5157 -0.8605 -1.3735
  566MOL0     H74674   2.065   6.325   7.073  1.1009 -3.9939  0.5171
  566MOL0     H74675   1.814   6.332   7.062 -0.6722 -0.0787 -1.1134
  566MOL0     H74676   1.459   6.473   6.771 -0.4535  0.2288  1.0602
  566MOL0     H74677   1.210   6.496   6.721 -1.9557 -1.4063 -2.6344
  566MOL0     H74678   0.999   6.128   6.710  0.1579 -0.0902 -1.1500
  566MOL0     H74679   0.947   6.180   6.552  3.2656  0.9802 -0.2313
  566MOL0     H74680   0.844   6.300   6.801  0.5642  0.3593 -0.0832
  566MOL0     H74681   0.776   6.147   6.743 -0.2392  0.8735 -0.3899
  566MOL0     H74682   0.698   6.247   6.537 -0.8876 -2.2953  1.8446
  566MOL0     H74683   0.752   6.409   6.584 -3.1011  1.4254  2.1017
  566MOL0     H74684   0.562   6.230   6.749  1.1921 -0.8856  0.7961
  566MOL0     H74685   0.611   6.387   6.802  2.7357  0.3527 -0.7475
  566MOL0     H74686   0.463   6.339   6.539  0.9478 -2.1983  1.1985
  566MOL0     H74687   0.512   6.497   6.612 -2.3654  1.4689  3.5056
  566MOL0     H74688   0.363   6.462   6.789  1.1873  0.4052  0.1403
  566MOL0     H74689   0.315   6.297   6.730  0.4771 -0.4803 -0.7467
  566MOL0     H74690   0.262   6.587   6.621 -2.2027  0.7183 -1.9666
  566MOL0     H74691   0.239   6.453   6.510  1.3915  0.9556 -0.3027
  566MOL0     H74692   0.041   6.561   6.670 -1.3414 -0.3659  2.0559
  566MOL0     H74693   0.100   6.451   6.784 -1.4386  2.1058 -0.2039
  566MOL0     H74694   1.199   6.080   6.630 -1.7178  0.2791  0.5351
  566MOL0     H74695   1.441   6.063   6.661  1.4061  0.5518  0.9202
  566MOL0     H74696   1.823   6.297   6.636 -0.8773 -2.5138  0.8833
  566MOL0     H74697   2.077   6.305   6.647 -1.1875  0.5204 -1.5556
  566MOL0     H74698   3.751   5.832   7.604  1.6185  1.1297  2.9811
  566MOL0     H74699   3.960   5.705   7.621  1.4080  0.7851  0.8534
  566MOL0     H74700   4.390   5.564   7.395 -1.4007 -0.9948  0.8513
  566MOL0     H74701   4.618   5.526   7.411 -2.8388  1.5091 -2.5263
  566MOL0     H74702   4.838   5.678   7.776 -1.1769  1.2946  0.5077
  566MOL0     H74703   4.843   5.724   7.598 -0.1729 -2.2326 -1.9485
  566MOL0     H74704   5.057   5.711   7.656  0.6480  0.1739  0.4928
  566MOL0     H74705   5.040   5.545   7.725  0.3673  2.6937  1.9139
  566MOL0     H74706   4.991   5.638   7.440 -2.1024  0.4699  0.6679
  566MOL0     H74707   4.973   5.469   7.505  1.1101 -0.6838 -0.5988
  566MOL0     H74708   5.209   5.541   7.378  0.6626 -2.6878 -0.5063
  566MOL0     H74709   5.237   5.625   7.525  0.0849  0.7289 -1.2334
  566MOL0     H74710   5.284   5.196   7.613  0.5662  1.1063  1.8385
  566MOL0     H74711   4.628   5.648   7.825  2.2547 -1.2904 -1.5221
  566MOL0     H74712   4.389   5.713   7.800 -2.2237 -1.5071 -1.2168
  567MOL0     O74713   1.919   3.425   3.441 -1.1492 -0.1838 -0.0026
  567MOL0     C74714   1.888   3.335   3.512  0.2981  0.4561 -0.3564
  567MOL0     O74715   1.962   3.287   3.614  0.0771 -0.4968  0.4176
  567MOL0     C74716   2.078   3.348   3.653 -0.3912 -0.1180 -0.1266
  567MOL0     C74717   2.181   3.384   3.565  1.0770  0.1298  0.3145
  567MOL0     C74718   2.302   3.434   3.614 -0.1032  0.6578 -0.3356
  567MOL0     C74719   2.319   3.454   3.756 -0.1347 -0.5840  0.6367
  567MOL0     O74720   2.416   3.511   3.827 -0.6200 -0.2550 -0.1491
  567MOL0     C74721   2.543   3.501   3.772 -0.2836 -0.3574 -0.8297
  567MOL0     C74722   2.642   3.488   3.893  0.3715  0.9885 -0.7791
  567MOL0     C74723   2.597   3.367   3.986 -0.3462 -0.3820 -0.7717
  567MOL0     C74724   2.635   3.399   4.130  0.7740 -0.5538  0.7540
  567MOL0     C74725   2.601   3.288   4.234  0.2596  0.1438 -0.1782
  567MOL0     C74726   2.458   3.229   4.224 -0.4976 -0.0633 -0.5222
  567MOL0     C74727   2.345   3.325   4.210  0.1453 -1.0951 -0.3566
  567MOL0     C74728   2.216   3.263   4.169  0.4574  0.4708  0.0640
  567MOL0     N74729   2.209   3.126   4.223  0.1298  0.3460 -0.3464
  567MOL0     C74730   2.190   3.088   4.353  0.9311  1.5751 -0.6281
  567MOL0     C74731   2.177   2.955   4.350  0.0470 -0.8710  0.7432
  567MOL0     C74732   2.148   2.867   4.467 -0.5924 -0.1271  0.1413
  567MOL0     C74733   2.143   2.723   4.423  0.3621  0.3414 -0.8084
  567MOL0     C74734   2.104   2.628   4.531 -1.2469  0.0904  0.3648
  567MOL0     C74735   1.970   2.643   4.611  0.2214 -0.3834 -0.3928
  567MOL0     O74736   1.868   2.638   4.512  0.3329  0.6083 -0.4407
  567MOL0     C74737   1.736   2.654   4.549 -0.2599 -0.2101 -0.7022
  567MOL0     C74738   1.696   2.700   4.678  1.0527 -0.2860 -0.3603
  567MOL0     C74739   1.563   2.706   4.706  0.7297  0.0796 -0.4730
  567MOL0     C74740   1.459   2.706   4.610  0.7692  0.7062  0.6869
  567MOL0     C74741   1.317   2.741   4.645 -0.2397  0.2625 -0.5801
  567MOL0     O74742   1.219   2.708   4.553 -0.9943  0.0117  0.3566
  567MOL0     C74743   1.093   2.743   4.567  0.3408 -0.3306 -0.0922
  567MOL0     C74744   1.051   2.872   4.537  0.2314 -0.1355 -0.5329
  567MOL0     C74745   0.923   2.929   4.586 -0.2565 -0.5238  1.7118
  567MOL0     C74746   0.833   2.832   4.645 -0.3246  0.2872  0.0684
  567MOL0     O74747   0.702   2.859   4.688  0.0439  0.4568  0.0297
  567MOL0     C74748   0.654   3.001   4.700 -0.9585  1.0916  0.5908
  567MOL0     C74749   0.504   2.989   4.720  1.0164 -0.7633 -0.0290
  567MOL0     C74750   0.413   2.926   4.613  0.5460  0.4561 -0.4479
  567MOL0     C74751   0.453   2.962   4.469 -0.3392  0.1017  0.0699
  567MOL0     C74752   0.362   2.891   4.372 -0.5171 -0.0326  0.3449
  567MOL0     C74753   0.381   2.936   4.224 -0.6194  0.5274  0.6534
  567MOL0     C74754   0.315   2.840   4.124  0.0011  0.6468 -0.4351
  567MOL0     C74755   0.180   2.875   4.088 -0.1288  0.1341  0.2849
  567MOL0    Cl74756   0.186   3.011   3.971  0.0765  0.1545  0.0164
  567MOL0     C74757   0.877   2.701   4.663 -0.3351 -0.5712 -0.1868
  567MOL0     C74758   1.005   2.654   4.623  0.1109  0.4399  0.1639
  567MOL0     O74759   1.297   2.820   4.739 -0.1236  0.7259  0.4836
  567MOL0     C74760   1.499   2.671   4.481 -0.3621 -0.6755 -0.6582
  567MOL0     C74761   1.632   2.646   4.457 -0.1096 -0.2213 -0.5863
  567MOL0     N74762   2.191   2.911   4.220 -0.0452 -0.2526 -0.4223
  567MOL0     N74763   2.209   3.014   4.146  0.4179  0.0597  0.4830
  567MOL0     C74764   2.207   3.433   3.834 -0.0768 -0.0264 -0.8490
  567MOL0     C74765   2.093   3.373   3.788  0.2635 -0.4755  0.1272
  567MOL0     C74766   1.755   3.281   3.470  0.8696 -0.3873  0.3051
  567MOL0     C74767   1.695   3.320   3.348 -0.4445 -0.4565  0.1261
  567MOL0     C74768   1.568   3.283   3.325  0.4266 -0.7441  0.8027
  567MOL0     C74769   1.493   3.216   3.415  0.7941  0.1763  0.7343
  567MOL0     O74770   1.363   3.184   3.374  0.0525 -0.2581 -0.4466
  567MOL0     C74771   1.272   3.130   3.470 -0.2655 -0.5047  1.2261
  567MOL0     C74772   1.144   3.091   3.388  0.3536 -0.5914  0.5057
  567MOL0     C74773   1.073   3.212   3.348 -0.1163  0.4271 -0.2058
  567MOL0     C74774   0.935   3.183   3.290 -0.5218  1.0160  0.6637
  567MOL0     C74775   0.848   3.301   3.303 -0.3545 -0.5094  0.0621
  567MOL0     C74776   0.777   3.388   3.346 -0.1566  0.7862  0.9051
  567MOL0     C74777   1.554   3.166   3.537 -0.3669  0.0122  0.4465
  567MOL0     C74778   1.678   3.203   3.567 -0.0500  0.1071  0.4410
  567MOL0     H74779   2.185   3.357   3.460  0.5197 -0.2203  0.3791
  567MOL0     H74780   2.386   3.435   3.546 -1.8075 -0.6335 -2.6035
  567MOL0     H74781   2.552   3.591   3.710 -0.5151  0.6633  0.5710
  567MOL0     H74782   2.563   3.408   3.717  1.0553 -1.3346  1.1852
  567MOL0     H74783   2.631   3.578   3.954  1.0380  0.0191  0.8403
  567MOL0     H74784   2.746   3.481   3.861  0.9416 -0.2795  1.1342
  567MOL0     H74785   2.642   3.274   3.951  2.2481  0.1580  0.8408
  567MOL0     H74786   2.489   3.348   3.979 -0.3465 -0.5874 -0.2248
  567MOL0     H74787   2.739   3.428   4.144  0.6849  0.7414 -0.9621
  567MOL0     H74788   2.585   3.493   4.153  1.9944  0.1859  0.4377
  567MOL0     H74789   2.621   3.330   4.333 -0.4101  0.1344 -0.0320
  567MOL0     H74790   2.676   3.210   4.217  0.3402  0.6995 -2.9943
  567MOL0     H74791   2.447   3.164   4.311  0.5090  0.5081  0.0529
  567MOL0     H74792   2.461   3.167   4.134 -0.9690 -0.5123 -0.2358
  567MOL0     H74793   2.327   3.368   4.309  0.2096  2.2861 -1.6823
  567MOL0     H74794   2.365   3.405   4.139  1.1330  0.1400  1.2380
  567MOL0     H74795   2.206   3.269   4.060 -0.2565 -1.6186 -0.0216
  567MOL0     H74796   2.132   3.315   4.216  2.2270  0.3915  3.6366
  567MOL0     H74797   2.184   3.153   4.440 -0.1656  2.1394 -1.1017
  567MOL0     H74798   2.056   2.903   4.513  0.6892  1.4592  1.5818
  567MOL0     H74799   2.221   2.863   4.549  0.3564 -2.9495 -0.7121
  567MOL0     H74800   2.247   2.701   4.395  0.8126  0.8110  0.4077
  567MOL0     H74801   2.076   2.716   4.337 -1.2595 -2.3459  0.5215
  567MOL0     H74802   2.096   2.530   4.483 -3.1977  0.6742 -0.6087
  567MOL0     H74803   2.182   2.608   4.606 -3.5650 -4.0878  2.0061
  567MOL0     H74804   1.973   2.732   4.674 -0.2885 -1.9932  2.0060
  567MOL0     H74805   1.945   2.567   4.685 -1.3583  2.2855  2.0329
  567MOL0     H74806   1.768   2.717   4.757  1.5832 -2.1031 -0.3992
  567MOL0     H74807   1.524   2.710   4.807  2.0766 -2.1204  0.1892
  567MOL0     H74808   1.111   2.934   4.471  0.6780 -1.8272 -1.7675
  567MOL0     H74809   0.897   3.032   4.565  0.0799 -0.6298  0.7243
  567MOL0     H74810   0.677   3.071   4.619 -0.1728  0.1878  0.0150
  567MOL0     H74811   0.705   3.044   4.787 -0.0225  1.5815 -0.1824
  567MOL0     H74812   0.473   3.094   4.723  0.9235 -0.7879  3.2157
  567MOL0     H74813   0.478   2.946   4.817 -0.2376 -0.9687 -0.4466
  567MOL0     H74814   0.306   2.928   4.633  0.1158  2.6171 -2.4447
  567MOL0     H74815   0.437   2.820   4.621  1.8963  0.8927  2.1312
  567MOL0     H74816   0.426   3.067   4.456  1.0078  0.3196 -1.1842
  567MOL0     H74817   0.557   2.937   4.448 -0.8817 -0.4708 -2.2052
  567MOL0     H74818   0.258   2.892   4.405 -1.1098 -3.3363 -1.0276
  567MOL0     H74819   0.388   2.785   4.374  0.0556  0.1192  1.6858
  567MOL0     H74820   0.489   2.933   4.204 -0.4794 -3.0206  1.4231
  567MOL0     H74821   0.348   3.037   4.198 -0.2844  0.0958 -1.6390
  567MOL0     H74822   0.382   2.818   4.041 -1.9240 -3.4164 -1.1316
  567MOL0     H74823   0.307   2.741   4.169 -3.6935  0.2629 -1.5788
  567MOL0     H74824   0.113   2.891   4.173  0.2787  1.0261  0.4515
  567MOL0     H74825   0.137   2.788   4.037  1.6689  0.6829 -2.3898
  567MOL0     H74826   0.811   2.631   4.715  0.4215  1.4848  4.0213
  567MOL0     H74827   1.048   2.561   4.658  1.4453  1.3074  0.9342
  567MOL0     H74828   1.429   2.656   4.399 -1.3724  1.4855 -0.2598
  567MOL0     H74829   1.653   2.623   4.353  1.5208  1.2005 -0.6087
  567MOL0     H74830   2.219   3.461   3.939 -1.8106 -0.5541 -0.4707
  567MOL0     H74831   2.027   3.349   3.870 -1.5210  0.6814 -0.8882
  567MOL0     H74832   1.734   3.380   3.266 -1.1045  1.5918  1.2584
  567MOL0     H74833   1.517   3.317   3.235  2.2958  1.3266  0.4297
  567MOL0     H74834   1.251   3.200   3.552 -1.9465 -1.7482  1.9217
  567MOL0     H74835   1.314   3.038   3.512 -0.6982 -0.6280  1.3883
  567MOL0     H74836   1.186   3.036   3.304 -1.6755  1.3666 -1.9412
  567MOL0     H74837   1.090   3.016   3.447 -1.7474  0.5871  0.1572
  567MOL0     H74838   1.117   3.263   3.262 -0.7337  1.1618 -0.0977
  567MOL0     H74839   1.063   3.295   3.419 -0.6264  1.4884 -1.4713
  567MOL0     H74840   0.946   3.160   3.184  1.7778  2.8517  0.4255
  567MOL0     H74841   0.882   3.098   3.334 -0.2966 -0.1650 -1.2255
  567MOL0     H74842   0.702   3.448   3.391 -0.0513  0.0842  2.0448
  567MOL0     H74843   1.500   3.096   3.601  1.4361 -2.8629 -0.9685
  567MOL0     H74844   1.724   3.173   3.660 -0.3095 -1.3795  0.1138
  568MOL0     O74845  11.014   2.941   5.736 -0.1366 -0.7239  0.0991
  568MOL0     C74846  11.073   3.049   5.735  0.1603  0.4451 -0.4584
  568MOL0     O74847  11.033   3.163   5.810  0.2212 -0.2687 -0.2761
  568MOL0     C74848  10.907   3.178   5.864 -0.0044 -0.1267  0.1716
  568MOL0     C74849  10.795   3.092   5.833  0.0091  0.7713 -0.5110
  568MOL0     C74850  10.671   3.119   5.887 -0.0585  0.5267 -0.4016
  568MOL0     C74851  10.656   3.231   5.974  0.6072  0.8001  0.0135
  568MOL0     O74852  10.530   3.268   6.020  0.4280  0.5633 -0.1477
  568MOL0     C74853  10.418   3.259   5.937 -0.3490  0.9648  0.4145
  568MOL0     C74854  10.320   3.149   5.986 -0.4934 -0.4817 -0.4420
  568MOL0     C74855  10.191   3.160   5.904  0.5347  0.1640  0.1957
  568MOL0     C74856  10.084   3.050   5.935  0.2593 -0.2567  0.6517
  568MOL0     C74857   9.960   3.081   5.847  0.3185  0.5794 -0.1883
  568MOL0     C74858   9.841   3.015   5.912 -0.7355 -0.1235  0.0886
  568MOL0     C74859   9.703   3.018   5.836 -0.2700 -0.4294 -0.2461
  568MOL0     C74860   9.635   3.153   5.863 -0.0548  0.1324 -1.2400
  568MOL0     N74861   9.507   3.140   5.791  0.5068  0.2475  0.0978
  568MOL0     C74862   9.485   3.165   5.651  0.7990 -0.5041  0.1895
  568MOL0     C74863   9.352   3.147   5.647 -0.3201  0.2316  0.6889
  568MOL0     C74864   9.284   3.168   5.513 -0.8462  0.0345 -0.3708
  568MOL0     C74865   9.339   3.071   5.405  0.0272 -0.2445  0.5727
  568MOL0     C74866   9.374   2.920   5.448  0.1527 -0.2513  0.3476
  568MOL0     C74867   9.254   2.848   5.513  0.5358  0.4736  0.5521
  568MOL0     O74868   9.134   2.861   5.438 -0.1878  0.8079 -0.1983
  568MOL0     C74869   9.019   2.838   5.498  0.1697  0.6844 -0.7584
  568MOL0     C74870   8.904   2.873   5.424  0.6211  0.6614 -0.1019
  568MOL0     C74871   8.767   2.848   5.458 -0.5676 -0.6132 -0.0256
  568MOL0     C74872   8.745   2.773   5.573 -0.1723  0.7455 -0.3514
  568MOL0     C74873   8.600   2.749   5.615 -0.3484  0.8871 -0.0743
  568MOL0     O74874   8.506   2.757   5.518 -0.2474  0.1062 -0.3129
  568MOL0     C74875   8.371   2.750   5.547  0.4170 -0.5713  0.3331
  568MOL0     C74876   8.307   2.760   5.675  0.0251 -1.0044 -0.5434
  568MOL0     C74877   8.170   2.754   5.686  0.8080  0.8773 -0.1188
  568MOL0     C74878   8.097   2.733   5.566  0.5240  0.3030  0.1800
  568MOL0     O74879   7.957   2.733   5.558 -0.2256  0.0706  0.0378
  568MOL0     C74880   7.893   2.822   5.653  0.4692  1.2148 -1.3483
  568MOL0     C74881   7.742   2.824   5.621 -0.5029  0.5647  0.2832
  568MOL0     C74882   7.718   2.896   5.481 -0.2450 -0.4555 -0.2739
  568MOL0     C74883   7.566   2.928   5.471 -0.1983 -0.1572  0.4539
  568MOL0     C74884   7.542   3.044   5.374  0.3156  0.0616 -0.5586
  568MOL0     C74885   7.587   3.021   5.234  0.1608 -0.9772  1.4345
  568MOL0     C74886   7.553   3.135   5.140 -0.2527 -0.5068 -1.0066
  568MOL0     C74887   7.452   3.098   5.029 -0.0294  0.4101  0.0293
  568MOL0    Cl74888   7.431   3.241   4.914  0.2903  0.1643  0.6105
  568MOL0     C74889   8.162   2.713   5.441  0.4865 -0.3009  0.4835
  568MOL0     C74890   8.294   2.733   5.438 -0.6994  0.5939  0.1934
  568MOL0     O74891   8.579   2.696   5.731 -0.0612  0.6712  0.5996
  568MOL0     C74892   8.860   2.735   5.650 -0.3124 -0.2352 -0.2539
  568MOL0     C74893   8.991   2.767   5.616 -1.1631  1.2282 -0.9826
  568MOL0     N74894   9.296   3.105   5.764 -0.3552  0.2689 -0.3837
  568MOL0     N74895   9.387   3.107   5.850 -0.6242  0.1814 -0.0364
  568MOL0     C74896  10.766   3.317   5.996 -0.3417 -0.4241 -0.5971
  568MOL0     C74897  10.894   3.297   5.939  0.1692  0.1819 -0.7756
  568MOL0     C74898  11.199   3.062   5.657 -0.0295  0.0851 -0.4039
  568MOL0     C74899  11.252   3.194   5.632  0.5729  0.4244  0.2208
  568MOL0     C74900  11.361   3.217   5.545 -0.2486  0.0265  0.0705
  568MOL0     C74901  11.428   3.105   5.496 -0.6749 -0.1387  0.0959
  568MOL0     O74902  11.526   3.144   5.394 -0.2842  0.5704  0.4351
  568MOL0     C74903  11.602   3.033   5.328 -0.0125  0.4154 -0.0752
  568MOL0     C74904  11.740   3.067   5.280 -0.2421 -0.1089  0.0785
  568MOL0     C74905  11.731   3.173   5.163  0.0839  0.3731 -0.2945
  568MOL0     C74906  11.856   3.253   5.147  0.4543 -0.0571 -0.4377
  568MOL0     C74907  11.973   3.163   5.129 -0.5056 -0.5227  0.4688
  568MOL0     C74908  12.057   3.082   5.103 -0.5185 -0.4636 -0.0206
  568MOL0     C74909  11.372   2.976   5.519 -0.6606 -0.6215 -0.3892
  568MOL0     C74910  11.267   2.955   5.600  0.0349  0.8201 -0.0128
  568MOL0     H74911  10.795   3.002   5.773  0.2767 -1.8385  3.0784
  568MOL0     H74912  10.587   3.055   5.861  1.4869 -1.1736 -1.5223
  568MOL0     H74913  10.455   3.247   5.835 -0.2281 -2.3207  0.7359
  568MOL0     H74914  10.369   3.356   5.952  0.1468  0.9214  2.6134
  568MOL0     H74915  10.298   3.157   6.092 -0.4325  1.5189 -0.5333
  568MOL0     H74916  10.355   3.049   5.959  1.2495 -0.2604  0.8458
  568MOL0     H74917  10.214   3.155   5.797  2.0207  1.3472  0.4283
  568MOL0     H74918  10.152   3.262   5.906  0.6364  0.4296 -3.8272
  568MOL0     H74919  10.124   2.952   5.910  1.6207  0.6669 -1.0800
  568MOL0     H74920  10.052   3.057   6.039  0.6441 -0.1536  0.7679
  568MOL0     H74921   9.976   3.037   5.748 -2.3461  0.1113 -0.4861
  568MOL0     H74922   9.937   3.187   5.851 -0.5794  0.4572 -1.4860
  568MOL0     H74923   9.823   3.059   6.010  1.6253  1.1309  0.0206
  568MOL0     H74924   9.873   2.911   5.927 -0.3832  0.0452  0.5292
  568MOL0     H74925   9.704   3.000   5.728 -3.2844  0.5853 -0.5360
  568MOL0     H74926   9.641   2.940   5.880  1.8073 -1.6463  0.6483
  568MOL0     H74927   9.694   3.236   5.824  0.1939  0.6473  0.1663
  568MOL0     H74928   9.614   3.175   5.968 -1.2477  0.6504 -1.5663
  568MOL0     H74929   9.553   3.185   5.569  1.4721  1.1988  1.1084
  568MOL0     H74930   9.294   3.275   5.494 -0.5514  0.2805  1.0891
  568MOL0     H74931   9.177   3.154   5.533 -0.7645  0.7790  0.6354
  568MOL0     H74932   9.426   3.116   5.356  0.3636 -1.2345  0.2499
  568MOL0     H74933   9.266   3.073   5.323  1.1176  2.4840 -0.4780
  568MOL0     H74934   9.396   2.863   5.357  0.6517 -1.4207  1.1763
  568MOL0     H74935   9.466   2.916   5.507 -0.0363 -1.7009  0.5824
  568MOL0     H74936   9.239   2.885   5.615 -0.4830  0.6476  0.3564
  568MOL0     H74937   9.276   2.742   5.530 -0.6387  0.2170  0.6198
  568MOL0     H74938   8.920   2.916   5.326  1.5100 -2.5530 -1.5157
  568MOL0     H74939   8.681   2.877   5.398  0.0558 -3.6044 -2.6392
  568MOL0     H74940   8.344   2.781   5.775  1.5269 -0.8672 -1.0975
  568MOL0     H74941   8.120   2.765   5.782  0.2987 -1.3952 -0.0834
  568MOL0     H74942   7.944   2.918   5.649  0.6877  1.1598 -0.1396
  568MOL0     H74943   7.898   2.790   5.757 -1.6712 -1.6455 -1.9656
  568MOL0     H74944   7.689   2.875   5.702  0.2039 -0.9728  1.7598
  568MOL0     H74945   7.704   2.721   5.620  0.6909  0.0990  1.0032
  568MOL0     H74946   7.754   2.829   5.403 -0.5259  0.6617 -1.3976
  568MOL0     H74947   7.775   2.989   5.477  2.4350 -1.8962  1.3328
  568MOL0     H74948   7.522   2.836   5.431  1.3476 -1.3372  1.3352
  568MOL0     H74949   7.527   2.961   5.568  1.1949 -0.3929  1.1271
  568MOL0     H74950   7.578   3.137   5.419  1.4331 -1.5677  2.1045
  568MOL0     H74951   7.434   3.041   5.359 -0.2486 -1.2806  2.9250
  568MOL0     H74952   7.539   2.935   5.187  1.5675  0.1578 -2.5820
  568MOL0     H74953   7.692   3.001   5.213 -0.0739  0.5998 -2.0934
  568MOL0     H74954   7.502   3.218   5.190  0.3275 -0.1942 -0.9242
  568MOL0     H74955   7.639   3.182   5.091 -1.1560  0.4231 -1.7638
  568MOL0     H74956   7.354   3.085   5.075 -0.3316 -0.2159 -0.7729
  568MOL0     H74957   7.484   3.005   4.981 -2.1455 -1.8867  2.7613
  568MOL0     H74958   8.108   2.703   5.348 -0.2474  0.5690  0.8035
  568MOL0     H74959   8.342   2.730   5.341 -0.3868 -1.7687  0.3646
  568MOL0     H74960   8.851   2.692   5.749  1.0762  4.1856  2.0847
  568MOL0     H74961   9.073   2.748   5.684 -0.5620 -1.1661 -2.2526
  568MOL0     H74962  10.748   3.398   6.066 -1.4611 -0.8174 -0.4081
  568MOL0     H74963  10.977   3.367   5.943 -0.1447  0.5193  2.3873
  568MOL0     H74964  11.207   3.284   5.672  2.0305  0.4988  1.8258
  568MOL0     H74965  11.399   3.314   5.514  3.5768 -1.3932 -0.3039
  568MOL0     H74966  11.542   2.985   5.250  0.8917 -2.5069  0.8930
  568MOL0     H74967  11.609   2.953   5.402 -1.9953 -0.1054 -0.4046
  568MOL0     H74968  11.783   3.115   5.368 -1.4058 -1.1672  1.2718
  568MOL0     H74969  11.795   2.980   5.243  1.3500  0.9390 -0.0833
  568MOL0     H74970  11.637   3.229   5.163 -0.7476 -0.9274 -1.7306
  568MOL0     H74971  11.731   3.109   5.074  4.1505 -0.8850  0.4102
  568MOL0     H74972  11.855   3.325   5.065  3.2305  0.7944  0.1703
  568MOL0     H74973  11.868   3.315   5.237 -4.5923  1.1728 -0.3358
  568MOL0     H74974  12.144   3.035   5.061 -0.4361 -0.3956  0.0750
  568MOL0     H74975  11.421   2.886   5.481  0.5234 -1.6145  3.1003
  568MOL0     H74976  11.227   2.856   5.620  1.2750  0.5340  1.2329
  569MOL0     O74977   6.209   0.874  11.155 -0.4760 -0.4725 -0.0085
  569MOL0     C74978   6.149   0.768  11.135  0.0323  0.3354 -0.7129
  569MOL0     O74979   6.051   0.709  11.219  0.1559 -0.4244 -0.1031
  569MOL0     C74980   5.991   0.773  11.320  0.0712 -0.0528 -0.1788
  569MOL0     C74981   5.856   0.769  11.323 -0.1277 -0.1748  0.1916
  569MOL0     C74982   5.787   0.836  11.424 -0.5618 -0.0659  0.2073
  569MOL0     C74983   5.855   0.900  11.528 -0.0583  0.0041 -0.1142
  569MOL0     O74984   5.782   0.960  11.632 -0.1577 -0.3034 -0.5209
  569MOL0     C74985   5.835   0.985  11.764  0.0204 -0.0961 -0.8297
  569MOL0     C74986   5.753   1.106  11.823 -0.4388  0.4806  0.3183
  569MOL0     C74987   5.610   1.063  11.858 -0.0742  0.1294  0.2871
  569MOL0     C74988   5.531   1.175  11.930 -0.2135  0.6444  0.5359
  569MOL0     C74989   5.382   1.155  11.951 -0.2502  0.7071  0.2450
  569MOL0     C74990   5.318   1.287  12.000 -0.4851 -0.8041  0.5713
  569MOL0     C74991   5.179   1.290  12.053  0.7081  0.0342  0.7636
  569MOL0     C74992   5.122   1.429  12.073 -0.0651  0.3472 -0.3853
  569MOL0     N74993   4.988   1.420  12.140 -0.1090  0.4517  0.2178
  569MOL0     C74994   4.879   1.356  12.089  0.5082 -0.0747  0.5671
  569MOL0     C74995   4.779   1.370  12.174  0.7849 -0.0146 -0.0356
  569MOL0     C74996   4.637   1.320  12.158  0.0715  0.1915  0.1733
  569MOL0     C74997   4.577   1.378  12.032 -0.7812 -0.3112 -0.0846
  569MOL0     C74998   4.440   1.327  11.983  0.3496  0.0051 -0.3433
  569MOL0     C74999   4.412   1.386  11.843  0.9087 -0.0612  0.1190
  569MOL0     O75000   4.282   1.332  11.804 -0.0205 -0.2988 -0.6945
  569MOL0     C75001   4.207   1.419  11.734  0.1826  0.1806  0.2755
  569MOL0     C75002   4.091   1.458  11.785  0.9914  0.6956 -0.7477
  569MOL0     C75003   4.007   1.543  11.720 -0.0064  0.3264  0.5309
  569MOL0     C75004   4.038   1.584  11.585 -0.4043  0.4395  0.3840
  569MOL0     C75005   3.934   1.653  11.507  0.7347  0.3654  0.2557
  569MOL0     O75006   3.821   1.697  11.577  0.4689  0.6972  0.4327
  569MOL0     C75007   3.724   1.769  11.513 -0.2309 -0.6199  0.9421
  569MOL0     C75008   3.698   1.771  11.376  0.5090  0.7527 -0.1741
  569MOL0     C75009   3.597   1.855  11.315 -0.1842  0.0742  0.2758
  569MOL0     C75010   3.511   1.934  11.401 -0.1807 -0.0699 -0.1721
  569MOL0     O75011   3.407   2.020  11.358 -0.5163 -0.7966  0.1731
  569MOL0     C75012   3.367   2.015  11.219  0.0617  0.0935  0.5270
  569MOL0     C75013   3.285   2.136  11.184 -0.1516 -0.0621  0.6449
  569MOL0     C75014   3.170   2.152  11.283  0.3308  0.4970 -0.3991
  569MOL0     C75015   3.099   2.022  11.305  0.8166  0.7205 -0.2360
  569MOL0     C75016   2.963   2.031  11.379  0.9009 -0.5588 -0.2704
  569MOL0     C75017   2.886   1.896  11.362 -0.0726  0.3551  0.3041
  569MOL0     C75018   2.763   1.888  11.462  0.0588 -0.0867  0.5824
  569MOL0     C75019   2.655   1.782  11.411 -1.0044  0.0515  0.1253
  569MOL0    Cl75020   2.542   1.721  11.536  0.1573 -0.1252 -0.0058
  569MOL0     C75021   3.542   1.934  11.529 -0.4880 -0.0540  0.3959
  569MOL0     C75022   3.638   1.844  11.587 -0.2749 -0.0381 -0.0701
  569MOL0     O75023   3.965   1.679  11.391 -0.4616 -0.2804  0.0350
  569MOL0     C75024   4.160   1.544  11.528  0.3994  0.3841  0.5059
  569MOL0     C75025   4.243   1.461  11.602 -0.4795 -0.7649 -0.0500
  569MOL0     N75026   4.828   1.440  12.282  0.3587  0.6731 -0.3887
  569MOL0     N75027   4.952   1.466  12.263  0.5746  0.0770 -0.0533
  569MOL0     C75028   5.995   0.896  11.528 -0.1133 -1.0695 -0.9687
  569MOL0     C75029   6.057   0.836  11.431 -0.0809 -0.5922 -0.3266
  569MOL0     C75030   6.187   0.705  11.009  0.2394  1.0007 -1.1531
  569MOL0     C75031   6.303   0.744  10.937 -0.7336 -0.3730 -0.1446
  569MOL0     C75032   6.331   0.685  10.819 -0.3257 -0.5008 -0.1432
  569MOL0     C75033   6.241   0.590  10.756 -0.9808  0.3038 -1.5107
  569MOL0     O75034   6.270   0.519  10.640 -0.1459  0.1327  0.4142
  569MOL0     C75035   6.365   0.576  10.549 -0.5858 -0.2435  0.3986
  569MOL0     C75036   6.373   0.497  10.425  0.1414  0.7905 -0.1360
  569MOL0     C75037   6.510   0.523  10.350  0.3488  0.6304 -0.2219
  569MOL0     C75038   6.521   0.656  10.290 -0.4791 -0.3004 -1.1332
  569MOL0     C75039   6.654   0.690  10.237 -0.2816  0.3354  0.2191
  569MOL0     C75040   6.765   0.686  10.188 -0.3621  0.1292  0.2884
  569MOL0     C75041   6.132   0.545  10.829  0.3673 -0.1911  0.0517
  569MOL0     C75042   6.104   0.608  10.956  0.2206 -0.1768  0.4047
  569MOL0     H75043   5.790   0.721  11.251  0.0252  0.5982 -0.4815
  569MOL0     H75044   5.678   0.835  11.431 -0.5843  1.1695  0.2947
  569MOL0     H75045   5.935   1.025  11.748  0.1900 -0.6021 -1.0452
  569MOL0     H75046   5.825   0.900  11.832  0.3154  1.1085  0.7772
  569MOL0     H75047   5.748   1.185  11.748 -1.5358 -0.1395 -0.2938
  569MOL0     H75048   5.808   1.138  11.912  1.7697 -0.5185 -0.5949
  569MOL0     H75049   5.608   0.984  11.934  0.7371  1.0993  1.3734
  569MOL0     H75050   5.563   1.032  11.765  3.2206  1.3706 -2.0080
  569MOL0     H75051   5.592   1.197  12.019  1.9876 -0.3462 -0.6468
  569MOL0     H75052   5.537   1.266  11.870 -0.8310  1.3080  1.4504
  569MOL0     H75053   5.368   1.084  12.032 -2.1126  0.7711  0.0206
  569MOL0     H75054   5.333   1.129  11.856  2.1721 -2.3913 -0.3055
  569MOL0     H75055   5.341   1.366  11.928 -0.7784 -1.4760 -0.2765
  569MOL0     H75056   5.379   1.316  12.086  1.7095  0.7661 -1.3846
  569MOL0     H75057   5.115   1.244  11.977  2.1864  1.3289 -1.3801
  569MOL0     H75058   5.161   1.234  12.146 -0.8534 -1.4469 -0.3696
  569MOL0     H75059   5.126   1.483  11.978  2.0301  1.4207  0.2364
  569MOL0     H75060   5.198   1.466  12.143  1.2429 -2.1013 -0.3979
  569MOL0     H75061   4.864   1.316  11.990 -3.3672 -1.1749  1.4060
  569MOL0     H75062   4.597   1.352  12.255  2.2352  1.0958  0.8397
  569MOL0     H75063   4.651   1.213  12.146 -1.6668  0.0774 -1.2629
  569MOL0     H75064   4.654   1.373  11.954  0.9389 -1.5909  1.5938
  569MOL0     H75065   4.566   1.486  12.045 -1.9266 -0.5070  0.7521
  569MOL0     H75066   4.450   1.218  11.975  0.1822  0.0081 -0.6198
  569MOL0     H75067   4.377   1.363  12.065 -0.1671 -0.2161 -0.6402
  569MOL0     H75068   4.483   1.345  11.769  1.3208  0.3377  0.2899
  569MOL0     H75069   4.434   1.493  11.838 -1.4758  0.4799  0.0530
  569MOL0     H75070   4.051   1.423  11.880  0.9568  1.6306 -0.4127
  569MOL0     H75071   3.922   1.585  11.774 -2.0080 -1.4345 -1.0675
  569MOL0     H75072   3.756   1.710  11.308 -1.5461 -0.3148 -1.0532
  569MOL0     H75073   3.572   1.839  11.211  0.6816  0.7711 -0.0452
  569MOL0     H75074   3.307   1.929  11.190  0.3130  0.1720 -0.2447
  569MOL0     H75075   3.453   2.016  11.151  0.2756  1.1992  0.8030
  569MOL0     H75076   3.255   2.128  11.079  2.1935 -0.4115 -0.0688
  569MOL0     H75077   3.341   2.230  11.192 -0.7839  0.6275 -2.0853
  569MOL0     H75078   3.098   2.229  11.254 -0.8229 -0.5655 -0.4368
  569MOL0     H75079   3.216   2.188  11.376  0.2535 -0.9225  0.2267
  569MOL0     H75080   3.082   1.989  11.202  0.9779  2.3467 -0.8156
  569MOL0     H75081   3.168   1.955  11.355 -0.6216 -1.6411 -1.2321
  569MOL0     H75082   2.908   2.113  11.332 -0.2853 -0.5400  1.0764
  569MOL0     H75083   2.983   2.059  11.483  1.8070 -1.3178 -0.2330
  569MOL0     H75084   2.952   1.819  11.403 -1.4642 -0.3600  1.2681
  569MOL0     H75085   2.871   1.893  11.254  1.5776  1.8061 -0.0241
  569MOL0     H75086   2.802   1.851  11.557 -1.0114  0.6723  1.3327
  569MOL0     H75087   2.711   1.980  11.490 -0.4901 -0.3695  0.5001
  569MOL0     H75088   2.695   1.689  11.368 -2.3378 -0.4244 -0.1649
  569MOL0     H75089   2.587   1.829  11.339 -0.9292  3.8092  2.2614
  569MOL0     H75090   3.488   1.998  11.598  1.5163  0.9431  1.1104
  569MOL0     H75091   3.664   1.854  11.691  3.0550  3.2858 -1.0175
  569MOL0     H75092   4.207   1.581  11.438  0.5877 -0.1232  0.3882
  569MOL0     H75093   4.341   1.448  11.558 -1.1632 -0.1686 -1.8553
  569MOL0     H75094   6.046   0.942  11.612 -0.5163 -2.0218 -0.1790
  569MOL0     H75095   6.165   0.838  11.442 -0.1049 -3.1203  0.9443
  569MOL0     H75096   6.381   0.810  10.973 -1.2823  0.4992 -0.5263
  569MOL0     H75097   6.421   0.714  10.766  0.1073 -1.3641  0.0960
  569MOL0     H75098   6.462   0.567  10.599 -1.7798 -2.8958  2.4633
  569MOL0     H75099   6.326   0.674  10.520 -1.4327 -0.7018 -0.0462
  569MOL0     H75100   6.359   0.391  10.448 -2.1469  0.9259 -0.7023
  569MOL0     H75101   6.292   0.540  10.365  2.0735  3.2855 -1.1694
  569MOL0     H75102   6.520   0.448  10.272  2.7130  0.4475  0.1897
  569MOL0     H75103   6.592   0.504  10.420  0.9091  2.2196 -0.3927
  569MOL0     H75104   6.464   0.663  10.197 -0.4979  1.0972 -1.0264
  569MOL0     H75105   6.488   0.733  10.359  0.0456 -1.4185  0.4144
  569MOL0     H75106   6.861   0.676  10.141 -0.9163 -1.9431 -0.4932
  569MOL0     H75107   6.062   0.467  10.801 -1.9130  1.8636 -0.3246
  569MOL0     H75108   6.011   0.588  11.008  0.0251  2.5292  1.2330
  570MOL0     O75109   3.360   8.711  11.007  0.2866 -0.0111 -0.0928
  570MOL0     C75110   3.388   8.823  10.968 -0.4504  0.1237  0.7385
  570MOL0     O75111   3.312   8.933  10.983 -0.3978  0.7895  0.1109
  570MOL0     C75112   3.198   8.925  11.061 -0.6698  0.4834  0.5829
  570MOL0     C75113   3.078   8.970  11.010  0.5414  0.0944  0.1669
  570MOL0     C75114   2.958   8.945  11.079  0.2164  0.3402 -0.4709
  570MOL0     C75115   2.970   8.892  11.206  0.8256  0.5311 -0.0211
  570MOL0     O75116   2.859   8.887  11.273  0.0886  0.3381 -0.4317
  570MOL0     C75117   2.836   8.782  11.368  0.7097 -0.4851 -0.3089
  570MOL0     C75118   2.695   8.793  11.427  0.1589 -0.9889 -0.9775
  570MOL0     C75119   2.649   8.679  11.512 -0.2726  0.0543  0.2155
  570MOL0     C75120   2.528   8.704  11.599  1.0181 -0.3589 -0.5314
  570MOL0     C75121   2.406   8.754  11.517  0.1927 -0.1777 -0.7488
  570MOL0     C75122   2.277   8.732  11.582  0.8103  0.3705  0.1431
  570MOL0     C75123   2.223   8.601  11.543 -0.1076  0.0500  0.4862
  570MOL0     C75124   2.100   8.564  11.623  0.9045 -0.5339 -0.5041
  570MOL0     N75125   1.992   8.661  11.591 -0.4226  0.2045 -1.2978
  570MOL0     C75126   1.913   8.661  11.482 -0.2336 -0.2068 -0.5691
  570MOL0     C75127   1.833   8.766  11.485  0.4719 -0.5738  0.5662
  570MOL0     C75128   1.717   8.799  11.399 -0.2814  1.1641  0.1897
  570MOL0     C75129   1.752   8.911  11.305 -0.0521  0.2835  0.4055
  570MOL0     C75130   1.623   8.985  11.261 -0.7893  0.3477  0.6572
  570MOL0     C75131   1.512   8.906  11.213 -0.3879  0.0600  0.0688
  570MOL0     O75132   1.399   8.986  11.191  0.4427  0.3208  0.4944
  570MOL0     C75133   1.279   8.928  11.164  0.2013  0.8492 -0.1229
  570MOL0     C75134   1.159   9.007  11.156 -0.3410 -0.7548 -0.5304
  570MOL0     C75135   1.030   8.944  11.142  0.4186 -0.2590  0.9961
  570MOL0     C75136   1.017   8.808  11.126  0.2753 -0.9188  0.2492
  570MOL0     C75137   0.884   8.747  11.107 -0.9507 -0.2042  0.4133
  570MOL0     O75138   0.789   8.816  11.043  1.0847 -0.9311  0.5164
  570MOL0     C75139   0.657   8.768  11.038  0.4106  0.0207  0.1165
  570MOL0     C75140   0.596   8.688  11.132  0.0845  0.5174 -0.0565
  570MOL0     C75141   0.457   8.657  11.133 -0.0189  0.5257 -0.5215
  570MOL0     C75142   0.365   8.712  11.045  0.2921 -0.4276  0.1300
  570MOL0     O75143   0.232   8.706  11.054 -0.2373 -0.1802 -0.9572
  570MOL0     C75144   0.171   8.695  11.187  0.6187  0.1800  0.3313
  570MOL0     C75145   0.024   8.706  11.172 -0.8055  0.8925 -0.5422
  570MOL0     C75146  -0.040   8.607  11.055  0.5310 -0.8333 -0.1242
  570MOL0     C75147  -0.178   8.652  11.008  0.6081 -0.3734 -0.2666
  570MOL0     C75148  -0.291   8.654  11.115 -0.2240 -1.1802  0.3840
  570MOL0     C75149  -0.396   8.760  11.084  0.2857 -0.4712  0.0488
  570MOL0     C75150  -0.471   8.776  11.207  0.1626 -0.2788 -0.0810
  570MOL0     C75151  -0.561   8.895  11.197  0.0243  0.2569  0.2338
  570MOL0    Cl75152  -0.675   8.873  11.059  0.0853 -0.4394  0.3733
  570MOL0     C75153   0.418   8.805  10.948 -0.2935  0.1111 -0.3620
  570MOL0     C75154   0.563   8.815  10.939  0.7625  0.7559  0.0946
  570MOL0     O75155   0.872   8.631  11.149  0.2174 -0.1709  0.0864
  570MOL0     C75156   1.130   8.726  11.138  0.6406  0.6187 -0.1232
  570MOL0     C75157   1.259   8.784  11.160 -0.0164 -0.4872  0.4939
  570MOL0     N75158   1.858   8.830  11.609  0.0804 -0.1777 -0.5822
  570MOL0     N75159   1.955   8.762  11.670 -0.0238 -0.0576  0.9337
  570MOL0     C75160   3.095   8.848  11.259  0.0436  1.3072  0.0881
  570MOL0     C75161   3.206   8.872  11.182 -0.2490 -0.3575 -0.4566
  570MOL0     C75162   3.524   8.848  10.905 -0.7050  0.7265  0.2100
  570MOL0     C75163   3.620   8.740  10.881  0.1788 -0.5141 -0.1587
  570MOL0     C75164   3.745   8.762  10.833  0.6821 -0.0822  1.3747
  570MOL0     C75165   3.781   8.896  10.802  0.1122 -0.0231 -0.0716
  570MOL0     O75166   3.903   8.918  10.745 -0.6421  0.1515  0.2451
  570MOL0     C75167   3.937   9.039  10.669  0.0116  0.4792 -0.2008
  570MOL0     C75168   3.880   9.035  10.525 -0.5013  0.4335 -1.3130
  570MOL0     C75169   3.736   9.054  10.504  0.6986  0.2136  0.9636
  570MOL0     C75170   3.697   9.098  10.361 -0.0612 -0.4398 -0.0405
  570MOL0     C75171   3.556   9.124  10.365 -0.2115 -0.6791  0.8247
  570MOL0     C75172   3.436   9.148  10.368  0.2175 -0.8721 -0.9216
  570MOL0     C75173   3.688   8.992  10.823 -0.6633 -0.1413 -0.2203
  570MOL0     C75174   3.562   8.973  10.870 -0.3356  0.3567 -0.7531
  570MOL0     H75175   3.079   9.006  10.907 -1.5093  0.0077  0.0811
  570MOL0     H75176   2.859   8.970  11.042 -0.7186 -1.2584  0.8689
  570MOL0     H75177   2.903   8.786  11.455  0.4657 -1.3542 -0.0628
  570MOL0     H75178   2.851   8.681  11.328 -1.0611 -2.5768  3.6549
  570MOL0     H75179   2.621   8.805  11.348 -2.1570  1.3685  1.3705
  570MOL0     H75180   2.690   8.886  11.484  0.4150 -0.8293 -1.2111
  570MOL0     H75181   2.735   8.654  11.574  1.3045  0.6272 -1.6495
  570MOL0     H75182   2.632   8.592  11.447  0.0815  1.3797 -1.7440
  570MOL0     H75183   2.495   8.614  11.651 -2.6448  1.3228  0.3883
  570MOL0     H75184   2.551   8.777  11.677 -1.2651  1.5829 -1.5253
  570MOL0     H75185   2.398   8.711  11.417  0.6902  0.0977 -0.9086
  570MOL0     H75186   2.431   8.859  11.503  1.6537 -0.2888  0.7831
  570MOL0     H75187   2.207   8.802  11.535 -1.2011  0.5560  3.1386
  570MOL0     H75188   2.281   8.754  11.690  2.8778  1.1888 -0.0483
  570MOL0     H75189   2.184   8.603  11.441  2.5392  0.1914 -0.5899
  570MOL0     H75190   2.295   8.518  11.543 -1.5370 -1.2654 -0.4358
  570MOL0     H75191   2.115   8.583  11.729  0.3152  1.3220 -0.7103
  570MOL0     H75192   2.079   8.462  11.590  0.9900 -0.8405  0.3757
  570MOL0     H75193   1.916   8.579  11.411  2.0125 -0.3331 -0.4051
  570MOL0     H75194   1.636   8.845  11.457 -0.0064  2.0451 -0.1016
  570MOL0     H75195   1.670   8.715  11.346 -2.1200  1.1436  1.7410
  570MOL0     H75196   1.801   8.860  11.221 -1.0338 -0.3044  0.1643
  570MOL0     H75197   1.824   8.977  11.353  2.4325 -3.0055  1.5403
  570MOL0     H75198   1.591   9.047  11.345  1.7841  0.3312  1.7683
  570MOL0     H75199   1.636   9.066  11.188 -0.7890  1.2405  1.6311
  570MOL0     H75200   1.494   8.826  11.286  2.1089 -0.8472 -0.2127
  570MOL0     H75201   1.535   8.857  11.118 -2.1254  1.3616 -1.0949
  570MOL0     H75202   1.150   9.114  11.173  1.8806 -0.9063  2.4011
  570MOL0     H75203   0.946   9.014  11.140  0.7631  0.1753  1.4107
  570MOL0     H75204   0.650   8.645  11.216 -0.8076  0.6640  0.5984
  570MOL0     H75205   0.417   8.606  11.220  1.6328  1.2325  0.7064
  570MOL0     H75206   0.204   8.771  11.259 -1.8063 -2.8572  5.1643
  570MOL0     H75207   0.206   8.598  11.223 -1.6554 -1.1782 -0.8758
  570MOL0     H75208  -0.004   8.809  11.149 -3.5206 -0.4233 -3.8747
  570MOL0     H75209  -0.005   8.670  11.272  0.5078  1.4236  0.0581
  570MOL0     H75210  -0.052   8.502  11.083 -2.4752 -0.3908  0.6692
  570MOL0     H75211   0.032   8.608  10.973  1.0486  0.4000  0.3205
  570MOL0     H75212  -0.167   8.757  10.979  3.6031  0.1683  2.2495
  570MOL0     H75213  -0.210   8.593  10.923  3.4812  0.3272 -1.9787
  570MOL0     H75214  -0.246   8.677  11.212  0.8367 -0.3373 -0.2833
  570MOL0     H75215  -0.338   8.555  11.124 -3.5067 -0.0341 -2.1416
  570MOL0     H75216  -0.455   8.731  10.997  3.4563 -3.7602 -1.2596
  570MOL0     H75217  -0.339   8.853  11.071  1.4625 -0.6503  3.0879
  570MOL0     H75218  -0.528   8.685  11.228 -2.4873  1.5535  1.1711
  570MOL0     H75219  -0.408   8.803  11.292  0.0171  2.8145 -0.8258
  570MOL0     H75220  -0.504   8.986  11.174 -0.0208 -0.3195 -2.6309
  570MOL0     H75221  -0.622   8.899  11.287  0.5160  1.6863  0.5178
  570MOL0     H75222   0.351   8.849  10.874  0.9247  0.0804 -1.5269
  570MOL0     H75223   0.601   8.873  10.856 -0.8943 -2.9156 -3.5787
  570MOL0     H75224   1.113   8.619  11.139  1.7329  0.4413  0.8906
  570MOL0     H75225   1.342   8.717  11.177 -0.2384 -0.8949 -0.0061
  570MOL0     H75226   3.105   8.797  11.355 -0.8441  1.2952  0.1802
  570MOL0     H75227   3.299   8.829  11.217 -0.2736  1.2085  1.7060
  570MOL0     H75228   3.602   8.634  10.898 -1.2555 -0.8212 -3.0608
  570MOL0     H75229   3.807   8.673  10.818 -0.0295 -0.2717 -0.7972
  570MOL0     H75230   4.045   9.036  10.653  0.0620 -0.3945  0.2450
  570MOL0     H75231   3.910   9.130  10.723 -0.5004 -0.6539  1.5220
  570MOL0     H75232   3.933   9.111  10.466  1.1231 -0.9037 -1.6346
  570MOL0     H75233   3.903   8.941  10.474 -0.0475  0.1327 -0.5666
  570MOL0     H75234   3.705   9.127  10.580 -2.7769  0.1724 -0.2070
  570MOL0     H75235   3.683   8.960  10.524 -3.0674  1.7338 -0.8647
  570MOL0     H75236   3.750   9.185  10.321  0.7612 -0.1222  1.6427
  570MOL0     H75237   3.719   9.019  10.289  1.5537  1.0090 -1.2316
  570MOL0     H75238   3.331   9.173  10.366  0.5704  0.7418 -2.9953
  570MOL0     H75239   3.716   9.096  10.807 -0.5457  0.2264  2.0965
  570MOL0     H75240   3.497   9.057  10.894  1.6045  1.8831 -0.5864
  571MOL0     O75241   8.265  10.195   6.925  0.1120 -0.4574  0.2492
  571MOL0     C75242   8.345  10.263   6.871 -0.1011  0.3720  0.1895
  571MOL0     O75243   8.339  10.305   6.740  0.0693  0.6684 -0.2142
  571MOL0     C75244   8.210  10.321   6.688 -0.4578  0.1134  0.4545
  571MOL0     C75245   8.207  10.286   6.551 -0.1673  0.0186 -0.3136
  571MOL0     C75246   8.086  10.287   6.483  0.5416  0.0381  0.8993
  571MOL0     C75247   7.965  10.324   6.541 -0.3326  0.0334 -0.3417
  571MOL0     O75248   7.838  10.327   6.481  0.1292  0.6123 -0.1116
  571MOL0     C75249   7.790  10.199   6.431 -0.4507 -0.2755 -0.5803
  571MOL0     C75250   7.641  10.186   6.443 -0.9477 -1.3123  0.7536
  571MOL0     C75251   7.576  10.294   6.359  0.2540  0.3070  0.4042
  571MOL0     C75252   7.438  10.246   6.307 -0.7777 -0.0170  0.3427
  571MOL0     C75253   7.343  10.219   6.422 -0.8839 -0.1823  0.3737
  571MOL0     C75254   7.216  10.156   6.358 -0.1799 -1.1508 -0.0773
  571MOL0     C75255   7.120  10.121   6.464 -0.3558 -0.0274  0.8593
  571MOL0     C75256   7.175   9.983   6.524 -0.5757 -0.4160 -0.1595
  571MOL0     N75257   7.067   9.922   6.604  0.5760 -0.5835 -0.0996
  571MOL0     C75258   7.013   9.798   6.588 -0.8155  0.5875 -0.8423
  571MOL0     C75259   6.953   9.769   6.709 -0.2793 -0.1482  0.0620
  571MOL0     C75260   6.887   9.638   6.735 -0.1256  0.0164  0.0422
  571MOL0     C75261   6.730   9.643   6.733  0.2001  0.1727 -0.9847
  571MOL0     C75262   6.676   9.514   6.800 -0.5286  0.8179  0.0325
  571MOL0     C75263   6.533   9.498   6.761  0.3490 -0.3021 -0.0848
  571MOL0     O75264   6.466   9.431   6.870  0.7118 -0.1848 -0.0314
  571MOL0     C75265   6.330   9.416   6.875 -0.6237  0.1803  0.4788
  571MOL0     C75266   6.236   9.445   6.779 -0.6837  0.6545  0.0653
  571MOL0     C75267   6.098   9.427   6.804 -0.3737 -0.4441 -0.2742
  571MOL0     C75268   6.060   9.366   6.923 -0.6345  0.6635 -0.2878
  571MOL0     C75269   5.918   9.351   6.967 -0.3159 -0.7991 -0.2124
  571MOL0     O75270   5.833   9.438   6.904 -0.9051  0.3619 -0.7216
  571MOL0     C75271   5.706   9.438   6.947  0.5318  0.2493 -0.0328
  571MOL0     C75272   5.603   9.449   6.849  0.6555  0.2881  0.7315
  571MOL0     C75273   5.466   9.454   6.880  0.4051 -0.2465 -0.2170
  571MOL0     C75274   5.427   9.450   7.012 -0.3093 -1.0432  0.5915
  571MOL0     O75275   5.293   9.455   7.040 -0.8020 -0.3965 -0.1127
  571MOL0     C75276   5.194   9.516   6.960  0.2741  0.2616 -0.1691
  571MOL0     C75277   5.064   9.547   7.039  0.1226 -0.1153 -0.2836
  571MOL0     C75278   4.994   9.413   7.083 -0.7047 -0.1166  0.7177
  571MOL0     C75279   4.935   9.333   6.967 -0.0709 -0.5898  0.2373
  571MOL0     C75280   4.839   9.397   6.871  0.3637  0.2195  0.0689
  571MOL0     C75281   4.705   9.447   6.931 -0.4122  0.0309 -0.7283
  571MOL0     C75282   4.618   9.508   6.826  0.0781 -0.0317  0.8716
  571MOL0     C75283   4.512   9.581   6.896 -0.1677  0.4837  0.3572
  571MOL0    Cl75284   4.419   9.489   7.029  0.0647 -0.0518  0.6377
  571MOL0     C75285   5.526   9.432   7.114 -0.5855 -0.0361 -0.3054
  571MOL0     C75286   5.667   9.427   7.081 -0.2113 -0.5438  0.7752
  571MOL0     O75287   5.886   9.262   7.047 -0.3018 -0.2705  0.4835
  571MOL0     C75288   6.162   9.326   7.017  0.3380  0.5353 -0.4398
  571MOL0     C75289   6.295   9.359   6.993  0.6947 -0.2263  0.4631
  571MOL0     N75290   6.967   9.879   6.785  0.3312 -0.4120  0.1268
  571MOL0     N75291   7.031   9.978   6.727  0.3200  0.3981  0.8283
  571MOL0     C75292   7.970  10.356   6.677  0.2153 -0.9860  0.5333
  571MOL0     C75293   8.097  10.354   6.749  1.4366 -0.1571 -1.1909
  571MOL0     C75294   8.476  10.302   6.944  0.5892  0.8176 -0.9187
  571MOL0     C75295   8.503  10.243   7.075 -0.5409  0.0804  0.1647
  571MOL0     C75296   8.633  10.251   7.130 -0.1705 -0.0310  1.0154
  571MOL0     C75297   8.739  10.310   7.060 -0.1436  0.3599  0.8060
  571MOL0     O75298   8.860  10.295   7.125  0.8318  0.2484  0.0509
  571MOL0     C75299   8.966  10.355   7.055  0.3640  0.4400  0.5079
  571MOL0     C75300   9.100  10.334   7.127 -0.5479  0.3826  0.4621
  571MOL0     C75301   9.126  10.185   7.140  0.9201 -1.2277 -0.0631
  571MOL0     C75302   9.265  10.164   7.201  0.1991 -0.5869  0.2458
  571MOL0     C75303   9.373  10.226   7.130  0.2392  0.0038 -0.6181
  571MOL0     C75304   9.476  10.276   7.088  0.2391 -0.8492  0.1277
  571MOL0     C75305   8.709  10.382   6.940  0.7453 -0.1676  0.1601
  571MOL0     C75306   8.581  10.377   6.878 -0.5524  0.1999  0.2838
  571MOL0     H75307   8.293  10.261   6.490 -2.6467 -0.8098 -3.7732
  571MOL0     H75308   8.086  10.260   6.378 -1.5901  1.5305  0.4524
  571MOL0     H75309   7.840  10.119   6.485 -1.1986 -1.2177 -1.2441
  571MOL0     H75310   7.817  10.184   6.326 -1.1788 -3.0499 -0.4498
  571MOL0     H75311   7.600  10.187   6.544 -3.1643  1.3147 -0.0389
  571MOL0     H75312   7.613  10.085   6.411  2.1231 -2.9866  2.7870
  571MOL0     H75313   7.632  10.314   6.267  0.3498 -0.5391  0.2748
  571MOL0     H75314   7.545  10.378   6.422  0.3303  0.0069  0.8449
  571MOL0     H75315   7.399  10.326   6.243 -1.5584  1.4420  2.4887
  571MOL0     H75316   7.443  10.157   6.245  2.6268  0.2541  0.0407
  571MOL0     H75317   7.323  10.306   6.485  1.9878  0.1120  1.0392
  571MOL0     H75318   7.392  10.147   6.489  1.4002  0.4097 -0.5544
  571MOL0     H75319   7.243  10.075   6.290 -3.4497  0.1466 -3.2962
  571MOL0     H75320   7.175  10.237   6.297  1.9360 -1.0202 -1.3973
  571MOL0     H75321   7.116  10.203   6.537 -1.4537  0.3228  0.4270
  571MOL0     H75322   7.020  10.108   6.422  0.5942 -0.2971 -1.4594
  571MOL0     H75323   7.256  10.002   6.596 -0.4350 -1.5165 -0.0115
  571MOL0     H75324   7.201   9.910   6.448 -2.0933 -3.1916  1.8038
  571MOL0     H75325   7.012   9.725   6.508 -2.1646  1.4119 -1.6108
  571MOL0     H75326   6.920   9.619   6.838  1.8280  4.4003  0.4576
  571MOL0     H75327   6.920   9.564   6.661 -1.5373  1.2807 -1.9355
  571MOL0     H75328   6.685   9.647   6.634  0.3237  0.0392 -1.0454
  571MOL0     H75329   6.702   9.729   6.795  1.4669 -0.9779  1.3373
  571MOL0     H75330   6.722   9.421   6.765 -0.4965  0.6977  0.3918
  571MOL0     H75331   6.693   9.524   6.908  2.2714 -1.7012 -0.0374
  571MOL0     H75332   6.513   9.465   6.659 -1.9118 -1.7886  0.7639
  571MOL0     H75333   6.483   9.595   6.756 -3.4794 -2.1619 -2.0904
  571MOL0     H75334   6.266   9.496   6.688  1.6971  1.3883  1.1888
  571MOL0     H75335   6.027   9.448   6.725  0.8575  0.1914 -1.2503
  571MOL0     H75336   5.624   9.449   6.743  1.2635  1.8705  0.8210
  571MOL0     H75337   5.393   9.481   6.804 -1.4007 -2.3216  0.6781
  571MOL0     H75338   5.172   9.449   6.876 -0.8808  1.1456 -0.6016
  571MOL0     H75339   5.229   9.603   6.904  1.7857 -2.1551 -3.3337
  571MOL0     H75340   5.006   9.622   6.985 -0.0834  0.8760  1.2537
  571MOL0     H75341   5.093   9.602   7.129 -0.0199  1.4276 -1.1417
  571MOL0     H75342   4.896   9.432   7.128 -3.0552 -1.5936 -3.2593
  571MOL0     H75343   5.066   9.360   7.147 -1.0724  1.0063  2.1015
  571MOL0     H75344   5.023   9.293   6.915 -0.8168 -2.3491  0.2591
  571MOL0     H75345   4.881   9.250   7.014  2.0395 -0.4931  3.0526
  571MOL0     H75346   4.801   9.322   6.800  0.8435  0.6507 -0.6504
  571MOL0     H75347   4.893   9.466   6.804  1.9577 -2.9060 -2.1575
  571MOL0     H75348   4.725   9.518   7.012  1.5806  0.6236 -1.6741
  571MOL0     H75349   4.662   9.359   6.979  0.0714  0.4016  0.4006
  571MOL0     H75350   4.666   9.566   6.746  0.3096  0.7010  1.5317
  571MOL0     H75351   4.572   9.427   6.768  1.1554 -1.2759  1.7347
  571MOL0     H75352   4.441   9.624   6.825  1.0229  1.1447 -0.4684
  571MOL0     H75353   4.561   9.669   6.937 -1.5505 -0.0132  3.4092
  571MOL0     H75354   5.500   9.425   7.220  0.1327 -0.3486 -0.1442
  571MOL0     H75355   5.741   9.414   7.160 -3.0559 -0.6692  3.6307
  571MOL0     H75356   6.129   9.263   7.099 -1.3947 -3.5972 -3.9375
  571MOL0     H75357   6.374   9.323   7.059  1.2152  0.7742  0.4048
  571MOL0     H75358   7.875  10.374   6.726 -0.6647 -2.0299 -0.7055
  571MOL0     H75359   8.098  10.375   6.856 -0.6024  0.9653 -1.3180
  571MOL0     H75360   8.422  10.187   7.122  1.0762 -1.0104  1.7633
  571MOL0     H75361   8.657  10.188   7.215  0.2987 -1.9621 -0.4630
  571MOL0     H75362   8.938  10.460   7.042 -0.0931  1.0141  4.7940
  571MOL0     H75363   8.969  10.308   6.956 -1.3460 -1.1883  1.1565
  571MOL0     H75364   9.183  10.377   7.069 -0.4035  0.0478  0.4171
  571MOL0     H75365   9.098  10.395   7.218 -2.4927  0.6155  0.3058
  571MOL0     H75366   9.115  10.144   7.039 -2.2976 -2.2497  0.5737
  571MOL0     H75367   9.048  10.139   7.202 -0.1371 -0.0467 -0.4697
  571MOL0     H75368   9.261  10.207   7.301  1.3606  0.1873 -0.0225
  571MOL0     H75369   9.290  10.057   7.208  1.4522 -0.4557 -1.5866
  571MOL0     H75370   9.573  10.314   7.060  0.1057 -2.0023 -2.1309
  571MOL0     H75371   8.787  10.441   6.895  0.0594  1.0965  0.5651
  571MOL0     H75372   8.574  10.416   6.776 -1.6636  2.6953  1.2220
  572MOL0     O75373   4.865  10.751   4.192 -1.3470 -0.2240 -0.3021
  572MOL0     C75374   4.915  10.857   4.233 -0.6769 -0.3439  0.6095
  572MOL0     O75375   4.848  10.949   4.312  0.9395  0.1405 -0.4204
  572MOL0     C75376   4.709  10.959   4.311  0.3047  0.5800 -0.2845
  572MOL0     C75377   4.646  10.968   4.432  0.4799  0.9043 -0.6197
  572MOL0     C75378   4.511  10.975   4.441  0.7063 -0.5341 -0.4228
  572MOL0     C75379   4.432  10.963   4.328 -0.0174 -0.1341  0.6957
  572MOL0     O75380   4.296  10.983   4.324  0.2300 -0.5378 -0.1282
  572MOL0     C75381   4.230  11.017   4.446 -0.1589  0.1013 -0.3654
  572MOL0     C75382   4.083  11.017   4.433  0.2608  0.2042 -0.4300
  572MOL0     C75383   4.030  10.895   4.370  0.0802 -0.4261  0.2732
  572MOL0     C75384   3.888  10.928   4.326 -0.5606  0.1267 -0.6692
  572MOL0     C75385   3.829  10.811   4.262 -0.5163 -0.6307 -0.3515
  572MOL0     C75386   3.847  10.809   4.115  0.1743  0.1683 -0.0306
  572MOL0     C75387   3.787  10.678   4.054  0.3585 -0.0023  0.2477
  572MOL0     C75388   3.684  10.709   3.948  0.2156  0.2630 -0.0230
  572MOL0     N75389   3.740  10.748   3.811  0.1044 -0.1542 -0.9427
  572MOL0     C75390   3.769  10.872   3.768 -0.3692  0.6569 -0.3092
  572MOL0     C75391   3.774  10.871   3.640  0.6538 -0.3211  1.1009
  572MOL0     C75392   3.801  10.990   3.549  0.0765 -0.3194  0.9655
  572MOL0     C75393   3.954  11.012   3.540 -0.5135  0.6052 -0.0936
  572MOL0     C75394   4.024  10.883   3.489  1.2670  0.3387  0.7601
  572MOL0     C75395   4.169  10.912   3.455 -0.1430 -0.4305  0.5257
  572MOL0     O75396   4.242  10.907   3.579  0.1849  0.4110 -0.7293
  572MOL0     C75397   4.375  10.894   3.577 -0.6030  0.0325  0.1334
  572MOL0     C75398   4.431  10.857   3.698  0.6930 -0.3998 -0.7334
  572MOL0     C75399   4.571  10.840   3.721 -0.1971 -0.1805 -0.5245
  572MOL0     C75400   4.656  10.870   3.617 -0.4256  0.5213 -0.1736
  572MOL0     C75401   4.799  10.866   3.625 -0.5835 -0.4695 -0.4346
  572MOL0     O75402   4.846  10.909   3.741  0.0322 -0.6850 -0.5064
  572MOL0     C75403   4.983  10.923   3.757  0.3261 -0.7809 -0.0095
  572MOL0     C75404   5.063  10.814   3.756 -0.2058 -0.1698 -0.0768
  572MOL0     C75405   5.203  10.822   3.778 -0.8917  0.3015 -0.6549
  572MOL0     C75406   5.271  10.947   3.795  0.2116  0.6957 -0.0468
  572MOL0     O75407   5.399  10.937   3.841 -0.5932  0.1699  0.1010
  572MOL0     C75408   5.482  11.053   3.863 -0.5656  0.2454  0.3414
  572MOL0     C75409   5.620  11.001   3.895 -0.8146  0.4105  0.0052
  572MOL0     C75410   5.714  11.123   3.904 -0.0783  0.2285 -0.6082
  572MOL0     C75411   5.856  11.085   3.947 -0.0082  0.8157 -0.7082
  572MOL0     C75412   5.948  11.211   3.967  1.0279  0.1268  0.1273
  572MOL0     C75413   6.002  11.267   3.834  0.7730  0.6940 -0.1537
  572MOL0     C75414   6.087  11.387   3.845 -0.2832  0.4149 -0.0177
  572MOL0     C75415   6.206  11.382   3.755 -0.5453  0.3673  0.6884
  572MOL0    Cl75416   6.339  11.511   3.811  0.0099  0.2475 -0.0385
  572MOL0     C75417   5.192  11.065   3.788  0.3302  0.9286  0.6242
  572MOL0     C75418   5.046  11.051   3.766 -0.2671 -0.2108 -0.4697
  572MOL0     O75419   4.861  10.838   3.523 -0.5582 -0.3504 -0.2343
  572MOL0     C75420   4.600  10.889   3.488  0.1169 -0.8045 -0.0907
  572MOL0     C75421   4.461  10.913   3.471  0.3161  0.2208 -0.0217
  572MOL0     N75422   3.739  10.746   3.599  0.3049 -0.1513  0.5502
  572MOL0     N75423   3.714  10.674   3.702 -0.0618 -0.2546 -0.6252
  572MOL0     C75424   4.492  10.937   4.200  0.5458  0.0505 -1.4099
  572MOL0     C75425   4.635  10.927   4.191 -0.0247  0.7377  0.5073
  572MOL0     C75426   5.062  10.884   4.215 -0.3543  0.1858  0.0750
  572MOL0     C75427   5.133  10.802   4.126 -0.4968 -0.8014  0.1774
  572MOL0     C75428   5.281  10.809   4.130  0.9151 -0.0234 -0.3130
  572MOL0     C75429   5.343  10.889   4.225 -0.3815  0.3215  0.2672
  572MOL0     O75430   5.478  10.904   4.231  0.1978 -0.3010 -0.7912
  572MOL0     C75431   5.563  10.782   4.226  0.1790 -0.3939 -0.1189
  572MOL0     C75432   5.557  10.695   4.348  1.0385 -0.1203 -0.0701
  572MOL0     C75433   5.642  10.577   4.332 -0.1407  0.7074 -0.2682
  572MOL0     C75434   5.654  10.516   4.473 -0.1724 -0.0633  0.0591
  572MOL0     C75435   5.689  10.371   4.460 -0.0783  0.0090  1.3058
  572MOL0     C75436   5.706  10.254   4.425  1.3345  1.5033  0.1638
  572MOL0     C75437   5.266  10.966   4.305  0.9405 -0.3335 -0.4725
  572MOL0     C75438   5.131  10.955   4.316  0.0841 -0.1826  0.3644
  572MOL0     H75439   4.707  10.982   4.521  1.8461 -3.0965 -0.7187
  572MOL0     H75440   4.469  11.006   4.536  0.6415  1.1960 -0.9810
  572MOL0     H75441   4.266  11.119   4.465  0.4838 -0.4059  1.3275
  572MOL0     H75442   4.258  10.943   4.522  1.3525  0.5087 -0.4871
  572MOL0     H75443   4.056  11.108   4.378  2.3987  0.2342 -1.5184
  572MOL0     H75444   4.038  11.035   4.532 -3.9262  2.7051 -2.5106
  572MOL0     H75445   4.034  10.815   4.444 -1.3244 -0.6566  0.1184
  572MOL0     H75446   4.086  10.856   4.284 -2.0856 -1.4128 -0.7774
  572MOL0     H75447   3.831  10.954   4.416  1.4753  0.0425  0.7254
  572MOL0     H75448   3.886  11.020   4.268  0.7742 -0.0035 -0.9562
  572MOL0     H75449   3.722  10.825   4.279 -0.2036 -0.1608  1.3819
  572MOL0     H75450   3.876  10.722   4.305  3.7143  0.4401 -2.1621
  572MOL0     H75451   3.954  10.809   4.094 -0.1814  3.0480 -2.3769
  572MOL0     H75452   3.800  10.897   4.070 -1.6064 -1.9392 -2.6438
  572MOL0     H75453   3.866  10.628   3.998 -0.2420  2.1459 -2.7465
  572MOL0     H75454   3.750  10.614   4.134  1.2820  1.2574  1.7466
  572MOL0     H75455   3.617  10.790   3.978 -1.5573 -0.5040 -1.6939
  572MOL0     H75456   3.621  10.621   3.939  1.7573 -0.7232 -1.9430
  572MOL0     H75457   3.786  10.959   3.830 -0.5124 -0.0793  0.7797
  572MOL0     H75458   3.745  11.079   3.581  0.4448 -0.0681  0.9181
  572MOL0     H75459   3.776  10.970   3.445 -0.8298 -0.5992  1.2286
  572MOL0     H75460   4.001  11.051   3.631  0.9596 -0.9314 -0.1372
  572MOL0     H75461   3.964  11.095   3.470 -0.2523  1.3571  0.8220
  572MOL0     H75462   4.024  10.801   3.561  2.2869  0.9892  1.5301
  572MOL0     H75463   3.965  10.841   3.407  2.5795 -2.1663  0.9975
  572MOL0     H75464   4.188  11.011   3.412  1.0550 -1.2870 -1.0030
  572MOL0     H75465   4.200  10.842   3.377  2.9379 -1.2637  2.3277
  572MOL0     H75466   4.361  10.829   3.777 -0.5803  3.0668 -0.4367
  572MOL0     H75467   4.615  10.818   3.818  3.6591 -3.2784 -2.6857
  572MOL0     H75468   5.011  10.720   3.739  0.6177 -0.3987 -1.4999
  572MOL0     H75469   5.267  10.734   3.785 -0.3784  0.6119 -1.3458
  572MOL0     H75470   5.447  11.110   3.949  0.4338 -0.7208  1.4191
  572MOL0     H75471   5.492  11.105   3.767  0.3739 -1.8637 -0.7642
  572MOL0     H75472   5.649  10.932   3.815 -1.5723 -3.1035  2.5162
  572MOL0     H75473   5.623  10.952   3.993 -1.6809 -1.7343 -0.9610
  572MOL0     H75474   5.675  11.188   3.983  1.6215  1.4169 -0.6837
  572MOL0     H75475   5.705  11.174   3.808 -2.7505 -0.1651 -0.6546
  572MOL0     H75476   5.857  11.038   4.046  1.9643  2.3920  0.1010
  572MOL0     H75477   5.907  11.022   3.875  3.4498  0.5001  1.7625
  572MOL0     H75478   6.030  11.178   4.031  0.9757 -1.1619 -0.4478
  572MOL0     H75479   5.887  11.292   4.009 -1.3274 -0.0263 -2.6622
  572MOL0     H75480   5.923  11.280   3.760  1.3184 -0.2105 -0.9272
  572MOL0     H75481   6.058  11.181   3.794  0.6413 -0.5422  2.1535
  572MOL0     H75482   6.030  11.479   3.826  3.5586  2.7368 -1.4008
  572MOL0     H75483   6.130  11.398   3.945  1.2662  0.4814 -0.6660
  572MOL0     H75484   6.179  11.406   3.652 -1.0986 -1.6773  0.3023
  572MOL0     H75485   6.263  11.288   3.756 -0.4632  0.4139  0.5435
  572MOL0     H75486   5.233  11.165   3.791 -0.1825  1.2475 -1.5082
  572MOL0     H75487   4.972  11.128   3.745 -1.7388 -1.0710  1.2543
  572MOL0     H75488   4.662  10.901   3.399 -0.9278 -0.2851 -0.7706
  572MOL0     H75489   4.409  10.935   3.378 -4.1522 -0.7808  1.9494
  572MOL0     H75490   4.425  10.916   4.117  0.3447 -2.4339 -0.6905
  572MOL0     H75491   4.687  10.897   4.101 -0.5871 -2.8928  1.2137
  572MOL0     H75492   5.069  10.744   4.060  0.4388 -0.0137 -1.4782
  572MOL0     H75493   5.336  10.751   4.057 -1.7110 -2.0410 -0.8472
  572MOL0     H75494   5.663  10.827   4.223 -0.4560  1.0558 -2.8789
  572MOL0     H75495   5.561  10.723   4.134 -0.1577 -0.9304  0.2290
  572MOL0     H75496   5.596  10.752   4.433  1.3918  1.6521 -1.3779
  572MOL0     H75497   5.457  10.657   4.368  0.8646  1.3847  2.2749
  572MOL0     H75498   5.741  10.604   4.296 -0.7445  1.6450 -1.2582
  572MOL0     H75499   5.596  10.501   4.268 -2.2692  1.8420 -0.1743
  572MOL0     H75500   5.736  10.562   4.529 -0.8463 -0.2363  1.2260
  572MOL0     H75501   5.560  10.524   4.528  0.0330 -1.2362  0.6278
  572MOL0     H75502   5.736  10.160   4.383 -2.0752  1.1200 -1.7808
  572MOL0     H75503   5.321  11.035   4.368 -1.9820 -0.6212  2.6755
  572MOL0     H75504   5.081  11.013   4.393 -3.3400 -4.8391  2.0922
  573MOL0     O75505   5.807   0.040  10.841 -0.8283 -0.2723 -0.3031
  573MOL0     C75506   5.877   0.102  10.761 -1.1015 -0.3792  0.3862
  573MOL0     O75507   5.887   0.235  10.747  0.0119  0.0473 -0.4296
  573MOL0     C75508   5.828   0.327  10.837 -0.0254  0.9215  0.0296
  573MOL0     C75509   5.849   0.324  10.972 -0.3445  0.3963 -0.4116
  573MOL0     C75510   5.796   0.409  11.066  0.3265 -0.0473 -0.0783
  573MOL0     C75511   5.701   0.500  11.023  0.3725 -0.5836  0.0414
  573MOL0     O75512   5.639   0.595  11.101 -1.1619  0.2165 -0.5895
  573MOL0     C75513   5.573   0.552  11.224  0.4327 -0.0081 -0.7146
  573MOL0     C75514   5.482   0.667  11.270  0.0723  0.0876 -0.4559
  573MOL0     C75515   5.403   0.618  11.395 -0.4697  0.2227  0.3053
  573MOL0     C75516   5.365   0.747  11.471 -0.1277  0.4771  0.3127
  573MOL0     C75517   5.272   0.715  11.583 -0.3769 -0.2266 -0.0428
  573MOL0     C75518   5.233   0.856  11.639  0.3701  0.0955 -0.4159
  573MOL0     C75519   5.136   0.840  11.759  0.5103 -0.0337 -0.1288
  573MOL0     C75520   5.056   0.974  11.764 -0.2537 -0.0023 -0.0507
  573MOL0     N75521   4.956   0.975  11.875  0.3348 -0.0496 -1.0243
  573MOL0     C75522   4.935   0.879  11.973 -0.5462 -0.2176  0.5037
  573MOL0     C75523   4.840   0.931  12.052 -0.1994  1.1513  0.1078
  573MOL0     C75524   4.782   0.852  12.169  0.4192 -1.0054 -0.0072
  573MOL0     C75525   4.656   0.922  12.225 -0.4408 -0.3790  0.0059
  573MOL0     C75526   4.527   0.912  12.145  1.3727 -0.3784  0.1520
  573MOL0     C75527   4.411   0.924  12.243 -0.7678 -0.5187  0.5722
  573MOL0     O75528   4.395   1.063  12.290 -0.0686  0.7094  0.1951
  573MOL0     C75529   4.279   1.125  12.261 -0.5160  0.6221  0.3619
  573MOL0     C75530   4.162   1.069  12.213 -0.2695  0.1029 -0.1602
  573MOL0     C75531   4.060   1.155  12.165 -0.1006  0.2019  0.4162
  573MOL0     C75532   4.070   1.293  12.183 -0.1605 -0.9220  0.3396
  573MOL0     C75533   3.958   1.384  12.133  0.2011  1.4669  0.1724
  573MOL0     O75534   3.860   1.326  12.055 -0.2253  0.0938 -0.4741
  573MOL0     C75535   3.756   1.407  12.011  0.3758  0.6833  0.5939
  573MOL0     C75536   3.680   1.469  12.108  0.3318 -0.0525  0.0515
  573MOL0     C75537   3.559   1.531  12.069 -0.5621  0.4276 -0.1155
  573MOL0     C75538   3.512   1.527  11.937 -0.2175  0.6855 -0.0043
  573MOL0     O75539   3.396   1.583  11.892  0.3520  0.7416 -0.7807
  573MOL0     C75540   3.274   1.555  11.975 -0.3013 -0.0204  0.1086
  573MOL0     C75541   3.248   1.689  12.051 -1.0526 -0.5258 -0.2563
  573MOL0     C75542   3.252   1.807  11.954 -0.0246  1.2142 -0.3943
  573MOL0     C75543   3.186   1.937  12.015  0.0894  0.8470  0.5519
  573MOL0     C75544   3.194   2.057  11.917  0.0378  0.4881 -0.3276
  573MOL0     C75545   3.332   2.111  11.891 -1.0535  0.7107 -1.0391
  573MOL0     C75546   3.395   2.173  12.020  0.2588  0.8183  0.4971
  573MOL0     C75547   3.521   2.260  11.993 -0.2178  0.0423 -0.1646
  573MOL0    Cl75548   3.649   2.157  11.930  0.2903  0.0528  0.1109
  573MOL0     C75549   3.591   1.463  11.842  0.0344  0.2333 -0.4594
  573MOL0     C75550   3.704   1.402  11.879 -0.8929 -0.3810 -1.0638
  573MOL0     O75551   3.956   1.502  12.162  0.4477 -0.2099  0.1047
  573MOL0     C75552   4.188   1.352  12.220 -0.6782  0.3135 -0.0880
  573MOL0     C75553   4.290   1.263  12.269  0.2522 -0.2058 -0.1425
  573MOL0     N75554   4.808   1.054  12.004  0.0463  0.4281 -0.7583
  573MOL0     N75555   4.882   1.082  11.894  0.9178 -0.0483 -0.2452
  573MOL0     C75556   5.675   0.510  10.883 -0.0392 -0.1211 -0.1214
  573MOL0     C75557   5.733   0.418  10.795 -0.1545  0.4451 -0.7894
  573MOL0     C75558   5.955   0.020  10.661  0.2110  0.3754 -0.3681
  573MOL0     C75559   6.030   0.089  10.561 -0.1574 -0.6387  0.0795
  573MOL0     C75560   6.107   0.015  10.476  0.2640 -0.0506 -0.2440
  573MOL0     C75561   6.116  -0.128  10.484  0.3876  0.0772 -1.7807
  573MOL0     O75562   6.222  -0.185  10.424  0.9983 -0.1160 -0.0208
  573MOL0     C75563   6.219  -0.228  10.289 -0.7395  0.3516 -0.2885
  573MOL0     C75564   6.113  -0.338  10.263 -0.3049  0.6717  0.0157
  573MOL0     C75565   6.133  -0.407  10.124  0.2830 -0.3648 -0.0788
  573MOL0     C75566   6.013  -0.509  10.107  0.3191 -0.2322  0.5122
  573MOL0     C75567   6.026  -0.638  10.186  0.5284 -0.2014  0.4436
  573MOL0     C75568   6.021  -0.747  10.243  0.9622 -0.1642  0.7864
  573MOL0     C75569   6.044  -0.195  10.586  0.3503 -0.2032  0.1397
  573MOL0     C75570   5.958  -0.120  10.669 -0.4760  0.0261 -0.2877
  573MOL0     H75571   5.930   0.259  11.005  0.6037  2.9690  2.9696
  573MOL0     H75572   5.836   0.403  11.166  0.2933 -1.5568 -0.1212
  573MOL0     H75573   5.638   0.527  11.309 -1.4214 -0.4446  0.6406
  573MOL0     H75574   5.500   0.474  11.201 -0.3470  1.0454 -1.8986
  573MOL0     H75575   5.416   0.696  11.188 -1.0004 -1.6688 -0.2559
  573MOL0     H75576   5.545   0.753  11.297  0.6546 -1.0869  2.2960
  573MOL0     H75577   5.461   0.550  11.458 -0.3362  0.3034  0.2719
  573MOL0     H75578   5.320   0.557  11.357  0.8000 -2.5242  1.6902
  573MOL0     H75579   5.455   0.794  11.512  0.8875 -0.2235 -1.0159
  573MOL0     H75580   5.320   0.806  11.390 -0.3422 -2.0751 -1.5594
  573MOL0     H75581   5.302   0.642  11.659  2.1382  2.3530  1.6680
  573MOL0     H75582   5.187   0.665  11.535 -1.0298  0.0966  0.7551
  573MOL0     H75583   5.186   0.908  11.555 -0.1403 -2.1852 -1.6114
  573MOL0     H75584   5.321   0.915  11.666 -0.9405  2.1236 -0.3830
  573MOL0     H75585   5.060   0.763  11.748 -0.1989  0.4600  1.1391
  573MOL0     H75586   5.198   0.823  11.847  2.1083 -2.7163 -1.6111
  573MOL0     H75587   5.002   0.994  11.671  1.0346  0.4675 -0.7289
  573MOL0     H75588   5.131   1.053  11.766 -0.9990  0.7627 -1.2903
  573MOL0     H75589   4.978   0.780  11.985  0.1574  0.2568  2.3017
  573MOL0     H75590   4.858   0.842  12.247 -1.5691  0.1474  2.2023
  573MOL0     H75591   4.765   0.749  12.136  1.7357 -1.7120  1.4037
  573MOL0     H75592   4.686   1.023  12.256  4.2958 -1.4254 -0.3852
  573MOL0     H75593   4.640   0.876  12.323 -1.2378  0.8381  0.4637
  573MOL0     H75594   4.518   0.985  12.064 -4.3158 -0.4157  0.3207
  573MOL0     H75595   4.540   0.812  12.105  2.3719 -0.3283  0.3367
  573MOL0     H75596   4.430   0.854  12.325 -0.1652  0.3559  1.1980
  573MOL0     H75597   4.329   0.879  12.185  1.3780 -2.5660 -1.0464
  573MOL0     H75598   4.162   0.960  12.211  1.8651  0.0057  1.1539
  573MOL0     H75599   3.966   1.126  12.119 -1.8509  3.5025  1.6100
  573MOL0     H75600   3.711   1.465  12.212  1.6746  2.0527 -0.2116
  573MOL0     H75601   3.503   1.575  12.151  2.4664  2.1651  1.1624
  573MOL0     H75602   3.293   1.465  12.034  0.3985 -1.6811 -2.4798
  573MOL0     H75603   3.193   1.533  11.904  2.2292 -1.9288 -2.3946
  573MOL0     H75604   3.319   1.717  12.130  0.8812  1.1840 -2.4232
  573MOL0     H75605   3.147   1.672  12.089 -1.5695 -5.2189 -2.9526
  573MOL0     H75606   3.205   1.782  11.858  1.2692  0.9402 -0.9934
  573MOL0     H75607   3.358   1.826  11.932  0.8431 -0.8063  1.6157
  573MOL0     H75608   3.081   1.919  12.038 -0.1215  1.8588  0.4475
  573MOL0     H75609   3.239   1.973  12.104  2.1336  0.1794 -0.3183
  573MOL0     H75610   3.134   2.132  11.970 -1.7132 -2.4559  2.2128
  573MOL0     H75611   3.156   2.032  11.818  1.1764 -0.3677 -0.5586
  573MOL0     H75612   3.332   2.197  11.825 -0.7277  3.5502  2.3529
  573MOL0     H75613   3.395   2.028  11.858 -3.1864 -1.7965  0.6949
  573MOL0     H75614   3.315   2.223  12.076 -0.8700 -2.3702  1.9322
  573MOL0     H75615   3.418   2.098  12.095  1.2452 -0.3007 -0.8769
  573MOL0     H75616   3.559   2.313  12.081  1.6154  2.7703 -2.3983
  573MOL0     H75617   3.492   2.338  11.921 -1.7952 -1.8267 -1.6898
  573MOL0     H75618   3.550   1.459  11.742  0.1583 -2.0142 -0.4554
  573MOL0     H75619   3.765   1.346  11.809  1.8985 -0.0911  0.9675
  573MOL0     H75620   4.193   1.460  12.214  0.7325  0.2805  0.0831
  573MOL0     H75621   4.386   1.300  12.304  0.9351 -0.4681 -1.6473
  573MOL0     H75622   5.603   0.579  10.840  0.9923  0.8854 -0.2670
  573MOL0     H75623   5.712   0.429  10.689  1.1099 -2.1112 -1.3737
  573MOL0     H75624   6.018   0.197  10.552 -0.6956 -0.8545 -2.9100
  573MOL0     H75625   6.175   0.057  10.402  0.4246 -0.3857 -0.2914
  573MOL0     H75626   6.317  -0.264  10.254 -1.6933  0.3646 -3.2369
  573MOL0     H75627   6.198  -0.140  10.228 -0.1995  0.6821 -0.0127
  573MOL0     H75628   6.118  -0.417  10.338 -2.2825  0.3406 -0.1440
  573MOL0     H75629   6.017  -0.285  10.268 -0.8291 -0.3229  0.8120
  573MOL0     H75630   6.229  -0.459  10.121  0.3780 -0.5406  2.9650
  573MOL0     H75631   6.124  -0.329  10.048 -3.7666 -0.2460  0.3140
  573MOL0     H75632   5.911  -0.473  10.126 -0.6310 -1.7194 -1.3843
  573MOL0     H75633   6.010  -0.534  10.000 -0.0116 -1.7206  0.8526
  573MOL0     H75634   6.023  -0.845  10.285  1.8652 -0.6625 -0.3803
  573MOL0     H75635   6.054  -0.303  10.587 -0.7135 -0.3872 -1.9096
  573MOL0     H75636   5.899  -0.178  10.739  2.0130 -0.6019  1.4092
  574MOL0     O75637   7.699   3.068   0.351 -0.1773 -0.3385 -0.2234
  574MOL0     C75638   7.703   2.966   0.291  0.0218  0.9918  0.0960
  574MOL0     O75639   7.605   2.915   0.213  0.1469  0.8070 -0.9567
  574MOL0     C75640   7.484   2.980   0.212  0.5176  0.0518  0.4147
  574MOL0     C75641   7.371   2.902   0.240  0.5478 -0.6820 -0.3838
  574MOL0     C75642   7.242   2.961   0.227  0.2135  0.7086 -1.0375
  574MOL0     C75643   7.230   3.085   0.181 -0.3096 -0.7291 -0.0122
  574MOL0     O75644   7.101   3.125   0.155  0.0548 -0.2182 -0.2699
  574MOL0     C75645   7.088   3.254   0.088 -0.4259 -0.4766 -0.1601
  574MOL0     C75646   6.955   3.247   0.010  0.5264 -0.4133 -0.0904
  574MOL0     C75647   6.841   3.244   0.106  0.4147 -0.1765 -0.6120
  574MOL0     C75648   6.715   3.216   0.030  0.2902  0.3857  0.9949
  574MOL0     C75649   6.584   3.258   0.104 -1.2370 -0.0532  0.1599
  574MOL0     C75650   6.467   3.226   0.002 -0.1081 -0.1250 -0.2023
  574MOL0     C75651   6.340   3.233   0.082 -0.8563 -0.5008 -0.5545
  574MOL0     C75652   6.216   3.201   0.005  0.0143  0.8024 -0.3852
  574MOL0     N75653   6.103   3.216   0.091 -0.1583  0.2548 -0.4984
  574MOL0     C75654   6.017   3.108   0.114 -0.2517 -0.6041  0.0829
  574MOL0     C75655   5.900   3.172   0.138  0.8491 -0.9593  0.1010
  574MOL0     C75656   5.764   3.102   0.150  0.2385 -0.2218 -0.3137
  574MOL0     C75657   5.660   3.199   0.189  0.4373  0.2781  0.3281
  574MOL0     C75658   5.522   3.128   0.184 -0.0605  0.2318  0.2347
  574MOL0     C75659   5.422   3.219   0.240 -0.1349 -0.4602  0.8482
  574MOL0     O75660   5.300   3.198   0.162 -0.1216  0.0354  0.4855
  574MOL0     C75661   5.179   3.203   0.242  0.7516  0.7454 -0.0749
  574MOL0     C75662   5.069   3.151   0.177 -1.0135 -0.1413  0.1674
  574MOL0     C75663   4.939   3.170   0.222  0.2930 -0.0605 -0.6158
  574MOL0     C75664   4.920   3.243   0.347 -0.0826 -0.2187 -0.9863
  574MOL0     C75665   4.789   3.283   0.405  0.5317  0.0550 -0.2822
  574MOL0     O75666   4.782   3.389   0.483  0.1776 -0.5232 -0.2304
  574MOL0     C75667   4.669   3.451   0.539  0.5016  0.2222  0.0618
  574MOL0     C75668   4.530   3.448   0.508 -0.3169  0.4173  0.9451
  574MOL0     C75669   4.441   3.517   0.586  0.8673  0.1549 -0.7022
  574MOL0     C75670   4.485   3.595   0.699  0.9380 -0.5025  0.6837
  574MOL0     O75671   4.401   3.660   0.787  0.4912 -0.4974 -0.5553
  574MOL0     C75672   4.261   3.673   0.758 -0.0412  0.2167  0.1171
  574MOL0     C75673   4.193   3.766   0.853  0.1381 -0.6933 -0.4569
  574MOL0     C75674   4.039   3.757   0.851 -0.0005  0.0545 -0.4860
  574MOL0     C75675   3.993   3.835   0.728  0.8475  1.1993  0.0311
  574MOL0     C75676   3.844   3.826   0.722  0.9476  0.0158 -0.1586
  574MOL0     C75677   3.789   3.887   0.586  0.7579  0.6378 -0.5346
  574MOL0     C75678   3.641   3.857   0.563  0.0230 -0.4034 -0.3609
  574MOL0     C75679   3.604   3.912   0.430 -0.1862 -0.6796 -0.1174
  574MOL0    Cl75680   3.666   3.805   0.296 -0.1041  0.0094 -0.3420
  574MOL0     C75681   4.619   3.603   0.727 -0.3282  0.6214 -0.4310
  574MOL0     C75682   4.717   3.531   0.643 -0.7028 -0.0694 -0.0064
  574MOL0     O75683   4.697   3.209   0.382  0.2839 -0.4461  0.3357
  574MOL0     C75684   5.041   3.296   0.414  0.7471  0.7952 -0.0095
  574MOL0     C75685   5.166   3.267   0.365  0.4443  0.2990  0.0559
  574MOL0     N75686   5.913   3.315   0.134 -0.3971  0.1007  0.2305
  574MOL0     N75687   6.031   3.332   0.103  0.5338 -0.7297  0.6311
  574MOL0     C75688   7.342   3.165   0.157 -0.9645  0.4374 -0.0855
  574MOL0     C75689   7.474   3.111   0.167  0.0619 -0.3834  0.9067
  574MOL0     C75690   7.836   2.882   0.293  0.5298  0.2461  0.2871
  574MOL0     C75691   7.947   2.920   0.363 -0.4206 -0.3656  0.0605
  574MOL0     C75692   8.071   2.842   0.352 -0.6634 -0.1727 -0.5753
  574MOL0     C75693   8.076   2.725   0.273 -0.5282 -1.7561  0.4672
  574MOL0     O75694   8.202   2.669   0.248  0.9294 -0.0637 -0.4479
  574MOL0     C75695   8.226   2.582   0.146 -0.2576  0.5202  0.0831
  574MOL0     C75696   8.377   2.594   0.116 -0.1832  0.6394  0.0477
  574MOL0     C75697   8.470   2.559   0.244  0.4431  0.1255  0.2877
  574MOL0     C75698   8.614   2.567   0.206 -0.9798 -0.3070  0.2010
  574MOL0     C75699   8.692   2.561   0.330  0.8819  0.5544  0.5334
  574MOL0     C75700   8.751   2.549   0.436 -0.5247  0.3096  0.4532
  574MOL0     C75701   7.960   2.687   0.210  0.2444 -0.1953 -0.6008
  574MOL0     C75702   7.845   2.762   0.217 -0.1091  0.1369  0.5685
  574MOL0     H75703   7.386   2.797   0.264  0.4167 -0.1974  2.0335
  574MOL0     H75704   7.151   2.905   0.242  0.0098  1.3889  0.4058
  574MOL0     H75705   7.167   3.262   0.013  0.0063 -1.5494  0.1504
  574MOL0     H75706   7.085   3.342   0.152 -2.0220 -0.7810  0.2325
  574MOL0     H75707   6.946   3.160  -0.056  0.2842 -0.7524  0.3808
  574MOL0     H75708   6.950   3.338  -0.050 -1.2365  0.0616  0.7284
  574MOL0     H75709   6.825   3.336   0.163 -0.8382 -1.0150  0.4547
  574MOL0     H75710   6.869   3.167   0.179  2.0803  0.4294 -0.5588
  574MOL0     H75711   6.721   3.268  -0.066 -1.2024  1.5648  1.5056
  574MOL0     H75712   6.705   3.107   0.019  2.1134  0.1291  1.5221
  574MOL0     H75713   6.588   3.363   0.134 -2.4410 -0.4217  1.7183
  574MOL0     H75714   6.579   3.198   0.196  0.2454  4.7694  3.8303
  574MOL0     H75715   6.477   3.131  -0.051  1.3750  1.5376 -3.1147
  574MOL0     H75716   6.456   3.294  -0.083 -1.8994 -1.0196 -0.7348
  574MOL0     H75717   6.339   3.158   0.162 -1.1786  1.3012  1.2268
  574MOL0     H75718   6.335   3.333   0.127 -1.1634 -0.9920  0.5376
  574MOL0     H75719   6.228   3.096  -0.024  2.5555  0.3639  1.8291
  574MOL0     H75720   6.202   3.256  -0.088 -1.7859 -0.1877 -0.7373
  574MOL0     H75721   6.025   3.000   0.109 -2.4462 -0.8506  0.9682
  574MOL0     H75722   5.766   3.035   0.236  3.1291  1.7552  1.3067
  574MOL0     H75723   5.732   3.051   0.059  0.8007  2.0902 -1.8941
  574MOL0     H75724   5.661   3.272   0.108 -0.2288 -1.4482 -1.3107
  574MOL0     H75725   5.668   3.248   0.286  0.8600 -1.0830  1.0198
  574MOL0     H75726   5.498   3.112   0.078 -2.5625  1.8608  0.4842
  574MOL0     H75727   5.525   3.037   0.244 -2.0984  2.3052  3.8223
  574MOL0     H75728   5.452   3.323   0.228 -0.8234 -0.4654 -1.2229
  574MOL0     H75729   5.416   3.207   0.349  1.7410 -0.3723  1.0029
  574MOL0     H75730   5.094   3.102   0.083  1.1610  0.3044  0.4480
  574MOL0     H75731   4.858   3.121   0.168 -0.6277 -1.9423  2.2369
  574MOL0     H75732   4.485   3.406   0.418 -1.0765  1.1487  0.9716
  574MOL0     H75733   4.335   3.515   0.567  0.3393  1.1541  1.6846
  574MOL0     H75734   4.219   3.577   0.786  1.9187 -0.2515  1.7019
  574MOL0     H75735   4.245   3.713   0.657  3.4544  1.4397 -0.0941
  574MOL0     H75736   4.229   3.869   0.839 -0.8975 -0.0662  1.1555
  574MOL0     H75737   4.229   3.741   0.954  0.1108 -0.4012 -0.3732
  574MOL0     H75738   3.994   3.803   0.940  0.4025 -2.4169  1.0890
  574MOL0     H75739   4.010   3.652   0.845 -1.5478  0.4607 -0.5336
  574MOL0     H75740   4.021   3.938   0.747  0.2356  1.2908  0.4672
  574MOL0     H75741   4.042   3.788   0.642  0.0664  0.3885  0.0149
  574MOL0     H75742   3.782   3.881   0.793 -3.0579 -1.0850 -2.5001
  574MOL0     H75743   3.819   3.720   0.726  1.0872  0.0242  1.9345
  574MOL0     H75744   3.835   3.826   0.507 -0.6266 -2.2778  0.7469
  574MOL0     H75745   3.811   3.993   0.573 -0.9394  1.1043  0.1538
  574MOL0     H75746   3.610   3.752   0.554 -0.6650 -0.0119 -4.5753
  574MOL0     H75747   3.568   3.905   0.629 -0.7452 -1.3376 -0.4948
  574MOL0     H75748   3.645   4.013   0.434 -0.3987 -0.5807 -0.4564
  574MOL0     H75749   3.497   3.923   0.411  0.0418 -0.6661 -1.4870
  574MOL0     H75750   4.644   3.671   0.808  0.7647  0.8051 -0.9020
  574MOL0     H75751   4.820   3.540   0.674  0.2674 -3.0967 -1.8898
  574MOL0     H75752   5.031   3.359   0.502 -2.9020  1.9994 -1.0837
  574MOL0     H75753   5.249   3.300   0.425 -0.7215 -2.1557  3.3010
  574MOL0     H75754   7.344   3.268   0.121  2.6437  0.3069 -0.5987
  574MOL0     H75755   7.561   3.172   0.146 -0.9544  0.6731 -0.4685
  574MOL0     H75756   7.933   3.006   0.428 -2.4491  0.9262 -1.9216
  574MOL0     H75757   8.162   2.864   0.406 -0.6176  2.2610 -1.5037
  574MOL0     H75758   8.165   2.606   0.058  1.2978  0.8882 -0.9286
  574MOL0     H75759   8.203   2.480   0.177  0.9897  0.3446  0.4875
  574MOL0     H75760   8.407   2.529   0.033  0.9634  0.6936  0.3995
  574MOL0     H75761   8.396   2.699   0.092  0.9988  0.8729  1.7831
  574MOL0     H75762   8.450   2.465   0.295 -1.3876  0.6455  0.5663
  574MOL0     H75763   8.448   2.639   0.316 -1.1463 -0.1402  0.1156
  574MOL0     H75764   8.629   2.479   0.144  1.4740 -2.0760  3.0179
  574MOL0     H75765   8.640   2.660   0.154  0.6562  0.2232  1.8216
  574MOL0     H75766   8.806   2.550   0.528  0.9671 -1.0769 -0.3690
  574MOL0     H75767   7.961   2.596   0.152 -1.9587 -0.1275 -0.8638
  574MOL0     H75768   7.754   2.710   0.189 -0.5053  0.1603  1.7547
  575MOL0     O75769   2.447   2.819   5.993  0.4735 -0.4923  0.4002
  575MOL0     C75770   2.473   2.704   5.954  0.2165 -0.9378  0.0122
  575MOL0     O75771   2.387   2.599   5.965  0.3931 -0.6637 -0.3306
  575MOL0     C75772   2.261   2.630   5.995 -0.2163  0.4909 -0.2698
  575MOL0     C75773   2.212   2.587   6.120  0.1800 -0.3475 -0.5977
  575MOL0     C75774   2.082   2.614   6.161 -0.8979 -0.9487 -0.5715
  575MOL0     C75775   2.000   2.700   6.092 -1.0533  0.7472  0.6416
  575MOL0     O75776   1.880   2.731   6.141  0.7428  0.1625  0.1988
  575MOL0     C75777   1.850   2.871   6.163 -1.2204 -0.5888  0.4250
  575MOL0     C75778   1.725   2.901   6.246 -0.3572  0.2307  0.2941
  575MOL0     C75779   1.592   2.848   6.186 -0.8216 -0.2143  0.0839
  575MOL0     C75780   1.472   2.870   6.280 -0.0713 -0.2396  0.1053
  575MOL0     C75781   1.341   2.816   6.219  0.3920  0.9077  0.3026
  575MOL0     C75782   1.218   2.844   6.304 -0.2053  0.4417  0.1198
  575MOL0     C75783   1.189   2.987   6.327 -0.1391  0.4403 -0.4611
  575MOL0     C75784   1.054   2.999   6.386  0.5255 -0.1796 -0.8904
  575MOL0     N75785   1.016   3.144   6.393 -0.5172  0.1178 -0.0809
  575MOL0     C75786   1.028   3.221   6.510 -0.7535 -0.4598 -0.1061
  575MOL0     C75787   0.947   3.322   6.488 -0.4516 -0.5413  0.4476
  575MOL0     C75788   0.904   3.427   6.578  0.3250  0.7929 -0.3996
  575MOL0     C75789   0.822   3.380   6.701 -0.7759 -0.9597 -0.1289
  575MOL0     C75790   0.687   3.349   6.661  0.0137  0.1177  0.0362
  575MOL0     C75791   0.593   3.314   6.776 -0.0173 -0.2534 -0.3934
  575MOL0     O75792   0.461   3.337   6.729 -0.0761  0.3693 -0.2616
  575MOL0     C75793   0.368   3.284   6.818 -0.7647  0.3108  0.3954
  575MOL0     C75794   0.356   3.316   6.954  0.7933  0.9778 -1.3365
  575MOL0     C75795   0.247   3.283   7.034 -0.1656 -0.4693  0.2779
  575MOL0     C75796   0.141   3.222   6.972  0.4131 -0.2884 -0.3172
  575MOL0     C75797   0.025   3.176   7.044  1.0983  0.2086 -0.2881
  575MOL0     O75798   0.009   3.222   7.173  0.0413 -0.0780 -0.4274
  575MOL0     C75799  -0.083   3.170   7.259 -1.2288  0.5616 -0.0810
  575MOL0     C75800  -0.204   3.107   7.219  0.9168  0.0032  0.6273
  575MOL0     C75801  -0.300   3.072   7.316 -0.2021  0.9786 -0.5547
  575MOL0     C75802  -0.277   3.104   7.455  0.3192 -1.0596  0.3720
  575MOL0     O75803  -0.360   3.056   7.549 -0.1501  0.0503 -0.6880
  575MOL0     C75804  -0.496   3.091   7.535 -0.1049  0.2229 -0.4052
  575MOL0     C75805  -0.583   3.015   7.635  0.0530 -0.8902  0.3034
  575MOL0     C75806  -0.567   3.068   7.785  0.5096  0.2225  0.1167
  575MOL0     C75807  -0.644   2.985   7.890 -0.1763 -0.5102 -0.1850
  575MOL0     C75808  -0.668   3.070   8.014 -0.4965  0.1965  0.2488
  575MOL0     C75809  -0.557   3.053   8.126 -0.1829 -0.6604 -0.2495
  575MOL0     C75810  -0.599   3.106   8.265 -0.0864 -0.5238 -0.8906
  575MOL0     C75811  -0.483   3.116   8.367 -0.0529  0.0649  0.1389
  575MOL0    Cl75812  -0.418   2.951   8.402  0.2342  0.5124  0.1054
  575MOL0     C75813  -0.156   3.169   7.492  0.5617 -0.4348  0.2625
  575MOL0     C75814  -0.056   3.194   7.394  0.5555  0.1345  0.0051
  575MOL0     O75815  -0.049   3.093   6.982 -0.3725 -0.1871 -0.7777
  575MOL0     C75816   0.144   3.205   6.829 -0.2138  0.4671 -0.1281
  575MOL0     C75817   0.264   3.226   6.756  0.8190 -0.1826 -0.7234
  575MOL0     N75818   0.889   3.315   6.362 -0.4517 -0.0910  0.1369
  575MOL0     N75819   0.927   3.208   6.312 -0.5980  0.2656 -0.1749
  575MOL0     C75820   2.053   2.746   5.972 -1.3350 -0.7813 -0.0548
  575MOL0     C75821   2.178   2.710   5.924  0.6871 -0.8465 -0.8130
  575MOL0     C75822   2.599   2.679   5.886  0.0581 -0.0187 -0.2902
  575MOL0     C75823   2.698   2.779   5.890  0.1335  0.3802  0.5452
  575MOL0     C75824   2.817   2.760   5.825 -0.4182  0.4558 -0.2196
  575MOL0     C75825   2.848   2.636   5.771 -0.3125 -0.6430 -0.0837
  575MOL0     O75826   2.968   2.595   5.719 -0.4090 -0.4214 -0.4679
  575MOL0     C75827   3.075   2.692   5.705 -0.0400  0.7510  0.4415
  575MOL0     C75828   3.171   2.682   5.822 -0.5073 -0.5678  0.4600
  575MOL0     C75829   3.313   2.735   5.781 -0.0659  0.7307  0.8062
  575MOL0     C75830   3.408   2.706   5.893  0.1417  0.2168  0.0187
  575MOL0     C75831   3.529   2.780   5.883  0.3939  0.2158 -0.7405
  575MOL0     C75832   3.639   2.833   5.880  0.7296 -0.0383 -0.5816
  575MOL0     C75833   2.763   2.531   5.780 -0.6502  0.7699 -0.2910
  575MOL0     C75834   2.642   2.555   5.842 -0.3813  0.2746 -0.2039
  575MOL0     H75835   2.274   2.525   6.184 -1.4248 -0.7146  0.6481
  575MOL0     H75836   2.044   2.589   6.260  3.1820 -0.5834  1.2982
  575MOL0     H75837   1.834   2.926   6.070  0.0970 -0.6978  0.1175
  575MOL0     H75838   1.939   2.919   6.205  0.6552 -1.9174 -1.8087
  575MOL0     H75839   1.727   3.010   6.245 -1.1695  0.2526 -0.7665
  575MOL0     H75840   1.755   2.867   6.346  3.3664  1.1710 -0.3580
  575MOL0     H75841   1.597   2.739   6.176 -2.9287 -0.2344 -1.4294
  575MOL0     H75842   1.577   2.881   6.083 -2.6934 -1.1759 -0.0066
  575MOL0     H75843   1.486   2.826   6.380  0.1871  0.2843  0.3052
  575MOL0     H75844   1.467   2.979   6.287  0.0628 -0.2038 -0.3576
  575MOL0     H75845   1.337   2.712   6.187 -2.1669  1.1764 -0.4595
  575MOL0     H75846   1.326   2.871   6.125  1.7578  1.2943  0.2865
  575MOL0     H75847   1.239   2.796   6.401 -1.1025  0.1712  0.1903
  575MOL0     H75848   1.128   2.791   6.273  0.0542 -1.0120  1.6732
  575MOL0     H75849   1.260   3.030   6.399 -1.5566  2.2386 -0.0385
  575MOL0     H75850   1.185   3.039   6.231 -0.2469 -1.5418 -1.5710
  575MOL0     H75851   1.043   2.956   6.486  0.9619 -1.3211 -1.3237
  575MOL0     H75852   0.976   2.943   6.334  0.5187 -0.2622 -0.7922
  575MOL0     H75853   1.084   3.194   6.599 -2.2244 -1.4868  0.5507
  575MOL0     H75854   0.841   3.499   6.525 -0.1319  1.1432  0.5861
  575MOL0     H75855   0.991   3.485   6.609 -0.0833  1.6831 -0.8860
  575MOL0     H75856   0.827   3.455   6.781 -0.9344 -0.9961 -0.0851
  575MOL0     H75857   0.878   3.293   6.735  4.4716  1.0630 -2.4992
  575MOL0     H75858   0.653   3.442   6.613  1.6558 -0.1900 -1.8533
  575MOL0     H75859   0.687   3.266   6.591  1.5041 -0.9438  1.2267
  575MOL0     H75860   0.605   3.378   6.864 -4.8806  2.4480 -1.3291
  575MOL0     H75861   0.612   3.213   6.814  0.0766  0.4116  1.4097
  575MOL0     H75862   0.439   3.365   7.003  0.8312  0.9030 -1.3252
  575MOL0     H75863   0.242   3.298   7.142 -0.2743 -0.5598  0.2852
  575MOL0     H75864  -0.222   3.081   7.115  1.6040 -0.9106  0.7265
  575MOL0     H75865  -0.381   3.005   7.287  1.0492 -0.4357 -0.9286
  575MOL0     H75866  -0.537   3.080   7.434 -3.0949  2.3289  0.4301
  575MOL0     H75867  -0.497   3.197   7.560  0.8898  0.6969 -2.1447
  575MOL0     H75868  -0.560   2.908   7.630 -0.5004 -0.9778 -1.0065
  575MOL0     H75869  -0.687   3.029   7.603  0.2901  0.3777  0.0209
  575MOL0     H75870  -0.590   3.174   7.799  0.5813  0.1102  1.1490
  575MOL0     H75871  -0.462   3.055   7.813 -0.2276 -0.8566  2.6484
  575MOL0     H75872  -0.734   2.953   7.837 -1.1147 -0.2793  1.2427
  575MOL0     H75873  -0.586   2.894   7.906 -1.4358 -0.7968  3.4783
  575MOL0     H75874  -0.767   3.055   8.056 -0.1356  0.8686  1.3849
  575MOL0     H75875  -0.668   3.176   7.989  1.1410 -0.0364 -0.9622
  575MOL0     H75876  -0.475   3.120   8.099  0.0871 -0.2682  1.4187
  575MOL0     H75877  -0.517   2.951   8.133  0.4732 -0.3537  0.6617
  575MOL0     H75878  -0.634   3.209   8.253  1.6021  0.2584  0.4749
  575MOL0     H75879  -0.679   3.046   8.311 -0.2857  0.9159  0.7637
  575MOL0     H75880  -0.534   3.150   8.458 -0.0957 -1.8025  0.8458
  575MOL0     H75881  -0.402   3.181   8.334 -0.9890 -0.3496 -3.4589
  575MOL0     H75882  -0.148   3.199   7.596  0.3363  0.3449  0.0604
  575MOL0     H75883   0.032   3.255   7.411  0.3895  0.4354 -0.2138
  575MOL0     H75884   0.063   3.159   6.774  0.3252 -1.1335  0.3637
  575MOL0     H75885   0.268   3.206   6.649  2.3005 -0.5865 -0.6035
  575MOL0     H75886   1.975   2.799   5.917 -2.8099 -1.9624  0.8101
  575MOL0     H75887   2.221   2.746   5.831 -1.7505 -2.1220 -2.5635
  575MOL0     H75888   2.667   2.874   5.933 -1.9929 -0.6089  1.3368
  575MOL0     H75889   2.892   2.837   5.833  0.5020 -0.4195 -0.2247
  575MOL0     H75890   3.045   2.795   5.685 -1.1186  0.6014  1.1616
  575MOL0     H75891   3.134   2.648   5.624 -1.6158 -0.6923  0.0074
  575MOL0     H75892   3.121   2.742   5.899 -1.0004  0.9032 -0.9634
  575MOL0     H75893   3.178   2.577   5.851 -0.8941 -0.2108  1.9313
  575MOL0     H75894   3.305   2.843   5.771 -0.4744  1.2705  5.2109
  575MOL0     H75895   3.339   2.677   5.692  0.3295  2.1191 -0.0118
  575MOL0     H75896   3.360   2.724   5.990 -0.8265 -0.2890 -0.3628
  575MOL0     H75897   3.427   2.598   5.884  1.1641  0.5556 -2.5693
  575MOL0     H75898   3.733   2.876   5.909 -0.2796  1.3046  0.8608
  575MOL0     H75899   2.795   2.435   5.742 -0.2961  0.2090  1.3900
  575MOL0     H75900   2.587   2.465   5.863 -1.4892  0.5999 -1.5663
  576MOL0     O75901  10.006   6.153   0.153  0.5388  0.0129  0.6848
  576MOL0     C75902  10.083   6.193   0.242  0.0802  0.3844  0.3440
  576MOL0     O75903  10.049   6.264   0.347  0.4533  0.4513  0.4848
  576MOL0     C75904   9.915   6.295   0.372 -1.1487  0.5458 -0.3260
  576MOL0     C75905   9.884   6.423   0.410 -0.5557 -0.3015 -0.3545
  576MOL0     C75906   9.749   6.459   0.445 -0.3094  0.2753 -0.5237
  576MOL0     C75907   9.645   6.367   0.440 -0.6343 -0.4643  0.7774
  576MOL0     O75908   9.513   6.389   0.463 -0.4187 -0.4560  0.5031
  576MOL0     C75909   9.490   6.524   0.519  0.0060  0.9067 -0.3025
  576MOL0     C75910   9.336   6.538   0.546 -0.5533 -0.7867  0.1074
  576MOL0     C75911   9.255   6.480   0.426 -1.0237  0.2816 -0.0475
  576MOL0     C75912   9.104   6.513   0.437 -0.7358  0.3951 -0.3168
  576MOL0     C75913   9.022   6.505   0.310  0.4641 -0.1104  0.3928
  576MOL0     C75914   8.871   6.528   0.332  0.4960  0.3447  0.3120
  576MOL0     C75915   8.776   6.496   0.214  0.4395 -0.4504 -0.0101
  576MOL0     C75916   8.773   6.343   0.180  0.9719 -0.5225  0.3903
  576MOL0     N75917   8.665   6.323   0.076 -0.6057 -0.2531 -0.7528
  576MOL0     C75918   8.538   6.282   0.116  0.1143 -0.4118  0.1298
  576MOL0     C75919   8.465   6.268  -0.002 -0.1313 -0.6277  0.1325
  576MOL0     C75920   8.314   6.238  -0.014  0.1334 -0.6643 -0.2671
  576MOL0     C75921   8.251   6.311  -0.132 -0.5101  0.6979  0.1494
  576MOL0     C75922   8.188   6.438  -0.085  0.2298  0.3193 -0.6460
  576MOL0     C75923   8.053   6.412  -0.011  0.1043  0.2917 -0.0080
  576MOL0     O75924   7.968   6.356  -0.109  0.6637 -0.8325  0.1246
  576MOL0     C75925   7.830   6.364  -0.098  0.4389 -0.0680 -0.0248
  576MOL0     C75926   7.757   6.314  -0.207 -0.0638 -0.4617 -0.4727
  576MOL0     C75927   7.621   6.293  -0.192 -0.2858 -0.0739 -1.2895
  576MOL0     C75928   7.551   6.346  -0.076 -0.4951 -0.2534  0.6656
  576MOL0     C75929   7.403   6.327  -0.059  0.0181 -0.1814 -0.8260
  576MOL0     O75930   7.330   6.326  -0.181 -0.3261 -0.0608  0.0678
  576MOL0     C75931   7.195   6.294  -0.185  0.3816 -0.0468  0.6119
  576MOL0     C75932   7.104   6.392  -0.226 -0.4686 -0.1803  0.1893
  576MOL0     C75933   6.967   6.364  -0.242 -0.0416 -0.8177  0.0538
  576MOL0     C75934   6.917   6.233  -0.215 -0.1303 -0.5158 -0.7090
  576MOL0     O75935   6.783   6.204  -0.237 -0.2862  0.6353 -0.3321
  576MOL0     C75936   6.682   6.304  -0.258  0.4474 -0.7530 -0.0482
  576MOL0     C75937   6.545   6.243  -0.263  1.1572 -0.1765  0.6012
  576MOL0     C75938   6.530   6.141  -0.375 -0.7353  0.4748  0.6864
  576MOL0     C75939   6.408   6.050  -0.359  0.1448  0.3055 -0.8616
  576MOL0     C75940   6.400   5.940  -0.463  0.2861  1.1114  0.6865
  576MOL0     C75941   6.272   5.861  -0.451 -0.3830 -0.4929  0.1201
  576MOL0     C75942   6.288   5.736  -0.548 -0.6597  0.8825  0.4978
  576MOL0     C75943   6.159   5.667  -0.557  0.1650 -0.1043 -0.4626
  576MOL0    Cl75944   6.191   5.508  -0.645  0.4868  0.2584 -0.3966
  576MOL0     C75945   7.004   6.141  -0.153 -0.3006 -0.3852  0.3642
  576MOL0     C75946   7.146   6.172  -0.143  0.1551  0.1385 -0.2999
  576MOL0     O75947   7.353   6.330   0.053 -0.7352  0.4945  0.2385
  576MOL0     C75948   7.633   6.411   0.020 -0.0420 -0.6005  0.0746
  576MOL0     C75949   7.774   6.417   0.020  1.0484  0.0556 -0.2871
  576MOL0     N75950   8.564   6.292  -0.102  0.4160  0.6476  0.8629
  576MOL0     N75951   8.677   6.327  -0.061 -0.0134 -0.1179 -0.8699
  576MOL0     C75952   9.679   6.239   0.412 -0.3468  0.2900 -0.2352
  576MOL0     C75953   9.812   6.201   0.379  0.2190 -0.2138  0.5507
  576MOL0     C75954  10.228   6.173   0.214 -0.4122  0.3317  0.9949
  576MOL0     C75955  10.271   6.099   0.097  0.1019 -0.6556  0.2731
  576MOL0     C75956  10.403   6.078   0.072  0.1434  0.3548 -0.6143
  576MOL0     C75957  10.498   6.123   0.166 -0.7593  0.9101 -0.1189
  576MOL0     O75958  10.629   6.073   0.173  0.1030  0.3747  0.5439
  576MOL0     C75959  10.674   5.981   0.071  0.3960 -0.2979  0.6645
  576MOL0     C75960  10.726   6.062  -0.052  0.5526  0.2608 -0.4718
  576MOL0     C75961  10.859   6.137  -0.013 -0.9679  0.3598  0.4563
  576MOL0     C75962  10.926   6.223  -0.120  0.6960  0.4289  0.4049
  576MOL0     C75963  11.050   6.267  -0.084 -0.4077 -0.3130 -0.9109
  576MOL0     C75964  11.161   6.303  -0.047  0.1588  0.5373 -0.2818
  576MOL0     C75965  10.455   6.192   0.279  1.1367  0.1592 -0.6077
  576MOL0     C75966  10.320   6.221   0.309 -0.7560  0.2086  0.3264
  576MOL0     H75967   9.959   6.501   0.413  1.3944 -2.1404  1.1996
  576MOL0     H75968   9.724   6.557   0.484 -0.8139  0.2723 -0.8315
  576MOL0     H75969   9.520   6.594   0.440  0.3284 -1.1995 -2.1517
  576MOL0     H75970   9.558   6.539   0.603 -1.9787 -2.8702  2.2539
  576MOL0     H75971   9.315   6.646   0.549  1.9904 -0.2394  0.7479
  576MOL0     H75972   9.302   6.493   0.640 -2.2682  1.5262  0.6762
  576MOL0     H75973   9.267   6.372   0.414 -2.3239  0.1636 -0.4306
  576MOL0     H75974   9.287   6.522   0.330 -1.9421 -2.7171 -1.7903
  576MOL0     H75975   9.059   6.443   0.508  1.6799 -1.0442 -0.0542
  576MOL0     H75976   9.095   6.611   0.484  1.3566  0.2856  0.4346
  576MOL0     H75977   9.032   6.401   0.278 -1.1128 -0.2333  0.2161
  576MOL0     H75978   9.051   6.579   0.234 -1.4286  3.3178  2.6942
  576MOL0     H75979   8.863   6.636   0.350  1.3278  0.5245 -0.3295
  576MOL0     H75980   8.839   6.469   0.419  0.7039  0.1112  0.2294
  576MOL0     H75981   8.680   6.545   0.232  0.0938  1.2197 -4.9584
  576MOL0     H75982   8.816   6.544   0.124  0.2515  0.9395  0.6194
  576MOL0     H75983   8.740   6.293   0.272  2.0325 -0.9751  0.5314
  576MOL0     H75984   8.867   6.303   0.143  1.1935  0.2906  0.0513
  576MOL0     H75985   8.499   6.266   0.216 -2.2064  1.2693 -0.4177
  576MOL0     H75986   8.270   6.267   0.082 -1.1133  0.1722 -1.0786
  576MOL0     H75987   8.303   6.129  -0.022 -0.1036 -0.9663  2.8166
  576MOL0     H75988   8.177   6.257  -0.192 -1.3088  1.0821  0.7709
  576MOL0     H75989   8.323   6.351  -0.203 -0.1418  2.6457  1.5275
  576MOL0     H75990   8.243   6.498  -0.011 -2.7334  3.5469 -0.8302
  576MOL0     H75991   8.172   6.502  -0.172  0.3775 -0.1046 -0.9893
  576MOL0     H75992   8.012   6.506   0.028 -0.0082  0.5274 -0.6934
  576MOL0     H75993   8.070   6.348   0.077  0.2832  2.6348  1.7711
  576MOL0     H75994   7.802   6.264  -0.293 -2.2383 -0.8594 -1.4366
  576MOL0     H75995   7.556   6.236  -0.258 -1.9708  1.8279 -1.3975
  576MOL0     H75996   7.143   6.488  -0.257 -2.0893  0.3047 -0.4246
  576MOL0     H75997   6.904   6.443  -0.282  1.3345  0.5855  0.5751
  576MOL0     H75998   6.701   6.356  -0.353 -0.6774  0.7090  0.4781
  576MOL0     H75999   6.692   6.379  -0.178  0.1231 -1.1081  0.3287
  576MOL0     H76000   6.473   6.326  -0.261  2.6501  1.2159  4.0584
  576MOL0     H76001   6.527   6.187  -0.170 -1.3569 -0.7328 -0.1294
  576MOL0     H76002   6.619   6.078  -0.371 -1.0969 -0.1030 -0.0527
  576MOL0     H76003   6.526   6.179  -0.478  0.8883 -1.5445 -0.1974
  576MOL0     H76004   6.428   6.016  -0.257 -0.8952 -0.6502 -0.9599
  576MOL0     H76005   6.319   6.113  -0.373 -0.2448 -0.2877 -1.0877
  576MOL0     H76006   6.485   5.871  -0.460  1.7994  2.8369 -0.3302
  576MOL0     H76007   6.410   5.981  -0.564  2.7723 -1.6451 -0.3150
  576MOL0     H76008   6.184   5.922  -0.477  0.8162  1.0948 -0.3649
  576MOL0     H76009   6.242   5.834  -0.349 -2.1311  0.7523 -0.0117
  576MOL0     H76010   6.329   5.767  -0.645  0.4671  0.2878  0.7560
  576MOL0     H76011   6.359   5.665  -0.505  0.0487  0.3049 -1.4823
  576MOL0     H76012   6.094   5.727  -0.622  0.0899 -0.2698 -0.5388
  576MOL0     H76013   6.116   5.653  -0.457  0.3159 -0.9254 -0.5126
  576MOL0     H76014   6.962   6.048  -0.118  2.7693 -1.0876  2.6101
  576MOL0     H76015   7.219   6.099  -0.110 -0.2326  0.8354  2.3727
  576MOL0     H76016   7.583   6.467   0.099  1.7640  1.3232 -0.0705
  576MOL0     H76017   7.825   6.463   0.104  1.1657 -1.5551  0.5444
  576MOL0     H76018   9.606   6.158   0.414  0.9721 -0.9543 -0.5362
  576MOL0     H76019   9.835   6.100   0.346 -0.6534  0.0638 -0.9662
  576MOL0     H76020  10.203   6.062   0.020  0.1252 -1.2446  0.5286
  576MOL0     H76021  10.428   6.032  -0.023  1.2409  0.1986 -0.2567
  576MOL0     H76022  10.598   5.911   0.036  1.7082  0.7632 -5.5504
  576MOL0     H76023  10.760   5.927   0.111  1.1524  0.9279  0.7609
  576MOL0     H76024  10.735   5.992  -0.135  2.1971 -0.6769  0.4460
  576MOL0     H76025  10.651   6.133  -0.089 -0.4508  0.1923  1.3046
  576MOL0     H76026  10.931   6.058   0.011 -1.4940  0.0900  1.1987
  576MOL0     H76027  10.848   6.197   0.078  3.6909  0.0861  1.4046
  576MOL0     H76028  10.932   6.178  -0.219 -0.3380 -1.4902  1.1589
  576MOL0     H76029  10.869   6.316  -0.124  1.5328  0.9216 -0.6561
  576MOL0     H76030  11.260   6.327  -0.016  0.3362  0.7652 -1.0051
  576MOL0     H76031  10.536   6.221   0.346  2.1226 -0.5439 -1.4590
  576MOL0     H76032  10.282   6.264   0.401  0.0116  0.1151  0.6952
  577MOL0     O76033   1.528   1.390   7.689 -0.1879 -0.3344 -0.3591
  577MOL0     C76034   1.564   1.302   7.610 -0.8432  0.6506  0.0407
  577MOL0     O76035   1.480   1.230   7.520 -0.4053 -0.1193 -0.1671
  577MOL0     C76036   1.355   1.289   7.493 -0.1891 -0.5858 -0.3694
  577MOL0     C76037   1.336   1.428   7.467  0.3045 -0.2138 -0.3762
  577MOL0     C76038   1.209   1.481   7.461 -0.3990  0.3993  0.0425
  577MOL0     C76039   1.097   1.410   7.460 -0.0791 -0.5848 -0.5564
  577MOL0     O76040   0.972   1.473   7.454  0.6595 -0.3657 -0.0665
  577MOL0     C76041   0.876   1.405   7.374 -0.2161 -0.6690  0.3616
  577MOL0     C76042   0.756   1.495   7.339  0.0900 -0.3263  0.8242
  577MOL0     C76043   0.680   1.435   7.218  0.0261 -0.0331  0.4609
  577MOL0     C76044   0.543   1.503   7.202  0.3438  0.2375 -0.6351
  577MOL0     C76045   0.447   1.434   7.112  0.3131 -0.4159  0.1639
  577MOL0     C76046   0.306   1.486   7.107  0.2986 -0.3682 -0.0545
  577MOL0     C76047   0.200   1.423   7.013 -0.1157  0.5725  0.1688
  577MOL0     C76048   0.060   1.489   7.017  0.2097  0.3795 -0.6130
  577MOL0     N76049   0.065   1.627   6.969  0.2871 -0.1353 -0.0589
  577MOL0     C76050   0.154   1.679   6.880 -0.3051  0.1279  0.5499
  577MOL0     C76051   0.131   1.814   6.891 -1.2388 -0.2659 -0.5267
  577MOL0     C76052   0.211   1.929   6.850  0.0009  0.5239 -0.2060
  577MOL0     C76053   0.344   1.946   6.928  0.4265 -0.1830 -0.1391
  577MOL0     C76054   0.328   1.939   7.083 -0.0522  1.1803  0.4020
  577MOL0     C76055   0.464   1.944   7.150  0.0857 -0.7996 -0.2135
  577MOL0     O76056   0.570   1.880   7.078 -0.1791 -0.3514  0.3150
  577MOL0     C76057   0.695   1.874   7.140 -1.0533 -0.4175  0.3160
  577MOL0     C76058   0.784   1.812   7.048 -0.2635  0.2053 -0.4389
  577MOL0     C76059   0.921   1.806   7.068 -0.9476  0.5446 -0.1745
  577MOL0     C76060   0.972   1.840   7.190 -0.3924 -0.1234 -0.6905
  577MOL0     C76061   1.106   1.802   7.233 -0.0018  0.1610 -0.0018
  577MOL0     O76062   1.184   1.755   7.129 -0.2950  0.2135  0.2541
  577MOL0     C76063   1.306   1.710   7.157 -0.3895 -0.1243 -0.7484
  577MOL0     C76064   1.409   1.802   7.152  0.1927 -0.2004  0.3217
  577MOL0     C76065   1.540   1.741   7.169 -0.2356  0.0103 -0.9096
  577MOL0     C76066   1.562   1.607   7.214  0.3062  0.5877 -0.0010
  577MOL0     O76067   1.684   1.553   7.242 -0.4075  0.0724 -0.4354
  577MOL0     C76068   1.771   1.635   7.321 -0.3170  0.3430  1.2155
  577MOL0     C76069   1.851   1.556   7.414 -0.5794  0.6823  0.5520
  577MOL0     C76070   2.000   1.601   7.455  0.1057  0.2740  0.3516
  577MOL0     C76071   2.054   1.508   7.554  0.5555  0.3393 -0.3114
  577MOL0     C76072   2.200   1.490   7.550  0.2832  0.2777 -0.5646
  577MOL0     C76073   2.256   1.369   7.626 -1.0449  0.2482 -0.1849
  577MOL0     C76074   2.266   1.374   7.773 -0.2575 -0.9832 -0.1886
  577MOL0     C76075   2.308   1.231   7.831  0.0350 -0.9611  0.3157
  577MOL0    Cl76076   2.213   1.231   7.983  0.5495 -0.0055 -0.0833
  577MOL0     C76077   1.453   1.522   7.203  0.1764 -0.3738  0.5944
  577MOL0     C76078   1.322   1.565   7.173 -1.2688  0.6252 -0.8495
  577MOL0     O76079   1.131   1.816   7.348 -0.4450 -0.2159 -0.4332
  577MOL0     C76080   0.890   1.904   7.284  0.9070  0.5009  0.6875
  577MOL0     C76081   0.750   1.927   7.258 -1.1007 -0.9624  0.1626
  577MOL0     N76082   0.031   1.832   6.989  0.4351  0.0503  0.3012
  577MOL0     N76083  -0.012   1.722   7.028  1.0063  0.1681  0.2438
  577MOL0     C76084   1.114   1.268   7.487  0.6420 -0.3020 -0.0769
  577MOL0     C76085   1.246   1.206   7.496 -0.2646 -0.2418  0.1968
  577MOL0     C76086   1.704   1.241   7.617  1.0474  0.2056 -0.4896
  577MOL0     C76087   1.798   1.292   7.706 -0.8715 -0.8071  0.7309
  577MOL0     C76088   1.914   1.221   7.730 -0.6676  0.8278 -0.4959
  577MOL0     C76089   1.944   1.105   7.652  0.5797 -0.9228  0.5332
  577MOL0     O76090   2.066   1.040   7.686  0.4590 -0.0578  0.4546
  577MOL0     C76091   2.049   0.899   7.681  0.0721  0.1303 -0.1547
  577MOL0     C76092   2.125   0.830   7.795  1.3048 -0.3386 -0.2468
  577MOL0     C76093   2.073   0.678   7.817 -0.1068  0.3036 -0.0100
  577MOL0     C76094   2.053   0.594   7.677 -1.0642 -0.0658  0.4370
  577MOL0     C76095   2.178   0.603   7.601  0.1607 -0.3159  0.4993
  577MOL0     C76096   2.280   0.611   7.530 -0.1305 -0.4630 -0.3259
  577MOL0     C76097   1.850   1.063   7.560  0.1446 -0.4974  0.3170
  577MOL0     C76098   1.732   1.130   7.542 -0.2176 -0.2503 -0.2620
  577MOL0     H76099   1.423   1.493   7.463 -0.1904  0.6497  1.4510
  577MOL0     H76100   1.192   1.586   7.436  0.2745  0.7059  0.7992
  577MOL0     H76101   0.843   1.309   7.415  1.3856 -2.5729 -2.4655
  577MOL0     H76102   0.920   1.384   7.276 -2.0855 -0.9644 -0.4464
  577MOL0     H76103   0.790   1.596   7.313  0.8068 -0.7879 -0.0957
  577MOL0     H76104   0.684   1.497   7.421 -1.3042 -0.1610 -0.3701
  577MOL0     H76105   0.665   1.328   7.231 -0.1890 -0.6188 -3.5362
  577MOL0     H76106   0.730   1.444   7.121 -2.2449 -3.9532 -1.2764
  577MOL0     H76107   0.510   1.522   7.305  0.2535  0.3992 -0.6931
  577MOL0     H76108   0.562   1.600   7.153 -1.1247  0.7965 -0.1432
  577MOL0     H76109   0.439   1.328   7.141 -1.0148 -0.1475  0.8637
  577MOL0     H76110   0.486   1.440   7.010 -0.7893  1.3787 -0.1941
  577MOL0     H76111   0.310   1.591   7.076  0.7529 -0.3316  0.1159
  577MOL0     H76112   0.267   1.484   7.209 -1.3141  1.0716 -0.6072
  577MOL0     H76113   0.231   1.423   6.909 -3.7052  0.8378 -1.0243
  577MOL0     H76114   0.199   1.319   7.046  1.5447 -0.6131 -3.1239
  577MOL0     H76115   0.024   1.470   7.119  1.3624  0.6244 -0.1446
  577MOL0     H76116  -0.013   1.443   6.950 -2.1284  0.8487  1.4513
  577MOL0     H76117   0.234   1.634   6.822  0.5714 -0.7023  2.3200
  577MOL0     H76118   0.154   2.018   6.878 -1.4324 -1.1556  2.7379
  577MOL0     H76119   0.223   1.920   6.742  0.7778  3.0958 -0.3978
  577MOL0     H76120   0.374   2.050   6.913 -2.2711  0.8510  0.9640
  577MOL0     H76121   0.421   1.874   6.901  0.9385  0.9214 -1.6992
  577MOL0     H76122   0.279   2.030   7.121 -2.1862 -0.1389  0.9482
  577MOL0     H76123   0.276   1.847   7.109 -1.6383  2.1128  0.6902
  577MOL0     H76124   0.456   1.897   7.249  0.8917  0.7252  0.6221
  577MOL0     H76125   0.486   2.050   7.171  2.0357 -0.9045 -1.5316
  577MOL0     H76126   0.743   1.781   6.952 -2.4136 -0.9549  0.7673
  577MOL0     H76127   0.983   1.767   6.988 -0.3860 -4.2006  2.1736
  577MOL0     H76128   1.385   1.902   7.119  0.4689 -0.3824 -0.4553
  577MOL0     H76129   1.623   1.810   7.179 -0.2963  0.4242 -2.8861
  577MOL0     H76130   1.712   1.705   7.380 -3.0003 -0.0115 -0.7982
  577MOL0     H76131   1.833   1.687   7.248 -2.0453  1.7101  0.6513
  577MOL0     H76132   1.857   1.454   7.376 -1.2986  0.1556  1.7786
  577MOL0     H76133   1.794   1.554   7.507  1.5266  1.2985  1.9155
  577MOL0     H76134   2.002   1.697   7.507  1.1009  0.2597  0.3560
  577MOL0     H76135   2.068   1.603   7.369 -1.2528 -1.4066 -0.8527
  577MOL0     H76136   2.020   1.544   7.651 -1.2965 -0.8306 -0.4825
  577MOL0     H76137   2.010   1.410   7.531 -1.3783  1.0488  0.1598
  577MOL0     H76138   2.245   1.575   7.603  1.7360 -2.0812  2.3173
  577MOL0     H76139   2.237   1.473   7.449 -0.8020 -0.2282 -0.8989
  577MOL0     H76140   2.357   1.359   7.584 -1.1411 -0.7867 -0.2011
  577MOL0     H76141   2.195   1.280   7.608  0.6932 -1.0585  0.0818
  577MOL0     H76142   2.324   1.458   7.810 -1.3272 -0.7445  1.0382
  577MOL0     H76143   2.165   1.396   7.811  1.0520  1.5604  2.1318
  577MOL0     H76144   2.415   1.231   7.853  0.0704  0.0205  0.1693
  577MOL0     H76145   2.285   1.143   7.769  2.3299 -0.1953 -1.8004
  577MOL0     H76146   1.462   1.415   7.220  0.4435 -0.0682  2.5664
  577MOL0     H76147   1.234   1.502   7.172 -3.2059  3.1482 -2.7739
  577MOL0     H76148   0.929   1.955   7.372  2.3089 -0.3005  0.5630
  577MOL0     H76149   0.692   1.990   7.325 -0.9320  0.7140 -1.2207
  577MOL0     H76150   1.032   1.199   7.501  0.1626  0.6136  2.1059
  577MOL0     H76151   1.260   1.100   7.517 -0.9594  0.1213  2.8603
  577MOL0     H76152   1.776   1.386   7.757 -3.1643 -0.6441 -0.4601
  577MOL0     H76153   1.987   1.249   7.805 -1.0766  0.6430 -0.0185
  577MOL0     H76154   2.069   0.856   7.583  0.7798 -1.0631  0.4975
  577MOL0     H76155   1.943   0.874   7.693 -0.0682 -2.0440 -4.3303
  577MOL0     H76156   2.232   0.827   7.775  1.2292  2.8546 -1.7398
  577MOL0     H76157   2.102   0.886   7.887 -0.2475 -1.0029 -0.1935
  577MOL0     H76158   1.983   0.685   7.878  1.9528  1.2111  3.1704
  577MOL0     H76159   2.139   0.626   7.887  0.9856  1.3213 -0.2393
  577MOL0     H76160   2.031   0.491   7.705 -1.3950  0.1539  1.0221
  577MOL0     H76161   1.980   0.653   7.620  1.7464  3.1133 -0.1925
  577MOL0     H76162   2.376   0.606   7.484 -0.2929  0.9130 -0.8432
  577MOL0     H76163   1.860   0.982   7.488 -0.6783  0.7551 -1.2515
  577MOL0     H76164   1.669   1.086   7.466  0.2473  0.6200 -1.1699
  578MOL0     O76165  10.710  10.200   0.418 -0.4270 -0.0122 -0.1174
  578MOL0     C76166  10.721  10.187   0.292  0.7835 -0.4312 -0.1015
  578MOL0     O76167  10.621  10.190   0.198 -0.1109  0.4365  0.2648
  578MOL0     C76168  10.483  10.211   0.228 -0.5791  0.3605 -0.1849
  578MOL0     C76169  10.383  10.173   0.135 -0.1148  0.2833  0.5264
  578MOL0     C76170  10.245  10.170   0.158 -0.5360 -0.4483 -0.2647
  578MOL0     C76171  10.204  10.215   0.288  0.4122  0.3644 -0.2450
  578MOL0     O76172  10.077  10.226   0.322  0.4185  0.0676  0.1206
  578MOL0     C76173   9.986  10.261   0.215  0.3668 -0.0995  0.3661
  578MOL0     C76174   9.845  10.257   0.259  0.5071 -1.0019  0.2898
  578MOL0     C76175   9.818  10.126   0.329  0.0963  0.3721 -0.3032
  578MOL0     C76176   9.683  10.142   0.406 -0.0436 -0.2754  0.0912
  578MOL0     C76177   9.627  10.006   0.450 -0.0293  0.5908  0.1569
  578MOL0     C76178   9.485  10.024   0.501  0.8455  0.3681 -0.2562
  578MOL0     C76179   9.420   9.909   0.571  0.2003  0.7529  0.0962
  578MOL0     C76180   9.400   9.773   0.488  0.5051  0.6201 -0.0754
  578MOL0     N76181   9.266   9.790   0.429  0.3275 -0.0292  0.4528
  578MOL0     C76182   9.160   9.702   0.436  0.2368 -0.5896  0.7884
  578MOL0     C76183   9.056   9.769   0.385  0.1834 -0.7721 -0.0080
  578MOL0     C76184   8.907   9.745   0.388 -0.7844 -0.0121 -0.0624
  578MOL0     C76185   8.854   9.781   0.252 -0.2357 -0.2247 -0.4608
  578MOL0     C76186   8.700   9.776   0.259  0.0672 -0.0949  0.5470
  578MOL0     C76187   8.647   9.795   0.125  0.8464  0.2028 -0.2008
  578MOL0     O76188   8.517   9.735   0.109 -0.0638 -0.1605 -0.8972
  578MOL0     C76189   8.426   9.779   0.022  0.4798 -0.3757  0.0474
  578MOL0     C76190   8.298   9.715   0.019  0.2036 -0.2950  0.7164
  578MOL0     C76191   8.198   9.765  -0.066 -0.0874 -0.4855  0.0296
  578MOL0     C76192   8.219   9.865  -0.164  0.1102  0.1648  0.5253
  578MOL0     C76193   8.110   9.929  -0.248 -0.0035 -0.3588 -0.6476
  578MOL0     O76194   8.153  10.039  -0.326  0.3452  0.4685  0.0630
  578MOL0     C76195   8.062  10.099  -0.419  0.2585 -0.7559 -0.4266
  578MOL0     C76196   7.966  10.034  -0.492  0.1512  0.0991  0.0103
  578MOL0     C76197   7.892  10.104  -0.585 -1.2123  0.3717 -0.6064
  578MOL0     C76198   7.921  10.237  -0.609  0.7301 -0.5465  0.1513
  578MOL0     O76199   7.839  10.312  -0.693 -0.4922 -0.2655 -0.1184
  578MOL0     C76200   7.918  10.376  -0.800  0.3639  0.2314 -0.0334
  578MOL0     C76201   7.834  10.487  -0.861 -0.5985 -0.4109  1.2007
  578MOL0     C76202   7.929  10.564  -0.958  0.5072  0.6551 -0.3299
  578MOL0     C76203   7.858  10.682  -1.020  0.1243 -1.1839 -0.2628
  578MOL0     C76204   7.746  10.633  -1.108  0.0155 -0.3074  0.5926
  578MOL0     C76205   7.679  10.745  -1.181  0.7575  0.4341 -0.1245
  578MOL0     C76206   7.549  10.687  -1.241  0.0173 -0.4315 -0.3555
  578MOL0     C76207   7.469  10.788  -1.328  0.8614 -0.5742  0.2562
  578MOL0    Cl76208   7.555  10.810  -1.493  0.2056 -0.0722  0.1008
  578MOL0     C76209   8.019  10.309  -0.538 -0.2503 -0.1392 -0.8310
  578MOL0     C76210   8.082  10.236  -0.440  0.3141  0.1241 -0.1743
  578MOL0     O76211   7.991   9.888  -0.228 -0.8836 -0.1395 -0.3672
  578MOL0     C76212   8.354   9.918  -0.172  0.1574 -0.1720 -0.0020
  578MOL0     C76213   8.455   9.875  -0.077 -0.0486  0.0222 -0.3700
  578MOL0     N76214   9.106   9.886   0.337  0.5046 -0.1725 -0.2710
  578MOL0     N76215   9.231   9.900   0.350  0.0832 -0.0175 -0.6647
  578MOL0     C76216  10.295  10.263   0.387 -0.5365 -0.5694  0.3448
  578MOL0     C76217  10.439  10.263   0.352 -0.3694 -0.0375  0.0404
  578MOL0     C76218  10.844  10.148   0.238  0.1944  0.6729 -0.2768
  578MOL0     C76219  10.856  10.058   0.128 -0.6761  0.1705  0.3470
  578MOL0     C76220  10.983  10.012   0.080  0.5271  0.5098 -0.6413
  578MOL0     C76221  11.104  10.066   0.144  0.0813  0.0585 -0.1428
  578MOL0     O76222  11.223  10.024   0.085 -0.6413 -0.4478  0.9979
  578MOL0     C76223  11.347  10.065   0.140 -0.3335 -0.9107  0.6805
  578MOL0     C76224  11.470  10.005   0.076  0.2715 -0.2537 -0.7127
  578MOL0     C76225  11.473  10.036  -0.077 -0.1219 -0.1933 -0.2221
  578MOL0     C76226  11.615  10.003  -0.123  0.4182  0.4642 -0.1256
  578MOL0     C76227  11.660   9.860  -0.115 -0.1202  0.0019 -0.1394
  578MOL0     C76228  11.696   9.743  -0.112  0.0537 -0.2135  0.0355
  578MOL0     C76229  11.089  10.158   0.248  0.6403 -0.6160 -0.3758
  578MOL0     C76230  10.964  10.203   0.301 -0.8781  0.2669 -0.3279
  578MOL0     H76231  10.424  10.115   0.053 -1.4152 -0.7732  0.5712
  578MOL0     H76232  10.179  10.112   0.093 -0.0507 -0.2686 -0.9234
  578MOL0     H76233   9.991  10.192   0.130 -1.4306  0.3596 -0.1664
  578MOL0     H76234  10.010  10.364   0.186  1.6888 -0.7520 -0.9815
  578MOL0     H76235   9.776  10.275   0.177  0.6353 -0.8041  0.2273
  578MOL0     H76236   9.832  10.333   0.337 -1.7031 -1.8012  0.7689
  578MOL0     H76237   9.890  10.092   0.404  0.8192 -1.8181 -1.8581
  578MOL0     H76238   9.804  10.046   0.255 -0.7330  0.0558  0.1817
  578MOL0     H76239   9.699  10.211   0.490  1.2662  0.3253 -0.6224
  578MOL0     H76240   9.601  10.173   0.341  0.5362 -0.6975 -0.8583
  578MOL0     H76241   9.692   9.972   0.531  1.5204 -2.1759 -2.0871
  578MOL0     H76242   9.626   9.929   0.373 -0.0217 -0.2498  0.9839
  578MOL0     H76243   9.425  10.058   0.416 -1.0686 -2.3557 -0.1356
  578MOL0     H76244   9.481  10.094   0.585  0.5247 -3.3700  3.1756
  578MOL0     H76245   9.480   9.878   0.656 -1.7385 -0.1625  1.1962
  578MOL0     H76246   9.324   9.937   0.614  0.3799  2.8132 -0.7384
  578MOL0     H76247   9.387   9.696   0.565  1.0515  0.0059 -0.5937
  578MOL0     H76248   9.477   9.748   0.415 -0.1039  0.0769 -0.5364
  578MOL0     H76249   9.149   9.606   0.486 -2.9903  0.4345  2.2621
  578MOL0     H76250   8.877   9.796   0.481  2.4845 -0.9586  1.6957
  578MOL0     H76251   8.896   9.637   0.394 -0.9534 -0.0014 -0.2206
  578MOL0     H76252   8.897   9.712   0.180 -0.9350 -2.6685  1.3203
  578MOL0     H76253   8.875   9.886   0.227 -2.7782  0.4400 -0.1195
  578MOL0     H76254   8.682   9.673   0.291  1.1587 -0.9216 -1.3574
  578MOL0     H76255   8.650   9.837   0.335 -1.3274  0.0816 -0.4757
  578MOL0     H76256   8.716   9.750   0.053  0.2749 -3.0132  1.0794
  578MOL0     H76257   8.648   9.903   0.109  0.1547  0.3174  0.4752
  578MOL0     H76258   8.283   9.642   0.098 -0.7859 -0.3976  0.4487
  578MOL0     H76259   8.097   9.733  -0.044 -0.2125 -0.0692  0.0588
  578MOL0     H76260   7.949   9.927  -0.483  0.3553 -0.0449 -1.1220
  578MOL0     H76261   7.817  10.049  -0.641  0.5192 -1.1002 -1.6044
  578MOL0     H76262   7.938  10.299  -0.875 -0.3917 -0.5591  0.5521
  578MOL0     H76263   8.014  10.410  -0.758 -0.1881 -0.0605  1.5623
  578MOL0     H76264   7.817  10.545  -0.770 -0.8896  1.4365  0.0240
  578MOL0     H76265   7.747  10.444  -0.912  0.2843 -1.3957  0.4837
  578MOL0     H76266   7.958  10.505  -1.045  0.9890 -0.5818  0.6440
  578MOL0     H76267   8.010  10.606  -0.897  0.0211 -0.6798  1.2913
  578MOL0     H76268   7.831  10.746  -0.935 -0.9630 -2.5110  0.4316
  578MOL0     H76269   7.930  10.738  -1.079  0.2978 -0.6115  0.4645
  578MOL0     H76270   7.665  10.587  -1.051 -1.7985 -1.7055 -2.8029
  578MOL0     H76271   7.774  10.561  -1.186 -3.4162  1.5408 -2.6847
  578MOL0     H76272   7.744  10.779  -1.262 -1.9501  1.2359 -2.0962
  578MOL0     H76273   7.659  10.825  -1.108 -0.3078  0.4632 -0.4439
  578MOL0     H76274   7.572  10.596  -1.298  1.4803 -0.2289 -0.1262
  578MOL0     H76275   7.475  10.664  -1.163 -0.9132  0.8280 -0.8341
  578MOL0     H76276   7.458  10.883  -1.274  5.3456  1.7127 -2.2865
  578MOL0     H76277   7.374  10.736  -1.342  0.4140  0.3301 -0.1781
  578MOL0     H76278   8.031  10.416  -0.551 -0.5155 -0.1545 -1.2180
  578MOL0     H76279   8.151  10.291  -0.377 -0.5363  2.3482 -1.0709
  578MOL0     H76280   8.383   9.994  -0.244  1.4715 -1.3271 -0.7356
  578MOL0     H76281   8.553   9.922  -0.080  0.5006 -1.1235 -1.6017
  578MOL0     H76282  10.248  10.280   0.483 -0.2341 -1.9044  0.7459
  578MOL0     H76283  10.510  10.306   0.423  0.0112  0.3464 -0.5536
  578MOL0     H76284  10.773  10.011   0.077  0.9095 -0.8875 -1.4274
  578MOL0     H76285  10.990   9.929   0.011  1.8614 -1.1103  1.3050
  578MOL0     H76286  11.344  10.049   0.248 -2.1548  3.1180  1.4005
  578MOL0     H76287  11.346  10.174   0.139  1.5536 -0.8599  0.4086
  578MOL0     H76288  11.555  10.060   0.118 -1.7943  1.9050  0.9149
  578MOL0     H76289  11.477   9.898   0.097  0.4852  0.3549  2.8246
  578MOL0     H76290  11.446  10.141  -0.096  5.0304  1.2023 -1.6075
  578MOL0     H76291  11.398   9.973  -0.127  0.6363 -0.1301 -1.4806
  578MOL0     H76292  11.624  10.048  -0.222 -4.7448 -1.6924 -1.9333
  578MOL0     H76293  11.687  10.062  -0.066 -1.5677  2.7929  0.1511
  578MOL0     H76294  11.732   9.643  -0.125  2.6105  0.5606  0.5709
  578MOL0     H76295  11.174  10.199   0.303  1.2942 -2.1193 -0.2167
  578MOL0     H76296  10.972  10.268   0.387  0.8551  0.9923 -0.9995
  579MOL0     O76297   3.653   4.863   3.191  1.0428 -0.1868  0.2873
  579MOL0     C76298   3.614   4.868   3.316  0.3002 -0.4813  1.1841
  579MOL0     O76299   3.483   4.874   3.361 -0.1802 -0.3429  0.3186
  579MOL0     C76300   3.374   4.887   3.277  0.5294 -0.6300  0.0829
  579MOL0     C76301   3.254   4.830   3.328  0.5710  0.2398 -0.4386
  579MOL0     C76302   3.134   4.868   3.262  0.8840 -0.3609 -1.4270
  579MOL0     C76303   3.131   4.965   3.155 -0.3338 -0.0401 -0.8127
  579MOL0     O76304   3.023   5.007   3.077  0.3154 -0.3319  0.1124
  579MOL0     C76305   2.897   4.985   3.140  0.4492  0.3810 -0.0183
  579MOL0     C76306   2.775   5.030   3.051  0.4514  0.3447 -0.0530
  579MOL0     C76307   2.640   4.976   3.099 -0.0451 -0.7904  0.0956
  579MOL0     C76308   2.528   5.011   3.002  0.7971 -0.6890 -0.0936
  579MOL0     C76309   2.394   4.930   3.020 -0.1163  0.4555 -0.0750
  579MOL0     C76310   2.333   4.950   3.155 -0.4528  0.1021  0.2043
  579MOL0     C76311   2.197   4.875   3.161 -0.7851 -0.4598  0.5409
  579MOL0     C76312   2.095   4.960   3.100  0.7823  0.1008 -0.0374
  579MOL0     N76313   1.966   4.896   3.096  0.5541  0.0198 -0.1290
  579MOL0     C76314   1.861   4.923   3.178  0.0834 -0.0681  0.0639
  579MOL0     C76315   1.764   4.833   3.145 -0.4990  0.3611 -1.4460
  579MOL0     C76316   1.642   4.804   3.237  0.1087  0.0129 -0.3635
  579MOL0     C76317   1.522   4.876   3.173 -0.8355 -0.0278  0.1924
  579MOL0     C76318   1.440   4.790   3.071 -0.5450 -0.6095 -0.1954
  579MOL0     C76319   1.329   4.864   3.007 -0.2504 -0.3551  0.2165
  579MOL0     O76320   1.231   4.918   3.098  0.6340  0.4515 -0.2228
  579MOL0     C76321   1.122   4.984   3.050 -0.0901 -1.2134 -0.0377
  579MOL0     C76322   1.131   5.096   2.960 -0.0121  0.5019 -0.5085
  579MOL0     C76323   1.017   5.166   2.922  0.5838  0.3665  1.0298
  579MOL0     C76324   0.888   5.125   2.953 -0.7718  0.3629 -0.0171
  579MOL0     C76325   0.767   5.190   2.910 -0.1291 -0.0125  0.2715
  579MOL0     O76326   0.774   5.315   2.856  0.4214 -0.4687  0.0659
  579MOL0     C76327   0.658   5.373   2.795 -0.4542 -0.0464 -0.0440
  579MOL0     C76328   0.667   5.443   2.676 -0.3803  0.0984  0.5981
  579MOL0     C76329   0.551   5.503   2.624  0.5452  0.1107 -1.1247
  579MOL0     C76330   0.424   5.490   2.689  0.1171  0.4549 -0.0279
  579MOL0     O76331   0.325   5.556   2.622  0.3411  1.5286 -0.5225
  579MOL0     C76332   0.188   5.519   2.655 -0.4735  0.5144  0.4239
  579MOL0     C76333   0.092   5.605   2.578 -0.1503  0.1378 -0.2302
  579MOL0     C76334  -0.052   5.549   2.568 -0.3509 -0.4670  0.3812
  579MOL0     C76335  -0.146   5.652   2.515 -0.0269 -0.4436  1.0684
  579MOL0     C76336  -0.291   5.594   2.521  0.1090 -0.1883  0.7519
  579MOL0     C76337  -0.395   5.699   2.464  0.2303 -0.4028  0.0550
  579MOL0     C76338  -0.542   5.654   2.499  0.4781 -0.4146  1.2601
  579MOL0     C76339  -0.645   5.760   2.437 -0.0289  0.5026 -0.0727
  579MOL0    Cl76340  -0.808   5.734   2.501  0.0442 -0.8862 -0.3976
  579MOL0     C76341   0.420   5.411   2.807 -0.4162 -0.0206  1.0841
  579MOL0     C76342   0.536   5.361   2.866 -0.3239  0.2093  0.5335
  579MOL0     O76343   0.666   5.115   2.917 -0.3363  0.7670 -1.3454
  579MOL0     C76344   0.879   5.012   3.041 -0.0268  0.4388 -0.6714
  579MOL0     C76345   0.996   4.946   3.087  0.4473  0.4113 -0.4769
  579MOL0     N76346   1.808   4.757   3.036 -0.7814  0.7551  0.4642
  579MOL0     N76347   1.926   4.806   3.004  0.4028 -0.4854 -0.8895
  579MOL0     C76348   3.253   5.011   3.111 -0.2793  0.1761  1.3841
  579MOL0     C76349   3.371   4.978   3.170 -0.3861 -0.0409 -0.1159
  579MOL0     C76350   3.717   4.890   3.422  0.6000  0.2987  0.3388
  579MOL0     C76351   3.852   4.911   3.387 -0.3673  0.0897 -0.5835
  579MOL0     C76352   3.946   4.924   3.486  0.1667 -0.6671 -0.7321
  579MOL0     C76353   3.900   4.913   3.625  0.1644  0.4019  0.0576
  579MOL0     O76354   3.980   4.917   3.737 -0.1897  1.1292  0.4065
  579MOL0     C76355   4.118   4.914   3.706 -0.2712  0.7054  0.2779
  579MOL0     C76356   4.214   4.903   3.822  0.5833  0.3921 -0.5328
  579MOL0     C76357   4.357   4.911   3.765  0.5164 -0.0441  0.0801
  579MOL0     C76358   4.462   4.924   3.876 -1.0190  0.4113 -0.3295
  579MOL0     C76359   4.473   4.795   3.954 -0.1552  0.4439  0.6818
  579MOL0     C76360   4.491   4.680   3.993 -0.7463  1.0371 -0.3121
  579MOL0     C76361   3.764   4.888   3.657 -0.2637  0.9513 -0.4386
  579MOL0     C76362   3.670   4.880   3.556 -0.7316  0.1062  1.2444
  579MOL0     H76363   3.249   4.754   3.405  2.4300 -2.0279 -2.4213
  579MOL0     H76364   3.043   4.819   3.294  1.0253 -0.0445 -0.5099
  579MOL0     H76365   2.890   5.045   3.231  2.2560 -0.7337  0.9146
  579MOL0     H76366   2.895   4.877   3.156  1.8467  0.0225 -1.9006
  579MOL0     H76367   2.795   4.985   2.954 -2.5414  1.6399 -1.4080
  579MOL0     H76368   2.761   5.135   3.021 -0.2619 -0.1884 -1.6867
  579MOL0     H76369   2.619   5.025   3.195 -0.2860 -3.1893  1.3277
  579MOL0     H76370   2.650   4.868   3.111 -0.2743 -0.9297 -0.8498
  579MOL0     H76371   2.492   5.114   3.007 -1.2630 -1.2579 -2.0369
  579MOL0     H76372   2.559   5.001   2.898 -2.1747 -0.7597 -1.0559
  579MOL0     H76373   2.426   4.826   3.008  1.8640  1.2498 -2.8540
  579MOL0     H76374   2.320   4.945   2.941  1.2235 -1.1297 -1.7155
  579MOL0     H76375   2.313   5.056   3.173 -2.8724 -0.0966 -0.9668
  579MOL0     H76376   2.398   4.922   3.239  0.7808  0.5980 -0.5495
  579MOL0     H76377   2.208   4.777   3.115  1.0189 -0.5751  1.1251
  579MOL0     H76378   2.169   4.859   3.266 -2.4441  3.4471  0.8784
  579MOL0     H76379   2.118   4.991   2.998 -2.6195  0.5768 -0.8012
  579MOL0     H76380   2.088   5.055   3.154 -1.5550 -0.8221  1.4712
  579MOL0     H76381   1.865   4.990   3.263 -1.0028  0.3826 -0.2220
  579MOL0     H76382   1.659   4.850   3.335 -0.2250  0.7071 -0.6258
  579MOL0     H76383   1.624   4.697   3.249 -0.7822  0.0344 -1.3742
  579MOL0     H76384   1.556   4.964   3.118 -2.0248  0.8457  0.8187
  579MOL0     H76385   1.463   4.912   3.258 -2.1495 -3.0585  0.6908
  579MOL0     H76386   1.504   4.751   2.991 -2.9419 -1.4045 -1.8104
  579MOL0     H76387   1.406   4.698   3.121  1.9622 -1.6276 -0.2105
  579MOL0     H76388   1.265   4.790   2.960 -4.7976  3.2586 -0.0374
  579MOL0     H76389   1.362   4.936   2.932  3.4889 -2.5335 -0.4676
  579MOL0     H76390   1.231   5.126   2.932  1.4248 -1.0615  2.4173
  579MOL0     H76391   1.026   5.262   2.871  1.2047 -0.0373  0.3748
  579MOL0     H76392   0.765   5.432   2.629 -0.0298 -1.2362  1.6086
  579MOL0     H76393   0.558   5.563   2.534  2.1393  0.1516 -0.9899
  579MOL0     H76394   0.161   5.508   2.760  2.1613 -1.9268  0.9907
  579MOL0     H76395   0.180   5.419   2.611 -0.8356  0.0930  1.4252
  579MOL0     H76396   0.129   5.629   2.478  2.3791  0.8751  0.8068
  579MOL0     H76397   0.090   5.694   2.642 -0.1681  0.1190 -0.2048
  579MOL0     H76398  -0.083   5.515   2.668  0.0454 -3.0243 -0.2984
  579MOL0     H76399  -0.049   5.462   2.503  2.4675 -0.9366  1.0315
  579MOL0     H76400  -0.146   5.742   2.578 -2.9435  1.1232 -0.9471
  579MOL0     H76401  -0.126   5.678   2.411 -1.4084  0.5649  1.0311
  579MOL0     H76402  -0.318   5.568   2.623  1.8122 -0.7630  1.0889
  579MOL0     H76403  -0.289   5.509   2.453 -0.4849 -1.2028  1.9680
  579MOL0     H76404  -0.389   5.695   2.355 -0.7110 -0.3863 -0.0053
  579MOL0     H76405  -0.369   5.799   2.499 -0.3324  2.1974 -5.9031
  579MOL0     H76406  -0.575   5.561   2.450 -1.2698  1.2564 -0.9366
  579MOL0     H76407  -0.555   5.648   2.608 -2.3637  1.1199  1.0923
  579MOL0     H76408  -0.646   5.752   2.327 -0.3191 -2.0067  0.0545
  579MOL0     H76409  -0.605   5.858   2.464 -0.8690  0.2892  2.1124
  579MOL0     H76410   0.330   5.407   2.868 -1.9357 -1.1412 -1.0888
  579MOL0     H76411   0.511   5.307   2.957 -2.6589  3.2304  1.8774
  579MOL0     H76412   0.785   4.969   3.075 -0.7539  1.2185 -1.6628
  579MOL0     H76413   0.979   4.872   3.165 -2.6790  2.0678  0.5551
  579MOL0     H76414   3.254   5.072   3.022  4.0908  0.1505  1.2436
  579MOL0     H76415   3.454   5.042   3.142  0.7046 -1.3779 -0.0454
  579MOL0     H76416   3.882   4.947   3.289  1.2004 -0.0800 -0.1989
  579MOL0     H76417   4.047   4.942   3.450  0.1680  1.5502  0.2588
  579MOL0     H76418   4.138   5.005   3.648 -1.9020  0.5506 -0.5740
  579MOL0     H76419   4.150   4.828   3.646  1.5160 -0.1992  2.3778
  579MOL0     H76420   4.204   4.994   3.883  2.0111  0.0523  0.2624
  579MOL0     H76421   4.199   4.808   3.872  3.4797 -0.3444 -0.8621
  579MOL0     H76422   4.369   4.978   3.680 -1.2204 -3.2616 -2.9637
  579MOL0     H76423   4.369   4.811   3.721 -1.9628  0.3252 -1.6021
  579MOL0     H76424   4.562   4.961   3.852 -0.1814 -1.5442 -0.0274
  579MOL0     H76425   4.416   4.991   3.949  0.2674 -1.0277  1.9258
  579MOL0     H76426   4.498   4.585   4.042 -1.2148  2.3411  2.4496
  579MOL0     H76427   3.740   4.868   3.761 -0.0969 -1.3714 -0.7971
  579MOL0     H76428   3.570   4.848   3.584  0.0265 -1.4671  2.3151
  580MOL0     O76429  11.076   4.154  10.503  0.3141 -0.3835  0.2937
  580MOL0     C76430  11.058   4.274  10.529  1.2377  0.3414  0.4452
  580MOL0     O76431  10.932   4.321  10.567  0.0327 -0.7854  0.1509
  580MOL0     C76432  10.829   4.233  10.560 -0.5433  1.3144 -0.2771
  580MOL0     C76433  10.822   4.130  10.661 -0.5585 -0.1067  0.3454
  580MOL0     C76434  10.716   4.036  10.669 -0.0005 -0.1079 -0.5441
  580MOL0     C76435  10.611   4.050  10.588 -0.4361 -0.1134 -0.1452
  580MOL0     O76436  10.489   3.978  10.594  0.2867 -0.2827 -0.6439
  580MOL0     C76437  10.458   3.894  10.707  0.3957  0.6499 -0.0309
  580MOL0     C76438  10.420   3.749  10.676  0.8410 -0.6403  0.6905
  580MOL0     C76439  10.307   3.733  10.565 -0.9563 -0.5080  0.3594
  580MOL0     C76440  10.181   3.811  10.596 -0.1503 -0.3793 -0.2753
  580MOL0     C76441  10.082   3.823  10.478  0.3435 -0.1113  0.0426
  580MOL0     C76442  10.022   3.687  10.453 -0.4086 -0.0195 -0.0870
  580MOL0     C76443   9.898   3.696  10.364  0.4095  0.1413 -0.2904
  580MOL0     C76444   9.776   3.672  10.445  0.5101 -0.3037  0.5508
  580MOL0     N76445   9.657   3.660  10.357 -0.2658 -0.2752 -0.0193
  580MOL0     C76446   9.628   3.555  10.276 -0.5578 -0.4852 -0.8074
  580MOL0     C76447   9.510   3.580  10.217  0.1687  0.2396  0.1416
  580MOL0     C76448   9.446   3.497  10.111  0.4459  0.5510 -0.6380
  580MOL0     C76449   9.342   3.395  10.167 -0.3955 -0.2034 -0.1268
  580MOL0     C76450   9.222   3.477  10.188  1.2238 -0.1339  0.0092
  580MOL0     C76451   9.102   3.399  10.249 -0.4792  0.4298  0.6443
  580MOL0     O76452   9.125   3.306  10.356  0.2370  0.7285 -0.4539
  580MOL0     C76453   9.012   3.256  10.427  0.0159 -0.2764  0.1772
  580MOL0     C76454   9.033   3.190  10.550  0.3473 -0.4867  0.1378
  580MOL0     C76455   8.929   3.144  10.635  0.6416  0.5961 -0.4318
  580MOL0     C76456   8.798   3.164  10.585 -0.1426 -0.6531 -0.6475
  580MOL0     C76457   8.685   3.107  10.650 -0.9118  0.6677  0.0202
  580MOL0     O76458   8.568   3.176  10.624 -0.3532  0.1052 -0.4116
  580MOL0     C76459   8.438   3.120  10.642  0.0407 -0.1791 -0.5564
  580MOL0     C76460   8.400   3.005  10.715  0.2267 -1.0262 -0.4982
  580MOL0     C76461   8.264   2.967  10.724  0.8313  0.0231  0.4360
  580MOL0     C76462   8.170   3.046  10.658  0.2410 -0.8408  0.0843
  580MOL0     O76463   8.036   3.021  10.662 -0.0578 -0.0513 -0.0216
  580MOL0     C76464   7.996   2.882  10.682 -0.3876 -0.0212  0.9565
  580MOL0     C76465   7.867   2.860  10.611 -0.7322 -0.3992 -0.4021
  580MOL0     C76466   7.888   2.892  10.466  0.1487  0.1987  0.1869
  580MOL0     C76467   7.780   2.842  10.371 -0.0006 -0.0317 -0.2624
  580MOL0     C76468   7.791   2.924  10.238 -0.2113 -0.2154  0.4187
  580MOL0     C76469   7.693   2.866  10.126  0.3456 -0.4825  0.4792
  580MOL0     C76470   7.670   2.968  10.011 -0.8759 -0.8565 -1.0154
  580MOL0     C76471   7.611   2.902   9.888  0.0130  0.0901  0.4345
  580MOL0    Cl76472   7.443   2.853   9.905  0.0338  0.4837 -0.0643
  580MOL0     C76473   8.206   3.158  10.585 -0.1943  0.6974 -0.3107
  580MOL0     C76474   8.339   3.196  10.574 -0.4345  0.2332 -0.7265
  580MOL0     O76475   8.702   3.004  10.716  0.7352  0.1545  0.6620
  580MOL0     C76476   8.775   3.223  10.459 -0.8386 -0.2067 -0.3007
  580MOL0     C76477   8.882   3.275  10.379  0.0629  0.0922  0.1060
  580MOL0     N76478   9.471   3.708  10.263  0.0155 -0.0510 -0.8508
  580MOL0     N76479   9.560   3.755  10.346  0.1272  0.1875  0.0320
  580MOL0     C76480  10.609   4.156  10.500  0.4332 -0.2478  0.4981
  580MOL0     C76481  10.715   4.246  10.480 -0.2729  0.0615  0.1242
  580MOL0     C76482  11.175   4.367  10.530  0.1032 -0.0144  0.4771
  580MOL0     C76483  11.316   4.320  10.527  0.6168 -0.1568 -0.4417
  580MOL0     C76484  11.417   4.421  10.534 -0.4450  0.5939 -0.3141
  580MOL0     C76485  11.393   4.556  10.542  0.0201 -0.7865  0.2853
  580MOL0     O76486  11.475   4.666  10.523  1.1449  0.0655  0.2411
  580MOL0     C76487  11.595   4.644  10.447 -0.1795  1.3361 -0.0825
  580MOL0     C76488  11.697   4.754  10.462  0.7183 -0.0080  0.2485
  580MOL0     C76489  11.655   4.888  10.405  0.6185 -1.0695  0.0545
  580MOL0     C76490  11.758   5.001  10.425 -0.0327 -0.3439  0.1873
  580MOL0     C76491  11.762   5.022  10.571  0.8602  0.5744  0.1608
  580MOL0     C76492  11.768   5.053  10.684 -0.1681 -0.0426  1.0662
  580MOL0     C76493  11.256   4.600  10.548 -0.0596  0.7640  0.5145
  580MOL0     C76494  11.152   4.505  10.546  0.4866  1.4886 -0.5911
  580MOL0     H76495  10.904   4.125  10.731  0.1434 -2.4543 -0.5433
  580MOL0     H76496  10.727   3.964  10.750  0.5820  1.6217  0.9869
  580MOL0     H76497  10.370   3.932  10.759  0.4554 -1.1320  1.4667
  580MOL0     H76498  10.534   3.900  10.785  0.7516 -1.7760 -0.1144
  580MOL0     H76499  10.378   3.712  10.770 -1.8571 -3.6273 -1.4560
  580MOL0     H76500  10.509   3.689  10.654  0.8465 -0.2786 -0.3489
  580MOL0     H76501  10.275   3.628  10.558 -3.1474  0.0237  1.4750
  580MOL0     H76502  10.349   3.759  10.467 -0.4935  0.3084  0.7664
  580MOL0     H76503  10.132   3.767  10.683  1.0713  0.0474  0.6669
  580MOL0     H76504  10.199   3.916  10.622 -2.0763  0.7511 -3.0675
  580MOL0     H76505  10.136   3.862  10.391  0.2898  2.1894  0.9682
  580MOL0     H76506   9.998   3.888  10.502  0.8630 -0.5852  3.6667
  580MOL0     H76507  10.004   3.635  10.548  0.1524 -0.5589 -0.2674
  580MOL0     H76508  10.106   3.637  10.404  1.3370  0.4440  2.2789
  580MOL0     H76509   9.885   3.795  10.320 -1.0888  0.6387  1.1525
  580MOL0     H76510   9.914   3.620  10.287 -0.5497 -2.1261  1.6214
  580MOL0     H76511   9.768   3.747  10.524  3.6019 -0.4494  1.1429
  580MOL0     H76512   9.779   3.574  10.495  1.6108 -0.5950 -0.0516
  580MOL0     H76513   9.700   3.476  10.256  0.3102  0.2870 -0.7970
  580MOL0     H76514   9.525   3.449  10.053  0.1848 -0.2565 -0.3343
  580MOL0     H76515   9.408   3.566  10.035  1.9944  1.1009 -0.9469
  580MOL0     H76516   9.388   3.352  10.256 -1.0913 -1.0911 -0.1752
  580MOL0     H76517   9.322   3.313  10.097  0.3724  0.1289 -0.7490
  580MOL0     H76518   9.242   3.547  10.270 -1.5391 -1.8921  2.3628
  580MOL0     H76519   9.183   3.533  10.103 -2.0662  3.7916  3.5976
  580MOL0     H76520   9.048   3.338  10.175 -0.1723 -1.1872  1.6836
  580MOL0     H76521   9.032   3.473  10.287  0.1432  2.2917 -1.5841
  580MOL0     H76522   9.138   3.187  10.577  0.2915  0.4098  0.4989
  580MOL0     H76523   8.948   3.097  10.730  0.0388  0.5766 -0.3207
  580MOL0     H76524   8.477   2.961  10.778  1.0239  1.5379  0.4568
  580MOL0     H76525   8.238   2.876  10.777  1.2033 -2.2248 -2.9364
  580MOL0     H76526   7.974   2.865  10.788 -2.3392 -0.0167  0.5810
  580MOL0     H76527   8.067   2.810  10.640 -1.8102 -0.9083  0.0009
  580MOL0     H76528   7.786   2.917  10.658 -0.7790  0.1583 -1.1441
  580MOL0     H76529   7.831   2.757  10.606 -0.9569 -0.5354  2.3255
  580MOL0     H76530   7.988   2.853  10.444 -0.7229 -0.6795 -2.7001
  580MOL0     H76531   7.890   3.001  10.462  0.3513  0.1614 -1.3074
  580MOL0     H76532   7.806   2.736  10.365  1.1423 -0.5620  6.3354
  580MOL0     H76533   7.683   2.842  10.422  0.2425  0.6595  0.2248
  580MOL0     H76534   7.891   2.935  10.195  1.0348 -3.3949  2.2092
  580MOL0     H76535   7.746   3.023  10.245  1.3003  0.4117  2.5861
  580MOL0     H76536   7.597   2.851  10.175  1.1262 -2.3652  1.5212
  580MOL0     H76537   7.730   2.769  10.091  0.9441 -0.7113  1.7048
  580MOL0     H76538   7.607   3.053  10.041  1.3266  2.0434 -3.9806
  580MOL0     H76539   7.767   3.008   9.980 -0.7611 -0.0088  0.3405
  580MOL0     H76540   7.667   2.812   9.860  1.4906  1.1100 -0.0418
  580MOL0     H76541   7.616   2.967   9.799  1.7305 -2.4120 -1.4311
  580MOL0     H76542   8.125   3.212  10.538 -3.2008  0.3176  3.8524
  580MOL0     H76543   8.355   3.283  10.511  0.7171  0.8023  0.3104
  580MOL0     H76544   8.676   3.217  10.417 -1.5659 -0.7380  1.3917
  580MOL0     H76545   8.856   3.315  10.281  2.0784  2.9403  0.6165
  580MOL0     H76546  10.519   4.167  10.440 -0.8198 -1.0053  2.1581
  580MOL0     H76547  10.727   4.317  10.399  1.0303 -1.1121 -0.7642
  580MOL0     H76548  11.332   4.215  10.504  1.2082  0.1896 -1.6812
  580MOL0     H76549  11.520   4.388  10.521 -1.3763 -2.3227 -0.9886
  580MOL0     H76550  11.576   4.624  10.341  1.0836 -1.9865  0.1948
  580MOL0     H76551  11.651   4.558  10.485 -1.6128  1.9928  4.0210
  580MOL0     H76552  11.731   4.760  10.565  0.3262 -0.8575  0.4392
  580MOL0     H76553  11.785   4.731  10.401  1.4121 -0.6259  1.4502
  580MOL0     H76554  11.567   4.928  10.456  1.1914  0.6597 -0.2515
  580MOL0     H76555  11.631   4.880  10.298  1.6978  0.0123 -0.2835
  580MOL0     H76556  11.853   4.988  10.373 -0.0580  1.2020 -0.3084
  580MOL0     H76557  11.720   5.093  10.380 -0.0820  0.0207  0.9565
  580MOL0     H76558  11.772   5.072  10.790  1.5612 -1.5458  1.3170
  580MOL0     H76559  11.223   4.703  10.555 -0.0160  0.8606 -0.5334
  580MOL0     H76560  11.050   4.538  10.566 -1.1302 -3.7262  1.5412
  581MOL0     O76561   2.403   3.740  10.824 -0.0065  0.5837 -0.2722
  581MOL0     C76562   2.510   3.721  10.771 -0.1021 -0.2422  0.5194
  581MOL0     O76563   2.531   3.693  10.637  0.8632 -0.0452  0.5345
  581MOL0     C76564   2.419   3.686  10.554  0.3923 -0.4140 -0.3055
  581MOL0     C76565   2.410   3.764  10.435 -0.1774 -0.2612 -0.1069
  581MOL0     C76566   2.292   3.775  10.363 -0.3889 -0.2545 -1.0413
  581MOL0     C76567   2.184   3.690  10.391 -0.5610 -0.3862 -0.0993
  581MOL0     O76568   2.068   3.696  10.317 -0.6470  0.0646 -0.0580
  581MOL0     C76569   1.992   3.810  10.352 -0.0530 -0.1123  0.1605
  581MOL0     C76570   1.979   3.893  10.227 -0.0495  0.2787 -0.6917
  581MOL0     C76571   1.935   3.826  10.097 -0.1073  0.3589 -0.4228
  581MOL0     C76572   1.902   3.930   9.990  0.0695 -0.0381  0.6888
  581MOL0     C76573   1.830   3.873   9.874 -0.3273 -0.2222  0.3877
  581MOL0     C76574   1.684   3.839   9.905  0.2711  0.0764  1.2499
  581MOL0     C76575   1.613   3.792   9.784 -0.2042  0.1415  0.6407
  581MOL0     C76576   1.464   3.820   9.799  0.3512 -0.1072  0.4619
  581MOL0     N76577   1.395   3.767   9.680 -0.5584 -0.4206  0.2342
  581MOL0     C76578   1.358   3.808   9.555 -0.0741  0.3944  0.3691
  581MOL0     C76579   1.267   3.710   9.503  0.1999 -0.3214 -0.5989
  581MOL0     C76580   1.189   3.703   9.375  0.3241  0.0138  0.3843
  581MOL0     C76581   1.208   3.562   9.308  0.1439  0.3555 -0.5206
  581MOL0     C76582   1.185   3.560   9.154 -0.9141  0.1003 -0.1154
  581MOL0     C76583   1.046   3.589   9.111  0.0586  0.4092  0.3983
  581MOL0     O76584   0.979   3.693   9.177  0.2444 -0.6211 -0.3276
  581MOL0     C76585   0.842   3.716   9.153  0.1824 -0.1506  0.5985
  581MOL0     C76586   0.798   3.842   9.185 -0.6504  0.2574  0.7665
  581MOL0     C76587   0.673   3.887   9.146 -0.1924 -0.1672 -0.2775
  581MOL0     C76588   0.577   3.797   9.097 -0.0017  1.0344 -0.3432
  581MOL0     C76589   0.443   3.842   9.075  0.7838  0.0652  0.0830
  581MOL0     O76590   0.408   3.972   9.077  0.3128 -0.6892  0.3362
  581MOL0     C76591   0.280   4.021   9.081 -0.5625 -0.6756  1.1881
  581MOL0     C76592   0.244   4.111   9.193 -0.3584 -0.6764 -0.0139
  581MOL0     C76593   0.112   4.161   9.207 -0.2278  0.0394 -0.5975
  581MOL0     C76594   0.016   4.123   9.113 -0.5574 -0.5871 -0.4473
  581MOL0     O76595  -0.113   4.161   9.139  0.1639 -0.7082  0.5975
  581MOL0     C76596  -0.186   4.063   9.219  0.5641  0.7283  0.1150
  581MOL0     C76597  -0.336   4.084   9.201 -0.4336 -0.0141 -0.0924
  581MOL0     C76598  -0.393   4.206   9.266 -0.2629  0.2038 -0.9409
  581MOL0     C76599  -0.543   4.193   9.280  0.9874 -0.8350  0.1954
  581MOL0     C76600  -0.613   4.317   9.340 -0.2099 -0.3513  0.5317
  581MOL0     C76601  -0.580   4.434   9.249  0.4146 -1.0227  0.3096
  581MOL0     C76602  -0.672   4.544   9.286  0.7540  1.3056 -0.0423
  581MOL0     C76603  -0.613   4.673   9.239  0.3154  0.0504  0.0463
  581MOL0    Cl76604  -0.487   4.740   9.350  0.6351  0.1893  0.1517
  581MOL0     C76605   0.055   4.047   9.003 -0.8834  0.0154  0.6808
  581MOL0     C76606   0.185   4.001   8.988  0.2510  0.3926 -0.1387
  581MOL0     O76607   0.368   3.754   9.045  0.5106  0.4685 -0.4015
  581MOL0     C76608   0.621   3.662   9.077  0.0897 -0.1635  0.3339
  581MOL0     C76609   0.751   3.631   9.092  0.4104 -0.3624  0.0908
  581MOL0     N76610   1.262   3.612   9.598  0.1066 -0.7308 -0.3050
  581MOL0     N76611   1.344   3.645   9.691  0.5459 -0.2620 -0.0284
  581MOL0     C76612   2.184   3.604  10.506 -0.2894  0.1139 -0.7271
  581MOL0     C76613   2.307   3.604  10.585  0.3864  0.8139  0.4006
  581MOL0     C76614   2.629   3.722  10.861 -0.3224  0.2282  0.2207
  581MOL0     C76615   2.616   3.748  11.002 -0.2878 -0.4896 -0.8051
  581MOL0     C76616   2.720   3.728  11.094  0.2830 -0.4159  0.0150
  581MOL0     C76617   2.842   3.694  11.037  0.1210  0.0331 -0.6921
  581MOL0     O76618   2.954   3.685  11.111 -0.4519  0.4515  0.0371
  581MOL0     C76619   2.941   3.684  11.250 -1.1026  0.1685 -0.3346
  581MOL0     C76620   2.882   3.555  11.312 -0.0928  0.0570  0.5029
  581MOL0     C76621   2.967   3.432  11.276  0.1789 -0.0563  0.1360
  581MOL0     C76622   3.107   3.430  11.338  0.4685  0.1540 -0.3487
  581MOL0     C76623   3.111   3.412  11.481  0.3721 -0.4930  0.1079
  581MOL0     C76624   3.113   3.400  11.607  0.4414  0.2249 -0.2351
  581MOL0     C76625   2.858   3.674  10.901  0.6999  0.1231 -0.2709
  581MOL0     C76626   2.752   3.669  10.814 -0.1406 -0.9778  0.1706
  581MOL0     H76627   2.499   3.821  10.409 -0.0574  0.1757  1.2123
  581MOL0     H76628   2.286   3.835  10.273 -0.5290  3.1143  1.0738
  581MOL0     H76629   2.040   3.874  10.427  2.1317  1.2589 -2.2159
  581MOL0     H76630   1.898   3.770  10.390  0.5032 -2.3150 -0.6485
  581MOL0     H76631   2.065   3.959  10.216  1.1944 -1.4315 -1.7034
  581MOL0     H76632   1.901   3.969  10.243 -1.2676 -0.7728 -1.3871
  581MOL0     H76633   1.839   3.779  10.124 -2.4690  2.6851 -3.8795
  581MOL0     H76634   2.013   3.759  10.061 -1.7872 -1.1437 -1.4358
  581MOL0     H76635   1.849   4.015  10.035  2.5130  1.2722  1.2842
  581MOL0     H76636   1.995   3.977   9.958  0.1267 -0.9265 -0.5143
  581MOL0     H76637   1.870   3.778   9.836 -0.8721 -0.7533  1.1164
  581MOL0     H76638   1.838   3.947   9.794  1.6982 -0.7661  0.0271
  581MOL0     H76639   1.623   3.921   9.943 -1.5740 -0.6540  0.0276
  581MOL0     H76640   1.688   3.761   9.981 -0.0769 -0.0407  1.1535
  581MOL0     H76641   1.633   3.839   9.688 -3.3014  0.2258 -0.0803
  581MOL0     H76642   1.632   3.686   9.768 -1.7440 -0.1851  0.7936
  581MOL0     H76643   1.434   3.925   9.799 -2.9452 -0.9674  0.5228
  581MOL0     H76644   1.425   3.782   9.894 -0.8830 -0.8784 -0.3243
  581MOL0     H76645   1.390   3.889   9.490  1.6359 -0.4645  0.0722
  581MOL0     H76646   1.220   3.786   9.311 -3.2645  1.5709  0.3608
  581MOL0     H76647   1.084   3.733   9.390 -0.6889 -2.4883 -1.1043
  581MOL0     H76648   1.145   3.483   9.351 -0.6398  1.5794  0.6638
  581MOL0     H76649   1.311   3.529   9.319 -0.0803 -0.0672  0.3913
  581MOL0     H76650   1.260   3.621   9.102 -3.4112  3.3122 -0.2189
  581MOL0     H76651   1.203   3.455   9.127 -2.1614 -0.7341  2.0987
  581MOL0     H76652   0.991   3.498   9.139 -2.3640  1.3353 -1.0227
  581MOL0     H76653   1.051   3.605   9.003 -0.3624 -0.7203  0.1928
  581MOL0     H76654   0.874   3.901   9.234  0.6641 -1.1977  0.5642
  581MOL0     H76655   0.646   3.989   9.168  2.4446  1.0284 -2.0710
  581MOL0     H76656   0.329   4.121   9.260 -0.1427 -1.9902 -0.0742
  581MOL0     H76657   0.081   4.230   9.285  1.3352  3.4255 -2.7266
  581MOL0     H76658  -0.157   4.061   9.325  1.3499 -0.2302 -0.1063
  581MOL0     H76659  -0.160   3.965   9.178 -1.6709 -1.1466  2.7348
  581MOL0     H76660  -0.379   4.005   9.263 -0.7159 -0.2021 -0.5229
  581MOL0     H76661  -0.369   4.072   9.097 -0.0134  0.6153 -0.3021
  581MOL0     H76662  -0.360   4.294   9.210 -0.4346  1.3097  0.6259
  581MOL0     H76663  -0.354   4.212   9.368  0.5127  3.5585 -1.3096
  581MOL0     H76664  -0.582   4.174   9.179  0.0500  2.4686 -0.1561
  581MOL0     H76665  -0.563   4.103   9.339  1.7984 -0.4886  1.0074
  581MOL0     H76666  -0.568   4.335   9.439  0.5864 -2.3544  0.5768
  581MOL0     H76667  -0.721   4.307   9.336 -0.2656  0.1487  0.7212
  581MOL0     H76668  -0.595   4.406   9.144  3.1799 -0.2996 -0.3667
  581MOL0     H76669  -0.473   4.455   9.251  0.6633 -2.2059  0.1106
  581MOL0     H76670  -0.771   4.525   9.243  1.4542  2.1360 -2.1375
  581MOL0     H76671  -0.705   4.551   9.390 -2.9020  0.5519 -0.9795
  581MOL0     H76672  -0.699   4.740   9.239 -1.5888 -2.0409  3.7922
  581MOL0     H76673  -0.573   4.660   9.138  1.1520 -1.7833  0.5614
  581MOL0     H76674  -0.015   4.018   8.926  0.0235 -2.5572  0.7472
  581MOL0     H76675   0.222   3.940   8.907 -0.0615 -3.1037  2.1652
  581MOL0     H76676   0.555   3.579   9.056 -0.8833  0.7904 -0.4981
  581MOL0     H76677   0.788   3.531   9.073  1.8657 -0.2938  2.1203
  581MOL0     H76678   2.095   3.543  10.515 -1.4289  1.8011 -0.1198
  581MOL0     H76679   2.314   3.538  10.670 -3.7903 -1.4857 -0.7433
  581MOL0     H76680   2.520   3.786  11.038 -1.4657 -2.8306 -1.2877
  581MOL0     H76681   2.694   3.740  11.199  0.1285 -0.0613 -0.0633
  581MOL0     H76682   2.883   3.773  11.278  1.4159  1.0122  2.8794
  581MOL0     H76683   3.041   3.709  11.289 -1.5953  1.0679  0.3950
  581MOL0     H76684   2.883   3.560  11.421 -1.1303 -3.4824  0.7988
  581MOL0     H76685   2.777   3.551  11.280  0.1906  1.1111 -0.6238
  581MOL0     H76686   2.978   3.421  11.168 -2.0611 -1.0055 -0.0569
  581MOL0     H76687   2.919   3.336  11.299  2.4404 -1.4191 -0.5637
  581MOL0     H76688   3.164   3.347  11.295  0.3856 -0.3889  0.5541
  581MOL0     H76689   3.167   3.516  11.307  0.3028  0.9018  1.2897
  581MOL0     H76690   3.108   3.394  11.714 -0.3464  1.0428 -0.2145
  581MOL0     H76691   2.953   3.639  10.863  0.2676  0.8153 -2.0528
  581MOL0     H76692   2.758   3.624  10.715  2.5119 -2.3958  0.8753
  582MOL0     O76693   1.203   5.155  10.461 -0.7689  0.4954 -0.0636
  582MOL0     C76694   1.129   5.079  10.400 -0.4168  0.3010  0.3485
  582MOL0     O76695   1.112   5.084  10.259 -1.0038 -0.1931  0.0243
  582MOL0     C76696   1.198   5.172  10.189 -0.4999 -0.6352  0.1876
  582MOL0     C76697   1.190   5.314  10.187 -0.2337  0.3103  0.0527
  582MOL0     C76698   1.273   5.387  10.096 -0.4852  0.0221  0.0948
  582MOL0     C76699   1.363   5.327  10.014 -0.4266  0.1852 -0.5382
  582MOL0     O76700   1.444   5.400   9.932  0.0928 -0.5546  0.1050
  582MOL0     C76701   1.416   5.380   9.790 -0.2279 -0.0005 -0.8617
  582MOL0     C76702   1.294   5.463   9.759  0.2037 -0.2263 -0.4996
  582MOL0     C76703   1.265   5.464   9.606  0.0382  0.1125 -0.7609
  582MOL0     C76704   1.244   5.325   9.547 -0.4425 -0.7056  0.5237
  582MOL0     C76705   1.266   5.329   9.402 -0.3487 -0.2813  0.0582
  582MOL0     C76706   1.236   5.203   9.325  0.0360  0.6714  0.1927
  582MOL0     C76707   1.207   5.216   9.173 -0.4963 -0.2303 -0.5018
  582MOL0     C76708   1.061   5.252   9.151  0.6086 -1.1691  0.5895
  582MOL0     N76709   1.017   5.223   9.014 -0.2549  0.0866  0.1077
  582MOL0     C76710   1.112   5.229   8.918 -0.4792 -0.1080  0.6731
  582MOL0     C76711   1.067   5.148   8.818 -0.0387  0.3405 -0.1274
  582MOL0     C76712   1.146   5.104   8.695 -0.3003 -0.3202  1.1250
  582MOL0     C76713   1.291   5.090   8.722  1.1364  0.4547  0.2770
  582MOL0     C76714   1.364   5.020   8.615 -0.2210  0.1385 -0.1384
  582MOL0     C76715   1.512   4.984   8.647 -0.0872  0.3771 -0.4280
  582MOL0     O76716   1.609   5.095   8.645  0.2253 -0.2896  0.1864
  582MOL0     C76717   1.737   5.053   8.660 -0.3282  0.4676  0.3678
  582MOL0     C76718   1.806   5.028   8.543 -0.6697 -0.2111 -0.2275
  582MOL0     C76719   1.944   4.992   8.556  0.1861  0.1035 -0.0275
  582MOL0     C76720   1.999   4.981   8.681  0.3610  0.2994  0.2155
  582MOL0     C76721   2.136   4.931   8.698  0.1643  0.3478  0.0949
  582MOL0     O76722   2.167   4.859   8.812  0.3810  0.3919  0.4782
  582MOL0     C76723   2.298   4.823   8.829 -0.5126 -0.1716  0.1213
  582MOL0     C76724   2.373   4.743   8.740 -0.0131  0.3300  0.3422
  582MOL0     C76725   2.503   4.708   8.760  0.5975 -0.5297 -0.2313
  582MOL0     C76726   2.570   4.755   8.874  0.8511  0.4702 -0.3050
  582MOL0     O76727   2.699   4.727   8.916 -0.0123  0.1462 -0.6980
  582MOL0     C76728   2.792   4.831   8.882  0.9290  0.9594 -0.0454
  582MOL0     C76729   2.880   4.776   8.773  0.2833  0.0687  0.4797
  582MOL0     C76730   2.997   4.682   8.811 -0.0410  0.3552  0.1133
  582MOL0     C76731   3.113   4.763   8.871 -0.0673  0.5639  0.3849
  582MOL0     C76732   3.240   4.672   8.871  0.6371 -0.0790  0.5093
  582MOL0     C76733   3.213   4.544   8.950  0.2002  0.4103 -0.4919
  582MOL0     C76734   3.345   4.479   9.011 -0.0281 -0.3560 -0.3734
  582MOL0     C76735   3.428   4.394   8.916  0.1804 -0.5040 -0.0803
  582MOL0    Cl76736   3.594   4.394   8.987 -0.2931  0.0250 -0.4921
  582MOL0     C76737   2.491   4.832   8.970  0.8362 -0.3649  0.7697
  582MOL0     C76738   2.351   4.865   8.946  0.1330  0.3619  0.2490
  582MOL0     O76739   2.213   4.953   8.608 -0.6212 -0.3963 -0.1187
  582MOL0     C76740   1.930   5.012   8.799  1.1156 -0.3484 -0.0908
  582MOL0     C76741   1.797   5.055   8.782 -0.1509  0.7597 -0.7418
  582MOL0     N76742   0.936   5.119   8.847 -0.2963  0.2158 -0.0874
  582MOL0     N76743   0.909   5.160   8.968 -0.8039 -0.4169 -0.0930
  582MOL0     C76744   1.365   5.187  10.012 -0.4149  1.1433 -0.6781
  582MOL0     C76745   1.292   5.106  10.100  0.2949  0.1492  0.2937
  582MOL0     C76746   1.055   4.980  10.475  0.3586  0.4653  0.6735
  582MOL0     C76747   0.950   4.908  10.413  0.2857 -0.2050  0.0507
  582MOL0     C76748   0.887   4.801  10.487 -1.0038 -0.5044 -0.5489
  582MOL0     C76749   0.924   4.770  10.616 -0.7346 -0.6799  0.1619
  582MOL0     O76750   0.843   4.693  10.693  0.1109  0.1589  0.0726
  582MOL0     C76751   0.833   4.695  10.837 -1.0330  0.2609 -0.1334
  582MOL0     C76752   0.750   4.799  10.906  0.2149 -1.1834 -0.3153
  582MOL0     C76753   0.720   4.759  11.054 -0.1265 -0.3141  0.5740
  582MOL0     C76754   0.573   4.810  11.098 -0.1660  0.1776 -0.4427
  582MOL0     C76755   0.561   4.784  11.243 -0.0685  0.2837 -0.8191
  582MOL0     C76756   0.529   4.769  11.362  0.5871  0.6970  0.2461
  582MOL0     C76757   1.030   4.847  10.681  0.3548  0.0144  0.9301
  582MOL0     C76758   1.098   4.945  10.607 -0.3898  0.1986  0.0217
  582MOL0     H76759   1.117   5.365  10.249 -2.1330 -1.3237 -0.7435
  582MOL0     H76760   1.258   5.494  10.092  1.0546  0.2400 -0.9262
  582MOL0     H76761   1.410   5.272   9.770 -1.0469  0.3231 -2.6265
  582MOL0     H76762   1.497   5.402   9.720  0.1147 -0.3958 -0.5929
  582MOL0     H76763   1.296   5.565   9.799  0.9179 -0.4151 -0.0387
  582MOL0     H76764   1.201   5.425   9.803 -0.2037  2.1250  0.8353
  582MOL0     H76765   1.353   5.519   9.572 -1.7472  3.0365 -1.0120
  582MOL0     H76766   1.173   5.517   9.580 -0.4656 -0.7227 -0.7233
  582MOL0     H76767   1.308   5.246   9.586  1.5338  0.0767 -0.9348
  582MOL0     H76768   1.141   5.302   9.576 -0.5849  0.3052  0.8885
  582MOL0     H76769   1.370   5.351   9.378 -0.1462  0.1220  1.2549
  582MOL0     H76770   1.209   5.413   9.360  0.8025  0.2898 -0.3797
  582MOL0     H76771   1.151   5.149   9.367  2.1882 -3.8067 -0.5838
  582MOL0     H76772   1.325   5.140   9.339  0.4020  1.1837  0.1768
  582MOL0     H76773   1.264   5.304   9.143 -1.3058  0.0020 -1.3974
  582MOL0     H76774   1.235   5.129   9.113 -0.9632 -0.6960 -0.0660
  582MOL0     H76775   1.038   5.356   9.177 -1.9238 -1.5124 -0.0096
  582MOL0     H76776   0.994   5.190   9.212  1.1727 -0.0110  2.4580
  582MOL0     H76777   1.206   5.282   8.917 -1.5394  1.9317 -1.8776
  582MOL0     H76778   1.126   5.181   8.620  1.3670  0.3323  1.3173
  582MOL0     H76779   1.110   5.008   8.657 -2.5825  0.4973  1.0549
  582MOL0     H76780   1.308   5.045   8.820 -0.7469 -0.5921  0.1705
  582MOL0     H76781   1.335   5.190   8.732 -0.4097  0.9968  2.1849
  582MOL0     H76782   1.306   4.936   8.575 -0.1714  0.5980 -1.2248
  582MOL0     H76783   1.356   5.092   8.533 -2.3938 -0.0319 -0.1386
  582MOL0     H76784   1.539   4.912   8.570  2.1620  0.9738 -0.2664
  582MOL0     H76785   1.510   4.930   8.742  0.6445 -0.9668 -1.1604
  582MOL0     H76786   1.756   5.028   8.446 -0.3149 -0.9709 -0.4199
  582MOL0     H76787   2.000   4.968   8.466 -1.4612  2.0197 -1.6687
  582MOL0     H76788   2.322   4.709   8.650 -2.9932 -1.4287  2.5052
  582MOL0     H76789   2.560   4.646   8.692  1.1069 -0.4668  0.1300
  582MOL0     H76790   2.856   4.841   8.970  1.3505 -2.6535  0.2210
  582MOL0     H76791   2.746   4.927   8.858  0.2095  0.8673  0.9089
  582MOL0     H76792   2.920   4.857   8.713  1.0494 -2.4320 -2.6877
  582MOL0     H76793   2.817   4.716   8.706 -0.6251 -2.9118  3.6719
  582MOL0     H76794   3.041   4.642   8.720  2.5566  1.4244  0.8144
  582MOL0     H76795   2.966   4.598   8.875 -1.3911 -0.1413 -1.1267
  582MOL0     H76796   3.139   4.844   8.802 -0.6747  0.0259 -0.4997
  582MOL0     H76797   3.091   4.804   8.970  3.1333  3.7156 -0.0016
  582MOL0     H76798   3.327   4.728   8.906  1.7492 -0.9168 -0.8355
  582MOL0     H76799   3.279   4.640   8.774 -0.3702 -1.0361  0.4045
  582MOL0     H76800   3.168   4.474   8.880 -1.4394  0.9144  0.0077
  582MOL0     H76801   3.143   4.556   9.034 -0.2610 -2.1738 -0.4193
  582MOL0     H76802   3.409   4.559   9.049 -1.3631  1.2700 -1.4038
  582MOL0     H76803   3.322   4.419   9.099  0.5399 -2.3413 -1.5030
  582MOL0     H76804   3.438   4.443   8.818 -1.6633 -1.4699 -0.7985
  582MOL0     H76805   3.386   4.294   8.906 -0.2675 -0.6261  2.4443
  582MOL0     H76806   2.538   4.853   9.065 -0.0162  0.2901  1.0625
  582MOL0     H76807   2.292   4.911   9.025  3.5194 -0.3123  3.4579
  582MOL0     H76808   1.963   4.995   8.901 -1.1226 -0.8511  0.5959
  582MOL0     H76809   1.745   5.087   8.872  0.3300  0.8499 -0.4924
  582MOL0     H76810   1.440   5.135   9.953  0.4516  0.5624  0.8750
  582MOL0     H76811   1.290   4.998  10.091 -1.0815 -0.1064  2.8698
  582MOL0     H76812   0.916   4.922  10.311 -1.8105  0.3916  0.7853
  582MOL0     H76813   0.800   4.753  10.442 -1.3387 -0.3172 -0.1002
  582MOL0     H76814   0.935   4.682  10.875 -0.9719 -1.4192 -0.8060
  582MOL0     H76815   0.791   4.600  10.872  1.4300 -1.8507 -2.4419
  582MOL0     H76816   0.798   4.896  10.889 -0.6213 -0.0620  3.0707
  582MOL0     H76817   0.656   4.792  10.851  0.3466 -4.2370 -0.3311
  582MOL0     H76818   0.800   4.804  11.113  0.3187 -1.4430  0.8703
  582MOL0     H76819   0.733   4.650  11.065 -3.5621 -0.9617 -0.6215
  582MOL0     H76820   0.567   4.919  11.105 -1.3733  0.0683  0.4192
  582MOL0     H76821   0.501   4.767  11.028  0.0718  0.0233 -0.5967
  582MOL0     H76822   0.507   4.763  11.467 -2.1947 -2.9892 -0.3423
  582MOL0     H76823   1.066   4.841  10.783 -0.3293  1.2149  1.2585
  582MOL0     H76824   1.180   4.992  10.659  1.4694 -1.5004 -1.2170
  583MOL0     O76825   0.466   1.987   9.040 -0.3117 -0.3420 -0.1555
  583MOL0     C76826   0.535   1.885   9.018 -0.1181  0.0266 -0.2859
  583MOL0     O76827   0.490   1.760   8.996  0.5609  0.0490 -0.2945
  583MOL0     C76828   0.349   1.753   9.010  0.4475  0.3087 -0.4149
  583MOL0     C76829   0.289   1.750   9.139 -0.5858 -0.0103  0.0781
  583MOL0     C76830   0.148   1.727   9.155 -0.0767  0.7450 -0.1923
  583MOL0     C76831   0.060   1.699   9.050 -0.8427 -0.4271 -0.3919
  583MOL0     O76832  -0.063   1.662   9.073 -0.4650 -0.2274  0.3405
  583MOL0     C76833  -0.138   1.707   9.186  0.1926  0.1339 -0.3677
  583MOL0     C76834  -0.289   1.654   9.181 -0.3492 -0.8709 -0.2149
  583MOL0     C76835  -0.294   1.500   9.180  0.0460 -0.8775 -0.4760
  583MOL0     C76836  -0.437   1.440   9.154  0.5395 -0.3129  0.2853
  583MOL0     C76837  -0.539   1.493   9.258 -0.3667  0.2776 -0.4207
  583MOL0     C76838  -0.666   1.406   9.250  0.9447  0.0431  0.7242
  583MOL0     C76839  -0.769   1.459   9.348  0.4250 -0.1284 -0.9826
  583MOL0     C76840  -0.904   1.383   9.340  1.0420  0.3260  0.0256
  583MOL0     N76841  -0.986   1.429   9.454 -0.5034 -0.3878 -0.2828
  583MOL0     C76842  -1.055   1.544   9.453  0.0753 -0.2959 -0.1457
  583MOL0     C76843  -1.118   1.548   9.572 -0.3147 -0.4043 -0.3771
  583MOL0     C76844  -1.214   1.653   9.610  0.8518 -1.0078 -0.2658
  583MOL0     C76845  -1.360   1.615   9.571 -0.5123  0.1657 -0.2602
  583MOL0     C76846  -1.451   1.731   9.617  0.4903 -0.0714 -0.5602
  583MOL0     C76847  -1.591   1.698   9.562 -0.8042 -0.2710  0.2909
  583MOL0     O76848  -1.606   1.701   9.418  0.7479  0.2309 -0.1552
  583MOL0     C76849  -1.737   1.711   9.366  0.1127  0.0789  0.5453
  583MOL0     C76850  -1.740   1.739   9.231  0.1696 -0.1481  0.4676
  583MOL0     C76851  -1.862   1.758   9.164  0.1188 -0.7990  0.5763
  583MOL0     C76852  -1.987   1.736   9.233 -0.0246  0.2113  0.0573
  583MOL0     C76853  -2.113   1.742   9.161  0.6125  0.4612  1.0251
  583MOL0     O76854  -2.233   1.752   9.222 -0.3334 -0.2704 -1.0334
  583MOL0     C76855  -2.353   1.727   9.149  0.2978 -0.3381  0.8403
  583MOL0     C76856  -2.452   1.827   9.162 -0.7985 -0.1305  0.0509
  583MOL0     C76857  -2.564   1.823   9.085 -0.0303 -0.5395 -0.0660
  583MOL0     C76858  -2.588   1.715   9.003 -0.3395 -0.3012  0.5715
  583MOL0     O76859  -2.705   1.721   8.932 -0.9518 -0.1085 -0.6537
  583MOL0     C76860  -2.702   1.638   8.810  0.6779  0.2593 -0.2017
  583MOL0     C76861  -2.835   1.639   8.729 -0.2101  0.1092 -0.1931
  583MOL0     C76862  -2.953   1.568   8.795  0.8001 -0.1989 -0.4631
  583MOL0     C76863  -3.081   1.582   8.711  0.1566  0.6324 -0.3950
  583MOL0     C76864  -3.195   1.493   8.773 -1.0539 -0.6333 -0.3355
  583MOL0     C76865  -3.321   1.494   8.689  0.4643 -0.0507 -0.2536
  583MOL0     C76866  -3.415   1.611   8.741  0.5126  0.2780 -0.6987
  583MOL0     C76867  -3.564   1.585   8.720 -0.0647  0.5731 -0.2524
  583MOL0    Cl76868  -3.594   1.569   8.548  0.5113  0.3487  0.1454
  583MOL0     C76869  -2.491   1.611   9.000 -0.3224  0.1044 -0.1128
  583MOL0     C76870  -2.384   1.617   9.080 -0.0610  0.0332  0.5530
  583MOL0     O76871  -2.101   1.724   9.037 -0.5892  0.2053 -0.6290
  583MOL0     C76872  -1.983   1.701   9.369  1.0249  0.0239  0.0708
  583MOL0     C76873  -1.862   1.701   9.438 -0.1488  0.4053 -0.0550
  583MOL0     N76874  -1.089   1.435   9.640 -0.1815  0.2667 -0.1012
  583MOL0     N76875  -1.018   1.358   9.567  0.4100 -0.1776 -0.0051
  583MOL0     C76876   0.116   1.712   8.924  0.2393 -0.1161  0.4717
  583MOL0     C76877   0.254   1.741   8.908  0.3369  0.8972 -0.2099
  583MOL0     C76878   0.679   1.897   9.023 -0.2641 -0.4924 -0.2705
  583MOL0     C76879   0.755   1.782   9.044 -0.0869 -0.1075 -0.0242
  583MOL0     C76880   0.895   1.791   9.056 -1.2841 -0.2807  0.5056
  583MOL0     C76881   0.961   1.919   9.055  0.0397 -0.2405  0.4546
  583MOL0     O76882   1.100   1.916   9.084 -0.4902 -0.2865  0.3490
  583MOL0     C76883   1.165   2.043   9.098 -0.6308 -0.1219 -0.5738
  583MOL0     C76884   1.311   2.016   9.114  0.7796  0.1715 -0.4890
  583MOL0     C76885   1.382   1.970   8.992  0.0836 -0.5222  0.8303
  583MOL0     C76886   1.522   1.905   9.024 -0.4585  0.3415  0.1767
  583MOL0     C76887   1.576   1.875   8.891 -1.5070 -0.6168  0.4312
  583MOL0     C76888   1.634   1.847   8.785  0.0686 -0.6673 -0.1806
  583MOL0     C76889   0.882   2.034   9.026  1.3501  0.4110 -0.1489
  583MOL0     C76890   0.746   2.026   9.013  0.7455 -0.8005  0.0022
  583MOL0     H76891   0.360   1.751   9.220 -0.3824  1.7834 -0.0653
  583MOL0     H76892   0.113   1.719   9.257  0.7487 -0.1585  0.0332
  583MOL0     H76893  -0.143   1.816   9.192 -0.6652  0.2855 -2.8162
  583MOL0     H76894  -0.104   1.661   9.279 -2.3156  0.1546  0.6411
  583MOL0     H76895  -0.341   1.697   9.095  2.0967  2.2288 -0.3424
  583MOL0     H76896  -0.337   1.689   9.273 -0.9344 -1.5192 -0.2658
  583MOL0     H76897  -0.256   1.455   9.272 -1.1868 -0.6648  0.1659
  583MOL0     H76898  -0.233   1.460   9.099  1.0636  1.6179 -1.0557
  583MOL0     H76899  -0.471   1.477   9.057 -0.9064 -1.9543  0.1125
  583MOL0     H76900  -0.446   1.332   9.144  1.2352 -0.1560 -3.7130
  583MOL0     H76901  -0.564   1.597   9.235 -0.7815 -0.3320 -3.2073
  583MOL0     H76902  -0.490   1.496   9.355 -1.1034  1.6657 -0.0748
  583MOL0     H76903  -0.636   1.302   9.265  1.8418  0.2475  0.4091
  583MOL0     H76904  -0.712   1.398   9.151 -0.9927 -0.8421  1.6372
  583MOL0     H76905  -0.722   1.449   9.446  0.0923  0.4810 -0.7506
  583MOL0     H76906  -0.798   1.564   9.335  2.8770  0.8432  0.7146
  583MOL0     H76907  -0.898   1.274   9.351 -1.0748  0.3388  1.9863
  583MOL0     H76908  -0.941   1.415   9.243  0.8354 -1.3350 -0.4738
  583MOL0     H76909  -1.066   1.612   9.369 -0.5232 -2.6344 -2.0556
  583MOL0     H76910  -1.180   1.745   9.562  2.5483 -2.9866 -3.1969
  583MOL0     H76911  -1.218   1.673   9.717 -4.5676  0.2874 -0.4399
  583MOL0     H76912  -1.393   1.519   9.611 -0.4809 -1.2611 -3.3375
  583MOL0     H76913  -1.365   1.600   9.462  0.4471  0.1213 -0.3044
  583MOL0     H76914  -1.448   1.739   9.726 -0.7587  1.5823 -0.6120
  583MOL0     H76915  -1.419   1.829   9.579  0.2982  0.3476  0.3387
  583MOL0     H76916  -1.653   1.768   9.617  0.5230  0.2145  1.2380
  583MOL0     H76917  -1.616   1.594   9.584  2.1814 -1.4462 -1.1555
  583MOL0     H76918  -1.650   1.755   9.173 -0.4287 -0.6892 -0.6341
  583MOL0     H76919  -1.859   1.788   9.059  0.0081 -0.6563  0.6134
  583MOL0     H76920  -2.433   1.911   9.227  2.5585  0.9040 -2.0441
  583MOL0     H76921  -2.630   1.909   9.086  2.4648  1.5562 -2.0091
  583MOL0     H76922  -2.675   1.532   8.817  0.7828  0.0298 -2.8872
  583MOL0     H76923  -2.621   1.685   8.755  1.6254 -0.2653  0.7050
  583MOL0     H76924  -2.825   1.600   8.627 -0.7999 -1.7777  0.4331
  583MOL0     H76925  -2.871   1.742   8.715 -0.8740 -0.3786 -2.6229
  583MOL0     H76926  -2.979   1.615   8.891  0.5374  1.8762 -1.4935
  583MOL0     H76927  -2.917   1.465   8.806 -1.2677 -0.7540  2.2383
  583MOL0     H76928  -3.111   1.684   8.689  1.6405  1.5604  1.4948
  583MOL0     H76929  -3.056   1.532   8.617  0.7102  1.0441 -0.4754
  583MOL0     H76930  -3.216   1.528   8.874 -0.7566  0.5511 -0.6639
  583MOL0     H76931  -3.156   1.391   8.785  0.4538 -0.2929 -1.9399
  583MOL0     H76932  -3.371   1.397   8.691  2.4141 -1.0869  0.6833
  583MOL0     H76933  -3.287   1.513   8.587  2.4018 -1.4622  0.0851
  583MOL0     H76934  -3.402   1.604   8.849  2.3563  1.2177 -0.8274
  583MOL0     H76935  -3.385   1.708   8.701  2.1543 -0.2200 -0.7565
  583MOL0     H76936  -3.623   1.668   8.760  0.3658 -0.5759  3.1149
  583MOL0     H76937  -3.585   1.494   8.777 -1.3118  1.2794  0.4641
  583MOL0     H76938  -2.503   1.532   8.926 -0.2365  2.0311 -2.3190
  583MOL0     H76939  -2.307   1.541   9.087  0.3753  0.3583 -0.5540
  583MOL0     H76940  -2.076   1.693   9.426 -0.2559 -2.6083 -2.1623
  583MOL0     H76941  -1.860   1.681   9.544  2.1124 -0.0994 -0.1588
  583MOL0     H76942   0.054   1.710   8.836  0.1439  0.8693  0.5014
  583MOL0     H76943   0.287   1.765   8.807  2.2850  1.4695  0.5094
  583MOL0     H76944   0.707   1.685   9.053 -1.7544  0.7135  0.4172
  583MOL0     H76945   0.957   1.705   9.077 -2.4739 -0.7257  2.5301
  583MOL0     H76946   1.119   2.093   9.184 -0.4907 -4.4139  2.2728
  583MOL0     H76947   1.164   2.105   9.008  2.1088  2.4147  0.9576
  583MOL0     H76948   1.370   2.095   9.162  2.5142 -0.9214 -0.7525
  583MOL0     H76949   1.321   1.944   9.195 -2.2864  2.5994  2.3454
  583MOL0     H76950   1.397   2.048   8.917  1.2193  0.6678  2.2203
  583MOL0     H76951   1.317   1.892   8.952  1.6103 -1.7578  0.6305
  583MOL0     H76952   1.586   1.979   9.073  1.0924 -1.6211  1.2584
  583MOL0     H76953   1.517   1.812   9.083  0.9296  0.9119  1.2348
  583MOL0     H76954   1.691   1.824   8.697  0.7999  0.0420  0.0982
  583MOL0     H76955   0.936   2.128   9.016  1.3414  0.7850  2.5485
  583MOL0     H76956   0.692   2.121   9.009  1.0512 -0.6369 -0.3369
  584MOL0     O76957   8.478   4.695   8.357  0.0603 -0.5503 -0.1881
  584MOL0     C76958   8.486   4.679   8.237  0.6969  0.6931  0.3307
  584MOL0     O76959   8.400   4.597   8.157 -0.0496  0.9864  0.0305
  584MOL0     C76960   8.285   4.535   8.207 -0.5671  0.5717 -0.4672
  584MOL0     C76961   8.232   4.544   8.337  0.8024  0.1503 -0.4202
  584MOL0     C76962   8.116   4.470   8.366 -0.0365  0.0006 -0.6181
  584MOL0     C76963   8.044   4.398   8.266 -0.0542 -0.1755  0.1785
  584MOL0     O76964   7.922   4.331   8.288  0.1779 -0.0037  0.5224
  584MOL0     C76965   7.835   4.379   8.389 -0.6705 -0.0054  0.1284
  584MOL0     C76966   7.688   4.361   8.336  0.4452  0.1134 -0.2731
  584MOL0     C76967   7.598   4.353   8.459 -0.6179 -0.3434  0.2786
  584MOL0     C76968   7.443   4.325   8.418 -0.0262  1.2246  0.9143
  584MOL0     C76969   7.345   4.309   8.532  0.9978  0.0553  0.2032
  584MOL0     C76970   7.210   4.260   8.492  0.0408 -0.4782  0.7579
  584MOL0     C76971   7.108   4.225   8.602  0.8608 -0.7408  0.3879
  584MOL0     C76972   6.970   4.185   8.543 -0.8030  0.6629  0.3891
  584MOL0     N76973   6.873   4.156   8.652 -0.2762  0.0449  0.1902
  584MOL0     C76974   6.870   4.030   8.706 -0.3013  0.5720 -0.4022
  584MOL0     C76975   6.775   4.043   8.805  0.1112 -1.0939  0.1967
  584MOL0     C76976   6.754   3.934   8.896 -0.3010 -0.0348 -0.3042
  584MOL0     C76977   6.607   3.913   8.914  0.4949  0.2593 -0.0861
  584MOL0     C76978   6.599   3.802   9.022 -0.2590  0.3921  0.8841
  584MOL0     C76979   6.448   3.785   9.070 -0.5260 -0.5408 -0.4025
  584MOL0     O76980   6.365   3.743   8.960 -0.3746  0.0225  0.2458
  584MOL0     C76981   6.230   3.727   8.982  0.5350  0.3166  0.0597
  584MOL0     C76982   6.160   3.779   9.094  0.4524  0.6527  1.0360
  584MOL0     C76983   6.022   3.799   9.077 -0.7573 -0.0957  0.6488
  584MOL0     C76984   5.947   3.752   8.966 -0.5087 -0.2447 -0.5503
  584MOL0     C76985   5.806   3.775   8.958 -0.9008 -0.3800 -0.1381
  584MOL0     O76986   5.745   3.850   9.069 -0.0480 -0.2744  0.0646
  584MOL0     C76987   5.610   3.827   9.080 -0.4213  0.9395  0.1928
  584MOL0     C76988   5.513   3.913   9.022 -0.0000 -0.8778 -0.6715
  584MOL0     C76989   5.373   3.897   9.045  0.2051 -0.0243  0.0497
  584MOL0     C76990   5.336   3.797   9.136 -0.2993 -0.0144 -0.3807
  584MOL0     O76991   5.210   3.771   9.170 -0.3388  0.1041  0.2221
  584MOL0     C76992   5.110   3.867   9.136  0.2765  0.4482 -0.3009
  584MOL0     C76993   4.980   3.803   9.196  0.3422  0.5004 -0.1200
  584MOL0     C76994   4.855   3.887   9.160 -0.0597 -0.3182  0.3700
  584MOL0     C76995   4.713   3.831   9.193 -0.3687 -0.4655 -0.0715
  584MOL0     C76996   4.591   3.924   9.135 -0.1814  0.4815 -0.0701
  584MOL0     C76997   4.447   3.873   9.158  0.0225  0.3056  0.6274
  584MOL0     C76998   4.348   3.998   9.154 -1.0266  0.3679 -0.5028
  584MOL0     C76999   4.326   4.067   9.013 -1.4874  0.8777  1.0634
  584MOL0    Cl77000   4.257   4.232   9.059  0.3681 -0.0944 -0.3887
  584MOL0     C77001   5.430   3.714   9.200 -0.1297  0.3992  0.6874
  584MOL0     C77002   5.565   3.736   9.175  0.2044  0.2630 -0.3715
  584MOL0     O77003   5.748   3.726   8.861  0.1784  0.4529 -0.3352
  584MOL0     C77004   6.020   3.689   8.864  0.1054  0.0981 -0.3507
  584MOL0     C77005   6.160   3.674   8.871 -0.5672 -0.2181 -0.1576
  584MOL0     N77006   6.721   4.171   8.803  0.1330 -0.4553 -0.6860
  584MOL0     N77007   6.785   4.241   8.717 -0.1532 -0.9000 -0.2878
  584MOL0     C77008   8.093   4.400   8.140 -0.6959 -0.2839  0.5582
  584MOL0     C77009   8.213   4.472   8.106 -0.6390  0.8370 -0.6295
  584MOL0     C77010   8.601   4.749   8.163 -0.0382  0.4730  0.1116
  584MOL0     C77011   8.666   4.859   8.226 -0.4474 -0.3760 -0.4293
  584MOL0     C77012   8.758   4.938   8.166 -0.2395  0.7943  0.6452
  584MOL0     C77013   8.799   4.898   8.037 -0.9414 -0.0883 -0.2486
  584MOL0     O77014   8.904   4.967   7.977  0.3510 -0.4508  0.0056
  584MOL0     C77015   8.949   4.936   7.847 -0.3706  0.4318 -0.3640
  584MOL0     C77016   9.082   5.003   7.824  1.4569  0.7635 -0.3913
  584MOL0     C77017   9.187   4.911   7.878  0.4119  0.8604  0.2542
  584MOL0     C77018   9.310   4.994   7.919  0.1447 -0.1552  0.1139
  584MOL0     C77019   9.410   4.901   7.991 -0.4230 -0.7645 -0.0300
  584MOL0     C77020   9.479   4.832   8.064 -0.3095 -0.1082 -0.6831
  584MOL0     C77021   8.747   4.783   7.984  0.5070 -0.0800  0.0915
  584MOL0     C77022   8.647   4.718   8.036 -0.1791  0.1202 -0.4725
  584MOL0     H77023   8.283   4.594   8.418  0.2911  1.1530 -0.7014
  584MOL0     H77024   8.083   4.453   8.468  1.8907  1.0255  0.2357
  584MOL0     H77025   7.845   4.484   8.416  0.8167  0.3573 -1.6474
  584MOL0     H77026   7.853   4.321   8.480  0.1350  0.9160  0.5754
  584MOL0     H77027   7.676   4.264   8.286 -3.0400 -0.1058  0.7384
  584MOL0     H77028   7.662   4.446   8.272  1.2611  0.4944 -0.1140
  584MOL0     H77029   7.605   4.450   8.509 -0.1610 -0.1524 -0.1507
  584MOL0     H77030   7.625   4.281   8.537 -0.4661  0.7218  1.2377
  584MOL0     H77031   7.402   4.393   8.343 -0.3715 -1.2457 -1.3026
  584MOL0     H77032   7.436   4.227   8.370  0.2635  0.7313  1.8513
  584MOL0     H77033   7.331   4.398   8.594 -2.1300 -2.5171  3.6747
  584MOL0     H77034   7.376   4.227   8.598  0.0011 -2.3495 -2.1075
  584MOL0     H77035   7.224   4.171   8.430  0.7018  0.3887 -0.3649
  584MOL0     H77036   7.156   4.341   8.442  0.9737 -1.8149 -2.7226
  584MOL0     H77037   7.132   4.140   8.666 -4.4923 -1.6494  1.6453
  584MOL0     H77038   7.100   4.317   8.662 -2.5500  0.2616 -1.3816
  584MOL0     H77039   6.985   4.108   8.467  3.7128  0.5188  1.1294
  584MOL0     H77040   6.939   4.281   8.501 -1.0886 -0.9240 -3.4112
  584MOL0     H77041   6.941   3.951   8.685  0.3628  1.3749 -1.2326
  584MOL0     H77042   6.789   3.968   8.994  1.8009 -1.2802 -0.5616
  584MOL0     H77043   6.816   3.847   8.875  0.6303  0.6339 -0.3893
  584MOL0     H77044   6.562   3.869   8.825 -0.5466  2.4698 -0.7312
  584MOL0     H77045   6.548   3.999   8.948 -1.3043 -1.9024  2.7282
  584MOL0     H77046   6.628   3.702   8.989 -2.7690 -0.6948  1.7109
  584MOL0     H77047   6.651   3.815   9.118 -2.3420 -1.2714  2.3415
  584MOL0     H77048   6.415   3.883   9.106  0.4724 -0.0903 -0.6769
  584MOL0     H77049   6.446   3.711   9.150 -2.5329 -0.8912 -0.7233
  584MOL0     H77050   6.210   3.805   9.187 -0.9907 -0.3478  2.1431
  584MOL0     H77051   5.971   3.846   9.161 -1.6719  1.0109 -0.4902
  584MOL0     H77052   5.556   3.988   8.956  0.6045  0.7793  1.4898
  584MOL0     H77053   5.296   3.962   9.005 -1.0388 -2.3199 -1.5757
  584MOL0     H77054   5.107   3.877   9.027  1.0466 -2.2418 -0.6413
  584MOL0     H77055   5.122   3.962   9.188 -1.3096  0.4500  0.1249
  584MOL0     H77056   4.995   3.790   9.304  1.5703  0.1123 -0.3206
  584MOL0     H77057   4.974   3.704   9.150 -0.2817 -0.3264  1.6420
  584MOL0     H77058   4.864   3.910   9.054 -2.1334 -0.6914  0.0684
  584MOL0     H77059   4.861   3.983   9.212 -0.2302  1.3934 -2.5392
  584MOL0     H77060   4.708   3.726   9.162  0.8397 -0.1566 -1.3574
  584MOL0     H77061   4.716   3.835   9.302  1.0063  0.5847 -0.1358
  584MOL0     H77062   4.597   3.938   9.027 -0.2862  1.7026  0.0678
  584MOL0     H77063   4.602   4.019   9.188  2.3600  1.1219 -1.6026
  584MOL0     H77064   4.441   3.835   9.260  0.8654 -1.6923 -0.0112
  584MOL0     H77065   4.419   3.795   9.087 -0.2751  1.1483 -0.2107
  584MOL0     H77066   4.252   3.957   9.186 -0.3931  0.3213  1.4628
  584MOL0     H77067   4.381   4.080   9.218  3.4791 -0.2547 -1.6678
  584MOL0     H77068   4.247   4.002   8.974 -1.7436  0.5897  2.0177
  584MOL0     H77069   4.414   4.072   8.949 -1.1269  1.7575  1.6066
  584MOL0     H77070   5.398   3.645   9.277  0.4708  0.5509  1.0849
  584MOL0     H77071   5.636   3.675   9.229 -2.2375 -0.7569  1.9148
  584MOL0     H77072   5.971   3.657   8.773 -1.0485 -0.2643  0.3767
  584MOL0     H77073   6.196   3.634   8.777 -2.8367  0.1394 -1.2494
  584MOL0     H77074   8.042   4.340   8.065 -2.2881 -0.8201  2.0131
  584MOL0     H77075   8.241   4.479   8.001  2.7708  0.3581  0.1051
  584MOL0     H77076   8.625   4.894   8.320  1.2420  1.3238 -0.2703
  584MOL0     H77077   8.798   5.025   8.217  0.1056  1.3817 -0.5997
  584MOL0     H77078   8.873   4.950   7.769 -2.5158 -3.1243  0.8767
  584MOL0     H77079   8.971   4.832   7.820 -0.9994 -0.2285  1.5141
  584MOL0     H77080   9.102   5.013   7.717  1.0781  2.1726 -0.3541
  584MOL0     H77081   9.066   5.106   7.857 -4.0037  1.1577 -3.2112
  584MOL0     H77082   9.223   4.844   7.800  1.0645 -0.2477  1.4521
  584MOL0     H77083   9.151   4.840   7.953  0.0009 -1.1262 -1.7487
  584MOL0     H77084   9.360   5.050   7.839  0.0077  1.4923  1.1270
  584MOL0     H77085   9.272   5.077   7.979 -2.4488 -1.3902  0.2788
  584MOL0     H77086   9.546   4.778   8.128 -0.9457 -0.7753 -0.5637
  584MOL0     H77087   8.780   4.741   7.889  0.0989 -1.5869  0.5802
  584MOL0     H77088   8.601   4.633   7.985 -0.5349 -0.7844  1.2711
  585MOL0     O77089   6.999  10.198  10.921  0.2989 -0.2780  0.1561
  585MOL0     C77090   6.977  10.311  10.969 -0.4434 -0.0735  1.2574
  585MOL0     O77091   7.072  10.390  11.024  0.1891  0.8724 -0.3105
  585MOL0     C77092   7.209  10.368  11.032  0.2866  0.6314  0.9460
  585MOL0     C77093   7.276  10.247  11.022  0.7108 -0.1795 -0.0708
  585MOL0     C77094   7.417  10.239  11.037 -0.1423  0.0615 -0.5464
  585MOL0     C77095   7.486  10.356  11.079  0.3978 -0.0296 -0.1374
  585MOL0     O77096   7.623  10.355  11.107 -0.3827 -0.0241  0.0746
  585MOL0     C77097   7.710  10.232  11.090 -0.0056  0.0875  0.5326
  585MOL0     C77098   7.852  10.261  11.137 -0.3584  0.3887  0.2195
  585MOL0     C77099   7.871  10.359  11.251 -0.1683 -0.4116 -0.4905
  585MOL0     C77100   7.802  10.301  11.382 -0.0806  0.1493  0.2614
  585MOL0     C77101   7.857  10.173  11.437 -0.2026 -0.2650 -0.0056
  585MOL0     C77102   8.010  10.186  11.459  0.0931 -0.0695 -0.2178
  585MOL0     C77103   8.058  10.073  11.548  0.4928  0.4302  0.3954
  585MOL0     C77104   8.048   9.931  11.494  0.2208 -0.7613  0.0843
  585MOL0     N77105   8.106   9.830  11.580  1.4098  0.0009  0.3499
  585MOL0     C77106   8.239   9.806  11.564 -0.1780 -0.3246 -0.1096
  585MOL0     C77107   8.255   9.714  11.664  0.1554  0.7020 -0.1625
  585MOL0     C77108   8.392   9.660  11.706  0.1699 -0.2692 -1.2014
  585MOL0     C77109   8.472   9.763  11.793  0.1277  0.4627 -0.0462
  585MOL0     C77110   8.390   9.793  11.924 -0.6008 -0.2433  1.1052
  585MOL0     C77111   8.361   9.662  12.007 -0.6096  0.0407  0.9084
  585MOL0     O77112   8.315   9.673  12.139 -0.3070 -0.5262  0.2411
  585MOL0     C77113   8.199   9.735  12.168  0.5167 -0.0585  0.4960
  585MOL0     C77114   8.181   9.753  12.305  0.7659 -0.0332  0.8953
  585MOL0     C77115   8.061   9.809  12.345  0.1015 -0.0088 -0.3448
  585MOL0     C77116   7.953   9.851  12.249 -0.2129 -0.0363  0.7090
  585MOL0     C77117   7.838   9.926  12.305 -0.1727 -0.6490 -0.3421
  585MOL0     O77118   7.743   9.946  12.223  0.4486  0.0444 -0.6144
  585MOL0     C77119   7.631  10.017  12.255 -0.0507 -0.9236  0.0104
  585MOL0     C77120   7.625  10.139  12.198 -0.3480  0.2683  0.0606
  585MOL0     C77121   7.520  10.228  12.228 -0.1910 -0.1466 -0.7344
  585MOL0     C77122   7.408  10.174  12.304  0.4928  0.4893 -0.3517
  585MOL0     O77123   7.294  10.243  12.332  0.0502  0.3510  0.1640
  585MOL0     C77124   7.272  10.379  12.288  0.3085  0.5961 -0.1507
  585MOL0     C77125   7.350  10.469  12.376 -0.6504 -0.3645 -0.0401
  585MOL0     C77126   7.305  10.615  12.352 -0.2991 -0.3690 -0.2011
  585MOL0     C77127   7.212  10.644  12.472 -1.4329  0.4113  1.4845
  585MOL0     C77128   7.139  10.777  12.453 -0.2183 -1.3238  0.4266
  585MOL0     C77129   7.059  10.802  12.325  0.4869 -0.7086 -0.1018
  585MOL0     C77130   6.941  10.695  12.331 -0.5220 -0.5185 -0.7645
  585MOL0     C77131   6.818  10.751  12.271  0.4641  0.5895  0.9227
  585MOL0    Cl77132   6.700  10.615  12.269 -0.0865  0.0213 -0.1813
  585MOL0     C77133   7.413  10.040  12.342 -0.2305  1.1393  0.1802
  585MOL0     C77134   7.521   9.961  12.313  1.0370  0.0792  0.5127
  585MOL0     O77135   7.836   9.966  12.423  0.1192  0.2342 -0.3362
  585MOL0     C77136   7.975   9.819  12.109 -0.6460 -1.2153 -1.0701
  585MOL0     C77137   8.096   9.756  12.075 -0.0483  0.1634 -0.0441
  585MOL0     N77138   8.134   9.685  11.726  0.6496  0.3262 -0.2016
  585MOL0     N77139   8.039   9.755  11.669 -0.3087  0.5209 -0.0779
  585MOL0     C77140   7.415  10.476  11.100  1.1586  0.5016 -0.0998
  585MOL0     C77141   7.280  10.481  11.068  0.3834 -0.5992  0.1123
  585MOL0     C77142   6.841  10.365  10.981 -0.5819 -0.0869 -0.9022
  585MOL0     C77143   6.802  10.472  11.068  0.7161 -0.0142 -0.7586
  585MOL0     C77144   6.665  10.507  11.072 -0.3249 -0.1070 -0.3775
  585MOL0     C77145   6.572  10.470  10.974  1.4163 -0.0154  0.7923
  585MOL0     O77146   6.446  10.516  10.964  0.1662  0.4407  0.5034
  585MOL0     C77147   6.398  10.610  11.062  0.8069 -0.1821 -0.1495
  585MOL0     C77148   6.247  10.634  11.038 -0.5761 -0.1294  0.4293
  585MOL0     C77149   6.187  10.688  11.162  1.1678 -0.7451  0.0634
  585MOL0     C77150   6.048  10.746  11.135 -1.0236  0.4248  0.0965
  585MOL0     C77151   6.001  10.825  11.246 -0.1317  0.4036 -0.3482
  585MOL0     C77152   5.959  10.895  11.340  0.1602 -0.5071 -1.0636
  585MOL0     C77153   6.618  10.378  10.884  0.3265 -0.5459  0.3183
  585MOL0     C77154   6.749  10.323  10.885  0.2220  0.3044 -0.0519
  585MOL0     H77155   7.228  10.159  10.979  0.6121  0.2588 -0.8866
  585MOL0     H77156   7.479  10.151  11.022  0.3154  0.0619  1.2184
  585MOL0     H77157   7.705  10.187  10.990 -0.9402 -2.2870  1.5699
  585MOL0     H77158   7.686  10.154  11.162 -0.2800  1.2588  1.7329
  585MOL0     H77159   7.900  10.301  11.047  0.1840  1.6091  1.0265
  585MOL0     H77160   7.899  10.166  11.163 -0.7447  0.0438 -0.3169
  585MOL0     H77161   7.843  10.460  11.222  2.1310  0.4538  0.1097
  585MOL0     H77162   7.977  10.364  11.278  0.2720  0.4144 -2.2319
  585MOL0     H77163   7.817  10.377  11.459 -1.1254 -1.6633  2.3733
  585MOL0     H77164   7.694  10.287  11.369  0.0862 -1.9778  0.7351
  585MOL0     H77165   7.842  10.088  11.369 -0.7335 -0.1275 -0.0643
  585MOL0     H77166   7.816  10.143  11.534  1.1672  1.9567  1.3328
  585MOL0     H77167   8.041  10.274  11.515  0.2372 -1.5402  2.1274
  585MOL0     H77168   8.068  10.193  11.366 -0.9059 -2.6191 -1.1377
  585MOL0     H77169   8.163  10.098  11.566  0.7898 -0.4542 -0.0422
  585MOL0     H77170   8.014  10.078  11.648 -1.4845  1.7220 -0.4760
  585MOL0     H77171   8.099   9.923  11.397  3.2025 -2.3423  1.6459
  585MOL0     H77172   7.941   9.912  11.478 -0.0108 -0.3541  1.1022
  585MOL0     H77173   8.311   9.840  11.491 -0.7763  1.5958  0.1499
  585MOL0     H77174   8.446   9.631  11.616 -2.7368 -3.5635 -2.1098
  585MOL0     H77175   8.379   9.566  11.760 -0.5198  0.7402  0.4497
  585MOL0     H77176   8.480   9.856  11.736  1.0080  0.9998  0.9274
  585MOL0     H77177   8.574   9.727  11.809 -0.2411  0.0517  1.6001
  585MOL0     H77178   8.452   9.856  11.989 -1.5528 -0.5365  2.3403
  585MOL0     H77179   8.297   9.843  11.896  1.1606  2.7067  0.0580
  585MOL0     H77180   8.455   9.607  11.998  0.0492  1.3344 -0.6256
  585MOL0     H77181   8.288   9.608  11.947 -0.5483  2.1339 -1.1803
  585MOL0     H77182   8.257   9.724  12.376  2.0073  1.5337  0.2616
  585MOL0     H77183   8.045   9.827  12.451 -3.8158 -1.0702 -0.6146
  585MOL0     H77184   7.707  10.162  12.131  0.6938 -0.1436  1.1478
  585MOL0     H77185   7.515  10.325  12.180 -1.9555 -0.6505 -1.6610
  585MOL0     H77186   7.166  10.406  12.293  0.4830  1.8984 -2.1845
  585MOL0     H77187   7.309  10.402  12.188  2.4926 -0.1094  0.4450
  585MOL0     H77188   7.456  10.464  12.350 -0.7054  2.6748 -1.3883
  585MOL0     H77189   7.349  10.440  12.481  1.2106 -1.2549 -0.2334
  585MOL0     H77190   7.250  10.621  12.258  0.7783  1.5034 -0.7592
  585MOL0     H77191   7.387  10.688  12.353  0.1230 -0.7360  2.7557
  585MOL0     H77192   7.131  10.570  12.475 -0.5986 -0.5214  1.3668
  585MOL0     H77193   7.267  10.635  12.566  0.4129 -2.9026  0.2459
  585MOL0     H77194   7.208  10.861  12.441 -1.4750 -0.1419  1.1216
  585MOL0     H77195   7.076  10.795  12.542 -0.2269 -0.4692  0.2595
  585MOL0     H77196   7.115  10.790  12.232  1.1164  1.4964 -0.0630
  585MOL0     H77197   7.017  10.903  12.331 -1.5713 -1.5793  0.7827
  585MOL0     H77198   6.971  10.597  12.291 -2.3296 -2.7555  2.8095
  585MOL0     H77199   6.914  10.671  12.434 -3.3962 -0.4045 -1.3908
  585MOL0     H77200   6.850  10.783  12.171 -0.3628  1.5487  0.9547
  585MOL0     H77201   6.777  10.840  12.320 -0.1260  1.5433 -1.1961
  585MOL0     H77202   7.338   9.976  12.387  0.0935 -1.3695 -2.5460
  585MOL0     H77203   7.530   9.855  12.332  2.1544  0.4111  2.0216
  585MOL0     H77204   7.889   9.842  12.048 -2.0987  1.1517  1.6485
  585MOL0     H77205   8.103   9.733  11.969  4.7975 -0.3561  0.1638
  585MOL0     H77206   7.474  10.560  11.133 -0.2094  2.4253 -2.2210
  585MOL0     H77207   7.243  10.581  11.089  1.9132 -0.3031  1.6057
  585MOL0     H77208   6.869  10.525  11.135  0.6459 -0.7163 -0.1174
  585MOL0     H77209   6.643  10.583  11.146 -0.5353  0.0374 -0.5867
  585MOL0     H77210   6.464  10.696  11.075 -0.9570  0.8854  2.6202
  585MOL0     H77211   6.392  10.567  11.163 -2.3998 -0.1632 -0.2203
  585MOL0     H77212   6.244  10.709  10.958 -2.1054 -1.1736 -0.5531
  585MOL0     H77213   6.198  10.540  11.011  0.7122 -1.4192  2.4025
  585MOL0     H77214   6.265  10.755  11.200  1.8060 -1.5513  0.2002
  585MOL0     H77215   6.166  10.613  11.238  1.4398  0.7280  1.6621
  585MOL0     H77216   6.057  10.808  11.045  0.2857 -1.2308 -0.9854
  585MOL0     H77217   5.973  10.669  11.117 -1.7790  1.6457 -2.5918
  585MOL0     H77218   5.910  10.958  11.412 -0.7442 -4.3478  2.0274
  585MOL0     H77219   6.550  10.340  10.808 -0.3165 -1.6743  1.4365
  585MOL0     H77220   6.778  10.256  10.805  0.0093  0.6634 -0.4329
  586MOL0     O77221   0.155  10.089   6.452 -0.8160  0.0606  0.0346
  586MOL0     C77222   0.124  10.190   6.515 -0.1942  0.2665 -0.2089
  586MOL0     O77223  -0.002  10.207   6.567 -0.9417 -0.7426  0.2056
  586MOL0     C77224  -0.100  10.119   6.530  0.2756  0.0406 -0.5763
  586MOL0     C77225  -0.215  10.162   6.467 -0.3400 -0.0861  0.5216
  586MOL0     C77226  -0.317  10.066   6.433 -0.1208  0.5394 -0.1581
  586MOL0     C77227  -0.307   9.936   6.475  0.3811 -0.3986  0.7493
  586MOL0     O77228  -0.402   9.840   6.449  0.5839 -0.1541  0.1615
  586MOL0     C77229  -0.439   9.752   6.552  0.4282 -0.4560 -0.3725
  586MOL0     C77230  -0.565   9.680   6.511 -0.9545 -0.5976 -0.0973
  586MOL0     C77231  -0.681   9.774   6.485 -1.1880 -0.3415  0.1700
  586MOL0     C77232  -0.798   9.704   6.423  0.8734  0.1578 -0.4716
  586MOL0     C77233  -0.903   9.815   6.400  0.8869 -0.6473 -0.6413
  586MOL0     C77234  -1.020   9.747   6.332  0.6017 -0.2179  0.0283
  586MOL0     C77235  -1.141   9.837   6.339  1.4946 -0.1493 -0.1640
  586MOL0     C77236  -1.275   9.778   6.383 -0.2301 -0.3477  0.2434
  586MOL0     N77237  -1.312   9.646   6.325  0.0846 -0.1002  0.6163
  586MOL0     C77238  -1.330   9.622   6.191 -0.1270 -0.5106  1.2009
  586MOL0     C77239  -1.386   9.499   6.187 -0.4802 -0.1612  0.6222
  586MOL0     C77240  -1.416   9.423   6.056  0.6297  0.2507 -0.5011
  586MOL0     C77241  -1.568   9.417   6.009 -0.0758  0.2395 -0.4256
  586MOL0     C77242  -1.655   9.356   6.124  0.2827  0.0729 -0.3692
  586MOL0     C77243  -1.783   9.304   6.064 -0.4594  0.0643  0.3675
  586MOL0     O77244  -1.851   9.421   6.016 -0.0289  0.1152  0.0054
  586MOL0     C77245  -1.967   9.414   5.943  0.0341  0.1102 -0.4953
  586MOL0     C77246  -2.032   9.297   5.913 -0.1539 -0.1017 -0.0891
  586MOL0     C77247  -2.140   9.289   5.832  0.7824 -0.1065 -0.7477
  586MOL0     C77248  -2.192   9.407   5.773  0.3832 -0.4424  0.4903
  586MOL0     C77249  -2.312   9.406   5.689 -0.8532  0.7018  0.0128
  586MOL0     O77250  -2.360   9.282   5.654  0.1571 -0.3557  0.0650
  586MOL0     C77251  -2.490   9.290   5.596 -0.1680 -1.5708  0.1876
  586MOL0     C77252  -2.601   9.265   5.674  0.2886 -0.4233 -0.0097
  586MOL0     C77253  -2.730   9.265   5.615 -0.1666 -0.3374 -0.0744
  586MOL0     C77254  -2.742   9.283   5.472 -0.0522  0.4251  0.0560
  586MOL0     O77255  -2.866   9.298   5.401  0.1273 -0.6074 -0.3045
  586MOL0     C77256  -2.988   9.290   5.471  0.5222 -0.7713 -0.8290
  586MOL0     C77257  -3.105   9.315   5.378 -0.5710  0.3680  1.4805
  586MOL0     C77258  -3.235   9.267   5.450  0.0697 -0.0518  0.0541
  586MOL0     C77259  -3.363   9.313   5.363  0.1283  0.3408  0.2003
  586MOL0     C77260  -3.501   9.300   5.429 -0.0939 -0.1241  0.1449
  586MOL0     C77261  -3.511   9.375   5.555 -0.4214 -0.7202  0.0215
  586MOL0     C77262  -3.654   9.389   5.617  1.1563 -0.0973 -0.5093
  586MOL0     C77263  -3.657   9.492   5.733 -0.4933  0.1468 -0.7228
  586MOL0    Cl77264  -3.606   9.426   5.881  0.0540 -0.4483 -0.1166
  586MOL0     C77265  -2.622   9.299   5.402  0.6556 -0.7317  0.0159
  586MOL0     C77266  -2.502   9.302   5.461  0.6916  1.2100 -0.0755
  586MOL0     O77267  -2.365   9.511   5.668  0.1633  0.0110  0.0118
  586MOL0     C77268  -2.130   9.530   5.797 -0.2179 -0.2038  0.0336
  586MOL0     C77269  -2.012   9.532   5.880  0.5739  0.2852  0.2413
  586MOL0     N77270  -1.398   9.447   6.311  0.2042 -1.1303 -0.0897
  586MOL0     N77271  -1.373   9.545   6.394  0.5246  0.1033 -0.6171
  586MOL0     C77272  -0.197   9.905   6.561 -0.2428  0.4997  0.6725
  586MOL0     C77273  -0.091   9.995   6.584 -0.2275  0.1490 -0.4364
  586MOL0     C77274   0.235  10.289   6.544 -0.4719  0.7506 -0.0004
  586MOL0     C77275   0.199  10.395   6.626 -0.3278 -0.8046  0.6002
  586MOL0     C77276   0.297  10.474   6.687  0.7918  0.2587 -0.2424
  586MOL0     C77277   0.428  10.471   6.637 -0.1132 -0.8118  0.6226
  586MOL0     O77278   0.510  10.574   6.668  0.6518  0.2281  0.2028
  586MOL0     C77279   0.647  10.546   6.683  0.3829 -0.0088  0.4219
  586MOL0     C77280   0.724  10.669   6.723  0.9758 -0.8093  0.7692
  586MOL0     C77281   0.782  10.746   6.594  0.2249  1.3991 -0.6450
  586MOL0     C77282   0.842  10.875   6.651  0.1755  0.6898  0.0049
  586MOL0     C77283   0.951  10.852   6.744 -0.1841 -0.4867 -0.4838
  586MOL0     C77284   1.036  10.845   6.828 -0.1145 -0.1561  0.1576
  586MOL0     C77285   0.466  10.360   6.555  0.2750 -0.4596 -0.3455
  586MOL0     C77286   0.370  10.269   6.512 -0.1056  0.5596 -0.1150
  586MOL0     H77287  -0.219  10.255   6.411  0.8707 -1.0025 -1.1931
  586MOL0     H77288  -0.406  10.088   6.375  0.4013 -1.2549 -1.7308
  586MOL0     H77289  -0.458   9.800   6.648  1.2789 -2.6734  0.9719
  586MOL0     H77290  -0.370   9.668   6.564 -0.8622 -1.5231 -0.1803
  586MOL0     H77291  -0.592   9.604   6.585 -1.5262  0.2658  0.6081
  586MOL0     H77292  -0.541   9.618   6.424  2.9416 -0.7266  0.8961
  586MOL0     H77293  -0.649   9.862   6.428 -2.3289  0.2837  0.4610
  586MOL0     H77294  -0.711   9.818   6.581  0.5311 -0.1279  0.6417
  586MOL0     H77295  -0.773   9.656   6.328 -3.3584  1.5928 -2.5760
  586MOL0     H77296  -0.835   9.621   6.483  0.2284  1.0612  0.4194
  586MOL0     H77297  -0.853   9.887   6.334 -1.4300  2.2194  0.5170
  586MOL0     H77298  -0.935   9.866   6.491  0.5001 -0.5045 -0.8540
  586MOL0     H77299  -1.031   9.651   6.384 -1.8561 -0.1793 -0.2930
  586MOL0     H77300  -0.991   9.723   6.229 -0.1843  1.5014 -0.6310
  586MOL0     H77301  -1.119   9.920   6.406  0.9909  2.8891 -3.4705
  586MOL0     H77302  -1.148   9.877   6.237  0.7274  0.3612  0.0853
  586MOL0     H77303  -1.352   9.852   6.359 -0.1282 -0.4245 -0.3371
  586MOL0     H77304  -1.263   9.766   6.491 -1.0206 -1.1823  0.2483
  586MOL0     H77305  -1.299   9.691   6.113  1.6624 -2.2421  0.2999
  586MOL0     H77306  -1.383   9.320   6.070 -0.2363  0.3503  3.4475
  586MOL0     H77307  -1.356   9.478   5.983  1.4256  0.6112  0.4044
  586MOL0     H77308  -1.573   9.356   5.919  2.2426 -0.4079 -0.1827
  586MOL0     H77309  -1.613   9.512   5.980 -0.3821  0.1823 -0.1465
  586MOL0     H77310  -1.607   9.271   6.172 -0.4614 -2.0746 -3.1473
  586MOL0     H77311  -1.691   9.429   6.197 -0.2251  0.2638 -0.8072
  586MOL0     H77312  -1.853   9.251   6.129  1.9616 -1.7603  1.6267
  586MOL0     H77313  -1.766   9.243   5.974  1.9710  1.5008 -0.2620
  586MOL0     H77314  -1.990   9.208   5.959  1.3875 -0.8641 -2.7217
  586MOL0     H77315  -2.178   9.190   5.811  2.1077 -0.2844 -2.5958
  586MOL0     H77316  -2.582   9.244   5.779 -0.7848 -1.6838 -0.0491
  586MOL0     H77317  -2.820   9.263   5.676 -0.2985 -0.7141 -0.2800
  586MOL0     H77318  -2.988   9.368   5.548 -1.2409 -0.1878 -1.3821
  586MOL0     H77319  -2.984   9.195   5.524 -2.2004  0.3359  1.5953
  586MOL0     H77320  -3.076   9.262   5.287  3.8084 -1.2235  3.5273
  586MOL0     H77321  -3.121   9.419   5.348 -1.1422 -0.0595  0.2728
  586MOL0     H77322  -3.250   9.300   5.553  0.6737 -2.2978  0.9083
  586MOL0     H77323  -3.224   9.159   5.457 -2.1951 -0.3908 -0.8477
  586MOL0     H77324  -3.342   9.415   5.329  1.3959 -0.1691 -0.6040
  586MOL0     H77325  -3.355   9.249   5.275  1.0773  0.1743  0.3940
  586MOL0     H77326  -3.520   9.194   5.451 -1.2786 -0.4770 -2.2640
  586MOL0     H77327  -3.577   9.326   5.355  0.9728 -0.6929 -1.1915
  586MOL0     H77328  -3.472   9.473   5.526 -0.6173 -0.1335  1.6107
  586MOL0     H77329  -3.445   9.337   5.634 -2.1157 -1.5656  1.1034
  586MOL0     H77330  -3.724   9.419   5.540 -0.2245 -3.7766 -0.8738
  586MOL0     H77331  -3.680   9.291   5.658 -2.0240  1.2463  1.0248
  586MOL0     H77332  -3.762   9.522   5.745 -0.5179 -0.6065  1.3611
  586MOL0     H77333  -3.593   9.575   5.703 -1.2393  0.7366 -0.7258
  586MOL0     H77334  -2.622   9.318   5.295 -2.3005  0.4555  0.1397
  586MOL0     H77335  -2.417   9.331   5.400  0.3220  0.5711 -0.9167
  586MOL0     H77336  -2.158   9.618   5.739 -2.1381  0.0030  1.1990
  586MOL0     H77337  -1.943   9.615   5.890  0.6878  0.4430 -1.5335
  586MOL0     H77338  -0.209   9.809   6.612  0.9910  0.4797  0.9590
  586MOL0     H77339  -0.007   9.975   6.651 -1.6928  1.1074  1.8099
  586MOL0     H77340   0.092  10.409   6.641 -1.3491 -1.0186 -4.5813
  586MOL0     H77341   0.270  10.554   6.756  2.2497  1.0670 -0.5641
  586MOL0     H77342   0.697  10.509   6.592 -2.1727  0.3349 -1.2344
  586MOL0     H77343   0.649  10.461   6.752 -2.6296 -1.5975 -1.2511
  586MOL0     H77344   0.643  10.730   6.765  0.1883 -2.4496  1.7317
  586MOL0     H77345   0.803  10.647   6.795  1.0734  0.5328  1.0907
  586MOL0     H77346   0.707  10.760   6.516  0.7727  0.1025 -1.4317
  586MOL0     H77347   0.858  10.681   6.552  1.8310  0.4643  3.2289
  586MOL0     H77348   0.879  10.939   6.570 -1.2989 -0.9572 -2.0764
  586MOL0     H77349   0.759  10.929   6.696 -0.9645 -2.3217  1.7567
  586MOL0     H77350   1.101  10.837   6.913 -0.9871 -3.4813  0.6539
  586MOL0     H77351   0.570  10.346   6.530  0.6038 -1.4959  1.4494
  586MOL0     H77352   0.412  10.184   6.459 -1.0100  0.4962 -0.7519
  587MOL0     O77353   6.504   4.498   0.297  0.1728  0.4036  0.6856
  587MOL0     C77354   6.557   4.517   0.184  0.3368 -0.5006  0.6247
  587MOL0     O77355   6.503   4.580   0.080  0.2337 -0.4337 -0.7336
  587MOL0     C77356   6.376   4.632   0.096  0.3037  0.8182  0.2694
  587MOL0     C77357   6.311   4.702   0.201 -0.3679 -0.2402 -0.0626
  587MOL0     C77358   6.175   4.740   0.189 -0.4780 -0.4975 -0.2063
  587MOL0     C77359   6.103   4.714   0.080  0.0044  0.2802  0.0855
  587MOL0     O77360   5.970   4.747   0.060  0.0514 -0.1319  0.7359
  587MOL0     C77361   5.915   4.859   0.126  0.2343  0.0420 -0.4331
  587MOL0     C77362   5.821   4.791   0.238  0.1993  0.5940  0.3126
  587MOL0     C77363   5.686   4.735   0.180 -0.0432 -0.2611  0.3037
  587MOL0     C77364   5.600   4.684   0.298 -0.6205  0.0725 -0.1822
  587MOL0     C77365   5.468   4.640   0.241 -0.3295 -0.5971 -0.6193
  587MOL0     C77366   5.386   4.546   0.332 -0.1069 -0.1874 -0.5636
  587MOL0     C77367   5.232   4.540   0.295 -0.4835  1.3191  0.1045
  587MOL0     C77368   5.189   4.504   0.148 -0.0556 -0.1335 -1.3002
  587MOL0     N77369   5.041   4.527   0.140  0.2726  0.6376 -0.4405
  587MOL0     C77370   4.942   4.491   0.230  0.7684  0.1022 -0.2585
  587MOL0     C77371   4.825   4.548   0.182 -0.0063 -0.5329 -0.1320
  587MOL0     C77372   4.680   4.537   0.221 -0.4592  0.2074  0.1242
  587MOL0     C77373   4.622   4.653   0.292  0.0978 -0.7226  0.0204
  587MOL0     C77374   4.467   4.655   0.288 -0.0729  0.0683 -0.6670
  587MOL0     C77375   4.412   4.795   0.316 -0.2258 -0.1167  1.2140
  587MOL0     O77376   4.290   4.765   0.381 -0.2629 -0.5469 -0.2506
  587MOL0     C77377   4.194   4.865   0.415 -0.3130  0.0910  0.9304
  587MOL0     C77378   4.065   4.819   0.447 -0.9197 -0.0861  0.5459
  587MOL0     C77379   3.987   4.924   0.497 -0.3391  0.1864  0.0072
  587MOL0     C77380   4.021   5.056   0.487 -0.4200 -0.1138 -0.0359
  587MOL0     C77381   3.911   5.148   0.509 -0.4203 -0.1303  0.3682
  587MOL0     O77382   3.814   5.111   0.597 -1.0729  0.1534  0.1791
  587MOL0     C77383   3.705   5.193   0.608  0.5548  0.4984 -0.0321
  587MOL0     C77384   3.660   5.220   0.735  0.2183 -0.1414  0.6517
  587MOL0     C77385   3.544   5.304   0.750 -0.4090 -0.7222 -0.1864
  587MOL0     C77386   3.463   5.343   0.648 -0.7994  0.7246 -0.2474
  587MOL0     O77387   3.350   5.406   0.665 -0.4441 -1.0579 -0.3432
  587MOL0     C77388   3.236   5.354   0.736  0.4495  1.3457  0.0804
  587MOL0     C77389   3.104   5.444   0.720 -0.1338  0.1144  1.2014
  587MOL0     C77390   3.058   5.472   0.577  0.5368 -0.2470  0.7700
  587MOL0     C77391   2.918   5.535   0.564 -0.8356  0.4406  0.0134
  587MOL0     C77392   2.902   5.584   0.425  1.0037 -0.5515  0.1568
  587MOL0     C77393   2.761   5.618   0.392 -0.3941  0.3092  0.8979
  587MOL0     C77394   2.742   5.645   0.245 -0.4314  0.6341  0.2022
  587MOL0     C77395   2.600   5.692   0.224  0.0790 -0.4759  0.1448
  587MOL0    Cl77396   2.592   5.787   0.071 -0.8110  0.0173 -0.0918
  587MOL0     C77397   3.517   5.319   0.523  0.5790 -0.5010  0.1502
  587MOL0     C77398   3.631   5.246   0.503  0.2057 -0.3068  0.4248
  587MOL0     O77399   3.925   5.256   0.463 -0.8782  0.4051 -0.2403
  587MOL0     C77400   4.148   5.094   0.445  0.0652  0.5139  0.6997
  587MOL0     C77401   4.234   4.992   0.417  0.2058 -1.0759 -1.0740
  587MOL0     N77402   4.859   4.615   0.064  0.2592  0.5379 -0.1132
  587MOL0     N77403   4.981   4.597   0.041 -0.3390  0.0420  0.4183
  587MOL0     C77404   6.164   4.641  -0.019 -0.3577  0.0334  0.0237
  587MOL0     C77405   6.303   4.607  -0.019  0.2603  0.3392 -0.3155
  587MOL0     C77406   6.691   4.458   0.176  0.9564  0.2054  1.0683
  587MOL0     C77407   6.779   4.512   0.080  0.6019  1.2986 -0.0678
  587MOL0     C77408   6.904   4.457   0.064 -0.0497  0.5155  0.2141
  587MOL0     C77409   6.945   4.345   0.140  0.3941  0.4420 -0.0125
  587MOL0     O77410   7.076   4.294   0.114  0.1110 -0.0121  0.6439
  587MOL0     C77411   7.124   4.181   0.196 -0.3669  0.0319 -0.0282
  587MOL0     C77412   7.042   4.060   0.140 -0.3069 -0.1909 -1.1502
  587MOL0     C77413   7.032   4.044  -0.013 -0.4703 -0.3509 -0.1941
  587MOL0     C77414   7.175   4.022  -0.075  0.0674 -0.2917  0.0973
  587MOL0     C77415   7.152   3.987  -0.211 -0.2081 -0.2333  0.3439
  587MOL0     C77416   7.142   3.962  -0.332  0.4904  0.3395 -0.1009
  587MOL0     C77417   6.861   4.306   0.241 -0.0524  0.3873  0.2965
  587MOL0     C77418   6.729   4.338   0.247  0.1066 -0.9795 -0.3121
  587MOL0     H77419   6.363   4.709   0.296  0.6822 -0.2555 -0.6190
  587MOL0     H77420   6.118   4.792   0.266 -4.3216  1.2138 -3.8226
  587MOL0     H77421   5.864   4.914   0.046 -2.7907  0.2890  1.4767
  587MOL0     H77422   5.982   4.931   0.174  1.2550 -0.3350 -1.2620
  587MOL0     H77423   5.793   4.875   0.301  2.2494  3.0214 -1.7761
  587MOL0     H77424   5.875   4.718   0.300 -0.1350  0.3151  0.2816
  587MOL0     H77425   5.719   4.660   0.108 -0.0417 -0.7530  0.8079
  587MOL0     H77426   5.632   4.812   0.125  0.9844 -0.0167 -0.3898
  587MOL0     H77427   5.637   4.602   0.360 -1.1566  0.3183  0.4842
  587MOL0     H77428   5.589   4.771   0.364  0.7410 -0.8785  1.3830
  587MOL0     H77429   5.480   4.576   0.153 -1.9266 -2.6024  0.5206
  587MOL0     H77430   5.412   4.733   0.225  2.0432  1.3796  1.7694
  587MOL0     H77431   5.398   4.559   0.439  2.2998 -1.5444 -0.5954
  587MOL0     H77432   5.439   4.450   0.330 -1.4551 -0.9921  0.6993
  587MOL0     H77433   5.190   4.462   0.358  1.5699  0.4116  0.4398
  587MOL0     H77434   5.181   4.626   0.339 -2.2568 -0.8358  2.5327
  587MOL0     H77435   5.212   4.401   0.122  0.5665  0.1996 -2.0957
  587MOL0     H77436   5.247   4.563   0.077  2.6846 -0.6225  0.3728
  587MOL0     H77437   4.950   4.424   0.315 -2.8674 -0.4528 -0.1994
  587MOL0     H77438   4.665   4.443   0.274 -1.4853  0.1012 -0.3231
  587MOL0     H77439   4.627   4.534   0.125  0.1990 -1.9585 -0.2166
  587MOL0     H77440   4.650   4.748   0.246 -3.4682  1.2293  1.4775
  587MOL0     H77441   4.647   4.658   0.399 -4.2137 -1.1732  1.2319
  587MOL0     H77442   4.436   4.634   0.185  3.8609  3.7934 -2.9788
  587MOL0     H77443   4.421   4.583   0.355 -1.9977  0.7534 -1.1844
  587MOL0     H77444   4.388   4.857   0.229 -0.1717 -0.8664  0.6513
  587MOL0     H77445   4.481   4.845   0.383 -1.2697  0.5254  1.8400
  587MOL0     H77446   4.033   4.718   0.426  3.5689 -1.4771 -0.6574
  587MOL0     H77447   3.889   4.902   0.539  0.5281 -1.5385  1.2543
  587MOL0     H77448   3.719   5.189   0.820 -1.2024  1.1141  2.1750
  587MOL0     H77449   3.505   5.330   0.848 -0.5188  0.3911 -0.5161
  587MOL0     H77450   3.258   5.341   0.842 -4.6980  0.3038  1.2600
  587MOL0     H77451   3.226   5.255   0.692 -0.5398  0.8712  1.3280
  587MOL0     H77452   3.126   5.543   0.763  2.4283 -0.1423  0.6532
  587MOL0     H77453   3.020   5.389   0.763 -0.9272 -1.4310 -2.0161
  587MOL0     H77454   3.059   5.375   0.526  0.8512 -0.0504  0.4005
  587MOL0     H77455   3.130   5.535   0.524 -0.7483 -0.0012 -0.7419
  587MOL0     H77456   2.843   5.458   0.587  1.1044 -1.8311 -0.8028
  587MOL0     H77457   2.918   5.619   0.634 -0.9647 -1.4759  2.4513
  587MOL0     H77458   2.913   5.494   0.364 -3.1389 -2.1128  1.4042
  587MOL0     H77459   2.975   5.658   0.393  1.7492 -1.3395 -0.0273
  587MOL0     H77460   2.729   5.707   0.448 -0.2436  0.2454  1.0876
  587MOL0     H77461   2.699   5.536   0.430 -0.7360 -1.1176 -2.4077
  587MOL0     H77462   2.808   5.725   0.210 -0.8957  0.2359 -1.6715
  587MOL0     H77463   2.762   5.551   0.193  3.1015 -0.1396  2.5373
  587MOL0     H77464   2.586   5.760   0.309  2.2422  1.3411 -0.8619
  587MOL0     H77465   2.521   5.616   0.223 -1.9694  1.5014  0.6760
  587MOL0     H77466   3.456   5.361   0.444  0.4016  4.6546  2.5667
  587MOL0     H77467   3.673   5.228   0.404 -0.5229 -1.4416  0.3053
  587MOL0     H77468   4.176   5.198   0.429 -1.5756  0.7621 -0.8216
  587MOL0     H77469   4.336   5.027   0.403 -0.5494  3.0642  1.9125
  587MOL0     H77470   6.110   4.610  -0.108  0.8096 -1.4281 -0.2149
  587MOL0     H77471   6.344   4.569  -0.111  1.5199 -1.5670  0.9756
  587MOL0     H77472   6.747   4.597   0.021  0.4687  1.3037  0.0113
  587MOL0     H77473   6.981   4.505   0.004  0.9809 -0.3823  0.7868
  587MOL0     H77474   7.106   4.195   0.303 -0.4127  0.1636 -0.0530
  587MOL0     H77475   7.231   4.169   0.178  0.0560 -0.7074  2.6319
  587MOL0     H77476   7.078   3.967   0.184 -2.0585  0.2340  1.3556
  587MOL0     H77477   6.944   4.072   0.187 -0.0161  2.3656 -1.0578
  587MOL0     H77478   6.992   4.134  -0.060  0.6315 -0.9339 -2.3887
  587MOL0     H77479   6.971   3.956  -0.032 -4.2542  2.3318 -1.5349
  587MOL0     H77480   7.240   4.109  -0.060 -2.5000  1.8868 -0.5597
  587MOL0     H77481   7.219   3.935  -0.025  0.4398 -1.2237 -1.7697
  587MOL0     H77482   7.141   3.919  -0.430  1.8287 -2.6160  1.0531
  587MOL0     H77483   6.888   4.226   0.309 -0.6305 -0.5974 -0.5997
  587MOL0     H77484   6.653   4.288   0.305 -1.0937  1.8709  0.7520
  588MOL0     O77485   1.035   5.178   3.959  0.3172 -0.4709  0.6241
  588MOL0     C77486   1.099   5.162   4.069  0.1996 -0.1917  1.2869
  588MOL0     O77487   1.056   5.197   4.196  0.1848 -0.3108  0.2377
  588MOL0     C77488   0.934   5.250   4.204 -0.5354  0.5623  0.8596
  588MOL0     C77489   0.888   5.359   4.126 -0.3979 -0.6135  0.8376
  588MOL0     C77490   0.766   5.421   4.149 -0.7995  0.5419 -0.5956
  588MOL0     C77491   0.688   5.378   4.256  0.1346 -0.1832 -0.6651
  588MOL0     O77492   0.571   5.445   4.277  0.2714 -0.2943 -0.5714
  588MOL0     C77493   0.472   5.413   4.172 -0.1686  0.0445  0.0147
  588MOL0     C77494   0.339   5.496   4.192 -0.4907 -0.5318  0.6223
  588MOL0     C77495   0.275   5.473   4.327 -0.2287 -0.1899  0.5153
  588MOL0     C77496   0.168   5.574   4.361  0.7268  0.9286 -0.2626
  588MOL0     C77497   0.071   5.501   4.451  0.5020  0.0804 -0.1682
  588MOL0     C77498  -0.031   5.596   4.523  0.1902 -0.5372  1.1084
  588MOL0     C77499  -0.110   5.681   4.431  0.2285 -0.0903 -0.0152
  588MOL0     C77500  -0.256   5.715   4.476 -0.7009 -0.4931 -0.0795
  588MOL0     N77501  -0.322   5.623   4.575 -0.5764  0.3369  0.4796
  588MOL0     C77502  -0.352   5.658   4.706  0.2489 -1.0020  0.7397
  588MOL0     C77503  -0.438   5.564   4.746  0.1264  0.4967 -0.5230
  588MOL0     C77504  -0.499   5.577   4.889 -0.6982 -0.3660  0.0990
  588MOL0     C77505  -0.621   5.497   4.914 -0.3777 -0.2199 -0.3185
  588MOL0     C77506  -0.741   5.546   4.827  0.5334 -0.0942 -0.3273
  588MOL0     C77507  -0.874   5.472   4.866  0.1510 -0.2548  0.4468
  588MOL0     O77508  -0.904   5.507   5.000 -0.2551  0.3502 -0.0727
  588MOL0     C77509  -1.014   5.438   5.053  0.1724 -0.7658  0.4189
  588MOL0     C77510  -1.125   5.432   4.969  0.7454  0.5688 -0.1401
  588MOL0     C77511  -1.236   5.358   5.022 -0.1428 -0.5539 -0.0237
  588MOL0     C77512  -1.234   5.301   5.146  0.5401  0.0919  0.1291
  588MOL0     C77513  -1.360   5.243   5.201 -0.0796  0.0507 -0.0642
  588MOL0     O77514  -1.347   5.192   5.325  0.2449  0.0306 -0.3191
  588MOL0     C77515  -1.455   5.157   5.403 -0.3597  0.4652  0.2966
  588MOL0     C77516  -1.585   5.210   5.395 -0.7588 -0.1638 -0.0095
  588MOL0     C77517  -1.687   5.173   5.485  0.2178 -0.1925 -0.1637
  588MOL0     C77518  -1.655   5.085   5.584 -0.0579 -0.3472 -0.0362
  588MOL0     O77519  -1.751   5.055   5.675 -0.5220 -0.0234 -0.0101
  588MOL0     C77520  -1.717   4.966   5.783  0.0073 -0.0426 -0.0152
  588MOL0     C77521  -1.824   4.939   5.886 -0.6182  0.5378  0.5857
  588MOL0     C77522  -1.853   5.065   5.972  0.1541 -0.0281  0.0374
  588MOL0     C77523  -1.965   5.036   6.072  1.0397 -0.8146  0.2118
  588MOL0     C77524  -1.982   5.143   6.177  0.4074  0.1223 -0.9180
  588MOL0     C77525  -2.053   5.266   6.118  0.6108 -0.3700  0.1094
  588MOL0     C77526  -2.114   5.355   6.221  0.2877 -0.2957  0.5028
  588MOL0     C77527  -2.015   5.385   6.336  0.6853 -0.7679 -0.9361
  588MOL0    Cl77528  -1.880   5.488   6.273 -0.0849 -0.2928  0.2100
  588MOL0     C77529  -1.528   5.027   5.586 -0.2815 -0.1390  0.8229
  588MOL0     C77530  -1.426   5.075   5.509 -0.4957 -0.4363  0.1814
  588MOL0     O77531  -1.462   5.230   5.127 -0.4337 -0.6511 -0.2522
  588MOL0     C77532  -1.108   5.304   5.217  1.2153 -0.1477 -0.5558
  588MOL0     C77533  -1.003   5.377   5.174 -0.1001  0.2439 -0.2836
  588MOL0     N77534  -0.454   5.474   4.643  0.8768 -0.1185  0.2459
  588MOL0     N77535  -0.373   5.505   4.545  0.7714  0.4070  0.4152
  588MOL0     C77536   0.721   5.269   4.328 -0.1669 -0.0164 -0.5004
  588MOL0     C77537   0.846   5.201   4.308  0.4161  0.4307  0.8051
  588MOL0     C77538   1.221   5.083   4.066 -0.8819  0.2330  0.1752
  588MOL0     C77539   1.292   5.053   4.182 -0.1070  0.7744  0.0174
  588MOL0     C77540   1.407   4.976   4.178 -0.1618 -0.2522  0.1727
  588MOL0     C77541   1.462   4.940   4.061 -0.2457 -0.0645  0.7815
  588MOL0     O77542   1.582   4.866   4.058 -0.5057 -0.1491 -0.2178
  588MOL0     C77543   1.576   4.724   4.035 -0.2869 -0.3290  0.5326
  588MOL0     C77544   1.710   4.658   4.027  0.4073  1.0929  0.9322
  588MOL0     C77545   1.791   4.652   4.155  0.0312  0.5914 -0.7204
  588MOL0     C77546   1.939   4.647   4.132 -0.6904 -0.2171  0.0923
  588MOL0     C77547   2.010   4.660   4.256  1.3144  0.3897  0.2586
  588MOL0     C77548   2.068   4.684   4.360 -0.3303  0.0856  0.5826
  588MOL0     C77549   1.398   4.980   3.938 -0.0564 -0.1196 -0.5408
  588MOL0     C77550   1.281   5.049   3.936  0.3021 -0.8409 -0.0917
  588MOL0     H77551   0.959   5.406   4.059 -0.1191 -1.4479  0.5419
  588MOL0     H77552   0.745   5.511   4.092  1.1547  2.5331  1.5933
  588MOL0     H77553   0.451   5.306   4.160  1.4754 -0.3299  0.2517
  588MOL0     H77554   0.511   5.443   4.075  0.8994  0.2209  0.4850
  588MOL0     H77555   0.264   5.488   4.113  1.4851 -0.1344 -1.4333
  588MOL0     H77556   0.378   5.598   4.182 -0.7934 -0.5036 -0.4750
  588MOL0     H77557   0.352   5.492   4.402  0.3053 -0.5863  0.0811
  588MOL0     H77558   0.238   5.371   4.342 -0.5489 -0.5656 -2.3035
  588MOL0     H77559   0.207   5.663   4.412  1.0426  0.8407 -0.3476
  588MOL0     H77560   0.108   5.610   4.277  0.2485  0.1044 -0.2842
  588MOL0     H77561   0.121   5.448   4.532  2.6968 -0.2726 -1.6698
  588MOL0     H77562   0.021   5.429   4.384  1.1408  0.2006 -0.7881
  588MOL0     H77563   0.018   5.662   4.595  1.4266  1.3095 -1.3003
  588MOL0     H77564  -0.091   5.530   4.587  1.2090 -2.5169  0.0832
  588MOL0     H77565  -0.059   5.776   4.411  0.3379 -0.3116 -0.8289
  588MOL0     H77566  -0.117   5.629   4.335 -0.6595 -0.5881  0.3059
  588MOL0     H77567  -0.314   5.699   4.385  0.0128 -1.2010 -0.4238
  588MOL0     H77568  -0.270   5.815   4.518  0.2314 -0.5832  0.4660
  588MOL0     H77569  -0.308   5.733   4.771  1.8034 -2.6438  1.6651
  588MOL0     H77570  -0.533   5.680   4.902  3.8128  1.6825 -1.9856
  588MOL0     H77571  -0.432   5.552   4.972  0.7347 -0.0901 -0.9449
  588MOL0     H77572  -0.644   5.510   5.020  0.9582  1.0413 -0.1533
  588MOL0     H77573  -0.607   5.392   4.885  1.3311 -0.6484  1.8088
  588MOL0     H77574  -0.756   5.649   4.861 -1.8209 -1.1758  2.3415
  588MOL0     H77575  -0.723   5.548   4.719  1.0573  1.4906 -0.2318
  588MOL0     H77576  -0.864   5.363   4.859 -2.0957 -0.4447 -0.8269
  588MOL0     H77577  -0.945   5.496   4.786  1.5141  0.9883 -0.4426
  588MOL0     H77578  -1.131   5.492   4.879  2.2480  0.1343 -0.5676
  588MOL0     H77579  -1.330   5.361   4.967 -1.0153 -2.5444  1.2514
  588MOL0     H77580  -1.616   5.284   5.322 -1.5753  1.0734  1.5138
  588MOL0     H77581  -1.788   5.213   5.483 -0.2402 -1.3526 -1.1405
  588MOL0     H77582  -1.623   5.005   5.823 -0.2797 -0.2651  0.8964
  588MOL0     H77583  -1.695   4.868   5.738  1.5615  1.0671 -1.8240
  588MOL0     H77584  -1.792   4.859   5.953 -3.1211 -1.1117 -0.0452
  588MOL0     H77585  -1.914   4.906   5.832  1.9071 -2.2258 -2.2956
  588MOL0     H77586  -1.883   5.152   5.914  2.4077  1.2716  0.6992
  588MOL0     H77587  -1.759   5.082   6.026  1.8866 -1.3340 -2.3713
  588MOL0     H77588  -2.059   5.028   6.017 -0.3138 -0.8412  2.4228
  588MOL0     H77589  -1.935   4.949   6.130 -1.8282 -2.0779 -0.0632
  588MOL0     H77590  -1.886   5.168   6.222 -0.5597 -0.8300  1.8996
  588MOL0     H77591  -2.048   5.108   6.257 -0.2764  1.8671 -0.6928
  588MOL0     H77592  -2.137   5.244   6.052 -0.0640  1.5389  0.2593
  588MOL0     H77593  -1.972   5.318   6.065  1.4736 -0.7822  0.9946
  588MOL0     H77594  -2.146   5.448   6.173  3.0107  1.4994  1.9231
  588MOL0     H77595  -2.202   5.300   6.255 -1.4615 -0.6177 -3.8904
  588MOL0     H77596  -1.982   5.291   6.381 -1.2045 -1.5153 -1.0227
  588MOL0     H77597  -2.063   5.450   6.410  2.9288  1.5337 -1.3392
  588MOL0     H77598  -1.488   4.957   5.659  1.4866  0.3925  0.4178
  588MOL0     H77599  -1.324   5.041   5.521  0.0460  0.3325 -1.8574
  588MOL0     H77600  -1.101   5.234   5.300 -1.9877 -1.0475 -0.9172
  588MOL0     H77601  -0.904   5.385   5.219  0.8409 -1.4345 -1.8836
  588MOL0     H77602   0.644   5.240   4.399  0.2143  0.2522  0.0335
  588MOL0     H77603   0.867   5.117   4.373  0.2336  1.1624  1.8507
  588MOL0     H77604   1.249   5.072   4.280  3.5298  1.9439  1.5386
  588MOL0     H77605   1.447   4.955   4.276 -2.7214 -0.8261  1.1878
  588MOL0     H77606   1.527   4.724   3.936  1.5955 -1.9180 -0.4678
  588MOL0     H77607   1.519   4.661   4.103  2.5484 -3.0932  0.5533
  588MOL0     H77608   1.714   4.553   3.997  1.0879  1.3260  0.1752
  588MOL0     H77609   1.766   4.716   3.953  3.1453 -4.1005 -1.6727
  588MOL0     H77610   1.752   4.569   4.214  1.4719  1.1922  1.1864
  588MOL0     H77611   1.767   4.744   4.210  0.8735 -1.1007  2.7694
  588MOL0     H77612   1.976   4.552   4.090  1.4432  0.9719 -0.8594
  588MOL0     H77613   1.966   4.722   4.057  1.4858 -1.8834 -0.9225
  588MOL0     H77614   2.115   4.694   4.456 -1.2286 -3.3772  1.5024
  588MOL0     H77615   1.431   4.945   3.841 -2.3317 -2.6870 -0.5058
  588MOL0     H77616   1.226   5.072   3.845 -1.3061 -0.1324  1.0040
  589MOL0     O77617   4.283   4.270   1.709  0.7570 -0.3097  0.1484
  589MOL0     C77618   4.321   4.262   1.591 -0.3429  0.1568 -0.4017
  589MOL0     O77619   4.239   4.245   1.481 -0.9881  0.6784 -0.1260
  589MOL0     C77620   4.104   4.241   1.500 -0.7437 -0.7646  0.4801
  589MOL0     C77621   4.041   4.129   1.555  0.1429 -0.0126  0.1511
  589MOL0     C77622   3.903   4.128   1.583 -0.2915  0.8444  0.2676
  589MOL0     C77623   3.829   4.245   1.554  0.6421  0.9552  0.4683
  589MOL0     O77624   3.696   4.250   1.596  0.2601  0.3731  0.0032
  589MOL0     C77625   3.597   4.171   1.523 -0.4955 -0.4600  0.2665
  589MOL0     C77626   3.461   4.236   1.513  0.1614  0.1201  0.8680
  589MOL0     C77627   3.350   4.129   1.493  0.2568  0.8215  0.6909
  589MOL0     C77628   3.218   4.193   1.460  0.2604  0.7947  0.2820
  589MOL0     C77629   3.125   4.097   1.386  0.3836 -0.1210  0.4352
  589MOL0     C77630   2.995   4.159   1.342 -0.1726 -0.3473 -0.5353
  589MOL0     C77631   2.898   4.061   1.269 -0.2714 -0.0834 -0.1553
  589MOL0     C77632   2.764   4.136   1.256 -0.2486 -0.7397 -0.2264
  589MOL0     N77633   2.657   4.050   1.211  0.5792  0.1964  0.6428
  589MOL0     C77634   2.591   4.072   1.090 -0.5395 -0.4694 -0.3743
  589MOL0     C77635   2.494   3.976   1.083  0.5129 -0.3812  0.6790
  589MOL0     C77636   2.382   3.978   0.979 -1.0080 -0.3762 -0.0417
  589MOL0     C77637   2.253   4.042   1.035  0.3740 -0.4001  0.7930
  589MOL0     C77638   2.140   4.016   0.938 -0.4758 -0.8207 -0.5235
  589MOL0     C77639   1.999   4.049   0.988  0.2556 -0.1045  0.5620
  589MOL0     O77640   1.914   4.068   0.873 -0.8674 -0.0977  0.7435
  589MOL0     C77641   1.781   4.075   0.900  0.2972  0.7836 -0.7037
  589MOL0     C77642   1.719   4.193   0.930  0.1211  0.0888  1.1492
  589MOL0     C77643   1.582   4.187   0.962  0.2340  1.0816  0.4259
  589MOL0     C77644   1.501   4.079   0.948 -0.4023 -0.2092  0.2060
  589MOL0     C77645   1.358   4.089   0.991 -0.1634 -1.0939  0.7739
  589MOL0     O77646   1.289   3.977   0.978  0.1825  0.3221  0.8881
  589MOL0     C77647   1.158   3.972   1.029  1.1006 -0.3071 -0.3050
  589MOL0     C77648   1.049   3.963   0.944  0.3243 -0.0107 -0.2765
  589MOL0     C77649   0.915   3.949   0.992  0.8398 -0.2706  0.5542
  589MOL0     C77650   0.886   3.926   1.129 -0.2602 -0.2667  0.1018
  589MOL0     O77651   0.756   3.898   1.167 -0.3592 -0.7632  0.1183
  589MOL0     C77652   0.722   3.863   1.299  0.0341  0.1459 -0.1732
  589MOL0     C77653   0.567   3.845   1.293 -0.4992  0.0563  0.6432
  589MOL0     C77654   0.533   3.726   1.196  0.4061 -0.3867  0.6555
  589MOL0     C77655   0.410   3.655   1.250  0.7264  0.8841 -0.1552
  589MOL0     C77656   0.384   3.524   1.162  0.0067 -0.5715  0.0519
  589MOL0     C77657   0.274   3.450   1.230  0.2440 -0.5029  0.4897
  589MOL0     C77658   0.220   3.327   1.149 -0.3288 -0.2001  0.4942
  589MOL0     C77659   0.193   3.350   0.999 -0.0172  0.0358 -0.0280
  589MOL0    Cl77660   0.124   3.509   0.962 -0.2864  0.3186  0.2327
  589MOL0     C77661   0.997   3.933   1.217 -0.7582 -0.4701  0.3069
  589MOL0     C77662   1.132   3.954   1.167  0.6090  0.5987  0.3772
  589MOL0     O77663   1.320   4.191   1.045  0.4618 -0.0717  0.0595
  589MOL0     C77664   1.564   3.963   0.902  0.1413  0.2001 -0.0130
  589MOL0     C77665   1.701   3.961   0.884  0.1083  0.4221  0.8420
  589MOL0     N77666   2.500   3.897   1.199 -0.3044  0.3916 -0.0099
  589MOL0     N77667   2.589   3.954   1.283 -0.5242 -0.3722  0.1287
  589MOL0     C77668   3.895   4.359   1.510  0.3077  0.5668 -0.0128
  589MOL0     C77669   4.033   4.354   1.479 -0.4422  0.1981  0.0192
  589MOL0     C77670   4.470   4.251   1.572  0.3946  0.1742  0.2550
  589MOL0     C77671   4.556   4.220   1.682  0.5171  0.2357  1.3992
  589MOL0     C77672   4.692   4.217   1.653  0.0139  0.2510  0.3917
  589MOL0     C77673   4.746   4.244   1.521 -0.9869  1.2229 -0.4387
  589MOL0     O77674   4.882   4.239   1.497  0.6178  0.4600  0.1399
  589MOL0     C77675   4.963   4.156   1.582 -0.0807  0.0473  0.5043
  589MOL0     C77676   5.103   4.140   1.527 -0.2543  0.1066  0.0326
  589MOL0     C77677   5.183   4.274   1.520  0.8313  0.1243  0.6198
  589MOL0     C77678   5.321   4.243   1.466  0.2081  0.0406  0.5160
  589MOL0     C77679   5.393   4.372   1.480  0.0254  0.1810  0.2079
  589MOL0     C77680   5.449   4.478   1.465 -0.0722 -0.7139  0.0539
  589MOL0     C77681   4.659   4.271   1.419  0.7190  0.3122 -0.7839
  589MOL0     C77682   4.517   4.282   1.445 -0.2509  0.4549  0.4102
  589MOL0     H77683   4.102   4.046   1.588 -0.0402  0.1188  0.8418
  589MOL0     H77684   3.851   4.038   1.615 -2.8678  1.4652 -1.8783
  589MOL0     H77685   3.589   4.076   1.576 -0.6315  0.2414  1.5582
  589MOL0     H77686   3.624   4.158   1.418 -2.2499 -2.2214 -0.0244
  589MOL0     H77687   3.472   4.318   1.442 -0.9311  0.5449  1.1738
  589MOL0     H77688   3.425   4.286   1.603 -1.0926 -0.1606  0.5364
  589MOL0     H77689   3.333   4.069   1.583 -2.0293  1.1316  0.5404
  589MOL0     H77690   3.381   4.061   1.413 -0.8439 -0.5152  1.3669
  589MOL0     H77691   3.173   4.239   1.548 -0.4764 -1.7739  1.3225
  589MOL0     H77692   3.246   4.264   1.381  0.4340 -0.7564 -1.0986
  589MOL0     H77693   3.104   4.008   1.447  0.8851 -0.1767  0.5336
  589MOL0     H77694   3.184   4.073   1.297  0.3088  0.1315  0.3160
  589MOL0     H77695   3.031   4.245   1.284  1.2972  1.0028  2.2178
  589MOL0     H77696   2.959   4.193   1.439 -0.5138 -1.1482 -0.3720
  589MOL0     H77697   2.934   4.025   1.173 -0.5373 -0.2761 -0.1840
  589MOL0     H77698   2.876   3.971   1.328 -0.6976  0.1560  0.0605
  589MOL0     H77699   2.780   4.220   1.187 -3.1151 -0.8496 -1.1826
  589MOL0     H77700   2.740   4.182   1.353 -3.6467 -1.2821 -0.6871
  589MOL0     H77701   2.613   4.156   1.025 -1.1837 -0.6037 -0.7772
  589MOL0     H77702   2.370   3.874   0.948 -0.6796  0.5724 -3.8137
  589MOL0     H77703   2.414   4.029   0.888 -0.8724  0.0174  0.2226
  589MOL0     H77704   2.268   4.150   1.042 -1.0950  0.0288 -1.5429
  589MOL0     H77705   2.212   4.001   1.128 -2.7936  0.2356 -0.1904
  589MOL0     H77706   2.155   4.082   0.852 -3.0514  0.2201 -0.2639
  589MOL0     H77707   2.149   3.914   0.900  2.2810 -1.6020  1.8021
  589MOL0     H77708   2.009   4.139   1.050  3.6754  0.3891 -0.4947
  589MOL0     H77709   1.965   3.968   1.052  2.4586 -0.6848  1.0882
  589MOL0     H77710   1.762   4.291   0.949 -2.1547  0.7159  3.7186
  589MOL0     H77711   1.537   4.280   0.996  1.2215  1.6926  0.1197
  589MOL0     H77712   1.076   3.978   0.841  1.0464 -2.2707 -0.4698
  589MOL0     H77713   0.831   3.956   0.924 -1.1736  0.6651  2.9668
  589MOL0     H77714   0.753   3.936   1.375 -0.8190  0.1475  0.1803
  589MOL0     H77715   0.776   3.768   1.309  1.3031  0.8214 -0.4294
  589MOL0     H77716   0.522   3.938   1.259 -0.1162  0.6411  1.6864
  589MOL0     H77717   0.519   3.834   1.391  0.7726  1.4013  1.4442
  589MOL0     H77718   0.615   3.654   1.185  3.1595  2.6957 -0.8907
  589MOL0     H77719   0.511   3.762   1.095 -0.0819  1.3833  1.3671
  589MOL0     H77720   0.429   3.634   1.356  2.7377 -0.0964 -0.6604
  589MOL0     H77721   0.326   3.726   1.253  1.9132  2.5014 -2.3035
  589MOL0     H77722   0.468   3.457   1.145 -0.3271 -0.2647 -3.5247
  589MOL0     H77723   0.350   3.553   1.062  0.2997  2.1466  0.6517
  589MOL0     H77724   0.189   3.515   1.249  0.9651  0.7602 -0.4673
  589MOL0     H77725   0.298   3.412   1.330 -1.6545  0.2501  1.2798
  589MOL0     H77726   0.291   3.245   1.166  2.0273  0.8922 -2.9743
  589MOL0     H77727   0.123   3.307   1.194 -1.4565  0.8093 -1.4018
  589MOL0     H77728   0.124   3.274   0.963  1.3391 -1.9023  1.2900
  589MOL0     H77729   0.287   3.336   0.944  0.4732  0.5548  0.6627
  589MOL0     H77730   0.973   3.930   1.323 -0.2366 -0.9353  0.4125
  589MOL0     H77731   1.217   3.951   1.234  0.6079 -2.4145  0.4156
  589MOL0     H77732   1.498   3.880   0.882 -4.0327  2.7202  1.8481
  589MOL0     H77733   1.748   3.875   0.838  1.6771  0.6718  1.9253
  589MOL0     H77734   3.836   4.448   1.494  0.4586  0.6809  0.0584
  589MOL0     H77735   4.082   4.444   1.443 -2.0641  1.3400  0.5492
  589MOL0     H77736   4.512   4.201   1.780 -1.0532 -0.0926  0.6720
  589MOL0     H77737   4.747   4.188   1.741  1.6562  0.0145 -0.6688
  589MOL0     H77738   4.916   4.059   1.601 -1.3265  0.6756  0.7037
  589MOL0     H77739   4.969   4.201   1.681 -0.7304  2.8612 -0.6560
  589MOL0     H77740   5.156   4.071   1.594 -0.3733 -2.4962 -2.3910
  589MOL0     H77741   5.104   4.099   1.426  1.5339  1.9526 -0.7752
  589MOL0     H77742   5.189   4.310   1.623 -0.5149  1.5442  0.2370
  589MOL0     H77743   5.131   4.349   1.460  0.6028 -1.4409 -1.2191
  589MOL0     H77744   5.380   4.170   1.522  0.1485  0.1018  0.6606
  589MOL0     H77745   5.325   4.219   1.360  5.4856  3.8071 -0.5774
  589MOL0     H77746   5.498   4.571   1.445  0.0707 -0.3112  2.0676
  589MOL0     H77747   4.703   4.306   1.326  1.7877 -0.1036 -0.4469
  589MOL0     H77748   4.444   4.288   1.364 -1.7844 -5.2456  0.9770
  590MOL0     O77749   9.112   6.230   7.420  0.1826  0.2941  0.2233
  590MOL0     C77750   9.196   6.216   7.508 -0.2102  0.1101 -0.2221
  590MOL0     O77751   9.167   6.178   7.636  0.2610  0.3087 -1.2862
  590MOL0     C77752   9.033   6.180   7.676  0.1548  0.2286 -0.3675
  590MOL0     C77753   8.976   6.064   7.726 -0.1895 -0.6913  0.2678
  590MOL0     C77754   8.843   6.054   7.764 -0.6574  0.7084 -0.3556
  590MOL0     C77755   8.760   6.165   7.770 -0.7442 -0.5718  0.8245
  590MOL0     O77756   8.628   6.153   7.800  0.2506  0.5077  0.4704
  590MOL0     C77757   8.595   6.069   7.915 -0.2395 -0.4462 -0.5320
  590MOL0     C77758   8.476   6.126   7.980 -0.1303  0.6077  0.2667
  590MOL0     C77759   8.336   6.122   7.908 -1.4005  0.1008 -0.4896
  590MOL0     C77760   8.250   6.241   7.959  0.0963  0.3513 -0.0797
  590MOL0     C77761   8.215   6.239   8.113  0.1536  0.3419  0.9860
  590MOL0     C77762   8.125   6.353   8.157  0.0729 -0.1693 -0.6436
  590MOL0     C77763   8.192   6.493   8.145 -0.3463  0.3782  0.2584
  590MOL0     C77764   8.112   6.614   8.170 -0.5445  0.3622  0.2079
  590MOL0     N77765   8.007   6.621   8.065 -0.5962 -0.0708  0.0703
  590MOL0     C77766   7.878   6.604   8.107  0.2459  0.0398  0.3323
  590MOL0     C77767   7.807   6.651   8.007 -0.3908  0.2127  0.1783
  590MOL0     C77768   7.666   6.639   8.003 -0.1750 -0.1289  0.1694
  590MOL0     C77769   7.606   6.547   7.889 -0.1066 -0.5151  0.3912
  590MOL0     C77770   7.689   6.420   7.881  0.9672  0.4342  0.4575
  590MOL0     C77771   7.626   6.332   7.769  0.2091 -0.9745 -0.1684
  590MOL0     O77772   7.504   6.267   7.821  0.0067 -0.0932  0.6652
  590MOL0     C77773   7.495   6.129   7.804  0.6343 -0.0171 -0.3197
  590MOL0     C77774   7.560   6.049   7.714 -1.0095  0.5935 -0.5845
  590MOL0     C77775   7.516   5.911   7.695  0.1848  0.1522 -0.0830
  590MOL0     C77776   7.410   5.859   7.777  0.1858 -0.4199 -0.3590
  590MOL0     C77777   7.347   5.730   7.744 -0.0818  0.1213  0.5420
  590MOL0     O77778   7.411   5.654   7.648 -0.0387  0.1010 -0.2253
  590MOL0     C77779   7.365   5.530   7.623  0.6704  0.1078 -0.6018
  590MOL0     C77780   7.324   5.441   7.724 -0.2626 -0.4345  0.3260
  590MOL0     C77781   7.259   5.322   7.694  0.0245  0.2645 -0.2263
  590MOL0     C77782   7.260   5.275   7.567  0.5146  0.0606 -0.6081
  590MOL0     O77783   7.201   5.161   7.557 -0.3180  0.4396  0.0283
  590MOL0     C77784   7.124   5.136   7.440 -0.1202 -0.0177  0.7593
  590MOL0     C77785   7.021   5.020   7.449 -0.1766 -1.0203  1.3787
  590MOL0     C77786   6.966   4.980   7.302  0.4855 -0.4673 -1.0659
  590MOL0     C77787   6.856   4.876   7.301 -0.3569  0.8312  0.2019
  590MOL0     C77788   6.768   4.854   7.182  0.0627  0.1233 -0.1613
  590MOL0     C77789   6.848   4.808   7.060 -0.1223  0.0531  0.1900
  590MOL0     C77790   6.761   4.792   6.926  0.5904  0.3260 -0.1586
  590MOL0     C77791   6.728   4.930   6.871 -0.1407 -0.4320  0.3287
  590MOL0    Cl77792   6.868   5.006   6.806 -0.5834 -0.0614 -0.2338
  590MOL0     C77793   7.328   5.343   7.468 -0.7344 -0.4712  0.6570
  590MOL0     C77794   7.375   5.479   7.491 -0.4188 -0.1833  0.2935
  590MOL0     O77795   7.239   5.706   7.799 -0.3418  0.1440 -0.1300
  590MOL0     C77796   7.351   5.945   7.871  0.2257  0.0828  1.1791
  590MOL0     C77797   7.386   6.081   7.878 -0.1126 -0.1249 -0.7201
  590MOL0     N77798   7.897   6.688   7.905 -0.7090  0.1783  0.2363
  590MOL0     N77799   8.019   6.681   7.944  0.3590 -0.1854  0.6611
  590MOL0     C77800   8.817   6.291   7.729 -0.4502 -0.2025 -0.2315
  590MOL0     C77801   8.951   6.301   7.685  0.8635  0.9853  0.0646
  590MOL0     C77802   9.331   6.267   7.476 -0.4875  0.6575  0.1949
  590MOL0     C77803   9.371   6.294   7.346  0.2759  0.6811  0.1062
  590MOL0     C77804   9.500   6.326   7.309  0.7919 -0.3138 -0.8021
  590MOL0     C77805   9.605   6.320   7.406  0.5661 -0.2072 -0.4553
  590MOL0     O77806   9.733   6.343   7.365  0.2666  0.2057 -0.3911
  590MOL0     C77807   9.831   6.271   7.444  0.4057  0.1957  0.1976
  590MOL0     C77808   9.957   6.279   7.374 -0.0316  0.1192 -0.8241
  590MOL0     C77809  10.069   6.197   7.437 -0.4830  0.8590 -0.5673
  590MOL0     C77810  10.204   6.208   7.359 -0.1693 -0.0103  0.1787
  590MOL0     C77811  10.289   6.317   7.410  0.4209 -0.2092 -0.6410
  590MOL0     C77812  10.364   6.408   7.449  0.1264 -0.8248  0.1929
  590MOL0     C77813   9.557   6.306   7.541  0.3785  0.2425 -0.2578
  590MOL0     C77814   9.425   6.282   7.576  0.8632  0.8496 -1.3492
  590MOL0     H77815   9.036   5.974   7.723  1.1859  0.2223 -0.3585
  590MOL0     H77816   8.795   5.959   7.784 -0.6334  0.8935  0.6199
  590MOL0     H77817   8.675   6.068   7.989 -0.0992  2.5593 -0.4989
  590MOL0     H77818   8.582   5.971   7.868  1.1584 -0.8639 -0.0923
  590MOL0     H77819   8.503   6.228   8.007  1.6128  0.5448 -1.0982
  590MOL0     H77820   8.461   6.082   8.079 -1.0177  3.3146  1.4394
  590MOL0     H77821   8.295   6.024   7.936 -0.2292 -0.2119  0.1838
  590MOL0     H77822   8.336   6.129   7.799 -3.1363 -0.2593 -0.5491
  590MOL0     H77823   8.304   6.336   7.943 -0.2062  0.3600 -1.1690
  590MOL0     H77824   8.157   6.245   7.902 -0.4695  2.1412  0.8925
  590MOL0     H77825   8.306   6.233   8.173  0.5548 -3.7360  0.3086
  590MOL0     H77826   8.164   6.144   8.136 -0.4897 -0.1088 -1.9061
  590MOL0     H77827   8.070   6.325   8.247  0.8970  1.0843  0.2848
  590MOL0     H77828   8.041   6.352   8.086 -1.7049 -1.9049  1.3280
  590MOL0     H77829   8.284   6.498   8.204  0.1347 -0.2342 -0.4241
  590MOL0     H77830   8.231   6.504   8.043  3.1041  0.8423  1.4855
  590MOL0     H77831   8.175   6.703   8.180  1.2270 -1.0090  2.4109
  590MOL0     H77832   8.066   6.605   8.269 -0.8135  2.1379  0.2762
  590MOL0     H77833   7.846   6.577   8.207 -2.5999  0.5400 -0.3543
  590MOL0     H77834   7.614   6.732   7.978 -0.1465 -0.4393 -1.1203
  590MOL0     H77835   7.636   6.597   8.100 -2.0772  0.0940 -0.2703
  590MOL0     H77836   7.617   6.601   7.795 -0.2622 -0.0135  0.6592
  590MOL0     H77837   7.505   6.510   7.911  0.5315 -1.3963  1.9968
  590MOL0     H77838   7.792   6.445   7.856  1.1265 -0.5354  0.0956
  590MOL0     H77839   7.702   6.359   7.971  1.6585  0.6931  0.5353
  590MOL0     H77840   7.691   6.254   7.729  0.8224 -0.0328 -1.0424
  590MOL0     H77841   7.609   6.404   7.689 -1.5892  0.0086  1.0190
  590MOL0     H77842   7.634   6.083   7.642  0.0322 -0.2513  0.0644
  590MOL0     H77843   7.560   5.847   7.619 -0.0086  0.5701 -0.5451
  590MOL0     H77844   7.336   5.455   7.831 -1.7358 -2.8520  0.8774
  590MOL0     H77845   7.215   5.258   7.770  1.0435 -1.1156 -0.7521
  590MOL0     H77846   7.193   5.117   7.358 -0.8156 -0.6777  0.3178
  590MOL0     H77847   7.071   5.224   7.402 -0.2582 -0.4810 -0.1562
  590MOL0     H77848   6.949   5.028   7.531  0.5322 -1.3216  2.0425
  590MOL0     H77849   7.091   4.940   7.476  0.9854 -0.2721  0.6859
  590MOL0     H77850   7.056   4.948   7.248  1.6000 -0.6507  0.7959
  590MOL0     H77851   6.912   5.067   7.262 -1.0025 -0.7310  0.2625
  590MOL0     H77852   6.901   4.777   7.300  0.6748  1.2704 -1.4618
  590MOL0     H77853   6.791   4.878   7.389 -1.0628  0.4132 -0.2934
  590MOL0     H77854   6.705   4.938   7.151 -0.5621 -0.4055 -0.3497
  590MOL0     H77855   6.682   4.789   7.201 -1.4200  1.6490 -1.2967
  590MOL0     H77856   6.900   4.712   7.067  1.0841  0.6814  0.1882
  590MOL0     H77857   6.926   4.884   7.049  0.8716 -0.8739  0.5879
  590MOL0     H77858   6.821   4.740   6.850 -2.4340 -1.9660 -1.1794
  590MOL0     H77859   6.674   4.728   6.940  1.5804 -1.1657 -0.5414
  590MOL0     H77860   6.683   4.992   6.949  0.6312  0.5774  0.0036
  590MOL0     H77861   6.658   4.915   6.789  2.6184 -0.7353 -2.1646
  590MOL0     H77862   7.345   5.302   7.369  1.2680 -0.6292  1.0194
  590MOL0     H77863   7.415   5.538   7.409  2.0803 -0.3176  1.3079
  590MOL0     H77864   7.271   5.911   7.935  0.5393 -1.2586  0.8921
  590MOL0     H77865   7.350   6.136   7.964 -0.1633 -1.6483  0.2710
  590MOL0     H77866   8.763   6.385   7.730 -0.1216  0.0248 -1.6196
  590MOL0     H77867   8.985   6.400   7.654 -0.0323  1.3918  0.3378
  590MOL0     H77868   9.304   6.283   7.261  0.1309 -0.8165  0.3779
  590MOL0     H77869   9.526   6.344   7.206  1.6814  2.9896 -0.1352
  590MOL0     H77870   9.794   6.168   7.449  0.0538 -0.1840 -4.9876
  590MOL0     H77871   9.835   6.300   7.549 -2.5856  3.6177 -0.4259
  590MOL0     H77872   9.937   6.231   7.278  3.6542 -1.3473 -1.0548
  590MOL0     H77873   9.976   6.386   7.369 -4.2154  1.1667  1.5518
  590MOL0     H77874  10.050   6.089   7.438  4.5764 -0.3527  2.0376
  590MOL0     H77875  10.076   6.222   7.543  1.9864  2.2337 -0.9655
  590MOL0     H77876  10.256   6.113   7.369 -2.5872 -1.5298 -0.6874
  590MOL0     H77877  10.172   6.215   7.255  0.5432 -1.2691 -0.1458
  590MOL0     H77878  10.429   6.489   7.473  1.1956 -1.3332 -0.8797
  590MOL0     H77879   9.621   6.304   7.628  2.1118 -1.1778 -1.5068
  590MOL0     H77880   9.392   6.265   7.678 -0.5925 -3.2948 -2.3281
  591MOL0     O77881   2.760   9.559   3.084 -0.7782 -0.1074  0.1633
  591MOL0     C77882   2.823   9.475   3.024 -0.0007 -0.1052 -0.1677
  591MOL0     O77883   2.817   9.339   3.042  0.2716  0.4572  0.0897
  591MOL0     C77884   2.747   9.290   3.149  0.5838  0.0534 -0.2203
  591MOL0     C77885   2.808   9.262   3.269 -0.8840  0.3376  0.1240
  591MOL0     C77886   2.737   9.226   3.380  0.3632 -0.2462  0.1061
  591MOL0     C77887   2.604   9.197   3.366  0.4768  0.3150  0.6250
  591MOL0     O77888   2.529   9.165   3.474  0.6007 -0.2685 -0.2719
  591MOL0     C77889   2.498   9.279   3.563 -0.2676  0.2955 -0.7093
  591MOL0     C77890   2.591   9.257   3.686 -0.3115 -0.7087 -0.2281
  591MOL0     C77891   2.716   9.355   3.702  0.8316 -0.6007  0.8839
  591MOL0     C77892   2.822   9.291   3.796  0.1221 -0.1384  0.0261
  591MOL0     C77893   2.948   9.380   3.813 -1.0405 -0.2669 -0.4573
  591MOL0     C77894   3.025   9.418   3.689 -0.4331 -0.1364 -0.1395
  591MOL0     C77895   3.151   9.508   3.717  0.6600  0.9804 -0.2774
  591MOL0     C77896   3.269   9.426   3.785  0.0539 -0.9699 -0.3440
  591MOL0     N77897   3.393   9.515   3.803  0.1957 -0.4966  0.2007
  591MOL0     C77898   3.395   9.626   3.889 -0.4020 -0.4030 -0.3367
  591MOL0     C77899   3.523   9.671   3.892 -0.6221 -0.6345 -0.1435
  591MOL0     C77900   3.562   9.797   3.963 -1.1340 -0.1457  0.2384
  591MOL0     C77901   3.687   9.771   4.060 -0.5117  0.1652 -0.5423
  591MOL0     C77902   3.813   9.719   4.004 -0.0217  0.8041  0.0243
  591MOL0     C77903   3.886   9.797   3.892  0.8467  0.0420 -0.6838
  591MOL0     O77904   3.939   9.918   3.940 -0.2128 -0.1540  0.1459
  591MOL0     C77905   4.074   9.930   3.952  0.0876 -0.0542 -0.1100
  591MOL0     C77906   4.176   9.826   3.954  1.4700 -0.2553 -0.4736
  591MOL0     C77907   4.310   9.857   3.965 -0.1711 -0.5025 -0.5415
  591MOL0     C77908   4.351   9.997   3.979  0.4647  0.1085  0.8073
  591MOL0     C77909   4.490  10.031   3.966 -0.5966 -0.7672 -0.6888
  591MOL0     O77910   4.577   9.927   3.960 -0.3091 -0.4462 -0.2907
  591MOL0     C77911   4.710   9.966   3.928 -0.1289 -0.4920 -0.0224
  591MOL0     C77912   4.757   9.983   3.797 -1.5061 -0.4394 -0.0890
  591MOL0     C77913   4.892   9.994   3.763 -0.9562 -0.0444 -0.0939
  591MOL0     C77914   4.999   9.989   3.866 -0.4476 -0.1783  0.1552
  591MOL0     O77915   5.132   9.989   3.833 -0.5848 -0.1246 -0.9801
  591MOL0     C77916   5.167   9.998   3.693 -0.4199 -0.4439 -0.9860
  591MOL0     C77917   5.318   9.980   3.679  0.1573 -0.2243  0.8382
  591MOL0     C77918   5.379   9.876   3.772 -0.4519 -0.6593 -0.2469
  591MOL0     C77919   5.534   9.846   3.754 -0.4114 -0.0846 -0.0012
  591MOL0     C77920   5.571   9.707   3.825 -0.4068  0.2304  0.0968
  591MOL0     C77921   5.525   9.586   3.743 -0.3217 -1.4372 -0.6538
  591MOL0     C77922   5.639   9.487   3.720  0.3876 -0.4307 -0.3400
  591MOL0     C77923   5.590   9.355   3.671  0.5700 -0.4003  0.0789
  591MOL0    Cl77924   5.475   9.281   3.789 -0.3031 -0.0824 -0.0234
  591MOL0     C77925   4.953   9.988   3.993 -0.4971  1.3278  0.1646
  591MOL0     C77926   4.819   9.966   4.032 -0.2915 -0.5050  0.0820
  591MOL0     O77927   4.526  10.149   3.962 -0.3742 -0.2759  0.3782
  591MOL0     C77928   4.252  10.085   3.996  0.4879  0.2168 -0.5138
  591MOL0     C77929   4.121  10.060   3.982 -0.0328 -0.5062  0.8419
  591MOL0     N77930   3.594   9.592   3.802  0.3597  0.3065 -0.5638
  591MOL0     N77931   3.516   9.501   3.744  0.4827  0.0200  0.0094
  591MOL0     C77932   2.537   9.212   3.242  0.0352  0.5087 -0.2204
  591MOL0     C77933   2.614   9.251   3.128  1.0199 -0.3285  0.6117
  591MOL0     C77934   2.911   9.514   2.905  0.0947 -1.0161 -0.8449
  591MOL0     C77935   3.024   9.445   2.872  0.9881  0.6566  0.9769
  591MOL0     C77936   3.098   9.469   2.754  0.8882  0.1025  0.0744
  591MOL0     C77937   3.074   9.586   2.681 -0.0893  0.0576 -0.1290
  591MOL0     O77938   3.134   9.609   2.556  0.2340  0.4775 -0.2111
  591MOL0     C77939   3.219   9.512   2.504 -0.0083  0.2566  0.3146
  591MOL0     C77940   3.250   9.548   2.362 -0.8112  0.1256  0.4778
  591MOL0     C77941   3.331   9.682   2.346  0.2392 -0.1623  0.2786
  591MOL0     C77942   3.251   9.813   2.370 -0.8295 -0.0898  0.4115
  591MOL0     C77943   3.337   9.931   2.327 -0.2636 -0.5068 -0.3876
  591MOL0     C77944   3.385  10.032   2.287 -0.1371 -0.3967 -0.2346
  591MOL0     C77945   2.970   9.672   2.728 -0.0726  0.1566 -1.2476
  591MOL0     C77946   2.891   9.637   2.838 -0.6108 -0.1188 -0.0774
  591MOL0     H77947   2.914   9.274   3.288 -1.1401  3.2711  0.1004
  591MOL0     H77948   2.781   9.203   3.477 -0.9981  0.1507  0.8374
  591MOL0     H77949   2.393   9.276   3.593 -0.8663  1.2215 -2.5204
  591MOL0     H77950   2.528   9.375   3.520  1.4349  0.0086 -0.2560
  591MOL0     H77951   2.630   9.155   3.683  0.3297 -0.4772  0.0109
  591MOL0     H77952   2.533   9.251   3.779  0.9403  0.9596  0.7335
  591MOL0     H77953   2.687   9.451   3.746  0.4891 -0.9278  1.3822
  591MOL0     H77954   2.758   9.385   3.605  3.9759 -0.8555  2.0461
  591MOL0     H77955   2.785   9.292   3.899  0.3966  1.3865  0.1331
  591MOL0     H77956   2.840   9.189   3.761 -0.6848 -0.6317  1.0120
  591MOL0     H77957   3.024   9.332   3.875  1.3949  3.2259 -0.4938
  591MOL0     H77958   2.920   9.468   3.872  2.7104  0.6190  0.2441
  591MOL0     H77959   2.955   9.481   3.632 -0.2366  0.7820  0.6161
  591MOL0     H77960   3.048   9.330   3.628  1.8200  0.3938 -0.1323
  591MOL0     H77961   3.170   9.554   3.620 -1.7719  0.3307 -1.1371
  591MOL0     H77962   3.131   9.590   3.785  1.7291 -0.1053  1.4245
  591MOL0     H77963   3.296   9.332   3.737  2.1122 -1.4142  1.5440
  591MOL0     H77964   3.232   9.400   3.884  0.0327  1.4371  0.3558
  591MOL0     H77965   3.310   9.665   3.943 -0.8100 -5.0019  2.9879
  591MOL0     H77966   3.480   9.823   4.030 -2.0292 -1.0657 -0.4713
  591MOL0     H77967   3.571   9.876   3.888  0.2206 -2.1018 -1.8112
  591MOL0     H77968   3.659   9.707   4.145  2.4980 -0.1253  0.3512
  591MOL0     H77969   3.697   9.872   4.101 -1.0868 -0.9174  2.5405
  591MOL0     H77970   3.895   9.713   4.076 -0.7519 -0.9602  0.7479
  591MOL0     H77971   3.791   9.617   3.972 -0.0497  1.3300 -1.7348
  591MOL0     H77972   3.809   9.821   3.817 -0.9037  1.5037  1.4575
  591MOL0     H77973   3.964   9.734   3.848  1.9815  2.3149 -2.1078
  591MOL0     H77974   4.149   9.723   3.934  2.2630 -1.3620  3.2501
  591MOL0     H77975   4.383   9.776   3.966 -1.1495 -1.4091  0.5686
  591MOL0     H77976   4.677   9.977   3.724 -0.9425  1.6828 -0.9437
  591MOL0     H77977   4.907   9.997   3.656 -1.0061  2.5251 -0.0916
  591MOL0     H77978   5.134  10.094   3.653 -0.3319 -0.1153 -0.2909
  591MOL0     H77979   5.120   9.913   3.643 -1.8373  0.2611 -0.9027
  591MOL0     H77980   5.377  10.069   3.703  0.3068  0.3784 -1.5579
  591MOL0     H77981   5.340   9.963   3.574 -0.0323 -1.7111  1.0129
  591MOL0     H77982   5.332   9.778   3.768  0.6309 -1.2051  0.0982
  591MOL0     H77983   5.370   9.904   3.877 -1.8901 -0.1600 -0.4715
  591MOL0     H77984   5.558   9.833   3.648 -3.3082 -0.3005 -0.7304
  591MOL0     H77985   5.584   9.932   3.801 -0.2331 -0.0808 -0.1967
  591MOL0     H77986   5.524   9.699   3.923 -1.6234  1.0356 -0.3957
  591MOL0     H77987   5.678   9.700   3.850 -0.1352 -2.2878 -1.4078
  591MOL0     H77988   5.476   9.627   3.654 -2.3787 -0.4088  0.8678
  591MOL0     H77989   5.456   9.530   3.806  0.9816 -0.4963  1.7194
  591MOL0     H77990   5.694   9.530   3.636 -0.3905  0.6318 -0.3306
  591MOL0     H77991   5.713   9.481   3.800  0.1762 -0.2118 -0.1277
  591MOL0     H77992   5.679   9.293   3.662  0.6863 -0.2193 -0.0344
  591MOL0     H77993   5.544   9.354   3.572 -0.1457 -0.8380  0.4124
  591MOL0     H77994   5.024   9.999   4.074 -2.4175 -2.4812  2.7068
  591MOL0     H77995   4.788   9.941   4.132 -2.2636 -0.9747 -0.6119
  591MOL0     H77996   4.289  10.186   4.008  2.4615 -0.7396  2.4054
  591MOL0     H77997   4.060  10.149   3.988 -0.2410 -0.7097  2.1044
  591MOL0     H77998   2.430   9.201   3.228  0.0859 -0.4451  0.0941
  591MOL0     H77999   2.562   9.268   3.034  1.3432  0.0760  0.5012
  591MOL0     H78000   3.047   9.354   2.928  0.4316 -0.5115 -0.6229
  591MOL0     H78001   3.172   9.397   2.720 -0.5602 -0.7374 -1.4355
  591MOL0     H78002   3.170   9.415   2.504  1.1653 -0.4247  2.8926
  591MOL0     H78003   3.312   9.491   2.558 -0.3049 -1.9115  0.0673
  591MOL0     H78004   3.315   9.468   2.324  0.5053  0.3883  2.0587
  591MOL0     H78005   3.159   9.551   2.301 -0.7794 -3.0932  0.0816
  591MOL0     H78006   3.375   9.671   2.247  3.5452 -3.7654  1.8605
  591MOL0     H78007   3.424   9.684   2.403  0.5682 -1.2430 -0.1909
  591MOL0     H78008   3.160   9.805   2.309 -1.3600 -4.4865  1.4274
  591MOL0     H78009   3.234   9.806   2.477 -2.0036 -1.9271  0.1459
  591MOL0     H78010   3.427  10.119   2.241 -0.0603 -1.6828 -2.7408
  591MOL0     H78011   2.961   9.759   2.664 -0.1781 -0.3736 -1.9624
  591MOL0     H78012   2.818   9.707   2.877  1.2657 -0.4785  4.6951
  592MOL0     O78013   9.226   5.176   7.606 -0.0390 -0.1370  0.0064
  592MOL0     C78014   9.291   5.152   7.509 -0.3335  0.7363  1.3392
  592MOL0     O78015   9.249   5.080   7.404 -0.2104  0.4880  0.6535
  592MOL0     C78016   9.132   5.014   7.411  0.2343 -0.3667 -0.3293
  592MOL0     C78017   9.123   4.881   7.448  0.1406 -0.1990  0.7883
  592MOL0     C78018   8.999   4.820   7.457 -0.0965  0.2431 -0.4944
  592MOL0     C78019   8.877   4.886   7.430  0.3012 -0.1762  0.3420
  592MOL0     O78020   8.752   4.828   7.446 -0.1466 -0.8403  0.1047
  592MOL0     C78021   8.758   4.688   7.479 -0.1361  0.5581  0.4472
  592MOL0     C78022   8.616   4.629   7.501 -0.1053 -0.8601 -0.3496
  592MOL0     C78023   8.537   4.641   7.372  0.7780 -0.0854  0.6340
  592MOL0     C78024   8.399   4.577   7.379  0.6779  0.0979 -0.5370
  592MOL0     C78025   8.395   4.429   7.399 -0.0874 -0.4015 -0.0743
  592MOL0     C78026   8.249   4.373   7.399 -0.7671 -0.1518 -0.5496
  592MOL0     C78027   8.260   4.221   7.379 -0.2909  0.0298 -0.1623
  592MOL0     C78028   8.128   4.147   7.403 -0.1886 -1.0779  0.8030
  592MOL0     N78029   8.007   4.209   7.355  0.6620  0.0661  0.3608
  592MOL0     C78030   7.981   4.244   7.227 -0.1661 -0.2081 -0.3099
  592MOL0     C78031   7.854   4.291   7.220  0.7435 -0.1851 -0.4400
  592MOL0     C78032   7.806   4.366   7.094  0.4449 -0.4338  0.2407
  592MOL0     C78033   7.678   4.301   7.041 -0.1882 -0.9623 -0.3195
  592MOL0     C78034   7.713   4.177   6.961 -0.6538  0.1853  0.2763
  592MOL0     C78035   7.581   4.122   6.913 -0.3415 -0.0042 -0.0424
  592MOL0     O78036   7.515   4.204   6.820  0.2382 -0.3687 -0.0839
  592MOL0     C78037   7.380   4.179   6.781 -0.4831  1.0998 -1.2185
  592MOL0     C78038   7.338   4.206   6.648 -0.3988 -1.0749 -0.1314
  592MOL0     C78039   7.201   4.196   6.626  0.1976 -0.1550 -0.6879
  592MOL0     C78040   7.114   4.128   6.710  0.3235 -0.0074 -0.4639
  592MOL0     C78041   6.975   4.094   6.673  0.6527 -0.1482  0.5678
  592MOL0     O78042   6.961   4.087   6.537 -0.1732  0.4159 -0.0690
  592MOL0     C78043   6.840   4.041   6.482  0.0055  0.0906 -0.5720
  592MOL0     C78044   6.791   4.113   6.366  0.6999 -0.1344 -0.6788
  592MOL0     C78045   6.656   4.088   6.313 -0.6599  0.3911 -0.0245
  592MOL0     C78046   6.577   3.988   6.368  0.6911  0.1751 -0.3841
  592MOL0     O78047   6.459   3.948   6.309  0.4353  0.3214 -0.2825
  592MOL0     C78048   6.393   3.828   6.322 -0.0457  0.3148  0.1882
  592MOL0     C78049   6.285   3.802   6.216  0.4557  0.3346 -0.4557
  592MOL0     C78050   6.191   3.695   6.268  0.1230 -0.0205 -0.5860
  592MOL0     C78051   6.262   3.559   6.284  0.1926  1.1788 -0.3221
  592MOL0     C78052   6.165   3.440   6.276  0.4663  0.2167  0.0421
  592MOL0     C78053   6.053   3.445   6.385  0.0626  0.1987 -0.1125
  592MOL0     C78054   5.989   3.306   6.417  0.3877  0.3142 -0.3199
  592MOL0     C78055   5.935   3.240   6.296  0.0555 -0.0465 -0.6797
  592MOL0    Cl78056   5.800   3.337   6.231  0.2768  0.4860  0.1256
  592MOL0     C78057   6.623   3.918   6.482 -0.3942 -0.7578  0.6998
  592MOL0     C78058   6.751   3.947   6.541  0.7423 -0.9440 -0.4177
  592MOL0     O78059   6.891   4.085   6.761  0.7721  0.7138 -0.0050
  592MOL0     C78060   7.165   4.093   6.836  0.8975  0.0114  0.0972
  592MOL0     C78061   7.294   4.119   6.879 -0.8879  0.2993  0.4947
  592MOL0     N78062   7.791   4.256   7.341 -0.2916  0.0059  0.6295
  592MOL0     N78063   7.883   4.213   7.424 -0.3525 -0.3052 -0.1251
  592MOL0     C78064   8.889   5.022   7.389  0.2778  0.2777 -0.6004
  592MOL0     C78065   9.016   5.084   7.387  0.6387  0.2510  0.5025
  592MOL0     C78066   9.437   5.198   7.497 -0.2229 -0.1769  0.0645
  592MOL0     C78067   9.520   5.154   7.391  0.1581 -1.0976 -0.7144
  592MOL0     C78068   9.655   5.182   7.385 -0.3350  0.2865  0.1598
  592MOL0     C78069   9.706   5.267   7.481  0.5969  0.2992 -0.9493
  592MOL0     O78070   9.837   5.301   7.477 -0.2899  0.2655 -0.3294
  592MOL0     C78071   9.914   5.233   7.572 -0.5042 -0.3013 -0.5346
  592MOL0     C78072  10.051   5.249   7.531  0.6646  0.1048  0.9254
  592MOL0     C78073  10.101   5.191   7.397 -0.4485 -0.2945  0.1779
  592MOL0     C78074  10.177   5.063   7.409 -0.3425 -1.4636 -0.7500
  592MOL0     C78075  10.317   5.089   7.446  0.9879 -0.0878  0.4457
  592MOL0     C78076  10.432   5.114   7.467 -0.9388 -0.4702  0.7555
  592MOL0     C78077   9.622   5.321   7.580  0.2978 -0.5140  0.6731
  592MOL0     C78078   9.492   5.283   7.596  0.1744  0.7480 -1.1764
  592MOL0     H78079   9.203   4.817   7.485  1.0803 -0.0897 -0.9381
  592MOL0     H78080   9.000   4.718   7.495 -1.5714 -0.2384 -1.6420
  592MOL0     H78081   8.813   4.664   7.570  1.5714 -0.1699 -0.7196
  592MOL0     H78082   8.801   4.633   7.395 -0.9856  3.3218 -1.9671
  592MOL0     H78083   8.559   4.685   7.574  0.5888  2.3954 -2.1151
  592MOL0     H78084   8.627   4.525   7.535 -1.8432 -1.2920 -1.0010
  592MOL0     H78085   8.597   4.601   7.290 -0.6007  1.0305 -1.0018
  592MOL0     H78086   8.517   4.748   7.361 -1.7528 -0.4699  0.8621
  592MOL0     H78087   8.347   4.624   7.463  1.4542 -0.4843  0.3047
  592MOL0     H78088   8.344   4.606   7.290 -2.0323  3.2834  1.9033
  592MOL0     H78089   8.442   4.399   7.493  2.7228  1.9610 -0.5843
  592MOL0     H78090   8.454   4.384   7.318 -0.1004  0.9536 -0.8643
  592MOL0     H78091   8.190   4.420   7.320  0.6036  1.0538 -0.9070
  592MOL0     H78092   8.201   4.408   7.491  3.2244 -0.2772  1.8572
  592MOL0     H78093   8.283   4.187   7.278 -1.1308  1.6886 -0.9387
  592MOL0     H78094   8.334   4.180   7.449 -2.2276 -2.6163  0.4967
  592MOL0     H78095   8.120   4.125   7.509 -6.3249 -2.0494  0.5044
  592MOL0     H78096   8.125   4.047   7.358 -2.6052 -1.4372  1.5854
  592MOL0     H78097   8.058   4.256   7.152  0.5188 -1.0984  0.2394
  592MOL0     H78098   7.886   4.369   7.019  0.2621 -0.6660  0.0351
  592MOL0     H78099   7.785   4.472   7.115  1.4182  0.0446 -1.0654
  592MOL0     H78100   7.621   4.376   6.984  1.5558  1.3417  0.7904
  592MOL0     H78101   7.620   4.273   7.128 -1.5192  0.6629 -0.6345
  592MOL0     H78102   7.779   4.206   6.878  0.4622  0.1628  1.1192
  592MOL0     H78103   7.763   4.100   7.021 -0.2419  2.0319  2.4013
  592MOL0     H78104   7.520   4.097   7.000  0.8438  2.6979  1.7101
  592MOL0     H78105   7.595   4.027   6.861  2.0887 -0.8819  1.9896
  592MOL0     H78106   7.399   4.253   6.572 -0.2639 -1.9733 -0.5916
  592MOL0     H78107   7.164   4.224   6.527 -3.7459  0.7077  0.8421
  592MOL0     H78108   6.854   4.187   6.319 -0.4514  2.6999  1.9027
  592MOL0     H78109   6.617   4.151   6.234  0.6393  0.7644 -0.3975
  592MOL0     H78110   6.354   3.815   6.423 -0.1199  0.8155  0.2285
  592MOL0     H78111   6.470   3.751   6.320  0.7725  1.0491  1.7854
  592MOL0     H78112   6.326   3.771   6.120 -0.1444  2.2060 -1.3591
  592MOL0     H78113   6.222   3.890   6.202  0.3583  0.2392 -0.6278
  592MOL0     H78114   6.110   3.685   6.194 -0.9310  0.8248  0.4094
  592MOL0     H78115   6.150   3.731   6.362 -1.3743 -0.4364 -1.0461
  592MOL0     H78116   6.337   3.551   6.204  0.5873  2.9094 -0.1677
  592MOL0     H78117   6.313   3.556   6.381  0.2007 -1.4698 -0.3320
  592MOL0     H78118   6.216   3.343   6.278  0.5388  0.2129 -1.2334
  592MOL0     H78119   6.112   3.446   6.181 -0.1833  0.6548  0.4258
  592MOL0     H78120   5.976   3.519   6.360  2.3016  3.0246  0.7221
  592MOL0     H78121   6.097   3.484   6.477  0.6800  1.0084 -0.7268
  592MOL0     H78122   6.068   3.251   6.471  1.2142  0.9804 -0.8183
  592MOL0     H78123   5.906   3.322   6.486 -0.2537 -1.6638 -0.5574
  592MOL0     H78124   5.893   3.141   6.315 -1.8367  0.9144  0.5072
  592MOL0     H78125   6.008   3.223   6.216  1.3736  2.2119 -0.0424
  592MOL0     H78126   6.552   3.853   6.531 -0.2846  1.0701  3.5716
  592MOL0     H78127   6.769   3.903   6.639 -0.6099  0.0649  0.3190
  592MOL0     H78128   7.095   4.044   6.904  0.1532  1.6944  0.5967
  592MOL0     H78129   7.320   4.088   6.980  1.1524 -0.7392 -0.2861
  592MOL0     H78130   8.800   5.078   7.365 -0.6520 -0.8254  0.1901
  592MOL0     H78131   9.029   5.191   7.369  0.1964 -0.2949 -4.3729
  592MOL0     H78132   9.476   5.093   7.313  1.0528 -0.1871 -1.9902
  592MOL0     H78133   9.729   5.141   7.317  0.2267  0.9645  0.3418
  592MOL0     H78134   9.870   5.134   7.589 -0.0628 -0.1031  2.1775
  592MOL0     H78135   9.897   5.290   7.664  2.2008  1.1577 -0.8341
  592MOL0     H78136  10.054   5.358   7.526 -3.8832  0.5533  3.2414
  592MOL0     H78137  10.125   5.222   7.608  0.7775  0.6230  0.9977
  592MOL0     H78138  10.158   5.269   7.345 -1.5124  0.5531  0.2548
  592MOL0     H78139  10.013   5.162   7.339  0.1123 -1.6389 -0.0313
  592MOL0     H78140  10.131   5.000   7.485 -0.5133 -0.0881  0.3338
  592MOL0     H78141  10.170   5.014   7.312 -0.8960 -2.6022 -0.1549
  592MOL0     H78142  10.534   5.136   7.493 -1.0952 -2.6376  3.6729
  592MOL0     H78143   9.664   5.381   7.660  0.8069  0.1887 -0.1169
  592MOL0     H78144   9.433   5.307   7.683  3.2468 -1.1393  1.6944
  593MOL0     O78145   4.609   1.622   0.016 -0.2220 -0.2876  0.2178
  593MOL0     C78146   4.673   1.620  -0.087 -0.2617 -0.2932  0.0789
  593MOL0     O78147   4.632   1.641  -0.210 -0.1471 -0.4261  0.6572
  593MOL0     C78148   4.508   1.679  -0.243 -1.0263 -1.1609  0.2139
  593MOL0     C78149   4.421   1.757  -0.158 -0.9464  0.3597  0.0843
  593MOL0     C78150   4.290   1.791  -0.194 -0.3581 -0.9762 -0.5767
  593MOL0     C78151   4.245   1.757  -0.316 -0.0359  0.1214  0.7833
  593MOL0     O78152   4.121   1.813  -0.340 -0.0214 -0.2098 -0.3367
  593MOL0     C78153   4.070   1.804  -0.474  0.6354  0.3379 -0.6168
  593MOL0     C78154   3.949   1.901  -0.487 -0.2802  0.6551  0.3593
  593MOL0     C78155   3.880   1.893  -0.627  0.2241 -0.1676 -0.1557
  593MOL0     C78156   3.779   2.005  -0.628  0.1881 -1.0576 -0.3716
  593MOL0     C78157   3.672   1.979  -0.518 -0.1900  1.1870  0.2769
  593MOL0     C78158   3.547   2.069  -0.526 -0.1812 -0.7338  0.4948
  593MOL0     C78159   3.578   2.217  -0.499 -0.3509 -0.1788 -0.5445
  593MOL0     C78160   3.655   2.238  -0.368  0.3340 -0.1141 -0.0533
  593MOL0     N78161   3.626   2.365  -0.295 -0.1919 -0.7217  0.1521
  593MOL0     C78162   3.646   2.382  -0.166  0.3668  0.3109 -0.7756
  593MOL0     C78163   3.636   2.514  -0.134  0.0687  0.6281 -0.5134
  593MOL0     C78164   3.645   2.560   0.018  0.2819  0.1097  1.4004
  593MOL0     C78165   3.562   2.481   0.123  0.2368 -0.9153 -0.5823
  593MOL0     C78166   3.591   2.530   0.263  0.2299  0.8945  0.2861
  593MOL0     C78167   3.537   2.432   0.366 -0.2545  0.4000  0.8228
  593MOL0     O78168   3.389   2.428   0.350 -0.5170  0.4591  0.1755
  593MOL0     C78169   3.314   2.484   0.447 -0.6936 -0.6730 -0.7206
  593MOL0     C78170   3.184   2.431   0.465 -0.4038  0.5573 -0.0035
  593MOL0     C78171   3.089   2.478   0.552 -0.0226 -0.1205 -0.1827
  593MOL0     C78172   3.112   2.594   0.628 -0.2881  0.2868 -0.2182
  593MOL0     C78173   3.001   2.665   0.698 -0.4890  0.5474 -0.5950
  593MOL0     O78174   2.885   2.668   0.632  0.1820 -0.6858  0.5907
  593MOL0     C78175   2.777   2.729   0.676  0.2673 -0.1376 -0.2072
  593MOL0     C78176   2.767   2.831   0.770 -0.1062 -0.2458  0.2840
  593MOL0     C78177   2.649   2.888   0.819 -0.1744  1.1590 -0.2723
  593MOL0     C78178   2.529   2.832   0.770 -0.1549  0.4629  0.1021
  593MOL0     O78179   2.398   2.877   0.806 -1.1889 -0.2095  0.6026
  593MOL0     C78180   2.376   3.016   0.836  0.1844  0.2213 -0.0022
  593MOL0     C78181   2.345   3.094   0.702 -0.2993  0.7815 -0.0812
  593MOL0     C78182   2.336   3.237   0.729 -1.0176 -0.1888 -0.2500
  593MOL0     C78183   2.222   3.282   0.829  0.5780  0.3026  0.1598
  593MOL0     C78184   2.089   3.210   0.826 -0.2252  0.5727 -0.1857
  593MOL0     C78185   1.988   3.276   0.919  0.2293  0.6705  0.2551
  593MOL0     C78186   1.837   3.217   0.892 -0.4755  0.9201  0.2144
  593MOL0     C78187   1.718   3.272   0.966  1.2810 -0.5260  0.2544
  593MOL0    Cl78188   1.689   3.186   1.121  0.3540 -0.3154  0.0911
  593MOL0     C78189   2.536   2.730   0.675 -0.2122  0.3701  0.0549
  593MOL0     C78190   2.655   2.678   0.627  0.2239  0.7946 -0.4859
  593MOL0     O78191   3.018   2.693   0.817 -0.5238 -0.3770  0.0095
  593MOL0     C78192   3.241   2.646   0.621 -0.0537 -0.1092  0.2180
  593MOL0     C78193   3.338   2.601   0.530 -0.0832  0.3376 -0.5747
  593MOL0     N78194   3.604   2.586  -0.253 -0.0414  0.0940 -0.5251
  593MOL0     N78195   3.604   2.491  -0.345  0.6806 -0.1821 -0.4175
  593MOL0     C78196   4.326   1.685  -0.409 -0.0914  0.3293 -0.3427
  593MOL0     C78197   4.455   1.639  -0.368  0.5415  0.0473 -0.1286
  593MOL0     C78198   4.818   1.585  -0.078 -0.0093 -0.1806 -0.3875
  593MOL0     C78199   4.909   1.605  -0.185  0.1107 -0.1628  0.3207
  593MOL0     C78200   5.044   1.567  -0.174  0.4807 -0.0533 -0.3079
  593MOL0     C78201   5.090   1.508  -0.056 -0.4754  0.5345  0.3882
  593MOL0     O78202   5.214   1.467  -0.023 -1.4428 -0.6175  0.5474
  593MOL0     C78203   5.320   1.480  -0.117  0.5115  0.1739  0.0323
  593MOL0     C78204   5.459   1.470  -0.049 -0.4983  0.8542  0.5181
  593MOL0     C78205   5.495   1.600   0.020  0.0315 -0.0180  0.0413
  593MOL0     C78206   5.385   1.631   0.127 -0.3864  0.2109 -0.0620
  593MOL0     C78207   5.433   1.733   0.216 -0.2147 -0.6611 -0.6953
  593MOL0     C78208   5.492   1.816   0.287  0.1222 -0.3383  0.3231
  593MOL0     C78209   5.001   1.484   0.040 -0.4694  0.3846 -0.0296
  593MOL0     C78210   4.869   1.520   0.035 -0.9870 -0.2741  0.6700
  593MOL0     H78211   4.455   1.792  -0.061  2.5639  2.8912 -1.8197
  593MOL0     H78212   4.219   1.849  -0.137  1.1928  1.4640 -0.9592
  593MOL0     H78213   4.036   1.702  -0.494 -2.2601  1.3752 -1.5127
  593MOL0     H78214   4.145   1.830  -0.549  2.1595 -1.9264 -0.0023
  593MOL0     H78215   3.977   2.003  -0.462 -0.7639  1.4606 -2.1999
  593MOL0     H78216   3.888   1.869  -0.401 -1.4322 -0.2910 -0.7799
  593MOL0     H78217   3.822   1.800  -0.631  0.5171 -0.3187 -0.9714
  593MOL0     H78218   3.948   1.904  -0.711 -0.4379  0.0039 -0.6754
  593MOL0     H78219   3.800   2.112  -0.619 -3.0158 -0.2056 -1.6583
  593MOL0     H78220   3.722   2.005  -0.722 -2.1583 -2.9562  0.9165
  593MOL0     H78221   3.716   1.995  -0.419 -0.2904 -1.4556  0.8206
  593MOL0     H78222   3.638   1.875  -0.528 -0.1751  1.2671 -0.7205
  593MOL0     H78223   3.484   2.025  -0.447  0.9894 -2.5746  0.4774
  593MOL0     H78224   3.512   2.053  -0.628  2.2684 -3.1730 -0.0674
  593MOL0     H78225   3.635   2.263  -0.580  1.8367 -1.6487  0.0805
  593MOL0     H78226   3.490   2.280  -0.483 -0.1645 -0.3669  1.6349
  593MOL0     H78227   3.758   2.214  -0.398 -0.7454 -2.3810 -2.2454
  593MOL0     H78228   3.620   2.152  -0.311 -0.0582  1.3610  2.0525
  593MOL0     H78229   3.664   2.301  -0.096 -0.0210 -0.4832 -1.5719
  593MOL0     H78230   3.603   2.661   0.014  0.4058  0.1569  1.2968
  593MOL0     H78231   3.749   2.573   0.047  0.1591  3.6415  0.7967
  593MOL0     H78232   3.590   2.376   0.112  1.9181 -0.6437  0.6307
  593MOL0     H78233   3.459   2.495   0.092  0.0605  1.4425  0.8063
  593MOL0     H78234   3.700   2.541   0.271  0.2262  1.1952 -0.0526
  593MOL0     H78235   3.549   2.629   0.280  0.3093  1.1609 -0.9621
  593MOL0     H78236   3.565   2.463   0.467  0.8932  0.5457  0.4727
  593MOL0     H78237   3.589   2.337   0.347  0.5616  0.5740  2.0588
  593MOL0     H78238   3.143   2.358   0.395  2.6816  1.4143 -3.0153
  593MOL0     H78239   2.991   2.431   0.554 -0.0466 -0.1897 -1.5779
  593MOL0     H78240   2.856   2.871   0.816 -0.0978 -1.4326  1.3457
  593MOL0     H78241   2.669   2.965   0.892 -0.2615  1.1169 -0.2049
  593MOL0     H78242   2.468   3.048   0.884  0.6158 -3.1453  1.7128
  593MOL0     H78243   2.291   3.020   0.905  0.8253  1.6957  0.7501
  593MOL0     H78244   2.249   3.070   0.657 -0.1862  3.1119 -1.7782
  593MOL0     H78245   2.424   3.074   0.629  2.0096  0.1947  2.3740
  593MOL0     H78246   2.328   3.289   0.634 -1.6908 -0.7967 -0.5445
  593MOL0     H78247   2.434   3.257   0.773 -1.6911  1.8178  0.4503
  593MOL0     H78248   2.260   3.290   0.931  0.0775  1.4488  0.2673
  593MOL0     H78249   2.196   3.381   0.791 -1.2134 -1.3147 -3.3578
  593MOL0     H78250   2.102   3.105   0.854 -0.4260  0.5310 -0.2467
  593MOL0     H78251   2.045   3.221   0.726 -1.5747 -0.6053  0.2495
  593MOL0     H78252   1.989   3.381   0.890 -1.4532  1.5075  2.8334
  593MOL0     H78253   2.015   3.261   1.024  0.0812 -1.5446  0.0171
  593MOL0     H78254   1.815   3.215   0.785  0.2261 -2.6502  0.0183
  593MOL0     H78255   1.850   3.111   0.912 -2.3560  0.3074 -1.5166
  593MOL0     H78256   1.625   3.258   0.910  0.2955  2.3074  0.9863
  593MOL0     H78257   1.726   3.380   0.986 -0.7897 -0.5878  1.8480
  593MOL0     H78258   2.446   2.684   0.636 -0.0011 -0.5897  0.6693
  593MOL0     H78259   2.650   2.599   0.552  0.2181 -0.0125  0.3552
  593MOL0     H78260   3.263   2.727   0.689  2.3028  0.3909 -1.0309
  593MOL0     H78261   3.432   2.654   0.526 -1.1143  2.2995  0.0679
  593MOL0     H78262   4.292   1.649  -0.505 -0.9173 -2.8998  1.0178
  593MOL0     H78263   4.513   1.571  -0.430 -1.5482 -0.6911 -1.3488
  593MOL0     H78264   4.882   1.649  -0.281 -2.3085 -0.2480  0.9003
  593MOL0     H78265   5.112   1.583  -0.257  0.4605  0.6552 -0.1925
  593MOL0     H78266   5.302   1.581  -0.157 -3.1481 -0.4934 -0.4161
  593MOL0     H78267   5.306   1.409  -0.199 -1.3214  1.2665 -0.6926
  593MOL0     H78268   5.466   1.390   0.025  3.4929 -0.0562 -0.6155
  593MOL0     H78269   5.531   1.451  -0.128 -3.5390  0.1222 -2.3173
  593MOL0     H78270   5.484   1.684  -0.048 -0.0073  0.9044  1.1556
  593MOL0     H78271   5.597   1.599   0.060 -0.0876 -1.6333  0.3761
  593MOL0     H78272   5.297   1.668   0.074 -0.7451 -3.4836 -2.3998
  593MOL0     H78273   5.371   1.539   0.185  2.3427 -1.7652 -2.2364
  593MOL0     H78274   5.565   1.871   0.343  0.3483  0.8559 -1.0854
  593MOL0     H78275   5.040   1.454   0.137 -1.1764  0.7595  0.3804
  593MOL0     H78276   4.810   1.506   0.125  0.5403  1.0131  1.9555
  594MOL0     O78277   0.478   7.488   9.431  0.2723 -0.5970 -0.2128
  594MOL0     C78278   0.545   7.491   9.324 -0.1726 -0.6187  0.7335
  594MOL0     O78279   0.485   7.526   9.204 -0.0830  0.0370 -0.1411
  594MOL0     C78280   0.351   7.556   9.214 -0.2702 -0.1275  0.2099
  594MOL0     C78281   0.306   7.671   9.286  0.9686  0.1626  0.6079
  594MOL0     C78282   0.167   7.690   9.289 -0.4551 -0.2059  0.2173
  594MOL0     C78283   0.073   7.602   9.211 -0.1642 -0.5551 -0.0309
  594MOL0     O78284  -0.061   7.615   9.200  0.4841 -0.2910  0.1403
  594MOL0     C78285  -0.123   7.672   9.310  0.3334  0.4543 -0.7669
  594MOL0     C78286  -0.278   7.638   9.314 -0.7974  0.0437  0.2093
  594MOL0     C78287  -0.359   7.713   9.210 -0.0923  0.6072 -0.2496
  594MOL0     C78288  -0.517   7.686   9.220 -0.1592  0.4758 -0.7171
  594MOL0     C78289  -0.604   7.760   9.111  0.2475  0.6649  0.4737
  594MOL0     C78290  -0.756   7.735   9.125 -0.7910  0.6189  0.0009
  594MOL0     C78291  -0.800   7.640   9.014 -0.1171  0.1731  0.3055
  594MOL0     C78292  -0.958   7.622   9.013 -0.8158  1.0460  0.3232
  594MOL0     N78293  -1.045   7.737   9.013  0.3218 -0.3694 -0.4222
  594MOL0     C78294  -1.074   7.817   8.909  0.0240  0.3972 -0.9429
  594MOL0     C78295  -1.167   7.902   8.956 -0.0882  0.2563 -0.7065
  594MOL0     C78296  -1.228   8.007   8.866  0.3675  0.5871 -0.1051
  594MOL0     C78297  -1.362   7.953   8.816  0.1261  1.4267 -0.7178
  594MOL0     C78298  -1.457   7.918   8.930 -0.3741 -0.0724  0.1514
  594MOL0     C78299  -1.611   7.902   8.884 -0.3456 -0.1203 -0.0058
  594MOL0     O78300  -1.636   7.793   8.792 -0.3651  0.0330  0.3592
  594MOL0     C78301  -1.765   7.760   8.785  0.4312  0.5631 -0.3126
  594MOL0     C78302  -1.809   7.639   8.847 -0.3886  0.8113 -0.0895
  594MOL0     C78303  -1.939   7.591   8.844 -0.7540 -0.0162 -0.8432
  594MOL0     C78304  -2.034   7.675   8.796  0.2754  0.0061 -0.9326
  594MOL0     C78305  -2.178   7.645   8.792  0.5350 -0.6967  0.1041
  594MOL0     O78306  -2.223   7.559   8.885  0.5612  0.4230  0.4747
  594MOL0     C78307  -2.358   7.514   8.905  0.1250 -1.3906  0.4512
  594MOL0     C78308  -2.475   7.593   8.911 -0.3840 -0.1282  0.0080
  594MOL0     C78309  -2.595   7.540   8.948 -0.1216 -0.3351 -0.4629
  594MOL0     C78310  -2.611   7.402   8.965  0.2469 -0.4527 -0.3388
  594MOL0     O78311  -2.736   7.349   8.994  0.0965  0.2180  0.2161
  594MOL0     C78312  -2.776   7.217   8.941 -0.2624 -0.1495 -0.8032
  594MOL0     C78313  -2.911   7.172   8.997  0.2206  0.0993 -0.1644
  594MOL0     C78314  -3.029   7.217   8.911 -0.1065  0.5149 -0.5690
  594MOL0     C78315  -3.174   7.170   8.957 -0.1494  0.4325 -0.8274
  594MOL0     C78316  -3.283   7.259   8.905 -0.0266 -1.1161 -0.3632
  594MOL0     C78317  -3.303   7.379   9.004  0.3400  0.3366  0.2753
  594MOL0     C78318  -3.409   7.471   8.954 -0.1304 -0.2856  0.5678
  594MOL0     C78319  -3.437   7.588   9.052 -0.4902  0.1348  0.0772
  594MOL0    Cl78320  -3.524   7.730   8.984  0.0888  0.0913  0.2550
  594MOL0     C78321  -2.498   7.323   8.947  0.4070  0.5789  0.3628
  594MOL0     C78322  -2.375   7.376   8.923 -0.0429 -0.3853 -0.0139
  594MOL0     O78323  -2.248   7.698   8.705 -0.4375  0.8076 -0.0483
  594MOL0     C78324  -2.003   7.803   8.745 -0.2985 -0.8753  0.3335
  594MOL0     C78325  -1.866   7.846   8.739  0.4177 -0.5866  0.1876
  594MOL0     N78326  -1.196   7.864   9.086  0.3669  0.1885 -0.0412
  594MOL0     N78327  -1.120   7.763   9.121  0.3878 -0.1564 -0.6931
  594MOL0     C78328   0.134   7.490   9.152  0.3341 -0.3442  1.5931
  594MOL0     C78329   0.273   7.471   9.145  0.1996  0.5597  0.4820
  594MOL0     C78330   0.687   7.449   9.317 -0.5317 -0.0807 -0.3996
  594MOL0     C78331   0.749   7.420   9.189  0.5498  1.1145  0.2883
  594MOL0     C78332   0.878   7.371   9.185 -1.0513  0.0025 -0.5159
  594MOL0     C78333   0.948   7.343   9.306  0.5059  0.5921  0.1467
  594MOL0     O78334   1.078   7.285   9.312 -0.1391  0.5878 -0.2394
  594MOL0     C78335   1.133   7.235   9.193  0.3456  0.0883  1.2516
  594MOL0     C78336   1.278   7.197   9.227  0.8264 -0.0443  0.6900
  594MOL0     C78337   1.285   7.085   9.332  0.8263 -0.1627  0.9876
  594MOL0     C78338   1.404   6.992   9.310 -0.0155 -0.7977 -0.5943
  594MOL0     C78339   1.380   6.864   9.360  0.4198 -1.1912  0.2257
  594MOL0     C78340   1.348   6.752   9.391 -0.5645  0.5083 -0.4675
  594MOL0     C78341   0.887   7.375   9.430  0.4330 -0.3802  0.5648
  594MOL0     C78342   0.758   7.426   9.440  0.1510  0.2786  0.1398
  594MOL0     H78343   0.368   7.743   9.338 -1.1043  1.9875  0.7174
  594MOL0     H78344   0.127   7.782   9.332 -1.1242  0.5384 -1.8549
  594MOL0     H78345  -0.111   7.781   9.319  0.4263  0.2845  1.6836
  594MOL0     H78346  -0.075   7.620   9.393 -0.8603  1.2705  0.4763
  594MOL0     H78347  -0.308   7.659   9.417  0.5568  3.6182  0.0202
  594MOL0     H78348  -0.288   7.530   9.296 -1.3256 -0.1023  1.3136
  594MOL0     H78349  -0.315   7.685   9.114  1.0421  0.3268  0.3350
  594MOL0     H78350  -0.339   7.820   9.224 -1.2649  0.9993 -1.4272
  594MOL0     H78351  -0.542   7.580   9.219  0.6473  0.2386 -3.2213
  594MOL0     H78352  -0.535   7.724   9.321 -1.6168 -0.4836 -0.5892
  594MOL0     H78353  -0.573   7.722   9.013  0.9173 -0.2850  1.0377
  594MOL0     H78354  -0.579   7.867   9.118  1.0052  0.4627  0.9547
  594MOL0     H78355  -0.812   7.829   9.122 -1.8736 -0.0407 -1.6021
  594MOL0     H78356  -0.761   7.690   9.225 -3.6038 -0.5096 -0.5489
  594MOL0     H78357  -0.784   7.687   8.917 -1.9676  2.8221  1.1636
  594MOL0     H78358  -0.754   7.540   9.019 -3.2862 -1.5965 -2.0678
  594MOL0     H78359  -0.982   7.573   9.108  3.8334  1.0508  1.7469
  594MOL0     H78360  -0.976   7.551   8.932  0.8735  0.9909 -0.0446
  594MOL0     H78361  -1.048   7.799   8.805 -0.4023  0.6753 -1.1038
  594MOL0     H78362  -1.162   8.031   8.781 -0.2858 -0.0597 -0.8113
  594MOL0     H78363  -1.258   8.095   8.923 -2.1411 -0.5616  0.4691
  594MOL0     H78364  -1.343   7.858   8.766  0.6191 -0.5004  2.8091
  594MOL0     H78365  -1.418   8.029   8.760 -1.5645  1.9424  1.5290
  594MOL0     H78366  -1.436   7.823   8.980 -0.5978 -2.3485 -3.7515
  594MOL0     H78367  -1.454   7.999   9.004 -0.3661 -0.9601  1.1564
  594MOL0     H78368  -1.630   7.994   8.829 -2.6018  0.0923  1.0153
  594MOL0     H78369  -1.677   7.897   8.970  0.7561  5.1605  1.4908
  594MOL0     H78370  -1.732   7.569   8.879  0.6497  1.1913 -1.6392
  594MOL0     H78371  -1.967   7.500   8.896  0.2106  1.1811  1.9853
  594MOL0     H78372  -2.457   7.698   8.892 -0.1426 -0.1708 -0.0067
  594MOL0     H78373  -2.684   7.602   8.954  3.4319  6.0457 -3.2221
  594MOL0     H78374  -2.698   7.142   8.955 -0.8955 -0.6585  0.0731
  594MOL0     H78375  -2.793   7.228   8.833 -1.6823 -2.7653 -0.9154
  594MOL0     H78376  -2.933   7.216   9.094  0.2593  5.5357 -2.2602
  594MOL0     H78377  -2.915   7.064   9.011  0.7521  0.3447  2.3158
  594MOL0     H78378  -3.014   7.200   8.804  0.9775  0.8134 -0.4752
  594MOL0     H78379  -3.026   7.325   8.932 -2.8933  0.2830  1.5634
  594MOL0     H78380  -3.190   7.071   8.914  1.2892 -0.4003  0.4440
  594MOL0     H78381  -3.182   7.161   9.066 -1.4443  1.6612 -0.7923
  594MOL0     H78382  -3.376   7.202   8.899 -0.3061 -0.6681 -0.3756
  594MOL0     H78383  -3.263   7.286   8.801 -2.0455  1.0276 -0.2749
  594MOL0     H78384  -3.213   7.440   9.011  0.0742  0.5870  1.6947
  594MOL0     H78385  -3.340   7.339   9.099 -1.8644 -1.7576 -1.3543
  594MOL0     H78386  -3.382   7.511   8.856  0.3452 -0.1871  0.7358
  594MOL0     H78387  -3.508   7.424   8.949 -0.9606  1.3659  0.8519
  594MOL0     H78388  -3.341   7.629   9.083 -1.0218 -0.2090  2.2938
  594MOL0     H78389  -3.496   7.559   9.140 -1.7362  1.1040 -0.4055
  594MOL0     H78390  -2.492   7.216   8.964 -2.1630  0.3437  0.1100
  594MOL0     H78391  -2.286   7.317   8.900 -0.6546 -1.4474  0.2990
  594MOL0     H78392  -2.078   7.877   8.719  0.1102 -0.8346 -0.8175
  594MOL0     H78393  -1.835   7.940   8.695 -0.6397 -0.6153 -0.6706
  594MOL0     H78394   0.079   7.421   9.089 -0.4202  0.2844  1.5495
  594MOL0     H78395   0.324   7.394   9.087  1.2294  1.1297  0.6100
  594MOL0     H78396   0.692   7.430   9.097  3.8426  1.0708 -1.9157
  594MOL0     H78397   0.926   7.344   9.091  2.8328 -1.0748  1.5286
  594MOL0     H78398   1.132   7.301   9.105  0.8794  0.2761  1.3769
  594MOL0     H78399   1.082   7.145   9.160  3.2518 -0.8120 -1.2635
  594MOL0     H78400   1.331   7.176   9.134  0.9036 -1.9119  1.1142
  594MOL0     H78401   1.327   7.284   9.273 -1.3553  1.1664  0.8710
  594MOL0     H78402   1.200   7.017   9.318  0.6183 -0.3565  2.9460
  594MOL0     H78403   1.278   7.133   9.430  0.9580  0.9464  0.4707
  594MOL0     H78404   1.437   6.991   9.205  2.1482 -0.0390  0.0244
  594MOL0     H78405   1.482   7.039   9.371  0.8394 -1.8425 -0.8386
  594MOL0     H78406   1.325   6.648   9.404  1.6263  0.2019  1.5317
  594MOL0     H78407   0.941   7.350   9.521  0.8773  0.6368  0.5970
  594MOL0     H78408   0.711   7.435   9.537  1.8166 -3.1695  1.4688
  595MOL0     O78409   7.441   4.629   9.735 -0.3773  0.2507 -0.9949
  595MOL0     C78410   7.478   4.574   9.631 -0.2495 -0.6913 -0.4978
  595MOL0     O78411   7.398   4.507   9.549  0.6233  1.0525 -0.3646
  595MOL0     C78412   7.268   4.482   9.595  1.0053  0.1640 -0.5580
  595MOL0     C78413   7.227   4.353   9.641 -0.5862  0.0832  0.3412
  595MOL0     C78414   7.094   4.326   9.674  0.2723 -0.0772 -0.3138
  595MOL0     C78415   7.004   4.430   9.682 -0.4172 -0.0635  0.2338
  595MOL0     O78416   6.874   4.407   9.727  0.3099 -0.2436 -0.3607
  595MOL0     C78417   6.853   4.320   9.839 -0.6400 -0.0558  0.2671
  595MOL0     C78418   6.703   4.298   9.857  0.6157  0.2975 -0.2553
  595MOL0     C78419   6.633   4.415   9.915 -0.1427 -0.9233 -0.0910
  595MOL0     C78420   6.484   4.379   9.913  0.5092  0.1976  0.1624
  595MOL0     C78421   6.402   4.505   9.955  0.2527  0.3817  0.3565
  595MOL0     C78422   6.251   4.482   9.937 -0.7229 -0.0242  0.3814
  595MOL0     C78423   6.177   4.606   9.980  0.5893 -0.2781 -0.9033
  595MOL0     C78424   6.027   4.604   9.977 -0.2461 -0.1607  0.0029
  595MOL0     N78425   5.969   4.694  10.085  0.1027 -0.2428  1.2049
  595MOL0     C78426   5.969   4.680  10.221  0.1465 -0.4457 -0.5273
  595MOL0     C78427   5.915   4.793  10.269 -0.0272 -0.0779  0.3434
  595MOL0     C78428   5.867   4.827  10.403 -0.6403 -0.7513 -0.6478
  595MOL0     C78429   5.724   4.797  10.405  0.9526 -0.5092 -0.3516
  595MOL0     C78430   5.655   4.836  10.543  0.2166 -0.1001  1.4063
  595MOL0     C78431   5.519   4.778  10.579 -0.5687 -0.2113 -0.1718
  595MOL0     O78432   5.433   4.791  10.467 -0.3065 -0.3518 -0.4243
  595MOL0     C78433   5.298   4.765  10.478 -0.8886  0.7895  0.1566
  595MOL0     C78434   5.242   4.716  10.593 -0.3479  0.1185 -0.2296
  595MOL0     C78435   5.103   4.700  10.599  0.6264  0.1290 -0.5623
  595MOL0     C78436   5.025   4.713  10.479 -0.7798  0.0651 -0.4376
  595MOL0     C78437   4.880   4.696  10.477  1.2383 -0.3745  0.1485
  595MOL0     O78438   4.807   4.787  10.407 -0.1438 -0.3857  0.1053
  595MOL0     C78439   4.669   4.771  10.421  0.2035 -0.2153  0.4705
  595MOL0     C78440   4.601   4.870  10.488 -0.1654 -0.6347 -0.6552
  595MOL0     C78441   4.455   4.866  10.506  0.2972  0.1747  0.9200
  595MOL0     C78442   4.384   4.761  10.452  0.3875  0.6002 -0.3370
  595MOL0     O78443   4.244   4.754  10.470 -0.0534  0.0414  0.0029
  595MOL0     C78444   4.180   4.868  10.532  0.3455 -0.5851  0.1306
  595MOL0     C78445   4.037   4.837  10.572 -0.4340 -0.6069 -0.1843
  595MOL0     C78446   3.964   4.747  10.469 -0.3530 -0.8139 -0.0404
  595MOL0     C78447   3.820   4.746  10.510 -0.1045 -0.2479 -0.7752
  595MOL0     C78448   3.741   4.651  10.410  0.5848  0.1019 -0.4556
  595MOL0     C78449   3.589   4.667  10.408  0.0618  0.7038  0.7742
  595MOL0     C78450   3.508   4.636  10.542 -0.3969  0.0368 -1.1674
  595MOL0     C78451   3.356   4.645  10.530  0.5646 -0.4148  0.1978
  595MOL0    Cl78452   3.299   4.530  10.396  0.0834 -0.2423  0.6808
  595MOL0     C78453   4.454   4.660  10.379  0.6303  0.4784 -0.7584
  595MOL0     C78454   4.593   4.668  10.365  0.0277 -1.0724  0.0926
  595MOL0     O78455   4.831   4.594  10.528 -0.3432 -0.3271  0.2189
  595MOL0     C78456   5.085   4.760  10.362 -0.4096  0.3211 -0.6523
  595MOL0     C78457   5.220   4.792  10.367  0.2419  0.0092 -0.6372
  595MOL0     N78458   5.899   4.889  10.167 -0.1258  0.1267  0.3980
  595MOL0     N78459   5.937   4.825  10.059 -0.4715  0.5256 -0.0367
  595MOL0     C78460   7.041   4.552   9.636  0.5639 -0.3192  1.1149
  595MOL0     C78461   7.172   4.578   9.606 -0.1321 -0.2068  0.2420
  595MOL0     C78462   7.629   4.578   9.608 -0.4099 -0.1962  0.6534
  595MOL0     C78463   7.718   4.673   9.665  0.3143  0.9361 -0.3012
  595MOL0     C78464   7.854   4.674   9.636  0.1041 -0.1370 -0.3635
  595MOL0     C78465   7.914   4.581   9.552 -0.3060 -0.4304  0.5355
  595MOL0     O78466   8.051   4.570   9.526  0.0917 -0.3932  0.3822
  595MOL0     C78467   8.155   4.635   9.598  0.1950 -0.0129 -0.5092
  595MOL0     C78468   8.284   4.613   9.522 -0.3074 -0.7915  0.3206
  595MOL0     C78469   8.293   4.671   9.375 -0.0926 -0.0473  0.3959
  595MOL0     C78470   8.425   4.627   9.318 -0.3391 -0.1437 -0.1862
  595MOL0     C78471   8.543   4.716   9.340 -0.1060  0.4879  0.3973
  595MOL0     C78472   8.632   4.794   9.364 -0.0635  0.5309 -0.4617
  595MOL0     C78473   7.826   4.475   9.508  0.3422  0.5887  0.5521
  595MOL0     C78474   7.685   4.476   9.522 -0.2920 -0.2853  0.0517
  595MOL0     H78475   7.300   4.275   9.622  1.1147  2.0528 -1.7603
  595MOL0     H78476   7.062   4.227   9.704  1.5413 -0.5231 -0.3679
  595MOL0     H78477   6.892   4.357   9.934 -2.7327  1.1883  0.7264
  595MOL0     H78478   6.889   4.218   9.827 -1.3243 -0.1817 -0.9231
  595MOL0     H78479   6.700   4.207   9.917 -0.4094  0.4090 -0.1330
  595MOL0     H78480   6.665   4.268   9.759 -1.1491  0.0457  0.4760
  595MOL0     H78481   6.667   4.493   9.846 -1.6715 -2.6190 -2.9683
  595MOL0     H78482   6.670   4.446  10.014 -0.7695  1.9677 -0.6475
  595MOL0     H78483   6.451   4.335   9.818 -0.0332 -0.6758  0.7340
  595MOL0     H78484   6.480   4.291   9.979 -0.6703 -1.1336 -1.5708
  595MOL0     H78485   6.441   4.593   9.902  0.7283  0.1424  0.3023
  595MOL0     H78486   6.432   4.520  10.059  1.8092 -1.4344  0.2207
  595MOL0     H78487   6.221   4.402  10.006  2.2892 -1.0556  0.6570
  595MOL0     H78488   6.222   4.455   9.836  1.2667 -1.3508  0.0975
  595MOL0     H78489   6.219   4.631  10.077  0.9313 -0.3831 -1.0219
  595MOL0     H78490   6.198   4.690   9.913  1.4851  1.4945  1.4498
  595MOL0     H78491   5.988   4.502   9.986 -3.1384  0.9921  2.2112
  595MOL0     H78492   5.999   4.650   9.882 -2.1534 -1.5759 -0.1948
  595MOL0     H78493   5.980   4.595  10.289 -3.0231  0.9779  2.0311
  595MOL0     H78494   5.879   4.933  10.428  4.7533 -1.4175  0.6977
  595MOL0     H78495   5.919   4.772  10.482  0.2472  0.7053 -0.1960
  595MOL0     H78496   5.711   4.688  10.397 -2.3765 -0.1747 -0.9520
  595MOL0     H78497   5.669   4.840  10.320 -1.1876  0.5228  1.4405
  595MOL0     H78498   5.720   4.801  10.624  0.0459 -1.8339  0.8254
  595MOL0     H78499   5.653   4.944  10.560  1.6582  0.1147  0.3654
  595MOL0     H78500   5.482   4.825  10.671 -1.2512 -3.0778  1.1107
  595MOL0     H78501   5.534   4.672  10.601  1.2553  0.4486  2.1559
  595MOL0     H78502   5.297   4.705  10.686 -0.2077  0.6458 -0.2500
  595MOL0     H78503   5.057   4.685  10.696  0.9490  0.5181 -0.3445
  595MOL0     H78504   4.652   4.956  10.529 -2.9058  0.8129 -0.0121
  595MOL0     H78505   4.414   4.950  10.561  1.2017  0.6901  0.8236
  595MOL0     H78506   4.163   4.953  10.465 -2.2603 -0.0492  1.3346
  595MOL0     H78507   4.231   4.901  10.623  0.3847 -2.0612  0.6626
  595MOL0     H78508   3.994   4.936  10.586  0.6807 -0.0248 -0.8173
  595MOL0     H78509   4.038   4.785  10.669  0.2399 -1.3956 -0.6047
  595MOL0     H78510   4.004   4.646  10.458 -0.9019 -1.3400  2.2662
  595MOL0     H78511   3.964   4.806  10.377 -2.4027  3.6840  2.4996
  595MOL0     H78512   3.790   4.717  10.611 -1.2923 -0.7669 -1.2561
  595MOL0     H78513   3.780   4.845  10.487  1.3579  0.2527 -1.2531
  595MOL0     H78514   3.776   4.551  10.436  0.9570  0.1707 -0.6826
  595MOL0     H78515   3.777   4.676  10.310  0.6290  0.8935 -0.2523
  595MOL0     H78516   3.547   4.600  10.333  1.8924  2.3900 -1.9351
  595MOL0     H78517   3.556   4.765  10.372 -2.3014 -1.0185 -2.1571
  595MOL0     H78518   3.532   4.537  10.582  1.6956  0.5367 -1.0556
  595MOL0     H78519   3.537   4.707  10.620 -0.5870  0.5435 -1.5546
  595MOL0     H78520   3.331   4.750  10.515 -2.5234 -1.5394 -5.7053
  595MOL0     H78521   3.309   4.612  10.624  1.6108 -1.1247  0.4834
  595MOL0     H78522   4.392   4.578  10.343 -1.2908  1.5865 -0.1284
  595MOL0     H78523   4.644   4.590  10.309  1.1097 -0.1025 -0.3143
  595MOL0     H78524   5.018   4.779  10.279  0.0619  2.2152 -0.6472
  595MOL0     H78525   5.274   4.829  10.281 -1.0152  0.1599 -1.3918
  595MOL0     H78526   6.961   4.624   9.624  1.4253  0.4419 -0.4569
  595MOL0     H78527   7.194   4.680   9.576 -1.7251 -0.2552 -1.2564
  595MOL0     H78528   7.677   4.744   9.736  0.6369 -1.3333  2.3459
  595MOL0     H78529   7.908   4.740   9.702  0.6794 -3.0077  2.2886
  595MOL0     H78530   8.157   4.596   9.700  1.2313  2.9156  0.6880
  595MOL0     H78531   8.128   4.740   9.609  1.9303  0.4363 -0.3149
  595MOL0     H78532   8.370   4.658   9.573 -0.6080  0.2798 -0.0861
  595MOL0     H78533   8.307   4.506   9.531 -0.1521 -0.9671 -1.6884
  595MOL0     H78534   8.273   4.779   9.371  0.4681  0.0208 -1.6522
  595MOL0     H78535   8.209   4.632   9.316 -0.7388  1.7630  0.0434
  595MOL0     H78536   8.460   4.532   9.359 -1.0159  0.4897  2.0090
  595MOL0     H78537   8.417   4.614   9.210  1.9183  1.0006 -0.5413
  595MOL0     H78538   8.699   4.874   9.389 -0.2031  0.6458 -0.4559
  595MOL0     H78539   7.865   4.390   9.452  1.6674  1.2498  0.4190
  595MOL0     H78540   7.627   4.407   9.462  0.6723  1.1822 -2.7692
  596MOL0     O78541  10.532   0.777   5.815  0.9848 -0.1459  0.1472
  596MOL0     C78542  10.500   0.852   5.907 -0.0415  0.0975 -0.0826
  596MOL0     O78543  10.428   0.820   6.018  0.5713 -0.4045  0.0886
  596MOL0     C78544  10.371   0.697   6.024  0.6829  0.9724 -0.7661
  596MOL0     C78545  10.403   0.616   6.136 -0.4219  0.6152  0.0518
  596MOL0     C78546  10.326   0.501   6.156  0.3590  0.5315 -0.1347
  596MOL0     C78547  10.229   0.454   6.060  0.1460 -0.4722  0.1020
  596MOL0     O78548  10.176   0.322   6.074  0.0889  0.3746  0.2046
  596MOL0     C78549  10.096   0.274   5.962  0.0925 -0.0050 -0.8463
  596MOL0     C78550  10.052   0.124   5.980  0.1690  0.5967  0.9158
  596MOL0     C78551   9.908   0.111   6.043 -0.3692 -0.3279 -0.3045
  596MOL0     C78552   9.783   0.141   5.951 -0.7739 -0.0606 -0.0985
  596MOL0     C78553   9.650   0.118   6.042  0.0606  0.2405  0.1695
  596MOL0     C78554   9.536   0.061   5.952 -0.8786 -0.0050 -0.4062
  596MOL0     C78555   9.396   0.091   6.004 -0.3943  0.4728 -0.3500
  596MOL0     C78556   9.326  -0.042   6.048 -0.9839 -0.7617  0.6680
  596MOL0     N78557   9.210  -0.006   6.130 -0.1481  0.1575  0.6522
  596MOL0     C78558   9.083   0.014   6.077 -0.0581 -0.6231 -0.0603
  596MOL0     C78559   8.998   0.037   6.188 -0.3758  0.4787  0.2153
  596MOL0     C78560   8.856   0.073   6.185 -0.1116 -0.2720 -0.1592
  596MOL0     C78561   8.766  -0.043   6.136  0.7082 -0.4256  0.5646
  596MOL0     C78562   8.628   0.015   6.107  0.4383 -0.0874 -0.1882
  596MOL0     C78563   8.528  -0.083   6.048  0.3253  0.2600 -0.3755
  596MOL0     O78564   8.431  -0.007   5.968 -0.0337 -0.9504 -0.2219
  596MOL0     C78565   8.317  -0.067   5.917 -0.7194  0.1223 -0.4085
  596MOL0     C78566   8.242  -0.006   5.818  0.0478 -0.1077  0.3069
  596MOL0     C78567   8.129  -0.066   5.765 -0.1513 -0.7535 -0.2628
  596MOL0     C78568   8.072  -0.180   5.816  0.4171  0.9132  0.4108
  596MOL0     C78569   7.940  -0.228   5.771 -0.3343  0.4756  0.1684
  596MOL0     O78570   7.904  -0.354   5.812 -0.0946 -0.3617 -0.5292
  596MOL0     C78571   7.778  -0.392   5.762 -0.3186 -0.3414  0.0397
  596MOL0     C78572   7.767  -0.452   5.635  0.6737 -0.1992 -0.5473
  596MOL0     C78573   7.639  -0.474   5.579  0.1400  0.6620 -0.1152
  596MOL0     C78574   7.524  -0.457   5.647  0.8284 -0.4105  0.3101
  596MOL0     O78575   7.398  -0.487   5.595  0.4419  0.2139 -0.0240
  596MOL0     C78576   7.382  -0.537   5.465  0.3295  0.2236 -0.7972
  596MOL0     C78577   7.224  -0.535   5.454  0.0136 -0.1417 -1.2287
  596MOL0     C78578   7.175  -0.423   5.361 -0.4182 -0.9715 -0.1739
  596MOL0     C78579   7.193  -0.459   5.214 -0.2708 -0.2990  0.2856
  596MOL0     C78580   7.115  -0.369   5.122 -0.4754  0.8367 -0.7313
  596MOL0     C78581   7.127  -0.394   4.970  0.3869 -0.4007 -0.6233
  596MOL0     C78582   7.022  -0.323   4.887  0.0008  0.0011  0.2659
  596MOL0     C78583   7.039  -0.363   4.739 -0.5722 -0.2157  0.4133
  596MOL0    Cl78584   6.985  -0.534   4.724 -0.3880 -0.2183 -0.2981
  596MOL0     C78585   7.537  -0.422   5.786 -0.9174 -0.4007 -0.4582
  596MOL0     C78586   7.662  -0.376   5.835 -0.0948  0.1933 -0.0875
  596MOL0     O78587   7.889  -0.161   5.689  0.3969 -0.7230  0.7087
  596MOL0     C78588   8.151  -0.246   5.919 -0.4496 -0.4480  0.2853
  596MOL0     C78589   8.276  -0.192   5.965 -0.3524 -0.4028  0.5105
  596MOL0     N78590   9.077   0.011   6.302 -0.6044  0.6381 -1.1242
  596MOL0     N78591   9.198  -0.022   6.260  0.3116 -0.8860 -0.4340
  596MOL0     C78592  10.198   0.548   5.955 -0.3146  0.4500 -0.6894
  596MOL0     C78593  10.264   0.671   5.947 -0.1086 -0.0680  0.2201
  596MOL0     C78594  10.563   0.984   5.910  0.2936 -0.3258  0.3060
  596MOL0     C78595  10.545   1.074   6.020  0.1665  0.6737  0.5143
  596MOL0     C78596  10.611   1.197   6.018 -0.5152  0.1690 -0.0608
  596MOL0     C78597  10.691   1.236   5.912  0.1694  0.9017  0.3880
  596MOL0     O78598  10.762   1.357   5.905 -0.0015 -0.7088  0.1547
  596MOL0     C78599  10.730   1.462   6.001  0.4298 -0.2541 -0.5945
  596MOL0     C78600  10.830   1.453   6.123 -0.1642  0.3086  0.6128
  596MOL0     C78601  10.982   1.469   6.088 -0.1574 -0.7765  0.1114
  596MOL0     C78602  11.021   1.620   6.114  0.9798  0.2205 -0.7305
  596MOL0     C78603  11.141   1.668   6.044  0.6075  0.7135 -0.4933
  596MOL0     C78604  11.237   1.703   5.987  0.4468 -0.1651  1.1616
  596MOL0     C78605  10.701   1.160   5.798 -0.2931 -0.0930 -0.1424
  596MOL0     C78606  10.624   1.036   5.789 -1.1767  0.4493  0.4319
  596MOL0     H78607  10.472   0.649   6.212 -1.9145  1.4182  1.1080
  596MOL0     H78608  10.342   0.436   6.241 -0.3944 -1.3081 -1.3274
  596MOL0     H78609  10.148   0.283   5.866  2.9192 -1.3717  0.4475
  596MOL0     H78610  10.008   0.338   5.958  1.8067  2.7757  2.0265
  596MOL0     H78611  10.130   0.087   6.047  0.3295  1.4543  1.2186
  596MOL0     H78612  10.055   0.076   5.882  0.0344  1.2375  0.5916
  596MOL0     H78613   9.895   0.178   6.129 -3.1065  1.3180 -1.8198
  596MOL0     H78614   9.899   0.008   6.079  0.5821 -0.1223  0.5614
  596MOL0     H78615   9.775   0.242   5.912 -1.0026 -0.4098 -0.9735
  596MOL0     H78616   9.791   0.072   5.866 -1.8379  2.2808 -2.2253
  596MOL0     H78617   9.622   0.216   6.080 -0.9573  0.5089 -1.2268
  596MOL0     H78618   9.659   0.045   6.123  1.4359 -0.0796 -0.2358
  596MOL0     H78619   9.560  -0.045   5.935  0.1422  0.0450  0.6206
  596MOL0     H78620   9.547   0.116   5.858 -0.6523  0.1728 -0.2745
  596MOL0     H78621   9.406   0.160   6.088  0.1151  0.8450 -0.7038
  596MOL0     H78622   9.343   0.142   5.922 -1.0048 -0.2280 -0.4026
  596MOL0     H78623   9.405  -0.094   6.103 -1.1943  0.1700  1.9187
  596MOL0     H78624   9.284  -0.091   5.960  0.4732 -0.5669 -0.1706
  596MOL0     H78625   9.056   0.003   5.972 -1.0029 -2.3930  0.3338
  596MOL0     H78626   8.847   0.162   6.121  0.7271  0.0930  0.2128
  596MOL0     H78627   8.822   0.107   6.283 -3.5726  3.6707 -2.4047
  596MOL0     H78628   8.761  -0.127   6.207  0.3010 -0.5386  0.4045
  596MOL0     H78629   8.807  -0.080   6.041 -2.8937 -0.9740 -0.9586
  596MOL0     H78630   8.582   0.053   6.198  0.8282 -1.9504  0.8405
  596MOL0     H78631   8.632   0.097   6.035  0.8197  0.4866  0.4814
  596MOL0     H78632   8.496  -0.146   6.132  3.8780 -2.8802 -1.0672
  596MOL0     H78633   8.577  -0.160   5.987 -1.3797 -1.5443  0.4475
  596MOL0     H78634   8.288   0.085   5.780  0.4756 -1.1503 -1.7954
  596MOL0     H78635   8.076  -0.015   5.685 -0.8268  2.6907  2.1915
  596MOL0     H78636   7.860  -0.460   5.578 -0.0283 -0.3090 -1.7175
  596MOL0     H78637   7.632  -0.504   5.475  1.1907 -0.1789  0.0421
  596MOL0     H78638   7.416  -0.640   5.459  1.9518  0.7752 -1.4418
  596MOL0     H78639   7.430  -0.486   5.381 -4.6704  2.2191 -2.8810
  596MOL0     H78640   7.188  -0.517   5.556  1.1058 -0.2409 -0.8091
  596MOL0     H78641   7.191  -0.636   5.429 -0.4746 -1.1552  2.7445
  596MOL0     H78642   7.234  -0.335   5.388  0.3837 -0.6710 -2.6857
  596MOL0     H78643   7.070  -0.400   5.386 -0.4113 -1.1618  0.0390
  596MOL0     H78644   7.297  -0.441   5.184 -0.2928  1.6936  1.2369
  596MOL0     H78645   7.166  -0.564   5.197 -0.4533 -0.1890 -0.1180
  596MOL0     H78646   7.137  -0.264   5.145 -0.5941  0.6074  0.4868
  596MOL0     H78647   7.011  -0.394   5.146  0.4938 -1.4221  1.5515
  596MOL0     H78648   7.113  -0.501   4.951  0.2774 -0.4032 -0.5288
  596MOL0     H78649   7.226  -0.363   4.937  0.1989  2.0361  0.8077
  596MOL0     H78650   6.926  -0.347   4.935  0.8848 -2.8558  0.8126
  596MOL0     H78651   7.037  -0.215   4.891 -0.1520  0.3030 -3.4221
  596MOL0     H78652   7.137  -0.335   4.699 -0.3104  0.1117  1.2544
  596MOL0     H78653   6.977  -0.299   4.676  0.8907 -1.6553 -2.7497
  596MOL0     H78654   7.451  -0.412   5.851  1.6186  2.7505  2.8749
  596MOL0     H78655   7.668  -0.337   5.936  1.3261  1.6111 -0.6785
  596MOL0     H78656   8.125  -0.341   5.965 -1.1704 -1.3684 -1.8967
  596MOL0     H78657   8.336  -0.240   6.041  2.0736  0.2401 -0.9058
  596MOL0     H78658  10.120   0.523   5.884 -0.4009 -1.3448 -0.0352
  596MOL0     H78659  10.241   0.732   5.860  0.9361  0.5707  0.3751
  596MOL0     H78660  10.499   1.042   6.112  1.7040 -5.2350 -0.3598
  596MOL0     H78661  10.585   1.268   6.096 -0.3387  2.3868 -1.9261
  596MOL0     H78662  10.627   1.467   6.037  1.0230  1.2332  1.0475
  596MOL0     H78663  10.739   1.558   5.950 -1.3544 -0.1544 -0.7742
  596MOL0     H78664  10.804   1.520   6.206  0.2378  0.4374  0.6383
  596MOL0     H78665  10.818   1.352   6.164 -1.5130  0.1756 -0.0701
  596MOL0     H78666  10.996   1.442   5.983 -2.5487 -0.1372 -0.4308
  596MOL0     H78667  11.036   1.397   6.150 -2.2950 -0.7363  2.1711
  596MOL0     H78668  10.936   1.682   6.086 -0.9222 -3.3649 -3.8787
  596MOL0     H78669  11.026   1.627   6.223  1.9433  0.0195 -0.7535
  596MOL0     H78670  11.310   1.744   5.921 -1.1285  0.7751 -0.0552
  596MOL0     H78671  10.749   1.213   5.716 -1.2685  4.9066  2.1038
  596MOL0     H78672  10.628   0.975   5.699 -0.4244  1.7338 -0.4439
  597MOL0     O78673   6.111   3.358   1.137 -0.0376 -0.1695 -0.0114
  597MOL0     C78674   6.142   3.470   1.173  0.4384  0.9546 -0.0878
  597MOL0     O78675   6.056   3.578   1.185 -0.3427 -0.4485  0.1995
  597MOL0     C78676   5.925   3.571   1.144  0.0203 -0.3088 -0.7214
  597MOL0     C78677   5.839   3.657   1.212 -0.1918 -0.3583  0.6389
  597MOL0     C78678   5.705   3.665   1.174  0.2802  0.1789 -0.0795
  597MOL0     C78679   5.660   3.577   1.080 -0.4376  0.4003  0.1679
  597MOL0     O78680   5.529   3.571   1.039  1.2800 -0.6030  0.1151
  597MOL0     C78681   5.436   3.679   1.068  0.2920 -0.4598 -0.1601
  597MOL0     C78682   5.329   3.652   0.964  0.7552 -0.6737  0.3278
  597MOL0     C78683   5.206   3.742   0.982 -0.2360  0.9851 -0.2394
  597MOL0     C78684   5.087   3.697   0.893 -0.7071  0.9028  0.1352
  597MOL0     C78685   4.967   3.794   0.894  0.7169  0.3037 -1.3504
  597MOL0     C78686   4.917   3.821   1.036  0.3760  0.4366 -0.4203
  597MOL0     C78687   4.784   3.899   1.025 -0.2779 -0.4925  0.0980
  597MOL0     C78688   4.736   3.935   1.168  0.0396 -0.4892 -0.6812
  597MOL0     N78689   4.618   4.031   1.167  0.0272 -0.5624 -0.8338
  597MOL0     C78690   4.489   4.010   1.195 -0.8289  0.4592 -1.1094
  597MOL0     C78691   4.424   4.118   1.152 -0.5336  0.3972 -0.3492
  597MOL0     C78692   4.284   4.143   1.152  0.0559 -0.7418 -0.4220
  597MOL0     C78693   4.207   4.018   1.181 -0.1091 -0.2830 -0.1704
  597MOL0     C78694   4.054   4.032   1.173 -0.0350 -0.1932 -0.3236
  597MOL0     C78695   3.995   4.094   1.040  0.1885 -0.3857  0.1721
  597MOL0     O78696   3.854   4.069   1.047  0.3542  0.3014 -0.5723
  597MOL0     C78697   3.768   4.120   0.955  0.5122  0.6709  0.1945
  597MOL0     C78698   3.631   4.077   0.961  0.0823 -0.0398  0.1646
  597MOL0     C78699   3.543   4.116   0.863  0.3565 -0.3297  0.4484
  597MOL0     C78700   3.588   4.203   0.761  0.7286 -0.3948 -0.2388
  597MOL0     C78701   3.486   4.250   0.666 -0.8197 -0.3575  0.2177
  597MOL0     O78702   3.377   4.170   0.645 -0.5953  0.0042 -0.1559
  597MOL0     C78703   3.263   4.200   0.575  0.0349  0.0302  0.0903
  597MOL0     C78704   3.180   4.315   0.598 -0.1602  0.7297  0.8996
  597MOL0     C78705   3.063   4.337   0.521  0.4080  0.5845 -0.0948
  597MOL0     C78706   3.023   4.240   0.425  0.3266  0.4231 -0.4900
  597MOL0     O78707   2.914   4.259   0.350  0.2705 -0.3891  0.2063
  597MOL0     C78708   2.833   4.375   0.349 -0.1441 -0.3907 -0.1586
  597MOL0     C78709   2.709   4.325   0.277 -0.0637 -0.1684  0.8638
  597MOL0     C78710   2.590   4.429   0.284  0.1261 -0.7731  0.8270
  597MOL0     C78711   2.471   4.408   0.195  0.6818 -1.1273  0.0741
  597MOL0     C78712   2.351   4.478   0.250  0.2946  0.4647 -0.5185
  597MOL0     C78713   2.227   4.462   0.164 -0.3628 -0.0123  0.7748
  597MOL0     C78714   2.109   4.555   0.210  0.8092  0.1757 -0.0339
  597MOL0     C78715   2.007   4.583   0.102 -0.3634  0.0695 -0.0961
  597MOL0    Cl78716   1.849   4.629   0.166 -0.0499 -0.2772 -0.0154
  597MOL0     C78717   3.100   4.126   0.413 -0.1569 -0.5479  0.3439
  597MOL0     C78718   3.210   4.104   0.490 -0.6022 -0.6800  0.8671
  597MOL0     O78719   3.512   4.354   0.609  0.2793 -0.3509  0.4585
  597MOL0     C78720   3.711   4.260   0.765 -0.3577 -0.5142 -0.0404
  597MOL0     C78721   3.806   4.209   0.850  0.0257 -0.5078 -0.1048
  597MOL0     N78722   4.523   4.208   1.105 -0.3254  0.4057  0.1723
  597MOL0     N78723   4.634   4.146   1.106 -0.0563 -1.1052  0.0212
  597MOL0     C78724   5.741   3.487   1.015  0.4621  0.4796  0.2264
  597MOL0     C78725   5.876   3.488   1.043  0.2118  0.7138  0.7596
  597MOL0     C78726   6.284   3.482   1.215 -1.0426 -1.0034 -0.0895
  597MOL0     C78727   6.347   3.602   1.234  0.4454  0.8901  0.0544
  597MOL0     C78728   6.477   3.608   1.285  0.2903  0.0197 -0.3957
  597MOL0     C78729   6.557   3.499   1.296  0.7872  0.6075  0.8022
  597MOL0     O78730   6.688   3.515   1.346  0.5349  0.2484 -0.0461
  597MOL0     C78731   6.716   3.462   1.477 -0.2660  0.4471 -0.4848
  597MOL0     C78732   6.829   3.544   1.533 -0.2583  0.1245 -0.3360
  597MOL0     C78733   6.862   3.518   1.683  0.2467 -0.5934 -0.0142
  597MOL0     C78734   6.964   3.610   1.748 -0.6097 -0.2310 -1.1253
  597MOL0     C78735   7.083   3.637   1.664  0.2593  0.3494  1.1242
  597MOL0     C78736   7.174   3.654   1.582  0.6875  0.1614  0.2606
  597MOL0     C78737   6.494   3.376   1.286 -0.1827 -0.6266 -0.0236
  597MOL0     C78738   6.361   3.367   1.248  0.8063 -0.4062  0.8688
  597MOL0     H78739   5.878   3.703   1.303  0.9795 -1.3532  0.6747
  597MOL0     H78740   5.634   3.727   1.228 -0.7398 -1.0362  0.0128
  597MOL0     H78741   5.472   3.782   1.073 -3.3878  1.1793 -2.9228
  597MOL0     H78742   5.399   3.673   1.171  3.6203  0.6267  1.2190
  597MOL0     H78743   5.286   3.552   0.974  1.4984 -1.1318 -0.9333
  597MOL0     H78744   5.353   3.675   0.860 -1.6791 -1.3688 -0.4450
  597MOL0     H78745   5.229   3.847   0.960 -3.2581  2.0440  1.1180
  597MOL0     H78746   5.168   3.741   1.084 -3.3555  3.7331 -1.2026
  597MOL0     H78747   5.126   3.707   0.792  2.2546 -0.8091  0.9645
  597MOL0     H78748   5.050   3.595   0.904 -1.6919  0.6281 -4.1806
  597MOL0     H78749   4.892   3.741   0.835  0.6357 -1.8719  0.5806
  597MOL0     H78750   4.990   3.885   0.837  1.2336 -0.5207 -2.4927
  597MOL0     H78751   4.983   3.893   1.087  0.5392  1.9155 -2.5796
  597MOL0     H78752   4.896   3.726   1.086 -1.3996  1.0336  0.0593
  597MOL0     H78753   4.807   3.982   0.958  0.7025 -0.8618 -0.0397
  597MOL0     H78754   4.722   3.826   0.971  0.5575  0.6010 -2.4967
  597MOL0     H78755   4.819   3.975   1.227 -0.8990 -1.2546  1.2668
  597MOL0     H78756   4.711   3.844   1.223  0.4577 -0.8628 -1.1005
  597MOL0     H78757   4.443   3.928   1.249 -0.8126  1.9157  1.2431
  597MOL0     H78758   4.246   4.178   1.056 -2.0997  2.1011  1.2932
  597MOL0     H78759   4.261   4.220   1.227  1.2567 -2.5696  1.9813
  597MOL0     H78760   4.242   3.993   1.281  1.5697  2.1954 -0.0643
  597MOL0     H78761   4.235   3.930   1.121  2.5039  1.9079 -2.4534
  597MOL0     H78762   3.995   3.943   1.200 -0.9683  0.5409  0.0941
  597MOL0     H78763   4.035   4.108   1.249  1.3822 -0.0030 -0.1214
  597MOL0     H78764   4.044   4.043   0.957  0.7504  0.1664  0.1549
  597MOL0     H78765   4.020   4.200   1.033  1.7050 -0.6425  1.2268
  597MOL0     H78766   3.592   4.024   1.048 -1.4442  0.9037  0.0797
  597MOL0     H78767   3.437   4.095   0.872  0.3822 -1.7100 -1.7235
  597MOL0     H78768   3.209   4.397   0.662 -0.1817  0.8459  0.7609
  597MOL0     H78769   3.013   4.433   0.530  1.2723  0.9233  1.2553
  597MOL0     H78770   2.877   4.466   0.306  0.9038 -1.0559 -0.5179
  597MOL0     H78771   2.812   4.411   0.451  3.1116 -0.7773  0.7496
  597MOL0     H78772   2.675   4.234   0.328  0.5169 -0.8539  0.0490
  597MOL0     H78773   2.736   4.308   0.172 -0.2696 -1.3002  0.9769
  597MOL0     H78774   2.630   4.529   0.264  0.9945 -1.4999 -1.3761
  597MOL0     H78775   2.554   4.429   0.387 -0.3022  0.9993  0.7148
  597MOL0     H78776   2.493   4.442   0.093 -0.1409  2.8314  1.0712
  597MOL0     H78777   2.450   4.301   0.202  0.5381 -1.0746  0.4634
  597MOL0     H78778   2.382   4.583   0.253 -1.6713  1.0694  0.0046
  597MOL0     H78779   2.325   4.455   0.354  3.9200  0.7303  0.5814
  597MOL0     H78780   2.188   4.360   0.166 -0.9187 -0.1021 -3.7493
  597MOL0     H78781   2.251   4.489   0.061 -0.4706 -1.1952  0.4296
  597MOL0     H78782   2.053   4.509   0.292  1.1381  0.2159  0.2146
  597MOL0     H78783   2.144   4.647   0.257  2.5679 -1.1763  1.4160
  597MOL0     H78784   1.999   4.487   0.049  1.0379  0.2096 -0.6131
  597MOL0     H78785   2.048   4.652   0.027  2.6923  1.9431  2.9865
  597MOL0     H78786   3.070   4.052   0.340 -0.6683  1.0455 -1.1184
  597MOL0     H78787   3.265   4.015   0.464  1.4960  1.0537 -1.0556
  597MOL0     H78788   3.734   4.341   0.697 -2.5599  1.5040  1.4638
  597MOL0     H78789   3.905   4.251   0.835  0.0640 -1.1927 -2.1655
  597MOL0     H78790   5.696   3.433   0.932 -1.7884 -0.2532  1.7977
  597MOL0     H78791   5.948   3.433   0.983  1.5325  3.3568 -0.2341
  597MOL0     H78792   6.290   3.691   1.210  2.0807  1.3784 -2.2433
  597MOL0     H78793   6.523   3.702   1.311  2.4605 -1.3640  1.1610
  597MOL0     H78794   6.732   3.354   1.489 -3.7264  0.0656  2.7238
  597MOL0     H78795   6.624   3.475   1.535 -0.6735 -1.5589 -0.5886
  597MOL0     H78796   6.916   3.519   1.472 -0.6985 -1.7360 -0.2693
  597MOL0     H78797   6.791   3.646   1.522  1.4354  0.7493 -0.7981
  597MOL0     H78798   6.891   3.414   1.695 -0.2878 -0.4810  2.8511
  597MOL0     H78799   6.770   3.524   1.742  0.3908 -0.9250  0.2440
  597MOL0     H78800   6.917   3.706   1.772  1.2238  0.6239 -0.7845
  597MOL0     H78801   6.996   3.565   1.842 -1.0492  0.3903 -0.6655
  597MOL0     H78802   7.253   3.651   1.510 -0.1941 -0.8194 -0.7026
  597MOL0     H78803   6.543   3.284   1.317 -1.4241 -0.7668  1.6520
  597MOL0     H78804   6.310   3.271   1.245  2.9988 -1.6311 -1.4743
  598MOL0     O78805   1.129   6.412   8.527  0.0972  0.1456  0.2550
  598MOL0     C78806   1.190   6.408   8.419  1.2430 -0.0721 -0.7913
  598MOL0     O78807   1.142   6.358   8.308 -0.9737 -0.0636 -0.4949
  598MOL0     C78808   1.009   6.311   8.316 -0.0739  0.7836  0.2736
  598MOL0     C78809   0.973   6.186   8.272  0.4930  0.2897  0.2655
  598MOL0     C78810   0.839   6.148   8.286  0.3450 -0.1773 -0.6108
  598MOL0     C78811   0.735   6.240   8.332 -0.2243 -0.0794  0.2824
  598MOL0     O78812   0.605   6.188   8.328  0.0235 -0.8260 -0.7358
  598MOL0     C78813   0.487   6.280   8.338 -0.1551  0.5790 -0.3558
  598MOL0     C78814   0.352   6.201   8.348 -0.4574 -0.5638 -0.1158
  598MOL0     C78815   0.229   6.292   8.379 -0.4377  0.2692 -1.0406
  598MOL0     C78816   0.110   6.194   8.407 -0.7884  0.9480  1.1316
  598MOL0     C78817   0.001   6.280   8.452  0.2996  0.2908 -0.4615
  598MOL0     C78818  -0.123   6.204   8.491  0.7374  0.0516  0.6401
  598MOL0     C78819  -0.191   6.143   8.367  0.0642  0.3550  0.5021
  598MOL0     C78820  -0.336   6.152   8.379  0.5417 -0.7410  0.1417
  598MOL0     N78821  -0.399   6.102   8.248 -0.6368 -0.1727  0.7925
  598MOL0     C78822  -0.442   5.975   8.220  0.7429  0.1471 -0.0444
  598MOL0     C78823  -0.489   5.985   8.094 -0.1207 -0.4570 -0.1979
  598MOL0     C78824  -0.560   5.877   8.019  0.6912  0.2908 -0.2355
  598MOL0     C78825  -0.712   5.898   8.033  0.2646  0.2239  0.0035
  598MOL0     C78826  -0.790   5.773   8.005 -0.4647  0.0254  0.0986
  598MOL0     C78827  -0.932   5.800   8.017  0.7696 -0.6486  0.4626
  598MOL0     O78828  -0.987   5.760   8.147 -0.2650  0.5584 -0.1805
  598MOL0     C78829  -1.124   5.764   8.160  0.1168 -0.0983 -0.6950
  598MOL0     C78830  -1.207   5.834   8.076 -0.8834 -0.0522  0.4570
  598MOL0     C78831  -1.350   5.832   8.089  0.4500 -0.0250 -0.4225
  598MOL0     C78832  -1.408   5.767   8.192  0.6248 -0.6714 -0.5674
  598MOL0     C78833  -1.551   5.753   8.203  0.7714  1.7120  0.4867
  598MOL0     O78834  -1.598   5.724   8.330 -0.4008 -0.7534  0.0524
  598MOL0     C78835  -1.738   5.701   8.347 -0.6566  1.1587  0.5189
  598MOL0     C78836  -1.830   5.803   8.331  0.3840  0.3199  0.8538
  598MOL0     C78837  -1.962   5.789   8.369  0.3242 -0.0477 -0.2520
  598MOL0     C78838  -2.006   5.672   8.431 -0.3901  0.3270  0.1143
  598MOL0     O78839  -2.127   5.655   8.487 -0.1248  0.1939  0.2862
  598MOL0     C78840  -2.240   5.723   8.424  0.0389  0.5429  1.0611
  598MOL0     C78841  -2.376   5.667   8.466  0.7570  0.1164  0.1609
  598MOL0     C78842  -2.385   5.520   8.455 -0.6243  0.7997  0.0429
  598MOL0     C78843  -2.374   5.467   8.302 -0.2617 -0.4838 -0.3862
  598MOL0     C78844  -2.364   5.312   8.303  0.4403 -0.4383  0.7377
  598MOL0     C78845  -2.215   5.275   8.322 -0.0728  1.1749 -0.7488
  598MOL0     C78846  -2.126   5.303   8.198  0.1190 -0.4289  1.0991
  598MOL0     C78847  -1.977   5.270   8.223  0.4389 -0.6559  0.0419
  598MOL0    Cl78848  -1.887   5.313   8.068 -0.0998 -0.4990  0.0715
  598MOL0     C78849  -1.915   5.565   8.452 -0.0402 -0.4000  0.3471
  598MOL0     C78850  -1.778   5.583   8.412 -0.0103  0.2398  0.4751
  598MOL0     O78851  -1.618   5.769   8.101  0.1324  0.5925  0.6563
  598MOL0     C78852  -1.328   5.699   8.283 -1.2411 -0.7374 -0.2695
  598MOL0     C78853  -1.189   5.705   8.270  0.2285 -0.9098  0.0785
  598MOL0     N78854  -0.463   6.110   8.044  0.4465 -0.5656 -0.3025
  598MOL0     N78855  -0.406   6.179   8.135  0.5481  0.0702  0.0608
  598MOL0     C78856   0.768   6.373   8.349 -0.3582  0.3110 -0.0953
  598MOL0     C78857   0.909   6.408   8.350  0.3369  1.2130 -0.4774
  598MOL0     C78858   1.329   6.450   8.412 -0.5665 -0.5618  0.2534
  598MOL0     C78859   1.381   6.552   8.490  0.6585 -0.8897  0.1055
  598MOL0     C78860   1.509   6.598   8.468 -0.3678  0.3749  0.1012
  598MOL0     C78861   1.595   6.543   8.375 -0.0549 -1.6841 -0.2798
  598MOL0     O78862   1.720   6.593   8.364  0.7644 -0.6541  0.5893
  598MOL0     C78863   1.813   6.540   8.274  0.6093 -0.2988  0.4430
  598MOL0     C78864   1.956   6.584   8.300 -0.1980  0.4731  0.0715
  598MOL0     C78865   1.999   6.723   8.261 -0.3997  0.2938  0.7991
  598MOL0     C78866   1.986   6.743   8.106  0.5170  0.0870 -0.4220
  598MOL0     C78867   2.074   6.843   8.051 -2.0689  0.3792 -0.3996
  598MOL0     C78868   2.158   6.922   8.008  0.4677  0.5834  0.4635
  598MOL0     C78869   1.542   6.444   8.295  0.0594  0.3238  0.2847
  598MOL0     C78870   1.410   6.397   8.310  0.5880  0.3994 -0.5551
  598MOL0     H78871   1.049   6.121   8.230  0.7423  0.6113  0.2123
  598MOL0     H78872   0.810   6.052   8.246 -2.1037 -0.1990  1.0069
  598MOL0     H78873   0.495   6.356   8.260 -1.1240  3.1208  1.8325
  598MOL0     H78874   0.498   6.339   8.430  0.1155  0.6861 -0.4533
  598MOL0     H78875   0.364   6.127   8.428 -1.6428 -0.5328  0.1083
  598MOL0     H78876   0.327   6.143   8.258 -0.6083 -3.6741  1.7702
  598MOL0     H78877   0.215   6.363   8.298  1.7788  5.0567  2.3343
  598MOL0     H78878   0.248   6.360   8.463  0.7984  0.6645 -1.6326
  598MOL0     H78879   0.098   6.140   8.313 -0.0769 -3.2737  3.2198
  598MOL0     H78880   0.146   6.118   8.477  1.7920  1.5301  0.5681
  598MOL0     H78881  -0.047   6.350   8.383  2.1890  0.1682 -1.9771
  598MOL0     H78882   0.039   6.330   8.541  1.2014  0.4817 -0.9477
  598MOL0     H78883  -0.193   6.270   8.545 -0.4706 -1.0803  0.5121
  598MOL0     H78884  -0.092   6.132   8.567 -0.1912 -1.4558 -0.3625
  598MOL0     H78885  -0.161   6.192   8.273  0.3645 -2.4943 -0.9761
  598MOL0     H78886  -0.160   6.039   8.362  2.5158  1.0163  0.7780
  598MOL0     H78887  -0.367   6.251   8.414 -0.8210 -0.7893 -0.8263
  598MOL0     H78888  -0.369   6.091   8.464  1.0282  4.1573  4.3345
  598MOL0     H78889  -0.456   5.885   8.278 -1.8206 -0.2472 -1.1186
  598MOL0     H78890  -0.529   5.783   8.065  1.8657  0.5130 -0.5414
  598MOL0     H78891  -0.523   5.870   7.916  3.0811 -1.4203  0.6547
  598MOL0     H78892  -0.738   5.989   7.977 -0.0408 -2.1040 -3.9945
  598MOL0     H78893  -0.737   5.921   8.137  0.7769 -1.6335  0.5625
  598MOL0     H78894  -0.765   5.754   7.900  1.3332  1.6904  0.1579
  598MOL0     H78895  -0.753   5.693   8.069  1.3464  0.8102  0.1159
  598MOL0     H78896  -0.974   5.731   7.943  1.7286 -0.9337  0.1678
  598MOL0     H78897  -0.965   5.904   8.002 -0.1612 -1.1113 -0.8746
  598MOL0     H78898  -1.176   5.904   7.999 -1.9379 -0.3377 -0.2531
  598MOL0     H78899  -1.403   5.887   8.012  2.6435 -1.4704 -3.1488
  598MOL0     H78900  -1.795   5.904   8.310 -0.5891  0.3028 -1.0571
  598MOL0     H78901  -2.023   5.878   8.357  0.3505 -0.0940 -0.7596
  598MOL0     H78902  -2.237   5.702   8.317  0.1880 -0.3625  1.2278
  598MOL0     H78903  -2.244   5.830   8.443 -0.3227  0.7822 -0.3285
  598MOL0     H78904  -2.454   5.715   8.406  0.5132 -2.3688 -1.6602
  598MOL0     H78905  -2.380   5.699   8.571 -0.4146  1.6975 -0.3306
  598MOL0     H78906  -2.484   5.486   8.487  0.0869 -3.3815 -1.5797
  598MOL0     H78907  -2.303   5.480   8.516  0.4006 -0.6146 -2.1570
  598MOL0     H78908  -2.464   5.491   8.244 -0.4290  1.3350  0.5792
  598MOL0     H78909  -2.290   5.518   8.254 -1.6692  0.6676 -1.7116
  598MOL0     H78910  -2.397   5.261   8.212  1.5835  0.2322 -0.0656
  598MOL0     H78911  -2.425   5.267   8.383 -1.0488  0.1521 -0.0213
  598MOL0     H78912  -2.211   5.168   8.347  0.5985  1.7265  1.7675
  598MOL0     H78913  -2.169   5.321   8.410  2.3033 -2.7582  0.3130
  598MOL0     H78914  -2.143   5.234   8.115  2.7343 -0.7098  0.7165
  598MOL0     H78915  -2.139   5.405   8.161 -0.0177 -0.9135 -0.2481
  598MOL0     H78916  -1.952   5.165   8.243  3.2360  0.2652  1.9746
  598MOL0     H78917  -1.938   5.327   8.307 -0.3323 -1.0265  0.6654
  598MOL0     H78918  -1.946   5.483   8.516  0.0869  1.1929  2.5795
  598MOL0     H78919  -1.695   5.515   8.430  0.6186  0.6201 -0.8281
  598MOL0     H78920  -1.374   5.650   8.369  0.4384  0.2950  1.3000
  598MOL0     H78921  -1.135   5.656   8.352  2.0275 -0.1613 -0.6119
  598MOL0     H78922   0.689   6.446   8.363 -0.7631  0.2964 -2.0497
  598MOL0     H78923   0.946   6.510   8.359  0.6515  1.1121 -0.6520
  598MOL0     H78924   1.320   6.602   8.564  2.3278  1.0502  0.2474
  598MOL0     H78925   1.543   6.688   8.518 -1.6734  1.4500 -0.8525
  598MOL0     H78926   1.788   6.582   8.177  2.4341  2.3638  1.0438
  598MOL0     H78927   1.813   6.431   8.287 -0.9925 -0.6470 -1.8136
  598MOL0     H78928   1.975   6.578   8.407  1.2214 -0.0199 -0.1894
  598MOL0     H78929   2.012   6.504   8.251 -0.3062  1.7228 -2.2397
  598MOL0     H78930   2.104   6.735   8.288 -0.3405  0.0330  0.6847
  598MOL0     H78931   1.932   6.791   8.314 -1.2095 -0.7797  1.1932
  598MOL0     H78932   2.012   6.646   8.063 -1.3432 -2.2194  3.1745
  598MOL0     H78933   1.880   6.757   8.082  0.3225 -0.9998 -0.2318
  598MOL0     H78934   2.235   6.990   7.979  2.4373 -0.6985  2.3565
  598MOL0     H78935   1.595   6.404   8.209 -0.1307  1.9796 -0.6494
  598MOL0     H78936   1.369   6.329   8.236  1.1924  0.9342 -1.4067
  599MOL0     O78937   0.631  10.144   6.291  0.1524 -0.1936 -0.2713
  599MOL0     C78938   0.671  10.120   6.179 -1.3409  0.3325 -0.2043
  599MOL0     O78939   0.615  10.167   6.060  0.6988 -0.1309  0.0440
  599MOL0     C78940   0.493  10.229   6.061  0.5480  0.5632  0.2265
  599MOL0     C78941   0.377  10.189   6.131 -0.5391  0.1092  0.3265
  599MOL0     C78942   0.252  10.258   6.110  0.0361  0.3526  0.5771
  599MOL0     C78943   0.254  10.377   6.037 -0.2609  0.3325  0.3827
  599MOL0     O78944   0.133  10.441   6.022  0.2694  0.3297  0.2001
  599MOL0     C78945   0.127  10.558   5.937 -0.3833  0.6500 -0.2311
  599MOL0     C78946  -0.019  10.617   5.933 -0.0841  0.5506 -0.4465
  599MOL0     C78947  -0.122  10.525   5.857 -0.8471  0.0887  0.1832
  599MOL0     C78948  -0.269  10.556   5.882  0.4991 -0.4210 -0.2440
  599MOL0     C78949  -0.374  10.479   5.807 -0.6832  0.0796 -0.0080
  599MOL0     C78950  -0.376  10.498   5.651  0.6832  0.0593 -0.0092
  599MOL0     C78951  -0.486  10.409   5.575 -0.2724 -0.3462 -0.3654
  599MOL0     C78952  -0.487  10.440   5.421 -0.5868  0.1873 -0.6993
  599MOL0     N78953  -0.571  10.557   5.396  0.2245  0.6267  0.8197
  599MOL0     C78954  -0.662  10.619   5.470 -0.6170 -0.0531  0.6023
  599MOL0     C78955  -0.711  10.713   5.387  0.0454 -0.8032 -0.4253
  599MOL0     C78956  -0.809  10.824   5.428 -0.6190  0.1264 -0.8039
  599MOL0     C78957  -0.831  10.826   5.578  0.4709  0.5370 -0.5999
  599MOL0     C78958  -0.911  10.950   5.618 -0.4980  0.6071  0.4635
  599MOL0     C78959  -0.972  10.935   5.756 -0.2570 -0.0142 -0.3673
  599MOL0     O78960  -1.093  10.861   5.754 -0.2579 -0.1235 -0.2309
  599MOL0     C78961  -1.214  10.916   5.718 -0.8135 -0.0223 -0.3103
  599MOL0     C78962  -1.322  10.827   5.733  0.3463 -0.4235  0.6411
  599MOL0     C78963  -1.450  10.880   5.714 -0.6283  0.8813 -0.3325
  599MOL0     C78964  -1.480  11.016   5.689 -1.3223  0.3254 -0.1133
  599MOL0     C78965  -1.621  11.058   5.685  0.2907 -0.1783 -0.9987
  599MOL0     O78966  -1.720  10.965   5.718 -0.1605 -0.0289 -0.5629
  599MOL0     C78967  -1.860  10.985   5.711  0.5843 -0.6589 -0.7901
  599MOL0     C78968  -1.927  11.114   5.699  0.3911  0.0268  0.2579
  599MOL0     C78969  -2.069  11.111   5.685  0.2224  0.1862  0.1019
  599MOL0     C78970  -2.139  10.989   5.682 -0.1803 -0.0078  0.3617
  599MOL0     O78971  -2.277  10.972   5.670 -0.1408  0.2429 -0.9069
  599MOL0     C78972  -2.360  11.086   5.686  0.4164  0.2065 -0.9662
  599MOL0     C78973  -2.511  11.051   5.722 -0.5230  0.1864 -0.0656
  599MOL0     C78974  -2.575  10.970   5.606 -0.6760 -0.4974  0.1572
  599MOL0     C78975  -2.722  10.972   5.625  0.6710  1.2234 -0.2421
  599MOL0     C78976  -2.792  10.914   5.499 -0.3664  0.1957 -0.1962
  599MOL0     C78977  -2.944  10.914   5.517  0.3284  0.6740 -0.6367
  599MOL0     C78978  -3.012  10.832   5.403 -0.7096  0.4582  0.3774
  599MOL0     C78979  -3.145  10.896   5.376 -0.5951  1.0014 -0.0625
  599MOL0    Cl78980  -3.253  10.810   5.265 -0.1028  0.1111  0.0080
  599MOL0     C78981  -2.069  10.874   5.694 -0.6205  0.1694  0.0873
  599MOL0     C78982  -1.935  10.872   5.719 -0.1511  0.2826 -0.6701
  599MOL0     O78983  -1.643  11.173   5.652 -0.2486 -1.0223  0.6344
  599MOL0     C78984  -1.365  11.101   5.674  0.1272  0.4242 -0.7691
  599MOL0     C78985  -1.232  11.048   5.687  0.3766 -0.0451 -0.6217
  599MOL0     N78986  -0.654  10.706   5.267 -0.4428 -0.0358  0.1515
  599MOL0     N78987  -0.569  10.604   5.269  0.2758  0.3827  0.1089
  599MOL0     C78988   0.361  10.415   5.967 -1.2099  0.3417 -0.2264
  599MOL0     C78989   0.486  10.348   5.978 -0.5989  0.1683 -0.1110
  599MOL0     C78990   0.799  10.062   6.172 -0.1743  0.5513 -0.1818
  599MOL0     C78991   0.857  10.026   6.053  0.1038  0.9133 -0.0160
  599MOL0     C78992   0.982   9.958   6.044 -0.2456 -0.3287  0.7459
  599MOL0     C78993   1.051   9.910   6.159 -0.2861 -0.1262  0.0080
  599MOL0     O78994   1.169   9.837   6.161 -0.2469  0.3375  0.3764
  599MOL0     C78995   1.258   9.836   6.047 -0.4898  0.2256 -0.0959
  599MOL0     C78996   1.357   9.958   6.035  0.1862 -0.1202  0.3030
  599MOL0     C78997   1.415   9.994   6.174 -0.3642  0.0473 -0.2048
  599MOL0     C78998   1.485   9.878   6.254  0.0298  0.5445 -0.6136
  599MOL0     C78999   1.592   9.822   6.168 -0.4656  0.0425  0.1389
  599MOL0     C79000   1.681   9.780   6.101 -0.4845  0.4322  0.0837
  599MOL0     C79001   0.992   9.945   6.286  0.3456 -0.4869 -0.6992
  599MOL0     C79002   0.871  10.024   6.291 -0.3217 -0.0123  0.2581
  599MOL0     H79003   0.377  10.095   6.186  1.6089 -1.2506 -1.8292
  599MOL0     H79004   0.159  10.217   6.147  0.6964  0.5930  2.6760
  599MOL0     H79005   0.159  10.519   5.840 -0.0819  0.2358  0.0345
  599MOL0     H79006   0.196  10.632   5.978 -2.5965  2.2685  0.7780
  599MOL0     H79007  -0.015  10.720   5.897  0.9252  0.2098 -1.3597
  599MOL0     H79008  -0.057  10.614   6.036 -0.7178 -0.3669 -0.6922
  599MOL0     H79009  -0.099  10.420   5.874  4.2051  1.0138  0.4847
  599MOL0     H79010  -0.097  10.549   5.754 -0.0756 -1.3889  0.0077
  599MOL0     H79011  -0.286  10.539   5.988  1.0832  0.3189 -0.0199
  599MOL0     H79012  -0.286  10.663   5.864  2.7871  0.2029  0.9109
  599MOL0     H79013  -0.472  10.508   5.845 -0.4931  3.4427 -1.7125
  599MOL0     H79014  -0.368  10.372   5.831  2.7758  0.5515  2.0092
  599MOL0     H79015  -0.276  10.463   5.622  0.4217 -0.3621 -0.4094
  599MOL0     H79016  -0.385  10.604   5.628  1.9571  0.2546  0.2764
  599MOL0     H79017  -0.457  10.304   5.585  0.7236 -0.1238 -0.8786
  599MOL0     H79018  -0.589  10.428   5.609 -0.9873 -0.2372 -2.4537
  599MOL0     H79019  -0.538  10.363   5.362 -0.7062 -0.1317 -0.1784
  599MOL0     H79020  -0.383  10.455   5.391  0.8594 -0.6255  3.3866
  599MOL0     H79021  -0.686  10.610   5.575  1.6394  2.0113  1.3852
  599MOL0     H79022  -0.907  10.807   5.383 -0.4935 -1.5974 -0.4671
  599MOL0     H79023  -0.767  10.921   5.401  0.5320 -0.1067  0.0877
  599MOL0     H79024  -0.743  10.824   5.643 -0.0594 -1.8143  0.1741
  599MOL0     H79025  -0.889  10.734   5.595 -2.0478  1.9507 -1.0165
  599MOL0     H79026  -0.847  11.038   5.604 -0.4748  0.1863 -3.0911
  599MOL0     H79027  -0.996  10.978   5.555 -3.1811  0.1484  3.6005
  599MOL0     H79028  -0.987  11.032   5.806  1.0061 -0.4499  0.8974
  599MOL0     H79029  -0.905  10.885   5.826 -0.6250 -0.6088 -0.4336
  599MOL0     H79030  -1.311  10.723   5.761  4.6595  0.2981  2.3878
  599MOL0     H79031  -1.533  10.812   5.702 -0.6453  0.4892  1.7085
  599MOL0     H79032  -1.868  11.204   5.698  2.0505 -0.9318  2.6755
  599MOL0     H79033  -2.124  11.205   5.686  0.3126  0.2770 -1.4555
  599MOL0     H79034  -2.355  11.145   5.594 -0.5506  0.3842 -0.9247
  599MOL0     H79035  -2.326  11.140   5.775  0.7500  1.0116 -1.5734
  599MOL0     H79036  -2.560  11.145   5.747 -2.6727 -0.5954 -1.0915
  599MOL0     H79037  -2.503  10.995   5.816 -2.2034  1.8336  1.1212
  599MOL0     H79038  -2.530  10.872   5.585  2.4117  0.7971  0.2408
  599MOL0     H79039  -2.558  11.024   5.513 -1.9144 -1.4939 -0.6854
  599MOL0     H79040  -2.744  10.912   5.714  1.8168  0.8117 -0.2130
  599MOL0     H79041  -2.762  11.072   5.642 -2.6236  0.1205 -0.8997
  599MOL0     H79042  -2.751  10.813   5.495 -0.7676 -0.2574  3.3758
  599MOL0     H79043  -2.771  10.971   5.408  0.0948  0.7867  0.2619
  599MOL0     H79044  -2.983  11.016   5.521 -0.8329  0.4278 -3.5054
  599MOL0     H79045  -2.966  10.873   5.616  1.2600  0.6406 -0.4375
  599MOL0     H79046  -2.952  10.846   5.312  1.1434 -0.4816  1.3860
  599MOL0     H79047  -3.022  10.724   5.418  0.4526  0.0080 -1.7091
  599MOL0     H79048  -3.127  10.995   5.333  1.8221  0.0045 -1.5526
  599MOL0     H79049  -3.188  10.902   5.476 -0.7625  1.4529 -0.1586
  599MOL0     H79050  -2.121  10.779   5.692  0.9153 -0.7908  1.9598
  599MOL0     H79051  -1.879  10.781   5.734  1.9669  1.5269 -0.6018
  599MOL0     H79052  -1.382  11.205   5.648 -3.1735  0.5334  1.2014
  599MOL0     H79053  -1.150  11.118   5.669 -0.2881  0.9109 -0.0625
  599MOL0     H79054   0.364  10.494   5.893  1.5730  1.3912  0.8496
  599MOL0     H79055   0.568  10.368   5.910  0.1148 -1.4133  0.2370
  599MOL0     H79056   0.809  10.051   5.959 -1.5487  0.9431  0.8041
  599MOL0     H79057   1.016   9.938   5.943 -0.0740 -3.0219  1.2561
  599MOL0     H79058   1.200   9.823   5.955 -1.1036 -1.0647  0.4423
  599MOL0     H79059   1.317   9.745   6.060 -1.5098 -0.2647  1.3086
  599MOL0     H79060   1.450   9.937   5.980  1.9670 -0.7069  3.2784
  599MOL0     H79061   1.317  10.051   5.995  2.4985  1.1876  0.8084
  599MOL0     H79062   1.335  10.034   6.237  3.2297  2.1576  3.5219
  599MOL0     H79063   1.492  10.070   6.159  0.8958 -0.0205  4.3931
  599MOL0     H79064   1.528   9.909   6.349 -1.1533 -1.6365  0.7300
  599MOL0     H79065   1.424   9.791   6.281 -0.4628  1.7969  2.7188
  599MOL0     H79066   1.761   9.748   6.036 -1.1846 -0.4465 -0.3643
  599MOL0     H79067   1.043   9.928   6.380 -0.7612 -0.1955 -0.0269
  599MOL0     H79068   0.825  10.053   6.385  2.8468  0.0516  1.9159
  600MOL0     O79069   9.114   2.448   7.261  0.6081  0.2254  0.1017
  600MOL0     C79070   9.194   2.376   7.209  0.1297  0.5807  0.0691
  600MOL0     O79071   9.165   2.259   7.145 -0.5989  0.0773  0.1372
  600MOL0     C79072   9.032   2.226   7.131 -0.2215 -0.1806  0.6326
  600MOL0     C79073   8.991   2.127   7.223  0.5331 -0.2635  0.2311
  600MOL0     C79074   8.867   2.067   7.206 -0.2989 -0.4023 -0.1646
  600MOL0     C79075   8.775   2.107   7.110 -0.1039  0.1946  0.9377
  600MOL0     O79076   8.651   2.064   7.082  0.4093 -0.1383 -0.2075
  600MOL0     C79077   8.587   1.977   7.175 -0.3360  0.0918 -1.1856
  600MOL0     C79078   8.450   1.939   7.116 -0.2127  0.1230 -1.0814
  600MOL0     C79079   8.343   2.052   7.138  0.6639  0.3691 -0.1979
  600MOL0     C79080   8.215   2.011   7.060 -0.6538 -0.5624 -0.1366
  600MOL0     C79081   8.098   2.115   7.060  0.1532  1.2308  0.0068
  600MOL0     C79082   8.020   2.105   6.933  0.3917 -0.3004 -0.1254
  600MOL0     C79083   7.910   2.211   6.919  0.2327 -0.5065 -0.0923
  600MOL0     C79084   7.798   2.213   7.020  0.7621  0.2011 -1.8817
  600MOL0     N79085   7.702   2.107   7.012 -0.2217 -0.1470 -1.4159
  600MOL0     C79086   7.722   1.980   7.066 -0.6129  0.8046  0.4689
  600MOL0     C79087   7.609   1.909   7.054  0.0903  0.6693 -0.0377
  600MOL0     C79088   7.576   1.768   7.085 -0.2545 -0.0229 -0.3324
  600MOL0     C79089   7.693   1.684   7.129 -0.5101 -0.3008  0.5878
  600MOL0     C79090   7.643   1.539   7.165 -0.4778 -0.2569  1.3355
  600MOL0     C79091   7.582   1.528   7.296  0.5077 -0.0836 -0.1178
  600MOL0     O79092   7.599   1.399   7.345  0.2470  0.5606 -0.1017
  600MOL0     C79093   7.494   1.319   7.316 -0.0184  0.5649  0.0092
  600MOL0     C79094   7.505   1.223   7.210  0.0475  0.2205 -0.3153
  600MOL0     C79095   7.392   1.151   7.177  0.0643 -0.1633 -0.3058
  600MOL0     C79096   7.270   1.163   7.253 -0.5241 -0.4618 -0.3422
  600MOL0     C79097   7.148   1.101   7.217  0.0591 -0.3542 -0.0806
  600MOL0     O79098   7.037   1.140   7.293  0.0094 -0.2527 -0.5191
  600MOL0     C79099   6.906   1.095   7.277  0.4297 -0.2276  0.8088
  600MOL0     C79100   6.853   1.018   7.175  0.0278 -0.3531  0.4699
  600MOL0     C79101   6.719   0.988   7.179  0.4755  0.3355 -0.3120
  600MOL0     C79102   6.634   1.013   7.291  0.1728 -0.9677  0.5348
  600MOL0     O79103   6.505   0.978   7.291  0.0270  0.4672  0.3426
  600MOL0     C79104   6.431   0.995   7.408 -0.4353 -0.0606 -0.2964
  600MOL0     C79105   6.301   0.924   7.400 -0.1272  0.0780  0.1718
  600MOL0     C79106   6.229   0.937   7.261  0.0897  0.0926 -0.1952
  600MOL0     C79107   6.090   0.890   7.292  0.0727 -0.1649  0.2920
  600MOL0     C79108   6.010   0.884   7.155  0.5060 -0.5001 -0.1081
  600MOL0     C79109   5.866   0.838   7.174  0.3350 -0.5231 -0.1386
  600MOL0     C79110   5.778   0.866   7.051 -0.6295 -0.2948  0.1202
  600MOL0     C79111   5.640   0.794   7.050  0.0518  0.6641 -0.4141
  600MOL0    Cl79112   5.534   0.838   7.197 -0.4994 -0.2166  0.3555
  600MOL0     C79113   6.698   1.080   7.399 -0.0028 -0.5382  0.0207
  600MOL0     C79114   6.827   1.126   7.389  0.0314 -0.2225  0.0355
  600MOL0     O79115   7.139   1.038   7.112  0.2611 -0.9295 -0.2495
  600MOL0     C79116   7.270   1.247   7.365 -0.6957  0.3799  0.0027
  600MOL0     C79117   7.378   1.331   7.388 -0.2386  0.3973 -0.2303
  600MOL0     N79118   7.517   1.990   6.994  0.0457 -0.4769 -0.7728
  600MOL0     N79119   7.562   2.112   6.978 -0.3861 -0.3189  0.5620
  600MOL0     C79120   8.827   2.202   7.018  0.2707  0.1196  0.2135
  600MOL0     C79121   8.948   2.268   7.019  0.1830  0.1716  0.5039
  600MOL0     C79122   9.338   2.414   7.205 -0.3866 -0.9707 -0.0019
  600MOL0     C79123   9.441   2.322   7.169 -0.0424 -0.3757 -0.1658
  600MOL0     C79124   9.572   2.360   7.159 -1.0428 -1.3976 -0.3176
  600MOL0     C79125   9.607   2.491   7.179  0.5453  0.3990  0.0079
  600MOL0     O79126   9.735   2.534   7.177  0.5276 -0.1045  0.3200
  600MOL0     C79127   9.818   2.510   7.061  0.3582  0.6956 -0.2548
  600MOL0     C79128   9.790   2.611   6.942 -0.0466 -0.0617 -0.8452
  600MOL0     C79129   9.656   2.591   6.884 -0.2595 -0.0808  0.0478
  600MOL0     C79130   9.647   2.642   6.742  0.2967  0.2364 -1.2422
  600MOL0     C79131   9.702   2.771   6.707  0.0862 -1.1060  0.2122
  600MOL0     C79132   9.776   2.869   6.702 -0.0902 -0.4418  0.3205
  600MOL0     C79133   9.513   2.575   7.236 -0.7495  0.0432  0.6042
  600MOL0     C79134   9.381   2.540   7.248 -1.0796 -0.0594  0.3472
  600MOL0     H79135   9.065   2.089   7.293 -0.4997  0.2617  1.6485
  600MOL0     H79136   8.838   1.981   7.266  0.1534 -0.7878 -0.4933
  600MOL0     H79137   8.574   2.025   7.272  1.0118 -0.2200 -0.8209
  600MOL0     H79138   8.638   1.883   7.197  0.9673  0.8656 -0.7989
  600MOL0     H79139   8.415   1.850   7.168  4.4080 -0.9698  0.5954
  600MOL0     H79140   8.462   1.919   7.009  1.0875  2.2369 -1.3854
  600MOL0     H79141   8.385   2.145   7.101 -2.0267  1.9846  0.5377
  600MOL0     H79142   8.321   2.069   7.244 -0.4149 -0.3130 -0.2876
  600MOL0     H79143   8.256   1.995   6.959  1.3892 -0.3728  0.6089
  600MOL0     H79144   8.177   1.920   7.108 -1.1838  0.7878  2.1325
  600MOL0     H79145   8.135   2.214   7.085  0.3278  0.7438  1.8374
  600MOL0     H79146   8.029   2.080   7.137 -0.0168 -0.8742 -1.0203
  600MOL0     H79147   7.974   2.006   6.929  0.4515 -0.3147 -0.4521
  600MOL0     H79148   8.086   2.118   6.847 -1.4092  3.4731 -1.1292
  600MOL0     H79149   7.952   2.310   6.935 -0.9482  0.3232 -1.7932
  600MOL0     H79150   7.871   2.193   6.818  0.8759 -1.1967 -0.2249
  600MOL0     H79151   7.744   2.304   6.990  1.6920  1.4650  0.0367
  600MOL0     H79152   7.837   2.233   7.120 -3.2680  2.3263 -0.4950
  600MOL0     H79153   7.818   1.947   7.106  1.1439  3.3278 -1.3173
  600MOL0     H79154   7.536   1.717   6.996  1.9668 -0.7181 -1.0000
  600MOL0     H79155   7.492   1.767   7.155 -0.2620  2.0288 -0.2456
  600MOL0     H79156   7.734   1.721   7.224  2.2792 -0.6523 -0.3947
  600MOL0     H79157   7.765   1.676   7.047 -1.1539 -0.7529  0.0585
  600MOL0     H79158   7.578   1.490   7.091 -2.4211  2.6656  0.9229
  600MOL0     H79159   7.734   1.478   7.167 -0.9092 -1.0160 -0.2376
  600MOL0     H79160   7.478   1.559   7.279 -0.0210 -1.1379  1.0523
  600MOL0     H79161   7.622   1.598   7.370 -0.5623  2.7476 -2.0310
  600MOL0     H79162   7.599   1.217   7.154  2.0841  0.1629  2.8592
  600MOL0     H79163   7.377   1.089   7.090 -1.0198  1.8059 -1.5761
  600MOL0     H79164   6.911   0.988   7.088 -0.2429 -2.3211  0.9149
  600MOL0     H79165   6.683   0.934   7.092  2.3422  2.5784 -2.6272
  600MOL0     H79166   6.414   1.103   7.417 -0.4285 -0.0999  0.2203
  600MOL0     H79167   6.489   0.961   7.494  2.0884 -0.8340 -2.1648
  600MOL0     H79168   6.238   0.963   7.480 -0.4057  0.2550 -0.1284
  600MOL0     H79169   6.307   0.816   7.416  0.8075  0.5713  4.1035
  600MOL0     H79170   6.280   0.872   7.189  2.7592  2.4215 -0.5780
  600MOL0     H79171   6.224   1.037   7.218 -0.6507  0.0296 -0.2774
  600MOL0     H79172   6.093   0.790   7.336 -0.4710 -0.8831 -1.2343
  600MOL0     H79173   6.038   0.958   7.360  0.7524 -0.9652  1.6506
  600MOL0     H79174   6.058   0.812   7.088  1.7960  0.5470 -0.3592
  600MOL0     H79175   6.016   0.979   7.102 -1.1433 -0.8980 -1.0767
  600MOL0     H79176   5.821   0.875   7.267 -0.9199 -2.0716 -0.0945
  600MOL0     H79177   5.872   0.730   7.189  0.4077 -0.8694 -2.4558
  600MOL0     H79178   5.771   0.975   7.045  3.1876  0.0652 -0.0765
  600MOL0     H79179   5.838   0.829   6.967 -0.4629 -1.6127  0.7968
  600MOL0     H79180   5.651   0.685   7.049 -0.9501  0.5265  1.0677
  600MOL0     H79181   5.585   0.831   6.963 -0.5617  1.8191  0.4531
  600MOL0     H79182   6.650   1.105   7.493  1.7524 -4.2887  2.1483
  600MOL0     H79183   6.851   1.175   7.483  2.5638 -1.5138  0.1254
  600MOL0     H79184   7.187   1.260   7.434 -1.9793 -1.1877 -1.1557
  600MOL0     H79185   7.375   1.405   7.468 -1.2737 -0.1118  0.2173
  600MOL0     H79186   8.757   2.237   6.943  0.7093  1.6789  0.5009
  600MOL0     H79187   8.973   2.327   6.931  1.1530 -2.0020 -0.7794
  600MOL0     H79188   9.408   2.221   7.145 -0.6755  0.5277 -3.7967
  600MOL0     H79189   9.652   2.289   7.141  0.0023 -0.1682 -0.6375
  600MOL0     H79190   9.811   2.405   7.033  3.1850  0.4185 -0.2344
  600MOL0     H79191   9.919   2.532   7.097  0.1638 -1.7697  2.1573
  600MOL0     H79192   9.799   2.714   6.979 -3.0325  0.8147 -2.2549
  600MOL0     H79193   9.878   2.595   6.879  2.2656 -1.0110  2.3605
  600MOL0     H79194   9.581   2.630   6.954 -1.0360 -1.5347  0.0602
  600MOL0     H79195   9.632   2.484   6.882  2.0841 -0.7238  1.5598
  600MOL0     H79196   9.698   2.566   6.681  0.5770 -1.5778  1.1026
  600MOL0     H79197   9.543   2.634   6.711 -0.1692 -3.9984  0.7117
  600MOL0     H79198   9.836   2.955   6.685 -2.4368  1.6911  2.0738
  600MOL0     H79199   9.552   2.674   7.258  0.3473 -0.3871  0.6592
  600MOL0     H79200   9.307   2.618   7.265 -0.4429  0.4861  0.6943
  601MOL0     O79201   0.171  10.375  10.801  0.0202 -0.1286  0.2723
  601MOL0     C79202   0.164  10.249  10.811  0.9524 -1.0235  0.1338
  601MOL0     O79203   0.062  10.191  10.874  0.6515  0.0435  0.2450
  601MOL0     C79204  -0.051  10.261  10.919 -0.2373  0.3116  0.3588
  601MOL0     C79205  -0.119  10.354  10.838  0.7189 -0.0356  0.0164
  601MOL0     C79206  -0.236  10.424  10.883 -0.1025 -0.2883 -0.8111
  601MOL0     C79207  -0.295  10.398  11.003  0.1620 -0.0473  0.4727
  601MOL0     O79208  -0.411  10.461  11.039  0.0014  0.1662  0.6174
  601MOL0     C79209  -0.473  10.427  11.166  0.1629 -0.3036 -0.4225
  601MOL0     C79210  -0.606  10.508  11.169 -0.6430 -0.3984 -0.5026
  601MOL0     C79211  -0.710  10.438  11.075  0.3111  0.2371  0.0258
  601MOL0     C79212  -0.846  10.505  11.105  0.7390 -0.5902  0.3899
  601MOL0     C79213  -0.961  10.415  11.051 -0.0705 -0.1690 -0.2299
  601MOL0     C79214  -1.095  10.485  11.053 -0.6680  0.6004 -0.0744
  601MOL0     C79215  -1.204  10.370  11.054 -0.2129 -0.0317  0.1317
  601MOL0     C79216  -1.339  10.434  11.022  0.3493 -1.2557 -0.5564
  601MOL0     N79217  -1.450  10.363  11.088  0.2183 -0.5717  0.4391
  601MOL0     C79218  -1.493  10.237  11.058 -0.9062  0.0051  0.0989
  601MOL0     C79219  -1.606  10.220  11.123  1.1883 -1.0200 -0.6356
  601MOL0     C79220  -1.702  10.106  11.124 -0.4814 -0.1198  0.5861
  601MOL0     C79221  -1.688  10.035  11.256 -0.1779  0.1436  1.1213
  601MOL0     C79222  -1.781   9.920  11.279  0.7961 -0.4276 -0.2915
  601MOL0     C79223  -1.923   9.925  11.223  0.9875 -0.4397  0.0925
  601MOL0     O79224  -1.928   9.880  11.084 -0.1840 -0.3144 -0.7759
  601MOL0     C79225  -2.050   9.851  11.036  0.8407  0.8110  0.4216
  601MOL0     C79226  -2.173   9.843  11.103  0.5175  0.3332  0.5842
  601MOL0     C79227  -2.285   9.803  11.039 -0.0648 -0.0292  0.8227
  601MOL0     C79228  -2.282   9.790  10.902  0.0190  1.1711  0.6167
  601MOL0     C79229  -2.407   9.749  10.822 -0.1237 -0.1533 -0.3545
  601MOL0     O79230  -2.526   9.753  10.888 -0.1367 -0.7029 -0.1255
  601MOL0     C79231  -2.646   9.723  10.825 -0.8740 -0.2585  0.4434
  601MOL0     C79232  -2.747   9.661  10.896  0.2602  0.4708  1.1397
  601MOL0     C79233  -2.876   9.630  10.830 -0.4746 -0.6991 -0.4378
  601MOL0     C79234  -2.897   9.678  10.705  0.5798  0.4306 -0.1294
  601MOL0     O79235  -3.004   9.637  10.635 -0.3081  0.3811  0.0721
  601MOL0     C79236  -3.109   9.727  10.653 -0.3581 -0.3032  0.5269
  601MOL0     C79237  -3.231   9.700  10.558 -0.3325 -0.7599  0.1765
  601MOL0     C79238  -3.196   9.692  10.406 -0.5341  0.9677  0.8841
  601MOL0     C79239  -3.320   9.716  10.308 -1.0314 -0.0136 -0.5334
  601MOL0     C79240  -3.362   9.867  10.308 -0.4706  0.2041  0.6286
  601MOL0     C79241  -3.261   9.973  10.259 -0.0577 -1.1395 -0.0767
  601MOL0     C79242  -3.198   9.928  10.125  0.6941  0.2211 -0.0762
  601MOL0     C79243  -3.171  10.047  10.038  0.5022 -0.1890  0.2952
  601MOL0    Cl79244  -3.032  10.034   9.921 -0.0981 -0.1629 -0.0488
  601MOL0     C79245  -2.798   9.751  10.636  0.3881  0.0208  0.4490
  601MOL0     C79246  -2.673   9.774  10.697  0.6257  0.3687  0.5741
  601MOL0     O79247  -2.394   9.745  10.698 -0.5453 -0.3787 -0.2388
  601MOL0     C79248  -2.160   9.799  10.831  0.2888 -0.6759  0.7937
  601MOL0     C79249  -2.049   9.837  10.895 -0.4258 -0.1472 -0.8587
  601MOL0     N79250  -1.617  10.325  11.210  0.1339  0.0718  0.2609
  601MOL0     N79251  -1.520  10.408  11.191 -0.3889 -0.1749  0.2087
  601MOL0     C79252  -0.228  10.307  11.084 -0.4091  0.0626 -0.1453
  601MOL0     C79253  -0.107  10.239  11.044 -0.1316 -0.4405  0.8284
  601MOL0     C79254   0.281  10.176  10.768  0.0625 -0.2585  0.1820
  601MOL0     C79255   0.272  10.037  10.754 -0.0313 -0.0004  0.1308
  601MOL0     C79256   0.384   9.965  10.712  0.2948 -0.3124 -0.5507
  601MOL0     C79257   0.507  10.029  10.688 -0.5992 -0.1532 -0.4145
  601MOL0     O79258   0.620   9.956  10.658  0.5679  0.4341  0.0816
  601MOL0     C79259   0.669   9.870  10.766  0.3597 -0.1198 -0.0070
  601MOL0     C79260   0.769   9.951  10.853 -0.3674  0.5605 -0.3115
  601MOL0     C79261   0.885  10.022  10.773  0.4662  0.2581  0.0508
  601MOL0     C79262   1.018  10.027  10.859  0.4519 -0.0970  0.9068
  601MOL0     C79263   1.097   9.910  10.820 -0.3561  0.2638  0.5104
  601MOL0     C79264   1.162   9.812  10.774  0.5630  0.1621 -0.1893
  601MOL0     C79265   0.518  10.171  10.705 -0.1900  0.3178 -0.5955
  601MOL0     C79266   0.403  10.244  10.733  0.1193 -0.9166 -0.1776
  601MOL0     H79267  -0.083  10.381  10.739 -3.7323 -1.1999 -2.1589
  601MOL0     H79268  -0.281  10.493  10.812 -1.6846  2.2331  2.3608
  601MOL0     H79269  -0.410  10.459  11.250 -0.5374  0.2477 -0.0949
  601MOL0     H79270  -0.501  10.323  11.184 -0.2775  0.2916  3.0439
  601MOL0     H79271  -0.583  10.613  11.152 -0.4060 -0.6067 -1.5369
  601MOL0     H79272  -0.636  10.492  11.273 -0.3332 -1.7858 -0.6036
  601MOL0     H79273  -0.710  10.332  11.100  0.7215 -1.1652 -4.8532
  601MOL0     H79274  -0.689  10.443  10.968 -0.4535 -1.4512 -0.2323
  601MOL0     H79275  -0.861  10.516  11.213 -2.4149  1.3813 -0.1431
  601MOL0     H79276  -0.837  10.608  11.072  1.4987 -0.4348  1.0575
  601MOL0     H79277  -0.963  10.327  11.116 -1.9252 -1.2096 -1.5862
  601MOL0     H79278  -0.934  10.382  10.950  0.4707 -4.3595  1.0939
  601MOL0     H79279  -1.091  10.561  10.975  1.2396  0.0989 -0.5253
  601MOL0     H79280  -1.102  10.536  11.149  0.6908 -0.0084  0.3700
  601MOL0     H79281  -1.197  10.296  10.975 -1.7309  0.6981 -0.7311
  601MOL0     H79282  -1.195  10.317  11.150  2.3510  2.0530  1.1493
  601MOL0     H79283  -1.356  10.442  10.914 -1.0839  0.5838 -0.2515
  601MOL0     H79284  -1.337  10.539  11.052 -0.6438 -0.5582 -2.7255
  601MOL0     H79285  -1.453  10.178  10.976 -0.1287  0.0633  0.4306
  601MOL0     H79286  -1.681  10.029  11.048 -0.2912 -0.6621  1.1799
  601MOL0     H79287  -1.807  10.128  11.103 -1.5632 -3.0173  2.2957
  601MOL0     H79288  -1.695  10.103  11.342  2.1786  2.3127 -0.2906
  601MOL0     H79289  -1.588   9.992  11.258 -0.3827 -0.3181  1.7993
  601MOL0     H79290  -1.741   9.823  11.246  2.0352  0.3651 -1.1913
  601MOL0     H79291  -1.793   9.910  11.387  1.1171 -1.2015 -0.3208
  601MOL0     H79292  -1.965  10.025  11.212  0.6674 -0.6312 -0.4951
  601MOL0     H79293  -1.981   9.862  11.290  2.0610 -3.7657 -1.8284
  601MOL0     H79294  -2.181   9.858  11.211 -0.0812 -2.7096  1.0678
  601MOL0     H79295  -2.372   9.775  11.098 -0.8897 -1.6986 -1.0747
  601MOL0     H79296  -2.729   9.637  11.000 -2.3731 -1.5236  1.2238
  601MOL0     H79297  -2.956   9.572  10.875  1.4813 -1.5474  2.2096
  601MOL0     H79298  -3.074   9.829  10.639  1.1218 -0.9272 -0.7089
  601MOL0     H79299  -3.146   9.732  10.755  2.0206  0.1836  1.4339
  601MOL0     H79300  -3.301   9.781  10.581 -0.2218 -0.8910  0.9971
  601MOL0     H79301  -3.284   9.608  10.587 -2.3163  0.4608  0.5790
  601MOL0     H79302  -3.144   9.597  10.392 -1.1325  0.6750  0.6449
  601MOL0     H79303  -3.130   9.778  10.393 -1.3696  1.7270  1.5267
  601MOL0     H79304  -3.294   9.684  10.207 -1.7499 -0.2657 -0.6434
  601MOL0     H79305  -3.411   9.666  10.343 -2.5504  3.3191  0.7102
  601MOL0     H79306  -3.400   9.892  10.408 -0.9845  0.8371  0.2830
  601MOL0     H79307  -3.436   9.877  10.228 -0.2340 -1.1924  0.2098
  601MOL0     H79308  -3.188   9.999  10.337 -2.3195 -0.4852  1.9504
  601MOL0     H79309  -3.323  10.061  10.243  1.2820  0.2357  1.8259
  601MOL0     H79310  -3.106   9.873  10.146  0.5294  0.8598  2.6980
  601MOL0     H79311  -3.268   9.863  10.073 -1.7548  2.3638  0.3421
  601MOL0     H79312  -3.144  10.137  10.095  1.4185 -0.1917 -0.1142
  601MOL0     H79313  -3.255  10.077   9.975  2.1150  4.9445  0.1156
  601MOL0     H79314  -2.831   9.792  10.541 -2.0918 -0.4536  1.0246
  601MOL0     H79315  -2.605   9.842  10.648  0.4686  1.4338  1.7779
  601MOL0     H79316  -2.143   9.774  10.727 -1.3828  0.3902  0.2189
  601MOL0     H79317  -1.954   9.846  10.842  0.0594 -3.5958 -0.7595
  601MOL0     H79318  -0.250  10.294  11.189  0.0263 -0.6000 -0.1261
  601MOL0     H79319  -0.050  10.178  11.115 -0.4600 -2.1619 -0.3145
  601MOL0     H79320   0.179   9.986  10.779  0.4120  0.1572  2.3102
  601MOL0     H79321   0.374   9.858  10.697 -2.7211  0.0261 -1.6584
  601MOL0     H79322   0.713   9.781  10.720 -0.2326  0.1857 -1.1958
  601MOL0     H79323   0.586   9.849  10.834 -0.0952 -1.4814 -0.9475
  601MOL0     H79324   0.720  10.035  10.903  2.6568  2.0339  0.4844
  601MOL0     H79325   0.813   9.879  10.923  0.4717  0.4750 -0.9132
  601MOL0     H79326   0.866  10.130  10.764  1.2110  0.4057  0.1763
  601MOL0     H79327   0.914   9.967  10.683  3.3053 -2.2996  2.3046
  601MOL0     H79328   1.077  10.118  10.842 -1.0345  0.9330  1.1150
  601MOL0     H79329   0.995  10.026  10.966 -2.2246  0.0640  0.4045
  601MOL0     H79330   1.224   9.732  10.739  0.2337 -0.4683  0.6438
  601MOL0     H79331   0.617  10.210  10.685  0.1074  0.6259  1.3006
  601MOL0     H79332   0.414  10.350  10.714  0.4548 -1.3312 -2.7096
  602MOL0     O79333   2.433   1.439   1.350 -0.2376  0.8123  0.1751
  602MOL0     C79334   2.523   1.410   1.272 -0.0995  0.5838  0.9228
  602MOL0     O79335   2.506   1.377   1.136 -0.0701 -0.0972  0.1482
  602MOL0     C79336   2.376   1.366   1.093 -0.1033 -1.0419  0.5834
  602MOL0     C79337   2.304   1.486   1.073  0.0785 -0.0388 -0.4156
  602MOL0     C79338   2.170   1.478   1.030  0.2383 -0.0111  0.3784
  602MOL0     C79339   2.113   1.354   0.998  0.1668  0.5695  0.0841
  602MOL0     O79340   1.981   1.339   0.966  0.2068 -0.7408  0.3696
  602MOL0     C79341   1.897   1.460   0.993 -1.0214  0.2670 -0.0062
  602MOL0     C79342   1.757   1.415   0.988 -0.3510  0.2130  1.0588
  602MOL0     C79343   1.717   1.322   0.865 -0.1233  0.5503 -0.7962
  602MOL0     C79344   1.568   1.299   0.880  0.3569 -0.0544 -0.3385
  602MOL0     C79345   1.526   1.174   0.797  0.3260  0.4375  0.1570
  602MOL0     C79346   1.382   1.191   0.772 -1.2379  0.1178  0.5179
  602MOL0     C79347   1.314   1.072   0.702 -0.1074 -1.1227  0.4020
  602MOL0     C79348   1.174   1.103   0.680 -0.0475 -0.0907  0.0552
  602MOL0     N79349   1.115   0.976   0.633  0.1670  0.2101 -0.2662
  602MOL0     C79350   1.033   0.896   0.709 -0.2481  0.7184 -0.0029
  602MOL0     C79351   0.981   0.807   0.623  1.1132  0.3771 -0.4496
  602MOL0     C79352   0.862   0.729   0.678 -0.8750  0.8374  0.5328
  602MOL0     C79353   0.874   0.576   0.673  0.5068 -0.3850 -0.6061
  602MOL0     C79354   0.919   0.526   0.545  0.8645 -0.5429  0.6794
  602MOL0     C79355   0.798   0.537   0.438  0.5220  0.2256 -0.8897
  602MOL0     O79356   0.674   0.485   0.500 -0.2405  0.1622  0.0128
  602MOL0     C79357   0.565   0.468   0.416 -0.0109  1.1480  0.1673
  602MOL0     C79358   0.453   0.413   0.482 -0.4045 -0.1345  0.5242
  602MOL0     C79359   0.332   0.391   0.418 -0.6986  0.5744 -0.1326
  602MOL0     C79360   0.313   0.425   0.279  0.4680  0.1338 -0.2340
  602MOL0     C79361   0.193   0.391   0.194 -0.7789  0.4475  0.5440
  602MOL0     O79362   0.079   0.350   0.258  0.3736  0.4601  0.6396
  602MOL0     C79363  -0.034   0.341   0.177 -0.0544 -0.4357  0.3376
  602MOL0     C79364  -0.107   0.226   0.171  0.6530 -0.1487 -0.6260
  602MOL0     C79365  -0.239   0.216   0.117  0.3492 -0.4201  0.6360
  602MOL0     C79366  -0.295   0.334   0.064  0.5886 -0.4368 -0.4770
  602MOL0     O79367  -0.421   0.345   0.014 -0.3596 -0.0310  0.5558
  602MOL0     C79368  -0.510   0.235   0.035  1.0812 -0.1238  0.1398
  602MOL0     C79369  -0.655   0.269   0.008  0.3925  0.3643  1.1632
  602MOL0     C79370  -0.760   0.189   0.082 -0.0599  0.8469  0.6910
  602MOL0     C79371  -0.897   0.235   0.028 -0.0178 -0.2844 -0.5575
  602MOL0     C79372  -1.008   0.154   0.104  0.1965 -0.8008  0.9473
  602MOL0     C79373  -1.139   0.132   0.020  0.5939 -0.0220  0.3233
  602MOL0     C79374  -1.119   0.051  -0.106  0.6471  1.1204 -0.1273
  602MOL0     C79375  -1.033  -0.081  -0.085  0.5849 -0.5375  1.1757
  602MOL0    Cl79376  -1.017  -0.171  -0.236 -0.1032  0.3348 -0.1161
  602MOL0     C79377  -0.221   0.457   0.065  0.0198 -0.4720 -0.5188
  602MOL0     C79378  -0.094   0.453   0.115 -0.3802 -0.4340  1.0927
  602MOL0     O79379   0.205   0.401   0.072 -0.6867 -0.5052 -1.0190
  602MOL0     C79380   0.427   0.482   0.219 -0.6836 -0.6752  0.2056
  602MOL0     C79381   0.551   0.502   0.283  0.7520 -0.0488  0.4946
  602MOL0     N79382   1.027   0.839   0.497  0.3074  0.5274 -0.0709
  602MOL0     N79383   1.112   0.928   0.508 -0.0522 -0.7112  0.3966
  602MOL0     C79384   2.190   1.239   0.993  0.5944  0.0467 -0.4172
  602MOL0     C79385   2.327   1.239   1.041  0.3099 -0.3820  0.4882
  602MOL0     C79386   2.658   1.397   1.325  0.2993 -0.8881 -1.4486
  602MOL0     C79387   2.752   1.321   1.266 -0.2949 -1.3829  0.0879
  602MOL0     C79388   2.869   1.289   1.336  0.3063  0.1189  0.5330
  602MOL0     C79389   2.896   1.350   1.461 -0.5627 -0.1226 -0.3596
  602MOL0     O79390   3.005   1.318   1.541  0.0871  0.6533 -0.5682
  602MOL0     C79391   3.129   1.263   1.478  0.4991  0.3579 -0.0181
  602MOL0     C79392   3.231   1.238   1.583  0.2624  0.4677 -0.4372
  602MOL0     C79393   3.242   1.353   1.681  0.2488  0.0399 -0.1724
  602MOL0     C79394   3.373   1.342   1.765 -0.0990  0.1474  0.3863
  602MOL0     C79395   3.493   1.357   1.693  0.0317  0.0867  0.9881
  602MOL0     C79396   3.586   1.404   1.628 -0.0517 -0.7080  0.6911
  602MOL0     C79397   2.794   1.423   1.525 -1.1335  0.4162 -0.2222
  602MOL0     C79398   2.683   1.452   1.455 -0.3506  0.4772  0.3075
  602MOL0     H79399   2.350   1.577   1.109  0.0949 -1.0088  2.2632
  602MOL0     H79400   2.120   1.572   1.009 -0.1572  0.2850  2.4520
  602MOL0     H79401   1.913   1.544   0.924 -1.4000  2.8388  2.8648
  602MOL0     H79402   1.906   1.493   1.097  0.9612 -0.0342 -0.0414
  602MOL0     H79403   1.691   1.500   0.972 -0.8138 -0.3394 -0.1444
  602MOL0     H79404   1.732   1.377   1.088  2.7699  0.5116  2.0445
  602MOL0     H79405   1.756   1.221   0.879 -1.8441 -0.4486 -2.6774
  602MOL0     H79406   1.755   1.344   0.765 -1.4397 -2.2350 -2.0274
  602MOL0     H79407   1.528   1.262   0.975 -2.3922 -0.5438 -1.5845
  602MOL0     H79408   1.519   1.392   0.851 -0.3592 -0.3707 -0.1769
  602MOL0     H79409   1.551   1.086   0.856 -0.2920 -0.2237 -0.5473
  602MOL0     H79410   1.577   1.166   0.700  0.1712 -0.5872  0.1521
  602MOL0     H79411   1.374   1.284   0.714 -0.0285  1.0987  1.8522
  602MOL0     H79412   1.324   1.212   0.863  1.3857  2.0352  1.8981
  602MOL0     H79413   1.368   1.049   0.610  0.3445 -1.8088  0.8303
  602MOL0     H79414   1.330   0.983   0.764 -0.5372 -1.5563 -0.0943
  602MOL0     H79415   1.150   1.188   0.616 -0.7279  0.8987  1.5824
  602MOL0     H79416   1.138   1.131   0.779  0.9662 -3.1987  1.4353
  602MOL0     H79417   1.031   0.909   0.816  1.8363 -2.0516  0.4821
  602MOL0     H79418   0.778   0.763   0.617  0.3783 -1.0006 -2.4277
  602MOL0     H79419   0.839   0.755   0.782 -1.5021 -0.3501  0.7031
  602MOL0     H79420   0.777   0.538   0.704 -0.3077  1.4335 -0.7971
  602MOL0     H79421   0.939   0.539   0.753  0.0626 -2.5225 -1.1817
  602MOL0     H79422   1.005   0.579   0.502 -0.7588  1.5078 -0.2312
  602MOL0     H79423   0.940   0.421   0.564 -0.7744 -0.9434  0.4180
  602MOL0     H79424   0.834   0.474   0.356 -0.0280  4.2980 -4.6325
  602MOL0     H79425   0.794   0.638   0.397  0.5659  0.0163 -1.4230
  602MOL0     H79426   0.446   0.391   0.588  0.8736  0.7463  0.8084
  602MOL0     H79427   0.252   0.338   0.468 -1.0926  0.8579 -0.4634
  602MOL0     H79428  -0.062   0.145   0.227 -0.6164  1.2983  2.7304
  602MOL0     H79429  -0.292   0.123   0.100 -0.9369  0.7811 -2.9797
  602MOL0     H79430  -0.507   0.214   0.143  0.1322 -0.3648  0.1285
  602MOL0     H79431  -0.483   0.149  -0.027 -2.0575 -0.8311 -0.4462
  602MOL0     H79432  -0.676   0.259  -0.099 -0.0840  0.5305  1.2349
  602MOL0     H79433  -0.655   0.376   0.034  0.8050  0.5804  0.2851
  602MOL0     H79434  -0.752   0.207   0.189 -0.8202 -2.8635  1.5170
  602MOL0     H79435  -0.765   0.081   0.070  1.3687  0.7830  0.4537
  602MOL0     H79436  -0.919   0.341   0.045 -0.2642 -0.4048 -0.1105
  602MOL0     H79437  -0.903   0.221  -0.081 -0.1973  2.1500 -0.9121
  602MOL0     H79438  -1.042   0.216   0.188  0.1284 -0.2504  0.5142
  602MOL0     H79439  -0.978   0.060   0.151  0.7759 -1.5355 -0.8372
  602MOL0     H79440  -1.181   0.230  -0.009  1.6378 -0.0458 -1.3917
  602MOL0     H79441  -1.218   0.075   0.070  2.0032 -0.7058  1.8743
  602MOL0     H79442  -1.213   0.023  -0.155  2.1451 -2.8712 -1.1893
  602MOL0     H79443  -1.073   0.122  -0.174 -1.3327  2.2089 -0.3903
  602MOL0     H79444  -1.082  -0.141  -0.007 -1.6660 -0.8226 -0.3516
  602MOL0     H79445  -0.938  -0.065  -0.034  0.9788 -2.7008  1.2160
  602MOL0     H79446  -0.253   0.554   0.028 -0.5893 -0.4453  0.0624
  602MOL0     H79447  -0.033   0.542   0.103 -0.5500 -0.0942  2.6605
  602MOL0     H79448   0.427   0.520   0.118 -0.5864 -0.8043  0.1561
  602MOL0     H79449   0.635   0.541   0.226 -0.7396 -0.5952 -2.2946
  602MOL0     H79450   2.149   1.140   0.979  1.7131 -0.6221  0.7841
  602MOL0     H79451   2.385   1.147   1.046 -1.2974 -1.5282 -0.8187
  602MOL0     H79452   2.734   1.292   1.163 -1.9809 -0.5725  0.1242
  602MOL0     H79453   2.937   1.221   1.286 -0.6688 -0.7518  0.3523
  602MOL0     H79454   3.168   1.349   1.423  1.7057 -0.6747 -0.8439
  602MOL0     H79455   3.121   1.176   1.411  2.6591  1.6253 -2.0607
  602MOL0     H79456   3.207   1.143   1.632 -0.1584 -0.2747 -2.0180
  602MOL0     H79457   3.325   1.223   1.530  0.4045 -3.4026  0.6081
  602MOL0     H79458   3.154   1.353   1.747  0.8738 -0.8585  0.6990
  602MOL0     H79459   3.242   1.446   1.624 -4.8692  1.3577  1.3965
  602MOL0     H79460   3.364   1.420   1.842 -2.0186  1.4528 -1.0685
  602MOL0     H79461   3.391   1.245   1.813 -0.1210 -0.0098  0.0759
  602MOL0     H79462   3.672   1.442   1.577 -0.0089  0.1995  1.4163
  602MOL0     H79463   2.806   1.464   1.625 -0.7854  0.1474 -0.1506
  602MOL0     H79464   2.606   1.512   1.501  1.0527  0.4387  2.8527
  603MOL0     O79465   3.506   7.697   2.513 -0.0999 -0.6473 -0.7197
  603MOL0     C79466   3.542   7.600   2.445  1.0464 -0.2185 -0.7651
  603MOL0     O79467   3.457   7.534   2.352 -0.0509  0.1469 -1.2236
  603MOL0     C79468   3.330   7.574   2.326 -0.4274  0.1671 -0.7996
  603MOL0     C79469   3.289   7.555   2.194  0.1960  0.1017  0.5689
  603MOL0     C79470   3.159   7.584   2.157 -0.4146 -0.5540  0.0113
  603MOL0     C79471   3.068   7.637   2.246 -0.8000  0.1798  0.0658
  603MOL0     O79472   2.952   7.680   2.202  0.1278  0.7603  0.3054
  603MOL0     C79473   2.951   7.822   2.201 -0.0986  0.3038 -0.0676
  603MOL0     C79474   2.825   7.865   2.123 -0.4102 -0.3233  0.5369
  603MOL0     C79475   2.690   7.858   2.204  0.2403 -0.3308  1.0835
  603MOL0     C79476   2.571   7.899   2.114  0.0322 -0.2218 -0.6521
  603MOL0     C79477   2.433   7.877   2.178  0.2200  0.7651  0.1067
  603MOL0     C79478   2.331   7.905   2.076  0.1635 -0.2794 -0.7334
  603MOL0     C79479   2.189   7.887   2.125  0.1894  0.7001  0.0081
  603MOL0     C79480   2.147   7.745   2.135 -0.7902  0.1006  0.5169
  603MOL0     N79481   2.062   7.687   2.027 -0.1092  0.0926  0.3585
  603MOL0     C79482   2.014   7.562   2.025  0.0247  0.6019 -1.2475
  603MOL0     C79483   1.930   7.547   1.922 -0.1677  0.4668  0.3146
  603MOL0     C79484   1.847   7.423   1.895  0.7753 -1.2845 -0.5430
  603MOL0     C79485   1.716   7.419   1.973  0.1293  0.5556  0.0552
  603MOL0     C79486   1.631   7.546   1.937  0.1765  0.0367 -0.7481
  603MOL0     C79487   1.477   7.517   1.956  0.0364 -0.3146  1.2319
  603MOL0     O79488   1.464   7.472   2.087  0.2569 -0.4998  0.2499
  603MOL0     C79489   1.343   7.420   2.139  0.1338  0.4483  0.6350
  603MOL0     C79490   1.328   7.370   2.267  0.4376  0.2441  0.4947
  603MOL0     C79491   1.204   7.333   2.312  0.0380  0.0136 -0.0190
  603MOL0     C79492   1.094   7.332   2.232  0.4093  0.3963  0.2773
  603MOL0     C79493   0.948   7.295   2.290  0.2127 -0.2906  0.6547
  603MOL0     O79494   0.848   7.304   2.205 -0.4004  0.4333  0.3505
  603MOL0     C79495   0.715   7.288   2.248  0.3013 -1.4339  0.4396
  603MOL0     C79496   0.659   7.355   2.359 -0.8284  0.4261  0.2690
  603MOL0     C79497   0.524   7.340   2.392 -0.0840 -0.3455  0.4076
  603MOL0     C79498   0.442   7.262   2.314 -0.5025 -0.0846  1.0427
  603MOL0     O79499   0.305   7.250   2.330  0.0749  0.2513  0.5425
  603MOL0     C79500   0.225   7.325   2.412 -0.5683  0.0084  0.2012
  603MOL0     C79501   0.200   7.261   2.551  0.1987 -0.8330  0.3447
  603MOL0     C79502   0.059   7.290   2.606 -0.7907 -0.3000  0.0447
  603MOL0     C79503   0.044   7.243   2.744 -0.7752 -0.3079 -0.1684
  603MOL0     C79504  -0.097   7.290   2.801 -1.6483  0.5935 -0.6874
  603MOL0     C79505  -0.129   7.252   2.939 -0.1784  0.2243 -0.2096
  603MOL0     C79506  -0.015   7.276   3.043  0.1658  0.6840  0.6199
  603MOL0     C79507  -0.062   7.276   3.195 -0.0047  0.1064 -0.2205
  603MOL0    Cl79508  -0.162   7.426   3.214  0.2280  0.4878 -0.3193
  603MOL0     C79509   0.500   7.195   2.206 -0.0966  0.0107  0.1883
  603MOL0     C79510   0.631   7.211   2.170  0.2235 -0.0646 -0.0524
  603MOL0     O79511   0.940   7.270   2.412 -0.5952 -0.2931 -0.0186
  603MOL0     C79512   1.110   7.389   2.102 -0.1978  0.4387  0.3514
  603MOL0     C79513   1.231   7.428   2.049  0.6287 -0.1283 -1.0037
  603MOL0     N79514   1.914   7.665   1.853  0.5739  0.0711  0.0190
  603MOL0     N79515   1.994   7.745   1.922  0.4414 -0.2593  0.1350
  603MOL0     C79516   3.102   7.657   2.376  0.3078  0.8674  0.3158
  603MOL0     C79517   3.235   7.621   2.418 -0.1921 -0.5397  1.0065
  603MOL0     C79518   3.672   7.539   2.475 -0.0874  0.6694 -0.2223
  603MOL0     C79519   3.756   7.601   2.568  0.4513 -1.4712 -0.5621
  603MOL0     C79520   3.871   7.539   2.609 -1.0408 -0.4358 -0.1514
  603MOL0     C79521   3.912   7.414   2.548  0.4445  0.2802 -0.5793
  603MOL0     O79522   4.032   7.345   2.568  0.5093  0.0361  0.3980
  603MOL0     C79523   4.113   7.384   2.675 -0.3055  0.5704 -0.2313
  603MOL0     C79524   4.218   7.492   2.646  0.1080 -0.7608 -0.4391
  603MOL0     C79525   4.297   7.523   2.773  0.5354  0.3488 -0.2560
  603MOL0     C79526   4.201   7.568   2.891 -1.5032  0.1619  0.3997
  603MOL0     C79527   4.121   7.685   2.859  0.5227 -0.1034 -0.6022
  603MOL0     C79528   4.049   7.779   2.839  0.2793  0.6314 -0.0226
  603MOL0     C79529   3.828   7.361   2.451  0.5042  0.0304 -0.3489
  603MOL0     C79530   3.713   7.420   2.412  0.0777 -0.8141  0.4059
  603MOL0     H79531   3.352   7.508   2.119 -0.1732 -2.2869  1.6808
  603MOL0     H79532   3.130   7.580   2.052 -2.6816  1.5835  0.4569
  603MOL0     H79533   3.034   7.859   2.140  0.5179 -0.5694  0.2226
  603MOL0     H79534   2.951   7.868   2.300 -0.5230  1.2977 -0.5121
  603MOL0     H79535   2.806   7.806   2.033 -1.3182 -0.0096  0.5072
  603MOL0     H79536   2.839   7.966   2.086 -2.3134 -0.4874 -0.7628
  603MOL0     H79537   2.700   7.927   2.289 -1.1593 -0.9838  1.8090
  603MOL0     H79538   2.679   7.754   2.236 -0.2368 -0.0670  1.8088
  603MOL0     H79539   2.588   8.005   2.096  2.4272 -0.3408  0.5686
  603MOL0     H79540   2.567   7.837   2.024 -2.7873 -0.2819 -0.5803
  603MOL0     H79541   2.418   7.934   2.271 -0.4374  0.3374  0.2706
  603MOL0     H79542   2.426   7.775   2.215  3.3540  0.8120  1.1275
  603MOL0     H79543   2.351   7.840   1.990  0.6134 -2.7532  1.1269
  603MOL0     H79544   2.349   8.012   2.062  1.6324 -0.2044  1.2809
  603MOL0     H79545   2.162   7.929   2.223 -0.2001 -0.7475  0.5444
  603MOL0     H79546   2.117   7.935   2.058 -2.2682 -4.2548 -1.3266
  603MOL0     H79547   2.086   7.739   2.226 -1.2465  5.0845  0.8337
  603MOL0     H79548   2.240   7.688   2.143 -0.2236  1.0826  1.0463
  603MOL0     H79549   2.043   7.494   2.104  2.1206  1.3009 -1.3727
  603MOL0     H79550   1.912   7.338   1.916 -0.5153 -2.0136  0.6662
  603MOL0     H79551   1.812   7.409   1.792 -2.0107 -1.0811  0.3114
  603MOL0     H79552   1.738   7.409   2.080 -1.6632  2.3703  0.6785
  603MOL0     H79553   1.649   7.335   1.954  0.9476 -0.0433 -0.2289
  603MOL0     H79554   1.652   7.621   2.014 -3.0663  0.6367 -0.3045
  603MOL0     H79555   1.653   7.587   1.838 -0.2993 -0.2384 -0.9756
  603MOL0     H79556   1.448   7.438   1.886  2.0401  0.1572 -0.2078
  603MOL0     H79557   1.414   7.606   1.944  2.7351  1.6968  1.0833
  603MOL0     H79558   1.421   7.373   2.324  0.3257 -1.7829  0.8558
  603MOL0     H79559   1.193   7.290   2.411  3.5022  1.6476  1.2535
  603MOL0     H79560   0.714   7.422   2.425  0.5535 -0.4116  0.0080
  603MOL0     H79561   0.471   7.396   2.470 -0.2688  2.0707 -1.3259
  603MOL0     H79562   0.133   7.325   2.354  0.8712 -0.2492 -2.1889
  603MOL0     H79563   0.255   7.428   2.428 -1.0803  0.2147 -0.1383
  603MOL0     H79564   0.273   7.313   2.614 -0.0537 -1.6495  1.3258
  603MOL0     H79565   0.220   7.154   2.551 -1.2474 -1.1242  0.2359
  603MOL0     H79566  -0.014   7.242   2.540  1.1885  1.1699 -3.5233
  603MOL0     H79567   0.035   7.397   2.603  1.2433  0.1994  0.3422
  603MOL0     H79568   0.046   7.134   2.748  2.8607 -0.6400 -3.9812
  603MOL0     H79569   0.124   7.286   2.806  0.9078  3.2877 -4.2648
  603MOL0     H79570  -0.168   7.229   2.744 -0.3864  0.2990 -2.0292
  603MOL0     H79571  -0.113   7.398   2.788  1.8480  1.5358  1.3202
  603MOL0     H79572  -0.145   7.144   2.947 -1.5603  0.4742  0.8600
  603MOL0     H79573  -0.226   7.294   2.967  0.3066  2.7664 -1.9984
  603MOL0     H79574   0.061   7.198   3.034 -0.5368  0.1947 -1.7400
  603MOL0     H79575   0.040   7.369   3.025  0.9060  0.4629  1.7050
  603MOL0     H79576   0.024   7.290   3.261  0.4274 -1.6943 -0.3362
  603MOL0     H79577  -0.123   7.190   3.224  0.3046 -0.4661 -1.1781
  603MOL0     H79578   0.446   7.129   2.138  0.7177  1.1819 -1.6687
  603MOL0     H79579   0.675   7.161   2.085 -0.3131  0.5599 -0.7076
  603MOL0     H79580   1.026   7.404   2.034  0.8891 -0.4319 -1.2459
  603MOL0     H79581   1.231   7.473   1.950 -0.2928  0.7665 -0.6123
  603MOL0     H79582   3.020   7.692   2.437 -0.6188 -0.2113 -0.2862
  603MOL0     H79583   3.264   7.650   2.519  0.8923 -1.9164  1.1153
  603MOL0     H79584   3.728   7.698   2.607  0.6195 -1.2325 -1.0363
  603MOL0     H79585   3.941   7.594   2.670 -3.1506  3.5738 -0.9870
  603MOL0     H79586   4.164   7.297   2.718 -0.5371  0.6371  0.1767
  603MOL0     H79587   4.049   7.414   2.759  0.5693 -1.1037  1.0997
  603MOL0     H79588   4.289   7.446   2.577  2.2964  1.9804 -0.2017
  603MOL0     H79589   4.168   7.575   2.596  1.0249 -0.9958 -1.7849
  603MOL0     H79590   4.378   7.594   2.751 -0.6909  1.6431 -0.7495
  603MOL0     H79591   4.348   7.436   2.815  2.0705  0.8758 -0.9459
  603MOL0     H79592   4.150   7.477   2.923 -1.6811  0.8372  2.1535
  603MOL0     H79593   4.270   7.596   2.971  0.4438  3.9903 -2.3117
  603MOL0     H79594   3.998   7.872   2.821  2.4085  2.0855  1.1000
  603MOL0     H79595   3.846   7.265   2.404 -1.5127 -0.3403 -0.4561
  603MOL0     H79596   3.644   7.373   2.343  0.2490 -2.5307  1.3652
  604MOL0     O79597   4.142   3.301   0.791 -0.5889  0.0471 -0.7616
  604MOL0     C79598   4.152   3.190   0.846 -0.3113  0.2123 -0.2227
  604MOL0     O79599   4.053   3.131   0.917 -0.0388 -0.4673  0.3516
  604MOL0     C79600   3.938   3.202   0.955  0.3049  0.1852 -1.3340
  604MOL0     C79601   3.813   3.139   0.951 -0.4375  0.2710  0.4143
  604MOL0     C79602   3.692   3.202   0.990 -0.2251 -0.5516 -0.0579
  604MOL0     C79603   3.696   3.340   1.023  0.1112 -0.5890 -0.0773
  604MOL0     O79604   3.580   3.413   1.069  0.1176  0.4819  0.7307
  604MOL0     C79605   3.450   3.348   1.068 -0.2886  0.0112  0.2486
  604MOL0     C79606   3.337   3.450   1.098 -0.0160  0.5859  0.4287
  604MOL0     C79607   3.207   3.392   1.145 -0.8748 -0.3388  0.6063
  604MOL0     C79608   3.219   3.290   1.259  0.6484  0.4453 -0.3062
  604MOL0     C79609   3.104   3.258   1.352 -0.2058  0.4661 -0.6570
  604MOL0     C79610   2.976   3.219   1.276 -0.3181 -0.4081  0.1136
  604MOL0     C79611   2.865   3.155   1.363 -0.3216  0.1572 -0.5974
  604MOL0     C79612   2.766   3.079   1.301  0.2490  0.2437  0.6421
  604MOL0     N79613   2.661   3.165   1.237 -0.2024  0.2301 -0.7103
  604MOL0     C79614   2.570   3.246   1.298  0.2098 -0.1720 -0.3628
  604MOL0     C79615   2.468   3.275   1.208 -0.1844  0.6753 -0.2859
  604MOL0     C79616   2.336   3.346   1.225  0.0611  0.7130 -0.9743
  604MOL0     C79617   2.342   3.490   1.168 -0.3934  0.0809 -0.0212
  604MOL0     C79618   2.222   3.564   1.201  0.2364 -0.8616 -0.4228
  604MOL0     C79619   2.236   3.717   1.193  0.1667  0.7163 -0.5290
  604MOL0     O79620   2.110   3.782   1.224  0.3909  0.0582  0.8380
  604MOL0     C79621   1.990   3.743   1.170 -0.0146 -0.9429  0.4017
  604MOL0     C79622   1.976   3.703   1.032 -0.2792 -0.7762 -1.2603
  604MOL0     C79623   1.853   3.663   0.987 -1.1488  0.1567  0.0928
  604MOL0     C79624   1.738   3.664   1.068 -0.1265  0.4570 -0.1687
  604MOL0     C79625   1.611   3.616   1.012 -0.5143  0.8528 -0.4432
  604MOL0     O79626   1.523   3.569   1.101  0.6296 -0.0909  0.0828
  604MOL0     C79627   1.395   3.551   1.056 -0.8448 -0.4945 -0.1558
  604MOL0     C79628   1.301   3.652   1.059 -0.6422  0.6148 -0.1640
  604MOL0     C79629   1.167   3.628   1.044  0.5703  0.0468 -1.0519
  604MOL0     C79630   1.110   3.498   1.008 -0.1143 -0.9178  0.9234
  604MOL0     O79631   0.980   3.478   0.970  0.5539 -0.4626 -0.7031
  604MOL0     C79632   0.924   3.343   0.966  0.0921  0.2187 -0.1049
  604MOL0     C79633   0.771   3.332   0.954 -0.5192 -0.2632 -0.5080
  604MOL0     C79634   0.739   3.190   0.995  0.2446  0.7600  0.1373
  604MOL0     C79635   0.588   3.152   1.009 -0.9688  0.3139  0.1065
  604MOL0     C79636   0.549   3.025   0.936  0.1416 -0.2232  0.9052
  604MOL0     C79637   0.411   2.979   0.967 -0.2676  0.1605  0.8191
  604MOL0     C79638   0.379   2.851   0.877  0.1802 -1.1009  0.0046
  604MOL0     C79639   0.239   2.806   0.904  0.3104  0.1683 -0.7581
  604MOL0    Cl79640   0.118   2.907   0.807  0.3409  0.0315  0.1477
  604MOL0     C79641   1.214   3.396   1.003  0.6773  0.7871 -0.7168
  604MOL0     C79642   1.346   3.422   1.031 -0.7747 -0.0774  0.5422
  604MOL0     O79643   1.591   3.619   0.888 -0.2376 -0.0478 -0.5034
  604MOL0     C79644   1.750   3.712   1.200  0.0768  0.6499 -0.4797
  604MOL0     C79645   1.874   3.755   1.247  0.0460 -0.4360 -0.6613
  604MOL0     N79646   2.508   3.214   1.094 -0.1738  0.0584 -0.0826
  604MOL0     N79647   2.619   3.147   1.112 -0.0853  0.2053  0.0376
  604MOL0     C79648   3.818   3.404   1.033 -0.4839 -0.4819  0.5355
  604MOL0     C79649   3.943   3.339   1.005  0.3155 -0.3427 -0.0931
  604MOL0     C79650   4.277   3.111   0.815 -0.8377 -0.3548  0.2234
  604MOL0     C79651   4.394   3.175   0.759 -0.4817 -0.9224  0.2478
  604MOL0     C79652   4.512   3.097   0.731  0.0309 -0.3632 -0.5036
  604MOL0     C79653   4.514   2.961   0.751 -1.0749  0.2806  0.6166
  604MOL0     O79654   4.622   2.875   0.730  0.2817  0.5619  0.7292
  604MOL0     C79655   4.754   2.928   0.703 -0.5399 -0.3374 -0.2737
  604MOL0     C79656   4.831   2.836   0.609 -0.8002 -0.4223  0.9800
  604MOL0     C79657   4.972   2.888   0.569 -0.2880 -0.1661 -0.0340
  604MOL0     C79658   5.056   2.771   0.505  0.0658  0.7082 -0.4343
  604MOL0     C79659   5.185   2.808   0.443 -0.0108 -0.4211  0.2017
  604MOL0     C79660   5.294   2.853   0.408 -0.2128 -0.2114  0.4440
  604MOL0     C79661   4.405   2.895   0.804  0.9573 -0.3036 -0.8824
  604MOL0     C79662   4.289   2.971   0.839 -0.7451  0.1971  0.7283
  604MOL0     H79663   3.815   3.033   0.931  1.8241  0.4528 -0.5192
  604MOL0     H79664   3.601   3.144   0.981  0.1913 -1.0663 -1.1900
  604MOL0     H79665   3.448   3.266   1.140  0.2968  1.2141  1.6916
  604MOL0     H79666   3.431   3.307   0.968  0.2545 -0.6709  0.4145
  604MOL0     H79667   3.319   3.513   1.011  1.9616 -0.3531 -0.7448
  604MOL0     H79668   3.359   3.508   1.188  1.9071  0.9163 -0.2041
  604MOL0     H79669   3.167   3.345   1.054  0.2360  0.1303 -0.1438
  604MOL0     H79670   3.133   3.467   1.176 -3.9470 -2.7656 -0.2317
  604MOL0     H79671   3.249   3.197   1.210 -1.9830  0.0050 -1.2423
  604MOL0     H79672   3.305   3.329   1.315  1.1521  1.8602 -1.9882
  604MOL0     H79673   3.086   3.342   1.420  1.3268  0.7470 -0.5728
  604MOL0     H79674   3.136   3.178   1.419  2.0653  0.7142 -1.3778
  604MOL0     H79675   3.010   3.135   1.214  1.0997 -1.4010  2.1296
  604MOL0     H79676   2.934   3.297   1.212 -0.6555  1.3847  2.3962
  604MOL0     H79677   2.917   3.083   1.427 -1.3057 -0.8727 -0.9247
  604MOL0     H79678   2.831   3.234   1.431 -1.5730  0.4421 -1.5140
  604MOL0     H79679   2.718   3.010   1.372  2.3442 -1.5693  0.3969
  604MOL0     H79680   2.801   3.017   1.219 -1.5813 -1.1333  0.8290
  604MOL0     H79681   2.559   3.272   1.403  2.0338  0.9930 -0.4032
  604MOL0     H79682   2.323   3.353   1.333  0.2635 -2.5722 -0.6268
  604MOL0     H79683   2.253   3.288   1.183 -0.1920  0.3033  0.0471
  604MOL0     H79684   2.340   3.492   1.059 -0.3768  2.1991 -0.0205
  604MOL0     H79685   2.414   3.548   1.227 -1.2039 -0.2738  1.3767
  604MOL0     H79686   2.156   3.521   1.125  2.5468  0.8735 -3.7176
  604MOL0     H79687   2.188   3.539   1.301 -1.8375  0.0117 -0.8594
  604MOL0     H79688   2.279   3.737   1.094  2.0848  4.9270  0.9335
  604MOL0     H79689   2.302   3.756   1.271 -1.8046  2.5109  0.3216
  604MOL0     H79690   2.065   3.700   0.971  1.5200  1.6206  0.9901
  604MOL0     H79691   1.849   3.652   0.879  2.6682  2.3464 -0.4435
  604MOL0     H79692   1.349   3.748   1.079  1.4078 -0.4104  0.0752
  604MOL0     H79693   1.098   3.711   1.051  0.7602  0.4683 -3.4296
  604MOL0     H79694   0.962   3.297   1.058  1.3827  0.3587 -0.5507
  604MOL0     H79695   0.958   3.291   0.876 -1.3271  0.4796 -0.8053
  604MOL0     H79696   0.745   3.349   0.849  0.3847  2.1518 -0.3879
  604MOL0     H79697   0.721   3.416   1.003 -0.8615 -1.3562  1.0935
  604MOL0     H79698   0.775   3.174   1.097 -3.0839 -0.1542  1.3171
  604MOL0     H79699   0.787   3.116   0.930 -1.2653 -0.8813  0.7969
  604MOL0     H79700   0.577   3.139   1.117  0.9718 -0.1007  0.2871
  604MOL0     H79701   0.520   3.232   0.978 -4.4519 -2.6077 -0.3709
  604MOL0     H79702   0.619   2.945   0.963  0.9948 -0.0032 -0.4891
  604MOL0     H79703   0.548   3.034   0.826  0.9961  2.4247  1.0336
  604MOL0     H79704   0.333   3.055   0.964 -1.8705 -1.4284 -0.9696
  604MOL0     H79705   0.408   2.960   1.074  1.5303  0.3868  0.9332
  604MOL0     H79706   0.377   2.890   0.775  2.2513 -2.0306 -0.4490
  604MOL0     H79707   0.458   2.776   0.889  2.5341  1.2780  0.2626
  604MOL0     H79708   0.221   2.804   1.011 -1.0518 -1.1499 -0.9687
  604MOL0     H79709   0.227   2.704   0.864 -0.8778 -0.1866  0.4306
  604MOL0     H79710   1.188   3.294   0.976  0.2872  0.7596 -0.2487
  604MOL0     H79711   1.418   3.341   1.044 -2.1407 -1.0093  2.8955
  604MOL0     H79712   1.671   3.728   1.273  0.5416  3.1057 -0.4256
  604MOL0     H79713   1.876   3.802   1.344 -0.8479  0.4993 -1.0856
  604MOL0     H79714   3.823   3.511   1.045  0.5901 -0.2093 -1.7642
  604MOL0     H79715   4.032   3.397   1.024 -0.2577 -0.3645  3.2789
  604MOL0     H79716   4.388   3.281   0.737 -0.6468 -0.8743  0.5183
  604MOL0     H79717   4.580   3.159   0.673 -0.1357  0.1980 -0.1099
  604MOL0     H79718   4.805   2.935   0.800 -2.6599 -0.5167  0.9184
  604MOL0     H79719   4.749   3.031   0.668 -0.6068  0.3640  1.6930
  604MOL0     H79720   4.845   2.740   0.660  1.0667  0.9207  3.2068
  604MOL0     H79721   4.766   2.823   0.522  0.2446  1.2148 -0.0846
  604MOL0     H79722   5.011   2.931   0.662 -0.6625  0.4064 -0.1365
  604MOL0     H79723   4.975   2.974   0.502  1.0584  1.1514  1.6289
  604MOL0     H79724   5.077   2.701   0.585  1.3278 -1.1370 -2.2646
  604MOL0     H79725   5.001   2.715   0.429  2.3197  1.8658 -3.1137
  604MOL0     H79726   5.394   2.871   0.372 -0.5825 -0.0951 -0.5466
  604MOL0     H79727   4.418   2.788   0.823 -0.6970 -1.0711 -3.5427
  604MOL0     H79728   4.215   2.902   0.879 -0.1446  0.7733  2.9479
  605MOL0     O79729   8.429   6.709   4.204  0.0573  0.1143  0.4302
  605MOL0     C79730   8.427   6.824   4.146 -0.3890 -0.1775  0.3055
  605MOL0     O79731   8.511   6.924   4.175 -0.0708  0.3400 -0.6444
  605MOL0     C79732   8.630   6.896   4.229  0.2415 -0.1916  0.2438
  605MOL0     C79733   8.681   6.981   4.327 -0.4267 -0.1969  0.4228
  605MOL0     C79734   8.813   6.966   4.385  0.7525 -0.5164  0.4313
  605MOL0     C79735   8.887   6.856   4.339 -0.6016 -0.5073  0.4122
  605MOL0     O79736   9.018   6.827   4.368 -0.3515  0.2794  0.5014
  605MOL0     C79737   9.048   6.849   4.510 -0.2399  0.5056  0.4490
  605MOL0     C79738   9.169   6.951   4.520  0.2849  0.5157  0.6876
  605MOL0     C79739   9.211   6.961   4.665 -0.3376 -0.6440 -0.7048
  605MOL0     C79740   9.346   7.036   4.673  0.8692  0.1220 -0.4494
  605MOL0     C79741   9.388   7.055   4.819 -0.0369 -0.2380  0.5662
  605MOL0     C79742   9.455   6.923   4.880 -0.4140 -0.0205  0.3294
  605MOL0     C79743   9.481   6.931   5.036  0.1521  0.3821  0.0521
  605MOL0     C79744   9.361   6.932   5.121  0.2023  0.2342  0.0079
  605MOL0     N79745   9.271   6.824   5.084  0.1249  0.7208 -0.0610
  605MOL0     C79746   9.287   6.697   5.131 -0.3164  0.3893 -0.2204
  605MOL0     C79747   9.206   6.624   5.053 -0.2138 -0.2867  0.0850
  605MOL0     C79748   9.174   6.480   5.077 -1.0060  0.2638  0.4114
  605MOL0     C79749   9.016   6.456   5.083  0.2855  0.1828  0.7335
  605MOL0     C79750   8.954   6.439   4.944 -0.3183 -0.0140  0.0348
  605MOL0     C79751   8.804   6.438   4.943 -0.7653 -0.3409 -0.2330
  605MOL0     O79752   8.757   6.306   4.983 -0.1741  0.2888  0.2373
  605MOL0     C79753   8.622   6.291   5.021 -0.3512 -1.0049  0.2305
  605MOL0     C79754   8.518   6.360   4.947 -0.6689 -0.0662  0.4291
  605MOL0     C79755   8.382   6.337   4.976  0.4072  0.3482  0.1992
  605MOL0     C79756   8.348   6.250   5.087 -0.1187 -0.0490 -0.6247
  605MOL0     C79757   8.209   6.234   5.135  0.5522 -0.2209 -0.1252
  605MOL0     O79758   8.111   6.304   5.063 -0.2624 -0.5342 -0.4709
  605MOL0     C79759   7.980   6.302   5.094 -0.4786  0.1799  0.8050
  605MOL0     C79760   7.886   6.308   4.987 -0.3209  0.6138  0.1659
  605MOL0     C79761   7.750   6.291   5.012 -0.4967 -0.3969  0.7874
  605MOL0     C79762   7.687   6.281   5.138 -0.1421 -0.2534  0.7732
  605MOL0     O79763   7.547   6.274   5.144 -0.0496 -0.3277  0.9799
  605MOL0     C79764   7.490   6.274   5.275 -0.8088 -0.7613  0.3492
  605MOL0     C79765   7.348   6.223   5.264 -0.3942  0.5366 -0.7258
  605MOL0     C79766   7.276   6.233   5.401 -0.4422 -0.9584  0.1414
  605MOL0     C79767   7.132   6.183   5.373 -0.5233  0.1924 -0.0409
  605MOL0     C79768   7.065   6.149   5.498  0.2496  0.6963 -0.2026
  605MOL0     C79769   6.921   6.101   5.480  0.4132 -0.2924 -1.0089
  605MOL0     C79770   6.853   6.067   5.621  0.0000 -0.6245  0.4310
  605MOL0     C79771   6.722   6.000   5.615  0.7131 -0.0170  0.4714
  605MOL0    Cl79772   6.665   5.957   5.774 -0.0419 -0.5615  0.0741
  605MOL0     C79773   7.780   6.277   5.243  1.4629 -0.1614  0.5449
  605MOL0     C79774   7.916   6.277   5.222  0.1154  0.0537  0.1868
  605MOL0     O79775   8.186   6.162   5.231 -0.4158  0.1824  0.5526
  605MOL0     C79776   8.451   6.183   5.154 -0.2666 -0.4462 -0.8661
  605MOL0     C79777   8.590   6.205   5.119  0.5434 -0.6949  0.4307
  605MOL0     N79778   9.145   6.704   4.957  0.2155  0.2492  0.5793
  605MOL0     N79779   9.163   6.824   4.994 -1.0548  0.4878  0.5661
  605MOL0     C79780   8.835   6.771   4.244 -0.0176  0.0839 -0.0048
  605MOL0     C79781   8.707   6.791   4.189  0.1085  0.6265  0.7502
  605MOL0     C79782   8.318   6.844   4.052 -0.0932 -1.1481  1.4995
  605MOL0     C79783   8.341   6.922   3.934 -0.2847  0.3123 -1.1552
  605MOL0     C79784   8.240   6.956   3.850 -0.1421  0.2450  0.5233
  605MOL0     C79785   8.109   6.913   3.876  0.3520  0.1064  1.3924
  605MOL0     O79786   7.991   6.941   3.799 -0.4211  0.1094  0.5893
  605MOL0     C79787   8.018   7.000   3.671 -0.6415 -0.3644  0.2142
  605MOL0     C79788   8.092   6.905   3.569 -0.5316  0.1251  1.1614
  605MOL0     C79789   8.011   6.767   3.552  1.0637 -0.0610  0.4473
  605MOL0     C79790   7.887   6.779   3.457 -0.0875 -0.3334  0.8391
  605MOL0     C79791   7.795   6.672   3.508 -0.3502  0.1060 -0.2923
  605MOL0     C79792   7.730   6.582   3.553 -0.0167  0.0944  0.4182
  605MOL0     C79793   8.081   6.843   3.993 -0.3293  0.4638 -0.7807
  605MOL0     C79794   8.181   6.805   4.078  0.3930  0.1114  0.4020
  605MOL0     H79795   8.617   7.057   4.372 -0.6272  0.1810 -0.4853
  605MOL0     H79796   8.847   7.034   4.462  0.2403 -0.4485  0.5977
  605MOL0     H79797   9.086   6.757   4.555 -0.3057  0.8614  1.2539
  605MOL0     H79798   8.967   6.893   4.569  0.2473  0.3421  1.2479
  605MOL0     H79799   9.138   7.051   4.489 -1.1078  0.6447  2.3672
  605MOL0     H79800   9.253   6.914   4.459 -0.7930  1.4438 -1.4572
  605MOL0     H79801   9.225   6.860   4.702 -0.2441 -0.5951 -0.6085
  605MOL0     H79802   9.128   7.007   4.719 -1.9125  0.6535 -3.9421
  605MOL0     H79803   9.418   6.969   4.624 -0.5007 -2.1402  0.4991
  605MOL0     H79804   9.339   7.124   4.607  1.0748 -0.1015 -0.7749
  605MOL0     H79805   9.297   7.073   4.877 -1.5751 -2.6392 -0.9098
  605MOL0     H79806   9.454   7.142   4.829 -0.1405  0.2422 -2.2905
  605MOL0     H79807   9.549   6.904   4.827  0.5161  0.3099  1.8224
  605MOL0     H79808   9.392   6.838   4.852 -0.7670  0.8555 -1.6855
  605MOL0     H79809   9.536   6.841   5.067  3.0443  2.7772  2.6140
  605MOL0     H79810   9.536   7.022   5.061  0.5133 -0.0560  0.9159
  605MOL0     H79811   9.298   7.021   5.116  1.2763  1.0673  0.7939
  605MOL0     H79812   9.399   6.917   5.223 -2.5484  1.1025  1.2654
  605MOL0     H79813   9.342   6.668   5.220  1.1174  2.5212 -0.3222
  605MOL0     H79814   9.226   6.451   5.169 -0.5352  0.5124  0.2323
  605MOL0     H79815   9.216   6.415   5.000 -0.8717  0.8718 -0.0416
  605MOL0     H79816   8.965   6.543   5.126  0.6081  0.3993  0.6851
  605MOL0     H79817   8.998   6.358   5.128 -2.7218  0.9209  1.3204
  605MOL0     H79818   8.989   6.518   4.876 -2.0811  0.4773 -0.3400
  605MOL0     H79819   8.999   6.349   4.903  2.1182  0.7020  0.9355
  605MOL0     H79820   8.776   6.459   4.840 -0.9586 -1.6582 -0.4659
  605MOL0     H79821   8.753   6.513   5.004  0.6642 -0.2606  0.9229
  605MOL0     H79822   8.542   6.409   4.854  0.6921 -1.9064 -0.2585
  605MOL0     H79823   8.316   6.403   4.921  2.6264 -0.0452 -3.3176
  605MOL0     H79824   7.905   6.312   4.881  0.5799  0.3125  0.3053
  605MOL0     H79825   7.672   6.298   4.937  1.1476  0.2615 -0.9304
  605MOL0     H79826   7.485   6.381   5.298  0.5434 -0.3362 -1.1548
  605MOL0     H79827   7.547   6.225   5.354  1.4401  0.7649 -0.2254
  605MOL0     H79828   7.349   6.121   5.225  2.2408  0.5564 -0.8699
  605MOL0     H79829   7.286   6.274   5.190 -0.8612  0.1801 -0.5831
  605MOL0     H79830   7.278   6.336   5.438  0.7273 -0.6164 -0.8107
  605MOL0     H79831   7.315   6.168   5.480  0.9061  0.2270  0.5026
  605MOL0     H79832   7.081   6.261   5.316 -0.4735  1.2345  1.2975
  605MOL0     H79833   7.132   6.092   5.312 -0.1888  1.6239 -2.3100
  605MOL0     H79834   7.050   6.242   5.555  0.0228  0.6825 -0.2360
  605MOL0     H79835   7.129   6.078   5.552  0.9747  1.0437 -0.5946
  605MOL0     H79836   6.921   6.007   5.424  1.4719 -0.6226 -0.4702
  605MOL0     H79837   6.853   6.172   5.430  2.0604  2.0161 -0.1399
  605MOL0     H79838   6.920   5.989   5.660  0.7623 -0.6548 -0.8606
  605MOL0     H79839   6.849   6.158   5.681 -1.9645  1.4035 -2.4961
  605MOL0     H79840   6.732   5.908   5.557  0.4823  0.4579 -0.3291
  605MOL0     H79841   6.643   6.065   5.575  1.7021  0.3336 -0.9907
  605MOL0     H79842   7.759   6.271   5.349 -1.5833  0.2956  0.0794
  605MOL0     H79843   7.984   6.280   5.306  0.6874 -1.6134 -0.1744
  605MOL0     H79844   8.432   6.118   5.239  1.5596  1.1643  0.8723
  605MOL0     H79845   8.677   6.173   5.177  0.9591  1.3842  1.0451
  605MOL0     H79846   8.894   6.682   4.222  1.4372 -0.4377  4.8108
  605MOL0     H79847   8.669   6.723   4.114 -1.3469  2.6241 -0.4268
  605MOL0     H79848   8.442   6.950   3.904  0.1216 -2.7259 -3.1432
  605MOL0     H79849   8.269   7.009   3.760 -0.7946 -0.5049 -0.1580
  605MOL0     H79850   8.063   7.100   3.682 -0.0423 -0.5177 -0.7215
  605MOL0     H79851   7.922   7.015   3.622 -0.9064 -2.8364 -0.1136
  605MOL0     H79852   8.101   6.953   3.471 -1.7078 -1.9183 -0.0402
  605MOL0     H79853   8.190   6.876   3.609  0.1998  0.2339 -0.4578
  605MOL0     H79854   7.988   6.719   3.648  3.0169 -0.5576  0.7250
  605MOL0     H79855   8.079   6.699   3.500 -1.5586 -1.1069 -1.8168
  605MOL0     H79856   7.834   6.875   3.460  0.4161  0.0470 -1.3139
  605MOL0     H79857   7.920   6.767   3.354 -0.4143  2.3746  0.3506
  605MOL0     H79858   7.679   6.497   3.593 -1.8796  1.2018  0.5435
  605MOL0     H79859   7.978   6.813   4.010 -0.4816  1.0612 -0.6165
  605MOL0     H79860   8.161   6.737   4.160  2.1863 -3.1352 -1.6080
  606MOL0     O79861   6.996   2.722   1.176 -0.0269 -0.0803  0.4978
  606MOL0     C79862   7.045   2.792   1.086  0.3186  0.6910 -0.3546
  606MOL0     O79863   6.977   2.855   0.985  0.8196  0.3416 -0.0892
  606MOL0     C79864   6.852   2.841   0.950 -0.2712  0.2304 -0.6418
  606MOL0     C79865   6.827   2.868   0.815  0.0623  0.5804 -0.3466
  606MOL0     C79866   6.697   2.841   0.757 -0.3872 -0.1253 -0.7514
  606MOL0     C79867   6.593   2.799   0.838  0.1021 -0.4261  0.0794
  606MOL0     O79868   6.469   2.775   0.774 -0.2434 -0.3124  0.3066
  606MOL0     C79869   6.356   2.774   0.855  0.2669 -0.2278  0.3395
  606MOL0     C79870   6.234   2.806   0.763 -0.1896 -0.2659  0.4865
  606MOL0     C79871   6.094   2.798   0.828 -0.1480 -0.4456  0.6387
  606MOL0     C79872   6.062   2.649   0.861 -0.4561 -0.3880 -0.3627
  606MOL0     C79873   5.934   2.625   0.958  0.3848 -0.0019  0.1100
  606MOL0     C79874   5.910   2.470   0.935  0.6717 -0.3538  0.0848
  606MOL0     C79875   5.808   2.408   1.036 -0.1605 -1.0412  0.0553
  606MOL0     C79876   5.676   2.477   1.015  0.3226  0.5771  0.4790
  606MOL0     N79877   5.570   2.430   1.104  0.5005 -0.9447  0.6002
  606MOL0     C79878   5.516   2.309   1.119 -0.5787 -0.7014 -0.1819
  606MOL0     C79879   5.409   2.328   1.203  0.0537 -0.2094 -0.0022
  606MOL0     C79880   5.315   2.220   1.235 -0.9178  0.5146  0.4223
  606MOL0     C79881   5.177   2.268   1.295 -0.6317  0.8836 -0.5001
  606MOL0     C79882   5.089   2.352   1.209 -0.4453 -0.7274  0.2209
  606MOL0     C79883   4.948   2.363   1.259 -0.2728  0.2657  0.0113
  606MOL0     O79884   4.881   2.239   1.242 -0.0294  0.3698 -0.0558
  606MOL0     C79885   4.742   2.237   1.272 -0.0410 -0.8624 -0.1819
  606MOL0     C79886   4.700   2.120   1.322  0.3811  0.3301  0.2373
  606MOL0     C79887   4.568   2.089   1.364 -0.6554 -0.0691 -0.1763
  606MOL0     C79888   4.476   2.194   1.367 -0.6237 -0.0432  0.3156
  606MOL0     C79889   4.345   2.166   1.419  0.6643 -0.6396  0.0587
  606MOL0     O79890   4.309   2.040   1.446 -0.5984 -0.5015  0.3672
  606MOL0     C79891   4.175   2.022   1.490 -0.8093 -0.2222 -0.1560
  606MOL0     C79892   4.125   2.075   1.608 -0.5261  0.2598 -0.0519
  606MOL0     C79893   3.989   2.066   1.641  0.8892  0.0342  0.0538
  606MOL0     C79894   3.898   2.011   1.550  0.5381 -0.4003 -0.0822
  606MOL0     O79895   3.761   1.982   1.568 -0.1565 -0.1042 -0.3021
  606MOL0     C79896   3.691   2.041   1.683 -0.5765  0.2777 -0.4576
  606MOL0     C79897   3.551   2.018   1.684  0.1179  0.8938  0.6468
  606MOL0     C79898   3.523   1.877   1.734 -0.0558 -0.2167  0.0203
  606MOL0     C79899   3.370   1.853   1.733  0.0037 -0.0404 -0.0936
  606MOL0     C79900   3.329   1.727   1.809  0.1764 -0.7424  0.0956
  606MOL0     C79901   3.178   1.688   1.806 -0.0047  0.1856 -0.1072
  606MOL0     C79902   3.120   1.726   1.944  0.4822  0.0972 -0.5221
  606MOL0     C79903   2.963   1.735   1.937  0.1809 -1.2431  0.3810
  606MOL0    Cl79904   2.891   1.836   1.817  0.1549 -0.0427 -0.5370
  606MOL0     C79905   3.946   1.946   1.437  0.9440 -0.4798 -0.2481
  606MOL0     C79906   4.084   1.955   1.406 -0.4885  0.2680  0.7976
  606MOL0     O79907   4.270   2.267   1.431 -0.3190  0.3930 -0.2513
  606MOL0     C79908   4.515   2.317   1.308 -0.5381  0.1674  0.2368
  606MOL0     C79909   4.645   2.335   1.263 -0.1997  0.3785 -0.3710
  606MOL0     N79910   5.410   2.452   1.254  0.1478 -0.4231 -0.5246
  606MOL0     N79911   5.511   2.508   1.199  0.2508 -0.4082 -0.2527
  606MOL0     C79912   6.613   2.790   0.979  0.7932  0.1466  0.5268
  606MOL0     C79913   6.743   2.800   1.030  0.0527 -0.4107 -0.2332
  606MOL0     C79914   7.185   2.836   1.104  0.0489 -0.6009 -0.1953
  606MOL0     C79915   7.253   2.936   1.021  0.3606 -0.4936 -0.1328
  606MOL0     C79916   7.395   2.970   1.030  0.1741  0.3691  0.1535
  606MOL0     C79917   7.462   2.904   1.137  0.8630  0.4541 -0.0207
  606MOL0     O79918   7.594   2.929   1.169 -0.6062 -0.3727 -0.2844
  606MOL0     C79919   7.690   2.962   1.062  0.0515  0.5877  0.0139
  606MOL0     C79920   7.837   2.904   1.094 -0.2609 -0.7536 -0.3138
  606MOL0     C79921   7.926   3.021   1.139  0.3462  0.2041  0.7356
  606MOL0     C79922   8.063   2.971   1.182 -0.1277 -0.0009  0.5073
  606MOL0     C79923   8.065   2.881   1.296 -0.1660  0.1538  0.6691
  606MOL0     C79924   8.074   2.792   1.378  0.0981 -0.1668 -0.1030
  606MOL0     C79925   7.393   2.814   1.214 -0.0457  0.0368  0.0525
  606MOL0     C79926   7.255   2.777   1.205  0.0108  0.2749 -0.7860
  606MOL0     H79927   6.919   2.892   0.762 -1.0350  0.3160 -2.5078
  606MOL0     H79928   6.696   2.839   0.649  1.3243 -0.4855 -0.7948
  606MOL0     H79929   6.345   2.850   0.933 -0.7040 -1.5410  1.5339
  606MOL0     H79930   6.344   2.676   0.902 -1.9715 -1.5637 -2.6620
  606MOL0     H79931   6.229   2.740   0.676  0.7391  1.3037 -0.8108
  606MOL0     H79932   6.230   2.906   0.718 -4.3606 -0.5570 -0.2123
  606MOL0     H79933   6.018   2.852   0.772  1.2307  3.8115  2.4408
  606MOL0     H79934   6.100   2.859   0.920 -3.3170 -0.8378  1.1987
  606MOL0     H79935   6.040   2.605   0.763 -1.6862  1.4240 -0.9664
  606MOL0     H79936   6.147   2.603   0.912  0.9652  2.9887  0.6102
  606MOL0     H79937   5.851   2.687   0.924  0.8625  0.4873 -0.1747
  606MOL0     H79938   5.959   2.643   1.063 -2.1168 -1.0382  0.9544
  606MOL0     H79939   6.007   2.419   0.946  1.1098 -0.1713 -2.2971
  606MOL0     H79940   5.878   2.445   0.833 -0.5272 -1.8720  0.7869
  606MOL0     H79941   5.803   2.300   1.018  1.2001 -1.1070  0.0064
  606MOL0     H79942   5.837   2.424   1.140 -0.0674  0.6302 -0.2011
  606MOL0     H79943   5.639   2.439   0.919 -1.0220 -2.0034  1.8789
  606MOL0     H79944   5.674   2.586   1.013 -2.4975  0.6203  0.7645
  606MOL0     H79945   5.521   2.217   1.062 -0.4532 -0.0340 -1.2959
  606MOL0     H79946   5.364   2.140   1.289 -1.8287 -2.4499 -2.7830
  606MOL0     H79947   5.288   2.167   1.143 -1.0963  2.3776 -0.6569
  606MOL0     H79948   5.197   2.318   1.390 -2.1171 -1.8261  1.3749
  606MOL0     H79949   5.123   2.176   1.320 -1.4852  1.2815 -0.8268
  606MOL0     H79950   5.125   2.455   1.212 -1.6713 -0.2896  1.0783
  606MOL0     H79951   5.088   2.322   1.104 -3.3533  0.5694 -0.2313
  606MOL0     H79952   4.908   2.450   1.207 -0.5011  0.7241  0.9350
  606MOL0     H79953   4.942   2.382   1.367 -3.5941  0.4600 -0.1162
  606MOL0     H79954   4.775   2.042   1.325  1.0970  1.0158  0.3546
  606MOL0     H79955   4.560   1.988   1.402 -0.1650  0.6667  2.0619
  606MOL0     H79956   4.208   2.107   1.671  0.2402 -2.4688  0.4501
  606MOL0     H79957   3.958   2.105   1.737  2.7090  0.6702  0.4239
  606MOL0     H79958   3.704   2.150   1.687  2.8500  0.0267 -1.6831
  606MOL0     H79959   3.737   2.003   1.775  0.5803  2.3868 -0.0950
  606MOL0     H79960   3.513   2.030   1.583 -2.1786 -0.8228  1.2083
  606MOL0     H79961   3.503   2.088   1.753 -1.4475  0.2131  0.2859
  606MOL0     H79962   3.574   1.874   1.831  2.6258  0.1447 -1.2737
  606MOL0     H79963   3.553   1.794   1.669 -0.8730 -1.1762  0.8501
  606MOL0     H79964   3.319   1.938   1.779 -0.9192 -1.0438  0.7921
  606MOL0     H79965   3.336   1.857   1.629 -0.4242  0.7288  0.0660
  606MOL0     H79966   3.355   1.745   1.914 -1.4187 -1.0276  0.5683
  606MOL0     H79967   3.380   1.637   1.772  1.2666 -0.6427  1.2606
  606MOL0     H79968   3.174   1.581   1.788  1.0341 -0.1330  1.4097
  606MOL0     H79969   3.126   1.751   1.732  0.9010  1.4865  0.3207
  606MOL0     H79970   3.149   1.648   2.016 -1.9704  0.3434  0.8389
  606MOL0     H79971   3.155   1.824   1.977  1.1318 -0.5319  0.7411
  606MOL0     H79972   2.933   1.774   2.035  1.8242 -3.0093  1.6573
  606MOL0     H79973   2.909   1.640   1.923  0.0513 -1.3754  1.6441
  606MOL0     H79974   3.882   1.886   1.372  1.7039 -2.1921  0.5214
  606MOL0     H79975   4.124   1.923   1.310 -3.1599 -1.0772  0.0193
  606MOL0     H79976   4.448   2.402   1.301  0.5253  1.0968  1.0514
  606MOL0     H79977   4.674   2.427   1.214 -1.1855  1.1647  0.4580
  606MOL0     H79978   6.542   2.760   1.055  0.8873  1.6545  1.2355
  606MOL0     H79979   6.756   2.788   1.137 -0.5465  0.8793  0.0051
  606MOL0     H79980   7.205   2.977   0.933  0.2449  0.4900  0.3648
  606MOL0     H79981   7.435   3.038   0.956  1.6695  0.4111  0.9468
  606MOL0     H79982   7.683   3.067   1.032 -0.9530  0.7534  0.7830
  606MOL0     H79983   7.664   2.909   0.970  0.0734  0.5034  0.0561
  606MOL0     H79984   7.836   2.832   1.177  2.0600 -0.5953 -0.0891
  606MOL0     H79985   7.879   2.850   1.009 -0.3465  0.9912 -1.5260
  606MOL0     H79986   7.887   3.087   1.218 -0.4056  1.1027 -0.3660
  606MOL0     H79987   7.938   3.083   1.050 -0.3290  0.2818  0.6937
  606MOL0     H79988   8.110   2.917   1.100  1.7037  1.3006  0.6355
  606MOL0     H79989   8.126   3.057   1.205  0.2413 -0.1338  0.0223
  606MOL0     H79990   8.092   2.710   1.444 -1.2043  1.0881  1.9368
  606MOL0     H79991   7.452   2.766   1.291  1.8679 -0.6775 -1.7585
  606MOL0     H79992   7.214   2.706   1.276  2.2683 -2.2902 -1.8671
  607MOL0     O79993   0.706   9.317   0.938  0.5754 -0.3226 -0.3897
  607MOL0     C79994   0.754   9.402   0.866 -0.6489 -0.0722  0.3077
  607MOL0     O79995   0.690   9.498   0.788  0.5637 -0.0275  0.0401
  607MOL0     C79996   0.556   9.476   0.771  0.3418 -0.2304  0.7108
  607MOL0     C79997   0.465   9.499   0.874 -0.6669  0.2497 -0.0894
  607MOL0     C79998   0.324   9.478   0.867 -0.2648 -0.2225  0.1773
  607MOL0     C79999   0.268   9.433   0.742 -0.3943 -0.8773  0.3994
  607MOL0     O80000   0.125   9.421   0.722 -0.5241 -0.1373 -0.6069
  607MOL0     C80001   0.052   9.538   0.746  0.2952 -0.3723  0.1613
  607MOL0     C80002  -0.095   9.517   0.709  0.0789  0.5566 -0.3063
  607MOL0     C80003  -0.189   9.628   0.742 -0.2853 -0.2375 -0.3524
  607MOL0     C80004  -0.328   9.601   0.690  1.4331  0.3973 -0.2310
  607MOL0     C80005  -0.419   9.704   0.751 -0.1411  0.1836  0.8765
  607MOL0     C80006  -0.561   9.697   0.688  0.0031  0.7870 -0.9079
  607MOL0     C80007  -0.668   9.776   0.762  0.6762  0.0148  0.7305
  607MOL0     C80008  -0.641   9.924   0.751  0.6745 -0.8021 -0.2994
  607MOL0     N80009  -0.776   9.996   0.767 -0.5926  0.1276  0.9579
  607MOL0     C80010  -0.811  10.054   0.884  0.4255 -0.6688 -0.0442
  607MOL0     C80011  -0.924  10.117   0.858  0.3204 -0.6235 -1.2317
  607MOL0     C80012  -1.022  10.184   0.959 -1.2255 -0.8258 -0.4319
  607MOL0     C80013  -1.098  10.298   0.896 -0.4777  0.7432 -0.3232
  607MOL0     C80014  -1.130  10.407   0.993 -0.0767  0.2846  0.0917
  607MOL0     C80015  -1.248  10.364   1.085 -0.2887 -0.3984  0.5809
  607MOL0     O80016  -1.232  10.260   1.172 -0.3721  0.0003 -0.0047
  607MOL0     C80017  -1.331  10.221   1.255 -0.3267  0.1135  0.8057
  607MOL0     C80018  -1.469  10.240   1.218  0.2476  0.6124 -0.2588
  607MOL0     C80019  -1.574  10.194   1.303 -0.1029 -0.2862  0.2907
  607MOL0     C80020  -1.536  10.137   1.433  1.1672  0.1493  0.3330
  607MOL0     C80021  -1.644  10.102   1.531 -0.5241  0.0671 -0.4732
  607MOL0     O80022  -1.604  10.066   1.657 -0.4624  0.5964 -0.4457
  607MOL0     C80023  -1.701  10.020   1.750 -0.1460  0.0906 -0.5433
  607MOL0     C80024  -1.834   9.960   1.729  0.5101  0.1986 -0.7099
  607MOL0     C80025  -1.898   9.912   1.845 -0.9104  0.5618 -0.3848
  607MOL0     C80026  -1.842   9.904   1.976  0.0900  0.7090 -0.1609
  607MOL0     O80027  -1.891   9.847   2.093 -0.0312  0.4851 -0.5124
  607MOL0     C80028  -2.029   9.805   2.116  0.3632 -0.2178 -0.9744
  607MOL0     C80029  -2.112   9.914   2.180  0.2250  0.0998 -0.6379
  607MOL0     C80030  -2.246   9.845   2.208 -0.0176  0.0758  0.7115
  607MOL0     C80031  -2.349   9.942   2.269 -0.0453  0.2437 -0.5458
  607MOL0     C80032  -2.473   9.867   2.318 -0.0400 -0.3414 -0.7790
  607MOL0     C80033  -2.581   9.973   2.368 -0.9492  0.8588 -0.2007
  607MOL0     C80034  -2.600   9.945   2.523  0.0223 -0.6943  0.5255
  607MOL0     C80035  -2.482   9.971   2.610 -0.3450 -0.1221  0.3384
  607MOL0    Cl80036  -2.525   9.979   2.781 -0.2050 -0.3556 -0.2368
  607MOL0     C80037  -1.717   9.969   1.987 -0.6609 -0.4858 -0.5094
  607MOL0     C80038  -1.655  10.032   1.880 -0.3525 -0.1396  0.1034
  607MOL0     O80039  -1.759  10.122   1.494  0.4093  0.2569  0.5227
  607MOL0     C80040  -1.407  10.110   1.462 -0.7224 -0.5170  0.0987
  607MOL0     C80041  -1.305  10.155   1.379  0.0870  0.2760  0.2464
  607MOL0     N80042  -0.949  10.109   0.725  0.0993  0.6390 -0.1175
  607MOL0     N80043  -0.852  10.039   0.667  0.5606 -0.4434  0.4484
  607MOL0     C80044   0.360   9.418   0.632 -0.0996 -0.0001  0.7432
  607MOL0     C80045   0.501   9.441   0.649 -0.4344 -0.3119 -0.4592
  607MOL0     C80046   0.897   9.388   0.852 -0.4391 -0.7898  0.1461
  607MOL0     C80047   0.963   9.478   0.770  0.3862  0.1635  0.8945
  607MOL0     C80048   1.102   9.467   0.750 -0.1383  0.0171  0.2057
  607MOL0     C80049   1.184   9.370   0.807  0.3276 -0.0739  0.0775
  607MOL0     O80050   1.316   9.365   0.776  0.4144 -0.1272 -0.1427
  607MOL0     C80051   1.409   9.364   0.886 -0.0581 -0.1684  0.5472
  607MOL0     C80052   1.528   9.454   0.850 -0.1071  0.5844 -0.3348
  607MOL0     C80053   1.634   9.458   0.955  0.5607  0.2630  0.5518
  607MOL0     C80054   1.715   9.581   0.961  0.2586 -0.0044 -0.8231
  607MOL0     C80055   1.673   9.657   1.082  0.4385  1.1297  0.5018
  607MOL0     C80056   1.648   9.715   1.185  1.0284  0.1599 -0.3669
  607MOL0     C80057   1.113   9.269   0.878 -0.3469  0.1616 -1.0950
  607MOL0     C80058   0.977   9.277   0.898  1.1433 -0.8580 -0.6022
  607MOL0     H80059   0.515   9.517   0.969  1.5899 -2.7165 -0.5919
  607MOL0     H80060   0.258   9.489   0.952  1.0983  1.7186  1.0741
  607MOL0     H80061   0.085   9.624   0.687 -3.1440  0.0964 -1.3636
  607MOL0     H80062   0.051   9.563   0.852 -1.9869 -0.9166  0.3246
  607MOL0     H80063  -0.132   9.424   0.752 -0.2771  1.4959  1.5063
  607MOL0     H80064  -0.101   9.503   0.601  1.0837 -0.0378 -0.2959
  607MOL0     H80065  -0.140   9.718   0.706 -1.7956  1.2662  1.1650
  607MOL0     H80066  -0.184   9.635   0.851  0.6620 -0.1080 -0.3959
  607MOL0     H80067  -0.324   9.605   0.580 -5.4588  3.0380 -0.8580
  607MOL0     H80068  -0.362   9.501   0.717  1.3691 -0.0355 -1.7736
  607MOL0     H80069  -0.373   9.802   0.732 -0.7373  0.1481 -0.8823
  607MOL0     H80070  -0.427   9.687   0.859 -0.0325 -2.5838  0.5033
  607MOL0     H80071  -0.600   9.597   0.704 -0.0080  1.3108  3.3682
  607MOL0     H80072  -0.545   9.716   0.581 -0.0935 -1.4861 -1.3790
  607MOL0     H80073  -0.753   9.741   0.703  0.3014  1.1132  0.5923
  607MOL0     H80074  -0.671   9.750   0.869  1.2813 -1.2894  0.4505
  607MOL0     H80075  -0.593   9.956   0.658  0.5985  3.4052  0.9070
  607MOL0     H80076  -0.564   9.960   0.820 -0.5942 -1.9061  1.7795
  607MOL0     H80077  -0.767  10.042   0.983  0.9685 -1.1286 -0.3354
  607MOL0     H80078  -0.967  10.225   1.044 -0.0859  2.7609 -2.6495
  607MOL0     H80079  -1.092  10.103   0.984 -0.7059 -1.1251  0.0588
  607MOL0     H80080  -1.187  10.265   0.842 -0.5110 -2.5928  1.5097
  607MOL0     H80081  -1.034  10.343   0.819  1.3244  1.7781  1.6833
  607MOL0     H80082  -1.047  10.421   1.062 -0.6841 -2.7172  1.5895
  607MOL0     H80083  -1.144  10.502   0.941  1.3324  1.1940  1.2928
  607MOL0     H80084  -1.334  10.347   1.020  0.6757 -2.3153 -0.2826
  607MOL0     H80085  -1.280  10.456   1.135  1.2140  0.9914 -0.8677
  607MOL0     H80086  -1.504  10.294   1.130 -0.3901  1.9882  0.7980
  607MOL0     H80087  -1.679  10.214   1.285  0.4550  0.8027 -2.0718
  607MOL0     H80088  -1.884   9.939   1.635  0.7093  0.9972 -1.0040
  607MOL0     H80089  -1.989   9.853   1.834  0.3811 -1.4002 -1.1642
  607MOL0     H80090  -2.021   9.725   2.191 -1.4983  0.0544 -0.4372
  607MOL0     H80091  -2.074   9.765   2.025  0.1030 -1.4455 -0.3290
  607MOL0     H80092  -2.116  10.000   2.113 -0.2418 -0.3737 -1.2293
  607MOL0     H80093  -2.074   9.952   2.276 -1.1352  2.6641 -1.0236
  607MOL0     H80094  -2.234   9.765   2.282 -1.0100  0.0927  0.9053
  607MOL0     H80095  -2.294   9.803   2.119 -0.5996 -2.5641  2.1478
  607MOL0     H80096  -2.299   9.998   2.349 -1.1561 -0.3868  0.6236
  607MOL0     H80097  -2.386  10.013   2.195  0.7357  2.0937  0.7668
  607MOL0     H80098  -2.455   9.800   2.403 -1.5800 -1.2609 -1.1334
  607MOL0     H80099  -2.507   9.810   2.231 -0.5660 -0.7107 -0.3385
  607MOL0     H80100  -2.672   9.955   2.311 -1.9147 -1.8966  1.9577
  607MOL0     H80101  -2.552  10.077   2.352 -2.2647  1.4532  1.0455
  607MOL0     H80102  -2.680  10.009   2.560 -0.4552 -0.9779  0.0052
  607MOL0     H80103  -2.632   9.841   2.540  2.8206 -1.8192 -0.4888
  607MOL0     H80104  -2.411  10.052   2.590  3.4780 -3.1273  0.4936
  607MOL0     H80105  -2.412   9.889   2.592  0.0152  0.6878 -2.6313
  607MOL0     H80106  -1.674   9.981   2.086 -1.3204  2.2502 -0.4589
  607MOL0     H80107  -1.555  10.070   1.896 -0.3973  0.5417 -1.0878
  607MOL0     H80108  -1.380  10.065   1.557 -0.2146  1.7606  1.0943
  607MOL0     H80109  -1.200  10.140   1.402  0.3408 -1.4784 -1.7169
  607MOL0     H80110   0.329   9.378   0.536 -0.9600  2.3130 -0.0010
  607MOL0     H80111   0.575   9.417   0.574 -0.4363  1.2027 -0.9928
  607MOL0     H80112   0.901   9.556   0.728 -0.5978 -0.5808  0.9470
  607MOL0     H80113   1.151   9.529   0.675 -0.5617 -0.3081 -0.3442
  607MOL0     H80114   1.451   9.264   0.902  1.3984  0.3641  0.2131
  607MOL0     H80115   1.357   9.407   0.972 -1.7445 -0.7714 -0.1292
  607MOL0     H80116   1.578   9.414   0.761  0.6718  1.5795 -0.3697
  607MOL0     H80117   1.488   9.553   0.828  1.2936  1.2156 -0.1583
  607MOL0     H80118   1.703   9.377   0.928 -0.3056  0.1611 -1.5135
  607MOL0     H80119   1.596   9.429   1.053  1.1122 -2.8756 -0.0639
  607MOL0     H80120   1.823   9.564   0.965 -0.0788 -2.2750  1.8433
  607MOL0     H80121   1.697   9.642   0.872  0.1130 -1.8897 -2.1545
  607MOL0     H80122   1.639   9.780   1.269 -2.3640  1.0032 -1.2332
  607MOL0     H80123   1.174   9.184   0.908 -0.7882  0.0839 -0.3960
  607MOL0     H80124   0.925   9.193   0.945 -2.8585 -0.2979 -3.5401
  608MOL0     O80125  11.070   2.774   4.013  0.1351  0.2846  0.3300
  608MOL0     C80126  10.990   2.682   4.049  0.2369 -0.5604  0.1132
  608MOL0     O80127  11.030   2.549   4.079  0.3664  0.3033 -0.7289
  608MOL0     C80128  11.156   2.510   4.062  0.4156  0.4649  0.6907
  608MOL0     C80129  11.208   2.428   4.163  0.2092 -0.6149  0.6544
  608MOL0     C80130  11.345   2.387   4.167  0.5788 -0.2791  0.1654
  608MOL0     C80131  11.423   2.429   4.052 -0.4429 -0.1999 -0.2279
  608MOL0     O80132  11.562   2.425   4.047 -0.3617  0.0094  0.0626
  608MOL0     C80133  11.637   2.355   4.140 -0.4905  0.2563  0.8931
  608MOL0     C80134  11.679   2.441   4.263  0.0935 -0.2448  0.5746
  608MOL0     C80135  11.828   2.479   4.242 -0.1917 -0.0722 -0.4065
  608MOL0     C80136  11.855   2.555   4.114  0.0208 -0.2274  0.1413
  608MOL0     C80137  11.999   2.609   4.106 -0.1305  0.6366 -0.1301
  608MOL0     C80138  12.028   2.711   4.215  0.9580  0.5266  0.6366
  608MOL0     C80139  12.163   2.777   4.186 -0.0988 -0.4386 -0.0425
  608MOL0     C80140  12.157   2.892   4.088  0.7882 -0.4261 -0.1902
  608MOL0     N80141  12.098   3.017   4.145  0.3094  0.3377 -0.0659
  608MOL0     C80142  11.979   3.064   4.107  0.8222  0.2626 -0.1643
  608MOL0     C80143  11.958   3.170   4.186  0.3923  0.0123  0.0386
  608MOL0     C80144  11.839   3.247   4.192 -0.3719 -0.5519 -0.0744
  608MOL0     C80145  11.766   3.250   4.061 -0.1605 -1.0719  0.0953
  608MOL0     C80146  11.648   3.345   4.067  0.4549 -0.3485  0.5159
  608MOL0     C80147  11.588   3.377   3.929  1.0204 -0.1364 -0.2910
  608MOL0     O80148  11.483   3.477   3.947 -0.3142  1.0102  1.1663
  608MOL0     C80149  11.381   3.452   4.028  0.8203 -0.6697 -0.1828
  608MOL0     C80150  11.344   3.546   4.123  0.4690  0.6295  0.0224
  608MOL0     C80151  11.230   3.516   4.208 -0.0563 -0.1796 -0.7897
  608MOL0     C80152  11.148   3.403   4.191 -0.4701 -0.1789  0.3973
  608MOL0     C80153  11.022   3.391   4.267  0.3446 -0.3735  0.1960
  608MOL0     O80154  10.999   3.467   4.379 -0.7670 -0.9232 -0.2949
  608MOL0     C80155  10.877   3.492   4.428  0.2576  0.1722 -0.6049
  608MOL0     C80156  10.872   3.551   4.559  0.0919  0.3341 -0.2100
  608MOL0     C80157  10.749   3.583   4.616 -0.6648 -0.1174  0.0539
  608MOL0     C80158  10.633   3.548   4.558  0.0666  1.0449 -0.0665
  608MOL0     O80159  10.531   3.578   4.632 -0.5954  0.3978 -0.0708
  608MOL0     C80160  10.404   3.517   4.617  0.5892 -0.0842  0.3375
  608MOL0     C80161  10.318   3.517   4.743 -0.3896 -0.2326  0.1525
  608MOL0     C80162  10.186   3.439   4.711  0.0369 -0.9019 -0.0770
  608MOL0     C80163  10.106   3.414   4.842  0.0169  0.1363  0.0674
  608MOL0     C80164   9.982   3.329   4.811 -0.5140 -0.3159 -0.1902
  608MOL0     C80165   9.887   3.324   4.940  0.1344 -0.0650  0.5065
  608MOL0     C80166   9.752   3.258   4.910 -0.2744 -0.4227  0.0763
  608MOL0     C80167   9.670   3.247   5.041  0.1977  0.1360  0.3116
  608MOL0    Cl80168   9.514   3.201   4.971 -0.0081 -0.5726 -0.4560
  608MOL0     C80169  10.629   3.480   4.433 -0.3142 -0.1074  0.1980
  608MOL0     C80170  10.752   3.457   4.366 -0.1669  0.2581 -0.9223
  608MOL0     O80171  10.947   3.300   4.233  0.0615  0.5571 -0.2763
  608MOL0     C80172  11.182   3.326   4.078 -0.3144 -0.2620 -0.0869
  608MOL0     C80173  11.307   3.335   4.012  0.5927 -0.2089  0.1357
  608MOL0     N80174  12.071   3.184   4.267 -0.4352 -0.9246  0.6508
  608MOL0     N80175  12.146   3.079   4.254 -0.1851  0.6899 -0.2574
  608MOL0     C80176  11.366   2.496   3.941 -0.8181 -0.4196  0.1876
  608MOL0     C80177  11.230   2.533   3.949  0.6057  0.5658  0.3793
  608MOL0     C80178  10.843   2.713   4.063  0.8209 -0.0176 -0.3192
  608MOL0     C80179  10.789   2.834   4.023 -0.6322  0.1802  0.2137
  608MOL0     C80180  10.657   2.863   4.034  0.4421 -0.4702 -0.1553
  608MOL0     C80181  10.569   2.778   4.097  0.1991  0.1445 -0.0089
  608MOL0     O80182  10.434   2.807   4.113 -0.2101  0.4090  0.0136
  608MOL0     C80183  10.378   2.921   4.044 -0.5208 -0.5526 -0.5055
  608MOL0     C80184  10.220   2.921   4.050 -0.4491  0.4103  0.7135
  608MOL0     C80185  10.163   2.786   4.006 -0.4668  0.3648 -0.1021
  608MOL0     C80186  10.012   2.779   4.014  0.0541 -0.5474 -0.1775
  608MOL0     C80187   9.960   2.795   4.150 -0.2502 -0.1782  0.2246
  608MOL0     C80188   9.922   2.804   4.261 -0.6026 -0.3793 -0.0005
  608MOL0     C80189  10.620   2.655   4.144  0.5244 -0.7145  0.0435
  608MOL0     C80190  10.752   2.620   4.116 -0.6667 -0.6802 -0.8092
  608MOL0     H80191  11.158   2.422   4.259 -1.0140  0.8833  0.1504
  608MOL0     H80192  11.386   2.323   4.244  1.5039 -3.0198 -2.3934
  608MOL0     H80193  11.733   2.320   4.100 -1.0631  0.1467 -0.4181
  608MOL0     H80194  11.584   2.263   4.167  1.1127 -1.0988 -0.3112
  608MOL0     H80195  11.673   2.387   4.358 -0.7918 -0.9596  0.1288
  608MOL0     H80196  11.611   2.527   4.268 -2.8739 -2.4883  2.1226
  608MOL0     H80197  11.895   2.395   4.259  1.3784  1.1656 -0.2082
  608MOL0     H80198  11.849   2.549   4.323 -0.9449 -1.3388  0.9337
  608MOL0     H80199  11.841   2.495   4.023 -3.0092  0.7048 -0.0964
  608MOL0     H80200  11.781   2.634   4.104  0.0804 -0.1152  0.5599
  608MOL0     H80201  12.015   2.659   4.010 -1.4115  0.7407 -0.2939
  608MOL0     H80202  12.070   2.525   4.112 -0.2042  0.5675 -0.2263
  608MOL0     H80203  12.029   2.655   4.309 -1.5081 -0.2276  0.2863
  608MOL0     H80204  11.945   2.781   4.223 -0.6741 -0.8399 -2.5533
  608MOL0     H80205  12.205   2.809   4.282  1.3356  1.1461 -1.1480
  608MOL0     H80206  12.232   2.710   4.133  1.9256  2.8950 -2.0072
  608MOL0     H80207  12.104   2.855   4.000 -2.8351  1.7239  0.8780
  608MOL0     H80208  12.261   2.923   4.069  0.2049  2.4044  0.7739
  608MOL0     H80209  11.914   3.014   4.036 -1.9283 -0.3346  2.5577
  608MOL0     H80210  11.863   3.347   4.229 -2.4538 -0.6601  1.8378
  608MOL0     H80211  11.780   3.198   4.270 -0.0561  0.8805  1.1197
  608MOL0     H80212  11.734   3.153   4.022  1.3375 -1.5998  0.1067
  608MOL0     H80213  11.834   3.299   3.990 -1.6888  2.7884  1.0292
  608MOL0     H80214  11.572   3.297   4.128 -1.9217  4.7276  2.1459
  608MOL0     H80215  11.685   3.432   4.123  1.2804 -1.2861  1.4756
  608MOL0     H80216  11.545   3.285   3.889 -0.8969  0.0053  1.2910
  608MOL0     H80217  11.670   3.401   3.861  4.5244 -2.2501  2.7868
  608MOL0     H80218  11.391   3.644   4.119  0.1154  0.7639 -2.4129
  608MOL0     H80219  11.220   3.595   4.282  0.3465  0.7535 -1.7079
  608MOL0     H80220  10.963   3.585   4.606 -0.1831  1.3570 -0.4022
  608MOL0     H80221  10.743   3.641   4.707  3.6194 -1.3145  1.3416
  608MOL0     H80222  10.420   3.415   4.580 -0.8900  0.3704 -1.7044
  608MOL0     H80223  10.348   3.575   4.543 -0.2163 -0.8084  0.3654
  608MOL0     H80224  10.296   3.615   4.786  1.0791  0.1404  0.0970
  608MOL0     H80225  10.376   3.452   4.810  0.0403 -0.6142 -0.5775
  608MOL0     H80226  10.201   3.351   4.649 -2.4522 -2.1847  1.0119
  608MOL0     H80227  10.126   3.513   4.657 -1.0845 -0.5389  1.5759
  608MOL0     H80228  10.175   3.364   4.911  2.7418  3.4831  0.0174
  608MOL0     H80229  10.084   3.510   4.890  3.5670  0.3535  1.5822
  608MOL0     H80230  10.013   3.229   4.780  2.1748  0.7432 -1.1380
  608MOL0     H80231   9.934   3.385   4.730  0.4266  2.1801  0.8701
  608MOL0     H80232   9.891   3.426   4.979 -0.7728 -0.1529  0.8418
  608MOL0     H80233   9.930   3.266   5.022  0.2578 -1.0208 -0.2100
  608MOL0     H80234   9.706   3.326   4.838  0.8602 -1.0995 -1.3429
  608MOL0     H80235   9.772   3.163   4.860  0.2150  0.0189 -0.5837
  608MOL0     H80236   9.660   3.343   5.091 -2.2003 -0.2652  0.7301
  608MOL0     H80237   9.715   3.169   5.103  0.1003 -0.1176  0.0701
  608MOL0     H80238  10.537   3.448   4.386 -0.4349  1.9451 -1.0965
  608MOL0     H80239  10.739   3.415   4.267 -1.5253 -1.4974 -0.0473
  608MOL0     H80240  11.128   3.239   4.042  0.4576 -0.7176 -0.1662
  608MOL0     H80241  11.325   3.262   3.933 -1.3337  0.2798 -0.8300
  608MOL0     H80242  11.435   2.523   3.862 -1.0391 -0.7664 -0.1274
  608MOL0     H80243  11.194   2.582   3.859 -0.0806  0.2942  0.4995
  608MOL0     H80244  10.851   2.907   3.972  0.1561  0.5987  1.6970
  608MOL0     H80245  10.630   2.960   3.995 -0.0927 -0.4501  0.2563
  608MOL0     H80246  10.392   2.913   3.936  0.4083 -2.3909 -0.2826
  608MOL0     H80247  10.411   3.018   4.083  0.1611 -0.0362 -2.2681
  608MOL0     H80248  10.203   2.937   4.157  0.4790 -0.3980  0.9993
  608MOL0     H80249  10.184   3.000   3.984  1.0551  0.2660 -0.3317
  608MOL0     H80250  10.197   2.709   4.076 -0.6431  0.0917 -0.3141
  608MOL0     H80251  10.200   2.762   3.906  0.6970  0.9711  0.1590
  608MOL0     H80252   9.966   2.858   3.954  0.5185  0.4725  0.7698
  608MOL0     H80253   9.978   2.680   3.980  0.2011 -1.3157  1.7659
  608MOL0     H80254   9.883   2.810   4.360  0.8811  0.6584  0.5605
  608MOL0     H80255  10.555   2.580   4.189  1.4592 -2.7473 -1.7644
  608MOL0     H80256  10.788   2.526   4.158 -0.2117  0.4230  1.4677
  609MOL0     O80257   1.421   9.244   7.784 -0.9562 -0.2202 -0.4714
  609MOL0     C80258   1.462   9.252   7.902 -0.1992  0.2973 -0.1870
  609MOL0     O80259   1.387   9.275   8.017  0.0030  0.1660 -0.2230
  609MOL0     C80260   1.252   9.255   8.003 -0.1501 -0.4987  0.2371
  609MOL0     C80261   1.179   9.147   8.059 -0.0040  0.5032  0.7396
  609MOL0     C80262   1.042   9.146   8.057 -0.3684  0.4633 -0.1711
  609MOL0     C80263   0.970   9.249   7.997 -0.2511  0.0621 -0.2457
  609MOL0     O80264   0.836   9.230   7.992  0.8109  0.2618  0.0033
  609MOL0     C80265   0.739   9.339   7.990  1.0754 -1.0898  0.6453
  609MOL0     C80266   0.598   9.273   8.015 -0.6293  0.0702 -0.4445
  609MOL0     C80267   0.483   9.378   8.033 -0.3293 -0.0602 -0.2819
  609MOL0     C80268   0.351   9.312   8.084  0.1473  0.3601 -0.4162
  609MOL0     C80269   0.256   9.426   8.132 -0.4714  0.1143 -0.1277
  609MOL0     C80270   0.117   9.353   8.137 -0.2437  0.0353  0.0487
  609MOL0     C80271   0.024   9.418   8.237  0.3164  0.5979  0.0812
  609MOL0     C80272  -0.023   9.551   8.191 -0.3021  0.5375 -0.7589
  609MOL0     N80273  -0.114   9.615   8.283  0.5850  0.5504 -0.8735
  609MOL0     C80274  -0.251   9.621   8.264 -0.0099 -0.3890 -0.0568
  609MOL0     C80275  -0.299   9.711   8.356  0.1802  0.8896  0.4156
  609MOL0     C80276  -0.431   9.763   8.384 -0.6484  0.1764 -0.4169
  609MOL0     C80277  -0.535   9.737   8.290  0.3167  0.1205  0.4941
  609MOL0     C80278  -0.632   9.854   8.283  0.4828 -0.0223 -0.2020
  609MOL0     C80279  -0.745   9.835   8.191  0.0144 -0.0555  0.2681
  609MOL0     O80280  -0.845   9.760   8.251  0.4356  0.2436  0.2612
  609MOL0     C80281  -0.969   9.760   8.184 -1.1155  0.0158 -0.1580
  609MOL0     C80282  -1.002   9.833   8.071 -1.2510 -0.0766  0.2930
  609MOL0     C80283  -1.142   9.837   8.027 -0.3882 -0.7670 -0.0029
  609MOL0     C80284  -1.251   9.788   8.108 -1.1448  0.3442 -0.1844
  609MOL0     C80285  -1.395   9.810   8.072 -0.8225  0.0985  0.2230
  609MOL0     O80286  -1.412   9.883   7.956 -0.7610 -0.0917  0.7141
  609MOL0     C80287  -1.544   9.920   7.929 -0.0867 -0.5510  0.3088
  609MOL0     C80288  -1.642   9.829   7.878  0.2622  0.2370 -0.0264
  609MOL0     C80289  -1.784   9.855   7.891 -0.0396  0.0019  0.7651
  609MOL0     C80290  -1.818   9.978   7.954  0.2733 -0.3002  0.5461
  609MOL0     O80291  -1.956   9.996   7.978  0.4475  0.0145 -0.4453
  609MOL0     C80292  -2.009  10.114   8.036 -0.3720  0.7628 -1.1720
  609MOL0     C80293  -2.151  10.072   8.072 -0.0416  0.1262 -0.2360
  609MOL0     C80294  -2.234  10.047   7.944 -1.2138  0.4239 -0.3073
  609MOL0     C80295  -2.376  10.109   7.952 -0.2218 -0.8088  0.2175
  609MOL0     C80296  -2.459  10.085   7.831  0.1196  1.0080  1.0930
  609MOL0     C80297  -2.599  10.162   7.834  0.1446 -0.5531 -0.2590
  609MOL0     C80298  -2.661  10.155   7.694 -0.3860 -0.6153  0.2192
  609MOL0     C80299  -2.808  10.201   7.687  0.4031 -0.4406  0.7421
  609MOL0    Cl80300  -2.868  10.187   7.515 -0.6912  0.5878 -0.2384
  609MOL0     C80301  -1.714  10.071   7.982  0.5224 -0.1961 -0.2331
  609MOL0     C80302  -1.575  10.056   7.953  0.3719  1.3140 -0.2233
  609MOL0     O80303  -1.475   9.778   8.157  0.1097 -0.2336  0.1607
  609MOL0     C80304  -1.209   9.716   8.228 -0.4273  0.7025  0.1030
  609MOL0     C80305  -1.069   9.702   8.259  0.1292  0.4538 -0.5866
  609MOL0     N80306  -0.186   9.763   8.415  0.0115  0.2033  0.2410
  609MOL0     N80307  -0.073   9.715   8.372 -0.3397  0.3267  0.5975
  609MOL0     C80308   1.030   9.361   7.939  0.5755  0.4367  0.8657
  609MOL0     C80309   1.175   9.361   7.951  1.5672  0.3630  0.3431
  609MOL0     C80310   1.612   9.245   7.911 -0.6551  0.2673 -1.5269
  609MOL0     C80311   1.679   9.221   8.034 -0.0916  1.6324  0.4594
  609MOL0     C80312   1.815   9.230   8.048 -0.7746  0.7384  0.4448
  609MOL0     C80313   1.895   9.264   7.938 -0.0574  1.1730  0.4173
  609MOL0     O80314   2.031   9.289   7.948  0.5485  0.0641  0.6165
  609MOL0     C80315   2.106   9.186   8.007 -0.0438 -0.4474  0.3691
  609MOL0     C80316   2.241   9.245   8.054 -0.8494  0.3233  0.2847
  609MOL0     C80317   2.330   9.290   7.927 -0.0227 -0.4178  0.4935
  609MOL0     C80318   2.461   9.370   7.954  0.2787  0.1547 -0.3443
  609MOL0     C80319   2.448   9.482   8.038 -0.5698 -0.0647  0.1228
  609MOL0     C80320   2.433   9.585   8.104  0.3455  0.0430 -0.0476
  609MOL0     C80321   1.829   9.291   7.819  0.5289  0.3150  0.2551
  609MOL0     C80322   1.693   9.271   7.803 -0.1992 -0.4113 -0.2746
  609MOL0     H80323   1.233   9.062   8.099 -0.4971 -1.1450 -1.8424
  609MOL0     H80324   0.986   9.062   8.097 -0.1953  0.1285 -0.6160
  609MOL0     H80325   0.741   9.398   7.898  4.2428 -0.5615  0.9085
  609MOL0     H80326   0.760   9.408   8.072  0.1780  1.3013 -1.0126
  609MOL0     H80327   0.610   9.222   8.111  2.0807  0.9859 -0.2080
  609MOL0     H80328   0.588   9.197   7.937  0.7150 -0.1492 -0.4241
  609MOL0     H80329   0.470   9.438   7.943  1.1228 -1.6410 -1.6348
  609MOL0     H80330   0.504   9.445   8.116 -0.8465  1.3730 -1.2782
  609MOL0     H80331   0.311   9.256   7.999  0.2113  1.9543 -1.5176
  609MOL0     H80332   0.366   9.255   8.176 -0.0382  0.2093 -0.4779
  609MOL0     H80333   0.254   9.505   8.057 -1.2343  0.7940  0.5907
  609MOL0     H80334   0.296   9.465   8.226  1.0665 -2.0108  0.1814
  609MOL0     H80335   0.122   9.249   8.172 -1.7957 -0.0775  0.0192
  609MOL0     H80336   0.082   9.349   8.033 -0.5519  3.2472 -0.0564
  609MOL0     H80337  -0.067   9.360   8.254  0.1555  0.7156 -0.3718
  609MOL0     H80338   0.074   9.414   8.335 -1.8793  3.1123  1.4257
  609MOL0     H80339  -0.081   9.545   8.099  1.0398 -3.6982 -1.5575
  609MOL0     H80340   0.065   9.616   8.179  1.8493 -2.1536 -0.6368
  609MOL0     H80341  -0.313   9.573   8.188 -0.3562 -0.3274  0.1831
  609MOL0     H80342  -0.421   9.871   8.403 -0.7209 -0.1368  1.5718
  609MOL0     H80343  -0.450   9.705   8.474 -1.1201  0.0814 -0.5717
  609MOL0     H80344  -0.595   9.650   8.318  2.4123 -1.1432  1.2856
  609MOL0     H80345  -0.494   9.708   8.193 -1.1592  1.8128 -0.7004
  609MOL0     H80346  -0.674   9.888   8.379 -0.8907  2.1706 -1.4918
  609MOL0     H80347  -0.574   9.941   8.250  1.8373 -0.7496  0.2162
  609MOL0     H80348  -0.704   9.800   8.096  2.7132 -0.5874  1.5565
  609MOL0     H80349  -0.784   9.936   8.172 -0.0990 -0.4321 -1.7617
  609MOL0     H80350  -0.925   9.880   8.009 -0.3944  0.5193  1.7687
  609MOL0     H80351  -1.166   9.888   7.934 -0.7510  2.1422  1.5519
  609MOL0     H80352  -1.611   9.728   7.858 -2.0182 -0.5851  0.2853
  609MOL0     H80353  -1.856   9.774   7.881  0.5320 -0.8518  2.8491
  609MOL0     H80354  -2.004  10.198   7.966 -1.5383  2.3793  0.6112
  609MOL0     H80355  -1.951  10.141   8.125 -1.7591  2.5140 -0.7408
  609MOL0     H80356  -2.190  10.155   8.131  2.4922  0.5708  0.9391
  609MOL0     H80357  -2.157   9.979   8.130 -2.3937 -0.0236 -0.6270
  609MOL0     H80358  -2.230   9.938   7.928 -0.4417  0.3401  0.3607
  609MOL0     H80359  -2.175  10.092   7.863  4.3045  0.5265  3.1932
  609MOL0     H80360  -2.438  10.069   8.033  0.7868  1.1310  2.0334
  609MOL0     H80361  -2.373  10.217   7.968  1.6768 -0.7328 -0.3511
  609MOL0     H80362  -2.493   9.984   7.805 -1.1511  1.3885  1.1986
  609MOL0     H80363  -2.393  10.120   7.751  2.5480 -2.0081  1.5771
  609MOL0     H80364  -2.581  10.266   7.863 -1.0463  0.1245 -1.7973
  609MOL0     H80365  -2.658  10.120   7.915  1.1520  0.6489  1.1526
  609MOL0     H80366  -2.602  10.215   7.624  2.4236  0.4446  3.2213
  609MOL0     H80367  -2.647  10.053   7.659  3.9632  0.6224 -2.5765
  609MOL0     H80368  -2.819  10.303   7.725  1.9908 -0.4603  1.3202
  609MOL0     H80369  -2.867  10.132   7.748  1.3477 -2.6638 -0.7223
  609MOL0     H80370  -1.745  10.169   8.016  0.6019 -0.8592  1.9256
  609MOL0     H80371  -1.509  10.139   7.974 -0.0633  1.1452  2.0872
  609MOL0     H80372  -1.288   9.658   8.274  2.3256 -2.4009  1.3258
  609MOL0     H80373  -1.040   9.639   8.342  1.4958  1.0910 -0.5591
  609MOL0     H80374   0.972   9.434   7.883  0.9599  0.1601  0.0957
  609MOL0     H80375   1.238   9.440   7.911  0.8386 -0.8241 -3.4969
  609MOL0     H80376   1.616   9.186   8.115 -1.7314  1.7930 -0.6883
  609MOL0     H80377   1.862   9.221   8.145  1.8810  0.0851 -0.8160
  609MOL0     H80378   2.118   9.098   7.943  3.0250  1.1159 -1.4607
  609MOL0     H80379   2.057   9.163   8.102 -3.3669  1.8613 -0.6252
  609MOL0     H80380   2.230   9.327   8.125 -1.6475 -0.3166  0.9122
  609MOL0     H80381   2.301   9.162   8.091 -1.7590 -2.0795 -3.2049
  609MOL0     H80382   2.267   9.348   7.860 -0.1847  1.2086  1.9620
  609MOL0     H80383   2.362   9.198   7.877  2.4908  0.0038  1.1617
  609MOL0     H80384   2.535   9.317   8.015  0.9959  0.6808 -0.7493
  609MOL0     H80385   2.517   9.397   7.864 -0.3890  0.7390 -0.5976
  609MOL0     H80386   2.420   9.678   8.155  0.6605  0.1774 -0.2079
  609MOL0     H80387   1.894   9.320   7.736 -0.9254 -0.9076 -1.3949
  609MOL0     H80388   1.643   9.294   7.710  1.1167 -0.4432 -1.0096
  610MOL0     O80389   6.337   1.454   7.227  0.2543 -0.1415  0.8174
  610MOL0     C80390   6.284   1.399   7.129  0.1870 -0.1958 -0.2450
  610MOL0     O80391   6.335   1.374   7.004 -0.2648 -0.0643 -0.4424
  610MOL0     C80392   6.473   1.369   6.987 -0.7883 -0.5227  0.2336
  610MOL0     C80393   6.562   1.312   7.079  0.1776 -0.5680  0.5461
  610MOL0     C80394   6.697   1.330   7.058 -0.6679  0.2546  0.0740
  610MOL0     C80395   6.749   1.394   6.943  0.3461 -0.5936  0.3204
  610MOL0     O80396   6.880   1.419   6.911  0.4280  0.2620 -0.0068
  610MOL0     C80397   6.967   1.308   6.946  0.3367 -0.2212 -0.6099
  610MOL0     C80398   7.115   1.312   6.906 -0.1961 -0.1452 -0.3739
  610MOL0     C80399   7.201   1.419   6.981 -0.5348 -0.0673  0.2404
  610MOL0     C80400   7.146   1.568   6.975 -0.1113  0.2158  0.2358
  610MOL0     C80401   7.133   1.637   6.837  0.3361 -0.0677  0.2743
  610MOL0     C80402   7.049   1.756   6.830  0.6416  0.0458  0.6677
  610MOL0     C80403   6.891   1.729   6.823 -1.1273  0.2223 -0.5008
  610MOL0     C80404   6.820   1.852   6.857  0.8764  0.0087 -0.1314
  610MOL0     N80405   6.690   1.852   6.788 -1.1022  0.1089 -0.4453
  610MOL0     C80406   6.586   1.786   6.852  0.1123  0.2740 -0.1645
  610MOL0     C80407   6.484   1.821   6.781  0.6562 -0.8873  1.6283
  610MOL0     C80408   6.347   1.776   6.808  0.3131  0.8268  0.1829
  610MOL0     C80409   6.303   1.804   6.954  0.3765 -1.1001  0.0287
  610MOL0     C80410   6.169   1.738   7.004  0.2194  1.1180 -1.1299
  610MOL0     C80411   6.051   1.809   6.943 -0.1352 -0.1038  0.1235
  610MOL0     O80412   5.953   1.716   6.977  0.1941  0.4596 -0.3307
  610MOL0     C80413   5.824   1.742   6.939 -0.2050 -0.3384  0.0563
  610MOL0     C80414   5.772   1.865   6.892  0.3106  0.3923  0.1025
  610MOL0     C80415   5.638   1.879   6.862  0.8272  0.8604 -0.7515
  610MOL0     C80416   5.545   1.777   6.892  0.6531 -0.0139 -0.3087
  610MOL0     C80417   5.402   1.789   6.871  0.6058  0.7555  0.8581
  610MOL0     O80418   5.323   1.689   6.929 -0.0886 -0.7507 -0.2712
  610MOL0     C80419   5.184   1.703   6.924  0.1246  0.5174  0.2589
  610MOL0     C80420   5.117   1.580   6.891  0.3805 -0.3858 -0.5519
  610MOL0     C80421   4.977   1.580   6.886  0.0584  0.5362  0.8695
  610MOL0     C80422   4.904   1.690   6.920  0.8161 -1.0414  0.3340
  610MOL0     O80423   4.764   1.698   6.924 -0.5498  0.3875  0.0856
  610MOL0     C80424   4.690   1.624   6.824  0.8438 -0.2178  0.3686
  610MOL0     C80425   4.594   1.522   6.880 -0.4424 -0.1439 -0.8872
  610MOL0     C80426   4.648   1.383   6.907  0.4702  0.6821  0.1105
  610MOL0     C80427   4.526   1.288   6.945 -0.2233  0.8917 -0.3518
  610MOL0     C80428   4.577   1.156   7.006 -0.5160 -0.3847 -0.5390
  610MOL0     C80429   4.634   1.059   6.901  0.1271  0.0731 -0.2744
  610MOL0     C80430   4.676   0.932   6.973 -0.0405  0.1945  0.7556
  610MOL0     C80431   4.710   0.827   6.871 -0.4558  0.0462 -0.4145
  610MOL0    Cl80432   4.862   0.864   6.786  0.2155 -0.3424 -0.3447
  610MOL0     C80433   4.972   1.807   6.958  0.3230  0.1675  1.0390
  610MOL0     C80434   5.114   1.814   6.953  0.1869 -0.4917 -0.2194
  610MOL0     O80435   5.354   1.883   6.804 -0.1593  0.4427 -0.3925
  610MOL0     C80436   5.599   1.653   6.921 -0.8790 -0.0559 -0.6569
  610MOL0     C80437   5.735   1.636   6.949  0.0623 -0.1053  0.7943
  610MOL0     N80438   6.524   1.898   6.673  0.7682  0.2098  0.4443
  610MOL0     N80439   6.649   1.922   6.682  0.1378 -0.3137 -0.3245
  610MOL0     C80440   6.659   1.447   6.849  0.7527  0.6736  0.2498
  610MOL0     C80441   6.526   1.435   6.872  0.9343 -0.8243 -1.3236
  610MOL0     C80442   6.147   1.353   7.142 -0.2201  0.0102  1.6499
  610MOL0     C80443   6.063   1.345   7.027 -0.3311 -0.1820 -0.5454
  610MOL0     C80444   5.925   1.326   7.042 -1.3440  0.5423  0.3259
  610MOL0     C80445   5.871   1.278   7.161 -0.1355 -0.5938  0.4119
  610MOL0     O80446   5.739   1.233   7.149 -0.6906 -0.3645 -0.4155
  610MOL0     C80447   5.664   1.220   7.271  0.2830 -0.0267 -0.4177
  610MOL0     C80448   5.613   1.341   7.347  0.5886 -0.0748  0.8339
  610MOL0     C80449   5.549   1.448   7.251 -0.4345 -0.5671 -0.0696
  610MOL0     C80450   5.424   1.409   7.169  0.1806  0.1812  0.1287
  610MOL0     C80451   5.307   1.377   7.255 -0.3075  0.1091  0.9762
  610MOL0     C80452   5.223   1.350   7.341 -0.4012  1.4840  0.1853
  610MOL0     C80453   5.955   1.272   7.271 -0.2067  0.0388  0.3198
  610MOL0     C80454   6.089   1.309   7.265 -0.3267  0.2600  0.0516
  610MOL0     H80455   6.532   1.261   7.169 -1.0844 -0.0991  0.4183
  610MOL0     H80456   6.770   1.302   7.133 -1.3002  0.8332  0.9165
  610MOL0     H80457   6.931   1.210   6.912 -0.6917 -0.1642  0.2658
  610MOL0     H80458   6.965   1.309   7.055  0.5592  1.6070 -0.5917
  610MOL0     H80459   7.117   1.335   6.799 -3.9659  1.1735 -0.3007
  610MOL0     H80460   7.153   1.210   6.920 -0.1582  0.0154  0.8469
  610MOL0     H80461   7.303   1.424   6.941 -1.3997 -0.1776 -2.1371
  610MOL0     H80462   7.216   1.403   7.088  0.7121  1.1242  0.2741
  610MOL0     H80463   7.047   1.566   7.022  0.1761 -0.4726  0.8340
  610MOL0     H80464   7.221   1.626   7.030 -2.6249  0.8143  3.3350
  610MOL0     H80465   7.113   1.562   6.759 -1.6151 -2.2355  2.6711
  610MOL0     H80466   7.234   1.673   6.817 -0.3663  2.0481  0.3299
  610MOL0     H80467   7.064   1.813   6.738 -2.8723  2.8955  1.6119
  610MOL0     H80468   7.066   1.816   6.920 -0.4321 -0.9715  1.5811
  610MOL0     H80469   6.868   1.699   6.721 -0.3814  1.2928 -1.0025
  610MOL0     H80470   6.873   1.649   6.895 -0.2643  1.1348  0.7810
  610MOL0     H80471   6.880   1.941   6.838 -0.7966  1.9782  2.9553
  610MOL0     H80472   6.791   1.865   6.962 -3.9000  1.4942 -1.3898
  610MOL0     H80473   6.588   1.724   6.941  0.3736 -0.5840 -0.7553
  610MOL0     H80474   6.353   1.668   6.792  0.5295  0.7367  0.8344
  610MOL0     H80475   6.275   1.821   6.739 -2.8493 -2.6090  0.9346
  610MOL0     H80476   6.289   1.912   6.957  1.8439 -0.7593 -2.5382
  610MOL0     H80477   6.382   1.786   7.027  0.4598  0.7690  0.4494
  610MOL0     H80478   6.175   1.632   6.980 -0.3346  0.3854  1.6021
  610MOL0     H80479   6.163   1.748   7.113  1.8287  0.1645 -0.9162
  610MOL0     H80480   6.061   1.819   6.834 -0.7520 -0.7230  0.0040
  610MOL0     H80481   6.030   1.909   6.982 -0.9105 -0.3396  0.3250
  610MOL0     H80482   5.836   1.949   6.869  0.2377 -0.1051 -2.1314
  610MOL0     H80483   5.593   1.969   6.820 -3.3270 -0.4629  0.3977
  610MOL0     H80484   5.179   1.498   6.854  3.4307  2.0473 -1.2060
  610MOL0     H80485   4.930   1.491   6.844  1.0344 -0.3280  1.5486
  610MOL0     H80486   4.756   1.564   6.760 -0.3630 -0.7913 -0.3711
  610MOL0     H80487   4.642   1.696   6.757 -0.1196 -1.1633  0.0123
  610MOL0     H80488   4.523   1.503   6.799  0.5154 -2.7369 -1.2149
  610MOL0     H80489   4.536   1.553   6.968  0.7091  1.7875 -0.7550
  610MOL0     H80490   4.735   1.389   6.973 -1.1313  0.3006  2.3634
  610MOL0     H80491   4.682   1.355   6.806 -3.0609  1.7533 -1.5520
  610MOL0     H80492   4.481   1.340   7.029  0.1824 -0.0957  0.4906
  610MOL0     H80493   4.451   1.276   6.866 -1.5900 -3.7777  1.3828
  610MOL0     H80494   4.490   1.099   7.042  1.0967 -3.2499 -0.9103
  610MOL0     H80495   4.635   1.170   7.097  0.0184 -1.1478 -0.7607
  610MOL0     H80496   4.711   1.105   6.840  0.5481 -1.0260 -0.6020
  610MOL0     H80497   4.548   1.037   6.836 -2.2845 -0.2357  2.7641
  610MOL0     H80498   4.766   0.952   7.031  0.8219 -0.1324 -0.4203
  610MOL0     H80499   4.599   0.886   7.036 -2.0136  2.1269 -0.1274
  610MOL0     H80500   4.632   0.815   6.796  1.6806  2.2830 -3.1871
  610MOL0     H80501   4.716   0.728   6.917 -0.9589  0.6806  1.0868
  610MOL0     H80502   4.932   1.898   7.002 -0.0711  0.6213 -0.2073
  610MOL0     H80503   5.165   1.905   6.981  1.8505 -1.0685 -1.2225
  610MOL0     H80504   5.544   1.561   6.936  0.8515 -0.9781  0.3782
  610MOL0     H80505   5.767   1.539   6.985  0.9017  0.2597  1.0562
  610MOL0     H80506   6.697   1.501   6.763  0.4742 -0.0965 -0.3636
  610MOL0     H80507   6.457   1.494   6.811  0.0723 -1.1596 -0.6972
  610MOL0     H80508   6.091   1.372   6.926 -0.5502  0.0598 -0.5435
  610MOL0     H80509   5.868   1.329   6.950 -2.1883  0.2517  0.8265
  610MOL0     H80510   5.713   1.143   7.331  1.7864  1.4243  0.2848
  610MOL0     H80511   5.569   1.185   7.229  0.1811  0.2610 -0.4288
  610MOL0     H80512   5.540   1.316   7.424  1.9002 -1.1225  1.7979
  610MOL0     H80513   5.706   1.371   7.397  1.1304 -0.4292  0.0513
  610MOL0     H80514   5.630   1.475   7.183 -1.5159  1.4021 -0.6478
  610MOL0     H80515   5.515   1.536   7.306  0.6616 -0.2570  0.1292
  610MOL0     H80516   5.393   1.495   7.110 -1.7293 -1.1179 -0.8400
  610MOL0     H80517   5.439   1.324   7.101  2.0746 -0.0435  0.7443
  610MOL0     H80518   5.151   1.341   7.420  0.3041 -0.6803  0.6390
  610MOL0     H80519   5.934   1.226   7.367  0.4362  2.5956  1.7867
  610MOL0     H80520   6.155   1.317   7.351  0.1254 -2.2057  0.0264
  611MOL0     O80521   7.760   1.807   8.279  0.5868  0.4356  0.3758
  611MOL0     C80522   7.796   1.858   8.382 -0.2105  0.0855 -0.5430
  611MOL0     O80523   7.715   1.909   8.479 -0.3538 -0.2684  0.3853
  611MOL0     C80524   7.583   1.908   8.478 -0.3941 -0.2708  0.2884
  611MOL0     C80525   7.529   2.009   8.559 -0.5225  0.1959 -0.4989
  611MOL0     C80526   7.395   2.020   8.570  0.1017 -0.2728  0.2021
  611MOL0     C80527   7.300   1.936   8.509  0.7155 -0.2774 -0.1542
  611MOL0     O80528   7.158   1.955   8.521 -0.6954  0.3736  0.1644
  611MOL0     C80529   7.105   2.093   8.529 -0.4177  0.0234 -0.5783
  611MOL0     C80530   6.953   2.098   8.510 -0.5618 -0.5655  0.6919
  611MOL0     C80531   6.898   2.050   8.372  0.1350  0.4052 -0.7821
  611MOL0     C80532   6.901   2.154   8.269 -0.0890  0.1780 -0.0474
  611MOL0     C80533   6.855   2.077   8.142 -1.0015  0.9765  0.1416
  611MOL0     C80534   6.856   2.178   8.028  0.0193 -0.4707 -0.8072
  611MOL0     C80535   6.755   2.288   8.033  0.1042  0.0252 -0.2758
  611MOL0     C80536   6.745   2.353   7.897 -0.2950 -0.1139  0.9351
  611MOL0     N80537   6.619   2.429   7.877 -0.5067  0.3337 -0.1877
  611MOL0     C80538   6.594   2.487   7.754  0.5469 -0.2413  1.2713
  611MOL0     C80539   6.492   2.572   7.780  0.1930  0.6250 -0.2787
  611MOL0     C80540   6.402   2.646   7.682 -0.4651 -0.1962 -1.3074
  611MOL0     C80541   6.268   2.571   7.668 -0.5897 -0.6372  0.1832
  611MOL0     C80542   6.178   2.656   7.583  0.2354 -0.5967 -0.7617
  611MOL0     C80543   6.035   2.599   7.594  0.4828 -0.0670  0.6362
  611MOL0     O80544   5.955   2.672   7.503 -0.6985  1.0126 -0.3049
  611MOL0     C80545   5.823   2.682   7.523 -0.2617  0.4876 -0.2860
  611MOL0     C80546   5.751   2.634   7.629 -0.4812  0.0749 -0.3064
  611MOL0     C80547   5.615   2.649   7.653  0.1498 -0.4175  0.2229
  611MOL0     C80548   5.539   2.702   7.548 -0.2483 -0.1572 -0.1413
  611MOL0     C80549   5.397   2.689   7.563 -0.1763 -0.4306 -1.2587
  611MOL0     O80550   5.325   2.703   7.451  0.6480 -0.0222  0.3103
  611MOL0     C80551   5.188   2.708   7.426 -0.0476  0.4204 -0.5577
  611MOL0     C80552   5.087   2.701   7.521  0.4286 -0.9460 -0.0546
  611MOL0     C80553   4.953   2.700   7.492  0.3728 -0.7289 -0.1726
  611MOL0     C80554   4.919   2.710   7.357 -0.1103  0.3160 -0.0605
  611MOL0     O80555   4.786   2.703   7.311  0.1473 -0.3999  0.4583
  611MOL0     C80556   4.686   2.654   7.398  0.4134  0.5584  0.1439
  611MOL0     C80557   4.553   2.681   7.332  0.1340  0.2415  0.8266
  611MOL0     C80558   4.445   2.660   7.430  0.1956 -0.4531 -0.2772
  611MOL0     C80559   4.320   2.707   7.344 -0.0577  1.3837 -0.1271
  611MOL0     C80560   4.194   2.644   7.406  0.1438  0.2610 -0.5096
  611MOL0     C80561   4.080   2.677   7.313  0.6598 -0.1918 -0.0235
  611MOL0     C80562   3.948   2.611   7.338  0.0866  0.1718  0.6900
  611MOL0     C80563   3.962   2.461   7.364  0.0618 -0.1418 -0.4096
  611MOL0    Cl80564   3.806   2.390   7.342  0.2611  0.0991 -0.0228
  611MOL0     C80565   5.015   2.727   7.261 -0.5275 -0.1615 -0.3102
  611MOL0     C80566   5.148   2.734   7.299 -0.3563  0.9264  0.4894
  611MOL0     O80567   5.351   2.674   7.674 -0.1196  0.6518  0.7642
  611MOL0     C80568   5.606   2.737   7.425  0.3134 -0.1341  0.2545
  611MOL0     C80569   5.742   2.737   7.417  0.7120  0.7009  0.3677
  611MOL0     N80570   6.472   2.575   7.914 -0.2574  0.6078 -0.2357
  611MOL0     N80571   6.550   2.499   7.974 -0.1390 -0.4049  0.7247
  611MOL0     C80572   7.359   1.834   8.432  1.1411 -0.1105 -0.6139
  611MOL0     C80573   7.492   1.820   8.412  0.0789  0.2552  0.4707
  611MOL0     C80574   7.937   1.849   8.407  0.4004 -0.3786  0.2684
  611MOL0     C80575   7.994   1.907   8.518  0.9462 -0.0404 -0.9927
  611MOL0     C80576   8.129   1.914   8.540 -0.7160 -0.2297 -0.0096
  611MOL0     C80577   8.216   1.847   8.448  0.8197 -1.0584 -0.5437
  611MOL0     O80578   8.349   1.867   8.478 -0.1686 -0.4974  0.1955
  611MOL0     C80579   8.452   1.813   8.387  0.2952 -0.4153  0.0692
  611MOL0     C80580   8.590   1.820   8.457 -1.1552  0.4267  0.1906
  611MOL0     C80581   8.709   1.757   8.366  0.2139  0.0815 -1.3394
  611MOL0     C80582   8.852   1.807   8.416  0.2372  0.4631  0.8937
  611MOL0     C80583   8.873   1.809   8.557 -0.1513 -0.1542 -0.2571
  611MOL0     C80584   8.883   1.842   8.673 -0.6864 -1.0152 -0.7240
  611MOL0     C80585   8.168   1.773   8.345  0.0311  0.6912  0.0164
  611MOL0     C80586   8.027   1.779   8.327 -0.4990 -0.1987 -0.0565
  611MOL0     H80587   7.596   2.075   8.614  0.1279 -0.7611 -0.1156
  611MOL0     H80588   7.345   2.085   8.643  0.6132 -0.4849  0.7507
  611MOL0     H80589   7.151   2.142   8.443 -0.6347 -0.2986 -0.8762
  611MOL0     H80590   7.130   2.147   8.621  1.9391  0.5451 -1.4515
  611MOL0     H80591   6.923   2.201   8.532 -0.1337 -0.7110  2.0346
  611MOL0     H80592   6.915   2.040   8.594 -1.6176  0.4692  0.9597
  611MOL0     H80593   6.795   2.014   8.383  0.9863 -1.8269  0.6420
  611MOL0     H80594   6.956   1.960   8.346  0.9719 -0.0972  2.3508
  611MOL0     H80595   6.826   2.231   8.289  1.3231  1.7341 -0.5097
  611MOL0     H80596   6.999   2.202   8.261  0.4585 -0.6228  1.4419
  611MOL0     H80597   6.757   2.027   8.138  0.1853 -1.5824 -4.4748
  611MOL0     H80598   6.928   1.999   8.118  0.6264  1.6962  2.4119
  611MOL0     H80599   6.870   2.130   7.931 -0.5337 -1.3456 -0.4720
  611MOL0     H80600   6.952   2.226   8.045 -0.7165  0.1529  2.2413
  611MOL0     H80601   6.662   2.236   8.058 -0.1293  0.3963 -0.3615
  611MOL0     H80602   6.783   2.354   8.116  0.9874 -0.6229 -0.0421
  611MOL0     H80603   6.745   2.263   7.835 -1.3542  0.2622  0.3715
  611MOL0     H80604   6.828   2.418   7.866 -0.5361  1.1670  2.8148
  611MOL0     H80605   6.644   2.457   7.662  0.9840  0.0563  1.4113
  611MOL0     H80606   6.446   2.650   7.582 -0.7937  0.0975 -1.4427
  611MOL0     H80607   6.388   2.747   7.722  1.2328  0.8663 -3.2413
  611MOL0     H80608   6.226   2.548   7.766  1.3526  2.1682  1.8000
  611MOL0     H80609   6.298   2.478   7.619  2.7392 -0.5390  1.7749
  611MOL0     H80610   6.164   2.755   7.625 -2.2271 -0.9312 -0.6224
  611MOL0     H80611   6.215   2.666   7.481  1.5268  1.2409 -0.1570
  611MOL0     H80612   5.994   2.610   7.695 -0.9915 -1.0228  0.1795
  611MOL0     H80613   6.038   2.496   7.557 -0.3800  1.3747 -4.0820
  611MOL0     H80614   5.796   2.586   7.716 -0.6273 -0.3031 -0.4348
  611MOL0     H80615   5.576   2.604   7.743 -1.0018 -0.0680 -0.0878
  611MOL0     H80616   5.106   2.693   7.627 -1.4628  2.1408  0.6539
  611MOL0     H80617   4.879   2.697   7.571 -2.6223  3.2163 -2.4795
  611MOL0     H80618   4.675   2.699   7.497  0.2431  1.4211 -0.2644
  611MOL0     H80619   4.715   2.550   7.417  1.3714  1.2356  2.8154
  611MOL0     H80620   4.533   2.599   7.262  2.3636  0.3929 -0.0769
  611MOL0     H80621   4.558   2.780   7.286  0.4448 -0.3195 -0.3865
  611MOL0     H80622   4.468   2.721   7.518 -2.1068 -0.0176  0.0905
  611MOL0     H80623   4.433   2.554   7.457  1.6566 -0.8266 -1.0238
  611MOL0     H80624   4.323   2.816   7.334  1.3632  1.4331  0.5327
  611MOL0     H80625   4.336   2.661   7.246 -0.9896 -2.8474  1.4861
  611MOL0     H80626   4.181   2.679   7.509  0.3016 -0.8855 -0.0932
  611MOL0     H80627   4.209   2.536   7.415  1.0382  0.0295 -3.6851
  611MOL0     H80628   4.112   2.663   7.210 -3.4893 -0.6053 -1.4370
  611MOL0     H80629   4.065   2.786   7.321  2.0639  0.0724 -0.7170
  611MOL0     H80630   3.898   2.668   7.416 -1.7302  0.7975 -0.8564
  611MOL0     H80631   3.878   2.623   7.254  1.3793  0.9011 -0.3143
  611MOL0     H80632   4.012   2.438   7.459  0.7194 -0.3210 -0.7929
  611MOL0     H80633   4.023   2.410   7.289 -0.7644  0.2632 -1.3778
  611MOL0     H80634   4.987   2.729   7.156  1.5361 -1.1460 -0.9259
  611MOL0     H80635   5.225   2.731   7.223  1.5418  2.8772  2.2054
  611MOL0     H80636   5.561   2.787   7.340  0.7025  0.7546  0.5649
  611MOL0     H80637   5.785   2.766   7.321  1.7262  1.5946  1.0614
  611MOL0     H80638   7.291   1.766   8.382  2.9558  0.2563 -3.8523
  611MOL0     H80639   7.535   1.751   8.340  2.0592  4.6481 -3.1008
  611MOL0     H80640   7.941   1.964   8.595  1.0200 -1.0660 -0.1608
  611MOL0     H80641   8.166   1.969   8.626 -1.2064  0.1183 -0.0143
  611MOL0     H80642   8.458   1.883   8.304  0.4264 -3.0105 -2.2664
  611MOL0     H80643   8.425   1.711   8.358  0.3643 -1.1255  2.3102
  611MOL0     H80644   8.598   1.925   8.487 -2.9034  0.2120  1.5671
  611MOL0     H80645   8.571   1.758   8.545 -1.3777 -0.4916 -0.4817
  611MOL0     H80646   8.698   1.773   8.259  1.8418  0.7021 -1.4429
  611MOL0     H80647   8.704   1.648   8.371  0.0359  0.1302  1.6971
  611MOL0     H80648   8.931   1.746   8.371 -0.4018 -3.7412  4.7721
  611MOL0     H80649   8.873   1.907   8.375  1.6806 -0.3602 -0.4716
  611MOL0     H80650   8.895   1.895   8.765 -1.2695  2.9471 -2.7162
  611MOL0     H80651   8.235   1.725   8.274 -0.3598 -0.1564  0.1998
  611MOL0     H80652   7.985   1.735   8.236 -0.2339 -0.3907 -0.0868
  612MOL0     O80653   7.248   5.730   5.825 -0.1862 -0.6668  0.0205
  612MOL0     C80654   7.214   5.777   5.716  0.2796 -0.3185 -0.0208
  612MOL0     O80655   7.086   5.783   5.665 -0.6165  0.2565 -0.5492
  612MOL0     C80656   6.989   5.729   5.740  0.1149  0.7484 -0.6194
  612MOL0     C80657   6.938   5.778   5.866 -0.7248 -0.3928  0.1002
  612MOL0     C80658   6.824   5.722   5.925  0.2289 -0.1441  0.3375
  612MOL0     C80659   6.747   5.625   5.861 -0.3621  0.5021  0.1470
  612MOL0     O80660   6.625   5.584   5.910 -0.3890  0.1066 -0.0202
  612MOL0     C80661   6.526   5.692   5.908 -0.6496  0.4773  0.2217
  612MOL0     C80662   6.392   5.628   5.946  0.6026 -0.5535  0.0519
  612MOL0     C80663   6.273   5.729   5.901  0.0145 -0.3781 -0.4215
  612MOL0     C80664   6.260   5.834   6.012 -0.3327 -0.3334  0.4281
  612MOL0     C80665   6.142   5.926   5.970 -0.2578  0.1041  0.1993
  612MOL0     C80666   5.999   5.872   5.997 -0.2548  0.4852  0.8169
  612MOL0     C80667   5.977   5.847   6.146  0.0500 -0.2254 -0.6917
  612MOL0     C80668   5.828   5.824   6.171  0.2507 -0.5625  0.4606
  612MOL0     N80669   5.793   5.878   6.310  0.2616 -0.3023  0.4377
  612MOL0     C80670   5.706   5.979   6.339 -0.2210 -0.3918 -0.6666
  612MOL0     C80671   5.676   5.957   6.471 -0.1834 -0.6819 -0.5080
  612MOL0     C80672   5.587   6.053   6.543 -0.4387 -0.5609 -0.3567
  612MOL0     C80673   5.588   6.039   6.699 -0.0282 -0.1389  0.1342
  612MOL0     C80674   5.536   5.911   6.767 -0.6077  0.5869  0.8250
  612MOL0     C80675   5.405   5.857   6.713  0.1008  0.3499  0.3476
  612MOL0     O80676   5.298   5.951   6.728  0.1620 -0.3336 -0.1524
  612MOL0     C80677   5.212   5.968   6.622 -0.5540 -0.4222  0.6360
  612MOL0     C80678   5.128   5.859   6.586 -1.1597 -0.0849 -0.2068
  612MOL0     C80679   5.021   5.876   6.504 -0.3304 -0.1395  0.3227
  612MOL0     C80680   4.976   5.998   6.453 -0.4263 -0.4224  0.5101
  612MOL0     C80681   4.867   6.006   6.354  0.1016 -0.5840 -0.4031
  612MOL0     O80682   4.833   6.134   6.322 -0.4878 -0.7676 -0.3996
  612MOL0     C80683   4.727   6.160   6.239  0.4607 -0.2780 -0.2092
  612MOL0     C80684   4.599   6.112   6.271 -0.9511 -0.2539 -1.1729
  612MOL0     C80685   4.488   6.140   6.195 -0.8075 -0.4555 -0.1690
  612MOL0     C80686   4.496   6.231   6.087  0.0856 -0.1032 -0.4234
  612MOL0     O80687   4.400   6.275   6.002  0.3734 -0.3080  0.0771
  612MOL0     C80688   4.264   6.266   6.044  0.2360  0.3828  0.0341
  612MOL0     C80689   4.185   6.314   5.927  0.1607 -0.2033  0.5221
  612MOL0     C80690   4.034   6.352   5.962  0.0986  0.0877  0.2944
  612MOL0     C80691   3.962   6.407   5.844 -0.6116 -0.3736 -0.0094
  612MOL0     C80692   3.818   6.436   5.868  0.1264 -0.4892 -0.0772
  612MOL0     C80693   3.805   6.575   5.945 -0.4808  0.1437  0.2642
  612MOL0     C80694   3.663   6.636   5.960 -0.0275 -0.0055  0.9149
  612MOL0     C80695   3.622   6.688   5.826  0.7073 -0.1468 -0.2143
  612MOL0    Cl80696   3.442   6.681   5.824  0.3875  0.0323 -0.1067
  612MOL0     C80697   4.623   6.295   6.068  0.2985  0.5063  0.2994
  612MOL0     C80698   4.742   6.249   6.134  0.3038 -0.2369  0.0548
  612MOL0     O80699   4.813   5.907   6.304  0.5846  0.3256 -0.4270
  612MOL0     C80700   5.063   6.102   6.486  0.2414  0.9894 -0.0722
  612MOL0     C80701   5.177   6.092   6.565  0.1588  1.0601  0.1060
  612MOL0     N80702   5.760   5.866   6.521  0.0563 -0.4909  0.5049
  612MOL0     N80703   5.833   5.817   6.423  0.0597  0.4764 -0.1309
  612MOL0     C80704   6.794   5.576   5.737  0.3645  1.0560 -0.2096
  612MOL0     C80705   6.914   5.618   5.686  0.4467 -0.2166 -0.0269
  612MOL0     C80706   7.327   5.819   5.624 -0.2862  0.8465 -0.4635
  612MOL0     C80707   7.451   5.861   5.676 -0.1941  1.0101  0.5190
  612MOL0     C80708   7.561   5.897   5.593 -0.0491  0.8155  0.7864
  612MOL0     C80709   7.535   5.923   5.455  0.0118  0.2124  0.1936
  612MOL0     O80710   7.647   5.958   5.383 -0.1640  0.4552 -0.3817
  612MOL0     C80711   7.646   5.950   5.241 -0.5061  0.0383  0.2530
  612MOL0     C80712   7.641   5.800   5.204 -0.4354 -0.6043  0.1107
  612MOL0     C80713   7.720   5.776   5.073 -0.3933 -0.6191 -0.0030
  612MOL0     C80714   7.865   5.726   5.104 -0.1074 -0.9133 -0.2744
  612MOL0     C80715   7.948   5.681   4.977  0.1848  0.0957  0.4076
  612MOL0     C80716   8.010   5.647   4.882 -0.2240  0.3416  0.1081
  612MOL0     C80717   7.405   5.892   5.407  0.3356  0.3136  0.1683
  612MOL0     C80718   7.306   5.831   5.486 -0.3918  0.3989 -0.2587
  612MOL0     H80719   7.002   5.858   5.903  0.0138  0.2409 -2.3571
  612MOL0     H80720   6.786   5.776   6.010  1.7010 -0.5096  1.2640
  612MOL0     H80721   6.524   5.730   5.806 -0.4772  1.4949  0.5895
  612MOL0     H80722   6.545   5.778   5.973 -1.1004  1.0500 -0.3848
  612MOL0     H80723   6.386   5.611   6.054 -1.4113 -1.3941 -0.1358
  612MOL0     H80724   6.376   5.530   5.900  0.6507 -1.3047  1.5590
  612MOL0     H80725   6.189   5.660   5.902  1.3667 -2.3202  4.0120
  612MOL0     H80726   6.277   5.764   5.798  1.0323 -2.9831 -1.3565
  612MOL0     H80727   6.244   5.794   6.112  0.5162  1.2341  1.2391
  612MOL0     H80728   6.354   5.891   6.012 -1.0371  1.1092 -3.0419
  612MOL0     H80729   6.159   5.955   5.866  0.7975 -1.5250 -0.1236
  612MOL0     H80730   6.153   6.018   6.028  0.3297  0.3357 -0.2684
  612MOL0     H80731   5.970   5.782   5.941  0.5072  0.7795 -0.0817
  612MOL0     H80732   5.942   5.956   5.958  0.3389  0.3859 -0.2950
  612MOL0     H80733   6.033   5.765   6.192  1.7212  2.1860  1.9447
  612MOL0     H80734   6.010   5.931   6.208 -1.6457  0.5861 -0.8273
  612MOL0     H80735   5.793   5.723   6.152 -4.0595  0.4626  1.8013
  612MOL0     H80736   5.777   5.888   6.098  2.0527  1.5167  0.8885
  612MOL0     H80737   5.664   6.063   6.285 -3.0358 -0.0738  1.7796
  612MOL0     H80738   5.486   6.032   6.507 -0.9039  0.9014  0.0132
  612MOL0     H80739   5.620   6.155   6.522 -1.6548 -0.5012 -2.0762
  612MOL0     H80740   5.547   6.130   6.742  1.5684  2.3735 -3.2065
  612MOL0     H80741   5.691   6.053   6.734  0.1866  0.2915 -0.6371
  612MOL0     H80742   5.609   5.831   6.751 -0.6954  0.6936 -0.1425
  612MOL0     H80743   5.526   5.919   6.876 -0.7062 -0.7530  0.9384
  612MOL0     H80744   5.372   5.766   6.763  2.6226 -0.0221  1.4579
  612MOL0     H80745   5.423   5.840   6.607 -1.2963  2.4441 -0.2960
  612MOL0     H80746   5.148   5.767   6.639  0.0587 -0.6877 -1.6405
  612MOL0     H80747   4.967   5.785   6.479 -0.3380  0.5768 -2.5633
  612MOL0     H80748   4.586   6.044   6.355 -1.5828  2.5300  1.1285
  612MOL0     H80749   4.391   6.101   6.225 -1.6099  0.9522 -0.8532
  612MOL0     H80750   4.241   6.339   6.122  0.8080 -0.4595  1.0159
  612MOL0     H80751   4.235   6.167   6.080 -2.3847  0.2944 -2.0738
  612MOL0     H80752   4.187   6.235   5.851 -0.0903  2.1513 -2.1213
  612MOL0     H80753   4.228   6.402   5.880 -3.7409  0.4370 -2.3988
  612MOL0     H80754   4.041   6.427   6.042 -1.9602  0.3007  0.3250
  612MOL0     H80755   3.977   6.265   5.995 -0.3511  0.3379  0.1911
  612MOL0     H80756   4.015   6.498   5.816 -0.2792 -0.4739  0.2794
  612MOL0     H80757   3.976   6.338   5.760  1.5113 -1.4241  1.1364
  612MOL0     H80758   3.776   6.355   5.927  0.9212 -1.6924 -1.1237
  612MOL0     H80759   3.760   6.450   5.776  0.2117 -1.2072 -0.2436
  612MOL0     H80760   3.853   6.660   5.895 -0.7594  0.1317 -0.0273
  612MOL0     H80761   3.855   6.561   6.041  0.0203  1.1499  0.1579
  612MOL0     H80762   3.588   6.560   5.982  0.9167 -1.1139  0.3884
  612MOL0     H80763   3.660   6.723   6.026  0.9672  0.2552  0.6314
  612MOL0     H80764   3.652   6.619   5.746 -1.1040  2.6817 -3.6191
  612MOL0     H80765   3.666   6.784   5.797 -0.0205 -0.2851 -1.9136
  612MOL0     H80766   4.614   6.364   5.985 -0.6768 -1.4177 -1.2838
  612MOL0     H80767   4.842   6.281   6.106  0.2809 -1.1508 -1.1038
  612MOL0     H80768   5.039   6.202   6.450  2.6599  1.6723  0.0508
  612MOL0     H80769   5.229   6.183   6.594  0.3120  1.5256 -1.5328
  612MOL0     H80770   6.743   5.491   5.693  0.4418  0.5013  0.7513
  612MOL0     H80771   6.935   5.579   5.587  2.1143  0.3348  0.0784
  612MOL0     H80772   7.470   5.854   5.783  0.6238 -3.2284  0.2825
  612MOL0     H80773   7.658   5.914   5.638  0.6569 -1.5814  0.3230
  612MOL0     H80774   7.727   5.999   5.186 -0.6365  0.9579  0.8556
  612MOL0     H80775   7.551   5.994   5.211 -1.2869 -1.8234 -0.1067
  612MOL0     H80776   7.675   5.739   5.287  0.4566 -0.4759 -0.1471
  612MOL0     H80777   7.535   5.774   5.188 -0.3377 -1.3603  0.6919
  612MOL0     H80778   7.708   5.869   5.018 -1.5066 -0.2401  0.8492
  612MOL0     H80779   7.675   5.698   5.010  0.2570 -0.6391 -0.4474
  612MOL0     H80780   7.928   5.808   5.141 -0.7226  0.7055 -2.5854
  612MOL0     H80781   7.868   5.657   5.189 -0.6861 -0.6471 -0.0327
  612MOL0     H80782   8.072   5.632   4.796 -1.4810 -1.8223 -0.5053
  612MOL0     H80783   7.385   5.907   5.301  3.1599  0.5254 -0.4330
  612MOL0     H80784   7.217   5.793   5.437 -1.8253 -0.1749  2.6243
  613MOL0     O80785   4.439   0.224   7.967  0.0840 -0.7351 -0.0147
  613MOL0     C80786   4.506   0.307   8.024  0.3535  0.1253 -0.4605
  613MOL0     O80787   4.462   0.395   8.125  0.3681 -0.1793 -0.0829
  613MOL0     C80788   4.334   0.381   8.171 -0.0099 -0.5621 -0.4127
  613MOL0     C80789   4.304   0.332   8.301  0.0634  0.5143  0.6921
  613MOL0     C80790   4.172   0.322   8.345  0.5604  0.1816 -0.6142
  613MOL0     C80791   4.068   0.370   8.260 -0.7358 -0.0635  0.1331
  613MOL0     O80792   3.943   0.361   8.324  0.2585  0.1909 -0.0581
  613MOL0     C80793   3.832   0.441   8.279  0.4303  0.0685  0.3180
  613MOL0     C80794   3.749   0.473   8.410 -0.6042  0.1610  0.7422
  613MOL0     C80795   3.696   0.327   8.460  0.7630 -0.6606 -0.2419
  613MOL0     C80796   3.606   0.344   8.578 -0.1018  0.0840 -0.0236
  613MOL0     C80797   3.555   0.205   8.619  0.0345  0.3506 -0.2901
  613MOL0     C80798   3.444   0.214   8.730  0.1741  0.1086  0.2978
  613MOL0     C80799   3.457   0.328   8.827  0.6934 -1.0475 -0.4892
  613MOL0     C80800   3.378   0.324   8.956  0.5088 -0.1374 -1.3929
  613MOL0     N80801   3.236   0.342   8.939  0.5023  0.2594  0.1811
  613MOL0     C80802   3.144   0.313   9.038  0.8537  0.0275  0.0716
  613MOL0     C80803   3.025   0.293   8.977  0.2955  0.6852  0.0156
  613MOL0     C80804   2.892   0.237   9.024  0.6261  0.4226 -0.8134
  613MOL0     C80805   2.876   0.209   9.172  0.0024  0.0696  1.1067
  613MOL0     C80806   2.735   0.143   9.190  0.2549  0.5221 -0.4435
  613MOL0     C80807   2.709   0.104   9.336 -0.1247 -0.6375 -0.0443
  613MOL0     O80808   2.676   0.228   9.399 -0.1951 -0.2503 -0.2428
  613MOL0     C80809   2.543   0.253   9.432  0.1870  0.1084 -0.2364
  613MOL0     C80810   2.523   0.334   9.538 -0.0342  0.1535 -0.6069
  613MOL0     C80811   2.397   0.355   9.593 -0.3221 -0.0580  0.2421
  613MOL0     C80812   2.285   0.297   9.534 -0.0880  0.4891  0.5188
  613MOL0     C80813   2.152   0.318   9.589  0.6873  0.0450  0.9998
  613MOL0     O80814   2.137   0.337   9.726  0.4087  0.1303 -0.1920
  613MOL0     C80815   2.014   0.345   9.775  0.2693 -0.2677  1.1529
  613MOL0     C80816   1.949   0.470   9.788 -0.5089  0.3939  0.5029
  613MOL0     C80817   1.820   0.474   9.837  0.1992  0.3429 -0.1527
  613MOL0     C80818   1.748   0.362   9.872  0.1796 -0.8460 -0.2706
  613MOL0     O80819   1.626   0.381   9.929  0.1260  0.4486 -0.0820
  613MOL0     C80820   1.516   0.314   9.857 -0.8026 -0.1215  0.9302
  613MOL0     C80821   1.386   0.329   9.941  0.2857  0.4460 -0.3300
  613MOL0     C80822   1.268   0.249   9.894  0.1847  0.6692 -0.4251
  613MOL0     C80823   1.146   0.285   9.975 -0.3204 -0.0171  0.2882
  613MOL0     C80824   1.047   0.166   9.948  0.0246 -0.0316 -0.3348
  613MOL0     C80825   0.902   0.211   9.962 -0.0263 -0.3060 -0.6440
  613MOL0     C80826   0.801   0.112   9.905 -0.0881  0.7886  0.0596
  613MOL0     C80827   0.665   0.133   9.971  0.5429  0.4532  0.6803
  613MOL0    Cl80828   0.622   0.301   9.932  0.1610 -0.0291  0.0214
  613MOL0     C80829   1.802   0.242   9.854  0.0138  0.2348  0.6600
  613MOL0     C80830   1.936   0.232   9.806 -0.9830 -0.4865 -0.8106
  613MOL0     O80831   2.056   0.294   9.514  0.6070 -0.5858 -0.3274
  613MOL0     C80832   2.303   0.226   9.415 -0.3933 -0.5176 -0.1873
  613MOL0     C80833   2.429   0.205   9.362  0.4404 -0.7007 -0.3695
  613MOL0     N80834   3.044   0.314   8.840 -0.5406  0.6326 -0.0635
  613MOL0     N80835   3.172   0.337   8.812 -0.1311  0.3941  0.0610
  613MOL0     C80836   4.100   0.424   8.134 -0.4473  0.3299 -0.4431
  613MOL0     C80837   4.232   0.422   8.092  0.1706  0.2108 -0.1462
  613MOL0     C80838   4.650   0.324   7.989 -0.2621 -0.1596 -0.3813
  613MOL0     C80839   4.714   0.228   7.919 -0.4306  0.8312  0.3023
  613MOL0     C80840   4.852   0.238   7.877  0.4693 -0.3241 -0.3462
  613MOL0     C80841   4.930   0.346   7.912  0.0317 -0.0825 -0.4311
  613MOL0     O80842   5.062   0.352   7.873  0.5118 -0.3742 -0.0735
  613MOL0     C80843   5.115   0.483   7.838  0.6105 -0.4606 -0.1344
  613MOL0     C80844   5.218   0.498   7.932 -0.6851 -0.0010  0.0540
  613MOL0     C80845   5.321   0.610   7.908  0.1509  0.5981  0.5259
  613MOL0     C80846   5.422   0.632   8.021 -0.5314 -0.4843  0.4067
  613MOL0     C80847   5.508   0.750   7.986 -0.0966  0.2254 -0.1291
  613MOL0     C80848   5.597   0.826   7.943  0.7372 -0.4620  0.7187
  613MOL0     C80849   4.872   0.434   7.999  0.3843 -0.1371  0.9649
  613MOL0     C80850   4.739   0.422   8.045  0.8294  0.2811 -0.6584
  613MOL0     H80851   4.379   0.294   8.370 -1.3728  0.4988  2.2898
  613MOL0     H80852   4.153   0.274   8.440 -1.1041 -0.5301 -1.2587
  613MOL0     H80853   3.763   0.391   8.210  0.3902  1.1310 -0.4377
  613MOL0     H80854   3.859   0.535   8.229  2.5466 -0.8029 -0.2991
  613MOL0     H80855   3.671   0.546   8.387 -0.6869  0.0011  0.5076
  613MOL0     H80856   3.807   0.517   8.491 -1.7282  1.4563  0.8834
  613MOL0     H80857   3.781   0.271   8.498  1.7429  0.8981 -0.0272
  613MOL0     H80858   3.630   0.278   8.388 -2.0415  1.9988  0.2988
  613MOL0     H80859   3.660   0.378   8.667 -0.6567 -2.8370  1.5271
  613MOL0     H80860   3.524   0.410   8.550  0.8240  1.9613  1.4342
  613MOL0     H80861   3.637   0.144   8.658  0.4101 -0.2966 -1.9813
  613MOL0     H80862   3.515   0.163   8.526  2.2592 -1.7574 -0.4015
  613MOL0     H80863   3.447   0.120   8.786 -0.2019 -0.6890 -0.9922
  613MOL0     H80864   3.346   0.201   8.682  0.7488 -0.6675 -0.7016
  613MOL0     H80865   3.561   0.341   8.859  0.2344 -1.6208  1.3266
  613MOL0     H80866   3.430   0.422   8.779  1.1210  0.1041  1.4229
  613MOL0     H80867   3.409   0.398   9.030 -0.6833 -1.3803  0.4167
  613MOL0     H80868   3.386   0.227   9.005  1.9458  0.0970 -1.1108
  613MOL0     H80869   3.180   0.296   9.139 -2.2890  1.4057  1.5478
  613MOL0     H80870   2.864   0.150   8.965  0.0660 -0.2405  0.3863
  613MOL0     H80871   2.817   0.310   8.992 -0.3009 -0.4550 -0.6933
  613MOL0     H80872   2.880   0.309   9.217  1.4201  0.7781 -0.4822
  613MOL0     H80873   2.949   0.136   9.207  0.2666 -0.1197  0.1782
  613MOL0     H80874   2.657   0.214   9.161 -1.1809 -0.0749  1.7217
  613MOL0     H80875   2.731   0.049   9.135  4.0228  0.7149 -1.2656
  613MOL0     H80876   2.798   0.068   9.389 -0.3265  0.5642  1.1850
  613MOL0     H80877   2.625   0.035   9.345  0.0734 -0.8658  0.0497
  613MOL0     H80878   2.601   0.385   9.594 -0.6045 -0.2809  0.6213
  613MOL0     H80879   2.396   0.399   9.693 -0.5215  2.5917 -0.8419
  613MOL0     H80880   2.002   0.560   9.757 -0.2134 -0.7275 -2.6663
  613MOL0     H80881   1.776   0.572   9.854  0.9820  0.5532  0.7422
  613MOL0     H80882   1.540   0.212   9.827  1.0659  0.7142 -0.6363
  613MOL0     H80883   1.500   0.363   9.761 -1.1247 -0.7843  0.6399
  613MOL0     H80884   1.358   0.434   9.940 -0.9520  0.1217 -0.5504
  613MOL0     H80885   1.420   0.295  10.039  1.5977 -0.9136 -1.2089
  613MOL0     H80886   1.301   0.144   9.896 -2.1189 -0.1995 -2.5737
  613MOL0     H80887   1.249   0.273   9.789  0.5440  1.0898 -0.3977
  613MOL0     H80888   1.153   0.300  10.083 -1.7950 -0.3558  0.4392
  613MOL0     H80889   1.108   0.380   9.935  0.0104 -0.6315 -1.5955
  613MOL0     H80890   1.073   0.081  10.011  1.1793  0.8793  0.4544
  613MOL0     H80891   1.063   0.132   9.844  1.5287 -0.4947  0.0117
  613MOL0     H80892   0.886   0.310   9.918 -0.0744  0.9715  2.0545
  613MOL0     H80893   0.886   0.221  10.069  0.3475  3.6371 -0.8025
  613MOL0     H80894   0.785   0.137   9.800 -0.3432  4.1078  0.7758
  613MOL0     H80895   0.826   0.010   9.934  0.4574  0.3752 -1.7648
  613MOL0     H80896   0.654   0.112  10.078  0.2050 -1.9992  0.2308
  613MOL0     H80897   0.594   0.069   9.917  0.0417  1.4782  0.0768
  613MOL0     H80898   1.742   0.155   9.875 -0.1942 -0.2299 -1.5995
  613MOL0     H80899   1.980   0.136   9.780 -0.2241 -0.5221  0.5177
  613MOL0     H80900   2.213   0.193   9.365 -0.9335  0.0561  0.4008
  613MOL0     H80901   2.440   0.147   9.272  0.0358  0.1725 -0.9965
  613MOL0     H80902   4.019   0.457   8.070 -1.5012  0.5520  0.9744
  613MOL0     H80903   4.248   0.456   7.991 -0.7465  1.3876  0.0797
  613MOL0     H80904   4.652   0.143   7.893  0.2511 -0.3326  2.2536
  613MOL0     H80905   4.895   0.163   7.812 -0.6257  0.1738 -1.7058
  613MOL0     H80906   5.043   0.565   7.840  0.7688 -0.3203 -0.1388
  613MOL0     H80907   5.137   0.477   7.730 -1.0285  1.2870 -0.6167
  613MOL0     H80908   5.175   0.523   8.030 -0.1050  0.3463  0.2257
  613MOL0     H80909   5.270   0.402   7.941 -0.1848  0.2312 -0.3227
  613MOL0     H80910   5.279   0.709   7.893 -1.4208 -0.2102 -0.5964
  613MOL0     H80911   5.373   0.570   7.820 -1.4029  0.5313 -0.3890
  613MOL0     H80912   5.374   0.640   8.119  1.4922  0.9640  1.3383
  613MOL0     H80913   5.481   0.541   8.035  0.0800  0.2425  3.1472
  613MOL0     H80914   5.658   0.903   7.900  1.9696 -1.2653  1.0002
  613MOL0     H80915   4.919   0.522   8.041  0.9387  0.1126 -0.1494
  613MOL0     H80916   4.703   0.493   8.119 -0.8581 -0.8141 -0.3837
  614MOL0     O80917   1.609   8.209   7.848 -0.5749 -0.1522  0.2383
  614MOL0     C80918   1.693   8.271   7.783  0.0260 -0.4749  0.1466
  614MOL0     O80919   1.670   8.355   7.682 -0.1351  0.2074  0.1992
  614MOL0     C80920   1.539   8.358   7.638 -0.4849 -0.0129 -0.7734
  614MOL0     C80921   1.481   8.275   7.537 -0.3678 -0.4261 -0.2273
  614MOL0     C80922   1.346   8.271   7.509 -0.4933  0.0728 -0.2428
  614MOL0     C80923   1.265   8.366   7.573 -1.2512 -0.3280 -0.2906
  614MOL0     O80924   1.131   8.344   7.529 -0.5339 -0.7181 -0.2635
  614MOL0     C80925   1.029   8.410   7.604  0.0483 -0.2567 -0.5936
  614MOL0     C80926   0.901   8.322   7.580 -0.8829 -0.2524 -0.2311
  614MOL0     C80927   0.791   8.364   7.677 -0.2355 -0.2657  1.1438
  614MOL0     C80928   0.676   8.282   7.637  0.2870  0.2311 -1.1109
  614MOL0     C80929   0.569   8.266   7.744  0.2016 -0.5048  0.1447
  614MOL0     C80930   0.492   8.393   7.776  0.0205  0.5557 -0.5275
  614MOL0     C80931   0.379   8.370   7.886  1.2737  0.0197 -0.1029
  614MOL0     C80932   0.345   8.495   7.950 -0.4651  0.5802 -0.5242
  614MOL0     N80933   0.245   8.486   8.051  0.3633 -0.0293  0.0298
  614MOL0     C80934   0.147   8.573   8.077  0.9291 -0.4219 -0.4955
  614MOL0     C80935   0.090   8.534   8.197 -0.0087  0.4340  0.3516
  614MOL0     C80936  -0.010   8.613   8.275  0.4821 -0.0285 -0.2167
  614MOL0     C80937   0.056   8.696   8.387 -0.1363  0.0151 -0.8170
  614MOL0     C80938  -0.023   8.824   8.416  0.6661  0.0020 -0.0101
  614MOL0     C80939  -0.175   8.798   8.448 -0.3165 -0.4629  0.0382
  614MOL0     O80940  -0.230   8.903   8.526 -0.5830 -0.3157  0.2284
  614MOL0     C80941  -0.359   8.892   8.561  0.1217  0.3423  0.2606
  614MOL0     C80942  -0.410   8.986   8.654 -0.6741  0.0085 -0.2263
  614MOL0     C80943  -0.542   8.981   8.701  0.5342  1.2216  0.2913
  614MOL0     C80944  -0.627   8.878   8.651 -0.6593  0.0986  0.3594
  614MOL0     C80945  -0.771   8.873   8.697 -0.2571  0.3049  0.0315
  614MOL0     O80946  -0.839   8.769   8.638  0.3548  0.3512 -0.7296
  614MOL0     C80947  -0.953   8.720   8.700  0.3340 -0.3856  0.3011
  614MOL0     C80948  -1.073   8.743   8.643 -0.7767 -0.3905  0.6534
  614MOL0     C80949  -1.180   8.685   8.702  0.2459  1.1354 -0.3339
  614MOL0     C80950  -1.172   8.615   8.824  0.3179 -1.2031 -0.0219
  614MOL0     O80951  -1.295   8.577   8.879  0.5092  0.3161  0.5935
  614MOL0     C80952  -1.299   8.514   9.005 -0.0940  0.2538  0.5913
  614MOL0     C80953  -1.437   8.454   9.032 -0.2659  0.2948  0.0700
  614MOL0     C80954  -1.558   8.551   9.040  0.8499  0.0263  0.1383
  614MOL0     C80955  -1.682   8.468   9.084  0.3600 -0.5895  0.1695
  614MOL0     C80956  -1.715   8.361   8.978  0.1565 -0.1041  0.2148
  614MOL0     C80957  -1.855   8.304   9.004 -0.6772 -0.2977 -0.0035
  614MOL0     C80958  -1.881   8.161   8.938  0.1646  0.0432 -0.0392
  614MOL0     C80959  -2.005   8.101   8.998  0.5156 -0.5237  1.3993
  614MOL0    Cl80960  -2.142   8.220   9.001  0.1333 -0.4455  0.3216
  614MOL0     C80961  -1.047   8.589   8.882  0.0608  0.1918 -0.1668
  614MOL0     C80962  -0.935   8.651   8.816 -0.5461  1.2928 -0.3843
  614MOL0     O80963  -0.818   8.946   8.791  0.4993 -0.4169  0.1476
  614MOL0     C80964  -0.581   8.789   8.553 -0.2853  0.5247 -0.0637
  614MOL0     C80965  -0.449   8.797   8.514 -0.4806  0.0845  0.4436
  614MOL0     N80966   0.153   8.415   8.230  0.5260 -0.2994 -0.0768
  614MOL0     N80967   0.232   8.383   8.132  0.1384  0.3144 -0.6228
  614MOL0     C80968   1.319   8.458   7.666  0.8030 -1.0422  0.2816
  614MOL0     C80969   1.452   8.444   7.700  0.3120  0.0079 -0.8108
  614MOL0     C80970   1.839   8.250   7.815  1.2679 -0.1525  0.5062
  614MOL0     C80971   1.878   8.120   7.865 -0.0827 -0.2854  0.0512
  614MOL0     C80972   2.012   8.099   7.911 -0.2476  0.1340  0.1443
  614MOL0     C80973   2.109   8.200   7.889  0.5505  0.2523 -0.6295
  614MOL0     O80974   2.240   8.200   7.946  0.2565  0.5652  0.0228
  614MOL0     C80975   2.307   8.073   7.956  0.3261 -0.1286 -0.6562
  614MOL0     C80976   2.312   7.989   7.827 -0.7724 -0.0039 -0.7027
  614MOL0     C80977   2.327   7.840   7.835 -0.6129  0.8529  0.0282
  614MOL0     C80978   2.439   7.787   7.919  0.3903 -0.1002  0.8159
  614MOL0     C80979   2.571   7.825   7.882  0.6877 -0.0472 -0.0125
  614MOL0     C80980   2.683   7.849   7.838 -0.5492 -0.0257 -0.5814
  614MOL0     C80981   2.074   8.324   7.839  0.5862 -1.0720 -0.0079
  614MOL0     C80982   1.938   8.347   7.794  0.1762 -0.8122 -0.5779
  614MOL0     H80983   1.541   8.201   7.486 -0.3320 -2.5913  2.7028
  614MOL0     H80984   1.312   8.185   7.453  0.9252 -3.1053  3.3245
  614MOL0     H80985   1.017   8.508   7.556 -1.5689 -1.0224 -1.8481
  614MOL0     H80986   1.042   8.403   7.712 -1.1722 -2.3248 -0.5375
  614MOL0     H80987   0.918   8.215   7.592 -0.4213 -0.2001 -0.4286
  614MOL0     H80988   0.863   8.326   7.478 -1.5097 -1.1192 -0.0451
  614MOL0     H80989   0.780   8.472   7.663 -1.3099 -0.3600  1.1488
  614MOL0     H80990   0.821   8.344   7.780  2.8973  2.0579  0.8196
  614MOL0     H80991   0.627   8.327   7.550 -1.2804  0.6040 -0.0725
  614MOL0     H80992   0.711   8.182   7.610 -1.2705 -0.4134 -0.8039
  614MOL0     H80993   0.594   8.230   7.844  0.1261  2.4514  1.3200
  614MOL0     H80994   0.494   8.192   7.715 -1.5248  0.8898  0.8468
  614MOL0     H80995   0.451   8.438   7.685  3.3910  1.9771 -1.4892
  614MOL0     H80996   0.561   8.466   7.818  0.4606  3.8534 -5.9965
  614MOL0     H80997   0.290   8.328   7.839  1.3619 -1.0954  0.6893
  614MOL0     H80998   0.416   8.296   7.958  2.3313 -0.5973 -1.2274
  614MOL0     H80999   0.310   8.559   7.868 -3.0014 -0.9319 -0.7269
  614MOL0     H81000   0.439   8.536   7.987  0.9920 -1.7153 -1.4547
  614MOL0     H81001   0.133   8.671   8.032  1.2420  0.6132  1.5244
  614MOL0     H81002  -0.090   8.547   8.311  0.0676  0.0650 -0.9475
  614MOL0     H81003  -0.056   8.681   8.203  0.3943  0.5133  0.3406
  614MOL0     H81004   0.160   8.725   8.368  0.8023  0.2302  3.5315
  614MOL0     H81005   0.064   8.644   8.483  0.2267  1.3985 -0.0712
  614MOL0     H81006   0.022   8.862   8.508  0.3241 -0.6131  0.4175
  614MOL0     H81007  -0.003   8.891   8.332 -0.0287  0.3319  0.0786
  614MOL0     H81008  -0.191   8.704   8.500 -1.3747  0.3479  1.2415
  614MOL0     H81009  -0.220   8.776   8.351 -1.4866 -2.0769  0.9085
  614MOL0     H81010  -0.336   9.055   8.693 -0.6873  0.0690 -0.3079
  614MOL0     H81011  -0.574   9.052   8.776 -0.0389  0.8009  0.4526
  614MOL0     H81012  -1.079   8.788   8.544  0.2946  1.0608  1.2127
  614MOL0     H81013  -1.282   8.683   8.664  0.1000 -1.4272 -0.0157
  614MOL0     H81014  -1.273   8.584   9.085  0.1367 -0.5914  1.2843
  614MOL0     H81015  -1.229   8.429   9.009  0.8445  0.9166 -0.9626
  614MOL0     H81016  -1.429   8.418   9.135 -3.3092  0.7112  0.5445
  614MOL0     H81017  -1.453   8.374   8.959  0.0080  0.2255  0.0832
  614MOL0     H81018  -1.574   8.601   8.943 -1.0176  0.7638  0.7853
  614MOL0     H81019  -1.544   8.633   9.111 -2.5556  1.5837 -0.7759
  614MOL0     H81020  -1.662   8.410   9.174 -2.3551 -5.0594 -1.7246
  614MOL0     H81021  -1.770   8.529   9.109  0.7293  1.5322 -3.1249
  614MOL0     H81022  -1.631   8.291   8.971  1.0547  0.6148  2.8783
  614MOL0     H81023  -1.720   8.402   8.877 -1.5810  0.2607  0.4146
  614MOL0     H81024  -1.926   8.379   8.967 -1.8409 -1.9837 -1.3637
  614MOL0     H81025  -1.875   8.286   9.110  0.9359 -1.0979  0.1948
  614MOL0     H81026  -1.886   8.170   8.829 -1.4186  1.7500  0.1184
  614MOL0     H81027  -1.793   8.105   8.971  0.1951  0.7281  1.0747
  614MOL0     H81028  -1.988   8.051   9.094  2.2408  1.3954  2.1667
  614MOL0     H81029  -2.027   8.022   8.926  0.4506 -0.2610  1.1290
  614MOL0     H81030  -1.023   8.533   8.972  1.3422 -3.3976 -2.5304
  614MOL0     H81031  -0.833   8.641   8.854 -1.1329  0.8146  1.1754
  614MOL0     H81032  -0.641   8.707   8.516  2.0524 -1.7072  0.8422
  614MOL0     H81033  -0.424   8.719   8.442 -1.7557  1.2087 -1.2813
  614MOL0     H81034   1.259   8.542   7.700  1.5802  0.6786 -2.2903
  614MOL0     H81035   1.501   8.500   7.779  2.1355 -1.3442 -0.9066
  614MOL0     H81036   1.815   8.032   7.872 -0.3149 -0.1322 -0.0886
  614MOL0     H81037   2.041   8.000   7.946 -0.6005  0.3055  0.9279
  614MOL0     H81038   2.258   8.019   8.037  0.8849 -0.0226 -0.2396
  614MOL0     H81039   2.413   8.081   7.984  1.2181 -3.4185 -2.5750
  614MOL0     H81040   2.221   8.002   7.768  0.0679  2.4751 -1.5748
  614MOL0     H81041   2.395   8.023   7.764 -1.0615  2.0152 -0.0565
  614MOL0     H81042   2.344   7.806   7.733  1.5800 -0.1806  0.6827
  614MOL0     H81043   2.235   7.796   7.875  0.1945 -0.5188  0.4622
  614MOL0     H81044   2.427   7.824   8.021 -2.0650  6.0220 -1.1839
  614MOL0     H81045   2.453   7.679   7.921  2.6989  0.1242  3.6696
  614MOL0     H81046   2.779   7.875   7.799  0.0004 -1.0722  0.0306
  614MOL0     H81047   2.147   8.404   7.834 -2.3034  1.8941  0.8560
  614MOL0     H81048   1.908   8.441   7.750  2.3278  0.1688 -0.0688
  615MOL0     O81049   6.614   3.492   2.538 -0.0644  0.2991 -0.3069
  615MOL0     C81050   6.647   3.485   2.418 -0.1467  0.5453 -0.1821
  615MOL0     O81051   6.566   3.489   2.310  0.1706 -0.0274 -0.1070
  615MOL0     C81052   6.428   3.490   2.330  0.0273 -0.6395  0.4490
  615MOL0     C81053   6.365   3.402   2.413 -0.0489 -0.1145  0.3258
  615MOL0     C81054   6.229   3.388   2.428 -0.0883  0.6123  0.2035
  615MOL0     C81055   6.145   3.477   2.356  0.1065  0.0736  0.0405
  615MOL0     O81056   6.012   3.472   2.381  0.3721 -0.2772  0.0061
  615MOL0     C81057   5.919   3.501   2.281  1.0065  0.3435  0.7406
  615MOL0     C81058   5.775   3.498   2.339  0.3874 -0.0459  0.9109
  615MOL0     C81059   5.668   3.560   2.254  0.4656 -0.4095 -0.5962
  615MOL0     C81060   5.546   3.585   2.335  0.8903 -0.2350  0.4771
  615MOL0     C81061   5.433   3.483   2.305  0.0235  0.2895 -0.3086
  615MOL0     C81062   5.306   3.528   2.366  0.3053  0.3005 -0.8981
  615MOL0     C81063   5.241   3.658   2.311  0.4431  0.2673  0.2543
  615MOL0     C81064   5.102   3.693   2.365 -0.5418  0.1691 -0.5892
  615MOL0     N81065   5.018   3.573   2.354 -0.0636 -0.6027 -0.0989
  615MOL0     C81066   4.952   3.538   2.240  0.3165 -0.9377  0.8466
  615MOL0     C81067   4.862   3.452   2.277 -0.6391 -0.1590 -0.7833
  615MOL0     C81068   4.755   3.389   2.192  1.0537  0.9187  0.1337
  615MOL0     C81069   4.647   3.492   2.138 -0.5524 -0.0685 -0.7386
  615MOL0     C81070   4.597   3.588   2.248 -0.7195  0.0822 -0.0139
  615MOL0     C81071   4.492   3.679   2.199 -0.0376  0.5339  0.4223
  615MOL0     O81072   4.414   3.735   2.310 -0.4439 -0.2078 -0.6148
  615MOL0     C81073   4.293   3.670   2.328  0.6052  0.0684 -0.1429
  615MOL0     C81074   4.202   3.666   2.220 -0.2554  0.0961 -0.3740
  615MOL0     C81075   4.085   3.592   2.241  0.1836 -0.9810 -0.0409
  615MOL0     C81076   4.054   3.528   2.365 -0.9372  0.7806  0.0209
  615MOL0     C81077   3.930   3.445   2.391  0.0932 -0.1318  0.9384
  615MOL0     O81078   3.857   3.414   2.280 -0.4849 -0.5318 -0.7611
  615MOL0     C81079   3.722   3.390   2.295  0.7670  0.6271  0.1271
  615MOL0     C81080   3.639   3.430   2.398 -0.5344 -0.4293 -0.2548
  615MOL0     C81081   3.500   3.381   2.408  0.3916 -0.2599  0.2397
  615MOL0     C81082   3.452   3.297   2.300  0.1745 -0.1305 -0.2463
  615MOL0     O81083   3.322   3.259   2.272  0.4449 -0.5345 -0.4651
  615MOL0     C81084   3.220   3.289   2.366  0.2678 -0.0737 -0.8274
  615MOL0     C81085   3.100   3.201   2.336 -0.3067  0.3201  0.2831
  615MOL0     C81086   2.979   3.198   2.430  0.2196 -0.0561 -0.8064
  615MOL0     C81087   2.866   3.113   2.377 -0.6339 -0.0228  0.0317
  615MOL0     C81088   2.767   3.088   2.493  0.8194  0.6696  0.8319
  615MOL0     C81089   2.670   2.982   2.438  0.2996  0.3598  0.9590
  615MOL0     C81090   2.588   2.942   2.559  0.5846  0.1210  0.0652
  615MOL0     C81091   2.470   2.860   2.515  0.8182 -0.6087 -0.5599
  615MOL0    Cl81092   2.360   2.839   2.664 -0.0431 -0.4705  0.4746
  615MOL0     C81093   3.541   3.257   2.199 -0.3023  0.3637 -0.3468
  615MOL0     C81094   3.672   3.312   2.190 -0.0708 -0.3863  0.4697
  615MOL0     O81095   3.914   3.415   2.504  0.3718  0.2973 -0.6965
  615MOL0     C81096   4.151   3.540   2.471  0.5863 -0.5984  0.4118
  615MOL0     C81097   4.262   3.615   2.453 -0.4224 -0.6257 -0.5945
  615MOL0     N81098   4.875   3.419   2.406 -0.0885  0.8364 -0.0595
  615MOL0     N81099   4.967   3.493   2.454 -0.5789  0.2971 -0.1566
  615MOL0     C81100   6.204   3.572   2.268  0.1228  0.1708 -0.5622
  615MOL0     C81101   6.343   3.583   2.254 -0.2182  0.1687 -0.1284
  615MOL0     C81102   6.783   3.511   2.401  0.2499  0.6854  0.0207
  615MOL0     C81103   6.836   3.505   2.270 -0.6395 -0.1986  0.7380
  615MOL0     C81104   6.971   3.538   2.250  0.5405 -0.2182  0.3635
  615MOL0     C81105   7.059   3.581   2.357 -0.0246 -0.0911 -0.2072
  615MOL0     O81106   7.191   3.629   2.337 -0.3012  0.0002  0.2650
  615MOL0     C81107   7.227   3.654   2.201  0.3711  0.1549  0.0882
  615MOL0     C81108   7.353   3.740   2.202 -0.1738 -0.8669 -0.0209
  615MOL0     C81109   7.481   3.650   2.201  1.0017  0.0806 -0.4995
  615MOL0     C81110   7.612   3.730   2.175  0.1219  0.7111 -0.2855
  615MOL0     C81111   7.644   3.731   2.032 -0.0141  0.1267  1.4613
  615MOL0     C81112   7.668   3.725   1.909 -0.5142  0.6164 -0.4355
  615MOL0     C81113   7.004   3.582   2.484 -0.0407  0.7652  0.3979
  615MOL0     C81114   6.865   3.548   2.507 -0.5891  0.1459 -0.2286
  615MOL0     H81115   6.436   3.335   2.460  2.5083  0.4717 -2.4040
  615MOL0     H81116   6.184   3.304   2.480  0.5446 -0.0304 -0.2647
  615MOL0     H81117   5.940   3.436   2.195  0.7771 -1.4263  1.9765
  615MOL0     H81118   5.931   3.602   2.240 -0.2981 -0.2245 -1.1972
  615MOL0     H81119   5.791   3.554   2.432 -4.1977 -0.6522  2.3272
  615MOL0     H81120   5.749   3.397   2.374 -1.2335  0.0818  0.1483
  615MOL0     H81121   5.643   3.493   2.171 -0.6180  0.1085 -0.7136
  615MOL0     H81122   5.705   3.661   2.234  0.6457 -0.7338 -1.9978
  615MOL0     H81123   5.572   3.586   2.441  0.0544  0.3241  0.6842
  615MOL0     H81124   5.508   3.684   2.310 -3.7868 -1.9243 -0.0969
  615MOL0     H81125   5.457   3.380   2.330 -1.3853 -0.0480 -0.2909
  615MOL0     H81126   5.421   3.492   2.196  0.3767 -0.9234 -0.4631
  615MOL0     H81127   5.323   3.535   2.474 -2.0827  0.7938 -0.4846
  615MOL0     H81128   5.234   3.445   2.367 -2.1131  2.2244  1.5772
  615MOL0     H81129   5.310   3.743   2.304  0.5554  0.1188 -5.6489
  615MOL0     H81130   5.224   3.638   2.205 -1.5612  3.0134 -0.0437
  615MOL0     H81131   5.056   3.772   2.305  1.6548  1.3290 -0.8504
  615MOL0     H81132   5.123   3.728   2.466  1.0032 -0.8932 -0.4987
  615MOL0     H81133   4.969   3.580   2.142  3.9015 -1.8866  0.9300
  615MOL0     H81134   4.700   3.318   2.255 -1.2443  1.8983 -0.6679
  615MOL0     H81135   4.808   3.336   2.113  0.5343  2.3172 -1.1932
  615MOL0     H81136   4.562   3.429   2.108  0.2180 -2.3851  1.5277
  615MOL0     H81137   4.682   3.543   2.048 -2.3407  2.4394 -0.1135
  615MOL0     H81138   4.567   3.529   2.335 -1.2980  2.0409  1.1817
  615MOL0     H81139   4.679   3.654   2.278  0.4984 -0.6398 -1.6258
  615MOL0     H81140   4.430   3.629   2.125  0.4672 -1.3011  1.2019
  615MOL0     H81141   4.546   3.760   2.147 -1.7000  0.5680 -1.3549
  615MOL0     H81142   4.230   3.718   2.129 -0.7769  1.0093 -0.0249
  615MOL0     H81143   4.015   3.577   2.160 -0.6193 -1.7003  0.7545
  615MOL0     H81144   3.672   3.492   2.481  0.2636 -1.2537  0.0637
  615MOL0     H81145   3.437   3.408   2.493 -0.9504  1.3284 -1.1651
  615MOL0     H81146   3.199   3.396   2.351 -1.8852  0.6073  4.6135
  615MOL0     H81147   3.245   3.266   2.470 -1.1337  1.1101 -0.1836
  615MOL0     H81148   3.128   3.096   2.331 -0.2877  0.3767 -1.3450
  615MOL0     H81149   3.062   3.237   2.240  0.5818 -2.8246 -1.3718
  615MOL0     H81150   2.943   3.291   2.474  1.1186 -0.8121  1.6690
  615MOL0     H81151   3.017   3.148   2.520  1.0510  0.5565 -0.8114
  615MOL0     H81152   2.803   3.170   2.307 -0.8212 -0.5124 -0.2039
  615MOL0     H81153   2.900   3.020   2.330 -1.7583 -0.8309  0.7610
  615MOL0     H81154   2.717   3.182   2.520  0.1208  0.0859  1.6066
  615MOL0     H81155   2.812   3.048   2.584 -0.7811 -2.5659  0.3389
  615MOL0     H81156   2.714   2.890   2.398 -3.8101 -1.7024  0.6860
  615MOL0     H81157   2.604   3.027   2.363  0.9406  1.4075  1.0013
  615MOL0     H81158   2.644   2.881   2.632 -2.6411 -3.4233 -0.0864
  615MOL0     H81159   2.547   3.030   2.608 -0.9173 -0.1421 -0.6844
  615MOL0     H81160   2.496   2.762   2.474  1.9036  0.3689 -2.3412
  615MOL0     H81161   2.414   2.909   2.435  0.4554 -1.3691 -0.7850
  615MOL0     H81162   3.507   3.199   2.114  2.5820  1.6363 -2.5366
  615MOL0     H81163   3.736   3.293   2.104 -2.0096  2.8600 -1.9484
  615MOL0     H81164   4.138   3.501   2.572  1.0196  0.1713  0.7715
  615MOL0     H81165   4.323   3.620   2.542 -1.2288 -1.0352 -0.0103
  615MOL0     H81166   6.151   3.637   2.199  0.6819  0.3591 -0.8222
  615MOL0     H81167   6.380   3.664   2.193 -0.1918  1.1665  1.1668
  615MOL0     H81168   6.781   3.486   2.178  2.0278 -0.5084 -0.9190
  615MOL0     H81169   7.003   3.549   2.147 -2.1859 -1.1638 -0.6691
  615MOL0     H81170   7.147   3.709   2.151  1.8179  1.9934 -0.3417
  615MOL0     H81171   7.230   3.569   2.132 -0.9756  0.2631 -0.1152
  615MOL0     H81172   7.353   3.791   2.105  0.5174 -0.5144  0.1572
  615MOL0     H81173   7.358   3.812   2.284 -1.9586 -1.4534  0.6492
  615MOL0     H81174   7.477   3.576   2.121 -1.0960 -0.9979  0.5317
  615MOL0     H81175   7.486   3.595   2.295 -0.2769  0.7205 -0.0306
  615MOL0     H81176   7.615   3.832   2.216  0.2640  0.5077  0.2134
  615MOL0     H81177   7.697   3.674   2.215 -1.0334 -0.2161  0.9502
  615MOL0     H81178   7.689   3.723   1.804  0.2608  1.5383 -0.3179
  615MOL0     H81179   7.078   3.606   2.559  0.7514  1.2636 -0.5305
  615MOL0     H81180   6.817   3.564   2.603  1.1618  0.9952  0.5547
  616MOL0     O81181  11.078   9.133   0.457  0.1093 -0.5065  0.1355
  616MOL0     C81182  11.085   9.155   0.576 -0.1602  1.0358  0.2457
  616MOL0     O81183  10.985   9.181   0.667 -0.4713  0.1529  0.0308
  616MOL0     C81184  10.861   9.225   0.636 -0.0693 -0.0730  0.2977
  616MOL0     C81185  10.826   9.284   0.511 -0.9273 -0.5837 -0.7888
  616MOL0     C81186  10.696   9.325   0.485  0.4085  0.7819 -0.2487
  616MOL0     C81187  10.602   9.315   0.584 -0.2176 -0.0145 -0.0652
  616MOL0     O81188  10.475   9.366   0.570 -0.2932  0.1520  0.1959
  616MOL0     C81189  10.372   9.275   0.609  0.6083 -0.1745  0.5087
  616MOL0     C81190  10.238   9.299   0.543 -0.3069 -0.0796  1.1647
  616MOL0     C81191  10.134   9.215   0.610 -0.0037  0.3409  0.6121
  616MOL0     C81192  10.006   9.207   0.533  0.1176  0.8384  0.1677
  616MOL0     C81193   9.940   9.349   0.510  0.2040 -0.4098 -0.1729
  616MOL0     C81194   9.785   9.347   0.488 -0.0176 -0.6008 -0.6834
  616MOL0     C81195   9.737   9.239   0.387  0.8256  0.2697 -0.8002
  616MOL0     C81196   9.596   9.191   0.411 -0.4512 -0.2104  0.8174
  616MOL0     N81197   9.498   9.292   0.372  0.1449  0.4619  0.6212
  616MOL0     C81198   9.482   9.343   0.242  0.5424  0.2601  0.2695
  616MOL0     C81199   9.382   9.434   0.259  0.2431 -0.1055  0.5681
  616MOL0     C81200   9.360   9.540   0.148 -0.1650  0.3923  0.4232
  616MOL0     C81201   9.215   9.555   0.098 -0.2254  1.1623 -0.0440
  616MOL0     C81202   9.181   9.434   0.010 -0.2229 -0.0739 -0.7946
  616MOL0     C81203   9.045   9.450  -0.052 -0.3552 -0.4951 -0.2329
  616MOL0     O81204   8.951   9.454   0.058 -0.2524 -0.6390 -0.2734
  616MOL0     C81205   8.815   9.440   0.035 -1.4869  0.4435  0.2770
  616MOL0     C81206   8.757   9.455  -0.090 -0.4141  0.7925  0.0870
  616MOL0     C81207   8.621   9.441  -0.109  0.3732  0.4800  0.1335
  616MOL0     C81208   8.543   9.400  -0.007  0.1687  0.2540 -0.5880
  616MOL0     C81209   8.409   9.368  -0.039 -0.1275  0.8469 -0.7671
  616MOL0     O81210   8.381   9.343  -0.168 -0.4221  0.0722  0.2546
  616MOL0     C81211   8.249   9.310  -0.205 -0.4594 -0.2918 -0.2726
  616MOL0     C81212   8.143   9.401  -0.171  0.3388 -0.2112  0.3097
  616MOL0     C81213   8.016   9.382  -0.240 -0.2811 -0.3865  0.0926
  616MOL0     C81214   8.004   9.283  -0.340  0.1709 -0.3456 -0.5204
  616MOL0     O81215   7.884   9.277  -0.392  0.0240  0.1072  0.0923
  616MOL0     C81216   7.863   9.214  -0.521 -0.7024 -0.0037  0.0533
  616MOL0     C81217   7.711   9.200  -0.568 -0.6769 -0.4723 -0.1113
  616MOL0     C81218   7.662   9.344  -0.606 -1.2783 -0.2897 -0.4434
  616MOL0     C81219   7.511   9.347  -0.657 -0.6533  0.6285  0.0732
  616MOL0     C81220   7.482   9.497  -0.672  0.4072 -0.9341  0.8725
  616MOL0     C81221   7.332   9.526  -0.709 -0.1873 -0.3815 -0.2218
  616MOL0     C81222   7.227   9.489  -0.597 -0.3413 -0.8166  0.3062
  616MOL0     C81223   7.102   9.580  -0.604  0.7296  1.2594 -0.1040
  616MOL0    Cl81224   6.992   9.528  -0.476  0.1365 -0.5341 -0.8606
  616MOL0     C81225   8.104   9.192  -0.358 -0.7205 -0.4843  0.2080
  616MOL0     C81226   8.227   9.206  -0.297 -0.2925 -1.4322 -0.5121
  616MOL0     O81227   8.326   9.364   0.055 -0.4308 -0.2198 -0.1765
  616MOL0     C81228   8.592   9.404   0.127  0.6476 -0.5537 -0.7370
  616MOL0     C81229   8.727   9.421   0.143  0.5141  0.0021 -0.7862
  616MOL0     N81230   9.351   9.446   0.390  0.0104  0.5104 -0.1281
  616MOL0     N81231   9.414   9.361   0.457 -0.2871 -0.7889  0.7591
  616MOL0     C81232  10.643   9.269   0.713  0.2153  0.6656 -0.7575
  616MOL0     C81233  10.764   9.214   0.730  0.4202  0.3226 -0.6616
  616MOL0     C81234  11.222   9.129   0.640 -0.3685 -0.2119 -0.4327
  616MOL0     C81235  11.232   9.099   0.776 -0.0201  0.3554  0.3526
  616MOL0     C81236  11.356   9.062   0.823  0.3891  0.2680  1.2852
  616MOL0     C81237  11.466   9.056   0.751 -0.6505  1.3289 -0.2411
  616MOL0     O81238  11.568   9.000   0.816  0.0262  0.0330  0.6394
  616MOL0     C81239  11.678   9.093   0.828 -0.1783 -1.0985  0.4556
  616MOL0     C81240  11.811   9.022   0.815 -0.0590  1.4039 -0.2869
  616MOL0     C81241  11.808   8.945   0.674 -0.2593  0.4178 -0.6397
  616MOL0     C81242  11.936   8.851   0.661 -0.2318 -0.1797  0.6038
  616MOL0     C81243  12.052   8.938   0.646 -0.0436  0.4493 -0.2551
  616MOL0     C81244  12.140   9.023   0.617  0.9531 -0.2029  0.2843
  616MOL0     C81245  11.467   9.088   0.611  0.0784  0.0234 -0.6312
  616MOL0     C81246  11.339   9.126   0.553  0.5584  0.4681 -0.0069
  616MOL0     H81247  10.899   9.302   0.433 -1.3133 -1.4720 -1.3711
  616MOL0     H81248  10.671   9.359   0.385 -0.0774  0.6007 -0.1875
  616MOL0     H81249  10.367   9.278   0.718 -0.8060  1.1728  0.4452
  616MOL0     H81250  10.396   9.172   0.579  0.5521 -0.3842  1.1709
  616MOL0     H81251  10.248   9.281   0.435  1.6835  3.3074  0.6318
  616MOL0     H81252  10.212   9.404   0.555 -1.6949 -0.5047  2.1778
  616MOL0     H81253  10.118   9.256   0.710  1.3868 -0.3416  1.1337
  616MOL0     H81254  10.181   9.117   0.617 -1.0817 -0.1426  1.4135
  616MOL0     H81255  10.028   9.165   0.434 -2.1011 -0.0968  0.0164
  616MOL0     H81256   9.950   9.132   0.589 -0.1072  0.3824 -0.6565
  616MOL0     H81257   9.987   9.396   0.423  1.1459  0.1586  0.6238
  616MOL0     H81258   9.959   9.418   0.592 -0.7485  0.2524 -0.4922
  616MOL0     H81259   9.745   9.446   0.467 -0.6732 -0.7811 -0.3235
  616MOL0     H81260   9.736   9.327   0.584  1.4081  2.4892  0.8238
  616MOL0     H81261   9.744   9.303   0.298  0.8117  2.0345  0.4252
  616MOL0     H81262   9.807   9.156   0.373  2.3126  1.1145  1.2116
  616MOL0     H81263   9.583   9.147   0.510 -0.9061 -2.0378 -0.0124
  616MOL0     H81264   9.572   9.104   0.348 -1.1034  0.5731 -0.0569
  616MOL0     H81265   9.552   9.330   0.160  2.8682  4.8994  1.1529
  616MOL0     H81266   9.436   9.522   0.071 -0.3915 -1.3773  0.5515
  616MOL0     H81267   9.375   9.639   0.192 -3.2517 -0.1308  3.0554
  616MOL0     H81268   9.215   9.648   0.041 -2.4980  1.5238  0.4440
  616MOL0     H81269   9.147   9.564   0.183 -1.4129  2.2401 -1.0738
  616MOL0     H81270   9.246   9.431  -0.078  0.1824 -0.6600 -0.4747
  616MOL0     H81271   9.192   9.338   0.060 -2.1976 -0.2309 -0.5976
  616MOL0     H81272   9.016   9.357  -0.101  1.1583 -1.3182  0.3759
  616MOL0     H81273   9.038   9.530  -0.126  0.1510 -0.3522 -0.1284
  616MOL0     H81274   8.821   9.482  -0.173  1.2619 -0.0747  1.0291
  616MOL0     H81275   8.575   9.463  -0.205  0.2405 -0.9100 -0.1418
  616MOL0     H81276   8.154   9.483  -0.100  1.5819  1.1842 -1.3930
  616MOL0     H81277   7.932   9.445  -0.212 -0.0402  0.0154 -0.0643
  616MOL0     H81278   7.909   9.115  -0.517  4.3317  2.0348 -0.1978
  616MOL0     H81279   7.921   9.280  -0.586 -0.6689  0.8488  0.9121
  616MOL0     H81280   7.656   9.148  -0.490 -0.2793 -2.5826 -1.1480
  616MOL0     H81281   7.704   9.139  -0.659 -1.8849 -0.5389  0.0126
  616MOL0     H81282   7.726   9.388  -0.684 -3.7139  2.9733 -0.8336
  616MOL0     H81283   7.669   9.404  -0.514  2.8862 -3.5657  1.7034
  616MOL0     H81284   7.500   9.287  -0.748 -0.3579  0.5464  0.0901
  616MOL0     H81285   7.442   9.295  -0.590  1.4714 -1.3756  0.8387
  616MOL0     H81286   7.551   9.548  -0.740 -0.4197  2.1313  2.1311
  616MOL0     H81287   7.491   9.547  -0.575 -1.9542 -2.5202  1.9994
  616MOL0     H81288   7.300   9.468  -0.796 -3.0095 -0.1687  0.5640
  616MOL0     H81289   7.333   9.634  -0.729  1.6759 -0.5076 -1.0099
  616MOL0     H81290   7.193   9.386  -0.604  0.8557 -1.1236 -1.8293
  616MOL0     H81291   7.274   9.491  -0.499  1.7279 -1.4531 -0.6261
  616MOL0     H81292   7.047   9.563  -0.697  2.0930  1.1929 -0.9267
  616MOL0     H81293   7.137   9.684  -0.606  0.3090  1.3992 -1.6665
  616MOL0     H81294   8.092   9.116  -0.434  0.2054 -0.9413  0.5037
  616MOL0     H81295   8.306   9.134  -0.317 -1.6788 -3.2499  0.1838
  616MOL0     H81296   8.522   9.378   0.206  1.7539  1.3396  0.9640
  616MOL0     H81297   8.770   9.406   0.241 -0.3416  1.2080 -0.1913
  616MOL0     H81298  10.570   9.272   0.793 -0.9175 -2.3426 -1.5744
  616MOL0     H81299  10.777   9.165   0.826  1.2823 -0.5216 -1.1782
  616MOL0     H81300  11.141   9.094   0.835 -0.9412  0.4290 -1.0079
  616MOL0     H81301  11.349   9.012   0.919  0.1931  0.9909  1.6527
  616MOL0     H81302  11.675   9.143   0.926  1.9703  2.9409 -1.2993
  616MOL0     H81303  11.682   9.182   0.766  0.7488  0.9460  3.2354
  616MOL0     H81304  11.903   9.080   0.824  1.0997 -0.1185 -1.6898
  616MOL0     H81305  11.829   8.949   0.894 -1.6429  2.0305  0.7046
  616MOL0     H81306  11.802   9.016   0.591  1.5234  0.4990 -0.7369
  616MOL0     H81307  11.723   8.876   0.671  0.9971 -1.1902 -0.5246
  616MOL0     H81308  11.958   8.789   0.748  3.1675  2.5539  1.9388
  616MOL0     H81309  11.936   8.791   0.570 -2.6889 -0.6720  0.8498
  616MOL0     H81310  12.195   9.098   0.564  2.2193 -0.6772  0.8888
  616MOL0     H81311  11.564   9.074   0.564  0.7624  2.1535  0.0148
  616MOL0     H81312  11.332   9.138   0.445  1.0583 -1.4495 -0.2841
  617MOL0     O81313   1.228   3.019   1.137 -0.1068 -0.0838 -0.3234
  617MOL0     C81314   1.141   3.069   1.214 -0.1656  0.1406  0.4489
  617MOL0     O81315   1.013   3.029   1.228  0.5026 -0.1536 -0.3685
  617MOL0     C81316   0.950   2.939   1.152 -0.1852  0.9167  1.3230
  617MOL0     C81317   0.844   2.868   1.206  0.6167 -0.2067 -0.0782
  617MOL0     C81318   0.762   2.777   1.134 -1.0511  0.2588  0.0487
  617MOL0     C81319   0.805   2.735   1.007  0.5521  0.2427 -0.7042
  617MOL0     O81320   0.736   2.627   0.958 -0.0719 -0.2319 -0.3563
  617MOL0     C81321   0.778   2.581   0.830  0.7663  0.4150 -0.4389
  617MOL0     C81322   0.680   2.467   0.789 -0.3193 -0.4400 -0.8001
  617MOL0     C81323   0.530   2.505   0.809 -0.4634 -0.4771 -0.1969
  617MOL0     C81324   0.451   2.379   0.795  0.3491  0.2866 -0.0957
  617MOL0     C81325   0.303   2.412   0.834  0.1874 -0.0007  0.1070
  617MOL0     C81326   0.215   2.286   0.825 -0.3907  0.0234 -0.4893
  617MOL0     C81327   0.065   2.332   0.835  0.0261 -0.2442  0.1283
  617MOL0     C81328  -0.018   2.206   0.852  1.0621 -0.0680  0.2686
  617MOL0     N81329  -0.161   2.230   0.842 -0.0615 -0.0843  0.3033
  617MOL0     C81330  -0.234   2.219   0.724  0.2578  0.5629 -0.4835
  617MOL0     C81331  -0.362   2.200   0.761  0.1630 -0.1741  0.0732
  617MOL0     C81332  -0.463   2.177   0.656  0.3752 -0.0705  0.5112
  617MOL0     C81333  -0.560   2.289   0.630  0.8176  0.4391  0.2552
  617MOL0     C81334  -0.655   2.315   0.743 -0.4052 -0.1253  0.4928
  617MOL0     C81335  -0.762   2.408   0.699  0.5014 -0.1327  0.1208
  617MOL0     O81336  -0.840   2.360   0.591  0.2016  0.1474  0.1473
  617MOL0     C81337  -0.940   2.274   0.621  0.6613 -0.0361 -0.3901
  617MOL0     C81338  -0.990   2.219   0.743 -0.2283 -0.8592 -0.3268
  617MOL0     C81339  -1.100   2.138   0.751  0.1403  0.1890  0.0589
  617MOL0     C81340  -1.182   2.107   0.642 -0.5971  0.0897  0.7653
  617MOL0     C81341  -1.307   2.019   0.655  0.0647 -0.3528  0.5549
  617MOL0     O81342  -1.360   2.002   0.775 -0.4055  0.6387 -0.6555
  617MOL0     C81343  -1.488   1.957   0.790 -0.1480  0.1453  0.5380
  617MOL0     C81344  -1.599   2.036   0.819 -1.1788 -0.3239  0.2564
  617MOL0     C81345  -1.728   1.988   0.806  1.3305  1.1241 -0.1463
  617MOL0     C81346  -1.759   1.848   0.783 -0.0506  0.1696  0.6085
  617MOL0     O81347  -1.877   1.786   0.770 -0.4906 -0.2609  0.0773
  617MOL0     C81348  -1.996   1.861   0.804 -0.5300  0.3965 -0.3419
  617MOL0     C81349  -2.126   1.775   0.785 -0.4685  0.3828  0.8807
  617MOL0     C81350  -2.153   1.673   0.899 -0.1135 -0.5319 -0.2081
  617MOL0     C81351  -2.236   1.566   0.842 -0.7589  0.2954 -0.5887
  617MOL0     C81352  -2.277   1.454   0.947 -0.3094  0.3131  0.3823
  617MOL0     C81353  -2.365   1.505   1.061 -0.1662  0.9759 -0.2106
  617MOL0     C81354  -2.409   1.397   1.158 -0.6058  1.2004 -0.8285
  617MOL0     C81355  -2.306   1.289   1.191 -0.2431 -0.4096 -0.1548
  617MOL0    Cl81356  -2.360   1.168   1.312 -0.1260 -0.1285 -0.2928
  617MOL0     C81357  -1.648   1.770   0.753  0.3390 -0.2006 -0.5856
  617MOL0     C81358  -1.513   1.824   0.751  0.8090  0.1730  0.5644
  617MOL0     O81359  -1.362   1.985   0.554  0.5386  0.6267  0.3697
  617MOL0     C81360  -1.124   2.149   0.520  0.2559 -0.2827 -1.1651
  617MOL0     C81361  -1.012   2.221   0.510 -0.5375  0.3715 -0.3345
  617MOL0     N81362  -0.367   2.208   0.896  0.5127  0.3577  0.1353
  617MOL0     N81363  -0.247   2.211   0.947  1.1832  0.0761  0.2816
  617MOL0     C81364   0.920   2.802   0.952 -0.1233  1.3882  0.7829
  617MOL0     C81365   0.987   2.904   1.018 -0.1211  0.9729  0.2398
  617MOL0     C81366   1.177   3.184   1.296  0.4655  0.0149 -0.4241
  617MOL0     C81367   1.086   3.252   1.378  0.7676 -0.6469 -0.2644
  617MOL0     C81368   1.119   3.370   1.447  0.2740 -0.0766  1.0841
  617MOL0     C81369   1.244   3.431   1.435  0.1430 -0.0581 -0.4920
  617MOL0     O81370   1.266   3.548   1.510  0.4919  0.0593  0.3168
  617MOL0     C81371   1.387   3.617   1.486 -0.2768  0.5164  0.0302
  617MOL0     C81372   1.494   3.552   1.578 -0.2290 -0.5546 -1.0748
  617MOL0     C81373   1.638   3.577   1.529 -0.3431  0.1016 -0.2845
  617MOL0     C81374   1.732   3.515   1.624  0.4731  0.2624 -0.5743
  617MOL0     C81375   1.866   3.548   1.581 -0.6439  0.0072  0.1354
  617MOL0     C81376   1.982   3.561   1.571  0.0223 -0.7458  0.6285
  617MOL0     C81377   1.339   3.365   1.351 -0.8522 -0.1600  0.3381
  617MOL0     C81378   1.308   3.243   1.287  0.8310 -0.1670 -0.3257
  617MOL0     H81379   0.803   2.908   1.298 -2.4064 -0.3805 -1.2162
  617MOL0     H81380   0.670   2.730   1.166 -1.5834 -1.9292 -4.0821
  617MOL0     H81381   0.882   2.547   0.829  0.4252 -0.8463  1.1101
  617MOL0     H81382   0.769   2.652   0.748  1.4289  0.4302 -0.4997
  617MOL0     H81383   0.699   2.381   0.853 -1.9193 -0.1887  0.0603
  617MOL0     H81384   0.706   2.452   0.683 -1.9539 -0.7643 -1.1805
  617MOL0     H81385   0.515   2.586   0.738 -0.4428 -0.9651 -0.7724
  617MOL0     H81386   0.513   2.548   0.908  0.3664 -2.7233  1.0028
  617MOL0     H81387   0.464   2.342   0.693 -0.5335 -1.0738  0.2515
  617MOL0     H81388   0.489   2.302   0.864 -2.6687  0.9160  2.5075
  617MOL0     H81389   0.274   2.493   0.766 -0.0685  0.2173  0.4745
  617MOL0     H81390   0.307   2.453   0.935  1.9569 -0.5056  0.2725
  617MOL0     H81391   0.243   2.223   0.910 -1.7276  0.1065  0.0421
  617MOL0     H81392   0.230   2.236   0.729  0.3587  1.1470 -0.9809
  617MOL0     H81393   0.039   2.394   0.921  1.1800  1.0022 -0.3882
  617MOL0     H81394   0.041   2.395   0.749  1.3182  1.3127  0.8633
  617MOL0     H81395  -0.009   2.154   0.948 -1.8839  0.9783  1.2457
  617MOL0     H81396   0.014   2.139   0.771  4.3728 -2.3448  3.1813
  617MOL0     H81397  -0.196   2.226   0.623 -1.6056  0.9394 -1.1885
  617MOL0     H81398  -0.518   2.083   0.670 -0.9203  0.9455  2.8531
  617MOL0     H81399  -0.410   2.168   0.561  1.2693 -0.2712  1.0192
  617MOL0     H81400  -0.624   2.260   0.546 -1.4356 -2.6135  2.7804
  617MOL0     H81401  -0.507   2.384   0.618 -0.6061  1.9409  4.3093
  617MOL0     H81402  -0.705   2.224   0.778 -3.2055  0.7677 -0.8745
  617MOL0     H81403  -0.601   2.361   0.826 -1.4893 -0.8682  1.6383
  617MOL0     H81404  -0.722   2.501   0.659 -1.4069  0.8760  0.4055
  617MOL0     H81405  -0.827   2.418   0.787  1.8550 -1.5025  1.3442
  617MOL0     H81406  -0.939   2.240   0.836  1.7957 -2.8700 -0.8965
  617MOL0     H81407  -1.131   2.111   0.851  0.7317  1.1718  0.5245
  617MOL0     H81408  -1.593   2.140   0.850  1.2616 -0.3195 -0.0417
  617MOL0     H81409  -1.809   2.059   0.816 -1.0878 -1.5271  0.4252
  617MOL0     H81410  -2.003   1.953   0.745  0.8451 -0.7987 -2.4852
  617MOL0     H81411  -1.994   1.904   0.905  0.3504 -0.0036 -0.1719
  617MOL0     H81412  -2.114   1.730   0.686  1.1554 -0.5647  1.4740
  617MOL0     H81413  -2.211   1.844   0.777 -0.8107 -0.1789 -0.7539
  617MOL0     H81414  -2.203   1.720   0.985 -1.4835 -2.4243  0.0963
  617MOL0     H81415  -2.056   1.636   0.934 -1.1294 -1.8334  1.4002
  617MOL0     H81416  -2.326   1.614   0.804  0.0102  0.1225 -2.8082
  617MOL0     H81417  -2.183   1.527   0.754 -0.7548  4.7951 -2.8652
  617MOL0     H81418  -2.186   1.402   0.980 -0.9181 -0.8096  0.3622
  617MOL0     H81419  -2.322   1.372   0.890  4.3896 -0.7792 -2.3389
  617MOL0     H81420  -2.457   1.554   1.027 -0.0984  0.5601 -1.0101
  617MOL0     H81421  -2.314   1.586   1.115  2.4627  0.9547 -2.4594
  617MOL0     H81422  -2.442   1.436   1.255 -3.3120 -0.9405 -0.7751
  617MOL0     H81423  -2.487   1.339   1.107 -1.2467  0.5305  0.8369
  617MOL0     H81424  -2.226   1.352   1.231 -0.2369  0.2101 -1.1262
  617MOL0     H81425  -2.269   1.225   1.111  0.3553 -0.2819  0.0102
  617MOL0     H81426  -1.664   1.665   0.731 -2.2390 -0.3880  1.6108
  617MOL0     H81427  -1.432   1.755   0.727  0.3302 -0.6121  1.1444
  617MOL0     H81428  -1.157   2.113   0.424  1.1477 -1.0527 -1.1905
  617MOL0     H81429  -0.982   2.255   0.411  0.2505  0.6352 -0.0071
  617MOL0     H81430   0.963   2.774   0.857 -0.6730 -1.4798  1.3007
  617MOL0     H81431   1.061   2.957   0.958 -0.8785  1.0386 -0.6547
  617MOL0     H81432   0.983   3.219   1.390 -0.5741  2.7619 -1.0847
  617MOL0     H81433   1.048   3.422   1.510  1.4343  1.2346  1.3756
  617MOL0     H81434   1.390   3.724   1.508 -0.0099  0.5788 -0.3142
  617MOL0     H81435   1.414   3.620   1.381  1.0534  0.2164  0.3484
  617MOL0     H81436   1.488   3.601   1.676 -0.5685 -1.8859 -0.4083
  617MOL0     H81437   1.475   3.445   1.581  0.7226 -0.8171 -2.9806
  617MOL0     H81438   1.642   3.685   1.512 -3.8047  0.4550  0.3132
  617MOL0     H81439   1.651   3.527   1.433 -0.9334  0.5221 -0.5947
  617MOL0     H81440   1.715   3.569   1.718 -0.5145 -0.2396 -0.4478
  617MOL0     H81441   1.710   3.409   1.637 -1.0222  0.6093 -0.0723
  617MOL0     H81442   2.088   3.556   1.552 -0.1381 -1.0485 -0.2407
  617MOL0     H81443   1.440   3.403   1.341 -1.5780  1.1621 -3.3478
  617MOL0     H81444   1.396   3.201   1.240 -0.0483 -1.7514 -0.6095
  618MOL0     O81445   7.951   2.835   6.031 -0.1538  0.2683 -0.6221
  618MOL0     C81446   7.963   2.948   6.075  0.5476 -0.6761 -0.6697
  618MOL0     O81447   7.860   3.036   6.084 -0.0670  0.9473 -0.2394
  618MOL0     C81448   7.730   3.019   6.034  0.9175 -0.6214  0.1985
  618MOL0     C81449   7.649   3.129   6.020 -0.4358  0.3446  0.9279
  618MOL0     C81450   7.510   3.126   5.977 -0.1732  0.0312 -0.1284
  618MOL0     C81451   7.446   3.005   5.944  0.0971  0.2319 -0.9530
  618MOL0     O81452   7.321   3.003   5.891 -0.2514 -0.1082  0.3585
  618MOL0     C81453   7.278   2.879   5.838 -0.6373  0.4028  0.5090
  618MOL0     C81454   7.151   2.899   5.763  0.0716 -0.5188  0.1862
  618MOL0     C81455   7.087   2.766   5.715 -0.7900 -0.5691 -0.2913
  618MOL0     C81456   6.976   2.781   5.608 -0.2916 -0.4382  0.8594
  618MOL0     C81457   6.934   2.649   5.540  0.3562  0.2101 -0.2673
  618MOL0     C81458   6.788   2.652   5.494 -0.7568  0.4786 -0.3994
  618MOL0     C81459   6.745   2.536   5.405  0.1420  0.6546 -0.4699
  618MOL0     C81460   6.736   2.407   5.475 -0.3168  0.1510 -0.1299
  618MOL0     N81461   6.685   2.292   5.393  0.0440 -0.0300  0.2782
  618MOL0     C81462   6.549   2.267   5.364 -0.4963 -0.0171  0.3900
  618MOL0     C81463   6.545   2.155   5.286  0.0699  0.1187 -0.8177
  618MOL0     C81464   6.424   2.069   5.273 -0.0407 -0.0920 -0.2626
  618MOL0     C81465   6.337   2.041   5.407 -0.7888  0.4036  0.1460
  618MOL0     C81466   6.217   1.949   5.358  0.5179  0.2128 -0.1200
  618MOL0     C81467   6.150   1.898   5.485 -0.3179  0.7324 -0.2653
  618MOL0     O81468   6.105   2.022   5.546 -0.6798  0.2214 -0.2387
  618MOL0     C81469   5.979   2.046   5.588 -0.0929  0.0241 -0.1109
  618MOL0     C81470   5.861   1.983   5.554  0.2810 -0.6434  0.9391
  618MOL0     C81471   5.740   2.017   5.612  0.0153  0.2449  0.1611
  618MOL0     C81472   5.725   2.128   5.692 -0.1705  0.1816 -0.5902
  618MOL0     C81473   5.596   2.164   5.741  0.5192 -0.3566 -0.4157
  618MOL0     O81474   5.490   2.128   5.673 -0.6168 -0.2652 -0.2633
  618MOL0     C81475   5.371   2.176   5.716  0.2878  0.2945  0.2998
  618MOL0     C81476   5.271   2.084   5.692  0.4226 -0.3536 -0.2254
  618MOL0     C81477   5.136   2.121   5.678 -0.6090 -0.7460  0.8008
  618MOL0     C81478   5.095   2.252   5.713  0.1764 -0.2516 -0.7995
  618MOL0     O81479   4.966   2.292   5.719 -0.3124 -0.2474  0.0732
  618MOL0     C81480   4.862   2.194   5.738  0.0866 -0.2820 -0.2906
  618MOL0     C81481   4.733   2.239   5.799 -0.4395 -0.3874  0.1417
  618MOL0     C81482   4.674   2.361   5.728  0.5383  0.0353 -0.2977
  618MOL0     C81483   4.559   2.406   5.817  1.0266  0.3391  0.4403
  618MOL0     C81484   4.460   2.505   5.743 -0.5374  0.2236  0.1601
  618MOL0     C81485   4.336   2.554   5.814 -0.2535  0.3874  0.3351
  618MOL0     C81486   4.253   2.437   5.863  0.0898  0.2589  0.4893
  618MOL0     C81487   4.177   2.361   5.747  0.4279  0.2802 -0.5277
  618MOL0    Cl81488   4.083   2.470   5.638 -0.0226 -0.0189 -0.7273
  618MOL0     C81489   5.195   2.343   5.756  0.0366 -0.3430 -0.3175
  618MOL0     C81490   5.327   2.302   5.756 -0.3042 -0.1556 -0.8053
  618MOL0     O81491   5.595   2.232   5.844  0.0644 -0.9342  0.0847
  618MOL0     C81492   5.844   2.188   5.730 -0.8841  0.3325 -0.1897
  618MOL0     C81493   5.972   2.150   5.680  1.4094 -0.2389  0.1757
  618MOL0     N81494   6.669   2.121   5.255  0.4110  0.3285  0.3859
  618MOL0     N81495   6.753   2.192   5.319  0.1885 -0.4576  0.3544
  618MOL0     C81496   7.534   2.891   5.960  0.7422  0.2218 -0.1535
  618MOL0     C81497   7.665   2.900   6.010  1.9836 -0.3375  0.6389
  618MOL0     C81498   8.103   2.987   6.116  0.4037 -0.2076  0.2330
  618MOL0     C81499   8.131   3.124   6.141 -0.1692 -0.3055  0.0310
  618MOL0     C81500   8.259   3.151   6.194  0.0617 -0.8908  0.1597
  618MOL0     C81501   8.359   3.059   6.192 -0.2973 -0.7423 -0.9413
  618MOL0     O81502   8.492   3.092   6.204 -0.3271 -0.6446 -0.4333
  618MOL0     C81503   8.535   3.232   6.197  0.0816 -0.3389  0.3370
  618MOL0     C81504   8.681   3.258   6.209  0.3972  0.4174 -0.3633
  618MOL0     C81505   8.740   3.168   6.321  0.0631  0.1663 -0.2527
  618MOL0     C81506   8.719   3.232   6.467 -0.3429  0.5285 -0.1427
  618MOL0     C81507   8.813   3.164   6.560 -1.4994  0.2812 -0.0162
  618MOL0     C81508   8.890   3.102   6.635 -0.1112  0.4202 -0.3219
  618MOL0     C81509   8.336   2.928   6.166 -0.1490 -0.1775 -0.2184
  618MOL0     C81510   8.204   2.888   6.137 -0.2884  0.1077  1.4577
  618MOL0     H81511   7.696   3.222   6.051  2.8018 -1.4574  1.9579
  618MOL0     H81512   7.441   3.209   5.962 -1.0137 -0.8994 -1.6389
  618MOL0     H81513   7.284   2.803   5.917  0.9243  0.4361  0.4558
  618MOL0     H81514   7.344   2.853   5.754 -0.5112  1.6842  0.1908
  618MOL0     H81515   7.181   2.965   5.680  2.0174 -0.4500  0.9006
  618MOL0     H81516   7.088   2.952   5.835 -0.1508 -1.1449  0.4528
  618MOL0     H81517   7.054   2.691   5.788 -2.2556 -0.7243 -1.0726
  618MOL0     H81518   7.169   2.721   5.660 -1.8148 -2.3252 -0.4578
  618MOL0     H81519   6.888   2.822   5.657 -0.7026 -0.3901  0.0930
  618MOL0     H81520   7.015   2.855   5.537  0.8527 -1.2056  0.6530
  618MOL0     H81521   6.939   2.574   5.620 -0.3544  0.0583 -0.3578
  618MOL0     H81522   6.994   2.624   5.452 -1.5553 -4.4045 -0.5315
  618MOL0     H81523   6.767   2.742   5.435  1.1084  0.4882 -1.1324
  618MOL0     H81524   6.721   2.653   5.580 -0.8674 -0.6912 -0.4666
  618MOL0     H81525   6.646   2.552   5.362  0.2390 -1.0951 -1.4601
  618MOL0     H81526   6.803   2.521   5.313 -1.0471 -1.1389 -0.9774
  618MOL0     H81527   6.664   2.423   5.556 -3.9002  0.5435 -3.1611
  618MOL0     H81528   6.831   2.371   5.517 -0.1172 -0.6145 -1.2007
  618MOL0     H81529   6.453   2.300   5.403 -0.0012  1.1087  0.6934
  618MOL0     H81530   6.456   1.973   5.231  0.4780 -0.4512  0.8907
  618MOL0     H81531   6.350   2.111   5.205 -1.9352 -2.5882  0.0958
  618MOL0     H81532   6.279   2.128   5.440 -2.5117 -0.0029 -1.6420
  618MOL0     H81533   6.396   1.996   5.488 -0.9882  1.0273  0.6482
  618MOL0     H81534   6.153   2.008   5.293  2.1288  0.6371 -1.3865
  618MOL0     H81535   6.243   1.866   5.292 -2.1779  0.0533 -1.0897
  618MOL0     H81536   6.218   1.843   5.550  0.0926  2.0402  0.4534
  618MOL0     H81537   6.074   1.825   5.456  0.4240 -0.3613  0.4918
  618MOL0     H81538   5.862   1.889   5.501  1.8014 -1.5937  2.5534
  618MOL0     H81539   5.655   1.966   5.568  0.9903 -2.7786  1.5305
  618MOL0     H81540   5.286   1.977   5.680  0.2404 -0.2772 -1.2463
  618MOL0     H81541   5.059   2.045   5.667 -0.7363 -0.7784  1.8296
  618MOL0     H81542   4.895   2.110   5.800 -3.2207 -2.3494 -1.0847
  618MOL0     H81543   4.834   2.151   5.641 -2.1915  0.1647  0.1110
  618MOL0     H81544   4.758   2.263   5.903 -0.2147 -0.8247  0.1915
  618MOL0     H81545   4.662   2.156   5.800  0.8279 -1.5597 -1.5496
  618MOL0     H81546   4.632   2.326   5.633  0.0785 -0.3617  0.0426
  618MOL0     H81547   4.752   2.435   5.711 -1.8693  2.5558 -1.2110
  618MOL0     H81548   4.503   2.320   5.856 -1.1534  1.5250  0.1111
  618MOL0     H81549   4.589   2.461   5.907 -0.7654  0.2365  1.1525
  618MOL0     H81550   4.420   2.450   5.658  1.1216  0.0436 -0.5419
  618MOL0     H81551   4.516   2.595   5.717  0.6384 -0.4920  0.1357
  618MOL0     H81552   4.288   2.641   5.768  1.2265  1.3727  0.5648
  618MOL0     H81553   4.365   2.601   5.908 -0.4446 -0.7426  0.9784
  618MOL0     H81554   4.309   2.363   5.920  2.2667  2.0264  0.8031
  618MOL0     H81555   4.175   2.473   5.931  0.3357 -1.6733  1.8640
  618MOL0     H81556   4.122   2.282   5.798 -0.3215  1.6270  0.8337
  618MOL0     H81557   4.251   2.306   5.689  0.2169  1.2779 -1.7835
  618MOL0     H81558   5.174   2.443   5.795 -0.5718  0.3167 -2.2238
  618MOL0     H81559   5.401   2.374   5.789 -0.6968 -0.1099 -0.0152
  618MOL0     H81560   5.858   2.277   5.790 -2.4558 -0.2667  1.1690
  618MOL0     H81561   6.065   2.203   5.697  2.4363 -1.6543 -0.8033
  618MOL0     H81562   7.495   2.791   5.940  1.7519 -0.3713  0.7676
  618MOL0     H81563   7.723   2.811   6.029  0.4713 -1.5685 -0.2186
  618MOL0     H81564   8.046   3.192   6.145  0.4485  0.4235  2.1966
  618MOL0     H81565   8.282   3.252   6.226  1.6880 -1.3468  0.5510
  618MOL0     H81566   8.489   3.281   6.283 -2.0033  0.0656 -0.9253
  618MOL0     H81567   8.503   3.285   6.106  0.7954  1.4221  1.0708
  618MOL0     H81568   8.727   3.237   6.112 -0.1778  1.1373 -0.8019
  618MOL0     H81569   8.700   3.363   6.234 -0.7775  0.9315 -1.5058
  618MOL0     H81570   8.849   3.171   6.313  0.0398  2.5121 -0.4930
  618MOL0     H81571   8.702   3.066   6.309 -3.4127  1.1467  1.0570
  618MOL0     H81572   8.743   3.339   6.462 -0.4199  0.4954 -1.9203
  618MOL0     H81573   8.621   3.205   6.508  0.8940 -0.5198  2.3557
  618MOL0     H81574   8.947   3.041   6.703 -2.1522  0.2114  1.2970
  618MOL0     H81575   8.414   2.853   6.167 -1.8597 -2.0332 -0.1561
  618MOL0     H81576   8.179   2.788   6.102  2.9636  0.7431 -3.7312
  619MOL0     O81577  11.206   5.721   1.688 -0.8359 -0.1700  0.4032
  619MOL0     C81578  11.255   5.756   1.795  0.7606 -0.3948  0.1731
  619MOL0     O81579  11.183   5.783   1.911 -0.6484  0.6009 -0.1916
  619MOL0     C81580  11.050   5.792   1.927 -0.7378  0.2355 -0.1883
  619MOL0     C81581  11.016   5.842   2.054 -0.0746 -0.2823  0.4396
  619MOL0     C81582  10.879   5.844   2.093 -1.0658 -0.6574  0.3087
  619MOL0     C81583  10.781   5.816   1.995  0.9127 -0.2815 -1.1309
  619MOL0     O81584  10.650   5.830   2.048 -0.1572 -0.0866 -0.0195
  619MOL0     C81585  10.545   5.864   1.955 -0.3213 -0.4748  0.7824
  619MOL0     C81586  10.428   5.905   2.044  0.3284 -0.4889  0.0742
  619MOL0     C81587  10.293   5.924   1.981  0.9357 -0.2215  0.3293
  619MOL0     C81588  10.226   5.794   1.943  0.3163  1.3793 -0.3896
  619MOL0     C81589  10.090   5.814   1.866 -0.3741 -0.5834 -0.0211
  619MOL0     C81590  10.041   5.677   1.837 -0.1021  0.2416 -0.5362
  619MOL0     C81591  10.126   5.581   1.742 -0.4249 -0.2977 -0.5264
  619MOL0     C81592  10.144   5.649   1.607 -0.3067 -0.1297 -0.2281
  619MOL0     N81593  10.212   5.559   1.513 -0.2253  0.3653 -0.2176
  619MOL0     C81594  10.338   5.511   1.533 -0.3069 -0.4534  0.2919
  619MOL0     C81595  10.361   5.416   1.434  0.4680  0.0923  0.0302
  619MOL0     C81596  10.485   5.349   1.417  0.0632  0.7317 -0.2495
  619MOL0     C81597  10.478   5.200   1.470 -0.1519 -0.6637  0.5699
  619MOL0     C81598  10.439   5.183   1.613  0.7162 -0.4058 -0.4102
  619MOL0     C81599  10.281   5.184   1.640  0.6071 -0.8153 -0.2973
  619MOL0     O81600  10.252   5.061   1.691  0.6288  0.1317 -0.4316
  619MOL0     C81601  10.189   5.053   1.812  0.2822  0.7404 -0.1163
  619MOL0     C81602  10.074   5.128   1.841 -0.2064 -0.5221  0.9115
  619MOL0     C81603  10.002   5.114   1.956  0.5496  0.8437  0.2181
  619MOL0     C81604  10.050   5.029   2.052 -0.1039 -0.3773 -0.7061
  619MOL0     C81605   9.978   5.019   2.179 -0.0919 -0.1217  0.0909
  619MOL0     O81606  10.052   4.989   2.293  0.1401  0.1006  0.1129
  619MOL0     C81607   9.996   4.962   2.416  0.1017  0.7798 -0.3543
  619MOL0     C81608   9.863   4.928   2.444  0.5204  0.2077 -0.1379
  619MOL0     C81609   9.822   4.919   2.583 -0.1822 -0.1116  1.3426
  619MOL0     C81610   9.904   4.933   2.695 -0.6359 -1.1255  0.1443
  619MOL0     O81611   9.845   4.922   2.816 -0.3836 -0.0472 -0.6317
  619MOL0     C81612   9.823   5.039   2.905  0.7944 -0.1701 -0.3613
  619MOL0     C81613   9.686   5.098   2.893 -0.0008  0.3716  0.1419
  619MOL0     C81614   9.620   5.125   3.029 -1.0751 -0.7730 -0.4386
  619MOL0     C81615   9.477   5.187   3.001  0.3523 -0.3563 -0.0202
  619MOL0     C81616   9.446   5.289   3.116 -0.2335  0.5518 -0.3616
  619MOL0     C81617   9.302   5.346   3.115  0.0215  0.7786 -0.0215
  619MOL0     C81618   9.263   5.404   2.976  0.4154 -0.0368 -0.1924
  619MOL0     C81619   9.139   5.481   2.977  0.5235  0.4028 -0.4912
  619MOL0    Cl81620   9.117   5.598   2.847  0.0769 -0.1135  0.5515
  619MOL0     C81621  10.041   4.973   2.668  0.5733 -0.5028  0.9294
  619MOL0     C81622  10.083   4.983   2.530 -0.0942  0.4663 -0.4365
  619MOL0     O81623   9.854   5.045   2.183 -0.2165  1.0081  0.1318
  619MOL0     C81624  10.172   4.957   2.032 -0.0563 -0.7219  0.5429
  619MOL0     C81625  10.232   4.968   1.908 -0.4171 -0.1350  0.0694
  619MOL0     N81626  10.245   5.411   1.363 -0.2237 -0.4750  0.4238
  619MOL0     N81627  10.156   5.494   1.410 -0.1424  0.2675  1.2239
  619MOL0     C81628  10.813   5.776   1.864 -0.9913 -1.1160 -0.0810
  619MOL0     C81629  10.950   5.753   1.832  0.4025 -0.2050 -0.2348
  619MOL0     C81630  11.398   5.779   1.787 -0.1982  0.2699 -0.3980
  619MOL0     C81631  11.467   5.808   1.906 -0.4845  0.0569 -0.3982
  619MOL0     C81632  11.610   5.821   1.907  0.3254  0.0867  0.7632
  619MOL0     C81633  11.682   5.811   1.792  0.0676 -0.5962  1.3617
  619MOL0     O81634  11.822   5.807   1.788 -0.4492  0.0212 -0.1020
  619MOL0     C81635  11.891   5.819   1.911 -0.6450  0.5084 -0.3067
  619MOL0     C81636  12.027   5.749   1.887 -0.5120 -0.1599  0.1139
  619MOL0     C81637  12.126   5.841   1.823 -0.2909 -0.5153 -0.0078
  619MOL0     C81638  12.205   5.767   1.720  0.0433  0.0627 -0.2260
  619MOL0     C81639  12.295   5.863   1.665 -0.2607 -0.3683 -0.1121
  619MOL0     C81640  12.381   5.929   1.612 -0.4164  0.7091  0.3722
  619MOL0     C81641  11.614   5.783   1.675 -0.0911  0.0990  0.5434
  619MOL0     C81642  11.474   5.763   1.673 -0.1548 -0.2300  0.4703
  619MOL0     H81643  11.090   5.871   2.127 -1.2490 -0.2535  1.6500
  619MOL0     H81644  10.837   5.859   2.191 -0.9608 -4.0466  0.9965
  619MOL0     H81645  10.523   5.777   1.892 -0.9494 -0.1256  0.5071
  619MOL0     H81646  10.565   5.952   1.894  2.4457 -0.0846  2.1077
  619MOL0     H81647  10.459   5.995   2.099 -1.2380  0.5244 -0.6439
  619MOL0     H81648  10.412   5.837   2.128  0.1411 -0.4127  0.1008
  619MOL0     H81649  10.299   5.981   1.888  4.4742 -1.7205 -0.5250
  619MOL0     H81650  10.233   5.993   2.041  0.0751 -1.3495  0.8161
  619MOL0     H81651  10.283   5.725   1.880 -1.2080 -1.5945  1.2527
  619MOL0     H81652  10.210   5.743   2.039  0.8507  1.9197 -0.0062
  619MOL0     H81653  10.115   5.875   1.779  1.6980 -0.5738  0.5405
  619MOL0     H81654  10.024   5.874   1.929 -0.0029  1.2395 -1.3059
  619MOL0     H81655   9.939   5.680   1.796 -1.0480 -3.2119  1.2019
  619MOL0     H81656  10.027   5.613   1.924 -1.5131  2.0823  0.6692
  619MOL0     H81657  10.218   5.545   1.790  0.3621  2.6989  0.4188
  619MOL0     H81658  10.062   5.493   1.738 -1.6392  0.4096  1.8769
  619MOL0     H81659  10.196   5.745   1.614 -0.1386 -0.3467  2.1629
  619MOL0     H81660  10.046   5.661   1.559 -2.0850 -0.1299  3.0917
  619MOL0     H81661  10.397   5.532   1.621 -2.0003  0.0678  1.3688
  619MOL0     H81662  10.561   5.403   1.475 -2.0537  1.3735  2.0530
  619MOL0     H81663  10.515   5.354   1.312 -0.3578  1.2427 -0.3458
  619MOL0     H81664  10.580   5.161   1.456  0.6456  1.2521  0.7177
  619MOL0     H81665  10.406   5.147   1.407 -2.3477  2.6265  0.0380
  619MOL0     H81666  10.480   5.093   1.659  3.5232  1.6077  1.3766
  619MOL0     H81667  10.490   5.263   1.668 -1.4133  0.3453  0.6134
  619MOL0     H81668  10.236   5.209   1.544 -0.5758 -2.1167 -0.1044
  619MOL0     H81669  10.246   5.263   1.706 -1.7333 -2.6712  0.8411
  619MOL0     H81670  10.041   5.184   1.754 -0.3764 -1.1101  0.5873
  619MOL0     H81671   9.917   5.178   1.976 -2.5629 -2.3259 -1.6085
  619MOL0     H81672   9.782   4.915   2.374  0.1210  1.9839 -0.0666
  619MOL0     H81673   9.716   4.904   2.599 -0.1823 -1.2193  0.3946
  619MOL0     H81674   9.897   5.116   2.883  3.3310 -1.8689  1.7272
  619MOL0     H81675   9.845   5.007   3.007 -0.2009 -1.2117 -0.4561
  619MOL0     H81676   9.636   5.019   2.835 -2.2035  2.3531 -0.7883
  619MOL0     H81677   9.689   5.191   2.835  1.9392  0.5452  0.4583
  619MOL0     H81678   9.675   5.203   3.083 -0.9533  0.0080 -1.6533
  619MOL0     H81679   9.619   5.041   3.099 -0.6667  1.1944  2.1217
  619MOL0     H81680   9.479   5.245   2.908  2.1995  1.2039  0.9116
  619MOL0     H81681   9.396   5.114   2.995  0.5869 -0.5237 -1.6868
  619MOL0     H81682   9.515   5.374   3.119  0.2627  0.1900 -1.0810
  619MOL0     H81683   9.444   5.240   3.213 -0.2237 -0.3780 -0.8217
  619MOL0     H81684   9.298   5.430   3.185 -1.5297 -0.9185  2.0659
  619MOL0     H81685   9.227   5.273   3.147 -0.5593  0.8496 -1.1843
  619MOL0     H81686   9.337   5.478   2.942 -2.3120  3.1353  0.3258
  619MOL0     H81687   9.257   5.325   2.900 -3.8254 -0.9476  0.8752
  619MOL0     H81688   9.121   5.523   3.077 -1.9481 -1.3899 -0.0816
  619MOL0     H81689   9.052   5.417   2.961 -0.2336  1.5499 -1.0960
  619MOL0     H81690  10.118   5.002   2.739  1.5243 -0.8590  0.0518
  619MOL0     H81691  10.185   5.004   2.501 -0.5483 -0.1397 -2.6797
  619MOL0     H81692  10.212   4.905   2.119 -2.0211 -1.7347  0.9015
  619MOL0     H81693  10.318   4.902   1.899 -0.2470  0.1768 -0.7430
  619MOL0     H81694  10.734   5.764   1.790 -0.4995  0.4502 -0.9093
  619MOL0     H81695  10.971   5.720   1.731  0.4303  1.9579 -0.9940
  619MOL0     H81696  11.434   5.820   2.009  0.6484 -2.5721  0.3495
  619MOL0     H81697  11.655   5.850   2.001  1.2280 -0.1393  0.4078
  619MOL0     H81698  11.838   5.763   1.988  1.0696 -0.3396  0.3117
  619MOL0     H81699  11.895   5.924   1.941  0.4186 -0.1713  2.1249
  619MOL0     H81700  12.059   5.713   1.986 -2.0433 -1.5843  0.1405
  619MOL0     H81701  12.004   5.661   1.826 -0.1873  0.7013 -1.2953
  619MOL0     H81702  12.196   5.896   1.887 -0.4682  0.2819 -0.4848
  619MOL0     H81703  12.067   5.918   1.773 -2.1074 -0.2432  2.4066
  619MOL0     H81704  12.253   5.681   1.768 -1.2901 -1.5033 -1.5865
  619MOL0     H81705  12.141   5.727   1.642  0.3911 -0.3477 -0.3063
  619MOL0     H81706  12.469   5.975   1.572 -0.3801  1.9099  1.7355
  619MOL0     H81707  11.658   5.764   1.578  0.6217 -0.8208  1.0261
  619MOL0     H81708  11.424   5.724   1.585 -1.3694  0.6106  0.7731
  620MOL0     O81709   1.419   4.440   3.312  0.1543 -0.2923 -0.3286
  620MOL0     C81710   1.381   4.351   3.384  0.9536  0.1897 -0.3752
  620MOL0     O81711   1.251   4.334   3.420  0.2730 -0.0913  0.3048
  620MOL0     C81712   1.157   4.430   3.392 -0.5805 -0.7382 -0.0863
  620MOL0     C81713   1.026   4.386   3.375  0.8686  0.2448  0.0586
  620MOL0     C81714   0.916   4.470   3.346  0.3760 -0.0348 -0.6392
  620MOL0     C81715   0.940   4.608   3.321  0.6565  0.5754  0.2902
  620MOL0     O81716   0.849   4.715   3.308  0.3221 -1.1210 -0.2890
  620MOL0     C81717   0.715   4.674   3.313 -0.0080 -0.5220 -0.1767
  620MOL0     C81718   0.630   4.794   3.272  0.6150  0.7141 -0.6011
  620MOL0     C81719   0.481   4.760   3.269  0.1905  0.1744 -0.7545
  620MOL0     C81720   0.405   4.881   3.206  0.3227  0.7988 -0.8035
  620MOL0     C81721   0.253   4.874   3.243 -0.1050 -0.5495  0.0572
  620MOL0     C81722   0.187   4.747   3.202  0.5230 -0.3990 -0.2609
  620MOL0     C81723   0.032   4.756   3.242  0.1657  0.0774 -0.3131
  620MOL0     C81724  -0.044   4.858   3.161  0.0992 -0.0351  0.3837
  620MOL0     N81725  -0.179   4.858   3.207  0.4472  0.1301 -0.0666
  620MOL0     C81726  -0.213   4.892   3.336 -0.1342 -0.6840 -0.3284
  620MOL0     C81727  -0.346   4.875   3.347  0.9365  0.5532  0.2113
  620MOL0     C81728  -0.430   4.900   3.466  0.7961 -0.8278  0.1022
  620MOL0     C81729  -0.584   4.886   3.458  0.6330 -1.3628  0.4699
  620MOL0     C81730  -0.664   4.913   3.589 -0.5632  0.3728  0.1404
  620MOL0     C81731  -0.815   4.851   3.578 -0.8408  0.0821 -0.9726
  620MOL0     O81732  -0.891   4.931   3.491  0.1949 -0.1874  1.0372
  620MOL0     C81733  -1.026   4.895   3.463  0.3543  0.0686  0.0630
  620MOL0     C81734  -1.105   4.993   3.389  0.6298 -0.0353 -1.4574
  620MOL0     C81735  -1.246   4.976   3.371 -0.1360 -0.0165 -0.5385
  620MOL0     C81736  -1.305   4.863   3.421 -0.3420 -0.3967 -0.1050
  620MOL0     C81737  -1.446   4.823   3.391 -0.9200  0.4372  0.0500
  620MOL0     O81738  -1.492   4.694   3.418  0.2253 -0.7270  0.0338
  620MOL0     C81739  -1.634   4.679   3.402 -0.9750 -0.0569  0.4604
  620MOL0     C81740  -1.709   4.697   3.512  0.0964  0.2851 -0.1584
  620MOL0     C81741  -1.844   4.681   3.508  0.6376 -0.5795 -0.0302
  620MOL0     C81742  -1.914   4.645   3.399 -0.7536  0.1125 -0.4982
  620MOL0     O81743  -2.043   4.618   3.411  0.6109  0.4931  0.4042
  620MOL0     C81744  -2.101   4.522   3.320 -0.1011 -0.0740 -0.2687
  620MOL0     C81745  -2.238   4.507   3.376  0.6785  0.0163  0.4294
  620MOL0     C81746  -2.331   4.631   3.368 -0.5826  0.5088 -0.0098
  620MOL0     C81747  -2.486   4.613   3.396  0.0557 -0.1745  0.9768
  620MOL0     C81748  -2.564   4.708   3.306  0.9524 -0.6100  0.1407
  620MOL0     C81749  -2.560   4.637   3.164  0.3409 -0.5050  0.0646
  620MOL0     C81750  -2.637   4.720   3.055  0.5274  0.4099 -0.2760
  620MOL0     C81751  -2.609   4.670   2.909 -0.4796  0.1446  0.1369
  620MOL0    Cl81752  -2.446   4.684   2.868  0.3147  0.0916 -0.0461
  620MOL0     C81753  -1.835   4.617   3.288  0.2946 -0.2957  0.0797
  620MOL0     C81754  -1.693   4.642   3.282  0.3764 -0.4838  0.6249
  620MOL0     O81755  -1.508   4.913   3.338 -0.6519  0.0747  0.3543
  620MOL0     C81756  -1.226   4.771   3.493  0.6827 -0.5002  0.1536
  620MOL0     C81757  -1.093   4.780   3.516 -0.1538  0.6530  0.1083
  620MOL0     N81758  -0.395   4.819   3.231  0.2160 -1.1417 -0.0386
  620MOL0     N81759  -0.293   4.817   3.146  0.5404 -0.2608  0.3819
  620MOL0     C81760   1.072   4.650   3.328  0.0006  0.3255  0.3071
  620MOL0     C81761   1.178   4.569   3.366 -0.7979 -0.0449  0.0570
  620MOL0     C81762   1.473   4.255   3.441  0.6702  0.9589  0.8624
  620MOL0     C81763   1.615   4.263   3.413  0.5857 -0.4768 -0.1518
  620MOL0     C81764   1.702   4.164   3.470 -0.7479 -0.0505 -0.0293
  620MOL0     C81765   1.657   4.046   3.525  0.3979 -1.2009 -0.4885
  620MOL0     O81766   1.730   3.938   3.568  0.1281  0.3891 -0.2871
  620MOL0     C81767   1.868   3.940   3.528  0.1031  0.9857  0.8311
  620MOL0     C81768   1.935   3.806   3.561  0.2329 -0.2587 -0.2123
  620MOL0     C81769   2.095   3.813   3.564  0.2046  0.7653  0.2767
  620MOL0     C81770   2.145   3.874   3.699  0.4824 -0.3169 -0.3910
  620MOL0     C81771   2.284   3.855   3.721 -0.0634  1.2183  0.6361
  620MOL0     C81772   2.404   3.866   3.733 -1.0825  0.3421 -1.0519
  620MOL0     C81773   1.519   4.032   3.537  0.2430 -0.5760  0.7422
  620MOL0     C81774   1.422   4.133   3.497 -0.6126 -0.6339 -0.1144
  620MOL0     H81775   1.004   4.280   3.378 -1.6839  0.5640 -2.4332
  620MOL0     H81776   0.814   4.434   3.355  0.1085  1.1006  1.6495
  620MOL0     H81777   0.682   4.640   3.411 -0.2374  2.3612  0.8372
  620MOL0     H81778   0.703   4.605   3.229  1.1012  0.1722 -0.9266
  620MOL0     H81779   0.665   4.829   3.174  2.0460 -1.6706 -1.0055
  620MOL0     H81780   0.650   4.881   3.337 -0.1228  0.5730 -0.1748
  620MOL0     H81781   0.445   4.745   3.371 -1.2794 -1.8827 -1.4931
  620MOL0     H81782   0.461   4.677   3.201 -3.5512  1.1912 -1.1137
  620MOL0     H81783   0.446   4.976   3.241  1.5920 -0.5025  1.4937
  620MOL0     H81784   0.415   4.887   3.097 -0.1395 -1.0506 -0.9857
  620MOL0     H81785   0.210   4.962   3.193 -0.0311 -1.4803 -1.7016
  620MOL0     H81786   0.237   4.880   3.352  1.3775  0.6570  0.2412
  620MOL0     H81787   0.231   4.664   3.257 -3.5770 -2.5518  0.1311
  620MOL0     H81788   0.205   4.728   3.096  2.1547  1.8982 -0.4888
  620MOL0     H81789  -0.018   4.660   3.231 -0.4326  0.6158 -2.8573
  620MOL0     H81790   0.038   4.781   3.349  3.6736  1.5409 -0.7026
  620MOL0     H81791  -0.039   4.847   3.052 -2.8999 -0.7048  0.2230
  620MOL0     H81792   0.001   4.955   3.183  0.8941 -0.7441  2.0275
  620MOL0     H81793  -0.140   4.921   3.411  0.4183 -2.3512 -0.1834
  620MOL0     H81794  -0.418   5.004   3.497 -3.4169 -0.5480  1.4791
  620MOL0     H81795  -0.400   4.838   3.551 -1.6698 -1.7804  0.3679
  620MOL0     H81796  -0.613   4.789   3.417  1.4165 -1.6858  0.6551
  620MOL0     H81797  -0.627   4.959   3.390  0.1766 -0.5484  1.6078
  620MOL0     H81798  -0.619   4.860   3.674 -1.7201 -0.9188 -0.0097
  620MOL0     H81799  -0.666   5.018   3.618  1.8282  0.2713  0.8692
  620MOL0     H81800  -0.865   4.855   3.675 -1.5977  0.0435 -1.3585
  620MOL0     H81801  -0.809   4.745   3.553  2.3423  0.1307 -0.9095
  620MOL0     H81802  -1.057   5.080   3.346  1.6190 -0.3947 -1.1061
  620MOL0     H81803  -1.300   5.058   3.324  0.6059  2.1141  2.0548
  620MOL0     H81804  -1.674   4.742   3.604  1.2310  2.2974 -1.4741
  620MOL0     H81805  -1.910   4.710   3.590 -2.0515  1.4682 -2.7278
  620MOL0     H81806  -2.055   4.423   3.329 -0.5783 -0.1912  0.9885
  620MOL0     H81807  -2.094   4.554   3.215 -0.4228  0.4776 -0.1225
  620MOL0     H81808  -2.237   4.475   3.481 -1.4534  0.2233  0.5745
  620MOL0     H81809  -2.287   4.427   3.320  0.0089 -0.3448  1.4882
  620MOL0     H81810  -2.314   4.684   3.274 -1.7379  0.6462 -0.1540
  620MOL0     H81811  -2.279   4.700   3.435  0.6657 -0.1465 -0.2868
  620MOL0     H81812  -2.527   4.512   3.384 -1.4597  0.7584 -4.1650
  620MOL0     H81813  -2.500   4.633   3.502  1.1772  0.7939  0.9515
  620MOL0     H81814  -2.527   4.810   3.314 -0.3377 -0.0682 -0.5482
  620MOL0     H81815  -2.668   4.717   3.340  0.2281 -0.9228 -1.8553
  620MOL0     H81816  -2.608   4.538   3.166  2.0877 -1.4543 -1.6442
  620MOL0     H81817  -2.459   4.621   3.125  2.1184  2.7915  2.7772
  620MOL0     H81818  -2.742   4.698   3.073  0.2824  0.5346 -1.4723
  620MOL0     H81819  -2.618   4.827   3.063  2.1473  0.2255 -1.1010
  620MOL0     H81820  -2.670   4.743   2.856 -0.4458 -0.3060 -0.5338
  620MOL0     H81821  -2.640   4.567   2.890  0.2553 -0.0509 -0.0359
  620MOL0     H81822  -1.877   4.586   3.193 -0.1113  2.9037 -0.9151
  620MOL0     H81823  -1.638   4.615   3.192  0.3354 -1.1259  0.7949
  620MOL0     H81824  -1.261   4.683   3.545  0.3328 -0.0074  0.7669
  620MOL0     H81825  -1.044   4.694   3.560 -1.3970 -0.0928  0.1034
  620MOL0     H81826   1.098   4.755   3.317 -0.9594  0.7095  1.4396
  620MOL0     H81827   1.277   4.613   3.370 -0.7672 -0.1688  0.7153
  620MOL0     H81828   1.659   4.350   3.366 -0.8821 -0.2968 -1.2586
  620MOL0     H81829   1.809   4.183   3.477 -0.6279 -1.1206  2.3159
  620MOL0     H81830   1.920   4.021   3.580 -1.0627  2.1853  0.2022
  620MOL0     H81831   1.879   3.956   3.420  2.5178 -2.4324  0.4052
  620MOL0     H81832   1.896   3.774   3.658  0.2098 -0.9151 -0.4390
  620MOL0     H81833   1.898   3.729   3.493 -1.3925 -0.8074  1.2047
  620MOL0     H81834   2.134   3.866   3.477  0.8856 -0.8652 -0.4667
  620MOL0     H81835   2.129   3.710   3.547  0.6955  1.1323 -1.1505
  620MOL0     H81836   2.141   3.983   3.686  4.2339  0.5897  3.7941
  620MOL0     H81837   2.083   3.836   3.781 -0.2907 -1.8159 -1.6139
  620MOL0     H81838   2.507   3.881   3.757 -1.1221 -0.0085 -0.6641
  620MOL0     H81839   1.467   3.950   3.586 -0.6042  0.2498  1.2632
  620MOL0     H81840   1.317   4.111   3.512 -0.5571  0.6950  3.0343
  621MOL0     O81841   7.772   0.014   9.239 -0.0760 -0.4909  0.6899
  621MOL0     C81842   7.726  -0.078   9.304 -0.2089  0.6469 -0.1124
  621MOL0     O81843   7.597  -0.123   9.299  0.1881 -0.0518 -0.0112
  621MOL0     C81844   7.506  -0.058   9.215 -0.3717  0.1783  0.1622
  621MOL0     C81845   7.531  -0.052   9.075  0.2666 -0.8128 -0.2818
  621MOL0     C81846   7.457   0.037   8.998 -0.2819  0.4128 -0.6083
  621MOL0     C81847   7.355   0.109   9.050  0.6361 -0.3661 -0.4782
  621MOL0     O81848   7.260   0.169   8.967 -0.3489  0.0899 -0.1270
  621MOL0     C81849   7.126   0.155   9.020  0.0096 -0.4449  0.1230
  621MOL0     C81850   7.047   0.165   8.886  0.2452  0.4258  0.1758
  621MOL0     C81851   6.901   0.202   8.903  0.1781  0.6057 -0.4065
  621MOL0     C81852   6.884   0.345   8.958 -1.0529  0.6507  0.1202
  621MOL0     C81853   6.742   0.388   8.966 -0.1529  0.3360  0.4665
  621MOL0     C81854   6.650   0.289   9.047 -0.6386 -0.1077  0.5347
  621MOL0     C81855   6.504   0.338   9.068 -0.1864 -0.2447 -0.5207
  621MOL0     C81856   6.448   0.369   8.935 -0.6551  0.5253 -0.8697
  621MOL0     N81857   6.299   0.378   8.938 -0.1769 -0.7869 -0.2844
  621MOL0     C81858   6.230   0.484   8.970 -0.7001 -0.5155 -0.2502
  621MOL0     C81859   6.103   0.438   8.973  0.2544  0.4057  0.0663
  621MOL0     C81860   5.983   0.521   9.002 -0.3439 -0.5045  1.0159
  621MOL0     C81861   5.856   0.458   8.951 -0.9606 -0.5287  0.6174
  621MOL0     C81862   5.725   0.529   8.970 -0.2426  0.6631 -0.0810
  621MOL0     C81863   5.630   0.470   9.070  0.0535 -0.0400 -0.1936
  621MOL0     O81864   5.525   0.552   9.089  0.4380  0.2944 -0.3190
  621MOL0     C81865   5.434   0.513   9.185  0.3219  0.0150 -0.9922
  621MOL0     C81866   5.327   0.439   9.135  0.0571 -0.8438 -0.7357
  621MOL0     C81867   5.230   0.393   9.216 -0.1856 -0.7856  0.2849
  621MOL0     C81868   5.233   0.422   9.356  0.7053 -0.0394  0.1081
  621MOL0     C81869   5.122   0.377   9.449 -0.6406 -0.3973 -0.7999
  621MOL0     O81870   5.036   0.283   9.401 -0.2498 -0.0251 -0.5538
  621MOL0     C81871   4.922   0.259   9.479  0.1691 -0.4076 -0.2700
  621MOL0     C81872   4.913   0.128   9.537  0.1339 -0.5600 -0.1135
  621MOL0     C81873   4.815   0.091   9.619  0.1151 -0.4264 -0.8014
  621MOL0     C81874   4.714   0.182   9.650  0.0044  0.4893  0.0884
  621MOL0     O81875   4.615   0.146   9.743 -0.6753  0.2279 -0.3034
  621MOL0     C81876   4.580   0.014   9.770  0.8569 -0.4569  0.3098
  621MOL0     C81877   4.543  -0.060   9.640 -0.2571 -0.5047  0.5195
  621MOL0     C81878   4.412  -0.134   9.647  1.5658 -0.1778 -1.0447
  621MOL0     C81879   4.395  -0.221   9.521 -0.2915 -0.2607 -0.8013
  621MOL0     C81880   4.262  -0.285   9.490  0.2085 -0.1605 -0.4478
  621MOL0     C81881   4.155  -0.179   9.442  0.6316 -0.3392 -0.4672
  621MOL0     C81882   4.015  -0.249   9.418  1.2210 -0.0764  0.3617
  621MOL0     C81883   3.905  -0.155   9.354 -0.5828  0.2011 -0.8501
  621MOL0    Cl81884   3.946  -0.096   9.205  0.1647  0.4253 -0.0124
  621MOL0     C81885   4.722   0.315   9.593  1.3299  0.7713 -0.0568
  621MOL0     C81886   4.825   0.353   9.504 -0.5948 -0.6498  0.2682
  621MOL0     O81887   5.116   0.437   9.556 -0.6412  0.1137  0.3760
  621MOL0     C81888   5.341   0.498   9.407  0.0779  0.8320  0.4587
  621MOL0     C81889   5.444   0.544   9.323  0.5202  0.0433 -0.4050
  621MOL0     N81890   6.102   0.300   8.951  0.0451 -1.3256  0.3473
  621MOL0     N81891   6.223   0.274   8.926 -0.1382  0.5230  0.7458
  621MOL0     C81892   7.341   0.117   9.181  0.2013  0.2137 -0.8705
  621MOL0     C81893   7.411   0.031   9.265  0.0050  0.4243  0.7117
  621MOL0     C81894   7.824  -0.149   9.388  0.6576 -0.5382 -0.1043
  621MOL0     C81895   7.783  -0.228   9.497  0.4388 -0.9190  0.7392
  621MOL0     C81896   7.871  -0.298   9.581  0.5223 -0.3117  0.7079
  621MOL0     C81897   8.011  -0.290   9.553  0.9364 -0.2673 -0.1837
  621MOL0     O81898   8.108  -0.347   9.636 -0.3818 -0.2943  0.6196
  621MOL0     C81899   8.078  -0.447   9.733 -0.0418  0.9629  0.1473
  621MOL0     C81900   8.055  -0.395   9.872 -0.2227  0.0780 -0.0754
  621MOL0     C81901   8.191  -0.355   9.922  0.3196 -0.6113 -0.6778
  621MOL0     C81902   8.194  -0.301  10.063  0.0809 -0.4936 -0.0500
  621MOL0     C81903   8.325  -0.252  10.105 -0.2390  0.7228 -0.8633
  621MOL0     C81904   8.438  -0.209  10.143 -0.3753  0.4434 -0.2267
  621MOL0     C81905   8.061  -0.207   9.447 -0.3886 -0.2248 -0.3571
  621MOL0     C81906   7.967  -0.133   9.363 -0.8364  0.7110 -0.5441
  621MOL0     H81907   7.619  -0.109   9.048  1.4381  0.9270 -0.3275
  621MOL0     H81908   7.484   0.053   8.894  1.1967  1.7409 -0.0610
  621MOL0     H81909   7.122   0.229   9.100  0.4701 -0.5093  0.2099
  621MOL0     H81910   7.100   0.059   9.065  0.6039  0.0442  1.5666
  621MOL0     H81911   7.057   0.071   8.830  1.5280  1.2750 -1.0928
  621MOL0     H81912   7.094   0.245   8.828 -0.4235  0.4173 -0.3955
  621MOL0     H81913   6.858   0.124   8.967  1.9379 -1.1112 -1.2114
  621MOL0     H81914   6.847   0.205   8.808 -0.3939  1.2812 -0.0669
  621MOL0     H81915   6.922   0.352   9.061 -0.4764  0.2284 -0.0617
  621MOL0     H81916   6.940   0.417   8.899 -1.7892  3.0216  2.1425
  621MOL0     H81917   6.701   0.397   8.865  1.1048 -1.1396 -0.2290
  621MOL0     H81918   6.733   0.486   9.012 -2.8990  0.6169 -0.4374
  621MOL0     H81919   6.705   0.262   9.137  2.9904 -0.5402 -1.6397
  621MOL0     H81920   6.644   0.193   8.995  1.5181  0.8506 -1.6850
  621MOL0     H81921   6.443   0.264   9.122  2.7403 -2.4286  0.0671
  621MOL0     H81922   6.496   0.433   9.122  1.7427 -0.0556 -0.5007
  621MOL0     H81923   6.463   0.285   8.867 -0.8451 -0.6447  0.4927
  621MOL0     H81924   6.492   0.461   8.893  3.5035 -0.9234 -0.1917
  621MOL0     H81925   6.274   0.584   8.969 -2.4342  0.2941 -2.2245
  621MOL0     H81926   5.999   0.616   8.951  1.0553 -1.4772 -0.4694
  621MOL0     H81927   5.977   0.555   9.106  0.0905  2.6108  0.1289
  621MOL0     H81928   5.856   0.355   8.987 -0.3641 -0.0086  2.1612
  621MOL0     H81929   5.872   0.464   8.843  0.8206  1.0408  0.9185
  621MOL0     H81930   5.747   0.633   8.996 -2.3411  1.1611 -0.0943
  621MOL0     H81931   5.669   0.533   8.876 -1.0270 -1.0781  0.2607
  621MOL0     H81932   5.681   0.457   9.166 -1.4975  2.4556  1.0818
  621MOL0     H81933   5.595   0.370   9.042 -2.5283 -0.5446  4.0345
  621MOL0     H81934   5.311   0.420   9.030 -2.5756  0.9018 -0.7383
  621MOL0     H81935   5.148   0.337   9.171  1.2447 -0.0307 -3.7389
  621MOL0     H81936   4.982   0.045   9.523 -1.6450 -1.9637 -0.8608
  621MOL0     H81937   4.818  -0.003   9.672 -2.1132 -0.1338 -0.0579
  621MOL0     H81938   4.492   0.013   9.835  0.3789 -0.6664 -0.3271
  621MOL0     H81939   4.669  -0.036   9.810  0.5014 -1.7766 -0.4827
  621MOL0     H81940   4.625  -0.119   9.598  1.2691  1.0889  1.1208
  621MOL0     H81941   4.521   0.014   9.562 -0.5208 -1.6554 -0.5489
  621MOL0     H81942   4.333  -0.058   9.654  1.8622  0.0975 -0.6636
  621MOL0     H81943   4.399  -0.199   9.734 -2.9649 -0.2982 -1.5520
  621MOL0     H81944   4.418  -0.165   9.430 -0.2451 -1.4525 -1.5430
  621MOL0     H81945   4.462  -0.308   9.527  2.4632  1.8612  2.6240
  621MOL0     H81946   4.218  -0.345   9.570  0.6478 -2.0683 -1.5694
  621MOL0     H81947   4.264  -0.353   9.403 -1.8058 -1.9924  0.8399
  621MOL0     H81948   4.183  -0.135   9.346  0.7004 -1.5395 -1.0249
  621MOL0     H81949   4.155  -0.104   9.521  3.0146 -1.4385  0.6664
  621MOL0     H81950   4.021  -0.332   9.347  0.5325  0.3834 -0.2633
  621MOL0     H81951   3.972  -0.280   9.513  1.6616  0.2909  0.6815
  621MOL0     H81952   3.877  -0.071   9.419 -3.1570 -0.7233 -0.6738
  621MOL0     H81953   3.813  -0.214   9.352 -2.4221  2.5223  2.7813
  621MOL0     H81954   4.642   0.384   9.619 -0.2500 -1.6131  1.8798
  621MOL0     H81955   4.834   0.457   9.472 -3.0658 -0.6721 -0.7142
  621MOL0     H81956   5.342   0.519   9.513  1.3835 -1.0853  0.8900
  621MOL0     H81957   5.523   0.588   9.383  0.1273  1.0476 -0.6016
  621MOL0     H81958   7.276   0.189   9.230  0.0217 -1.3700  1.3584
  621MOL0     H81959   7.400   0.058   9.370  1.4718  2.6124  0.3685
  621MOL0     H81960   7.676  -0.239   9.508  0.0651  2.2657  1.3016
  621MOL0     H81961   7.822  -0.356   9.659 -1.2694 -1.1387 -0.9564
  621MOL0     H81962   8.154  -0.526   9.732 -1.4863 -0.4789 -0.8919
  621MOL0     H81963   7.994  -0.501   9.688  1.2805 -0.4660 -0.7397
  621MOL0     H81964   7.991  -0.309   9.854 -0.3968 -0.0797 -0.2144
  621MOL0     H81965   8.001  -0.461   9.941  0.2669  1.1084  1.3587
  621MOL0     H81966   8.239  -0.278   9.860 -1.3959  0.0917 -1.1935
  621MOL0     H81967   8.254  -0.445   9.917  2.2730  0.3739  2.7007
  621MOL0     H81968   8.119  -0.221  10.068 -2.1531 -2.2712 -2.2786
  621MOL0     H81969   8.154  -0.377  10.131  0.5720  0.4431  1.3445
  621MOL0     H81970   8.540  -0.180  10.156 -0.2647 -0.4295  0.9943
  621MOL0     H81971   8.169  -0.199   9.439 -0.4586 -0.6719 -2.2132
  621MOL0     H81972   7.990  -0.071   9.277  1.1365  1.0439  0.1583
  622MOL0     O81973   6.363   0.552   6.029  0.5834  0.0285  0.3515
  622MOL0     C81974   6.441   0.513   5.952 -0.4717  0.0562 -0.4000
  622MOL0     O81975   6.411   0.429   5.852  0.0142  0.1024  0.2790
  622MOL0     C81976   6.284   0.384   5.816  0.5352 -0.7299 -0.7104
  622MOL0     C81977   6.268   0.251   5.793  0.0082 -0.5716  0.2179
  622MOL0     C81978   6.141   0.194   5.773 -0.0408 -0.5369  0.3129
  622MOL0     C81979   6.022   0.271   5.764 -0.1784  0.5309 -0.4452
  622MOL0     O81980   5.899   0.211   5.757  0.2960  0.8008  0.5078
  622MOL0     C81981   5.881   0.076   5.711 -0.1328 -0.1640  0.2210
  622MOL0     C81982   5.754   0.084   5.625 -0.9409  0.2363  0.4017
  622MOL0     C81983   5.702  -0.056   5.578  1.0504 -0.4037  0.9229
  622MOL0     C81984   5.576  -0.051   5.495 -0.7242  0.1076 -0.3872
  622MOL0     C81985   5.543  -0.198   5.457  0.6489  0.6785 -0.1831
  622MOL0     C81986   5.429  -0.237   5.361 -0.5976  0.1637  0.7449
  622MOL0     C81987   5.291  -0.195   5.427 -0.2023  0.8739  0.7979
  622MOL0     C81988   5.250  -0.052   5.396 -0.1336 -0.4216  0.2610
  622MOL0     N81989   5.114  -0.020   5.440  0.2313  0.4016 -0.2419
  622MOL0     C81990   5.057  -0.026   5.561 -0.1278  0.7851 -0.3293
  622MOL0     C81991   4.924  -0.010   5.546 -0.0611  0.1051  0.2980
  622MOL0     C81992   4.819  -0.012   5.655 -0.3769 -0.1768  0.4600
  622MOL0     C81993   4.671  -0.014   5.603  0.1169  0.9862 -0.4477
  622MOL0     C81994   4.580  -0.038   5.723 -0.5085 -0.0796  0.2484
  622MOL0     C81995   4.432  -0.054   5.686  0.1069  0.0384 -0.1080
  622MOL0     O81996   4.370   0.083   5.692 -0.1152 -0.2364  0.9435
  622MOL0     C81997   4.229   0.106   5.673 -0.2842 -0.2717 -0.1132
  622MOL0     C81998   4.129   0.010   5.662  0.3707 -0.0000 -0.0525
  622MOL0     C81999   3.996   0.055   5.661  0.9405 -0.5974 -0.1550
  622MOL0     C82000   3.959   0.187   5.650  0.4189 -0.1890 -0.7106
  622MOL0     C82001   3.819   0.230   5.631 -0.3415  0.1055  0.9025
  622MOL0     O82002   3.732   0.129   5.603 -0.0185 -0.0612 -0.1515
  622MOL0     C82003   3.600   0.142   5.553  0.2448  0.3399  0.1079
  622MOL0     C82004   3.517   0.036   5.577  0.0331 -0.1700  0.1921
  622MOL0     C82005   3.385   0.030   5.525 -0.5574  0.2036 -0.8022
  622MOL0     C82006   3.335   0.137   5.457 -0.4796 -0.2845 -0.4710
  622MOL0     O82007   3.203   0.160   5.430  0.2484 -0.3101 -0.1852
  622MOL0     C82008   3.105   0.053   5.437 -0.4168  0.0297 -0.0306
  622MOL0     C82009   2.972   0.106   5.393 -0.3502 -0.3180 -0.1815
  622MOL0     C82010   2.954   0.119   5.245 -0.0282  0.6664  0.1865
  622MOL0     C82011   2.826   0.175   5.197 -0.5895 -0.2303  0.3810
  622MOL0     C82012   2.700   0.127   5.253  0.1440  0.6991  0.3736
  622MOL0     C82013   2.574   0.191   5.185 -0.3383  0.6219  0.2323
  622MOL0     C82014   2.449   0.134   5.250  0.1894  0.3721 -0.4858
  622MOL0     C82015   2.320   0.222   5.234 -0.1373  0.8368  0.8045
  622MOL0    Cl82016   2.302   0.258   5.057  0.4970  0.4114 -0.3809
  622MOL0     C82017   3.420   0.238   5.427 -0.2987  0.0070 -0.1272
  622MOL0     C82018   3.547   0.248   5.479 -1.3540 -0.2236 -0.4529
  622MOL0     O82019   3.783   0.346   5.638  0.2420 -0.3095  0.4580
  622MOL0     C82020   4.063   0.283   5.654 -0.1340 -0.2205  0.3095
  622MOL0     C82021   4.196   0.239   5.665 -0.9695 -0.1272 -0.2313
  622MOL0     N82022   4.903  -0.026   5.413  0.8651  0.2573  1.4151
  622MOL0     N82023   5.014  -0.037   5.352  0.3965 -0.5796  0.0917
  622MOL0     C82024   6.044   0.408   5.781  0.9092 -0.1083  0.0285
  622MOL0     C82025   6.173   0.463   5.807  1.0491 -0.3293  0.2422
  622MOL0     C82026   6.581   0.572   5.952  0.5261 -1.1751 -0.3297
  622MOL0     C82027   6.661   0.557   5.839 -0.0941 -0.9416 -0.0145
  622MOL0     C82028   6.788   0.606   5.843 -0.6503 -0.1699  0.6984
  622MOL0     C82029   6.846   0.662   5.956  0.4462 -0.2071  0.0238
  622MOL0     O82030   6.973   0.702   5.941  0.3199  0.7476 -0.3267
  622MOL0     C82031   7.045   0.755   6.052  0.9631 -0.0965 -0.2714
  622MOL0     C82032   7.121   0.858   5.982 -1.0331 -0.3873 -0.3190
  622MOL0     C82033   7.234   0.910   6.082 -0.5674 -0.2029  0.5113
  622MOL0     C82034   7.330   1.015   6.019  0.7139 -0.0026 -0.4340
  622MOL0     C82035   7.432   1.030   6.115 -0.5710 -0.3713 -0.1383
  622MOL0     C82036   7.527   1.035   6.195 -0.8306  0.3112  0.0815
  622MOL0     C82037   6.766   0.666   6.071 -0.2344 -0.2792 -0.1382
  622MOL0     C82038   6.637   0.618   6.073 -1.2428 -0.2822 -0.7056
  622MOL0     H82039   6.345   0.176   5.806 -0.6874 -1.3940 -0.2912
  622MOL0     H82040   6.130   0.087   5.784 -0.0648 -0.5132  0.5240
  622MOL0     H82041   5.849  -0.000   5.783 -2.6633  0.4643 -0.1412
  622MOL0     H82042   5.957   0.038   5.642 -1.2836 -1.3852 -0.4394
  622MOL0     H82043   5.780   0.144   5.537 -1.5761 -3.1024 -2.2626
  622MOL0     H82044   5.672   0.119   5.690 -1.7738  1.5786 -1.2754
  622MOL0     H82045   5.680  -0.117   5.665  1.3782  2.7179  3.3979
  622MOL0     H82046   5.781  -0.106   5.521  0.7189 -1.2146  1.1697
  622MOL0     H82047   5.497  -0.025   5.565  0.7582 -2.5613  2.5390
  622MOL0     H82048   5.596   0.023   5.417 -0.3199  0.2934 -0.1119
  622MOL0     H82049   5.517  -0.247   5.551 -1.7374  0.0027 -1.1357
  622MOL0     H82050   5.626  -0.256   5.416 -0.6622 -1.6242  0.3034
  622MOL0     H82051   5.436  -0.346   5.347  0.1663  0.1616  1.0952
  622MOL0     H82052   5.447  -0.191   5.264 -1.6181  0.0127  0.4751
  622MOL0     H82053   5.211  -0.266   5.402  1.9704 -1.0504 -1.2966
  622MOL0     H82054   5.303  -0.203   5.536  1.2407  0.7189  0.6441
  622MOL0     H82055   5.244  -0.045   5.287  2.1349 -0.5460  0.0739
  622MOL0     H82056   5.314   0.030   5.432 -1.6527  2.3156 -2.7354
  622MOL0     H82057   5.109  -0.035   5.656  0.4714 -3.7942 -0.9056
  622MOL0     H82058   4.828   0.071   5.725  2.2191 -0.7017  0.8530
  622MOL0     H82059   4.843  -0.101   5.714  0.7461  2.2857  4.0012
  622MOL0     H82060   4.648  -0.097   5.535 -1.0712 -0.1994  1.3122
  622MOL0     H82061   4.658   0.085   5.558  1.8600  0.9550 -1.0944
  622MOL0     H82062   4.605  -0.132   5.772 -0.6825  0.8559  2.2517
  622MOL0     H82063   4.595   0.039   5.800  0.4147 -0.3805  0.3710
  622MOL0     H82064   4.389  -0.108   5.771 -0.0710  1.4670  0.7544
  622MOL0     H82065   4.423  -0.099   5.587  0.2837  1.7870 -0.9557
  622MOL0     H82066   4.153  -0.095   5.667  2.9481  0.4084 -1.7716
  622MOL0     H82067   3.922  -0.024   5.665  1.9701 -1.5329  1.0297
  622MOL0     H82068   3.558  -0.037   5.647 -1.2695 -0.7103  0.4254
  622MOL0     H82069   3.323  -0.057   5.545 -1.4515  0.2084 -3.1888
  622MOL0     H82070   3.098   0.015   5.540 -0.1282 -2.7724 -0.9477
  622MOL0     H82071   3.133  -0.026   5.365 -2.0301 -2.6720  2.1001
  622MOL0     H82072   2.949   0.199   5.446 -0.1352 -2.3264  3.7877
  622MOL0     H82073   2.895   0.042   5.438  0.9868 -0.9609  1.3192
  622MOL0     H82074   2.971   0.020   5.202  1.2374 -0.0621  2.1986
  622MOL0     H82075   3.030   0.190   5.213 -0.3001  0.2214 -1.5380
  622MOL0     H82076   2.815   0.283   5.215 -0.7087 -0.5785  2.6685
  622MOL0     H82077   2.817   0.161   5.089 -3.8527  4.0454 -0.1733
  622MOL0     H82078   2.701   0.144   5.361 -0.2240  0.6621  0.3856
  622MOL0     H82079   2.702   0.017   5.249  3.2248  0.6846  0.0871
  622MOL0     H82080   2.572   0.166   5.078 -1.4657  3.4989 -0.5035
  622MOL0     H82081   2.571   0.300   5.191  0.2813  0.5531  2.4477
  622MOL0     H82082   2.427   0.043   5.193  0.0258 -0.4790  0.8902
  622MOL0     H82083   2.462   0.106   5.355 -0.8739 -1.6736 -0.8499
  622MOL0     H82084   2.325   0.310   5.297  0.6379  0.9292  0.6260
  622MOL0     H82085   2.230   0.168   5.267  0.1615 -0.7666 -0.8356
  622MOL0     H82086   3.381   0.320   5.368  1.2182  0.4636 -0.5277
  622MOL0     H82087   3.604   0.338   5.458 -3.4068  0.9869 -1.1380
  622MOL0     H82088   4.041   0.389   5.651 -0.1036 -0.2277 -0.4489
  622MOL0     H82089   4.275   0.313   5.674 -1.9723  0.9007  0.4044
  622MOL0     H82090   5.957   0.473   5.785 -0.3939 -1.7925  4.3589
  622MOL0     H82091   6.176   0.571   5.801 -1.0017 -0.0796  2.1025
  622MOL0     H82092   6.613   0.522   5.748  1.9565 -1.0638 -1.1262
  622MOL0     H82093   6.849   0.608   5.753 -2.7984  0.8294 -0.8125
  622MOL0     H82094   7.104   0.679   6.105 -1.6032 -2.0439  0.0014
  622MOL0     H82095   6.983   0.803   6.128  0.7166 -1.1740  0.2246
  622MOL0     H82096   7.160   0.824   5.886 -4.5556 -0.4256 -1.8917
  622MOL0     H82097   7.051   0.939   5.957  1.3913  1.4085 -1.6825
  622MOL0     H82098   7.289   0.820   6.110  1.0842  1.2462  2.1924
  622MOL0     H82099   7.197   0.955   6.174 -2.6968  2.2113 -1.3674
  622MOL0     H82100   7.380   0.977   5.929  3.4734  1.1318  0.4862
  622MOL0     H82101   7.283   1.113   6.004 -0.6175 -0.2108  2.0635
  622MOL0     H82102   7.611   1.060   6.256  0.1309 -5.0785  1.4769
  622MOL0     H82103   6.797   0.721   6.160  0.9229 -2.1464  0.6611
  622MOL0     H82104   6.574   0.628   6.161 -0.0765 -0.5744  0.1873
  623MOL0     O82105   5.414   0.014   2.070  0.1669 -0.0692 -0.5759
  623MOL0     C82106   5.323  -0.005   2.148  0.0275 -0.3462 -0.0134
  623MOL0     O82107   5.313   0.049   2.268  0.4006  0.1058  0.6451
  623MOL0     C82108   5.407   0.136   2.312 -1.1300 -0.6938 -0.2039
  623MOL0     C82109   5.436   0.125   2.447  0.0656  0.6689 -1.1876
  623MOL0     C82110   5.535   0.195   2.521  0.1035  0.0335  0.7532
  623MOL0     C82111   5.620   0.281   2.443  0.6964  0.2757  0.0202
  623MOL0     O82112   5.727   0.359   2.481  0.5915 -0.0285 -0.5984
  623MOL0     C82113   5.753   0.371   2.622 -0.1025  0.2813 -0.4026
  623MOL0     C82114   5.846   0.261   2.666  0.0412  0.5771 -0.0227
  623MOL0     C82115   5.907   0.287   2.803  0.6574 -0.6538 -1.1081
  623MOL0     C82116   5.807   0.351   2.904 -0.8312  0.0778 -0.1540
  623MOL0     C82117   5.868   0.371   3.044 -0.0605  0.0988  0.5669
  623MOL0     C82118   5.770   0.422   3.148  0.2388 -0.3696  0.4851
  623MOL0     C82119   5.828   0.482   3.277 -0.0845  0.1156 -0.5087
  623MOL0     C82120   5.891   0.363   3.361  0.5845  0.0140  0.2693
  623MOL0     N82121   5.800   0.292   3.441  0.3209 -0.1175 -0.6784
  623MOL0     C82122   5.723   0.334   3.543  0.6750  0.0005 -0.2563
  623MOL0     C82123   5.660   0.235   3.599 -0.1100 -0.0904 -0.3873
  623MOL0     C82124   5.560   0.247   3.715  1.0282  0.1120  0.4878
  623MOL0     C82125   5.420   0.226   3.654 -0.4076  0.6025 -0.1869
  623MOL0     C82126   5.319   0.263   3.766 -0.4909  0.1915  0.2310
  623MOL0     C82127   5.182   0.269   3.703  0.2536 -0.4538 -0.3015
  623MOL0     O82128   5.149   0.161   3.628 -0.0590  0.7548  0.1090
  623MOL0     C82129   5.015   0.154   3.584 -0.7923 -0.3932  0.5826
  623MOL0     C82130   4.971   0.031   3.530 -0.8881  0.4185  0.2808
  623MOL0     C82131   4.843   0.016   3.473 -0.5398  0.8063 -0.5620
  623MOL0     C82132   4.759   0.126   3.489 -0.2425  0.0632  1.4296
  623MOL0     C82133   4.627   0.126   3.419 -1.0365  0.1905 -0.3718
  623MOL0     O82134   4.589  -0.002   3.391  1.0369  0.3010  0.2941
  623MOL0     C82135   4.470  -0.019   3.321 -0.1930 -0.0748  0.7029
  623MOL0     C82136   4.487  -0.076   3.192 -0.3621 -0.2745 -0.0648
  623MOL0     C82137   4.387  -0.084   3.095 -0.6248 -0.1645 -0.1405
  623MOL0     C82138   4.257  -0.040   3.133 -0.1706 -0.3593 -0.1253
  623MOL0     O82139   4.153  -0.061   3.047 -0.0595  0.1144  0.5624
  623MOL0     C82140   4.107  -0.191   3.044  0.4921 -0.3157  0.6470
  623MOL0     C82141   3.975  -0.222   3.109  0.3654 -0.3428 -0.3964
  623MOL0     C82142   3.865  -0.172   3.020 -0.1967  0.7066 -0.3741
  623MOL0     C82143   3.736  -0.195   3.086 -0.3924  0.8421  0.0326
  623MOL0     C82144   3.613  -0.170   3.002 -0.6322 -0.0803  0.7336
  623MOL0     C82145   3.479  -0.179   3.080 -0.1894 -0.4921  0.5681
  623MOL0     C82146   3.363  -0.138   2.985 -0.0138  0.3435  0.4617
  623MOL0     C82147   3.235  -0.101   3.065  0.6268 -0.6408  0.3243
  623MOL0    Cl82148   3.163  -0.247   3.150  0.0087  0.1042 -0.2398
  623MOL0     C82149   4.231   0.012   3.261 -0.1990  0.7790  0.0402
  623MOL0     C82150   4.341   0.018   3.358  0.4975 -0.0751  0.4461
  623MOL0     O82151   4.571   0.228   3.389  0.0613  0.1485 -0.3008
  623MOL0     C82152   4.800   0.253   3.547  0.4091 -0.1798  0.0962
  623MOL0     C82153   4.930   0.257   3.589  0.3688  0.1359  0.7785
  623MOL0     N82154   5.706   0.124   3.537  0.1978  0.5998  0.4327
  623MOL0     N82155   5.790   0.156   3.439  0.6298  0.0537  0.3367
  623MOL0     C82156   5.593   0.300   2.304 -0.0734  0.1258  0.0790
  623MOL0     C82157   5.487   0.235   2.243 -0.2531  0.7829  0.0773
  623MOL0     C82158   5.206  -0.085   2.105  1.0696  0.4595  0.8916
  623MOL0     C82159   5.142  -0.157   2.200 -0.1517 -0.6285 -0.7915
  623MOL0     C82160   5.040  -0.242   2.176  0.2853 -0.0223 -0.1670
  623MOL0     C82161   5.006  -0.260   2.040 -0.2527 -0.5311 -0.3211
  623MOL0     O82162   4.920  -0.353   1.990 -0.2281 -0.7309 -0.3441
  623MOL0     C82163   4.847  -0.448   2.072 -0.5340 -0.4493 -0.3242
  623MOL0     C82164   4.726  -0.377   2.134  0.0385 -0.2200  0.0926
  623MOL0     C82165   4.719  -0.442   2.273 -0.0657  0.2648  0.4121
  623MOL0     C82166   4.627  -0.372   2.366  1.1340 -0.9953 -0.0621
  623MOL0     C82167   4.487  -0.386   2.318 -0.6799  0.2088 -0.0183
  623MOL0     C82168   4.367  -0.395   2.278  0.1258  0.2979  0.1094
  623MOL0     C82169   5.063  -0.172   1.943  0.7303  0.1330  1.2216
  623MOL0     C82170   5.165  -0.099   1.975 -0.7236 -0.1154 -0.6452
  623MOL0     H82171   5.383   0.054   2.510  1.2925 -0.4183 -1.3268
  623MOL0     H82172   5.551   0.188   2.629 -0.2112  2.0790  0.9663
  623MOL0     H82173   5.664   0.382   2.685  0.8221  2.8611  0.6032
  623MOL0     H82174   5.819   0.457   2.641 -1.4338  1.1355  0.5553
  623MOL0     H82175   5.926   0.245   2.594  1.1926 -4.3180  1.9824
  623MOL0     H82176   5.787   0.169   2.667  1.5150 -0.4596 -1.6272
  623MOL0     H82177   5.987   0.361   2.795 -0.2316  0.2594 -2.0267
  623MOL0     H82178   5.939   0.197   2.856 -0.2683 -0.1279  0.4160
  623MOL0     H82179   5.769   0.449   2.874  1.6630  1.5312  1.1797
  623MOL0     H82180   5.723   0.282   2.917  0.9365 -2.0938  0.3110
  623MOL0     H82181   5.952   0.440   3.029  0.0750 -0.6519 -2.8308
  623MOL0     H82182   5.909   0.276   3.080 -0.0510 -1.0319 -2.1792
  623MOL0     H82183   5.711   0.335   3.177  2.3131 -1.2344  2.4408
  623MOL0     H82184   5.718   0.506   3.100  2.9125  0.1648 -1.7269
  623MOL0     H82185   5.902   0.557   3.247 -2.1492  2.7898  0.6914
  623MOL0     H82186   5.756   0.520   3.350  0.9155 -1.4245  1.3825
  623MOL0     H82187   5.971   0.412   3.417  1.8100 -1.2525 -0.3140
  623MOL0     H82188   5.942   0.291   3.296 -2.5039  0.3853 -2.8860
  623MOL0     H82189   5.709   0.441   3.560  0.2536  0.4050 -2.8029
  623MOL0     H82190   5.571   0.345   3.762 -1.7832  1.5558 -1.6244
  623MOL0     H82191   5.575   0.172   3.794 -1.8071  1.5681  2.5965
  623MOL0     H82192   5.401   0.126   3.615 -1.6459  0.7524 -0.0247
  623MOL0     H82193   5.409   0.298   3.573 -3.2676 -0.2330 -0.6573
  623MOL0     H82194   5.317   0.185   3.842  1.9380  2.4043  2.7797
  623MOL0     H82195   5.336   0.359   3.816  0.6242  1.3559 -2.1716
  623MOL0     H82196   5.182   0.352   3.631  2.4420 -1.6247 -1.7922
  623MOL0     H82197   5.110   0.282   3.784 -2.3492 -1.5490 -2.2904
  623MOL0     H82198   5.037  -0.055   3.519 -3.5715 -1.6010 -1.4809
  623MOL0     H82199   4.814  -0.081   3.436 -0.1616  0.6011 -0.3345
  623MOL0     H82200   4.585  -0.115   3.168  0.0282  0.4266  0.3895
  623MOL0     H82201   4.400  -0.130   2.998  1.2297  0.6433 -0.3130
  623MOL0     H82202   4.184  -0.257   3.085  2.7114  2.2919  0.9653
  623MOL0     H82203   4.103  -0.224   2.940 -1.3724  4.6526 -1.1520
  623MOL0     H82204   3.980  -0.180   3.209 -1.0319  0.4776 -0.6344
  623MOL0     H82205   3.965  -0.330   3.119  0.9459 -0.4073 -0.4678
  623MOL0     H82206   3.878  -0.237   2.933  3.3346 -1.2028  1.3605
  623MOL0     H82207   3.878  -0.074   2.975 -0.6019  0.7879 -0.3257
  623MOL0     H82208   3.739  -0.303   3.104  0.5839  0.5806 -1.5179
  623MOL0     H82209   3.723  -0.145   3.183 -2.5408 -1.4755  1.0554
  623MOL0     H82210   3.616  -0.244   2.922  0.2275 -0.3044  0.9589
  623MOL0     H82211   3.621  -0.072   2.954  0.2400 -0.6862 -0.4143
  623MOL0     H82212   3.482  -0.110   3.165 -0.6728  1.9558 -1.2739
  623MOL0     H82213   3.463  -0.281   3.117 -1.5716 -2.0763 -3.7439
  623MOL0     H82214   3.397  -0.055   2.922 -1.2958 -0.1736 -0.9369
  623MOL0     H82215   3.332  -0.219   2.919 -2.4711  0.9224  0.8151
  623MOL0     H82216   3.157  -0.046   3.010  2.4004  1.1876 -0.5213
  623MOL0     H82217   3.260  -0.027   3.142 -3.1388  0.4737  0.7068
  623MOL0     H82218   4.126   0.035   3.280 -0.2950 -0.7216  1.4917
  623MOL0     H82219   4.325   0.047   3.461 -0.1127 -1.6184  0.8143
  623MOL0     H82220   4.730   0.333   3.566  1.0079  0.0998  1.2481
  623MOL0     H82221   4.955   0.360   3.613 -0.1313  0.3900  0.2263
  623MOL0     H82222   5.658   0.367   2.249 -0.1539  0.0515 -0.1087
  623MOL0     H82223   5.466   0.246   2.138 -1.5590 -2.0951 -0.0667
  623MOL0     H82224   5.179  -0.135   2.299  0.8623 -1.4752 -0.9667
  623MOL0     H82225   4.995  -0.303   2.254  2.0375 -0.8222  0.2631
  623MOL0     H82226   4.923  -0.493   2.136  0.9894  2.0367 -0.2839
  623MOL0     H82227   4.808  -0.525   2.004  0.0259 -0.6977 -0.3624
  623MOL0     H82228   4.740  -0.269   2.142 -0.6195  0.0602 -1.8499
  623MOL0     H82229   4.640  -0.395   2.069 -0.1869  0.7714  0.1117
  623MOL0     H82230   4.817  -0.447   2.322  0.3387 -3.7225 -0.4362
  623MOL0     H82231   4.688  -0.545   2.253 -1.8059  0.6645  0.8848
  623MOL0     H82232   4.622  -0.420   2.464 -1.7025 -1.4160 -0.3097
  623MOL0     H82233   4.645  -0.267   2.389 -1.4874 -0.8436  1.7463
  623MOL0     H82234   4.268  -0.420   2.248 -0.3818  0.6190  1.4559
  623MOL0     H82235   5.028  -0.183   1.841 -1.4495 -0.1727  1.9409
  623MOL0     H82236   5.218  -0.041   1.900 -0.1644 -0.1495 -0.2807
  624MOL0     O82237   2.487   1.460  10.161 -0.0106 -0.1686 -0.4433
  624MOL0     C82238   2.380   1.410  10.123  0.7589  0.1962 -0.4301
  624MOL0     O82239   2.333   1.402   9.991 -0.5547  0.0809  0.2288
  624MOL0     C82240   2.418   1.453   9.894 -0.6522  0.6040 -0.3150
  624MOL0     C82241   2.456   1.384   9.773  0.6323  0.1861 -0.0803
  624MOL0     C82242   2.533   1.430   9.666  0.3039 -0.6480 -0.5426
  624MOL0     C82243   2.571   1.565   9.668  0.0973  0.2439  0.4001
  624MOL0     O82244   2.646   1.607   9.564  0.6047  0.4188  0.7233
  624MOL0     C82245   2.691   1.744   9.558  0.5747  0.0873  0.1207
  624MOL0     C82246   2.575   1.838   9.530  0.8823  0.1331 -0.2920
  624MOL0     C82247   2.611   1.991   9.553 -0.1419 -0.4149 -0.1311
  624MOL0     C82248   2.479   2.069   9.548 -0.5101 -0.5218  0.4161
  624MOL0     C82249   2.511   2.225   9.559  1.2864  0.1819  0.0626
  624MOL0     C82250   2.380   2.306   9.523 -0.2887  0.8674 -0.0746
  624MOL0     C82251   2.281   2.309   9.639 -0.1712  0.0402  0.7079
  624MOL0     C82252   2.150   2.370   9.579  0.2582 -0.1891  0.3436
  624MOL0     N82253   2.043   2.369   9.681 -0.6834 -0.2387  0.0800
  624MOL0     C82254   2.049   2.415   9.813 -0.2993  0.1553 -0.4961
  624MOL0     C82255   1.927   2.372   9.855 -0.0942 -0.6356  0.8160
  624MOL0     C82256   1.880   2.399   9.995  0.4506 -0.3916  0.1045
  624MOL0     C82257   1.734   2.455   9.999  0.3976  0.6594 -0.2216
  624MOL0     C82258   1.671   2.473  10.136  0.6790  0.0932  0.5176
  624MOL0     C82259   1.520   2.471  10.146 -0.3121 -0.8523 -0.4118
  624MOL0     O82260   1.463   2.585  10.071  0.0382  0.5909  0.1152
  624MOL0     C82261   1.340   2.636  10.113  0.5241  0.1375  0.0361
  624MOL0     C82262   1.301   2.763  10.061  0.3422  0.3373  0.0274
  624MOL0     C82263   1.177   2.815  10.107  0.6086 -0.0940 -0.6880
  624MOL0     C82264   1.094   2.750  10.193 -0.1309 -0.0683  0.4023
  624MOL0     C82265   0.955   2.806  10.213  0.6766 -0.4814  0.7294
  624MOL0     O82266   0.857   2.718  10.227  0.9859  0.2333 -0.0468
  624MOL0     C82267   0.729   2.747  10.181  0.6657 -0.1380 -0.7930
  624MOL0     C82268   0.702   2.844  10.087 -0.3269 -0.6033  0.7256
  624MOL0     C82269   0.571   2.858  10.031  0.5546 -0.0376 -0.1836
  624MOL0     C82270   0.471   2.780  10.070 -0.6650 -1.8674  0.2931
  624MOL0     O82271   0.356   2.808  10.012 -0.7611 -0.6255  0.3565
  624MOL0     C82272   0.286   2.696   9.974  0.3035 -0.2150 -0.3063
  624MOL0     C82273   0.151   2.746   9.929 -0.1541 -0.8752  0.2577
  624MOL0     C82274   0.048   2.634   9.904  0.1624 -0.1990 -0.2373
  624MOL0     C82275  -0.079   2.701   9.854  0.1829  0.3539  0.0617
  624MOL0     C82276  -0.192   2.598   9.825 -0.1920 -0.7773 -0.2550
  624MOL0     C82277  -0.178   2.541   9.682  0.5232  0.1827 -0.2986
  624MOL0     C82278  -0.275   2.423   9.663 -0.6771  0.2531 -0.6572
  624MOL0     C82279  -0.273   2.382   9.514  0.9469 -0.5532 -0.4827
  624MOL0    Cl82280  -0.391   2.246   9.504 -0.5346 -0.3110 -0.4722
  624MOL0     C82281   0.487   2.702  10.179 -0.8088 -0.1515 -0.3499
  624MOL0     C82282   0.620   2.678  10.234 -0.8040 -0.0585  0.5957
  624MOL0     O82283   0.949   2.930  10.214  0.2164 -0.1903  0.4885
  624MOL0     C82284   1.129   2.618  10.241 -0.2398  0.0710 -0.9240
  624MOL0     C82285   1.249   2.563  10.198 -0.1567  0.0149 -0.3948
  624MOL0     N82286   1.855   2.305   9.760 -0.2304 -0.6869 -0.5350
  624MOL0     N82287   1.925   2.310   9.657  0.6172  0.9247 -0.1509
  624MOL0     C82288   2.526   1.637   9.776  0.1927  0.6826  1.0656
  624MOL0     C82289   2.450   1.581   9.883 -0.7924  0.0646 -0.9921
  624MOL0     C82290   2.291   1.346  10.221  0.2947  0.4931  0.1478
  624MOL0     C82291   2.154   1.319  10.194 -0.4256  0.2281 -0.3213
  624MOL0     C82292   2.073   1.244  10.280 -1.1452 -0.1079  0.7742
  624MOL0     C82293   2.126   1.201  10.406 -0.5084  0.0435 -0.5182
  624MOL0     O82294   2.060   1.136  10.507 -0.1602  0.3854 -0.5645
  624MOL0     C82295   1.922   1.120  10.499 -0.8234  0.2871 -0.3178
  624MOL0     C82296   1.857   1.051  10.616  0.4293  0.4509 -0.2954
  624MOL0     C82297   1.900   1.097  10.754  0.1110  0.0400 -0.4135
  624MOL0     C82298   1.807   1.068  10.871  1.5350 -0.3804 -0.1638
  624MOL0     C82299   1.830   1.157  10.989 -0.1636 -0.0017 -1.0632
  624MOL0     C82300   1.851   1.224  11.090 -0.0315  0.2003  0.8895
  624MOL0     C82301   2.264   1.232  10.432  0.7742  0.6454 -0.2027
  624MOL0     C82302   2.349   1.293  10.340  0.4308  0.2555  0.0449
  624MOL0     H82303   2.413   1.286   9.756 -2.0628  0.2504  4.6206
  624MOL0     H82304   2.576   1.365   9.591  0.3077 -2.0652  0.6462
  624MOL0     H82305   2.777   1.748   9.491  2.3546 -1.5390  2.1605
  624MOL0     H82306   2.726   1.761   9.660 -0.6614  1.9744  0.2899
  624MOL0     H82307   2.486   1.821   9.592  0.6087  1.3721 -0.3337
  624MOL0     H82308   2.544   1.833   9.425 -0.5588 -1.8032  0.1600
  624MOL0     H82309   2.681   2.026   9.477 -0.6691 -1.2437 -1.0123
  624MOL0     H82310   2.652   2.002   9.654  1.8062 -3.4484 -0.4581
  624MOL0     H82311   2.432   2.048   9.452 -3.2589  2.3949  0.9547
  624MOL0     H82312   2.417   2.030   9.629 -1.5352  0.0922 -0.0642
  624MOL0     H82313   2.607   2.261   9.523  0.7204  0.4487 -1.2377
  624MOL0     H82314   2.518   2.241   9.667  0.4678  0.6326  0.0606
  624MOL0     H82315   2.329   2.258   9.439  0.8463  1.0709 -0.9085
  624MOL0     H82316   2.412   2.408   9.498  2.5721  0.2752  0.7221
  624MOL0     H82317   2.249   2.210   9.673 -0.8083  0.1769  0.5288
  624MOL0     H82318   2.313   2.372   9.722 -0.9524  2.1940 -0.5325
  624MOL0     H82319   2.120   2.316   9.489 -2.3581 -1.7462  2.0385
  624MOL0     H82320   2.170   2.473   9.546  1.5041 -0.8071 -0.9487
  624MOL0     H82321   2.128   2.469   9.865  0.9185  0.9217 -2.9949
  624MOL0     H82322   1.945   2.480  10.031 -0.6893 -0.8584  3.6323
  624MOL0     H82323   1.897   2.304  10.045  1.2518 -0.8854 -1.0729
  624MOL0     H82324   1.670   2.378   9.955  2.3983 -1.9153  1.1038
  624MOL0     H82325   1.714   2.552   9.954 -1.7746  0.1020 -0.5722
  624MOL0     H82326   1.706   2.391  10.201  1.8248 -0.7898 -1.1447
  624MOL0     H82327   1.709   2.567  10.177  3.6214 -0.5109 -0.5569
  624MOL0     H82328   1.494   2.487  10.251  1.5540  2.2133 -0.3007
  624MOL0     H82329   1.475   2.380  10.104 -0.9492  0.1328 -1.9464
  624MOL0     H82330   1.380   2.804   9.999  1.4318 -1.8538 -0.1360
  624MOL0     H82331   1.154   2.913  10.067 -0.4768  0.1163  0.3820
  624MOL0     H82332   0.782   2.901  10.041 -0.5776 -1.8324 -1.3922
  624MOL0     H82333   0.557   2.932   9.953 -0.0409  0.5787  0.4885
  624MOL0     H82334   0.266   2.632  10.060  0.6949 -1.0252 -0.8058
  624MOL0     H82335   0.341   2.651   9.891  1.4404 -0.3572  0.5008
  624MOL0     H82336   0.158   2.798   9.833  0.7350 -0.0569  0.7431
  624MOL0     H82337   0.101   2.815   9.998 -1.9105 -1.8644  0.0109
  624MOL0     H82338   0.026   2.585   9.999  0.3704 -1.1843 -0.6747
  624MOL0     H82339   0.082   2.554   9.837 -2.0204 -2.3856  1.1279
  624MOL0     H82340  -0.115   2.768   9.932  0.0666  2.8514 -1.9802
  624MOL0     H82341  -0.058   2.761   9.765  2.7372  0.3007  0.5526
  624MOL0     H82342  -0.282   2.659   9.836  2.1465  2.8898  0.4949
  624MOL0     H82343  -0.195   2.512   9.892  0.1896 -1.1224 -0.6740
  624MOL0     H82344  -0.073   2.512   9.675  0.6177  0.2107  0.7889
  624MOL0     H82345  -0.200   2.624   9.614 -0.5086  0.8283  0.7719
  624MOL0     H82346  -0.247   2.345   9.735 -1.8111 -1.4873 -2.0300
  624MOL0     H82347  -0.376   2.451   9.694 -1.4438 -1.4097 -1.5221
  624MOL0     H82348  -0.176   2.342   9.484  1.8647  1.0504  0.2368
  624MOL0     H82349  -0.312   2.468   9.459 -1.8308 -1.8390 -0.7054
  624MOL0     H82350   0.406   2.641  10.217 -0.6793 -0.7862 -1.0770
  624MOL0     H82351   0.640   2.609  10.315  3.1473  0.6870  0.4432
  624MOL0     H82352   1.053   2.565  10.296  0.6582 -1.7462 -1.3751
  624MOL0     H82353   1.264   2.456  10.207  3.1051  0.2866 -1.2049
  624MOL0     H82354   2.540   1.744   9.780 -0.5342  0.8236  0.2456
  624MOL0     H82355   2.425   1.650   9.964  4.0049 -0.2980  1.1456
  624MOL0     H82356   2.108   1.367  10.108  0.5125 -0.0052 -0.9587
  624MOL0     H82357   1.966   1.228  10.265 -1.3443  2.1347 -0.7141
  624MOL0     H82358   1.900   1.053  10.416  1.1387 -0.8096  0.0067
  624MOL0     H82359   1.882   1.222  10.491 -1.2628  0.1050 -0.4817
  624MOL0     H82360   1.749   1.059  10.600  0.6095  0.4227 -1.6122
  624MOL0     H82361   1.889   0.947  10.603 -2.7624 -0.6742 -0.1525
  624MOL0     H82362   1.911   1.205  10.741  1.2496  0.2462  1.7593
  624MOL0     H82363   1.997   1.056  10.783 -0.9405 -1.7871  0.6885
  624MOL0     H82364   1.703   1.055  10.842  1.6322  1.5918 -1.5818
  624MOL0     H82365   1.838   0.968  10.905 -0.3678 -1.9763 -2.8243
  624MOL0     H82366   1.878   1.297  11.163  0.1450  0.4915  0.5391
  624MOL0     H82367   2.297   1.190  10.527  0.1020 -1.0890 -0.7158
  624MOL0     H82368   2.453   1.297  10.371 -0.2455  0.4194  2.5272
  625MOL0     O82369  10.074   5.805   7.771 -0.5743  0.0616 -0.3086
  625MOL0     C82370  10.083   5.770   7.658  0.1412  0.3629 -0.1140
  625MOL0     O82371   9.973   5.751   7.572 -0.9141  0.1517  0.1602
  625MOL0     C82372   9.841   5.729   7.596 -0.2331  0.7151 -0.2527
  625MOL0     C82373   9.791   5.688   7.717  0.7487  0.8965 -0.4440
  625MOL0     C82374   9.654   5.649   7.733  0.3280  0.4450 -1.0864
  625MOL0     C82375   9.570   5.647   7.619  0.1720  0.2118  0.3060
  625MOL0     O82376   9.431   5.612   7.619  0.3515 -0.3735  0.3057
  625MOL0     C82377   9.377   5.602   7.753 -0.1901 -0.7449  0.5478
  625MOL0     C82378   9.230   5.629   7.738 -0.3340  0.3867 -0.0620
  625MOL0     C82379   9.158   5.494   7.702 -0.3686  0.8842  0.4031
  625MOL0     C82380   9.001   5.510   7.691 -0.5016  0.1397 -0.1422
  625MOL0     C82381   8.935   5.375   7.732  0.9241  0.9142  0.4508
  625MOL0     C82382   8.788   5.395   7.765 -0.1116 -0.6558  0.7478
  625MOL0     C82383   8.718   5.270   7.820 -0.1381 -0.0956  0.5408
  625MOL0     C82384   8.671   5.184   7.695  0.0341  0.3489 -0.5379
  625MOL0     N82385   8.573   5.089   7.751  0.7521  0.1058 -0.4082
  625MOL0     C82386   8.444   5.113   7.782  0.7657  0.2007  0.2360
  625MOL0     C82387   8.390   4.993   7.812  0.4050  0.4129 -0.4628
  625MOL0     C82388   8.249   4.972   7.860  0.2547  0.0599  0.2563
  625MOL0     C82389   8.195   4.822   7.864  0.6712 -0.6348 -0.3504
  625MOL0     C82390   8.109   4.797   7.986  0.1500 -0.0824 -0.1325
  625MOL0     C82391   7.977   4.867   8.004 -0.7427 -0.2656 -0.5921
  625MOL0     O82392   7.919   4.811   8.126  0.0538 -0.1519 -0.2930
  625MOL0     C82393   7.797   4.746   8.113  0.3217  0.1514  0.4543
  625MOL0     C82394   7.684   4.785   8.189 -0.6331  0.1856  0.1167
  625MOL0     C82395   7.560   4.721   8.173 -0.0392  0.6556 -0.1110
  625MOL0     C82396   7.548   4.622   8.079  0.4147 -0.3232  1.6057
  625MOL0     C82397   7.415   4.570   8.048  0.0476  0.3977 -0.3367
  625MOL0     O82398   7.317   4.568   8.137 -0.6738 -0.2450  0.1872
  625MOL0     C82399   7.201   4.517   8.091  0.1533 -0.3276 -0.8096
  625MOL0     C82400   7.107   4.602   8.026  0.1164 -0.6123 -0.1402
  625MOL0     C82401   6.979   4.551   7.993 -0.3454  0.6861 -0.4837
  625MOL0     C82402   6.952   4.410   8.014  0.6477  0.5324  0.3897
  625MOL0     O82403   6.834   4.354   7.991  0.7006 -0.3311 -0.9253
  625MOL0     C82404   6.727   4.434   7.945 -0.3732 -0.0402  0.5535
  625MOL0     C82405   6.610   4.346   7.926 -0.5792 -0.4580  0.3148
  625MOL0     C82406   6.497   4.443   7.863 -0.0439 -0.0132  0.0013
  625MOL0     C82407   6.368   4.375   7.852  0.2361  0.3059  0.0636
  625MOL0     C82408   6.365   4.274   7.734 -0.0205 -0.7014  0.7711
  625MOL0     C82409   6.233   4.215   7.703  0.9344 -1.2323  0.4047
  625MOL0     C82410   6.247   4.081   7.644  0.8564  0.9912  0.5510
  625MOL0     C82411   6.115   4.002   7.639  0.1247  0.0162  0.3109
  625MOL0    Cl82412   6.132   3.835   7.569 -0.3971  0.3434  0.5514
  625MOL0     C82413   7.042   4.327   8.082  0.2494  0.3271  0.1196
  625MOL0     C82414   7.172   4.379   8.112  0.0446  0.1842 -1.0108
  625MOL0     O82415   7.408   4.522   7.935  0.2193  0.5585 -0.8202
  625MOL0     C82416   7.661   4.578   8.007 -0.3139 -0.6092  0.5213
  625MOL0     C82417   7.785   4.644   8.018  0.3462  0.4668 -0.3121
  625MOL0     N82418   8.488   4.896   7.786 -0.5115  0.0034  0.7306
  625MOL0     N82419   8.597   4.954   7.751  0.1807 -0.6846 -0.2280
  625MOL0     C82420   9.625   5.680   7.492  0.8296  0.2868  0.1727
  625MOL0     C82421   9.753   5.724   7.483 -0.5382 -0.7050 -0.7610
  625MOL0     C82422  10.220   5.765   7.603  0.2956  0.2484  0.8976
  625MOL0     C82423  10.261   5.680   7.491  0.7552 -0.0773 -0.8766
  625MOL0     C82424  10.397   5.677   7.447  0.0765 -0.0175  0.0368
  625MOL0     C82425  10.494   5.763   7.502  0.2557 -0.0170 -0.4538
  625MOL0     O82426  10.625   5.764   7.464 -1.0388  0.1663 -0.0285
  625MOL0     C82427  10.663   5.703   7.334  0.4274 -0.2409  0.2982
  625MOL0     C82428  10.629   5.776   7.209 -0.4255 -0.4719  0.5871
  625MOL0     C82429  10.711   5.911   7.195 -0.4085  0.3727  0.0037
  625MOL0     C82430  10.632   6.024   7.256 -0.4457 -0.2934 -1.5923
  625MOL0     C82431  10.506   6.068   7.185 -0.9845  0.3084 -0.1214
  625MOL0     C82432  10.426   6.103   7.107 -0.6063 -0.5809 -0.0370
  625MOL0     C82433  10.452   5.850   7.605  0.5744  0.2112 -0.0009
  625MOL0     C82434  10.319   5.851   7.651 -0.4178  0.0248 -0.0498
  625MOL0     H82435   9.849   5.672   7.808 -0.1990 -1.0621 -0.1407
  625MOL0     H82436   9.627   5.613   7.831 -1.6223  3.4441 -0.4253
  625MOL0     H82437   9.411   5.684   7.817  0.8979 -0.4692 -0.3536
  625MOL0     H82438   9.400   5.503   7.793 -0.3019 -2.2394 -2.7089
  625MOL0     H82439   9.210   5.690   7.650 -1.8663  0.9204  0.6126
  625MOL0     H82440   9.182   5.668   7.829 -2.3230 -0.4037 -0.7058
  625MOL0     H82441   9.166   5.432   7.791 -0.0858  0.9314  0.4135
  625MOL0     H82442   9.197   5.451   7.609 -0.5279  0.0708  0.7058
  625MOL0     H82443   8.966   5.596   7.748 -0.7802 -0.4069  0.5197
  625MOL0     H82444   8.990   5.541   7.586  1.8426  2.0606  0.1025
  625MOL0     H82445   8.975   5.326   7.822 -0.3619 -0.8582  0.1105
  625MOL0     H82446   8.940   5.296   7.657  0.0268  0.0920  1.2202
  625MOL0     H82447   8.735   5.435   7.679  0.7294 -0.2600  0.3968
  625MOL0     H82448   8.773   5.483   7.829  1.3935  0.1750  0.0343
  625MOL0     H82449   8.773   5.199   7.883 -4.7978 -1.8890  3.0984
  625MOL0     H82450   8.635   5.297   7.886  1.1761  2.4939  1.2422
  625MOL0     H82451   8.761   5.139   7.652  1.0261 -0.1205  1.8679
  625MOL0     H82452   8.615   5.241   7.620 -0.1035  1.1452  0.1488
  625MOL0     H82453   8.393   5.209   7.776 -0.5069 -0.4547  0.2172
  625MOL0     H82454   8.175   5.034   7.807  0.3730  1.4407  1.6224
  625MOL0     H82455   8.258   5.017   7.959  1.5760 -0.6968  0.4946
  625MOL0     H82456   8.283   4.758   7.870 -1.0178 -2.9830  1.0159
  625MOL0     H82457   8.137   4.787   7.778 -3.0782 -0.8209  2.0218
  625MOL0     H82458   8.082   4.691   7.979  0.4015 -0.0207 -2.8413
  625MOL0     H82459   8.171   4.813   8.075 -1.5025 -3.2060  1.7822
  625MOL0     H82460   7.909   4.846   7.921 -2.2498 -0.1954  0.5758
  625MOL0     H82461   7.989   4.974   8.020  0.1914  0.1799 -3.6001
  625MOL0     H82462   7.692   4.858   8.269 -2.9717 -1.3051  1.8774
  625MOL0     H82463   7.476   4.760   8.231  0.6545  2.6456 -0.3580
  625MOL0     H82464   7.137   4.705   8.011 -0.3660 -0.5917 -1.0474
  625MOL0     H82465   6.908   4.614   7.940  1.2323  2.2533 -0.8308
  625MOL0     H82466   6.757   4.481   7.851  1.4943  0.6877  1.4761
  625MOL0     H82467   6.700   4.516   8.012  0.1960  1.3993 -0.9017
  625MOL0     H82468   6.571   4.312   8.022 -0.7490  1.5041  0.9904
  625MOL0     H82469   6.634   4.267   7.855 -0.3029 -0.3310  0.2640
  625MOL0     H82470   6.535   4.477   7.766 -2.9133  0.2625 -1.1417
  625MOL0     H82471   6.483   4.524   7.935  1.5082  0.0569  0.2654
  625MOL0     H82472   6.351   4.323   7.947  1.2038  0.5290  0.3750
  625MOL0     H82473   6.287   4.445   7.831 -2.2815 -1.5724  2.7099
  625MOL0     H82474   6.439   4.198   7.760  2.6427  1.9353  1.4415
  625MOL0     H82475   6.404   4.309   7.638  1.5669 -2.7625  0.5957
  625MOL0     H82476   6.182   4.281   7.632  0.8199 -2.0655 -0.3030
  625MOL0     H82477   6.177   4.204   7.796 -1.1800  1.1085 -0.4627
  625MOL0     H82478   6.282   4.093   7.541 -2.0278  1.7356 -0.4406
  625MOL0     H82479   6.307   4.018   7.710  1.0530  0.2567 -0.3204
  625MOL0     H82480   6.050   4.059   7.571 -0.6646 -0.9844  0.2005
  625MOL0     H82481   6.065   3.982   7.735  3.3904  0.4390  2.2311
  625MOL0     H82482   7.024   4.224   8.110 -0.7554  1.1808  3.0296
  625MOL0     H82483   7.236   4.315   8.171 -1.4321  0.0680  0.5280
  625MOL0     H82484   7.649   4.502   7.931 -1.3743  0.8640 -0.8502
  625MOL0     H82485   7.871   4.610   7.961 -0.2427 -1.5018 -0.0988
  625MOL0     H82486   9.568   5.687   7.399  1.4321  1.4972 -0.1185
  625MOL0     H82487   9.793   5.759   7.389  0.1563 -0.8519 -0.5203
  625MOL0     H82488  10.192   5.620   7.433  0.0979  0.5165 -0.7284
  625MOL0     H82489  10.414   5.591   7.383  1.7019  3.1490 -4.2275
  625MOL0     H82490  10.629   5.599   7.333 -2.7291  0.6543  1.8552
  625MOL0     H82491  10.772   5.695   7.332  0.6268  1.8603 -0.2555
  625MOL0     H82492  10.648   5.709   7.125 -1.0949 -0.2524  0.2603
  625MOL0     H82493  10.521   5.793   7.209 -0.5341 -0.8451 -1.7834
  625MOL0     H82494  10.745   5.928   7.093  2.2407 -1.1317  0.5426
  625MOL0     H82495  10.804   5.895   7.250 -1.3422  0.1317  1.5643
  625MOL0     H82496  10.608   6.004   7.361 -0.9194  0.5306 -1.5315
  625MOL0     H82497  10.698   6.111   7.264 -2.8213  1.5212 -0.2556
  625MOL0     H82498  10.352   6.137   7.038  2.3076 -1.0361 -3.7566
  625MOL0     H82499  10.523   5.914   7.656 -1.6785  1.9336  1.2157
  625MOL0     H82500  10.291   5.924   7.727 -1.0685 -3.7458  3.7462
  626MOL0     O82501   5.134   5.640   0.101  0.0727 -0.1184  0.3582
  626MOL0     C82502   5.111   5.764   0.092  0.0397 -0.1093 -0.9211
  626MOL0     O82503   5.000   5.833   0.147 -0.5425 -0.1773 -0.2945
  626MOL0     C82504   4.900   5.765   0.206 -0.0115 -0.7578  0.4559
  626MOL0     C82505   4.850   5.639   0.178  0.1219 -0.0304 -0.2211
  626MOL0     C82506   4.731   5.589   0.232 -0.4678  0.9594 -0.6925
  626MOL0     C82507   4.650   5.666   0.321 -0.8227 -0.4391  0.1332
  626MOL0     O82508   4.536   5.614   0.369  0.9044  0.3134  0.2398
  626MOL0     C82509   4.415   5.695   0.366 -0.6902  0.4393  0.8927
  626MOL0     C82510   4.292   5.637   0.445 -0.6934 -0.1251  0.3087
  626MOL0     C82511   4.163   5.669   0.386  0.2719  0.1377 -0.9180
  626MOL0     C82512   4.044   5.614   0.471  1.2894  0.1804  1.0471
  626MOL0     C82513   3.913   5.647   0.389 -1.3956  0.8689 -0.4608
  626MOL0     C82514   3.803   5.579   0.462  0.3742  0.1795  0.6054
  626MOL0     C82515   3.672   5.625   0.408  0.8140  0.6138  0.1683
  626MOL0     C82516   3.642   5.767   0.448  1.0098 -0.4158 -0.3414
  626MOL0     N82517   3.493   5.798   0.438 -0.3916 -0.4461  0.4250
  626MOL0     C82518   3.405   5.811   0.540  0.7666  1.1614  0.1550
  626MOL0     C82519   3.291   5.864   0.495  0.4049  0.5358  0.4414
  626MOL0     C82520   3.171   5.912   0.571 -0.3048 -0.0886 -0.1864
  626MOL0     C82521   3.063   5.987   0.493 -0.8685  0.1909  0.4023
  626MOL0     C82522   2.947   6.025   0.588  0.0446  0.4825  0.0194
  626MOL0     C82523   2.883   6.156   0.538  0.1083 -0.1414 -0.8604
  626MOL0     O82524   2.781   6.181   0.630 -0.4033 -0.0145  0.1802
  626MOL0     C82525   2.691   6.287   0.608  0.3589  0.4300  0.5453
  626MOL0     C82526   2.692   6.369   0.491  0.2396 -0.5275  0.4380
  626MOL0     C82527   2.602   6.467   0.478  0.2472 -0.1284  0.2448
  626MOL0     C82528   2.503   6.495   0.572  0.0352 -0.1754  0.5300
  626MOL0     C82529   2.411   6.611   0.555  0.0025  0.0640  0.1072
  626MOL0     O82530   2.308   6.613   0.646 -0.1287  0.4926  0.2281
  626MOL0     C82531   2.251   6.736   0.669 -0.9282  0.7011 -0.4054
  626MOL0     C82532   2.252   6.791   0.799 -0.8161 -0.7427  0.1513
  626MOL0     C82533   2.194   6.921   0.820 -0.1205  0.2431 -0.3451
  626MOL0     C82534   2.124   6.988   0.725 -0.5601  0.2583  0.2027
  626MOL0     O82535   2.069   7.114   0.739 -0.3130 -0.3678 -0.6856
  626MOL0     C82536   2.130   7.208   0.828  0.3285  0.3444  0.6287
  626MOL0     C82537   2.108   7.349   0.765 -0.1654 -0.1128  0.5418
  626MOL0     C82538   2.122   7.472   0.869 -0.1050 -0.1719 -0.2963
  626MOL0     C82539   2.247   7.448   0.954 -0.2846  0.1464  0.3040
  626MOL0     C82540   2.261   7.564   1.059 -0.4165 -0.2540  0.4621
  626MOL0     C82541   2.378   7.523   1.154  0.8473 -0.1395  0.5925
  626MOL0     C82542   2.394   7.626   1.267 -0.0945  0.0632  0.8694
  626MOL0     C82543   2.488   7.587   1.368 -0.2212 -0.2215  0.2479
  626MOL0    Cl82544   2.655   7.575   1.295 -0.2773  0.0626  0.2802
  626MOL0     C82545   2.111   6.927   0.601  1.0452 -0.1424 -0.1147
  626MOL0     C82546   2.180   6.809   0.572 -0.9666  0.3810 -0.3240
  626MOL0     O82547   2.435   6.695   0.470  0.1333  0.1144 -0.0748
  626MOL0     C82548   2.509   6.424   0.695  0.3796 -0.0422  0.0772
  626MOL0     C82549   2.596   6.311   0.715  0.4687  0.0557  0.5917
  626MOL0     N82550   3.305   5.891   0.359  0.5398  0.2033 -0.3152
  626MOL0     N82551   3.426   5.859   0.333 -0.3247 -0.3075 -0.2559
  626MOL0     C82552   4.699   5.795   0.342  0.5524  0.1156  0.5642
  626MOL0     C82553   4.814   5.846   0.285  0.1876  0.2927 -0.5507
  626MOL0     C82554   5.224   5.846   0.044 -0.5611 -0.4431  0.5980
  626MOL0     C82555   5.334   5.781  -0.022 -0.0933 -0.9317 -0.2600
  626MOL0     C82556   5.441   5.856  -0.076  0.2053 -0.1227  0.4627
  626MOL0     C82557   5.439   5.997  -0.061 -0.0265 -0.1177  0.5011
  626MOL0     O82558   5.543   6.074  -0.110 -0.2308 -0.2983  0.5904
  626MOL0     C82559   5.587   6.181  -0.027 -0.0205  0.4243 -0.0542
  626MOL0     C82560   5.723   6.221  -0.057 -0.5267 -0.1033  0.0957
  626MOL0     C82561   5.755   6.260  -0.203 -0.2312  0.3062 -0.5774
  626MOL0     C82562   5.678   6.377  -0.268  0.7091 -0.2668 -0.9254
  626MOL0     C82563   5.695   6.487  -0.173  0.2512  0.1034  0.8816
  626MOL0     C82564   5.699   6.590  -0.105  0.3290  0.1425 -0.1231
  626MOL0     C82565   5.329   6.059   0.002  0.9838 -0.2747  0.4146
  626MOL0     C82566   5.233   5.978   0.057  0.3591  0.3654  0.4175
  626MOL0     H82567   4.900   5.566   0.115  0.6562  0.1176  0.0207
  626MOL0     H82568   4.707   5.485   0.213  1.7226  0.1619  0.5725
  626MOL0     H82569   4.388   5.701   0.260 -1.4782  1.0551  1.1195
  626MOL0     H82570   4.434   5.791   0.416 -4.4389  0.9026  1.7166
  626MOL0     H82571   4.300   5.662   0.551  0.4741 -0.8657  0.4172
  626MOL0     H82572   4.304   5.530   0.424  2.0980  0.1360  0.1295
  626MOL0     H82573   4.147   5.626   0.287  1.2194 -2.5852  0.0236
  626MOL0     H82574   4.156   5.778   0.385 -0.3627  0.0974 -2.0445
  626MOL0     H82575   4.044   5.505   0.475  0.2762  0.1995  2.0630
  626MOL0     H82576   4.037   5.652   0.573 -3.3031 -0.1014  1.0446
  626MOL0     H82577   3.923   5.605   0.288 -1.8960 -3.6578  1.1569
  626MOL0     H82578   3.896   5.755   0.384 -0.7437  0.9399 -1.4918
  626MOL0     H82579   3.808   5.580   0.571  1.0706 -0.6522  0.5913
  626MOL0     H82580   3.812   5.473   0.435  0.7749 -0.0020  1.4195
  626MOL0     H82581   3.669   5.623   0.299  1.2359 -1.1611  0.1534
  626MOL0     H82582   3.596   5.564   0.457  1.1734  0.6241  0.7561
  626MOL0     H82583   3.694   5.838   0.384  0.5040  1.5545  1.3076
  626MOL0     H82584   3.676   5.785   0.551 -1.3793 -1.0691  0.6331
  626MOL0     H82585   3.416   5.796   0.647 -1.9454  0.7575  0.4590
  626MOL0     H82586   3.215   5.978   0.646  0.4801  1.2855 -1.8107
  626MOL0     H82587   3.135   5.818   0.615  0.1771  0.2660  1.0264
  626MOL0     H82588   3.035   5.926   0.407 -4.1000  2.5681 -0.4435
  626MOL0     H82589   3.100   6.084   0.458  1.0741 -0.8748 -0.6545
  626MOL0     H82590   2.876   5.942   0.583 -1.1372  1.5185 -1.6231
  626MOL0     H82591   2.989   6.037   0.688  0.2419  0.9118 -0.1099
  626MOL0     H82592   2.846   6.153   0.436 -2.3224  0.5454 -0.0646
  626MOL0     H82593   2.955   6.238   0.541  1.6771 -1.4866 -0.2888
  626MOL0     H82594   2.773   6.356   0.419 -2.0507  0.7081 -2.5326
  626MOL0     H82595   2.615   6.530   0.391  0.5081  0.0137  0.3846
  626MOL0     H82596   2.313   6.746   0.877  0.4734 -0.6379 -0.7798
  626MOL0     H82597   2.206   6.970   0.916 -0.6160 -2.2023  1.0534
  626MOL0     H82598   2.236   7.182   0.826  0.3711  0.5381 -0.0080
  626MOL0     H82599   2.089   7.200   0.928  2.0471  0.4424  1.3831
  626MOL0     H82600   2.004   7.352   0.730  0.2176  1.1171 -0.5740
  626MOL0     H82601   2.177   7.362   0.682 -1.1907 -1.5286 -0.5759
  626MOL0     H82602   2.035   7.483   0.934  1.9185 -2.4965  3.1300
  626MOL0     H82603   2.130   7.566   0.813 -0.4549 -1.4264 -2.5552
  626MOL0     H82604   2.235   7.357   1.015 -0.3825  0.5495  0.9004
  626MOL0     H82605   2.330   7.442   0.884  0.9640 -2.9005  1.8136
  626MOL0     H82606   2.166   7.568   1.114  0.3100 -1.3901  1.8438
  626MOL0     H82607   2.271   7.662   1.012 -0.4937 -0.2197  0.5177
  626MOL0     H82608   2.473   7.528   1.100  0.6179  0.7541  0.2485
  626MOL0     H82609   2.368   7.426   1.203  1.6433 -0.7696 -0.4630
  626MOL0     H82610   2.426   7.719   1.218 -0.8373 -1.1253 -2.0580
  626MOL0     H82611   2.297   7.655   1.309  0.0096  4.2872 -1.2451
  626MOL0     H82612   2.456   7.499   1.424 -2.8121 -0.6340 -1.6652
  626MOL0     H82613   2.492   7.661   1.448 -0.0874  0.8865 -0.7472
  626MOL0     H82614   2.043   6.966   0.526  0.9921 -0.2208 -0.1078
  626MOL0     H82615   2.174   6.774   0.469 -1.7800  1.3702 -0.6286
  626MOL0     H82616   2.449   6.455   0.780  0.6492 -1.9349  1.0034
  626MOL0     H82617   2.594   6.240   0.797  1.9343 -2.1602 -1.1829
  626MOL0     H82618   4.647   5.860   0.412  1.4861  1.3292  0.1721
  626MOL0     H82619   4.845   5.948   0.305 -0.1635  0.3526 -0.3035
  626MOL0     H82620   5.342   5.673  -0.011 -0.0641 -0.9786 -0.7534
  626MOL0     H82621   5.526   5.793  -0.101  0.6950  0.5815  0.3433
  626MOL0     H82622   5.571   6.146   0.076 -1.1746 -2.3650 -1.0740
  626MOL0     H82623   5.527   6.271  -0.041  0.6860  0.9602  0.2323
  626MOL0     H82624   5.749   6.296   0.019  0.5865 -2.0151  1.7033
  626MOL0     H82625   5.792   6.140  -0.032  0.9682  1.1918  0.2932
  626MOL0     H82626   5.754   6.168  -0.262  4.6814  0.1464 -0.8658
  626MOL0     H82627   5.861   6.286  -0.206  0.0438 -0.5650  0.6723
  626MOL0     H82628   5.697   6.389  -0.376 -3.3727 -1.2814 -1.9019
  626MOL0     H82629   5.570   6.362  -0.267  0.4983  0.6650  2.4234
  626MOL0     H82630   5.701   6.680  -0.046 -0.4293  0.4321 -0.5243
  626MOL0     H82631   5.325   6.167   0.010  0.9516 -0.1466 -1.1022
  626MOL0     H82632   5.145   6.023   0.102 -0.1808 -0.2940  0.0493
  627MOL0     O82633   9.901   9.221   5.357 -0.2172 -0.3661 -0.4970
  627MOL0     C82634   9.917   9.324   5.422 -0.0434 -0.2192 -0.0297
  627MOL0     O82635   9.819   9.391   5.483  0.8189  0.2905  0.4530
  627MOL0     C82636   9.689   9.375   5.445 -0.5853  0.1392  0.5827
  627MOL0     C82637   9.601   9.345   5.549  0.6854  0.4251  0.4437
  627MOL0     C82638   9.465   9.327   5.525 -0.0158  0.2222  0.0393
  627MOL0     C82639   9.416   9.330   5.398  0.7294  1.2244 -0.6454
  627MOL0     O82640   9.280   9.307   5.388 -0.1826 -0.5489  1.0238
  627MOL0     C82641   9.228   9.226   5.282  0.1709  0.0922 -0.2134
  627MOL0     C82642   9.081   9.240   5.288  0.0566  0.5296 -0.5659
  627MOL0     C82643   9.010   9.152   5.182 -0.5026 -0.8250  0.4109
  627MOL0     C82644   8.855   9.139   5.193 -0.1700 -0.0778 -0.3773
  627MOL0     C82645   8.808   9.020   5.106  0.7430 -0.0798  0.0099
  627MOL0     C82646   8.660   9.024   5.062  0.2696 -0.2557  0.0053
  627MOL0     C82647   8.601   8.889   5.029  0.1786  0.3675  0.2121
  627MOL0     C82648   8.660   8.828   4.894 -0.2847  0.4036  0.6491
  627MOL0     N82649   8.596   8.711   4.828 -0.0762 -0.2928 -0.3898
  627MOL0     C82650   8.476   8.702   4.775  0.8382 -0.2071 -0.1692
  627MOL0     C82651   8.475   8.590   4.700  0.4879 -0.1975 -0.0469
  627MOL0     C82652   8.343   8.541   4.621 -0.4229  0.2187 -0.2404
  627MOL0     C82653   8.388   8.526   4.469  0.5495 -0.1331  0.7920
  627MOL0     C82654   8.251   8.473   4.402 -0.1128 -0.0002 -0.2245
  627MOL0     C82655   8.256   8.472   4.248  0.0272 -0.1266  0.3136
  627MOL0     O82656   8.275   8.604   4.189  0.1686 -0.3179  0.5150
  627MOL0     C82657   8.240   8.622   4.056 -0.5497  0.5284 -0.2008
  627MOL0     C82658   8.197   8.745   4.017 -0.0665 -0.4588  0.2398
  627MOL0     C82659   8.141   8.780   3.894  0.5774  0.5568 -0.6587
  627MOL0     C82660   8.126   8.680   3.793  0.6646  0.1379  1.0583
  627MOL0     C82661   8.058   8.710   3.660 -0.3261  0.3774 -0.4019
  627MOL0     O82662   7.997   8.828   3.667  0.9533  0.0678  0.0664
  627MOL0     C82663   7.887   8.845   3.577 -0.4852 -0.1543  0.1988
  627MOL0     C82664   7.805   8.750   3.519 -0.2309  0.8869 -0.5428
  627MOL0     C82665   7.701   8.774   3.433  0.9211  0.4015  0.5070
  627MOL0     C82666   7.688   8.901   3.394 -0.4125  0.0190 -0.1125
  627MOL0     O82667   7.578   8.917   3.307  0.0642 -0.5294  0.1502
  627MOL0     C82668   7.464   8.975   3.380  0.2646  0.2636 -0.1132
  627MOL0     C82669   7.362   9.025   3.274  0.1296 -0.3275 -0.1082
  627MOL0     C82670   7.284   9.146   3.336 -0.3492 -0.5917  0.0864
  627MOL0     C82671   7.173   9.215   3.253 -1.3532 -0.0108 -0.7569
  627MOL0     C82672   7.133   9.352   3.305  0.1768  0.5193  0.2445
  627MOL0     C82673   7.239   9.461   3.277  0.2819  0.1677 -1.1882
  627MOL0     C82674   7.191   9.599   3.309 -0.2830 -0.1527 -0.1432
  627MOL0     C82675   7.308   9.701   3.324  0.7260  0.4004  0.4140
  627MOL0    Cl82676   7.250   9.862   3.379  0.8813 -0.1889  0.3534
  627MOL0     C82677   7.764   9.006   3.439 -0.8054  0.2625 -0.4288
  627MOL0     C82678   7.866   8.984   3.537 -0.0886  0.3956 -0.4386
  627MOL0     O82679   8.067   8.636   3.566  0.2757  0.0816 -0.3584
  627MOL0     C82680   8.182   8.551   3.829 -0.1052 -0.4948 -0.8454
  627MOL0     C82681   8.234   8.522   3.958 -0.0772 -0.1549  0.1072
  627MOL0     N82682   8.597   8.526   4.729  0.3830 -0.7071 -0.0398
  627MOL0     N82683   8.665   8.600   4.800 -0.0535  0.0677 -1.0971
  627MOL0     C82684   9.498   9.360   5.293 -0.7006 -0.1586 -0.0596
  627MOL0     C82685   9.637   9.381   5.314 -0.0604 -0.6208 -0.2085
  627MOL0     C82686  10.056   9.379   5.436  0.8267  0.6083 -0.4366
  627MOL0     C82687  10.075   9.513   5.482  0.2747 -0.7512 -0.5408
  627MOL0     C82688  10.202   9.566   5.488  0.2593  0.5913 -0.4250
  627MOL0     C82689  10.317   9.502   5.437 -0.4392  0.7191  0.1894
  627MOL0     O82690  10.438   9.562   5.448  0.1497  0.1523  0.7595
  627MOL0     C82691  10.557   9.485   5.458 -0.1391  0.0703  0.1038
  627MOL0     C82692  10.676   9.575   5.492  0.0513  0.5775  0.7299
  627MOL0     C82693  10.804   9.496   5.467  0.0381  0.3343 -0.4115
  627MOL0     C82694  10.935   9.579   5.479 -0.2310  0.0388  0.2661
  627MOL0     C82695  10.969   9.606   5.616  0.2201 -0.3656 -0.2611
  627MOL0     C82696  10.980   9.615   5.736  0.0669 -0.1839  0.0566
  627MOL0     C82697  10.298   9.368   5.396  0.3301  0.4533  0.6486
  627MOL0     C82698  10.167   9.310   5.396  0.2436  0.0161 -0.2083
  627MOL0     H82699   9.640   9.331   5.649 -0.2043  0.7200  0.8477
  627MOL0     H82700   9.410   9.300   5.614 -0.3328  1.6977  0.3153
  627MOL0     H82701   9.249   9.120   5.301  1.2335 -0.2178 -2.7593
  627MOL0     H82702   9.277   9.246   5.187  1.5203  1.9669  0.7966
  627MOL0     H82703   9.059   9.344   5.263  2.2914  0.8512 -1.5062
  627MOL0     H82704   9.044   9.208   5.386 -1.7438  1.5297 -0.8931
  627MOL0     H82705   9.050   9.051   5.195 -0.6868 -0.9242  0.2004
  627MOL0     H82706   9.035   9.194   5.084 -1.1917 -3.0249 -0.7693
  627MOL0     H82707   8.836   9.106   5.296 -0.7699  0.1673 -0.4047
  627MOL0     H82708   8.817   9.240   5.172  1.5635  1.0148  1.4500
  627MOL0     H82709   8.831   8.928   5.161 -0.2132  0.8241  2.0379
  627MOL0     H82710   8.863   9.013   5.012  0.8703 -1.2355  0.1626
  627MOL0     H82711   8.651   9.089   4.975 -1.4949  0.2159  0.5038
  627MOL0     H82712   8.595   9.068   5.139 -1.0918 -1.6267 -0.3054
  627MOL0     H82713   8.622   8.824   5.114  2.2043 -2.7417 -2.4051
  627MOL0     H82714   8.494   8.910   5.020  0.6537  2.4544 -1.4032
  627MOL0     H82715   8.765   8.806   4.914  0.0281  2.1856  1.1131
  627MOL0     H82716   8.666   8.909   4.821  2.3427 -1.7188 -1.7156
  627MOL0     H82717   8.394   8.772   4.769  0.3089 -0.9161 -1.7931
  627MOL0     H82718   8.267   8.615   4.644 -0.8327 -0.2151 -0.1663
  627MOL0     H82719   8.304   8.447   4.661  0.2238 -0.8808 -2.0640
  627MOL0     H82720   8.471   8.453   4.471  0.6407 -0.0369  0.4883
  627MOL0     H82721   8.432   8.614   4.421  2.0055 -1.4948 -0.4970
  627MOL0     H82722   8.212   8.378   4.439  2.4602 -0.2248  2.2857
  627MOL0     H82723   8.170   8.546   4.410 -3.0456 -3.0495  0.2432
  627MOL0     H82724   8.162   8.434   4.208  0.3974  2.3969 -3.4487
  627MOL0     H82725   8.342   8.405   4.235  2.4398  1.8849  3.9161
  627MOL0     H82726   8.202   8.821   4.095 -0.6162  1.6757 -1.6909
  627MOL0     H82727   8.135   8.886   3.875  1.2331  0.9702  1.2181
  627MOL0     H82728   7.822   8.649   3.554  0.1027  0.6443 -1.3616
  627MOL0     H82729   7.644   8.697   3.383  1.2535  1.0679 -0.9413
  627MOL0     H82730   7.496   9.058   3.443  0.7379  0.6972 -0.9202
  627MOL0     H82731   7.418   8.904   3.450 -2.3921  3.3208  1.5158
  627MOL0     H82732   7.288   8.946   3.257 -1.4630  0.8126  1.1355
  627MOL0     H82733   7.401   9.057   3.177  0.7077 -2.3659 -0.5955
  627MOL0     H82734   7.361   9.220   3.360 -1.6190  1.0408 -0.6758
  627MOL0     H82735   7.252   9.124   3.439  2.7695 -1.3910  1.0130
  627MOL0     H82736   7.219   9.224   3.154  0.4032  2.7524  0.1992
  627MOL0     H82737   7.090   9.144   3.261 -0.0191 -1.5535  0.0177
  627MOL0     H82738   7.118   9.330   3.411  0.4978 -0.9676  0.0110
  627MOL0     H82739   7.043   9.393   3.260 -0.6221 -0.9952  0.4015
  627MOL0     H82740   7.268   9.454   3.172 -1.1193 -4.4593 -1.5171
  627MOL0     H82741   7.328   9.445   3.338  1.5726  2.1645 -2.4425
  627MOL0     H82742   7.126   9.628   3.227 -0.1993  1.2640  0.2672
  627MOL0     H82743   7.133   9.598   3.402 -2.0746 -1.4529 -1.2024
  627MOL0     H82744   7.375   9.702   3.238  3.0213  0.3272  2.0958
  627MOL0     H82745   7.374   9.668   3.405  0.2959  0.2782  0.7268
  627MOL0     H82746   7.738   9.102   3.395  1.6699  1.2269  0.0507
  627MOL0     H82747   7.932   9.064   3.571  1.5780 -0.6050 -1.1973
  627MOL0     H82748   8.169   8.481   3.746 -0.0714  0.5638 -1.7594
  627MOL0     H82749   8.285   8.426   3.958  0.1410 -0.0936 -1.9687
  627MOL0     H82750   9.462   9.352   5.191 -4.6023 -1.5356  1.2438
  627MOL0     H82751   9.700   9.404   5.229 -0.8367  0.6822 -0.4554
  627MOL0     H82752  10.000   9.570   5.536  1.6180  1.1275 -0.5925
  627MOL0     H82753  10.209   9.664   5.535 -0.6404  0.3813  0.1914
  627MOL0     H82754  10.564   9.430   5.363 -1.3778 -1.6838  0.9707
  627MOL0     H82755  10.549   9.405   5.532  3.8877 -1.6237 -1.0282
  627MOL0     H82756  10.680   9.655   5.419  0.8932 -0.9144 -0.9378
  627MOL0     H82757  10.674   9.607   5.597  1.2809 -1.6261  1.4941
  627MOL0     H82758  10.797   9.462   5.363  0.2881 -1.5189  0.1356
  627MOL0     H82759  10.801   9.420   5.546  1.4924  0.9783  0.2988
  627MOL0     H82760  11.022   9.533   5.430  0.7937  1.5547  0.5966
  627MOL0     H82761  10.924   9.679   5.437  0.0008  0.9070  2.2042
  627MOL0     H82762  10.995   9.610   5.842  2.5981 -0.7047 -0.2745
  627MOL0     H82763  10.380   9.327   5.337  0.3630  3.2871 -1.5197
  627MOL0     H82764  10.161   9.206   5.366 -2.9269 -0.9257  3.0217
  628MOL0     O82765   9.622   9.125   5.819 -0.5033 -0.1672  0.1388
  628MOL0     C82766   9.651   9.031   5.744 -0.1274  0.0150  0.0328
  628MOL0     O82767   9.562   8.930   5.687 -0.4500 -0.5903 -0.0672
  628MOL0     C82768   9.426   8.955   5.735 -0.5703 -0.3831  0.1307
  628MOL0     C82769   9.378   8.903   5.855  0.2629  0.4455 -0.4401
  628MOL0     C82770   9.246   8.902   5.884  0.1690  0.0036 -0.1205
  628MOL0     C82771   9.154   8.960   5.796  0.2776 -0.1028  0.3996
  628MOL0     O82772   9.020   8.951   5.838 -0.4697 -0.2007  0.1749
  628MOL0     C82773   8.928   8.955   5.735  0.3864 -0.0146 -0.1247
  628MOL0     C82774   8.776   8.940   5.778 -0.2787 -0.0974  0.2942
  628MOL0     C82775   8.688   8.913   5.659 -0.0691  1.0864 -0.5537
  628MOL0     C82776   8.546   8.926   5.694  0.2022 -0.4278  0.5108
  628MOL0     C82777   8.450   8.935   5.575  0.2159 -0.1208 -0.6701
  628MOL0     C82778   8.469   8.820   5.472 -0.5316  0.6428  0.7404
  628MOL0     C82779   8.346   8.805   5.370 -0.1173 -0.5463 -0.2899
  628MOL0     C82780   8.330   8.928   5.281 -0.3415  0.1395  0.9150
  628MOL0     N82781   8.210   8.903   5.194 -0.1333 -0.3433 -0.1483
  628MOL0     C82782   8.222   8.810   5.093  0.6472  0.5145 -0.2091
  628MOL0     C82783   8.102   8.826   5.024 -0.7979  0.2703  0.8780
  628MOL0     C82784   8.057   8.740   4.910 -0.3921  0.6522 -0.2243
  628MOL0     C82785   7.904   8.736   4.886  0.6919 -1.0863 -0.0896
  628MOL0     C82786   7.857   8.848   4.781 -0.6584 -0.8399  0.9985
  628MOL0     C82787   7.710   8.879   4.793  0.4313 -0.2131 -0.1199
  628MOL0     O82788   7.632   8.755   4.768 -0.0071 -0.3332 -0.0369
  628MOL0     C82789   7.511   8.771   4.708 -0.2587 -0.6160 -0.5198
  628MOL0     C82790   7.464   8.685   4.613  0.1729  0.5142  0.1980
  628MOL0     C82791   7.336   8.702   4.550  0.3998  0.0920 -0.6433
  628MOL0     C82792   7.256   8.815   4.578  0.3633 -0.1920 -0.3545
  628MOL0     C82793   7.124   8.834   4.515  0.2702 -0.1957 -0.1999
  628MOL0     O82794   7.038   8.925   4.567  0.1221  0.1010 -0.3262
  628MOL0     C82795   6.913   8.948   4.505  0.1197 -0.0449 -0.6907
  628MOL0     C82796   6.802   8.862   4.543 -0.3205  0.4812 -0.4083
  628MOL0     C82797   6.684   8.872   4.475 -0.6516  0.0246 -0.5595
  628MOL0     C82798   6.668   8.971   4.380 -0.8975 -0.0233  0.8274
  628MOL0     O82799   6.547   8.985   4.319 -0.0963 -0.3682 -0.0361
  628MOL0     C82800   6.486   8.869   4.266 -0.4053 -0.4206  0.1286
  628MOL0     C82801   6.370   8.896   4.175 -0.6475 -0.6047 -0.4579
  628MOL0     C82802   6.295   8.768   4.129  0.2874  0.2107 -0.7575
  628MOL0     C82803   6.165   8.819   4.049  0.5087  0.3628 -0.0757
  628MOL0     C82804   6.037   8.823   4.127  0.0900  0.1945 -0.7286
  628MOL0     C82805   5.923   8.875   4.029 -1.1503 -0.3845  0.1999
  628MOL0     C82806   5.787   8.895   4.096 -0.6647 -0.6336 -0.3080
  628MOL0     C82807   5.782   9.041   4.148  0.9112  0.1535  0.1886
  628MOL0    Cl82808   5.762   9.154   4.014 -0.4816  0.4011 -0.6559
  628MOL0     C82809   6.769   9.056   4.344 -0.5722  0.5131 -0.5018
  628MOL0     C82810   6.902   9.041   4.400  0.4800  0.0799 -0.3121
  628MOL0     O82811   7.112   8.777   4.405 -0.4795 -0.3388  0.1085
  628MOL0     C82812   7.308   8.905   4.670 -0.6914 -0.2159  0.5924
  628MOL0     C82813   7.434   8.886   4.732  0.4555  0.0589 -0.2975
  628MOL0     N82814   8.034   8.934   5.070  0.3301 -0.8611 -0.4874
  628MOL0     N82815   8.103   8.989   5.166 -0.6952 -0.2555 -0.3843
  628MOL0     C82816   9.200   9.019   5.673 -1.0121 -0.3946 -0.3223
  628MOL0     C82817   9.337   9.018   5.647 -0.2789 -0.1169 -0.2602
  628MOL0     C82818   9.792   9.029   5.704  0.1497 -0.1684 -0.0020
  628MOL0     C82819   9.831   8.972   5.576  0.1063 -0.4256  0.3469
  628MOL0     C82820   9.967   8.961   5.548 -0.3836 -0.1718  0.0680
  628MOL0     C82821  10.068   9.022   5.630  0.1713  0.0707  0.3727
  628MOL0     O82822  10.205   9.021   5.604  0.4668  0.0089  0.7476
  628MOL0     C82823  10.264   8.929   5.505 -0.8142  0.8211  0.3373
  628MOL0     C82824  10.412   8.943   5.508 -0.4241  0.4384 -0.3379
  628MOL0     C82825  10.483   8.859   5.614  0.2290 -1.2035 -0.0897
  628MOL0     C82826  10.633   8.847   5.592  0.9064 -0.1174 -0.2301
  628MOL0     C82827  10.693   8.981   5.592 -0.3382  0.0672 -0.2777
  628MOL0     C82828  10.726   9.095   5.573  0.3387  0.3437 -0.0918
  628MOL0     C82829  10.026   9.083   5.754  0.0032  0.6620  0.5722
  628MOL0     C82830   9.892   9.080   5.793 -1.0689 -1.3653  0.1000
  628MOL0     H82831   9.451   8.846   5.912 -1.0203 -0.6145  0.1960
  628MOL0     H82832   9.207   8.860   5.976 -1.3543  1.0046 -0.2709
  628MOL0     H82833   8.945   8.863   5.678 -2.7928 -0.9409  0.2719
  628MOL0     H82834   8.928   9.045   5.672 -2.0457  0.2854  0.2218
  628MOL0     H82835   8.732   9.022   5.836 -2.5076  0.0922 -1.5432
  628MOL0     H82836   8.770   8.852   5.843  2.9653 -0.0666  0.7843
  628MOL0     H82837   8.709   8.816   5.614 -0.3119 -0.4429  2.3720
  628MOL0     H82838   8.711   8.979   5.575  0.8481  0.4794 -0.7899
  628MOL0     H82839   8.512   8.847   5.761  0.6435  0.2157  1.5086
  628MOL0     H82840   8.536   9.024   5.742 -3.3011 -0.3992 -0.0241
  628MOL0     H82841   8.451   9.036   5.533  2.4290  0.5540  0.7880
  628MOL0     H82842   8.351   8.914   5.616 -0.4748  1.8918 -1.1860
  628MOL0     H82843   8.478   8.724   5.524 -0.2538  0.1875 -0.1429
  628MOL0     H82844   8.552   8.845   5.406 -1.0243  0.1352 -0.0824
  628MOL0     H82845   8.359   8.715   5.309  1.6313 -0.7208  0.2776
  628MOL0     H82846   8.257   8.784   5.430  0.3696 -1.2516  0.2076
  628MOL0     H82847   8.416   8.924   5.214 -0.5558 -1.3699  0.6933
  628MOL0     H82848   8.317   9.018   5.342 -1.8050  0.1707  0.5844
  628MOL0     H82849   8.295   8.733   5.070 -0.6711 -0.7310 -0.3513
  628MOL0     H82850   8.091   8.639   4.937  1.6924  1.4087  0.1927
  628MOL0     H82851   8.114   8.769   4.821 -0.3199 -0.8700 -0.7058
  628MOL0     H82852   7.847   8.747   4.979  0.1447  0.8110 -0.5944
  628MOL0     H82853   7.873   8.641   4.842  1.0799 -0.8054 -1.0030
  628MOL0     H82854   7.918   8.938   4.793 -1.1348 -0.3386 -0.2309
  628MOL0     H82855   7.885   8.798   4.688  0.5511 -3.7760  2.7929
  628MOL0     H82856   7.688   8.951   4.713 -0.5587 -1.8259 -1.3471
  628MOL0     H82857   7.682   8.931   4.885  1.8877  1.1877 -0.4144
  628MOL0     H82858   7.521   8.597   4.587 -0.5924  0.7484 -2.6322
  628MOL0     H82859   7.302   8.628   4.478 -0.0497 -1.5596  1.1863
  628MOL0     H82860   6.805   8.798   4.630  0.0132  1.1951  0.1147
  628MOL0     H82861   6.600   8.805   4.490  0.9290 -1.4755  2.7570
  628MOL0     H82862   6.452   8.802   4.344  2.0520 -2.9565 -0.8078
  628MOL0     H82863   6.559   8.805   4.216 -1.3279 -2.9315  1.8427
  628MOL0     H82864   6.411   8.947   4.088  1.8151 -1.3207  0.1985
  628MOL0     H82865   6.307   8.966   4.230  1.4868 -0.5351  2.1287
  628MOL0     H82866   6.268   8.711   4.219  1.3162  0.4053 -0.3075
  628MOL0     H82867   6.364   8.707   4.070 -0.3512  0.5195 -1.8554
  628MOL0     H82868   6.190   8.915   4.004  2.3004 -0.1979 -0.3567
  628MOL0     H82869   6.140   8.762   3.959 -3.5726  0.7303  0.6435
  628MOL0     H82870   6.049   8.891   4.211  0.1547  1.6806 -1.9121
  628MOL0     H82871   6.025   8.725   4.176 -0.8673  0.8316  0.3706
  628MOL0     H82872   5.901   8.812   3.943  0.0887 -1.2896  0.5066
  628MOL0     H82873   5.950   8.970   3.982  0.7767 -1.9607 -2.1212
  628MOL0     H82874   5.705   8.888   4.023 -2.0197  1.9441  0.8213
  628MOL0     H82875   5.768   8.819   4.172 -0.1001 -0.5528 -0.0855
  628MOL0     H82876   5.877   9.059   4.198  0.5082 -1.3605  1.6108
  628MOL0     H82877   5.692   9.054   4.209 -1.9825 -3.6076 -2.7496
  628MOL0     H82878   6.757   9.129   4.264 -1.3090  1.9432  0.8608
  628MOL0     H82879   6.982   9.104   4.361  0.7218 -0.7836 -1.2448
  628MOL0     H82880   7.245   8.991   4.691  0.5329  1.8439 -3.3222
  628MOL0     H82881   7.474   8.964   4.796 -0.6231  0.8182 -0.5307
  628MOL0     H82882   9.140   9.082   5.608  0.6744  0.5281 -1.0299
  628MOL0     H82883   9.372   9.064   5.554  0.3234  1.9758  0.9432
  628MOL0     H82884   9.758   8.944   5.502  0.7128  1.0472 -0.8657
  628MOL0     H82885  10.009   8.913   5.461 -1.6183  0.3692 -0.8664
  628MOL0     H82886  10.229   8.947   5.403 -0.9533  1.6821  0.5281
  628MOL0     H82887  10.233   8.826   5.523 -0.3044 -0.1649 -3.5306
  628MOL0     H82888  10.437   8.894   5.413  0.0052 -0.4064  0.2056
  628MOL0     H82889  10.429   9.050   5.517 -2.6735  0.9972 -1.8620
  628MOL0     H82890  10.435   8.763   5.636 -0.1995 -0.3260  3.4067
  628MOL0     H82891  10.474   8.909   5.711 -1.4875  0.1249 -0.8669
  628MOL0     H82892  10.671   8.790   5.677 -0.0349  3.7917  3.1495
  628MOL0     H82893  10.661   8.799   5.498  0.0635 -1.0242 -0.0452
  628MOL0     H82894  10.748   9.194   5.539  2.1932 -0.3642 -1.1347
  628MOL0     H82895  10.093   9.136   5.820 -1.4980 -0.3827  3.0916
  628MOL0     H82896   9.859   9.123   5.887 -0.6208  2.4625 -1.3247
  629MOL0     O82897   5.004   9.765   1.150  0.4595 -0.2531  0.3262
  629MOL0     C82898   5.056   9.784   1.041 -0.1553 -0.2687 -0.1200
  629MOL0     O82899   4.989   9.788   0.923 -0.1321  0.2530 -0.9261
  629MOL0     C82900   4.859   9.811   0.928  1.0075 -0.6174  0.5965
  629MOL0     C82901   4.767   9.715   0.895  0.4602  0.7114  0.1003
  629MOL0     C82902   4.626   9.745   0.896 -0.4306  0.0352 -0.4002
  629MOL0     C82903   4.591   9.870   0.943  0.1903  0.3702 -0.3669
  629MOL0     O82904   4.455   9.906   0.935  0.1893 -0.0220  0.5606
  629MOL0     C82905   4.362   9.817   1.008 -0.4231 -0.2224 -0.1264
  629MOL0     C82906   4.259   9.762   0.910  0.4608 -0.3872  0.4453
  629MOL0     C82907   4.171   9.668   0.987 -1.0067  0.5482 -0.3247
  629MOL0     C82908   4.026   9.686   0.921 -0.1697  0.1861 -0.0509
  629MOL0     C82909   3.926   9.582   0.983  0.7073 -0.2597 -0.4591
  629MOL0     C82910   3.779   9.593   0.920 -0.8981 -0.1516 -0.0305
  629MOL0     C82911   3.681   9.491   0.980 -1.1366  0.9806  0.2923
  629MOL0     C82912   3.541   9.546   0.967  0.3864 -0.3792  0.4607
  629MOL0     N82913   3.495   9.566   0.833  0.8044 -0.4447  0.3370
  629MOL0     C82914   3.479   9.680   0.756  0.2102 -0.2593 -0.2161
  629MOL0     C82915   3.470   9.644   0.626 -0.0527  0.5332 -0.5981
  629MOL0     C82916   3.447   9.738   0.505  0.2926  0.1034  0.0047
  629MOL0     C82917   3.293   9.754   0.484 -0.6155 -1.1536 -0.1442
  629MOL0     C82918   3.224   9.627   0.422 -0.2499 -0.6134 -0.5580
  629MOL0     C82919   3.076   9.647   0.389 -0.4042 -0.3956  0.3790
  629MOL0     O82920   3.002   9.706   0.501  0.2845 -0.0146  0.0514
  629MOL0     C82921   2.864   9.709   0.481 -0.3307 -0.6118  0.5777
  629MOL0     C82922   2.795   9.669   0.356 -0.0506  0.6325  0.2862
  629MOL0     C82923   2.654   9.682   0.343 -1.2628 -1.0039 -0.5871
  629MOL0     C82924   2.572   9.726   0.450 -0.2793 -0.0952  0.0252
  629MOL0     C82925   2.421   9.751   0.432 -0.4137 -0.9901 -0.0912
  629MOL0     O82926   2.371   9.704   0.314  0.0806  0.2355 -0.4640
  629MOL0     C82927   2.237   9.697   0.319  0.0541 -0.2334  0.3151
  629MOL0     C82928   2.167   9.776   0.231 -0.0017 -0.3357  0.0833
  629MOL0     C82929   2.025   9.791   0.237 -0.3640 -0.0726 -0.1942
  629MOL0     C82930   1.958   9.715   0.338 -0.4039 -0.2544 -0.3164
  629MOL0     O82931   1.824   9.716   0.328  0.4452 -0.1438  0.1305
  629MOL0     C82932   1.759   9.790   0.432  0.0616 -0.2974  0.5886
  629MOL0     C82933   1.618   9.824   0.401  0.5540 -0.2422  0.4453
  629MOL0     C82934   1.523   9.706   0.422 -0.1985 -0.4527  0.3608
  629MOL0     C82935   1.377   9.714   0.394  0.0993 -0.0689  0.0804
  629MOL0     C82936   1.318   9.575   0.421  0.6380  0.3752 -0.2977
  629MOL0     C82937   1.166   9.550   0.408 -0.7176 -0.3755  0.3860
  629MOL0     C82938   1.107   9.587   0.271 -0.2693 -0.0247  0.0194
  629MOL0     C82939   0.948   9.567   0.259  0.2079 -0.5918 -0.6652
  629MOL0    Cl82940   0.873   9.635   0.405 -0.0513  0.2962 -0.7326
  629MOL0     C82941   2.020   9.617   0.418 -0.2313  0.6653  0.0151
  629MOL0     C82942   2.160   9.616   0.410 -0.2326  1.0781  0.0781
  629MOL0     O82943   2.362   9.801   0.527  0.3821  0.1600 -0.0720
  629MOL0     C82944   2.634   9.764   0.573  0.0988  0.7436  0.2048
  629MOL0     C82945   2.779   9.768   0.580  0.1578 -0.0685 -0.6149
  629MOL0     N82946   3.470   9.508   0.626 -0.4974  0.3674  0.3254
  629MOL0     N82947   3.489   9.464   0.747  0.7982  0.5003  0.3856
  629MOL0     C82948   4.684   9.966   0.972  0.3766 -0.1547 -0.1730
  629MOL0     C82949   4.820   9.942   0.962  0.5696  0.5940  0.1892
  629MOL0     C82950   5.206   9.819   1.036 -0.6519 -0.0286 -0.1501
  629MOL0     C82951   5.278   9.808   1.162  0.5411 -0.8788  0.4738
  629MOL0     C82952   5.406   9.868   1.172  1.0311 -0.8790  0.8259
  629MOL0     C82953   5.469   9.925   1.059 -0.4464 -0.2565  0.3517
  629MOL0     O82954   5.589   9.992   1.066 -0.7673 -0.5045  0.1881
  629MOL0     C82955   5.670   9.992   1.184  0.4640 -0.3018 -0.2335
  629MOL0     C82956   5.802  10.072   1.161  0.0626 -0.2267 -0.1440
  629MOL0     C82957   5.858  10.049   1.017  0.4390 -0.1825  0.2587
  629MOL0     C82958   5.997  10.113   1.005  0.4067  0.5540  0.5776
  629MOL0     C82959   6.081  10.050   0.904 -0.3551 -0.7252  0.2533
  629MOL0     C82960   6.156  10.002   0.815  0.4958  0.9852  0.1164
  629MOL0     C82961   5.400   9.914   0.941 -0.2799  0.0220  0.8442
  629MOL0     C82962   5.270   9.863   0.925 -0.2864 -0.0262 -0.2874
  629MOL0     H82963   4.787   9.618   0.851  1.1238  0.2400  1.3738
  629MOL0     H82964   4.557   9.662   0.881 -2.3566  1.0135  2.2269
  629MOL0     H82965   4.307   9.861   1.092 -0.1409  0.8682 -0.5004
  629MOL0     H82966   4.416   9.730   1.047 -0.9769 -1.3650 -1.8109
  629MOL0     H82967   4.299   9.709   0.824  1.7412  1.5363 -0.2000
  629MOL0     H82968   4.207   9.853   0.880  1.4868 -0.1936 -0.8021
  629MOL0     H82969   4.173   9.687   1.095  2.1603  0.6508 -0.2966
  629MOL0     H82970   4.205   9.566   0.965  0.7487  1.3729 -1.6574
  629MOL0     H82971   3.978   9.779   0.949 -0.0979  0.2277 -0.0671
  629MOL0     H82972   4.023   9.678   0.811 -1.6651 -1.7974  0.0725
  629MOL0     H82973   3.920   9.585   1.092 -0.7666 -1.8903 -0.4545
  629MOL0     H82974   3.972   9.487   0.954  0.9178 -0.0591 -0.7845
  629MOL0     H82975   3.779   9.587   0.811  0.6580  2.4032 -0.2550
  629MOL0     H82976   3.750   9.694   0.951  1.4997  1.1756 -1.7222
  629MOL0     H82977   3.691   9.401   0.919 -1.8913 -0.0376  1.6178
  629MOL0     H82978   3.713   9.449   1.077 -2.4397 -0.9899 -0.0866
  629MOL0     H82979   3.530   9.638   1.026  0.2048 -0.9645  1.3687
  629MOL0     H82980   3.469   9.473   1.004  0.8982 -1.0566  0.1455
  629MOL0     H82981   3.486   9.786   0.777  4.3741  0.4074 -3.4596
  629MOL0     H82982   3.511   9.698   0.426  1.8786  0.2573  1.1602
  629MOL0     H82983   3.491   9.830   0.543  2.5718 -0.7108 -0.5024
  629MOL0     H82984   3.279   9.836   0.412 -2.9928  0.2839  1.7970
  629MOL0     H82985   3.249   9.796   0.575 -0.0984  4.3620 -2.0568
  629MOL0     H82986   3.280   9.590   0.336  0.9313  2.1465 -1.0566
  629MOL0     H82987   3.225   9.554   0.504 -1.7044 -0.3172 -0.2467
  629MOL0     H82988   3.040   9.549   0.357 -0.6177 -0.2315  0.1097
  629MOL0     H82989   3.068   9.715   0.303 -4.8203 -0.6012  0.4187
  629MOL0     H82990   2.854   9.636   0.271  0.7200  0.4804  0.8649
  629MOL0     H82991   2.601   9.630   0.264 -0.7965 -5.6378  1.8227
  629MOL0     H82992   2.218   9.835   0.155 -0.1441 -0.6509 -0.2575
  629MOL0     H82993   1.969   9.848   0.164  0.6363 -1.4988 -2.1601
  629MOL0     H82994   1.810   9.886   0.444  1.7342 -1.1881  0.8316
  629MOL0     H82995   1.766   9.732   0.525  2.2034 -1.6521 -0.3403
  629MOL0     H82996   1.601   9.863   0.300  0.6356 -0.6447  0.2739
  629MOL0     H82997   1.593   9.907   0.467  1.2503  0.2264  0.1310
  629MOL0     H82998   1.527   9.681   0.528  0.0116  1.9627  0.9842
  629MOL0     H82999   1.568   9.621   0.370  0.3224 -0.1913  0.3701
  629MOL0     H83000   1.342   9.785   0.469  4.4292  1.7925  0.6631
  629MOL0     H83001   1.355   9.730   0.288  1.3357 -0.3406 -0.2364
  629MOL0     H83002   1.353   9.540   0.519 -1.0612 -2.2658 -0.5264
  629MOL0     H83003   1.360   9.496   0.358  1.8277  0.5029  0.3103
  629MOL0     H83004   1.110   9.602   0.487 -1.6496  1.1051 -1.2015
  629MOL0     H83005   1.153   9.441   0.412  1.8422 -0.7853 -0.3348
  629MOL0     H83006   1.121   9.695   0.258 -0.4420  0.2511  1.9092
  629MOL0     H83007   1.161   9.526   0.198 -2.0628 -0.9092 -0.6385
  629MOL0     H83008   0.910   9.467   0.237  1.9279 -1.7027  1.0656
  629MOL0     H83009   0.915   9.631   0.177 -0.0195 -1.3014 -1.1333
  629MOL0     H83010   1.960   9.555   0.484  0.6584  0.4758  0.6783
  629MOL0     H83011   2.203   9.557   0.490 -2.4436 -1.8881 -0.7487
  629MOL0     H83012   2.580   9.791   0.662 -0.2655 -0.8935  0.5201
  629MOL0     H83013   2.830   9.798   0.671 -1.5742 -1.2489  0.8184
  629MOL0     H83014   4.633  10.058   0.998  1.6912  0.0830  1.8101
  629MOL0     H83015   4.887  10.016   1.003  1.0247 -1.7519  4.1602
  629MOL0     H83016   5.242   9.758   1.252  2.3153 -3.5348 -0.1822
  629MOL0     H83017   5.455   9.872   1.268  0.8836 -1.7084  0.9461
  629MOL0     H83018   5.699   9.891   1.215 -0.5342 -0.0213  1.7352
  629MOL0     H83019   5.605  10.032   1.262  1.2300 -0.1607  0.3387
  629MOL0     H83020   5.793  10.180   1.173 -2.2913 -0.1486 -1.9003
  629MOL0     H83021   5.881  10.039   1.229  3.0685 -0.6586 -3.4996
  629MOL0     H83022   5.789  10.103   0.952  1.6060 -1.4883 -2.2119
  629MOL0     H83023   5.852   9.944   0.985  3.1752 -0.0832 -0.8470
  629MOL0     H83024   5.980  10.219   0.983  1.3874  0.1090 -2.7628
  629MOL0     H83025   6.044  10.083   1.099 -0.6941 -0.7406  0.7448
  629MOL0     H83026   6.231   9.951   0.757  1.9301 -0.1910  2.8215
  629MOL0     H83027   5.444   9.976   0.863 -1.0596  2.4102  2.2046
  629MOL0     H83028   5.208   9.857   0.837 -1.6964 -2.6513  0.7598
  630MOL0     O83029   8.978   8.106   0.671 -0.7643  1.0883 -0.5450
  630MOL0     C83030   8.954   8.209   0.729 -0.4374  0.1586  0.0665
  630MOL0     O83031   8.856   8.298   0.707  0.1738  0.2013 -0.4345
  630MOL0     C83032   8.788   8.289   0.591  0.1256 -0.0326  0.4084
  630MOL0     C83033   8.823   8.350   0.472 -0.4364 -0.0267 -0.2992
  630MOL0     C83034   8.744   8.339   0.354 -0.1373  0.4304  0.1295
  630MOL0     C83035   8.629   8.251   0.350  0.7893  0.1542  0.6418
  630MOL0     O83036   8.548   8.222   0.242 -0.4524 -0.5079 -0.2970
  630MOL0     C83037   8.583   8.276   0.111  0.3632 -0.3610 -0.9687
  630MOL0     C83038   8.492   8.222   0.012  0.5004 -0.3356  0.1325
  630MOL0     C83039   8.339   8.262   0.025 -0.9720 -0.2280 -0.3746
  630MOL0     C83040   8.256   8.190  -0.077 -0.1007  0.1580  0.3429
  630MOL0     C83041   8.114   8.247  -0.080  0.4053  0.7692 -0.3005
  630MOL0     C83042   8.030   8.173  -0.180  1.3205 -0.2278 -0.5144
  630MOL0     C83043   7.879   8.196  -0.162 -0.0170 -1.1892 -0.4882
  630MOL0     C83044   7.792   8.095  -0.238  0.3790  0.0561 -0.2034
  630MOL0     N83045   7.651   8.137  -0.249  0.0900  0.4111 -0.2051
  630MOL0     C83046   7.581   8.148  -0.136  0.5642 -0.4311 -0.7474
  630MOL0     C83047   7.454   8.136  -0.169 -0.5190 -0.6704 -0.2671
  630MOL0     C83048   7.333   8.132  -0.076 -0.0273  0.0248  0.0184
  630MOL0     C83049   7.204   8.211  -0.131 -0.7480  0.0206  0.0457
  630MOL0     C83050   7.218   8.367  -0.149 -0.5401 -0.8708 -0.3268
  630MOL0     C83051   7.092   8.406  -0.216  0.1791  0.2338  0.9635
  630MOL0     O83052   7.100   8.378  -0.355  1.0564 -0.0189 -0.6116
  630MOL0     C83053   6.984   8.403  -0.426 -0.1972 -0.3238  0.9365
  630MOL0     C83054   6.859   8.455  -0.387 -0.4136 -0.5392  0.0066
  630MOL0     C83055   6.758   8.471  -0.484  0.5377 -0.6590 -0.7592
  630MOL0     C83056   6.770   8.427  -0.621 -0.5555  0.0121 -0.0080
  630MOL0     C83057   6.672   8.456  -0.729  0.1935  0.5615 -0.9447
  630MOL0     O83058   6.584   8.569  -0.713 -0.0778  0.7126  0.7436
  630MOL0     C83059   6.461   8.567  -0.778 -0.6912 -0.3935  0.7746
  630MOL0     C83060   6.346   8.479  -0.760 -1.3424  0.1011  0.4160
  630MOL0     C83061   6.238   8.483  -0.846 -0.3864 -0.2094 -0.2907
  630MOL0     C83062   6.246   8.577  -0.953  0.3363 -0.9557 -0.1671
  630MOL0     O83063   6.146   8.575  -1.041 -0.0143  0.5946  0.1597
  630MOL0     C83064   6.154   8.633  -1.170  0.7499 -0.5136  0.2526
  630MOL0     C83065   6.096   8.774  -1.174 -0.3238  0.9921  0.0491
  630MOL0     C83066   5.943   8.773  -1.171  0.0079  0.2878 -0.0315
  630MOL0     C83067   5.890   8.748  -1.036 -0.4817 -0.3131  0.2927
  630MOL0     C83068   5.742   8.737  -1.044  0.2757  0.6695 -0.5183
  630MOL0     C83069   5.668   8.856  -1.095 -0.1926 -0.6694 -0.0776
  630MOL0     C83070   5.526   8.873  -1.043  0.2330  0.3687  0.0885
  630MOL0     C83071   5.419   8.777  -1.099 -0.7887 -0.6860  0.1750
  630MOL0    Cl83072   5.430   8.782  -1.278 -0.0222  0.1752  0.1511
  630MOL0     C83073   6.349   8.670  -0.970  1.0085  0.4932 -0.1271
  630MOL0     C83074   6.455   8.667  -0.875 -0.2990 -0.1178  0.4165
  630MOL0     O83075   6.661   8.371  -0.820 -0.0434 -1.2088  0.3802
  630MOL0     C83076   6.892   8.375  -0.652  0.0438  0.0204  0.1954
  630MOL0     C83077   6.994   8.371  -0.568 -0.0428  0.4179 -0.1797
  630MOL0     N83078   7.450   8.112  -0.304  0.7236 -0.0644  0.4097
  630MOL0     N83079   7.570   8.111  -0.355  0.0597 -0.3297 -0.7690
  630MOL0     C83080   8.596   8.191   0.472 -0.9320  1.1017  0.8637
  630MOL0     C83081   8.674   8.204   0.589  0.4454 -0.6846 -0.2709
  630MOL0     C83082   9.033   8.237   0.850  0.9743 -0.3477 -0.3778
  630MOL0     C83083   9.018   8.360   0.922 -0.1121  0.4893 -0.2434
  630MOL0     C83084   9.103   8.400   1.030 -0.1230 -0.9985  0.1184
  630MOL0     C83085   9.193   8.308   1.087 -0.1917 -0.7220  0.4528
  630MOL0     O83086   9.268   8.345   1.199 -0.4299  0.4323  0.2347
  630MOL0     C83087   9.389   8.272   1.242 -0.3756 -0.6569 -0.2724
  630MOL0     C83088   9.513   8.287   1.144  0.4445  0.4098 -0.6001
  630MOL0     C83089   9.566   8.433   1.132  0.5754  1.1493 -0.0358
  630MOL0     C83090   9.638   8.473   1.257  0.1388 -0.7194  0.6548
  630MOL0     C83091   9.771   8.413   1.256  0.2222 -0.1474 -0.1422
  630MOL0     C83092   9.883   8.380   1.269  0.1895  0.4857 -0.0376
  630MOL0     C83093   9.209   8.187   1.016  0.0078  0.7994 -0.1052
  630MOL0     C83094   9.140   8.159   0.897 -0.1086 -0.2106  0.2677
  630MOL0     H83095   8.905   8.421   0.464 -0.6867  0.6605  2.3391
  630MOL0     H83096   8.778   8.384   0.261  2.4728 -0.1866  0.7076
  630MOL0     H83097   8.687   8.247   0.093  0.6815 -2.1859  2.8945
  630MOL0     H83098   8.568   8.384   0.117 -0.8964 -0.5942  1.4149
  630MOL0     H83099   8.500   8.114   0.029  0.3248 -0.0389  2.3843
  630MOL0     H83100   8.531   8.253  -0.086 -0.0503 -0.6250 -0.1803
  630MOL0     H83101   8.341   8.367  -0.004 -3.2377 -0.5847 -2.1364
  630MOL0     H83102   8.311   8.239   0.128  0.0331 -0.0360 -0.0510
  630MOL0     H83103   8.313   8.200  -0.170  0.8950  1.3068  1.0443
  630MOL0     H83104   8.255   8.085  -0.048 -0.7488 -0.0444 -0.3860
  630MOL0     H83105   8.115   8.354  -0.103 -2.2733  0.4478 -2.4724
  630MOL0     H83106   8.073   8.245   0.021  0.2739 -2.0156 -0.3433
  630MOL0     H83107   8.055   8.067  -0.168 -0.2083 -0.5495  0.0475
  630MOL0     H83108   8.065   8.192  -0.282  0.9447 -3.2838 -1.3083
  630MOL0     H83109   7.860   8.187  -0.054 -1.9130  1.1019 -0.5434
  630MOL0     H83110   7.856   8.297  -0.198 -2.6283 -2.3757 -2.4261
  630MOL0     H83111   7.803   7.991  -0.205  0.7916 -0.0556 -0.6795
  630MOL0     H83112   7.836   8.092  -0.338 -0.4643  2.4397 -0.6924
  630MOL0     H83113   7.615   8.171  -0.035 -1.7455 -0.2297  0.0668
  630MOL0     H83114   7.371   8.170   0.020  1.1940  0.4891 -0.6168
  630MOL0     H83115   7.308   8.026  -0.068  0.5598  0.0383  3.2066
  630MOL0     H83116   7.122   8.186  -0.063 -2.0076  3.1256 -0.1773
  630MOL0     H83117   7.180   8.164  -0.227 -1.1306  0.6910 -0.1949
  630MOL0     H83118   7.233   8.407  -0.049 -1.8403  0.0780 -0.4877
  630MOL0     H83119   7.302   8.388  -0.217 -0.4080  0.2570  0.1766
  630MOL0     H83120   7.068   8.510  -0.191 -1.6979 -0.5499  2.6775
  630MOL0     H83121   7.008   8.348  -0.176  1.3801 -1.3091  1.3501
  630MOL0     H83122   6.857   8.479  -0.281  0.6947 -0.4632  0.0218
  630MOL0     H83123   6.659   8.502  -0.451 -0.5308 -3.9378 -0.5267
  630MOL0     H83124   6.358   8.408  -0.678  0.6283  0.0157  0.1065
  630MOL0     H83125   6.149   8.423  -0.832  0.6249 -1.4243  1.2739
  630MOL0     H83126   6.093   8.570  -1.235 -1.1719  0.2147  1.2974
  630MOL0     H83127   6.258   8.639  -1.206  0.5094  3.5506 -0.1451
  630MOL0     H83128   6.142   8.820  -1.262  1.9799  0.7365  1.0518
  630MOL0     H83129   6.134   8.837  -1.093  1.8966  1.1955 -1.0682
  630MOL0     H83130   5.906   8.705  -1.249 -0.9844 -1.4752  1.8907
  630MOL0     H83131   5.919   8.877  -1.196 -1.4879  0.3978  1.6851
  630MOL0     H83132   5.939   8.660  -0.993  1.0894  2.2604  4.3080
  630MOL0     H83133   5.919   8.828  -0.968  1.3136 -0.3404 -0.3981
  630MOL0     H83134   5.701   8.714  -0.945 -1.6329  1.1320 -1.1522
  630MOL0     H83135   5.725   8.649  -1.107  0.5053  0.4698 -0.3027
  630MOL0     H83136   5.671   8.857  -1.205 -2.4981 -3.5676 -0.3120
  630MOL0     H83137   5.725   8.936  -1.048 -1.7736  1.2066 -1.2249
  630MOL0     H83138   5.541   8.871  -0.935 -1.1534  0.2813  0.2935
  630MOL0     H83139   5.494   8.976  -1.059 -0.7752 -0.1574 -1.4975
  630MOL0     H83140   5.313   8.791  -1.079 -0.7816  0.4546 -0.4713
  630MOL0     H83141   5.446   8.680  -1.057 -0.2540 -0.3632  0.5899
  630MOL0     H83142   6.345   8.746  -1.047 -0.0041  1.9898  1.3426
  630MOL0     H83143   6.529   8.745  -0.889 -2.7872  2.2029 -0.6102
  630MOL0     H83144   6.912   8.344  -0.754 -0.6511 -0.4558  0.1921
  630MOL0     H83145   7.092   8.336  -0.600 -0.4349 -0.7540 -0.1687
  630MOL0     H83146   8.511   8.126   0.460  1.6644 -2.0411 -3.1788
  630MOL0     H83147   8.656   8.158   0.686  2.2062 -1.6610 -0.3817
  630MOL0     H83148   8.956   8.439   0.878  0.2138 -1.2440 -4.2880
  630MOL0     H83149   9.088   8.501   1.066  1.3944 -0.7953  0.2500
  630MOL0     H83150   9.365   8.165   1.236 -1.1843 -0.4407 -1.3056
  630MOL0     H83151   9.416   8.290   1.346 -2.0026  2.0320 -0.2075
  630MOL0     H83152   9.587   8.215   1.179 -1.5696 -0.6254  1.8366
  630MOL0     H83153   9.485   8.259   1.042  0.0735 -1.2867 -0.0606
  630MOL0     H83154   9.482   8.499   1.109  0.8928  1.8123  0.6940
  630MOL0     H83155   9.635   8.439   1.047  1.0643 -0.7698  0.1833
  630MOL0     H83156   9.650   8.582   1.249  0.5732 -0.5763  2.7592
  630MOL0     H83157   9.573   8.455   1.343 -3.0062 -2.4566 -1.8589
  630MOL0     H83158   9.986   8.349   1.276  0.1119  0.4754  1.3898
  630MOL0     H83159   9.280   8.112   1.050 -2.2016 -1.3800 -0.0251
  630MOL0     H83160   9.180   8.071   0.847 -0.0022 -1.3650  2.2899
  631MOL0     O83161   1.086   3.170   0.701  0.4302  0.6236  0.1320
  631MOL0     C83162   1.104   3.054   0.650  0.1064  0.4046 -0.7160
  631MOL0     O83163   0.998   2.974   0.609 -0.1524  0.6199 -0.5244
  631MOL0     C83164   0.874   3.023   0.588  0.8090 -1.0683 -0.1741
  631MOL0     C83165   0.841   3.162   0.581 -0.4731  1.1036  0.1730
  631MOL0     C83166   0.706   3.204   0.574 -0.8067 -0.4681 -0.6395
  631MOL0     C83167   0.604   3.109   0.583 -0.1253  0.1270  0.0483
  631MOL0     O83168   0.469   3.133   0.568 -0.2374  0.1973  0.4872
  631MOL0     C83169   0.421   3.238   0.661  0.0483 -0.2712  0.3391
  631MOL0     C83170   0.308   3.324   0.601 -0.1000  0.3046  0.6538
  631MOL0     C83171   0.208   3.244   0.515  0.3267 -0.7007 -0.2451
  631MOL0     C83172   0.055   3.259   0.571 -0.8403  0.7716  0.1453
  631MOL0     C83173  -0.044   3.158   0.517  0.0338  0.2083  0.9893
  631MOL0     C83174  -0.179   3.164   0.590 -0.9363 -0.1377 -0.1801
  631MOL0     C83175  -0.242   3.035   0.549 -0.3215  0.0554  1.0975
  631MOL0     C83176  -0.394   3.025   0.606 -0.3804  0.1469  0.5215
  631MOL0     N83177  -0.472   2.902   0.580 -0.4693  0.1203  0.0283
  631MOL0     C83178  -0.469   2.836   0.461 -0.0279 -0.1388 -0.1127
  631MOL0     C83179  -0.562   2.737   0.475 -0.1184  0.1577 -0.6951
  631MOL0     C83180  -0.615   2.650   0.363  1.3858 -0.6825 -0.8657
  631MOL0     C83181  -0.770   2.665   0.341  0.0022 -0.3644 -0.3151
  631MOL0     C83182  -0.817   2.539   0.267  1.0240 -0.5037 -0.0006
  631MOL0     C83183  -0.972   2.540   0.292 -0.6595 -0.0463  0.4760
  631MOL0     O83184  -1.020   2.431   0.214 -0.4527  0.6919  1.0912
  631MOL0     C83185  -1.145   2.381   0.231  0.2351 -0.0173  0.1136
  631MOL0     C83186  -1.177   2.251   0.205  0.1224  0.9463  1.2294
  631MOL0     C83187  -1.305   2.193   0.236  0.3164 -0.3023  0.7612
  631MOL0     C83188  -1.415   2.282   0.272 -0.9910  0.7582 -0.6090
  631MOL0     C83189  -1.552   2.240   0.268  0.5675 -0.3058 -0.1202
  631MOL0     O83190  -1.586   2.120   0.325  0.2268 -0.7558 -0.1590
  631MOL0     C83191  -1.715   2.091   0.354  0.0453  0.1211  0.9918
  631MOL0     C83192  -1.730   1.989   0.442 -1.3939 -0.4258 -0.3247
  631MOL0     C83193  -1.859   1.941   0.465 -0.4782  0.2683 -0.5861
  631MOL0     C83194  -1.971   1.984   0.395 -0.0791 -0.3132 -0.2950
  631MOL0     O83195  -2.083   1.909   0.406 -0.6879  0.0102 -0.0888
  631MOL0     C83196  -2.157   1.884   0.282  0.3938  0.5737 -0.2786
  631MOL0     C83197  -2.259   1.779   0.325  0.8850  0.0586 -0.3626
  631MOL0     C83198  -2.353   1.818   0.449  1.4611 -0.5369 -0.2162
  631MOL0     C83199  -2.429   1.698   0.485  0.0594  0.0107  0.2667
  631MOL0     C83200  -2.551   1.724   0.572 -0.2910  0.2983 -0.4645
  631MOL0     C83201  -2.626   1.582   0.601  0.0041 -0.5216  0.0823
  631MOL0     C83202  -2.764   1.603   0.660  0.3324  0.2315  0.4808
  631MOL0     C83203  -2.843   1.465   0.670  0.9657  0.3042 -0.0186
  631MOL0    Cl83204  -2.756   1.349   0.760 -0.2879  0.1352 -0.2824
  631MOL0     C83205  -1.949   2.090   0.318  0.2517  0.7965 -0.0014
  631MOL0     C83206  -1.833   2.148   0.296 -0.6592  0.3177  0.2663
  631MOL0     O83207  -1.627   2.324   0.222  0.0805 -0.3120 -0.3217
  631MOL0     C83208  -1.381   2.418   0.305 -0.3572  0.4030  0.2359
  631MOL0     C83209  -1.246   2.463   0.290 -0.0208 -0.7262  0.4574
  631MOL0     N83210  -0.608   2.738   0.603  0.3924 -0.5588  0.1920
  631MOL0     N83211  -0.559   2.845   0.667  0.0331 -0.5210  0.0877
  631MOL0     C83212   0.638   2.974   0.596 -0.8096 -0.1207 -0.2038
  631MOL0     C83213   0.770   2.930   0.607 -0.4288 -0.3037 -0.4083
  631MOL0     C83214   1.234   2.987   0.644 -0.6346 -0.2367 -0.1537
  631MOL0     C83215   1.333   3.075   0.681  0.2233  0.6320 -0.6558
  631MOL0     C83216   1.467   3.029   0.680 -0.4221  0.7253  0.1357
  631MOL0     C83217   1.497   2.895   0.656 -0.2581 -0.0046  0.7355
  631MOL0     O83218   1.631   2.856   0.678  0.2205  0.1335  0.2860
  631MOL0     C83219   1.663   2.715   0.691  0.8588 -0.2990  0.2770
  631MOL0     C83220   1.812   2.691   0.732  0.4704 -0.4670 -0.8196
  631MOL0     C83221   1.915   2.753   0.636  0.1607  0.3037  0.0280
  631MOL0     C83222   2.047   2.778   0.711  0.6640  0.7652  0.3422
  631MOL0     C83223   2.099   2.642   0.755 -0.5266 -0.5078 -0.8295
  631MOL0     C83224   2.161   2.540   0.778 -0.5002 -0.1983  0.7221
  631MOL0     C83225   1.399   2.808   0.605  0.0753  0.7945  0.1458
  631MOL0     C83226   1.264   2.853   0.608  0.2096 -0.7045  0.7103
  631MOL0     H83227   0.922   3.234   0.579  1.6301 -1.0086  2.7610
  631MOL0     H83228   0.683   3.309   0.558 -0.5980 -0.4562 -0.8749
  631MOL0     H83229   0.499   3.311   0.685 -3.5519  4.4754 -0.7996
  631MOL0     H83230   0.386   3.187   0.751 -0.6958  1.0102  0.8004
  631MOL0     H83231   0.355   3.388   0.525 -0.9783  1.3236  0.9453
  631MOL0     H83232   0.258   3.389   0.674  2.0113 -0.8211  3.2692
  631MOL0     H83233   0.240   3.139   0.514 -1.0554 -1.1492 -1.9395
  631MOL0     H83234   0.198   3.282   0.413 -2.1515  1.0180  0.5465
  631MOL0     H83235   0.060   3.243   0.679 -1.1995 -1.1845 -0.0884
  631MOL0     H83236   0.025   3.362   0.548 -0.3355  0.9259  0.1621
  631MOL0     H83237  -0.003   3.057   0.529  1.5191  0.2155 -2.8061
  631MOL0     H83238  -0.054   3.169   0.409 -0.5070 -1.2764  0.8680
  631MOL0     H83239  -0.239   3.246   0.550 -2.2850 -0.7307  0.5295
  631MOL0     H83240  -0.164   3.167   0.699 -2.1043  0.8014 -0.0304
  631MOL0     H83241  -0.240   3.021   0.441  0.5338  3.8676  0.4789
  631MOL0     H83242  -0.186   2.946   0.580 -2.5003 -2.5794 -1.9431
  631MOL0     H83243  -0.453   3.102   0.555  0.5573 -0.7135 -2.0073
  631MOL0     H83244  -0.397   3.042   0.714 -0.2930  0.5508  0.4604
  631MOL0     H83245  -0.416   2.862   0.369  1.1950 -0.5253  0.4541
  631MOL0     H83246  -0.590   2.551   0.404 -0.0395 -0.0107  1.8081
  631MOL0     H83247  -0.572   2.663   0.263  1.9911  3.0068 -0.2472
  631MOL0     H83248  -0.785   2.762   0.292  1.5483 -0.5090 -1.1416
  631MOL0     H83249  -0.814   2.672   0.440  2.3891 -0.2140  0.8026
  631MOL0     H83250  -0.777   2.553   0.166  0.1013  1.3256 -0.1622
  631MOL0     H83251  -0.770   2.449   0.307  1.9269  0.5687  1.4524
  631MOL0     H83252  -1.017   2.637   0.269  1.0840  0.6718 -0.0508
  631MOL0     H83253  -0.993   2.525   0.398 -1.2943  2.1831  0.7277
  631MOL0     H83254  -1.113   2.177   0.159 -1.6335 -1.7138  2.8389
  631MOL0     H83255  -1.337   2.090   0.228 -1.0911  0.1151  0.6733
  631MOL0     H83256  -1.645   1.947   0.496 -1.2543  1.3418  0.9504
  631MOL0     H83257  -1.864   1.863   0.539  0.1156  1.0360  0.2823
  631MOL0     H83258  -2.087   1.858   0.202  1.5157  1.6811  0.3163
  631MOL0     H83259  -2.198   1.980   0.249  1.0718  0.2971 -2.0019
  631MOL0     H83260  -2.207   1.687   0.352 -0.9401 -0.9385 -0.0557
  631MOL0     H83261  -2.320   1.753   0.238  0.0681  3.7704 -1.0650
  631MOL0     H83262  -2.429   1.883   0.404  1.2640  0.7267  1.8472
  631MOL0     H83263  -2.301   1.854   0.538  0.6070 -0.6011  0.3130
  631MOL0     H83264  -2.468   1.665   0.388  2.2119 -0.4768 -0.5064
  631MOL0     H83265  -2.371   1.615   0.526 -1.1962 -0.6836  0.6926
  631MOL0     H83266  -2.620   1.795   0.526 -1.7407  0.2965  1.5747
  631MOL0     H83267  -2.518   1.776   0.663  2.8756  0.5437 -1.6127
  631MOL0     H83268  -2.559   1.538   0.675  1.6683  0.6737 -0.6270
  631MOL0     H83269  -2.624   1.522   0.510  1.5172 -4.5834  2.5495
  631MOL0     H83270  -2.750   1.648   0.758 -0.3726  1.0655  0.2114
  631MOL0     H83271  -2.822   1.672   0.598 -0.4849  1.3068  2.3554
  631MOL0     H83272  -2.865   1.419   0.573 -3.4897  3.4913 -0.8045
  631MOL0     H83273  -2.943   1.482   0.710  1.1532  2.5397 -0.3727
  631MOL0     H83274  -2.045   2.114   0.272 -1.3023 -0.7594  2.1915
  631MOL0     H83275  -1.830   2.224   0.218 -3.4625  0.7359  0.4840
  631MOL0     H83276  -1.451   2.496   0.331 -1.1794 -0.5521  0.9693
  631MOL0     H83277  -1.221   2.566   0.313 -0.6556 -0.7157  1.1554
  631MOL0     H83278   0.555   2.904   0.593 -1.8447  1.0630 -0.5880
  631MOL0     H83279   0.806   2.829   0.626 -1.0563 -0.6041 -0.7847
  631MOL0     H83280   1.322   3.179   0.709  0.3157  0.4055  0.2480
  631MOL0     H83281   1.558   3.088   0.688 -0.7029  1.8471 -3.1322
  631MOL0     H83282   1.653   2.660   0.597  4.5189  1.5644 -1.4060
  631MOL0     H83283   1.590   2.669   0.758  1.2368 -1.2837  0.0283
  631MOL0     H83284   1.830   2.717   0.837 -0.3488  0.2285 -0.8471
  631MOL0     H83285   1.818   2.581   0.733 -1.7726 -0.6286 -0.9759
  631MOL0     H83286   1.868   2.846   0.605 -0.2738  0.1824  0.3151
  631MOL0     H83287   1.933   2.692   0.547  2.4522 -0.7245  1.1161
  631MOL0     H83288   2.120   2.818   0.640 -1.5313  3.0595 -0.8260
  631MOL0     H83289   2.038   2.855   0.788  1.4296 -0.3230  1.5512
  631MOL0     H83290   2.197   2.441   0.798 -1.7248 -1.0311 -1.0066
  631MOL0     H83291   1.430   2.712   0.564  1.5236  0.2694  2.3036
  631MOL0     H83292   1.184   2.799   0.557  1.2414 -0.6234 -1.0645
  632MOL0     O83293   7.449   8.745   1.906 -0.8553 -0.2381 -0.1009
  632MOL0     C83294   7.536   8.835   1.911 -0.4712 -0.2413  0.5452
  632MOL0     O83295   7.613   8.871   1.812  0.1274  0.3887 -0.3178
  632MOL0     C83296   7.605   8.797   1.687  0.8190 -0.2300  0.6879
  632MOL0     C83297   7.689   8.689   1.659  0.5703 -0.2607  0.3336
  632MOL0     C83298   7.674   8.628   1.535  0.1466 -0.0411 -0.5499
  632MOL0     C83299   7.577   8.665   1.443 -0.7849  0.3045  0.4874
  632MOL0     O83300   7.582   8.598   1.321  0.5398  0.7780 -0.0791
  632MOL0     C83301   7.462   8.620   1.234 -0.1064 -0.2816 -0.1273
  632MOL0     C83302   7.428   8.490   1.151  0.5305 -0.2405  0.4666
  632MOL0     C83303   7.388   8.372   1.241 -0.4200 -0.2324  0.2837
  632MOL0     C83304   7.257   8.378   1.323 -0.0397 -0.3276 -0.1830
  632MOL0     C83305   7.212   8.251   1.395  0.7231 -0.3610 -0.5973
  632MOL0     C83306   7.174   8.140   1.305  0.9065 -0.0124 -0.0706
  632MOL0     C83307   7.120   8.011   1.364 -0.3714  0.3084  0.3801
  632MOL0     C83308   6.985   8.033   1.438 -0.5019  0.5778 -0.0632
  632MOL0     N83309   6.877   8.070   1.349  0.9040 -0.3708  0.5029
  632MOL0     C83310   6.813   7.976   1.263 -0.2505 -0.6155 -0.4078
  632MOL0     C83311   6.699   8.040   1.232  0.4334  0.3684 -0.7176
  632MOL0     C83312   6.591   7.984   1.145  0.1911 -0.4228  0.7801
  632MOL0     C83313   6.523   7.854   1.193  0.1191 -0.0661 -0.4111
  632MOL0     C83314   6.444   7.858   1.328  0.1944  1.4385  0.3615
  632MOL0     C83315   6.350   7.980   1.333  0.5116  0.1605  0.7670
  632MOL0     O83316   6.243   7.955   1.423 -0.2137  0.4815  0.0850
  632MOL0     C83317   6.124   7.901   1.378  0.4600 -1.1157  0.0678
  632MOL0     C83318   6.031   7.894   1.476 -0.5718  0.4252  0.3318
  632MOL0     C83319   5.900   7.852   1.446  0.4997  0.5127  0.7910
  632MOL0     C83320   5.862   7.804   1.317 -1.0765 -0.6158 -0.0796
  632MOL0     C83321   5.726   7.763   1.277  0.2170  0.4122  0.1955
  632MOL0     O83322   5.626   7.792   1.369 -0.1802  0.0561 -0.6755
  632MOL0     C83323   5.499   7.753   1.341 -0.4875  0.4049  0.3029
  632MOL0     C83324   5.397   7.843   1.315 -0.8954  0.1626  0.2340
  632MOL0     C83325   5.272   7.801   1.283  0.4814 -0.0319 -0.1554
  632MOL0     C83326   5.243   7.669   1.293  0.1568  0.2732  1.1076
  632MOL0     O83327   5.120   7.606   1.279  0.1849  0.2858 -0.1009
  632MOL0     C83328   5.023   7.670   1.198 -0.3182 -0.0104  0.2779
  632MOL0     C83329   4.884   7.600   1.220 -0.1517  0.0056 -1.3052
  632MOL0     C83330   4.770   7.692   1.176 -0.6118 -0.0001  0.2027
  632MOL0     C83331   4.643   7.624   1.211 -0.2331 -0.1223  0.2236
  632MOL0     C83332   4.520   7.705   1.185 -0.0703 -0.8192  0.0582
  632MOL0     C83333   4.405   7.667   1.288  0.4275  0.4184 -0.1320
  632MOL0     C83334   4.362   7.518   1.281 -0.5400  0.3384  0.6493
  632MOL0     C83335   4.216   7.504   1.248  0.4842 -0.5479 -0.2960
  632MOL0    Cl83336   4.180   7.541   1.074 -0.0801 -0.4025 -0.0905
  632MOL0     C83337   5.342   7.576   1.315  0.1709 -0.0838  0.4849
  632MOL0     C83338   5.477   7.617   1.342 -0.5211 -0.3069  0.1721
  632MOL0     O83339   5.709   7.714   1.162 -0.0206  0.0654 -0.0510
  632MOL0     C83340   5.968   7.796   1.220 -0.1297  0.0280  0.4137
  632MOL0     C83341   6.097   7.848   1.250 -0.3985 -0.8052  0.1105
  632MOL0     N83342   6.685   8.155   1.306  0.0444 -0.4567 -0.1645
  632MOL0     N83343   6.791   8.172   1.376  0.9889 -0.0570  0.2309
  632MOL0     C83344   7.490   8.775   1.479 -0.2103  0.1360  0.0452
  632MOL0     C83345   7.506   8.842   1.600 -0.4572  0.2070  1.4294
  632MOL0     C83346   7.555   8.903   2.038  0.0681 -0.2920 -0.2088
  632MOL0     C83347   7.449   8.885   2.135 -0.2405 -0.3813  0.1431
  632MOL0     C83348   7.460   8.942   2.256 -0.0578 -0.2054 -0.5068
  632MOL0     C83349   7.573   9.015   2.296  0.0498  0.3647  0.3282
  632MOL0     O83350   7.579   9.075   2.416 -0.3345 -0.1814  0.0640
  632MOL0     C83351   7.494   9.043   2.536 -0.7809 -0.4705  0.2238
  632MOL0     C83352   7.551   8.923   2.614 -0.2805  0.2998 -0.2311
  632MOL0     C83353   7.464   8.886   2.735  0.7700 -0.1208  0.7276
  632MOL0     C83354   7.488   8.755   2.802 -0.1320 -0.1348 -0.8516
  632MOL0     C83355   7.620   8.756   2.861 -0.7675 -0.4626  0.3486
  632MOL0     C83356   7.733   8.779   2.902  0.2553 -0.2185 -0.4447
  632MOL0     C83357   7.680   9.026   2.204 -0.2802 -0.2128 -0.0185
  632MOL0     C83358   7.666   8.982   2.072 -0.8438  0.2211 -1.3682
  632MOL0     H83359   7.758   8.651   1.734  2.1763  1.1453 -0.3742
  632MOL0     H83360   7.737   8.542   1.513 -0.4842 -0.7123  0.2028
  632MOL0     H83361   7.480   8.702   1.164 -2.3466 -1.0424 -1.6993
  632MOL0     H83362   7.371   8.639   1.291 -1.2721 -3.7283 -0.5974
  632MOL0     H83363   7.506   8.468   1.078 -0.2848 -1.2169 -0.1458
  632MOL0     H83364   7.347   8.513   1.080  2.3798 -0.1001 -1.7271
  632MOL0     H83365   7.469   8.339   1.307 -0.7770  1.2794  1.5609
  632MOL0     H83366   7.373   8.288   1.173  0.2101 -0.0416 -0.1008
  632MOL0     H83367   7.269   8.456   1.399 -2.5614  0.1355 -0.1803
  632MOL0     H83368   7.172   8.418   1.267 -0.2288  1.6231  1.3774
  632MOL0     H83369   7.118   8.280   1.441  0.8926 -0.3925 -0.2315
  632MOL0     H83370   7.282   8.221   1.473  2.0999 -2.9842 -2.6468
  632MOL0     H83371   7.254   8.107   1.237 -1.5682 -1.1386 -2.6328
  632MOL0     H83372   7.094   8.173   1.238 -0.3679 -0.2013  1.3131
  632MOL0     H83373   7.117   7.944   1.278  0.5425  2.7451 -1.6767
  632MOL0     H83374   7.185   7.971   1.443  0.6976  2.3745  0.6206
  632MOL0     H83375   6.997   8.117   1.508 -0.6671  0.8721 -0.3859
  632MOL0     H83376   6.955   7.943   1.492  0.4974  2.4941  4.1403
  632MOL0     H83377   6.846   7.877   1.232 -0.6259 -0.6247 -0.7918
  632MOL0     H83378   6.633   7.970   1.044 -0.9265 -1.2980  0.4127
  632MOL0     H83379   6.511   8.057   1.131 -1.1205 -1.3689  2.8049
  632MOL0     H83380   6.604   7.784   1.218  2.3001  2.0561 -1.1786
  632MOL0     H83381   6.459   7.816   1.113 -0.6528  1.7406 -0.7045
  632MOL0     H83382   6.381   7.770   1.341 -1.9103  2.7496 -0.3820
  632MOL0     H83383   6.516   7.877   1.407 -1.1364 -0.7231  2.2072
  632MOL0     H83384   6.309   8.005   1.235 -0.0043  0.0098  0.9410
  632MOL0     H83385   6.411   8.061   1.374  0.4374  2.5168 -3.2840
  632MOL0     H83386   6.053   7.951   1.565  2.0466  1.3850 -0.8173
  632MOL0     H83387   5.820   7.869   1.518  1.0495  0.8571  1.3295
  632MOL0     H83388   5.412   7.950   1.327 -1.4061  0.2903 -0.2238
  632MOL0     H83389   5.197   7.879   1.278 -0.4131 -0.7596  1.1991
  632MOL0     H83390   5.044   7.647   1.093 -1.6587 -1.5582  0.3055
  632MOL0     H83391   5.016   7.779   1.208  0.9338  0.2220 -1.0190
  632MOL0     H83392   4.867   7.579   1.326 -0.1011  1.7638 -0.9234
  632MOL0     H83393   4.883   7.504   1.168  2.0256 -0.2328 -1.0137
  632MOL0     H83394   4.770   7.708   1.068 -1.7716  2.2475  0.4885
  632MOL0     H83395   4.782   7.788   1.227  0.2052 -0.5754  1.1248
  632MOL0     H83396   4.629   7.527   1.164 -2.6967 -1.0261  2.5791
  632MOL0     H83397   4.640   7.601   1.318  0.1965 -1.2469  0.0012
  632MOL0     H83398   4.489   7.682   1.083 -0.2639 -0.8451  0.1237
  632MOL0     H83399   4.549   7.809   1.200 -0.9139 -0.3881 -1.1114
  632MOL0     H83400   4.309   7.717   1.272 -0.2094 -0.5855  0.4931
  632MOL0     H83401   4.444   7.691   1.388  3.3550  0.3178 -1.1500
  632MOL0     H83402   4.415   7.469   1.200  0.6623  0.0818  1.5647
  632MOL0     H83403   4.372   7.482   1.384  0.3113  1.6616  1.0636
  632MOL0     H83404   4.160   7.571   1.313 -0.7567 -0.8787 -0.9924
  632MOL0     H83405   4.182   7.404   1.276 -1.6690  0.1943 -0.0397
  632MOL0     H83406   5.320   7.470   1.319  1.6001 -0.3964  0.7688
  632MOL0     H83407   5.549   7.538   1.361  0.6941  0.7589  0.1821
  632MOL0     H83408   5.956   7.754   1.121 -1.5757 -1.1735  1.0512
  632MOL0     H83409   6.173   7.842   1.172 -0.1532 -0.0252  0.2773
  632MOL0     H83410   7.413   8.810   1.411 -0.6693 -0.9571 -0.0324
  632MOL0     H83411   7.435   8.922   1.618 -0.9122  0.4351 -1.0197
  632MOL0     H83412   7.362   8.821   2.122 -0.7146 -0.0677  1.5839
  632MOL0     H83413   7.369   8.936   2.314 -1.1709  2.0596 -1.8866
  632MOL0     H83414   7.391   9.019   2.507 -0.4713 -0.5678 -0.8713
  632MOL0     H83415   7.489   9.133   2.597 -0.5039  1.3796 -2.2909
  632MOL0     H83416   7.557   8.842   2.540 -2.4012  1.2295 -1.4944
  632MOL0     H83417   7.655   8.938   2.644 -0.8171 -0.4942  2.2682
  632MOL0     H83418   7.364   8.882   2.691  0.6856 -0.5122  0.9454
  632MOL0     H83419   7.461   8.969   2.805 -0.0402  0.4895 -0.0068
  632MOL0     H83420   7.415   8.733   2.881 -0.7812  2.3158 -0.6872
  632MOL0     H83421   7.496   8.675   2.727 -0.7969 -0.1972 -0.8610
  632MOL0     H83422   7.830   8.810   2.934 -0.7207  0.2842  2.2961
  632MOL0     H83423   7.769   9.084   2.224 -0.8717  0.1710  1.6627
  632MOL0     H83424   7.747   9.006   2.003  0.4245  2.9847  0.8637
  633MOL0     O83425   4.925   5.907   7.421  0.3350  0.6877  0.2042
  633MOL0     C83426   4.973   5.892   7.310 -0.0015  0.0960  0.3047
  633MOL0     O83427   4.897   5.877   7.200 -0.2549  0.0218 -0.0964
  633MOL0     C83428   4.765   5.868   7.195  0.2100 -0.2614 -1.0583
  633MOL0     C83429   4.716   5.890   7.065 -0.3246 -0.6145 -0.4042
  633MOL0     C83430   4.573   5.879   7.035  0.1632 -0.2805 -0.2699
  633MOL0     C83431   4.487   5.866   7.145 -0.3572  0.2258  0.3246
  633MOL0     O83432   4.347   5.879   7.142  0.6939  0.7623  0.1221
  633MOL0     C83433   4.291   5.905   7.011 -0.2985 -0.2458  0.2100
  633MOL0     C83434   4.140   5.931   7.018  0.0282  0.2992 -0.1793
  633MOL0     C83435   4.086   5.964   6.885  1.4710 -0.1326 -0.0542
  633MOL0     C83436   3.938   5.985   6.890  0.1730 -0.5804 -0.8015
  633MOL0     C83437   3.867   6.030   6.763 -0.1270 -0.4080  0.4544
  633MOL0     C83438   3.713   6.042   6.799 -0.5365 -1.4843 -0.1062
  633MOL0     C83439   3.625   6.077   6.678 -0.5934  0.2738 -0.0854
  633MOL0     C83440   3.481   6.077   6.711 -0.0736 -0.0692  0.1679
  633MOL0     N83441   3.399   6.092   6.585  0.0736 -0.5537 -0.2963
  633MOL0     C83442   3.318   6.206   6.557 -0.6759  0.0311  0.4022
  633MOL0     C83443   3.270   6.185   6.431 -0.8259 -0.5915 -0.0573
  633MOL0     C83444   3.165   6.266   6.348  0.0194  1.3451 -0.0890
  633MOL0     C83445   3.028   6.249   6.427 -0.0883  0.2079 -0.2247
  633MOL0     C83446   2.907   6.287   6.342  0.4570  0.6801  1.3265
  633MOL0     C83447   2.937   6.419   6.261  0.2825 -0.0216  0.2949
  633MOL0     O83448   2.835   6.445   6.159  0.7599  1.1699  0.3475
  633MOL0     C83449   2.712   6.508   6.191 -1.0470 -0.0967  0.6911
  633MOL0     C83450   2.672   6.535   6.321 -0.3900  0.0017  0.0404
  633MOL0     C83451   2.547   6.596   6.347  0.5092  0.6596  0.6423
  633MOL0     C83452   2.459   6.617   6.237 -0.2261  0.2326 -0.2342
  633MOL0     C83453   2.311   6.639   6.254  0.3041 -1.0317 -0.3692
  633MOL0     O83454   2.258   6.602   6.384  0.3417  0.1428 -0.4642
  633MOL0     C83455   2.125   6.629   6.396  0.8633  0.6201  0.4536
  633MOL0     C83456   2.073   6.762   6.417 -0.3902  0.2379 -0.1935
  633MOL0     C83457   1.940   6.782   6.445 -0.2929 -0.4744  0.4849
  633MOL0     C83458   1.847   6.674   6.443 -0.6448  0.8613 -0.4906
  633MOL0     O83459   1.726   6.722   6.470  0.0908 -0.2060 -0.3276
  633MOL0     C83460   1.623   6.630   6.492 -0.2967 -0.3566 -0.2625
  633MOL0     C83461   1.498   6.700   6.548 -0.3174 -0.1325 -0.0996
  633MOL0     C83462   1.458   6.819   6.453 -0.2964 -0.1646  0.0583
  633MOL0     C83463   1.318   6.870   6.483 -0.0162 -0.3151  0.1346
  633MOL0     C83464   1.268   6.957   6.373 -0.3144  0.2573  0.4961
  633MOL0     C83465   1.368   7.075   6.336  0.8151  0.0833 -0.2377
  633MOL0     C83466   1.293   7.187   6.268  0.4257  0.1597 -0.2317
  633MOL0     C83467   1.281   7.154   6.129  0.3160 -0.7575 -0.0760
  633MOL0    Cl83468   1.235   7.297   6.035  0.0288  0.1200  0.2327
  633MOL0     C83469   1.901   6.547   6.412  0.4327 -0.1177 -0.3256
  633MOL0     C83470   2.037   6.524   6.393 -0.3212 -0.5240 -0.7149
  633MOL0     O83471   2.245   6.686   6.155  0.1142  0.1279 -0.0245
  633MOL0     C83472   2.499   6.589   6.101 -0.1872  0.4525  0.0971
  633MOL0     C83473   2.624   6.528   6.081  0.0463  0.8662  0.0154
  633MOL0     N83474   3.311   6.062   6.387 -0.3199  0.6500  0.0955
  633MOL0     N83475   3.386   6.007   6.478  0.3344  0.1190  0.1254
  633MOL0     C83476   4.539   5.824   7.270  0.3803 -0.4992  0.2328
  633MOL0     C83477   4.673   5.830   7.295 -0.2168  0.5325 -0.8100
  633MOL0     C83478   5.122   5.904   7.289 -0.7212 -0.3437 -0.8729
  633MOL0     C83479   5.197   5.918   7.396 -1.0272  0.3470 -0.2059
  633MOL0     C83480   5.331   5.913   7.392 -0.8883  0.1238 -0.6346
  633MOL0     C83481   5.394   5.899   7.265  0.1974 -0.4063  0.7223
  633MOL0     O83482   5.529   5.894   7.246  0.0676 -0.1767  0.3625
  633MOL0     C83483   5.613   5.907   7.365  0.2050 -0.4804  0.5550
  633MOL0     C83484   5.757   5.885   7.334  0.4932 -0.2698  0.3670
  633MOL0     C83485   5.846   5.933   7.444  0.0950  0.9057 -0.0373
  633MOL0     C83486   5.985   5.878   7.431 -1.2328  0.5436  0.4900
  633MOL0     C83487   6.058   5.938   7.546  0.0498 -0.4179  0.7257
  633MOL0     C83488   6.098   5.982   7.651 -0.1044 -0.0605 -0.2427
  633MOL0     C83489   5.317   5.876   7.153 -0.2218 -0.2980  0.0978
  633MOL0     C83490   5.182   5.884   7.162  0.9638 -0.0230 -0.1423
  633MOL0     H83491   4.787   5.896   6.984 -0.6746  1.6915 -0.6270
  633MOL0     H83492   4.533   5.883   6.934  0.5792  0.6653 -0.4116
  633MOL0     H83493   4.303   5.832   6.931  0.8817 -0.8405  0.9060
  633MOL0     H83494   4.335   5.996   6.968 -1.3033 -0.5651 -1.6024
  633MOL0     H83495   4.126   6.020   7.081  1.3146  0.1450  0.3584
  633MOL0     H83496   4.089   5.847   7.065  2.6307 -0.7447  0.9784
  633MOL0     H83497   4.113   5.888   6.811 -0.4934  0.1582 -1.1480
  633MOL0     H83498   4.127   6.063   6.865 -0.3030  0.7288  0.3147
  633MOL0     H83499   3.901   5.889   6.929 -1.1503 -0.0002 -0.5634
  633MOL0     H83500   3.907   6.058   6.965 -0.6225 -0.5268 -1.1681
  633MOL0     H83501   3.900   5.969   6.678  0.0425  0.8572 -0.4149
  633MOL0     H83502   3.911   6.127   6.738  1.3894 -1.1371  0.1039
  633MOL0     H83503   3.711   6.125   6.869  1.2407 -1.4629 -0.0202
  633MOL0     H83504   3.674   5.959   6.859  0.4016  0.2990  3.1926
  633MOL0     H83505   3.654   6.173   6.634  0.2791 -0.7848 -1.8936
  633MOL0     H83506   3.646   6.009   6.596  3.8511  2.8124 -1.3793
  633MOL0     H83507   3.454   6.154   6.784 -1.8236 -0.7618  0.3115
  633MOL0     H83508   3.446   5.981   6.749 -1.1741  0.9673  1.9388
  633MOL0     H83509   3.274   6.284   6.618 -3.7330 -1.3162  0.0791
  633MOL0     H83510   3.146   6.214   6.253  1.4833 -1.1544  0.8972
  633MOL0     H83511   3.202   6.367   6.329  1.2496  1.3312  1.9645
  633MOL0     H83512   3.029   6.311   6.517 -2.2518 -2.3985  1.7451
  633MOL0     H83513   3.017   6.146   6.461 -1.7849  1.0575  2.0169
  633MOL0     H83514   2.885   6.203   6.276  2.1891  2.4962 -1.8198
  633MOL0     H83515   2.819   6.293   6.407 -1.2095  3.1704 -0.9372
  633MOL0     H83516   3.027   6.407   6.199 -0.5675  1.8608 -1.3877
  633MOL0     H83517   2.957   6.502   6.329  0.9328  0.5956 -0.6362
  633MOL0     H83518   2.739   6.514   6.403  0.1028  1.0417 -0.0792
  633MOL0     H83519   2.516   6.617   6.449  0.6946 -0.7908  1.0149
  633MOL0     H83520   2.142   6.846   6.406  0.0303 -0.0785 -0.0003
  633MOL0     H83521   1.917   6.888   6.453 -1.6335 -0.5133 -1.9115
  633MOL0     H83522   1.645   6.537   6.545 -1.0050 -0.4733 -0.1545
  633MOL0     H83523   1.596   6.588   6.394 -0.6380 -1.3424  0.2388
  633MOL0     H83524   1.528   6.733   6.647  3.4717  0.6121 -1.3366
  633MOL0     H83525   1.419   6.627   6.565  0.6757 -0.7102  2.3821
  633MOL0     H83526   1.472   6.789   6.348 -0.2408 -0.8440  0.2536
  633MOL0     H83527   1.526   6.903   6.472 -0.4341 -0.7888  4.0635
  633MOL0     H83528   1.256   6.785   6.513  0.2575 -0.6138 -0.1413
  633MOL0     H83529   1.322   6.931   6.574  2.8202 -0.1722 -0.0155
  633MOL0     H83530   1.172   6.996   6.407 -0.1682  0.4447  0.7036
  633MOL0     H83531   1.244   6.905   6.281  0.2424 -1.3357  1.2232
  633MOL0     H83532   1.450   7.031   6.279 -0.8682 -5.4240  0.9281
  633MOL0     H83533   1.397   7.114   6.434  1.6405 -0.9830 -0.0391
  633MOL0     H83534   1.194   7.211   6.306 -0.1531  0.5268 -1.9308
  633MOL0     H83535   1.345   7.283   6.279  0.8775 -0.2189  1.2207
  633MOL0     H83536   1.203   7.080   6.109  0.1488  0.2565 -4.1993
  633MOL0     H83537   1.367   7.105   6.081 -0.4131 -0.9143 -1.2839
  633MOL0     H83538   1.830   6.466   6.402  0.1031  0.4244 -3.1571
  633MOL0     H83539   2.076   6.423   6.381  3.0414  0.4960  0.4267
  633MOL0     H83540   2.434   6.605   6.016  1.0760 -0.4770 -1.0939
  633MOL0     H83541   2.663   6.489   5.987  2.5511  1.1991  0.8388
  633MOL0     H83542   4.467   5.788   7.342  0.7847 -1.2061  0.2950
  633MOL0     H83543   4.701   5.805   7.397 -2.1141 -0.1384 -0.4168
  633MOL0     H83544   5.158   5.924   7.497  1.8366 -1.5643  1.1500
  633MOL0     H83545   5.393   5.922   7.480 -0.4508 -1.2765 -0.7790
  633MOL0     H83546   5.603   5.844   7.454  1.9108 -0.2756  0.9205
  633MOL0     H83547   5.598   6.011   7.394  0.3780  0.3878 -2.1677
  633MOL0     H83548   5.767   5.779   7.308 -2.0578 -0.0992 -1.6574
  633MOL0     H83549   5.768   5.937   7.238 -0.1140 -2.0173 -0.6945
  633MOL0     H83550   5.819   5.900   7.544  0.3540 -1.7539 -0.7740
  633MOL0     H83551   5.844   6.042   7.454  2.1816  0.9321  0.4370
  633MOL0     H83552   5.988   5.769   7.444 -0.4987  0.5266  0.1981
  633MOL0     H83553   6.027   5.889   7.330 -0.3337 -2.9101  0.3508
  633MOL0     H83554   6.138   6.019   7.743 -2.9672  0.4418  0.9111
  633MOL0     H83555   5.364   5.862   7.057  0.2934 -1.3187  0.4922
  633MOL0     H83556   5.125   5.881   7.070 -2.7649 -1.8732  2.0206
  634MOL0     O83557  11.006   9.933   0.935 -0.4111  0.3340  0.0749
  634MOL0     C83558  11.048   9.854   1.018  0.4700 -0.4763  0.2778
  634MOL0     O83559  10.972   9.775   1.101  0.5547 -0.1693  0.3176
  634MOL0     C83560  10.838   9.805   1.121 -0.2290 -0.6993  0.4164
  634MOL0     C83561  10.796   9.935   1.149 -0.1132  0.2148 -0.1183
  634MOL0     C83562  10.656   9.959   1.173  0.0077 -1.0589  0.8491
  634MOL0     C83563  10.568   9.853   1.180 -0.6878 -0.2414  0.1941
  634MOL0     O83564  10.430   9.888   1.196  0.5716  0.4507  0.2465
  634MOL0     C83565  10.328   9.785   1.200  1.0065  0.3073 -0.3909
  634MOL0     C83566  10.195   9.843   1.248  0.8134 -1.0181 -0.0123
  634MOL0     C83567  10.075   9.738   1.255  0.0449  0.2064 -0.1783
  634MOL0     C83568   9.932   9.798   1.297  0.1983  1.0659 -1.0946
  634MOL0     C83569   9.808   9.715   1.278 -0.2690 -0.2161 -0.2510
  634MOL0     C83570   9.692   9.798   1.333  0.2137 -0.1227  0.1154
  634MOL0     C83571   9.557   9.721   1.321 -0.7080 -0.8483 -0.8813
  634MOL0     C83572   9.442   9.795   1.379 -0.3118 -0.1717  0.0736
  634MOL0     N83573   9.309   9.736   1.351 -0.3040 -0.1217  0.3759
  634MOL0     C83574   9.250   9.624   1.409  0.2385 -0.4799  0.0206
  634MOL0     C83575   9.141   9.613   1.331  0.0816 -0.2757  0.2641
  634MOL0     C83576   9.045   9.498   1.349 -0.6709  0.2380  0.1954
  634MOL0     C83577   8.902   9.559   1.326  0.1310 -0.3397 -0.0505
  634MOL0     C83578   8.797   9.464   1.383  0.2418 -0.1409 -0.0732
  634MOL0     C83579   8.654   9.493   1.343 -0.1100  0.0891 -0.1849
  634MOL0     O83580   8.629   9.620   1.408 -0.4934  0.3296 -0.3962
  634MOL0     C83581   8.504   9.661   1.450  0.0761  0.2547  0.5570
  634MOL0     C83582   8.507   9.777   1.523  0.4740  0.4539 -0.6604
  634MOL0     C83583   8.382   9.833   1.571 -0.0713  0.1063  0.9690
  634MOL0     C83584   8.262   9.774   1.540  0.5177 -0.8766 -0.0959
  634MOL0     C83585   8.143   9.835   1.595 -1.0115 -0.7346 -0.0643
  634MOL0     O83586   8.151   9.965   1.645  0.1780 -0.1512  0.3850
  634MOL0     C83587   8.039  10.032   1.687  0.2934 -0.4351  0.0903
  634MOL0     C83588   8.063  10.113   1.796  0.2360 -0.5566  0.1903
  634MOL0     C83589   7.970  10.200   1.850  0.2815  0.2301  0.3125
  634MOL0     C83590   7.841  10.195   1.797  0.0889 -0.5536 -0.7345
  634MOL0     O83591   7.747  10.267   1.860  0.3704  0.0484 -0.2795
  634MOL0     C83592   7.685  10.371   1.779  0.7690 -1.1328 -0.4424
  634MOL0     C83593   7.584  10.455   1.867 -0.5332 -0.7691  1.0144
  634MOL0     C83594   7.676  10.537   1.964  0.0320  0.0227  0.2913
  634MOL0     C83595   7.596  10.598   2.072  0.4624 -1.2096  0.5718
  634MOL0     C83596   7.507  10.719   2.024 -0.3754  0.4655 -0.2075
  634MOL0     C83597   7.369  10.691   1.962 -0.7348  1.1391 -0.4835
  634MOL0     C83598   7.274  10.804   1.978 -0.9086 -0.3194 -0.3270
  634MOL0     C83599   7.131  10.782   1.932  0.4580  1.0611 -0.1376
  634MOL0    Cl83600   7.054  10.924   1.871 -0.0606 -0.4579  0.1251
  634MOL0     C83601   7.819  10.120   1.685  0.1848  0.9107  0.2509
  634MOL0     C83602   7.916  10.036   1.625  0.0564 -0.8345 -0.1078
  634MOL0     O83603   8.037   9.777   1.579  0.3941  0.3071  0.6376
  634MOL0     C83604   8.259   9.655   1.474  0.5902 -0.7337 -0.5226
  634MOL0     C83605   8.379   9.595   1.431  0.1116 -0.5831 -0.1019
  634MOL0     N83606   9.131   9.716   1.248 -0.6195  0.5002  0.1745
  634MOL0     N83607   9.233   9.785   1.251  0.5929 -0.0874 -0.1869
  634MOL0     C83608  10.612   9.727   1.152  0.5074  0.4680 -0.3221
  634MOL0     C83609  10.747   9.695   1.131 -0.1436 -0.8105 -0.8304
  634MOL0     C83610  11.197   9.836   1.021 -0.2212 -0.0413  0.0263
  634MOL0     C83611  11.250   9.731   1.095 -0.0854 -0.1980 -0.1299
  634MOL0     C83612  11.390   9.717   1.108 -0.0870  0.1815 -1.0214
  634MOL0     C83613  11.477   9.797   1.034 -0.1670 -0.4865  0.3126
  634MOL0     O83614  11.609   9.770   1.029 -0.0681  0.3639  0.7978
  634MOL0     C83615  11.691   9.830   0.927 -0.2018 -0.0314 -0.1666
  634MOL0     C83616  11.769   9.953   0.984  0.6297  0.1583  0.6456
  634MOL0     C83617  11.817   9.926   1.120 -0.2328 -1.0506  0.1048
  634MOL0     C83618  11.887  10.053   1.175 -0.3133  0.0188 -1.2077
  634MOL0     C83619  11.948  10.008   1.306  0.4086 -0.0270 -0.2603
  634MOL0     C83620  11.999   9.994   1.413 -0.2355  0.2821  0.1426
  634MOL0     C83621  11.417   9.905   0.963  0.8457 -0.9983 -0.8059
  634MOL0     C83622  11.282   9.922   0.952  1.1177  0.6148 -0.0925
  634MOL0     H83623  10.863  10.021   1.151  2.1513 -1.4513 -0.5658
  634MOL0     H83624  10.616  10.060   1.182 -0.1707 -1.1412  0.9918
  634MOL0     H83625  10.350   9.707   1.273  2.1465  1.7507  0.8713
  634MOL0     H83626  10.313   9.734   1.104  3.1637 -1.6357  0.2210
  634MOL0     H83627  10.174   9.922   1.176 -0.9828 -2.2032 -0.8735
  634MOL0     H83628  10.210   9.882   1.349  1.6784 -3.2651  0.8083
  634MOL0     H83629  10.104   9.658   1.324 -0.7068 -1.5273 -1.7775
  634MOL0     H83630  10.060   9.699   1.154 -0.3141  0.6469 -0.2997
  634MOL0     H83631   9.940   9.826   1.402  0.5418  1.8287 -1.3124
  634MOL0     H83632   9.919   9.895   1.247  1.1914  1.9593  0.2959
  634MOL0     H83633   9.813   9.622   1.335  1.0093 -0.6529 -1.0229
  634MOL0     H83634   9.794   9.695   1.171 -1.6379  0.6550 -0.2629
  634MOL0     H83635   9.697   9.887   1.269  1.2662 -1.0545 -1.1392
  634MOL0     H83636   9.695   9.842   1.433 -2.8830  1.0615 -0.1730
  634MOL0     H83637   9.529   9.703   1.217 -1.2502 -0.7431 -0.7587
  634MOL0     H83638   9.557   9.619   1.361  2.1382 -1.4552 -2.1559
  634MOL0     H83639   9.436   9.895   1.337  0.2616 -1.1896 -2.6336
  634MOL0     H83640   9.444   9.798   1.489  1.0024 -0.4379  0.0765
  634MOL0     H83641   9.281   9.560   1.491  0.6625  1.5948  1.5384
  634MOL0     H83642   9.064   9.453   1.447  0.1449 -1.0321 -0.5245
  634MOL0     H83643   9.071   9.420   1.277 -2.5710 -1.6437  1.4074
  634MOL0     H83644   8.891   9.591   1.222  1.4272  0.3792  0.0087
  634MOL0     H83645   8.899   9.652   1.384  1.0022 -0.9397  1.0132
  634MOL0     H83646   8.820   9.363   1.347 -0.1634  0.0894 -1.0001
  634MOL0     H83647   8.801   9.472   1.492  1.3393  3.5371 -0.2580
  634MOL0     H83648   8.602   9.402   1.375  2.7315 -0.9063  2.1051
  634MOL0     H83649   8.647   9.507   1.235  2.7029 -1.6575 -0.7027
  634MOL0     H83650   8.599   9.824   1.555 -0.0411  0.4602  0.8921
  634MOL0     H83651   8.390   9.907   1.650  1.2306  0.4995  0.5041
  634MOL0     H83652   8.167  10.125   1.825  0.5435 -0.4890 -0.8737
  634MOL0     H83653   7.997  10.266   1.931 -0.3801  1.5132 -0.4892
  634MOL0     H83654   7.628  10.330   1.696  0.6071  1.7561 -1.8785
  634MOL0     H83655   7.754  10.439   1.728 -0.4324 -0.5831 -1.3664
  634MOL0     H83656   7.518  10.394   1.929 -0.4624 -1.7273  0.1771
  634MOL0     H83657   7.527  10.523   1.803 -0.4043  1.6092  3.2247
  634MOL0     H83658   7.730  10.614   1.907 -0.9420 -0.2049 -0.9825
  634MOL0     H83659   7.742  10.469   2.018  2.8258  3.1015  1.1352
  634MOL0     H83660   7.533  10.519   2.114 -2.5058 -0.4626 -2.0632
  634MOL0     H83661   7.670  10.642   2.139  3.0696  2.4094 -4.0883
  634MOL0     H83662   7.562  10.779   1.951 -1.8643  0.1911 -1.6087
  634MOL0     H83663   7.497  10.782   2.113 -1.1276  1.5326 -1.0183
  634MOL0     H83664   7.325  10.594   1.987 -1.9695  1.0468 -2.7120
  634MOL0     H83665   7.385  10.683   1.854 -2.8072  2.0865 -0.9162
  634MOL0     H83666   7.280  10.839   2.082  4.7425 -0.2536 -0.3398
  634MOL0     H83667   7.308  10.880   1.906 -1.2308 -2.9057 -3.4108
  634MOL0     H83668   7.076  10.741   2.017  0.6103  1.0353 -0.0513
  634MOL0     H83669   7.132  10.707   1.853  2.6551 -0.1526  0.9569
  634MOL0     H83670   7.721  10.117   1.639 -0.0163  1.4752  0.6291
  634MOL0     H83671   7.884   9.973   1.543 -2.3693  1.3695 -0.9895
  634MOL0     H83672   8.169   9.601   1.448 -0.1797  0.2406  0.0406
  634MOL0     H83673   8.377   9.506   1.369  0.0117 -0.4427 -0.3061
  634MOL0     H83674  10.535   9.652   1.156 -0.6257  1.5327 -1.3718
  634MOL0     H83675  10.780   9.591   1.129 -4.1193 -2.2527 -0.3197
  634MOL0     H83676  11.194   9.660   1.155 -2.1051  2.6108  1.5226
  634MOL0     H83677  11.426   9.634   1.167 -2.5251 -0.0562  0.2627
  634MOL0     H83678  11.624   9.860   0.845 -2.6834 -1.5335  1.1915
  634MOL0     H83679  11.762   9.758   0.886  0.8009  0.6646  0.3126
  634MOL0     H83680  11.847   9.991   0.917 -2.3285  1.5834 -2.2688
  634MOL0     H83681  11.693  10.031   0.996  0.3940 -0.2941  2.3398
  634MOL0     H83682  11.884   9.840   1.133 -0.2991 -0.7291  3.3667
  634MOL0     H83683  11.736   9.909   1.191  0.3530  0.2400  1.1291
  634MOL0     H83684  11.964  10.101   1.113  2.6122  2.1062  3.5074
  634MOL0     H83685  11.820  10.132   1.208 -0.2435 -0.6008  0.4898
  634MOL0     H83686  12.048   9.980   1.507  0.5371 -3.5870 -0.6807
  634MOL0     H83687  11.473   9.979   0.907 -1.1161  1.6311  0.5352
  634MOL0     H83688  11.254  10.009   0.893  0.8471 -0.6735 -1.9624
  635MOL0     O83689   6.470   4.237   2.055 -0.3260  0.1775 -0.1592
  635MOL0     C83690   6.494   4.270   2.170  0.0400  0.5612 -0.3849
  635MOL0     O83691   6.404   4.272   2.273 -0.4309 -0.0905 -0.3487
  635MOL0     C83692   6.304   4.174   2.281 -0.6033 -1.1639  0.1400
  635MOL0     C83693   6.211   4.190   2.388  1.3286 -0.0775  0.2000
  635MOL0     C83694   6.116   4.087   2.410 -0.3329  0.0586 -0.3326
  635MOL0     C83695   6.112   3.974   2.333 -0.2880  0.5512 -0.4612
  635MOL0     O83696   6.031   3.867   2.349 -0.2242  0.1314  0.2510
  635MOL0     C83697   5.933   3.856   2.454  0.2257 -0.4208 -0.6555
  635MOL0     C83698   5.799   3.918   2.412 -0.2288 -0.4691  0.3149
  635MOL0     C83699   5.695   3.889   2.522  0.0003 -0.4896 -0.3831
  635MOL0     C83700   5.553   3.938   2.478  0.0403 -0.4868 -0.2650
  635MOL0     C83701   5.460   3.870   2.582 -0.0171  0.0535 -0.7985
  635MOL0     C83702   5.316   3.921   2.594 -1.0156 -0.4330  0.3087
  635MOL0     C83703   5.223   3.863   2.697  0.3959  0.8313 -0.0311
  635MOL0     C83704   5.090   3.937   2.708  0.6416 -0.7919  1.2087
  635MOL0     N83705   5.099   4.080   2.756 -0.4739  0.0735 -0.0494
  635MOL0     C83706   5.130   4.131   2.882  0.3608 -0.3482 -0.2524
  635MOL0     C83707   5.115   4.264   2.877 -0.7018  0.6463  0.5924
  635MOL0     C83708   5.153   4.365   2.982  0.9746 -0.3266 -0.5655
  635MOL0     C83709   5.027   4.426   3.049 -0.6132 -0.4635 -0.5234
  635MOL0     C83710   4.939   4.328   3.126 -0.9133 -0.1191 -0.2306
  635MOL0     C83711   4.898   4.372   3.271  0.2954  0.7875 -0.3577
  635MOL0     O83712   4.838   4.505   3.263 -0.1265  0.1779 -0.1609
  635MOL0     C83713   4.705   4.516   3.232  0.4610  0.9075  0.6028
  635MOL0     C83714   4.672   4.614   3.133  0.6944  0.6072 -0.2291
  635MOL0     C83715   4.532   4.627   3.090 -0.8667  0.3824 -0.4308
  635MOL0     C83716   4.429   4.558   3.155 -0.2116  0.8832  0.6810
  635MOL0     C83717   4.287   4.566   3.112  0.3118 -0.7264  0.2406
  635MOL0     O83718   4.261   4.650   3.011 -0.0209  0.0550 -0.1499
  635MOL0     C83719   4.133   4.649   2.956  1.1509  0.6339 -0.1308
  635MOL0     C83720   4.103   4.607   2.830 -0.2790 -0.3587 -0.7089
  635MOL0     C83721   3.969   4.602   2.788  0.8312  0.1211  0.2416
  635MOL0     C83722   3.860   4.637   2.872 -0.5063 -0.1140 -0.2446
  635MOL0     O83723   3.735   4.622   2.813 -0.0623  0.2518 -0.1566
  635MOL0     C83724   3.621   4.622   2.905  1.4041 -0.9577  0.2207
  635MOL0     C83725   3.499   4.653   2.822 -0.5817 -0.4739 -0.3895
  635MOL0     C83726   3.373   4.644   2.911  0.2560  0.4614 -0.3626
  635MOL0     C83727   3.254   4.657   2.819  0.2479  0.9415  0.0108
  635MOL0     C83728   3.124   4.634   2.911  0.9363 -0.8397  0.5263
  635MOL0     C83729   3.008   4.614   2.814 -1.1406  0.1479 -0.5197
  635MOL0     C83730   2.877   4.587   2.888  0.9349  0.1363  0.1067
  635MOL0     C83731   2.747   4.592   2.800 -0.3959 -0.1678  0.7130
  635MOL0    Cl83732   2.706   4.760   2.769  0.0698 -0.4840  0.5402
  635MOL0     C83733   3.888   4.680   2.992 -0.0734  0.6469  0.1769
  635MOL0     C83734   4.023   4.690   3.036  0.5332 -0.5039 -1.0162
  635MOL0     O83735   4.200   4.510   3.171  0.1939  0.4058 -0.2695
  635MOL0     C83736   4.470   4.466   3.260  0.4492  0.3133 -0.0007
  635MOL0     C83737   4.605   4.434   3.285 -0.2860 -0.0627  0.2763
  635MOL0     N83738   5.070   4.293   2.748  0.6037 -0.2265 -0.4035
  635MOL0     N83739   5.062   4.183   2.674 -0.0246 -0.1998 -0.1180
  635MOL0     C83740   6.209   3.961   2.237  0.4128 -0.7689  0.4606
  635MOL0     C83741   6.306   4.058   2.212  0.3511 -0.4536 -0.7899
  635MOL0     C83742   6.623   4.326   2.208 -0.0909  0.6707  0.6901
  635MOL0     C83743   6.723   4.342   2.109 -0.9972  0.6163  0.5499
  635MOL0     C83744   6.854   4.380   2.128 -0.3452 -0.3627 -0.2993
  635MOL0     C83745   6.888   4.411   2.254 -0.0518 -0.0675 -1.1454
  635MOL0     O83746   7.011   4.451   2.290 -0.3295 -0.3815  0.1667
  635MOL0     C83747   7.100   4.495   2.182 -0.5399 -0.2260 -0.9953
  635MOL0     C83748   7.228   4.561   2.242 -0.1625  0.1356 -0.1529
  635MOL0     C83749   7.329   4.593   2.129 -0.6061  1.3345 -0.7443
  635MOL0     C83750   7.303   4.721   2.063 -0.1076 -0.2943 -0.2237
  635MOL0     C83751   7.409   4.749   1.956 -0.6622 -0.2780  0.2238
  635MOL0     C83752   7.495   4.760   1.873  0.0762  0.2115 -0.8157
  635MOL0     C83753   6.798   4.395   2.362 -0.6256 -0.1985  0.1737
  635MOL0     C83754   6.667   4.362   2.338  0.8358  0.1243 -0.4916
  635MOL0     H83755   6.205   4.289   2.433  0.2479  0.2135 -0.5106
  635MOL0     H83756   6.039   4.103   2.485 -1.7072  1.5829 -1.9702
  635MOL0     H83757   5.971   3.904   2.545 -0.6931 -0.1548 -0.4033
  635MOL0     H83758   5.919   3.748   2.459  0.0064 -0.3304  1.6588
  635MOL0     H83759   5.764   3.891   2.312 -1.8924  1.6807  0.2447
  635MOL0     H83760   5.815   4.026   2.409  0.1560 -0.5380 -2.5318
  635MOL0     H83761   5.719   3.953   2.607 -1.0064  0.8257 -1.0311
  635MOL0     H83762   5.689   3.788   2.561 -1.0572 -0.8689 -1.4590
  635MOL0     H83763   5.540   4.046   2.469 -0.0769 -0.0819  3.1978
  635MOL0     H83764   5.515   3.899   2.384 -0.8001 -0.5415  0.0847
  635MOL0     H83765   5.505   3.879   2.681  0.5135 -2.5163 -0.7144
  635MOL0     H83766   5.455   3.762   2.562  0.9944  0.0097 -0.8778
  635MOL0     H83767   5.274   3.929   2.493  1.7964  1.2959 -0.8638
  635MOL0     H83768   5.321   4.025   2.627  0.5680 -0.4657  0.2408
  635MOL0     H83769   5.203   3.755   2.689  1.1101  0.5684  1.3061
  635MOL0     H83770   5.265   3.868   2.798 -0.8146 -1.8127  0.6911
  635MOL0     H83771   5.019   3.887   2.774 -2.5485 -0.2064 -1.5143
  635MOL0     H83772   5.042   3.956   2.611  2.0414  6.3144  1.3242
  635MOL0     H83773   5.150   4.087   2.979 -0.6009  2.4567  1.3490
  635MOL0     H83774   5.213   4.447   2.941  1.3251  0.8765  2.1773
  635MOL0     H83775   5.214   4.318   3.059 -0.0684 -0.6894  0.0596
  635MOL0     H83776   4.962   4.481   2.981 -1.6830  1.3383  1.8201
  635MOL0     H83777   5.053   4.504   3.122 -1.9577  0.7657 -1.3056
  635MOL0     H83778   4.843   4.310   3.077 -0.6809 -2.1630 -0.0196
  635MOL0     H83779   4.989   4.231   3.129 -0.6222 -0.0118 -1.1880
  635MOL0     H83780   4.989   4.382   3.331 -0.3650 -2.1603  1.3336
  635MOL0     H83781   4.838   4.295   3.319  1.7770  0.2445  0.6888
  635MOL0     H83782   4.755   4.678   3.108  0.6961  0.5970 -0.2482
  635MOL0     H83783   4.496   4.707   3.027 -1.9325  0.7217  0.5684
  635MOL0     H83784   4.186   4.581   2.765  2.4231 -1.7809  2.9654
  635MOL0     H83785   3.950   4.567   2.687  3.0783 -0.6931  0.0496
  635MOL0     H83786   3.633   4.699   2.982  1.7892 -2.6957  1.9813
  635MOL0     H83787   3.611   4.520   2.943 -1.2710 -1.5182 -1.7136
  635MOL0     H83788   3.486   4.584   2.738 -0.2943 -1.7015  0.5468
  635MOL0     H83789   3.501   4.754   2.781  2.9139  0.5024  1.7863
  635MOL0     H83790   3.367   4.716   2.994 -1.1839 -0.9329  0.8098
  635MOL0     H83791   3.372   4.548   2.964  1.2136  1.7110  2.0683
  635MOL0     H83792   3.247   4.750   2.762 -2.0751  1.2131  0.6421
  635MOL0     H83793   3.251   4.577   2.745  0.1007  1.1612 -0.2218
  635MOL0     H83794   3.104   4.714   2.983  1.1713 -0.1419 -0.1776
  635MOL0     H83795   3.146   4.547   2.974  2.1287 -0.1121  1.1487
  635MOL0     H83796   3.023   4.536   2.739 -4.9420 -0.0975 -1.2602
  635MOL0     H83797   2.999   4.702   2.750  0.6692 -0.4777 -1.7258
  635MOL0     H83798   2.872   4.483   2.922 -0.7362 -0.2202 -1.0870
  635MOL0     H83799   2.869   4.658   2.971  0.0064 -0.1315  0.2676
  635MOL0     H83800   2.668   4.548   2.862 -0.9831  1.7282  1.3836
  635MOL0     H83801   2.764   4.538   2.707 -1.1375 -1.0244  1.0663
  635MOL0     H83802   3.814   4.709   3.066 -1.4618 -1.8726 -0.1148
  635MOL0     H83803   4.058   4.731   3.130  0.1698  1.8244 -1.8205
  635MOL0     H83804   4.393   4.411   3.313  0.2657 -0.1097 -0.6825
  635MOL0     H83805   4.620   4.349   3.351 -3.2305 -2.0231 -1.3445
  635MOL0     H83806   6.202   3.877   2.170 -1.0491 -0.5859  0.3480
  635MOL0     H83807   6.386   4.037   2.143  0.8196 -1.6886  0.1071
  635MOL0     H83808   6.708   4.303   2.009 -0.6602 -0.6842  0.9852
  635MOL0     H83809   6.920   4.394   2.044 -0.1854  5.6332  0.3707
  635MOL0     H83810   7.062   4.576   2.118  1.6928 -0.0781 -2.2457
  635MOL0     H83811   7.118   4.401   2.128  0.2351  0.1900 -1.4808
  635MOL0     H83812   7.213   4.654   2.299  1.1659  1.1699 -1.4135
  635MOL0     H83813   7.270   4.489   2.312  0.5836  1.2838  0.6178
  635MOL0     H83814   7.322   4.511   2.056  1.6121 -0.3339  0.7512
  635MOL0     H83815   7.430   4.601   2.169 -0.1775 -0.8817 -1.2485
  635MOL0     H83816   7.208   4.699   2.012  0.1814  0.1227 -0.9592
  635MOL0     H83817   7.293   4.800   2.138 -3.7239  0.1965 -1.0304
  635MOL0     H83818   7.569   4.789   1.801 -0.2641  5.3128  0.5253
  635MOL0     H83819   6.842   4.409   2.460 -2.4599 -1.7065  1.2569
  635MOL0     H83820   6.617   4.352   2.434 -2.4571  1.8926 -1.8530
  636MOL0     O83821   0.593   9.171   1.665 -0.8752  0.2490 -0.0709
  636MOL0     C83822   0.646   9.277   1.700 -0.0168 -0.9224  0.2668
  636MOL0     O83823   0.597   9.357   1.801 -0.1566 -0.9393 -0.1868
  636MOL0     C83824   0.464   9.358   1.846 -0.8473  0.1400 -0.4746
  636MOL0     C83825   0.431   9.368   1.987 -0.0594 -0.0800  0.1757
  636MOL0     C83826   0.302   9.362   2.032 -0.1529 -0.1833  0.3230
  636MOL0     C83827   0.201   9.336   1.942 -0.1362  0.7375  0.1762
  636MOL0     O83828   0.068   9.341   1.971  0.1067  0.3130 -0.1149
  636MOL0     C83829   0.009   9.360   2.098 -0.0719  0.5696  0.1951
  636MOL0     C83830  -0.132   9.318   2.081  0.0619 -0.7202  0.0703
  636MOL0     C83831  -0.204   9.349   2.210  0.4813  0.2737  0.0100
  636MOL0     C83832  -0.355   9.321   2.206  0.6341 -0.4991  0.4210
  636MOL0     C83833  -0.425   9.348   2.341 -0.0760  0.2214  0.4647
  636MOL0     C83834  -0.568   9.284   2.336 -0.2094  0.2925  0.0569
  636MOL0     C83835  -0.640   9.338   2.463 -0.3713 -1.0688 -0.1547
  636MOL0     C83836  -0.792   9.291   2.470 -0.2122 -0.5713 -0.0551
  636MOL0     N83837  -0.809   9.144   2.457  0.1187  0.8054 -0.2354
  636MOL0     C83838  -0.739   9.049   2.529 -0.1786 -1.0747  0.2049
  636MOL0     C83839  -0.726   8.941   2.453  0.9764  0.1142 -0.0449
  636MOL0     C83840  -0.680   8.802   2.482  0.1367 -0.2093  0.0638
  636MOL0     C83841  -0.759   8.749   2.598 -0.7493 -0.3823  0.7787
  636MOL0     C83842  -0.720   8.617   2.655 -0.6593  0.2253 -0.4257
  636MOL0     C83843  -0.821   8.507   2.646 -0.1140  0.0541 -0.1598
  636MOL0     O83844  -0.941   8.545   2.721  0.6416  0.1633  0.3853
  636MOL0     C83845  -1.037   8.450   2.766 -0.2115  0.4551 -0.1121
  636MOL0     C83846  -1.022   8.308   2.747  0.5944  0.3159 -0.3401
  636MOL0     C83847  -1.111   8.220   2.805  0.1128 -0.1074  1.1740
  636MOL0     C83848  -1.222   8.262   2.872  1.3803 -0.3654  0.3252
  636MOL0     C83849  -1.327   8.163   2.906  0.0903  1.2327  0.1401
  636MOL0     O83850  -1.449   8.204   2.951 -0.5412  0.3398 -0.3029
  636MOL0     C83851  -1.542   8.128   3.011 -0.2859  0.6777 -0.7392
  636MOL0     C83852  -1.671   8.185   3.017  0.6749  0.2492 -0.5721
  636MOL0     C83853  -1.772   8.129   3.088 -0.4445 -0.0817  0.3256
  636MOL0     C83854  -1.746   8.010   3.156 -0.2171  0.8234 -0.3117
  636MOL0     O83855  -1.857   7.955   3.221  0.5296  0.4205 -0.5346
  636MOL0     C83856  -1.881   7.811   3.203  0.0151 -0.0426 -0.3271
  636MOL0     C83857  -2.009   7.778   3.293  0.3319 -0.4033 -0.4045
  636MOL0     C83858  -2.142   7.840   3.242 -0.7825  0.5229  0.6114
  636MOL0     C83859  -2.264   7.827   3.330  0.1638  0.6631 -0.3470
  636MOL0     C83860  -2.343   7.703   3.301  0.7793  0.2805  0.3766
  636MOL0     C83861  -2.316   7.579   3.384 -0.2402 -0.5017  0.0219
  636MOL0     C83862  -2.449   7.496   3.382 -0.9723  0.4418  0.0931
  636MOL0     C83863  -2.429   7.377   3.472 -0.5310  0.2193 -0.6522
  636MOL0    Cl83864  -2.585   7.302   3.486  0.0725  0.1970 -0.2953
  636MOL0     C83865  -1.623   7.952   3.147  0.0539  0.2855 -0.1092
  636MOL0     C83866  -1.513   8.005   3.075  0.2422 -0.0247 -0.6478
  636MOL0     O83867  -1.294   8.043   2.896 -0.9861  0.0487 -0.0865
  636MOL0     C83868  -1.241   8.396   2.883 -0.0454 -0.6813 -1.0970
  636MOL0     C83869  -1.145   8.492   2.838  0.0321 -0.1357 -0.6470
  636MOL0     N83870  -0.785   8.973   2.329 -0.0553  0.1892 -0.6500
  636MOL0     N83871  -0.841   9.094   2.336 -0.0642 -0.2670  0.0936
  636MOL0     C83872   0.226   9.323   1.806 -0.2629 -0.5711 -0.0134
  636MOL0     C83873   0.358   9.342   1.755 -0.4857  0.3127  0.3656
  636MOL0     C83874   0.783   9.313   1.657  0.0730  0.0725 -0.0795
  636MOL0     C83875   0.846   9.428   1.704 -0.3511 -1.2091  0.2229
  636MOL0     C83876   0.971   9.468   1.658  0.5134  0.0454 -0.0630
  636MOL0     C83877   1.043   9.386   1.572 -0.7211  0.7361  1.1144
  636MOL0     O83878   1.158   9.413   1.505  0.4799 -0.5336  0.5619
  636MOL0     C83879   1.238   9.526   1.547 -0.5811 -0.3833 -0.3961
  636MOL0     C83880   1.349   9.561   1.440  0.2604  0.4524 -0.2893
  636MOL0     C83881   1.449   9.683   1.486  0.0294  0.0417  0.4678
  636MOL0     C83882   1.375   9.807   1.439  0.2544  0.7094  0.0787
  636MOL0     C83883   1.416   9.911   1.531 -0.2246 -0.0049 -0.3649
  636MOL0     C83884   1.464   9.996   1.599  0.3878 -0.1300 -0.3411
  636MOL0     C83885   0.988   9.267   1.523 -0.4838  0.0304  0.4292
  636MOL0     C83886   0.858   9.230   1.567 -0.2569  0.1511  0.6775
  636MOL0     H83887   0.511   9.378   2.060  0.1526 -0.4143 -0.0094
  636MOL0     H83888   0.274   9.370   2.136 -1.6568  2.8844 -0.1860
  636MOL0     H83889   0.032   9.465   2.120  0.7372  0.9247 -2.0687
  636MOL0     H83890   0.057   9.305   2.179  0.2029 -0.5973 -0.7337
  636MOL0     H83891  -0.139   9.213   2.054 -1.8425 -0.3418 -1.1503
  636MOL0     H83892  -0.175   9.370   1.995  0.4971 -0.0757  0.2353
  636MOL0     H83893  -0.196   9.455   2.237 -1.4413  0.5890 -0.5111
  636MOL0     H83894  -0.147   9.275   2.266 -0.2340 -0.7085 -0.5241
  636MOL0     H83895  -0.401   9.353   2.112  0.7287 -1.5426  0.0037
  636MOL0     H83896  -0.361   9.216   2.174 -2.6437 -0.0657 -0.6914
  636MOL0     H83897  -0.431   9.457   2.351 -0.4713  0.3063 -0.5928
  636MOL0     H83898  -0.369   9.303   2.424  0.4337 -0.7692 -0.3911
  636MOL0     H83899  -0.551   9.176   2.337 -0.5151  0.1535 -2.6374
  636MOL0     H83900  -0.630   9.317   2.251 -3.0059 -2.7354  0.6962
  636MOL0     H83901  -0.583   9.314   2.553  0.9892  3.8414  0.5690
  636MOL0     H83902  -0.638   9.447   2.457  1.4459 -0.9592  1.3949
  636MOL0     H83903  -0.854   9.340   2.394 -0.9763 -2.4515 -0.6927
  636MOL0     H83904  -0.838   9.319   2.566  1.0886  1.6886 -0.0179
  636MOL0     H83905  -0.703   9.073   2.629  2.5381  1.1373 -1.1561
  636MOL0     H83906  -0.578   8.814   2.518 -0.4511  0.4569  1.5606
  636MOL0     H83907  -0.691   8.731   2.399 -0.2104 -0.0491 -0.0307
  636MOL0     H83908  -0.865   8.748   2.572 -0.3281 -1.2972 -1.0672
  636MOL0     H83909  -0.746   8.820   2.680 -0.7854 -0.8238  1.1732
  636MOL0     H83910  -0.625   8.593   2.606  0.1618 -2.8085  2.3807
  636MOL0     H83911  -0.699   8.637   2.760  0.3057  0.7842 -0.7143
  636MOL0     H83912  -0.788   8.412   2.690 -4.6893 -0.6809  2.3547
  636MOL0     H83913  -0.848   8.497   2.541  6.8140  1.2567 -2.5936
  636MOL0     H83914  -0.930   8.265   2.707  2.0386  1.9438  1.0582
  636MOL0     H83915  -1.086   8.115   2.791  0.1401  0.1436 -1.1229
  636MOL0     H83916  -1.692   8.286   2.982 -2.4012  0.7819  2.2703
  636MOL0     H83917  -1.872   8.172   3.093 -0.8326 -0.5607 -2.0202
  636MOL0     H83918  -1.795   7.749   3.230  0.9727  1.3612 -0.0467
  636MOL0     H83919  -1.900   7.796   3.096 -1.0469  0.1668 -0.1793
  636MOL0     H83920  -1.992   7.817   3.394  1.8631  1.0275 -1.1660
  636MOL0     H83921  -2.012   7.670   3.310  2.8848 -0.1359  2.5446
  636MOL0     H83922  -2.166   7.805   3.141  2.2260 -0.4250  0.1146
  636MOL0     H83923  -2.122   7.947   3.226 -0.5385  0.9597  3.3322
  636MOL0     H83924  -2.232   7.840   3.434  0.2267  1.4335 -0.4546
  636MOL0     H83925  -2.326   7.911   3.297  1.2765  1.1130 -1.3497
  636MOL0     H83926  -2.335   7.677   3.195  1.1514  3.2371 -0.4112
  636MOL0     H83927  -2.450   7.722   3.306  0.0420 -1.5350 -4.0004
  636MOL0     H83928  -2.278   7.602   3.485 -0.6235 -0.3348  0.1320
  636MOL0     H83929  -2.235   7.519   3.344  0.2389  1.1752 -1.6594
  636MOL0     H83930  -2.529   7.561   3.419 -3.3578 -1.3869 -1.4890
  636MOL0     H83931  -2.474   7.457   3.282  1.3516 -1.8808  0.2992
  636MOL0     H83932  -2.392   7.416   3.567  1.6356  1.0824 -1.7726
  636MOL0     H83933  -2.363   7.309   3.417  0.5416  1.9841 -1.6318
  636MOL0     H83934  -1.612   7.859   3.201 -1.0770 -0.3461 -0.9400
  636MOL0     H83935  -1.421   7.947   3.081 -0.8702 -1.8451 -0.1866
  636MOL0     H83936  -1.337   8.420   2.928  0.3799 -1.9350  0.5519
  636MOL0     H83937  -1.147   8.600   2.851 -1.0850 -0.3450  1.4284
  636MOL0     H83938   0.139   9.306   1.744 -0.3306 -0.9150  0.1745
  636MOL0     H83939   0.373   9.359   1.648 -1.5959 -1.5724 -0.1362
  636MOL0     H83940   0.800   9.496   1.775  0.2732  0.6488 -1.0827
  636MOL0     H83941   1.008   9.562   1.696  1.5689 -1.5200  3.1696
  636MOL0     H83942   1.294   9.490   1.634 -0.9814  1.5361  0.7277
  636MOL0     H83943   1.167   9.607   1.568  0.6172  1.0137 -1.5639
  636MOL0     H83944   1.421   9.479   1.432 -0.4984 -0.2871  0.2784
  636MOL0     H83945   1.313   9.585   1.340 -0.1835 -2.9962 -1.0586
  636MOL0     H83946   1.540   9.667   1.427 -1.2655 -0.7256 -1.4314
  636MOL0     H83947   1.476   9.686   1.592  1.8646  3.8739  0.0785
  636MOL0     H83948   1.409   9.831   1.337  0.9705 -2.4411 -0.5379
  636MOL0     H83949   1.266   9.803   1.438  0.0155  4.0026  1.4435
  636MOL0     H83950   1.514  10.070   1.657  1.1625 -0.0853 -1.0442
  636MOL0     H83951   1.034   9.207   1.445  1.2562 -0.0088  1.4316
  636MOL0     H83952   0.817   9.140   1.523  1.4924 -0.8375  0.9679
  637MOL0     O83953   7.148   7.543   4.877 -0.3404  0.6068  0.0477
  637MOL0     C83954   7.055   7.492   4.812  0.5593 -0.1174 -0.2827
  637MOL0     O83955   6.926   7.535   4.818  0.7445 -0.7809  0.4246
  637MOL0     C83956   6.882   7.630   4.908 -0.3697  0.2182  0.6043
  637MOL0     C83957   6.811   7.735   4.864  0.7526 -0.1763  0.2365
  637MOL0     C83958   6.746   7.822   4.947 -0.8600 -0.2828  0.0590
  637MOL0     C83959   6.759   7.808   5.084 -0.0898  0.3146 -0.5306
  637MOL0     O83960   6.699   7.897   5.174 -0.1650  0.7715 -0.5795
  637MOL0     C83961   6.683   8.034   5.141 -0.4730  0.1892 -0.4216
  637MOL0     C83962   6.613   8.122   5.250 -1.4017  0.2603  0.1938
  637MOL0     C83963   6.465   8.123   5.232  0.0571  0.4095  0.5843
  637MOL0     C83964   6.374   8.003   5.260  0.2989  0.2453  0.8926
  637MOL0     C83965   6.235   8.017   5.194 -0.4491  1.1293  0.0402
  637MOL0     C83966   6.166   8.140   5.235  0.5490 -0.5937  0.4001
  637MOL0     C83967   6.021   8.148   5.199  0.2570  0.4567 -0.2198
  637MOL0     C83968   5.930   8.071   5.292 -0.0654 -0.1761  0.7229
  637MOL0     N83969   5.803   8.082   5.245  0.2428 -0.0783 -0.3079
  637MOL0     C83970   5.733   8.198   5.251  0.6657  0.2521  0.8159
  637MOL0     C83971   5.621   8.174   5.178 -0.2048  0.0297 -0.3661
  637MOL0     C83972   5.508   8.275   5.152 -0.6168 -0.4173 -0.1564
  637MOL0     C83973   5.382   8.209   5.127 -0.4504 -1.5653 -0.2387
  637MOL0     C83974   5.274   8.307   5.089 -0.5998 -0.2116 -0.4385
  637MOL0     C83975   5.126   8.258   5.099 -0.8250  0.0775  0.5582
  637MOL0     O83976   5.045   8.380   5.086  0.5801 -0.0184  0.0616
  637MOL0     C83977   4.919   8.355   5.030  0.2443  1.0643  0.1227
  637MOL0     C83978   4.829   8.251   5.072  0.6644 -0.1601 -0.5039
  637MOL0     C83979   4.711   8.230   5.004  0.0282  0.0225 -0.3076
  637MOL0     C83980   4.676   8.316   4.901 -0.3753 -0.8749  0.5135
  637MOL0     C83981   4.543   8.292   4.833 -0.0823  0.7136 -0.2374
  637MOL0     O83982   4.465   8.198   4.880  0.6162  0.5594  0.1768
  637MOL0     C83983   4.358   8.160   4.810  0.0810  0.7552 -0.1308
  637MOL0     C83984   4.235   8.196   4.851 -0.3066  0.5030  0.0380
  637MOL0     C83985   4.127   8.143   4.783  0.5947 -0.0794 -0.5324
  637MOL0     C83986   4.143   8.053   4.679  0.2616  0.1535 -0.4802
  637MOL0     O83987   4.039   7.990   4.607  0.2447  0.6962 -0.7118
  637MOL0     C83988   3.956   8.081   4.546  0.6097  0.2888  0.2803
  637MOL0     C83989   3.815   8.023   4.535 -0.3334 -0.0121 -0.6012
  637MOL0     C83990   3.808   7.949   4.395 -0.2312  0.2006  0.4000
  637MOL0     C83991   3.685   7.861   4.381  0.2714  0.1393  0.8399
  637MOL0     C83992   3.664   7.800   4.243  0.2931 -0.4716 -0.3526
  637MOL0     C83993   3.540   7.721   4.231  0.0223  0.3043 -0.1764
  637MOL0     C83994   3.537   7.592   4.315 -0.6954  0.0504  0.0764
  637MOL0     C83995   3.420   7.502   4.270  0.1136 -0.8813 -1.0562
  637MOL0    Cl83996   3.463   7.425   4.115  0.2302  0.4981 -0.4891
  637MOL0     C83997   4.271   8.018   4.634  0.9357  0.0253  0.0975
  637MOL0     C83998   4.379   8.070   4.702  0.1597 -0.3010  0.7259
  637MOL0     O83999   4.517   8.361   4.734  0.0222  0.0608 -1.4260
  637MOL0     C84000   4.762   8.425   4.862 -0.1411  0.2875 -0.6432
  637MOL0     C84001   4.885   8.426   4.923  0.3851 -0.0613  0.5043
  637MOL0     N84002   5.636   8.048   5.115 -0.4955  0.0481  0.1563
  637MOL0     N84003   5.745   7.998   5.151  0.1978  0.1525 -0.3629
  637MOL0     C84004   6.840   7.701   5.133  0.2752  0.3760 -1.1575
  637MOL0     C84005   6.903   7.611   5.043  0.2093 -0.2954  0.1986
  637MOL0     C84006   7.081   7.380   4.721  0.3469 -0.3933  0.0758
  637MOL0     C84007   6.973   7.291   4.681 -0.0006  0.0488 -0.2365
  637MOL0     C84008   6.990   7.174   4.612 -0.8426 -0.1005 -0.1470
  637MOL0     C84009   7.119   7.145   4.567 -0.2891  0.0475  0.3973
  637MOL0     O84010   7.134   7.041   4.484 -0.4781 -0.4239  0.2715
  637MOL0     C84011   7.118   7.059   4.349  0.6750  0.0773  0.1554
  637MOL0     C84012   7.123   6.924   4.275 -0.7965 -0.0833 -0.1856
  637MOL0     C84013   7.272   6.873   4.268 -0.0892  0.6297 -0.1022
  637MOL0     C84014   7.298   6.769   4.147  0.2951 -0.5764 -0.5184
  637MOL0     C84015   7.234   6.645   4.175 -0.7927  0.9128  0.5396
  637MOL0     C84016   7.186   6.536   4.186  0.3697 -0.1298  0.0674
  637MOL0     C84017   7.229   7.235   4.598  0.2508  0.3127 -0.2300
  637MOL0     C84018   7.216   7.348   4.685 -0.2185  0.3589  0.2683
  637MOL0     H84019   6.808   7.766   4.760  1.7687 -0.6430  0.0558
  637MOL0     H84020   6.705   7.905   4.890 -1.1464 -1.8761 -2.1726
  637MOL0     H84021   6.631   8.053   5.047 -1.0797  1.2759  0.1076
  637MOL0     H84022   6.780   8.082   5.129 -0.7720  1.3959  1.5294
  637MOL0     H84023   6.667   8.216   5.240  2.7891 -1.9799 -0.3332
  637MOL0     H84024   6.632   8.093   5.354 -1.7685  2.1048  0.8165
  637MOL0     H84025   6.446   8.154   5.128 -2.3731  1.0846  1.1652
  637MOL0     H84026   6.439   8.209   5.293  1.7223  0.4423  1.2995
  637MOL0     H84027   6.421   7.915   5.215 -0.1844  0.2903  0.2802
  637MOL0     H84028   6.366   7.987   5.368  0.8123  1.5750  1.1467
  637MOL0     H84029   6.172   7.931   5.220  2.3654 -0.4601  2.1097
  637MOL0     H84030   6.263   8.023   5.088  2.1944  0.7634  0.6353
  637MOL0     H84031   6.210   8.217   5.171  0.6410 -0.9100  0.0790
  637MOL0     H84032   6.178   8.164   5.341 -2.3259  0.1196  0.6344
  637MOL0     H84033   6.002   8.255   5.199 -1.8542  0.1301 -1.0702
  637MOL0     H84034   6.003   8.117   5.095  0.2562  0.6041 -0.2639
  637MOL0     H84035   5.946   8.118   5.389  2.9984  2.6263 -0.9023
  637MOL0     H84036   5.964   7.967   5.287  1.6342  0.3998 -0.8747
  637MOL0     H84037   5.750   8.297   5.293  1.1391  0.6996 -0.3807
  637MOL0     H84038   5.539   8.342   5.072  3.8395  1.9994  3.2172
  637MOL0     H84039   5.496   8.345   5.234  3.7209  0.5168 -0.1005
  637MOL0     H84040   5.352   8.156   5.218 -3.6033  0.9909  0.4025
  637MOL0     H84041   5.393   8.132   5.050  2.0003 -0.2770 -1.2963
  637MOL0     H84042   5.284   8.402   5.142 -0.3227 -0.9587  0.8891
  637MOL0     H84043   5.291   8.332   4.984  0.4626 -0.8471 -0.4329
  637MOL0     H84044   5.121   8.225   5.203 -2.3205  0.0717  0.5060
  637MOL0     H84045   5.099   8.178   5.030 -0.7417  0.9981 -0.5623
  637MOL0     H84046   4.849   8.181   5.152  0.7562 -0.3885 -0.7240
  637MOL0     H84047   4.653   8.140   5.022 -1.1661  0.8425  0.0431
  637MOL0     H84048   4.220   8.265   4.934 -0.2694  2.4762 -1.5332
  637MOL0     H84049   4.028   8.177   4.811  0.3314  1.4677 -3.0515
  637MOL0     H84050   3.991   8.106   4.445 -1.3348 -0.0385 -0.5220
  637MOL0     H84051   3.951   8.177   4.597  0.8383  0.8071 -0.6409
  637MOL0     H84052   3.731   8.091   4.550 -0.9093 -0.4212 -1.8535
  637MOL0     H84053   3.804   7.952   4.617 -1.4560 -0.2141 -0.9108
  637MOL0     H84054   3.893   7.880   4.389  0.8120  1.5156 -0.6510
  637MOL0     H84055   3.818   8.022   4.314  1.0337  0.8122  1.0788
  637MOL0     H84056   3.691   7.778   4.453 -1.1682 -0.8240 -0.0803
  637MOL0     H84057   3.594   7.916   4.408  1.0398  1.0345  1.6878
  637MOL0     H84058   3.750   7.741   4.212  1.0119  0.7188 -0.7042
  637MOL0     H84059   3.665   7.889   4.179  0.3270 -0.6218 -0.5615
  637MOL0     H84060   3.525   7.702   4.124 -0.5171  2.2000 -0.4881
  637MOL0     H84061   3.466   7.797   4.259  0.8283  0.8972  0.4032
  637MOL0     H84062   3.633   7.542   4.325  0.2466  1.4443 -1.4375
  637MOL0     H84063   3.516   7.639   4.412 -1.1887  2.2562 -1.0233
  637MOL0     H84064   3.332   7.567   4.266 -0.6111 -1.6161  1.3330
  637MOL0     H84065   3.412   7.430   4.352 -0.6851  0.5452  0.1733
  637MOL0     H84066   4.272   7.952   4.548 -0.8613  0.6006 -0.4115
  637MOL0     H84067   4.483   8.055   4.674 -0.1149  0.4656 -0.7955
  637MOL0     H84068   4.749   8.498   4.782  0.0047 -0.6764 -1.5657
  637MOL0     H84069   4.952   8.506   4.894 -0.6236  0.0769 -1.6386
  637MOL0     H84070   6.856   7.677   5.238  0.9453  2.4099 -0.7652
  637MOL0     H84071   6.951   7.519   5.075 -2.1558 -1.4241  0.7910
  637MOL0     H84072   6.869   7.310   4.706 -0.4870 -1.3847 -1.0454
  637MOL0     H84073   6.904   7.116   4.581 -0.2820 -1.2495  0.3950
  637MOL0     H84074   7.178   7.137   4.301  0.3060  0.2011 -0.1072
  637MOL0     H84075   7.015   7.095   4.339  0.6510 -0.5346 -2.9722
  637MOL0     H84076   7.055   6.854   4.325 -0.1367  0.2391  1.2130
  637MOL0     H84077   7.089   6.936   4.172 -0.3168  2.6526 -0.0918
  637MOL0     H84078   7.305   6.833   4.365 -2.0917  1.3268  0.9237
  637MOL0     H84079   7.333   6.961   4.247 -1.6991  1.6031 -0.8454
  637MOL0     H84080   7.251   6.817   4.061 -2.9553  0.1566  1.4863
  637MOL0     H84081   7.402   6.751   4.119  0.0507  1.8229 -3.4543
  637MOL0     H84082   7.158   6.434   4.201 -2.2102  0.2730 -1.4200
  637MOL0     H84083   7.330   7.215   4.563 -0.5192 -0.7387 -1.9997
  637MOL0     H84084   7.303   7.403   4.719  1.3137 -2.0982  0.5531
  638MOL0     O84085   6.471   1.895   2.497  0.4395  0.4317 -0.2456
  638MOL0     C84086   6.504   1.979   2.413  0.7516 -0.2133 -0.6224
  638MOL0     O84087   6.414   2.061   2.343  0.1099 -0.4416 -0.1275
  638MOL0     C84088   6.277   2.042   2.360  0.0642  0.0952 -0.0794
  638MOL0     C84089   6.197   2.110   2.450  0.3432 -0.0621 -0.0662
  638MOL0     C84090   6.059   2.091   2.451  0.9119 -0.4154  0.1028
  638MOL0     C84091   5.998   1.999   2.365 -0.7182  0.4607 -0.3229
  638MOL0     O84092   5.869   1.977   2.378  0.0963  0.1641 -0.0825
  638MOL0     C84093   5.772   2.073   2.320 -0.7756  0.3879 -0.1909
  638MOL0     C84094   5.638   2.059   2.384  1.1680 -0.0660  0.3570
  638MOL0     C84095   5.539   2.169   2.342 -0.2276 -0.2917  0.2806
  638MOL0     C84096   5.403   2.158   2.400  0.1514 -0.0465 -0.0635
  638MOL0     C84097   5.329   2.292   2.375 -0.2391  0.3970 -1.1688
  638MOL0     C84098   5.182   2.297   2.414  0.8421 -0.4130  0.6405
  638MOL0     C84099   5.085   2.213   2.330  1.2509 -0.0807 -0.1591
  638MOL0     C84100   5.053   2.244   2.182 -0.1032 -0.2692  0.3622
  638MOL0     N84101   5.008   2.121   2.115  1.1043 -0.1850 -0.0351
  638MOL0     C84102   4.882   2.073   2.142  0.7194 -0.1143  0.5971
  638MOL0     C84103   4.870   1.969   2.062 -0.3900  0.7068 -0.0959
  638MOL0     C84104   4.747   1.881   2.060 -0.4278 -0.4433 -0.2560
  638MOL0     C84105   4.776   1.744   2.123  0.3025 -0.4196  0.3486
  638MOL0     C84106   4.778   1.750   2.279  0.8684  0.5326  0.1484
  638MOL0     C84107   4.638   1.757   2.341  0.0546  0.6833 -0.4666
  638MOL0     O84108   4.643   1.786   2.484  0.3497  0.3158 -0.6522
  638MOL0     C84109   4.521   1.807   2.544 -0.1891  0.0391 -0.6737
  638MOL0     C84110   4.407   1.867   2.486  0.5606  0.6171  0.1702
  638MOL0     C84111   4.289   1.883   2.561 -1.0191 -0.7076 -0.6954
  638MOL0     C84112   4.282   1.839   2.701 -0.2294  0.9266  0.2340
  638MOL0     C84113   4.166   1.847   2.781  0.6032  0.8503 -0.1408
  638MOL0     O84114   4.072   1.930   2.726  0.2633 -0.1519 -0.9249
  638MOL0     C84115   3.943   1.947   2.786  0.1710  0.2476  0.3634
  638MOL0     C84116   3.903   1.952   2.916  0.1927 -0.8991 -0.6963
  638MOL0     C84117   3.765   1.965   2.964 -0.7673  0.6756 -0.0172
  638MOL0     C84118   3.662   1.970   2.871 -0.6334 -0.2414  0.2085
  638MOL0     O84119   3.527   1.971   2.900  0.0499 -0.0279  0.3828
  638MOL0     C84120   3.476   1.918   3.023 -0.7903  0.1384 -0.0693
  638MOL0     C84121   3.320   1.932   3.009  0.3091  0.0794  0.2153
  638MOL0     C84122   3.241   1.845   3.110 -0.5844 -0.0710  0.5959
  638MOL0     C84123   3.094   1.857   3.077  0.7508  0.0052 -0.0101
  638MOL0     C84124   3.007   1.784   3.186  0.0141 -0.4122  0.0341
  638MOL0     C84125   2.881   1.870   3.227  0.6310  0.5855 -0.2383
  638MOL0     C84126   2.803   1.833   3.353  0.0330 -0.4653 -0.1958
  638MOL0     C84127   2.884   1.824   3.478 -0.2496 -0.4434 -0.1864
  638MOL0    Cl84128   2.800   1.862   3.643 -0.0452 -0.1993 -0.0611
  638MOL0     C84129   3.705   1.958   2.737  0.4145 -0.4792  0.4408
  638MOL0     C84130   3.839   1.960   2.696 -0.6745  0.4303 -0.9056
  638MOL0     O84131   4.153   1.787   2.889 -0.0458 -0.0385 -0.8576
  638MOL0     C84132   4.398   1.780   2.747 -0.1000  0.1177  0.8367
  638MOL0     C84133   4.510   1.758   2.675 -0.1286 -0.1214  0.0699
  638MOL0     N84134   4.991   1.947   1.995 -0.4497  0.3594 -0.7005
  638MOL0     N84135   5.077   2.036   2.025 -0.8425  0.2355  0.6631
  638MOL0     C84136   6.078   1.935   2.272 -1.0951  0.3591  0.3857
  638MOL0     C84137   6.220   1.959   2.276  1.0195  0.4955  0.2897
  638MOL0     C84138   6.637   1.994   2.373 -0.7882 -0.3278  0.7114
  638MOL0     C84139   6.740   1.918   2.434 -0.4570 -0.0417  0.4543
  638MOL0     C84140   6.874   1.931   2.388  0.0064 -0.5666 -0.0890
  638MOL0     C84141   6.899   2.006   2.277 -0.1386 -0.8625 -0.9798
  638MOL0     O84142   7.029   2.005   2.239  0.3965  0.6067 -0.1650
  638MOL0     C84143   7.054   2.049   2.101 -0.8613  0.0999 -0.3303
  638MOL0     C84144   7.198   2.023   2.058 -0.3858 -0.2664 -0.3138
  638MOL0     C84145   7.227   2.115   1.933  0.6313 -0.2988  0.4663
  638MOL0     C84146   7.135   2.118   1.806  0.7069 -0.5228 -0.4113
  638MOL0     C84147   7.004   2.188   1.833 -0.6970 -0.5001 -0.4676
  638MOL0     C84148   6.906   2.252   1.843  0.9736 -0.2287  0.5635
  638MOL0     C84149   6.802   2.096   2.223 -0.4900  0.0579 -0.6239
  638MOL0     C84150   6.671   2.083   2.264 -0.5752 -0.6865 -0.1296
  638MOL0     H84151   6.243   2.174   2.525 -2.0000 -0.7409  2.0753
  638MOL0     H84152   6.004   2.154   2.521  2.7890 -0.6056  1.8460
  638MOL0     H84153   5.754   2.050   2.215  0.5318 -2.2301  0.0873
  638MOL0     H84154   5.808   2.176   2.330  2.8022 -0.8084  0.5435
  638MOL0     H84155   5.649   2.059   2.492  0.5696  0.0216  0.4220
  638MOL0     H84156   5.600   1.964   2.346  1.4215  0.7086 -2.0061
  638MOL0     H84157   5.524   2.172   2.234 -0.1776  1.2146  0.2926
  638MOL0     H84158   5.578   2.267   2.374  0.8963 -0.0943 -1.5378
  638MOL0     H84159   5.353   2.073   2.353  0.9479  0.7341 -2.4470
  638MOL0     H84160   5.418   2.134   2.506 -0.6062  0.0489  0.0760
  638MOL0     H84161   5.338   2.313   2.268 -2.9914 -0.6960 -1.7013
  638MOL0     H84162   5.370   2.373   2.436 -2.1174 -1.4321  2.9180
  638MOL0     H84163   5.138   2.397   2.408 -0.2011 -0.9031 -0.2388
  638MOL0     H84164   5.177   2.279   2.521 -3.9340  1.6908  1.0244
  638MOL0     H84165   5.113   2.107   2.328 -1.3668 -0.8455  0.4151
  638MOL0     H84166   4.988   2.217   2.381  0.3513 -1.1918 -1.7089
  638MOL0     H84167   5.142   2.281   2.131  0.8081 -4.1754 -1.1903
  638MOL0     H84168   4.974   2.320   2.190 -0.8228 -1.1088  1.7356
  638MOL0     H84169   4.800   2.109   2.203  2.1261  0.0727  2.4933
  638MOL0     H84170   4.712   1.856   1.960 -1.6214  0.1593 -0.0160
  638MOL0     H84171   4.658   1.930   2.101 -0.3769  1.4419 -2.1942
  638MOL0     H84172   4.873   1.701   2.094  1.3976  1.2211  1.3788
  638MOL0     H84173   4.700   1.676   2.085 -1.3927  0.8082  1.4190
  638MOL0     H84174   4.819   1.654   2.310  2.1969  0.9275 -0.3232
  638MOL0     H84175   4.836   1.835   2.316 -0.6659  1.1298  1.3287
  638MOL0     H84176   4.600   1.654   2.335 -0.4712  0.8873 -0.6405
  638MOL0     H84177   4.580   1.836   2.294 -1.3412  1.3850  2.2061
  638MOL0     H84178   4.412   1.917   2.390  0.9432 -0.0176 -0.1408
  638MOL0     H84179   4.203   1.933   2.517  0.7861  1.3205 -2.1100
  638MOL0     H84180   3.979   1.949   2.993 -0.9380 -0.9544  0.4393
  638MOL0     H84181   3.733   1.968   3.068 -4.3093 -2.4875 -0.8084
  638MOL0     H84182   3.523   1.964   3.110 -1.4406 -0.1508  0.4373
  638MOL0     H84183   3.515   1.815   3.023 -0.5352  0.1705  2.3928
  638MOL0     H84184   3.305   1.892   2.908 -1.3871  0.0333  0.4487
  638MOL0     H84185   3.286   2.036   3.003  1.7040  0.4921 -1.2668
  638MOL0     H84186   3.259   1.872   3.215  1.5407 -2.4549  0.9468
  638MOL0     H84187   3.274   1.741   3.099  1.0634  0.5607 -0.8885
  638MOL0     H84188   3.056   1.958   3.059 -3.3837 -1.5512 -1.2825
  638MOL0     H84189   3.079   1.799   2.985 -1.7335 -4.5636  2.9051
  638MOL0     H84190   3.061   1.776   3.280 -3.0136  0.2258  1.9483
  638MOL0     H84191   2.976   1.684   3.155  4.4022 -2.2466  0.8034
  638MOL0     H84192   2.804   1.848   3.152 -2.0756 -0.3763  2.5882
  638MOL0     H84193   2.904   1.977   3.224  1.4080  0.3998 -1.8320
  638MOL0     H84194   2.720   1.899   3.381 -1.1527 -3.5015  4.8504
  638MOL0     H84195   2.757   1.736   3.329 -3.6126  1.3201 -1.1158
  638MOL0     H84196   2.962   1.900   3.469 -0.7390  0.3386  1.5919
  638MOL0     H84197   2.928   1.724   3.480 -0.2537 -0.4433 -0.0059
  638MOL0     H84198   3.628   1.939   2.663 -0.0510 -0.2380  0.8525
  638MOL0     H84199   3.850   1.952   2.588  0.5755  1.4023 -0.8828
  638MOL0     H84200   4.398   1.741   2.848  2.9679  0.5069  1.1059
  638MOL0     H84201   4.591   1.709   2.729 -0.1709  0.2975  0.5192
  638MOL0     H84202   6.045   1.869   2.192  1.0343 -0.4962  0.1521
  638MOL0     H84203   6.283   1.918   2.197  0.9231  0.2122  0.3595
  638MOL0     H84204   6.716   1.865   2.526 -0.7767  2.0799  1.6683
  638MOL0     H84205   6.960   1.881   2.432  0.7397  1.3154  0.6940
  638MOL0     H84206   7.036   2.156   2.086 -1.2759 -0.1216 -1.5834
  638MOL0     H84207   6.999   1.992   2.026 -0.2566  2.1113 -2.4233
  638MOL0     H84208   7.272   2.046   2.136 -0.0210 -0.7674 -0.5044
  638MOL0     H84209   7.225   1.917   2.051 -0.3427 -0.3597  0.9975
  638MOL0     H84210   7.329   2.081   1.913 -0.2865 -3.4811  0.6586
  638MOL0     H84211   7.232   2.220   1.962 -4.0176 -0.1790  1.6431
  638MOL0     H84212   7.191   2.158   1.721 -1.6047 -0.0440 -1.8072
  638MOL0     H84213   7.098   2.019   1.779  1.3810 -0.8842 -0.0333
  638MOL0     H84214   6.817   2.312   1.843  0.6628 -0.5452 -2.2927
  638MOL0     H84215   6.818   2.157   2.134 -0.5599 -0.9586 -1.3591
  638MOL0     H84216   6.599   2.157   2.229  4.0517  2.1693 -5.0456
  639MOL0     O84217   1.559   3.854   3.290 -0.6315 -0.0544  0.0898
  639MOL0     C84218   1.577   3.834   3.167  0.5061 -0.4298  0.1302
  639MOL0     O84219   1.489   3.865   3.070 -0.1391  0.3630  0.2168
  639MOL0     C84220   1.372   3.930   3.085  0.1672 -0.8530  0.6314
  639MOL0     C84221   1.359   4.043   3.170 -0.0448 -0.1747  0.0519
  639MOL0     C84222   1.244   4.117   3.162  0.0132 -0.5176  0.4277
  639MOL0     C84223   1.126   4.075   3.108  0.5846  0.1556  0.2534
  639MOL0     O84224   1.009   4.150   3.142 -0.3243  1.1302 -0.5526
  639MOL0     C84225   0.888   4.097   3.097 -0.5099 -0.5377 -0.1938
  639MOL0     C84226   0.765   4.166   3.152 -0.0534 -0.2248  0.4934
  639MOL0     C84227   0.644   4.145   3.069  0.1652 -0.4093  1.1162
  639MOL0     C84228   0.562   4.279   3.073  0.4726 -0.2471  0.6102
  639MOL0     C84229   0.414   4.260   3.031  0.1647  0.3223 -0.6782
  639MOL0     C84230   0.339   4.393   3.066  0.2375  0.4539  0.5417
  639MOL0     C84231   0.193   4.383   3.030 -1.1409  0.4607 -0.4298
  639MOL0     C84232   0.160   4.363   2.881 -0.5757 -0.0388 -0.3813
  639MOL0     N84233   0.020   4.392   2.859  0.1383  0.2998  0.3683
  639MOL0     C84234  -0.040   4.516   2.855 -0.1244 -0.5445 -0.1141
  639MOL0     C84235  -0.168   4.494   2.810 -0.1870 -0.5108 -0.3030
  639MOL0     C84236  -0.279   4.596   2.789 -0.7997  0.4397  0.5191
  639MOL0     C84237  -0.353   4.601   2.921  0.0775  0.8461  0.8458
  639MOL0     C84238  -0.482   4.513   2.916 -1.0402 -0.0489 -0.2875
  639MOL0     C84239  -0.567   4.512   3.044 -0.0337 -0.5497 -0.4695
  639MOL0     O84240  -0.693   4.463   3.010  0.5012  0.5833 -0.3869
  639MOL0     C84241  -0.780   4.449   3.123 -0.0464 -0.1979  0.3343
  639MOL0     C84242  -0.759   4.469   3.264  1.0470 -0.1905 -0.1610
  639MOL0     C84243  -0.859   4.454   3.360 -0.0675 -0.8533  0.4081
  639MOL0     C84244  -0.989   4.414   3.325  1.1229 -0.7802  0.6672
  639MOL0     C84245  -1.101   4.415   3.420  0.6262 -0.3743  0.8319
  639MOL0     O84246  -1.226   4.395   3.380  0.0034 -0.1914  0.1223
  639MOL0     C84247  -1.325   4.362   3.470  1.0522  0.1894  0.4172
  639MOL0     C84248  -1.323   4.293   3.592 -0.7124  0.2066 -0.2897
  639MOL0     C84249  -1.434   4.265   3.676  0.6362  0.2620  0.2454
  639MOL0     C84250  -1.556   4.317   3.643  0.5317 -0.4322  0.3747
  639MOL0     O84251  -1.655   4.316   3.744 -0.3425  0.5618 -0.1478
  639MOL0     C84252  -1.733   4.437   3.742  0.1046  1.2714 -0.0358
  639MOL0     C84253  -1.834   4.427   3.858 -0.0446 -0.4359  0.5395
  639MOL0     C84254  -1.771   4.406   4.000  0.1194  0.4146 -0.3093
  639MOL0     C84255  -1.885   4.412   4.097  0.1417  0.4032  0.7757
  639MOL0     C84256  -1.833   4.366   4.230  0.5302  0.1518 -0.4741
  639MOL0     C84257  -1.938   4.377   4.341  0.5902 -0.2902 -0.2559
  639MOL0     C84258  -1.899   4.278   4.453  0.2183 -0.6188  0.9647
  639MOL0     C84259  -2.015   4.226   4.541  0.1793 -0.3345  0.2115
  639MOL0    Cl84260  -2.145   4.346   4.575 -0.7948  0.8804 -0.0403
  639MOL0     C84261  -1.569   4.375   3.512 -0.0197 -0.4322 -0.5385
  639MOL0     C84262  -1.452   4.398   3.427 -0.3932  0.5389 -1.0991
  639MOL0     O84263  -1.063   4.430   3.538 -0.2802  0.0726  0.0990
  639MOL0     C84264  -1.014   4.404   3.190 -0.3786  0.5817 -0.1305
  639MOL0     C84265  -0.910   4.435   3.094 -0.8369  0.8158 -0.3811
  639MOL0     N84266  -0.178   4.359   2.791  0.1459 -0.1918  0.4798
  639MOL0     N84267  -0.064   4.296   2.823 -0.2294 -0.9654  1.3254
  639MOL0     C84268   1.126   3.958   3.026 -0.9505 -0.5971  0.2325
  639MOL0     C84269   1.255   3.901   3.010  0.9034  1.4833 -0.1125
  639MOL0     C84270   1.710   3.783   3.127  0.5029  1.0113 -1.5226
  639MOL0     C84271   1.779   3.708   3.226  0.4301  0.2656 -0.6153
  639MOL0     C84272   1.897   3.642   3.189 -0.1597 -0.3851 -0.0827
  639MOL0     C84273   1.951   3.646   3.063 -0.3767  0.2057  0.6633
  639MOL0     O84274   2.065   3.579   3.031  0.4731  0.4358 -0.2340
  639MOL0     C84275   2.144   3.524   3.138  1.3638 -0.3059  0.9543
  639MOL0     C84276   2.272   3.468   3.076  0.6358  0.9810 -0.5881
  639MOL0     C84277   2.381   3.564   3.027  0.0357  0.5529 -0.3953
  639MOL0     C84278   2.410   3.689   3.112 -0.1952 -0.7330  0.0715
  639MOL0     C84279   2.448   3.666   3.249 -0.1618  0.2760 -0.1577
  639MOL0     C84280   2.463   3.660   3.370  0.0565 -0.0108 -0.0891
  639MOL0     C84281   1.892   3.729   2.963 -0.1825 -0.1780 -0.5496
  639MOL0     C84282   1.771   3.793   3.001  0.0445 -0.0867  0.2240
  639MOL0     H84283   1.443   4.087   3.223 -0.0967  1.2538 -0.9840
  639MOL0     H84284   1.226   4.201   3.230 -1.1797 -1.3688  1.2061
  639MOL0     H84285   0.871   3.991   3.120  0.3478 -1.7478 -4.2255
  639MOL0     H84286   0.883   4.113   2.989 -2.3717 -0.5738 -0.1393
  639MOL0     H84287   0.786   4.273   3.147  0.7682 -0.4243 -1.0250
  639MOL0     H84288   0.745   4.130   3.254 -0.3308 -1.0818  0.1470
  639MOL0     H84289   0.586   4.059   3.106  0.4820 -1.2540 -0.2762
  639MOL0     H84290   0.669   4.115   2.967  1.0777 -3.8555  2.1959
  639MOL0     H84291   0.567   4.318   3.175  1.6442  2.5274 -0.4114
  639MOL0     H84292   0.613   4.357   3.015 -0.6129 -0.7149 -1.0378
  639MOL0     H84293   0.368   4.182   3.093  0.6405  0.1941 -0.4847
  639MOL0     H84294   0.402   4.227   2.927 -1.0986  0.2531 -0.5211
  639MOL0     H84295   0.385   4.476   3.012  0.7273 -0.5481 -0.6211
  639MOL0     H84296   0.344   4.409   3.174 -1.6831  0.0053  0.7413
  639MOL0     H84297   0.142   4.308   3.091  2.5243 -1.3399  0.6961
  639MOL0     H84298   0.145   4.478   3.058 -0.9634  0.6154 -0.6414
  639MOL0     H84299   0.188   4.262   2.848  0.5139  0.3510 -0.6950
  639MOL0     H84300   0.221   4.433   2.823 -2.8842  0.7039 -2.0359
  639MOL0     H84301   0.008   4.607   2.891 -0.6670 -0.2030 -0.2428
  639MOL0     H84302  -0.353   4.568   2.713  0.8444 -0.2523 -0.9192
  639MOL0     H84303  -0.228   4.691   2.770 -0.3395 -0.2212 -1.9624
  639MOL0     H84304  -0.373   4.706   2.942  0.8808  0.8044  1.8925
  639MOL0     H84305  -0.296   4.564   3.007 -0.9828  1.5937  1.9078
  639MOL0     H84306  -0.552   4.545   2.839 -3.3548  0.1049  1.7480
  639MOL0     H84307  -0.450   4.411   2.891  1.1812  1.1109 -2.5737
  639MOL0     H84308  -0.578   4.607   3.097  1.3917 -0.8771  0.4516
  639MOL0     H84309  -0.510   4.449   3.113  2.5472  3.4149  1.3590
  639MOL0     H84310  -0.665   4.515   3.292  0.2000  1.0685  0.6843
  639MOL0     H84311  -0.839   4.481   3.463 -0.3271  2.7381 -0.3414
  639MOL0     H84312  -1.236   4.244   3.634 -1.4422  0.0371  1.0820
  639MOL0     H84313  -1.433   4.206   3.766 -2.4457 -5.0188 -2.6860
  639MOL0     H84314  -1.781   4.441   3.644 -0.5844 -1.7328  0.0748
  639MOL0     H84315  -1.669   4.522   3.768 -0.7857  1.7582  0.5803
  639MOL0     H84316  -1.900   4.343   3.838 -1.9100  1.1710 -0.3250
  639MOL0     H84317  -1.903   4.510   3.870  1.1616  0.4530  1.7330
  639MOL0     H84318  -1.696   4.482   4.023  0.9295 -0.7409  1.0138
  639MOL0     H84319  -1.721   4.309   4.004 -3.9182 -1.8630  0.5283
  639MOL0     H84320  -1.916   4.516   4.111 -0.5569 -0.0659  3.3849
  639MOL0     H84321  -1.972   4.350   4.074  0.3596  0.5397 -0.4707
  639MOL0     H84322  -1.737   4.404   4.266  1.8639 -1.4598 -2.1545
  639MOL0     H84323  -1.821   4.258   4.214 -1.1527 -0.4813  1.8159
  639MOL0     H84324  -2.038   4.343   4.313  0.6551 -0.4542 -0.2866
  639MOL0     H84325  -1.947   4.478   4.382 -0.6416  0.4793 -2.2649
  639MOL0     H84326  -1.852   4.191   4.406 -2.1554 -1.0044 -0.9212
  639MOL0     H84327  -1.838   4.338   4.521 -3.0485  2.0217  1.8625
  639MOL0     H84328  -1.969   4.197   4.637  2.0034 -2.1672 -1.1262
  639MOL0     H84329  -2.050   4.136   4.489  0.6427  1.0728 -2.7426
  639MOL0     H84330  -1.663   4.417   3.478  1.5046  0.9920 -3.3876
  639MOL0     H84331  -1.461   4.447   3.330 -1.3083  2.2987 -0.1756
  639MOL0     H84332  -1.112   4.382   3.149 -0.9159 -0.2647  1.5624
  639MOL0     H84333  -0.931   4.438   2.988 -0.5118  2.6008 -0.4188
  639MOL0     H84334   1.047   3.913   2.966 -0.1747 -3.2022  0.9979
  639MOL0     H84335   1.277   3.808   2.958 -0.7706  1.4028 -0.7087
  639MOL0     H84336   1.744   3.701   3.329  0.9697 -0.7217 -0.4914
  639MOL0     H84337   1.946   3.579   3.262 -1.2961 -2.8317 -1.3007
  639MOL0     H84338   2.093   3.440   3.187  1.3729 -1.6043 -1.1435
  639MOL0     H84339   2.164   3.599   3.215 -1.9054  1.0419  0.6652
  639MOL0     H84340   2.324   3.424   3.162  0.7167  1.3269 -0.4577
  639MOL0     H84341   2.263   3.389   3.000  1.5361  1.7780 -1.5397
  639MOL0     H84342   2.354   3.600   2.928 -0.2259  0.2390 -0.4387
  639MOL0     H84343   2.470   3.503   3.010 -0.0693  1.0361 -3.0268
  639MOL0     H84344   2.491   3.749   3.070  1.0211 -1.6158  1.0689
  639MOL0     H84345   2.320   3.750   3.117  0.4593  0.2107  0.8675
  639MOL0     H84346   2.464   3.649   3.476  1.1621  2.7268  0.2729
  639MOL0     H84347   1.931   3.735   2.862 -1.2129  1.1306 -0.8927
  639MOL0     H84348   1.711   3.850   2.932  0.8793 -0.9548 -1.2731
  640MOL0     O84349   8.135   5.593   1.095  0.0326  0.3266 -0.7423
  640MOL0     C84350   8.172   5.697   1.141  0.0207 -1.1732 -1.0974
  640MOL0     O84351   8.097   5.786   1.212 -0.1295  0.2210  0.2362
  640MOL0     C84352   7.960   5.757   1.204  0.1957 -0.4202  0.2145
  640MOL0     C84353   7.882   5.789   1.095 -0.2087 -0.1026  0.3771
  640MOL0     C84354   7.755   5.738   1.087  0.2087  0.0735  0.8413
  640MOL0     C84355   7.693   5.662   1.189  0.4165  0.2275 -0.0538
  640MOL0     O84356   7.557   5.628   1.178 -0.2159  0.2641 -0.0712
  640MOL0     C84357   7.486   5.626   1.298  0.3798  0.4645 -0.0682
  640MOL0     C84358   7.336   5.594   1.273  0.0678 -0.4274  0.4849
  640MOL0     C84359   7.315   5.445   1.239 -0.2067 -0.5329  0.9051
  640MOL0     C84360   7.176   5.419   1.182 -0.3481 -0.3083 -0.0990
  640MOL0     C84361   7.138   5.499   1.050 -0.0062 -0.1338 -1.0020
  640MOL0     C84362   7.001   5.459   0.999 -0.6390  0.6873 -0.0888
  640MOL0     C84363   6.973   5.542   0.873  0.2180  0.3723 -0.3539
  640MOL0     C84364   6.834   5.517   0.808  0.3945 -0.4568 -0.1786
  640MOL0     N84365   6.728   5.604   0.872 -0.8330  0.2295  0.0366
  640MOL0     C84366   6.648   5.579   0.970  0.8374 -0.1248 -0.4599
  640MOL0     C84367   6.565   5.683   0.980  0.5909  0.4646 -0.7465
  640MOL0     C84368   6.457   5.703   1.078 -0.2042 -0.6000 -0.2689
  640MOL0     C84369   6.342   5.772   1.008 -0.2544  0.4082  0.6063
  640MOL0     C84370   6.200   5.756   1.079  0.5645 -0.7547 -0.2864
  640MOL0     C84371   6.105   5.850   1.003  0.2991 -0.4075  0.3908
  640MOL0     O84372   5.969   5.816   1.030  0.4236 -0.5078  0.1122
  640MOL0     C84373   5.883   5.875   1.112 -0.1958 -0.6049 -0.1640
  640MOL0     C84374   5.919   5.971   1.206  0.0235 -0.3708 -0.3035
  640MOL0     C84375   5.818   6.045   1.277 -0.5422 -0.8288  1.1848
  640MOL0     C84376   5.684   6.010   1.268  0.4155 -0.3668  0.4766
  640MOL0     C84377   5.582   6.073   1.346  0.1518  0.4570  0.0078
  640MOL0     O84378   5.452   6.031   1.341 -0.0008 -0.6669 -0.0535
  640MOL0     C84379   5.353   6.090   1.419  0.2274 -0.0832 -1.5409
  640MOL0     C84380   5.254   6.004   1.464 -0.0062  0.7366 -0.5382
  640MOL0     C84381   5.146   6.049   1.547 -0.6471  0.2251  0.3005
  640MOL0     C84382   5.140   6.180   1.583 -0.3421 -0.2669 -0.4610
  640MOL0     O84383   5.045   6.208   1.678  1.0742 -0.0489 -0.4511
  640MOL0     C84384   5.027   6.347   1.721 -0.4120 -0.8663  0.4824
  640MOL0     C84385   4.914   6.382   1.819  0.2403 -0.0092  0.6321
  640MOL0     C84386   4.787   6.318   1.775 -0.1792 -0.0907 -0.0195
  640MOL0     C84387   4.668   6.361   1.865 -0.5601  0.1078  0.4247
  640MOL0     C84388   4.530   6.345   1.804  0.0988 -0.1139 -0.0425
  640MOL0     C84389   4.425   6.400   1.903  0.4392 -0.5442 -0.5381
  640MOL0     C84390   4.292   6.432   1.832 -0.3234  0.2764 -0.2620
  640MOL0     C84391   4.171   6.445   1.914 -0.6339  0.1388  0.4294
  640MOL0    Cl84392   4.046   6.534   1.836 -0.0463  0.1609 -0.0517
  640MOL0     C84393   5.230   6.276   1.533 -0.4513  0.1451  0.8948
  640MOL0     C84394   5.344   6.225   1.462  0.2222 -0.1350 -0.1832
  640MOL0     O84395   5.622   6.158   1.430  0.0379 -0.2139  0.4788
  640MOL0     C84396   5.652   5.913   1.164 -0.4384  0.2472  0.3809
  640MOL0     C84397   5.750   5.843   1.099  0.1272 -0.0298  1.0017
  640MOL0     N84398   6.598   5.787   0.892 -0.1749  0.5947 -0.1720
  640MOL0     N84399   6.703   5.734   0.828  0.8454 -0.3197 -0.5263
  640MOL0     C84400   7.770   5.655   1.309  0.1843 -0.1291  0.2901
  640MOL0     C84401   7.903   5.699   1.317 -0.6243 -0.4572 -0.2540
  640MOL0     C84402   8.315   5.736   1.129  0.0285 -0.0859  0.8395
  640MOL0     C84403   8.371   5.858   1.178  0.2620 -0.0798  0.6461
  640MOL0     C84404   8.507   5.879   1.178 -0.1827 -0.0466 -0.1281
  640MOL0     C84405   8.583   5.797   1.091 -0.4102  0.0193  0.5587
  640MOL0     O84406   8.707   5.838   1.072 -0.2002  0.1521 -0.6525
  640MOL0     C84407   8.779   5.778   0.959 -0.0012 -0.3812 -0.5101
  640MOL0     C84408   8.900   5.858   0.910  0.6399  0.5273 -1.2246
  640MOL0     C84409   8.854   5.996   0.860 -0.2937 -0.0384 -0.8491
  640MOL0     C84410   8.849   6.101   0.970  0.0854 -0.5011 -0.2700
  640MOL0     C84411   8.981   6.120   1.027  0.5228 -0.0118 -0.0085
  640MOL0     C84412   9.087   6.149   1.087 -0.8513  0.6209  0.6643
  640MOL0     C84413   8.525   5.681   1.032  1.1347 -0.2791  0.2216
  640MOL0     C84414   8.396   5.638   1.066 -0.3704 -1.1309 -0.2571
  640MOL0     H84415   7.923   5.848   1.014  1.1634 -1.1409  0.2728
  640MOL0     H84416   7.714   5.725   0.987 -1.4332  2.9482  1.0075
  640MOL0     H84417   7.494   5.716   1.359  3.4909  0.0145  0.3439
  640MOL0     H84418   7.529   5.552   1.366  2.4245  0.3831 -1.3701
  640MOL0     H84419   7.314   5.668   1.195  3.0579 -0.1325 -0.1817
  640MOL0     H84420   7.269   5.613   1.358 -0.6129 -1.9522  0.3365
  640MOL0     H84421   7.333   5.394   1.334 -0.0999 -0.1105  1.1174
  640MOL0     H84422   7.386   5.408   1.164 -0.9336  0.1664 -0.1559
  640MOL0     H84423   7.157   5.314   1.160  0.2509 -0.1433 -1.5307
  640MOL0     H84424   7.107   5.448   1.261 -0.2759  0.9788 -0.4750
  640MOL0     H84425   7.212   5.484   0.970  2.3107  0.5355  0.8935
  640MOL0     H84426   7.140   5.608   1.061  0.1448 -0.3730  2.1602
  640MOL0     H84427   6.915   5.471   1.066 -3.0425 -0.4695 -2.7168
  640MOL0     H84428   7.012   5.356   0.964  1.8868  0.5652  0.9305
  640MOL0     H84429   6.973   5.649   0.893 -0.1796  0.2840  0.1514
  640MOL0     H84430   7.054   5.518   0.804  0.5330 -4.7774  1.3972
  640MOL0     H84431   6.811   5.411   0.821 -1.4897 -0.1715 -0.8461
  640MOL0     H84432   6.830   5.532   0.700 -1.9540  1.4294  0.0898
  640MOL0     H84433   6.642   5.484   1.023  1.0143  0.6460  0.9897
  640MOL0     H84434   6.488   5.756   1.168  0.6794  0.3535 -1.1095
  640MOL0     H84435   6.423   5.605   1.113  2.7415 -1.8071 -0.5038
  640MOL0     H84436   6.343   5.744   0.903 -1.7674 -0.7772  0.8760
  640MOL0     H84437   6.370   5.878   1.003  2.3608 -0.2680 -2.5158
  640MOL0     H84438   6.172   5.650   1.079 -0.6210 -0.4644  1.0892
  640MOL0     H84439   6.209   5.779   1.185 -3.6325 -1.6533  0.4225
  640MOL0     H84440   6.127   5.837   0.897 -1.4224 -0.2859 -0.0031
  640MOL0     H84441   6.118   5.955   1.030 -1.1065  0.2239 -1.1880
  640MOL0     H84442   6.022   5.997   1.227 -0.1455  1.5812 -1.5727
  640MOL0     H84443   5.851   6.124   1.344  1.4700 -0.5231 -0.0791
  640MOL0     H84444   5.261   5.896   1.457  1.7150  0.7010  0.8901
  640MOL0     H84445   5.074   5.988   1.601 -1.0530  1.1276  0.7957
  640MOL0     H84446   5.004   6.401   1.629 -1.5003 -3.2629 -0.7554
  640MOL0     H84447   5.120   6.392   1.756  0.3505  0.7508 -3.2015
  640MOL0     H84448   4.905   6.490   1.804 -0.1203 -0.2566 -1.1556
  640MOL0     H84449   4.951   6.355   1.918  0.0352  0.8485  0.9557
  640MOL0     H84450   4.797   6.209   1.779 -1.4997 -0.2048  3.2216
  640MOL0     H84451   4.767   6.352   1.673 -1.2757  1.1114  0.5716
  640MOL0     H84452   4.677   6.316   1.965  2.3114  0.7214  0.5337
  640MOL0     H84453   4.685   6.467   1.887  4.2594 -0.3577  0.0758
  640MOL0     H84454   4.510   6.242   1.773 -1.8543  0.3576 -0.5095
  640MOL0     H84455   4.545   6.405   1.714  0.7923  0.0207  0.1561
  640MOL0     H84456   4.454   6.497   1.947  0.7396 -0.2398 -1.3885
  640MOL0     H84457   4.414   6.333   1.988 -0.2609  0.0749 -0.1311
  640MOL0     H84458   4.311   6.529   1.786  0.5509  0.2057 -0.0709
  640MOL0     H84459   4.277   6.357   1.754  0.0565  1.6937 -1.7520
  640MOL0     H84460   4.203   6.494   2.006  3.1620  2.1587 -1.7563
  640MOL0     H84461   4.138   6.344   1.941  1.0719 -0.7214 -0.5161
  640MOL0     H84462   5.229   6.376   1.575  1.3904 -0.3373  2.2476
  640MOL0     H84463   5.422   6.296   1.434  0.8071 -1.3285 -1.7054
  640MOL0     H84464   5.546   5.895   1.144 -0.4737  2.2770 -1.6752
  640MOL0     H84465   5.721   5.772   1.023 -1.0754  0.4658  0.9782
  640MOL0     H84466   7.713   5.623   1.396  1.7837 -0.0029  1.4233
  640MOL0     H84467   7.978   5.685   1.394  3.2778  2.2292 -3.1596
  640MOL0     H84468   8.313   5.935   1.227 -0.0292  0.0736  0.0670
  640MOL0     H84469   8.556   5.964   1.224  0.4845 -0.0506 -0.8021
  640MOL0     H84470   8.705   5.771   0.879 -1.9702 -0.1085  1.1798
  640MOL0     H84471   8.797   5.675   0.993  1.0138 -0.4084 -1.0793
  640MOL0     H84472   8.965   5.854   0.999  0.4060  0.7777 -1.0423
  640MOL0     H84473   8.950   5.798   0.833 -0.4326 -1.3606 -0.5299
  640MOL0     H84474   8.752   5.980   0.822 -0.4832 -1.7844  0.2969
  640MOL0     H84475   8.922   6.026   0.780 -0.2746 -0.8758 -1.1605
  640MOL0     H84476   8.807   6.186   0.915 -0.6900 -0.4361  0.4049
  640MOL0     H84477   8.775   6.078   1.047  1.9489  1.2591  2.2116
  640MOL0     H84478   9.163   6.182   1.156 -1.8311  0.1820  2.0076
  640MOL0     H84479   8.574   5.605   0.972 -1.4757 -1.1529 -0.9636
  640MOL0     H84480   8.354   5.548   1.023 -2.6575 -0.6464  0.8130
  641MOL0     O84481   8.361   9.568   8.981 -0.3768 -0.5331  0.2902
  641MOL0     C84482   8.480   9.557   8.947  0.1612  0.1866 -0.5101
  641MOL0     O84483   8.529   9.571   8.821  0.1593  0.3975 -0.8119
  641MOL0     C84484   8.468   9.662   8.742 -0.0564 -0.1861  0.5782
  641MOL0     C84485   8.477   9.635   8.610  0.3119 -0.3676 -0.2337
  641MOL0     C84486   8.441   9.721   8.507  0.1925 -0.1935 -0.3018
  641MOL0     C84487   8.398   9.846   8.541 -0.2196 -0.9925 -0.9881
  641MOL0     O84488   8.356   9.953   8.453  0.3896  0.0992  0.6210
  641MOL0     C84489   8.348   9.912   8.313  0.8245  0.0009  0.8577
  641MOL0     C84490   8.290  10.030   8.228 -0.2922 -0.5536 -0.2230
  641MOL0     C84491   8.140  10.059   8.258  1.4506  0.2406  0.0066
  641MOL0     C84492   8.039   9.942   8.260 -0.4882  0.4408  0.5711
  641MOL0     C84493   8.033   9.880   8.115  0.1119  0.4858 -1.0776
  641MOL0     C84494   7.910   9.786   8.102  0.0611 -0.1814 -0.3452
  641MOL0     C84495   7.905   9.728   7.963 -0.0219 -0.3191 -1.0646
  641MOL0     C84496   7.799   9.618   7.953  0.3553 -0.9429 -0.8641
  641MOL0     N84497   7.665   9.671   7.964  0.2680 -0.2025 -0.4712
  641MOL0     C84498   7.608   9.759   7.870  0.2546 -0.8064  0.0266
  641MOL0     C84499   7.485   9.788   7.924 -0.2381 -0.4675  0.8274
  641MOL0     C84500   7.392   9.881   7.854  0.4166 -0.7915 -0.1372
  641MOL0     C84501   7.247   9.849   7.886 -0.1360  0.0957  0.2077
  641MOL0     C84502   7.173   9.748   7.794 -0.7752 -0.1662  0.0829
  641MOL0     C84503   7.027   9.749   7.819  0.7381 -0.1853 -1.0889
  641MOL0     O84504   6.963   9.675   7.712 -0.4174  0.0836 -0.6711
  641MOL0     C84505   6.836   9.635   7.742  0.4250  0.2230  0.2776
  641MOL0     C84506   6.782   9.544   7.656  1.0443  0.6044 -0.1710
  641MOL0     C84507   6.656   9.491   7.658 -0.4478  0.6216 -0.9425
  641MOL0     C84508   6.575   9.529   7.767  0.4309 -0.1890 -0.1914
  641MOL0     C84509   6.435   9.490   7.765  0.5214 -0.5882 -0.8641
  641MOL0     O84510   6.360   9.583   7.832  0.5773 -0.0874 -0.1223
  641MOL0     C84511   6.227   9.548   7.859  0.0669 -0.3210 -0.2947
  641MOL0     C84512   6.125   9.563   7.760 -0.4036 -0.1063 -0.2817
  641MOL0     C84513   6.005   9.502   7.786 -0.2391  0.2263  0.5734
  641MOL0     C84514   5.983   9.439   7.914  0.8466 -0.2028  0.7479
  641MOL0     O84515   5.857   9.393   7.951  0.6387  0.3350 -1.0088
  641MOL0     C84516   5.745   9.392   7.859  0.5452  0.6421 -0.3559
  641MOL0     C84517   5.618   9.333   7.934  0.4960  0.3556  0.4299
  641MOL0     C84518   5.490   9.361   7.852 -0.9651  0.4947 -0.2945
  641MOL0     C84519   5.363   9.302   7.917  0.2235 -0.2248 -0.2430
  641MOL0     C84520   5.235   9.355   7.854  0.2360  0.1082  0.0398
  641MOL0     C84521   5.110   9.315   7.929  0.1625 -0.2481 -0.5037
  641MOL0     C84522   4.984   9.390   7.875  0.0563  0.3903  0.4593
  641MOL0     C84523   4.846   9.336   7.937 -0.8371 -0.5429 -0.6216
  641MOL0    Cl84524   4.835   9.153   7.912  0.3110  0.1630  0.8046
  641MOL0     C84525   6.084   9.431   8.013  0.1333  0.8862  0.4632
  641MOL0     C84526   6.206   9.485   7.981 -1.0846 -0.0692 -0.2383
  641MOL0     O84527   6.401   9.387   7.703 -0.3877  0.9377 -0.5515
  641MOL0     C84528   6.627   9.623   7.859  0.6000 -0.2787  0.7218
  641MOL0     C84529   6.751   9.681   7.839 -0.2478  0.4052  0.5226
  641MOL0     N84530   7.473   9.714   8.045  0.5157 -0.0335  0.1152
  641MOL0     N84531   7.577   9.647   8.065 -0.4440  0.0896  0.0128
  641MOL0     C84532   8.397   9.884   8.682 -0.3227 -0.7950  0.5065
  641MOL0     C84533   8.419   9.786   8.773  0.8183 -0.5558 -0.0292
  641MOL0     C84534   8.572   9.500   9.049 -0.3672 -0.6558  0.0002
  641MOL0     C84535   8.706   9.465   9.021  0.6429 -0.4355 -0.6132
  641MOL0     C84536   8.788   9.416   9.119 -0.2202 -0.4904 -0.3234
  641MOL0     C84537   8.754   9.410   9.250  0.4651  0.2737  0.4074
  641MOL0     O84538   8.838   9.341   9.332 -0.2947 -0.0778 -0.5212
  641MOL0     C84539   8.807   9.364   9.469 -0.2679  0.5334 -0.6892
  641MOL0     C84540   8.924   9.320   9.558 -0.9396  0.1983 -0.4294
  641MOL0     C84541   9.035   9.429   9.563  0.8043  1.3355 -0.2147
  641MOL0     C84542   9.151   9.387   9.660 -0.6186 -1.1269  0.2041
  641MOL0     C84543   9.256   9.499   9.678  1.3961  0.5145  0.4322
  641MOL0     C84544   9.331   9.591   9.696  0.4182  0.0402  0.2885
  641MOL0     C84545   8.626   9.454   9.284  0.8687 -0.7693 -0.4468
  641MOL0     C84546   8.533   9.493   9.187 -0.3526 -0.0939 -0.4924
  641MOL0     H84547   8.519   9.540   8.577 -0.1605  0.5491 -3.9720
  641MOL0     H84548   8.449   9.685   8.405 -0.1432 -0.8752 -0.0928
  641MOL0     H84549   8.282   9.828   8.292 -0.0127  1.1855 -1.7222
  641MOL0     H84550   8.451   9.887   8.287  1.1938  0.1353  2.1192
  641MOL0     H84551   8.293  10.002   8.123  3.5007  1.4301 -0.8396
  641MOL0     H84552   8.370  10.102   8.249  1.3253 -2.1168 -0.8460
  641MOL0     H84553   8.090  10.123   8.184  0.4676  0.8205  1.1297
  641MOL0     H84554   8.130  10.116   8.351  0.0425  0.0011  0.0322
  641MOL0     H84555   8.089   9.871   8.326 -1.9074  0.8990  2.2317
  641MOL0     H84556   7.939   9.971   8.293  0.0132  2.3608  0.5639
  641MOL0     H84557   8.128   9.836   8.084 -1.0475 -1.9926 -1.3551
  641MOL0     H84558   8.014   9.960   8.043 -0.5004  0.6828 -0.7023
  641MOL0     H84559   7.819   9.840   8.129 -1.3242 -2.5729  0.0400
  641MOL0     H84560   7.921   9.708   8.178 -1.9430 -1.5514 -1.3614
  641MOL0     H84561   7.872   9.809   7.898  1.0790 -0.3468 -1.6811
  641MOL0     H84562   8.003   9.690   7.933  1.0437  2.4748 -1.4183
  641MOL0     H84563   7.818   9.534   8.020 -1.7013 -1.6265 -1.0668
  641MOL0     H84564   7.822   9.562   7.863  0.6417 -2.7153  0.2654
  641MOL0     H84565   7.648   9.802   7.779  1.4797 -1.1320  0.3924
  641MOL0     H84566   7.401   9.879   7.745 -1.5531  0.7214 -0.3712
  641MOL0     H84567   7.402   9.980   7.898 -3.2006 -0.8000  0.9921
  641MOL0     H84568   7.198   9.946   7.895  1.2843  1.1865 -2.5659
  641MOL0     H84569   7.252   9.805   7.986  0.2352  0.3607  0.3066
  641MOL0     H84570   7.187   9.786   7.693  0.4855 -0.2964  0.1907
  641MOL0     H84571   7.211   9.646   7.795  0.4100  0.2598 -0.2343
  641MOL0     H84572   6.997   9.854   7.817  2.5586  0.3863 -3.1071
  641MOL0     H84573   7.002   9.708   7.917  1.2323  1.4193 -0.2469
  641MOL0     H84574   6.843   9.497   7.579  2.1001 -0.2805  1.1662
  641MOL0     H84575   6.616   9.425   7.581 -2.2122 -3.1725  2.7756
  641MOL0     H84576   6.128   9.619   7.667 -2.6717 -2.0021 -1.6237
  641MOL0     H84577   5.933   9.509   7.705  1.8936 -0.0519 -1.4567
  641MOL0     H84578   5.775   9.337   7.769  2.3188  0.8993  0.0461
  641MOL0     H84579   5.728   9.495   7.826 -1.2368  0.8833  1.1730
  641MOL0     H84580   5.612   9.369   8.038 -0.9006  0.8324  0.2131
  641MOL0     H84581   5.613   9.224   7.940 -2.6671  0.3805 -0.0039
  641MOL0     H84582   5.520   9.316   7.757 -0.5053 -2.0828  0.9587
  641MOL0     H84583   5.482   9.469   7.845 -1.2790  0.4675 -0.3667
  641MOL0     H84584   5.364   9.193   7.924  0.2478 -0.1280  1.8269
  641MOL0     H84585   5.358   9.333   8.022  0.7091  2.2308 -0.8769
  641MOL0     H84586   5.225   9.330   7.748  2.6670  1.1052 -0.4711
  641MOL0     H84587   5.231   9.463   7.874 -1.4816 -0.0388  0.7450
  641MOL0     H84588   5.122   9.340   8.035  2.0997  1.0789 -0.9919
  641MOL0     H84589   5.088   9.209   7.917 -1.4829 -0.0567  0.4402
  641MOL0     H84590   4.994   9.498   7.872 -2.2595  0.6920  1.4488
  641MOL0     H84591   4.978   9.355   7.771 -1.7296 -0.3702  0.7823
  641MOL0     H84592   4.767   9.372   7.871  0.7039 -3.0240 -4.1670
  641MOL0     H84593   4.842   9.377   8.038  3.4798 -1.9541  0.3099
  641MOL0     H84594   6.068   9.376   8.105 -0.3390  1.1293  0.5260
  641MOL0     H84595   6.283   9.478   8.058  0.0547  4.7859 -0.6328
  641MOL0     H84596   6.566   9.658   7.941 -1.4257 -0.1159 -0.7682
  641MOL0     H84597   6.791   9.755   7.907 -0.7848  1.8509 -0.6779
  641MOL0     H84598   8.378   9.987   8.711 -0.8941 -0.6458 -0.3881
  641MOL0     H84599   8.418   9.817   8.877  1.6108 -1.1547  0.1587
  641MOL0     H84600   8.740   9.476   8.918 -0.1251 -1.6863 -1.0228
  641MOL0     H84601   8.886   9.376   9.093 -0.7732 -4.0684  2.3365
  641MOL0     H84602   8.720   9.304   9.496  0.4032 -0.1611 -0.0094
  641MOL0     H84603   8.793   9.470   9.488 -0.7413  0.3915 -0.2378
  641MOL0     H84604   8.880   9.309   9.658 -0.9619  1.4240 -0.2828
  641MOL0     H84605   8.968   9.225   9.526  1.0425  0.2199  1.9105
  641MOL0     H84606   8.988   9.524   9.590  2.5776  2.1774  0.0436
  641MOL0     H84607   9.091   9.436   9.469  4.1112 -0.8802  1.3646
  641MOL0     H84608   9.118   9.351   9.758  0.3007 -3.0850 -0.1605
  641MOL0     H84609   9.211   9.313   9.608 -1.8189 -1.2755 -1.0274
  641MOL0     H84610   9.408   9.665   9.707  0.3982  0.3254 -1.2918
  641MOL0     H84611   8.594   9.451   9.387 -2.3939  1.7403 -1.2383
  641MOL0     H84612   8.431   9.521   9.212 -0.0297 -0.2414  1.0942
  642MOL0     O84613  11.163   4.841   3.951 -0.0773 -0.7033  0.1186
  642MOL0     C84614  11.167   4.826   3.828  0.1542 -0.0019 -0.3066
  642MOL0     O84615  11.062   4.834   3.742  0.1076  0.0645 -0.4067
  642MOL0     C84616  10.972   4.921   3.791  0.7172  0.8892  0.1422
  642MOL0     C84617  10.967   5.056   3.751  0.4694 -0.2747 -0.1248
  642MOL0     C84618  10.871   5.141   3.805  0.6545 -0.2566  0.3683
  642MOL0     C84619  10.761   5.098   3.882  0.2997  0.0846  0.0978
  642MOL0     O84620  10.667   5.185   3.933 -0.0158  0.7590  0.6995
  642MOL0     C84621  10.642   5.301   3.852  0.0287  0.3234 -0.5197
  642MOL0     C84622  10.514   5.361   3.901 -0.6816 -0.1651  0.8286
  642MOL0     C84623  10.398   5.270   3.863 -0.5614 -0.5780  0.1547
  642MOL0     C84624  10.355   5.175   3.976 -0.1629  0.0225  0.4936
  642MOL0     C84625  10.271   5.060   3.904  0.5897  0.2253  0.8915
  642MOL0     C84626  10.132   5.118   3.851 -0.4480 -0.0813  0.3069
  642MOL0     C84627  10.032   5.002   3.840  0.3416 -0.3648  0.0674
  642MOL0     C84628   9.919   5.022   3.750  0.6525  0.1415  0.0816
  642MOL0     N84629   9.798   4.949   3.789  0.2139 -0.0743 -0.1672
  642MOL0     C84630   9.685   5.008   3.844  0.2576 -0.0401  0.7085
  642MOL0     C84631   9.602   4.904   3.879 -0.4602  0.2143  0.9140
  642MOL0     C84632   9.472   4.906   3.941 -0.0131 -0.4907 -0.2243
  642MOL0     C84633   9.367   4.891   3.832  0.1029  0.6824  0.3582
  642MOL0     C84634   9.225   4.908   3.906  0.4798 -0.0489  0.1499
  642MOL0     C84635   9.112   4.874   3.808  0.2986 -0.9823  0.4611
  642MOL0     O84636   8.996   4.892   3.877  0.8617 -0.3080  0.2965
  642MOL0     C84637   8.879   4.948   3.826  0.3008  0.6989 -0.0760
  642MOL0     C84638   8.848   4.980   3.687  0.0190  0.2357  0.0405
  642MOL0     C84639   8.721   5.025   3.641 -0.8588 -0.3550  0.2077
  642MOL0     C84640   8.620   5.051   3.738  0.2800 -0.0116 -0.2827
  642MOL0     C84641   8.479   5.103   3.697 -0.8029  0.0619 -0.4087
  642MOL0     O84642   8.461   5.101   3.563  0.4907  0.0812  0.2360
  642MOL0     C84643   8.337   5.106   3.495  0.7310 -0.5431 -0.1413
  642MOL0     C84644   8.209   5.120   3.554  0.2763  0.2105  1.1485
  642MOL0     C84645   8.088   5.126   3.480  0.7372 -0.2312  0.3292
  642MOL0     C84646   8.093   5.127   3.343  0.1752 -0.2018 -0.4753
  642MOL0     O84647   7.984   5.139   3.267  0.7884  0.6137  0.1126
  642MOL0     C84648   7.850   5.143   3.319  0.6682 -0.4008  0.1360
  642MOL0     C84649   7.746   5.138   3.204 -0.1735  0.1840 -0.8844
  642MOL0     C84650   7.604   5.169   3.250 -0.0153 -1.1599 -0.3752
  642MOL0     C84651   7.550   5.058   3.347 -1.0654 -0.4823 -0.0398
  642MOL0     C84652   7.393   5.046   3.325  0.3253 -0.0339 -0.4449
  642MOL0     C84653   7.315   5.175   3.350 -0.5040 -0.4507 -0.7097
  642MOL0     C84654   7.191   5.193   3.269  0.3891 -0.4143  0.5402
  642MOL0     C84655   7.142   5.341   3.275  0.0955 -0.4525  0.1931
  642MOL0    Cl84656   6.977   5.369   3.205  0.4997  0.0099 -0.2305
  642MOL0     C84657   8.223   5.115   3.283  0.5939  0.2473 -0.9024
  642MOL0     C84658   8.341   5.113   3.355  0.1693 -0.8026 -0.1862
  642MOL0     O84659   8.394   5.133   3.784 -1.0260  1.2033  0.3461
  642MOL0     C84660   8.647   5.015   3.874 -0.4276  0.5039 -0.5245
  642MOL0     C84661   8.774   4.968   3.917  0.1496  0.3441  0.3943
  642MOL0     N84662   9.666   4.785   3.842  0.2496  0.3924  0.2940
  642MOL0     N84663   9.788   4.814   3.802  0.3510  0.3924 -0.2851
  642MOL0     C84664  10.775   4.968   3.929 -0.6140 -0.2528 -0.8467
  642MOL0     C84665  10.878   4.882   3.887 -0.2250  0.5579  0.1208
  642MOL0     C84666  11.279   4.751   3.774 -0.8290 -0.0235  0.0264
  642MOL0     C84667  11.315   4.751   3.634  0.9590  0.6827  0.6757
  642MOL0     C84668  11.423   4.684   3.584 -0.3285  0.1058 -0.3341
  642MOL0     C84669  11.490   4.597   3.674 -0.4548 -0.4252 -0.2560
  642MOL0     O84670  11.596   4.526   3.633 -0.0741  0.4271 -0.3548
  642MOL0     C84671  11.734   4.556   3.674  0.2288  0.4743 -0.9346
  642MOL0     C84672  11.819   4.422   3.666  0.6401  0.0865  0.4108
  642MOL0     C84673  11.801   4.348   3.526 -0.1532 -0.6368 -0.1875
  642MOL0     C84674  11.846   4.205   3.519 -0.9213  0.1354  0.7731
  642MOL0     C84675  11.990   4.199   3.558 -0.1288  0.7475 -0.6688
  642MOL0     C84676  12.099   4.209   3.620 -0.2943  0.2787  0.0961
  642MOL0     C84677  11.452   4.580   3.804 -0.1989 -0.0770 -0.4465
  642MOL0     C84678  11.355   4.665   3.858  0.0447 -0.2279  0.1529
  642MOL0     H84679  11.041   5.095   3.681 -0.5001 -0.4081 -1.2524
  642MOL0     H84680  10.891   5.243   3.774 -3.1177 -0.3501 -3.1062
  642MOL0     H84681  10.637   5.271   3.746  2.1502 -1.3623 -0.2103
  642MOL0     H84682  10.723   5.374   3.851  0.0665  0.3143 -2.1311
  642MOL0     H84683  10.496   5.444   3.832 -1.5721 -1.2569 -0.3078
  642MOL0     H84684  10.513   5.389   4.007 -1.3190 -1.5685  1.2090
  642MOL0     H84685  10.417   5.217   3.769  1.2861  0.5323 -0.1498
  642MOL0     H84686  10.317   5.340   3.840  0.1188 -0.9070 -3.9245
  642MOL0     H84687  10.434   5.118   4.025 -0.5485 -0.9942 -0.0427
  642MOL0     H84688  10.304   5.221   4.061 -1.1208 -0.5956  0.2658
  642MOL0     H84689  10.232   4.996   3.984 -1.6963 -0.0847 -0.3797
  642MOL0     H84690  10.319   4.998   3.828 -0.1474  0.2424  0.3993
  642MOL0     H84691  10.143   5.143   3.745 -1.1762 -1.3509 -0.0896
  642MOL0     H84692  10.087   5.202   3.905  2.9922  2.4294 -0.3761
  642MOL0     H84693  10.078   4.914   3.794 -0.9132 -1.5513  1.0081
  642MOL0     H84694   9.996   4.976   3.940 -0.4362 -1.6144 -0.5184
  642MOL0     H84695   9.950   4.979   3.654  3.0000  0.6713  0.5556
  642MOL0     H84696   9.890   5.127   3.744  0.8741  0.3037  1.6205
  642MOL0     H84697   9.660   5.112   3.860 -2.9874 -0.9027  2.2307
  642MOL0     H84698   9.466   4.998   3.999  1.8261  1.2261 -2.5093
  642MOL0     H84699   9.461   4.822   4.010 -1.0789 -0.2772 -0.1295
  642MOL0     H84700   9.383   4.789   3.794  1.7186  1.0202  0.0388
  642MOL0     H84701   9.387   4.974   3.765  1.2918 -0.4088 -0.6946
  642MOL0     H84702   9.231   4.832   3.985  0.7335 -0.7810 -0.5588
  642MOL0     H84703   9.221   5.010   3.946  1.4494 -0.5820  1.6563
  642MOL0     H84704   9.126   4.771   3.773  3.4367 -0.5051 -0.0053
  642MOL0     H84705   9.117   4.941   3.721 -0.3843  0.5896  1.5844
  642MOL0     H84706   8.926   4.967   3.612 -0.5592  1.4740 -0.8262
  642MOL0     H84707   8.702   5.057   3.540 -2.2464  0.2592  0.6333
  642MOL0     H84708   8.212   5.098   3.660  3.4671 -1.7298  0.7706
  642MOL0     H84709   7.991   5.134   3.528  0.3453 -1.2742 -0.2546
  642MOL0     H84710   7.832   5.234   3.376 -3.0590 -1.1460  0.4551
  642MOL0     H84711   7.832   5.070   3.398  0.8133  0.1586  0.6918
  642MOL0     H84712   7.732   5.043   3.151 -1.4957 -1.1189  1.6293
  642MOL0     H84713   7.778   5.213   3.131 -0.7270  1.3046 -0.0236
  642MOL0     H84714   7.538   5.185   3.164 -0.3164 -0.1956  0.0229
  642MOL0     H84715   7.600   5.261   3.310 -0.1108 -1.3810 -0.0409
  642MOL0     H84716   7.601   4.963   3.329  0.4175  0.3671 -0.4413
  642MOL0     H84717   7.580   5.072   3.451  0.9930 -3.0979 -0.1697
  642MOL0     H84718   7.353   4.964   3.385  0.8954  1.5590  2.2628
  642MOL0     H84719   7.367   5.013   3.224 -3.5090  2.0983 -0.3727
  642MOL0     H84720   7.372   5.268   3.341  1.3047 -1.2972  1.2266
  642MOL0     H84721   7.297   5.168   3.457  0.3458 -0.5974 -0.5683
  642MOL0     H84722   7.202   5.175   3.162  0.4432  2.0483  0.0600
  642MOL0     H84723   7.109   5.127   3.298 -0.2041  0.2146  0.3389
  642MOL0     H84724   7.209   5.402   3.213  0.3896  0.2257  1.1536
  642MOL0     H84725   7.141   5.381   3.377 -0.9668 -0.0989  0.0546
  642MOL0     H84726   8.230   5.105   3.175  2.9384  1.5877 -0.9563
  642MOL0     H84727   8.434   5.104   3.301  0.7959  0.4431  0.6369
  642MOL0     H84728   8.569   5.020   3.949  1.6296  0.4178  1.7781
  642MOL0     H84729   8.787   4.939   4.021 -4.6221  2.9607  2.0175
  642MOL0     H84730  10.704   4.932   4.003  2.3711 -4.9212  0.1697
  642MOL0     H84731  10.886   4.783   3.931 -1.5209 -0.0618 -0.9665
  642MOL0     H84732  11.260   4.819   3.570  2.6340  0.6377 -0.8974
  642MOL0     H84733  11.462   4.680   3.482  1.9915 -3.4631  0.5313
  642MOL0     H84734  11.720   4.607   3.770 -0.7621 -1.0514 -0.2263
  642MOL0     H84735  11.761   4.638   3.606 -0.1782  1.2135 -0.2269
  642MOL0     H84736  11.924   4.443   3.687  1.0320  1.3283 -2.3766
  642MOL0     H84737  11.783   4.362   3.750  0.4733  0.3495  0.5316
  642MOL0     H84738  11.847   4.398   3.440 -1.9287 -2.9551 -2.6525
  642MOL0     H84739  11.695   4.354   3.498 -0.0856  1.0684 -0.1788
  642MOL0     H84740  11.793   4.130   3.578 -1.9409  0.1984 -0.0447
  642MOL0     H84741  11.830   4.166   3.418  5.1526 -2.9256  0.5546
  642MOL0     H84742  12.177   4.219   3.694 -0.7897 -0.5677  0.7557
  642MOL0     H84743  11.511   4.518   3.871  0.7614  2.0324  0.7677
  642MOL0     H84744  11.342   4.657   3.965  3.1006  0.0569  0.6528
  643MOL0     O84745   7.237   6.269   4.027 -0.3208 -0.8314 -0.3123
  643MOL0     C84746   7.294   6.193   3.951 -0.3247 -0.1062  0.1515
  643MOL0     O84747   7.250   6.075   3.898 -0.1181 -0.7049 -0.3861
  643MOL0     C84748   7.123   6.017   3.907  0.0268 -0.0228  0.4242
  643MOL0     C84749   7.010   6.085   3.943  0.2957 -0.0412 -0.6756
  643MOL0     C84750   6.891   6.014   3.939 -0.1195  0.4170  0.2993
  643MOL0     C84751   6.881   5.882   3.901 -1.0011 -1.0624 -1.0289
  643MOL0     O84752   6.764   5.817   3.891 -0.0211 -0.6154  0.0107
  643MOL0     C84753   6.669   5.829   3.999 -0.3027 -0.0801  0.3185
  643MOL0     C84754   6.544   5.739   3.979  0.7672 -0.5865 -0.2875
  643MOL0     C84755   6.444   5.767   3.868  0.2619 -0.5017 -0.0257
  643MOL0     C84756   6.306   5.690   3.883  0.4727 -0.0338 -0.3201
  643MOL0     C84757   6.209   5.690   3.762 -0.5774 -0.2568 -0.3621
  643MOL0     C84758   6.087   5.616   3.808 -0.4492  0.5949 -0.3916
  643MOL0     C84759   5.956   5.656   3.749  0.9958 -1.2631  0.8193
  643MOL0     C84760   5.899   5.790   3.795 -0.0497  0.1100 -0.3920
  643MOL0     N84761   5.874   5.814   3.935  0.1149  0.6482  0.1147
  643MOL0     C84762   5.764   5.805   4.012  0.1049  1.0736 -0.0900
  643MOL0     C84763   5.804   5.821   4.139  0.2143  0.7666 -0.1268
  643MOL0     C84764   5.723   5.804   4.270 -0.5840  0.0567 -0.7416
  643MOL0     C84765   5.574   5.826   4.259  0.7919 -0.4517 -0.4044
  643MOL0     C84766   5.507   5.808   4.398  0.1805 -0.3282 -0.1076
  643MOL0     C84767   5.352   5.801   4.376 -0.5849  0.2132  0.3215
  643MOL0     O84768   5.297   5.929   4.345  0.2845  0.5438 -0.6799
  643MOL0     C84769   5.178   5.948   4.295 -0.2697 -0.1264  0.4104
  643MOL0     C84770   5.138   6.077   4.257 -0.6637  0.1920  0.1912
  643MOL0     C84771   5.012   6.086   4.192 -0.2518 -0.9230 -0.0724
  643MOL0     C84772   4.919   5.983   4.168 -0.2675  0.2034  0.4746
  643MOL0     C84773   4.785   6.007   4.113 -0.5245 -0.6036  0.4082
  643MOL0     O84774   4.695   5.911   4.113 -0.4448  0.1756  0.0539
  643MOL0     C84775   4.568   5.950   4.072  0.2507 -0.2047  0.7511
  643MOL0     C84776   4.539   5.973   3.934 -0.5558 -0.0141  0.0479
  643MOL0     C84777   4.406   6.004   3.896  0.3143 -0.0782 -0.0777
  643MOL0     C84778   4.306   6.015   3.998 -0.2856  0.2526  0.5628
  643MOL0     O84779   4.194   6.076   3.957 -0.7958  0.4905  0.2267
  643MOL0     C84780   4.105   6.136   4.051 -0.4237  0.2794  0.5753
  643MOL0     C84781   3.996   6.220   3.986  0.0463 -0.5553 -0.4464
  643MOL0     C84782   3.900   6.138   3.898  0.1206  0.1622  0.5402
  643MOL0     C84783   3.770   6.226   3.874  0.8174 -0.1961  0.3431
  643MOL0     C84784   3.688   6.147   3.776 -0.4396  0.9091 -0.0333
  643MOL0     C84785   3.569   6.216   3.717  0.2201  0.3402 -0.9931
  643MOL0     C84786   3.496   6.114   3.633 -0.3740 -0.4585 -0.4005
  643MOL0     C84787   3.376   6.165   3.550 -0.2702  0.4951  0.1887
  643MOL0    Cl84788   3.236   6.203   3.648  0.1869 -0.2810  0.3713
  643MOL0     C84789   4.338   5.994   4.131 -0.1056 -0.7203  0.1656
  643MOL0     C84790   4.467   5.957   4.168  0.0208  0.0105  0.2590
  643MOL0     O84791   4.767   6.126   4.075  0.4939  0.4168 -0.4992
  643MOL0     C84792   4.958   5.856   4.210  0.3799 -0.7471 -0.0430
  643MOL0     C84793   5.085   5.842   4.279  0.1525  0.0577  0.7690
  643MOL0     N84794   5.936   5.846   4.137  0.1261  0.6000  0.4468
  643MOL0     N84795   5.975   5.854   4.019 -0.4083  0.6197  0.1969
  643MOL0     C84796   6.997   5.813   3.861 -0.2690 -0.0882  0.0419
  643MOL0     C84797   7.121   5.882   3.869 -0.2334 -0.2096  0.3225
  643MOL0     C84798   7.440   6.226   3.928  0.3684 -0.2731  0.0647
  643MOL0     C84799   7.504   6.325   3.996  0.0576 -0.1488  0.1336
  643MOL0     C84800   7.629   6.374   3.948  0.6019  0.7736 -0.9498
  643MOL0     C84801   7.690   6.312   3.841  0.0479 -0.0261 -0.0443
  643MOL0     O84802   7.816   6.344   3.786  1.4382 -0.0208  0.0474
  643MOL0     C84803   7.893   6.448   3.846 -0.9131  0.2713 -0.4417
  643MOL0     C84804   7.961   6.385   3.966  0.1870  0.7291 -0.0520
  643MOL0     C84805   8.055   6.478   4.041 -0.3553  0.2727  0.3199
  643MOL0     C84806   8.169   6.400   4.107 -0.6113  0.4720 -1.0371
  643MOL0     C84807   8.119   6.297   4.197  0.2954 -0.7054  0.8053
  643MOL0     C84808   8.088   6.197   4.261 -0.5325 -0.6172  0.3838
  643MOL0     C84809   7.628   6.205   3.785  1.3809  0.8601  0.2381
  643MOL0     C84810   7.503   6.164   3.824 -1.2229  0.6093  0.0418
  643MOL0     H84811   7.023   6.188   3.977  0.4566  0.2358 -1.5520
  643MOL0     H84812   6.807   6.079   3.960  0.5013  1.3626 -0.0848
  643MOL0     H84813   6.626   5.929   4.000 -2.0122 -0.5464 -4.1215
  643MOL0     H84814   6.718   5.806   4.094 -0.3782 -1.6247  0.0062
  643MOL0     H84815   6.482   5.754   4.068 -1.2049 -1.2729 -1.4627
  643MOL0     H84816   6.560   5.631   3.973  1.7456 -0.4645 -0.0632
  643MOL0     H84817   6.491   5.724   3.779  1.5002 -2.5278  1.5106
  643MOL0     H84818   6.422   5.871   3.844 -0.4166 -0.6173  0.0642
  643MOL0     H84819   6.318   5.589   3.924 -0.3506 -0.0685 -0.1568
  643MOL0     H84820   6.252   5.742   3.963  1.2060  0.0580  0.1298
  643MOL0     H84821   6.256   5.646   3.673  1.5271 -0.0149  0.5790
  643MOL0     H84822   6.186   5.795   3.744  2.0227  0.8912  2.2779
  643MOL0     H84823   6.095   5.627   3.916 -1.0674  0.1418 -0.2950
  643MOL0     H84824   6.098   5.514   3.771 -1.1011  0.1182  0.7069
  643MOL0     H84825   5.976   5.660   3.642  2.1547  1.7987  1.0480
  643MOL0     H84826   5.882   5.581   3.778  0.2471 -1.4346 -1.3663
  643MOL0     H84827   5.802   5.799   3.745 -1.8286 -2.6417  2.2597
  643MOL0     H84828   5.957   5.870   3.748  0.2508  1.2107  1.7584
  643MOL0     H84829   5.669   5.774   3.970  0.0583 -0.6169  1.1577
  643MOL0     H84830   5.759   5.879   4.341 -2.4988  1.2971 -1.0135
  643MOL0     H84831   5.732   5.699   4.302 -0.3115 -0.2169 -1.6839
  643MOL0     H84832   5.530   5.757   4.187  1.2674 -0.5005 -0.6524
  643MOL0     H84833   5.547   5.927   4.225 -2.3425 -0.5137  1.4518
  643MOL0     H84834   5.541   5.713   4.441  1.0157  0.8040  1.8911
  643MOL0     H84835   5.523   5.890   4.468 -4.6180 -1.0012  2.1327
  643MOL0     H84836   5.315   5.761   4.470  1.8657 -2.4176  0.2985
  643MOL0     H84837   5.333   5.726   4.298  0.9617 -0.3351  0.4336
  643MOL0     H84838   5.204   6.161   4.273 -1.2991  0.8658 -0.6071
  643MOL0     H84839   4.981   6.185   4.160 -1.5022 -1.3477 -0.2484
  643MOL0     H84840   4.614   5.963   3.857  1.8743 -1.5945  2.4509
  643MOL0     H84841   4.381   6.014   3.791  2.8187  1.0248 -0.6372
  643MOL0     H84842   4.165   6.202   4.114 -0.2216  0.3930  0.2661
  643MOL0     H84843   4.060   6.059   4.114 -0.0823  0.3716  0.9363
  643MOL0     H84844   4.040   6.293   3.917  2.8404 -1.9369 -0.2478
  643MOL0     H84845   3.944   6.261   4.073 -0.2841 -1.4128 -0.2280
  643MOL0     H84846   3.875   6.044   3.949 -1.3507 -0.8464 -1.8399
  643MOL0     H84847   3.945   6.112   3.802 -2.5297 -1.6102 -0.3217
  643MOL0     H84848   3.715   6.250   3.965  0.9702  0.1917  0.3366
  643MOL0     H84849   3.803   6.319   3.827 -1.6066 -0.3548 -1.9310
  643MOL0     H84850   3.661   6.050   3.818  2.3026 -0.2411 -0.7260
  643MOL0     H84851   3.760   6.126   3.697 -0.1995 -1.1947  0.6940
  643MOL0     H84852   3.605   6.296   3.651 -1.0799  1.7543 -0.0776
  643MOL0     H84853   3.498   6.238   3.798 -0.7179 -2.0727 -1.0856
  643MOL0     H84854   3.576   6.068   3.573  1.1200  0.3380  0.8842
  643MOL0     H84855   3.453   6.031   3.690  0.9746 -0.4519  0.6867
  643MOL0     H84856   3.334   6.099   3.474 -1.6459  0.6482  0.7840
  643MOL0     H84857   3.420   6.255   3.505  2.1023 -0.7636 -0.1320
  643MOL0     H84858   4.262   5.990   4.208 -0.8579  0.8818 -0.4563
  643MOL0     H84859   4.497   5.946   4.271  0.2595 -0.9587  0.0912
  643MOL0     H84860   4.893   5.769   4.204 -2.2534  1.2059 -2.9887
  643MOL0     H84861   5.111   5.741   4.309  1.1802 -0.1786 -0.8002
  643MOL0     H84862   6.995   5.706   3.842  1.0316 -0.3149  1.0404
  643MOL0     H84863   7.208   5.824   3.843 -1.1993 -1.4867 -0.2002
  643MOL0     H84864   7.467   6.366   4.089 -0.7413  1.7348 -0.9676
  643MOL0     H84865   7.672   6.453   4.008  2.8521 -0.4298 -0.8800
  643MOL0     H84866   7.835   6.533   3.882 -0.6510  0.3632 -0.2339
  643MOL0     H84867   7.967   6.474   3.771  0.2462 -2.4171 -0.3691
  643MOL0     H84868   7.889   6.357   4.043  0.2286  2.3320  0.6235
  643MOL0     H84869   8.019   6.298   3.936  0.1834  1.1445 -1.3626
  643MOL0     H84870   8.000   6.543   4.109 -0.2849  2.4166 -1.5760
  643MOL0     H84871   8.084   6.548   3.962 -1.6319 -0.0490 -0.4770
  643MOL0     H84872   8.238   6.353   4.036  0.9770  0.9951  0.0927
  643MOL0     H84873   8.222   6.469   4.174 -2.7198 -1.8739  3.4894
  643MOL0     H84874   8.076   6.109   4.320  1.8291  0.9452  3.5106
  643MOL0     H84875   7.678   6.153   3.704 -2.1693 -3.5472  0.4783
  643MOL0     H84876   7.453   6.080   3.777  1.6929 -1.4333  0.3115
  644MOL0     O84877   6.397   6.338   7.620 -0.6632 -0.3676 -0.5191
  644MOL0     C84878   6.400   6.446   7.570 -0.4088 -0.2019  0.6691
  644MOL0     O84879   6.292   6.510   7.505  0.1173 -0.1863  0.1549
  644MOL0     C84880   6.174   6.443   7.483  0.4673  0.4767 -0.0861
  644MOL0     C84881   6.054   6.524   7.491 -0.0948 -0.6947 -0.0100
  644MOL0     C84882   5.932   6.468   7.456 -0.7755  0.6855  0.1199
  644MOL0     C84883   5.921   6.338   7.412 -0.5681 -0.1074  1.1128
  644MOL0     O84884   5.802   6.289   7.377  0.6353  0.1048  0.7205
  644MOL0     C84885   5.737   6.354   7.265  0.3783  1.2106  0.1131
  644MOL0     C84886   5.628   6.262   7.218  0.2513 -0.6999  0.3162
  644MOL0     C84887   5.527   6.318   7.115  0.6605 -0.0919 -0.3260
  644MOL0     C84888   5.418   6.214   7.088  0.2623 -0.1492  0.2557
  644MOL0     C84889   5.309   6.271   6.990 -0.3666 -0.4236 -0.1060
  644MOL0     C84890   5.189   6.189   6.995  0.5385 -0.3336 -0.6931
  644MOL0     C84891   5.084   6.247   6.900  0.3558 -0.6945  0.8483
  644MOL0     C84892   4.965   6.150   6.903  0.0184 -0.4968 -0.1473
  644MOL0     N84893   4.846   6.218   6.854 -0.1596  0.6387 -0.6455
  644MOL0     C84894   4.828   6.282   6.734 -0.3983  0.4469  0.0325
  644MOL0     C84895   4.694   6.303   6.734  0.4536  0.0214  0.1964
  644MOL0     C84896   4.602   6.355   6.615 -0.1790  0.9335 -0.6239
  644MOL0     C84897   4.456   6.377   6.655 -0.2198  0.0633  0.8030
  644MOL0     C84898   4.367   6.404   6.531  0.6294  0.3170 -0.4918
  644MOL0     C84899   4.218   6.401   6.564 -0.2303  0.3246  0.0364
  644MOL0     O84900   4.143   6.436   6.446 -0.6781 -0.7357  0.1525
  644MOL0     C84901   4.005   6.467   6.454 -0.2282 -0.6165  0.4599
  644MOL0     C84902   3.928   6.455   6.571 -0.3979  0.1839  0.1167
  644MOL0     C84903   3.793   6.485   6.564  0.1298  1.0865 -0.1823
  644MOL0     C84904   3.726   6.526   6.447  0.7857 -0.3042  0.4022
  644MOL0     C84905   3.579   6.541   6.438 -0.4521  0.1228  0.2235
  644MOL0     O84906   3.529   6.597   6.327 -0.2523 -0.0445  0.5389
  644MOL0     C84907   3.403   6.643   6.331  0.0710 -0.1558  0.1757
  644MOL0     C84908   3.335   6.637   6.206 -0.1292  0.9010 -0.2582
  644MOL0     C84909   3.211   6.692   6.186 -0.3906 -0.4262  0.8240
  644MOL0     C84910   3.154   6.765   6.293  0.5667 -0.0426 -0.6640
  644MOL0     O84911   3.027   6.809   6.294 -0.4927  0.2641  0.3340
  644MOL0     C84912   2.991   6.891   6.187  0.4866 -0.3871 -0.0657
  644MOL0     C84913   2.911   6.804   6.080 -0.0945  0.6808 -0.1435
  644MOL0     C84914   2.892   6.851   5.935  0.2926 -0.2175 -0.5480
  644MOL0     C84915   3.020   6.878   5.853  0.8456  0.2996 -0.2914
  644MOL0     C84916   2.984   6.965   5.723 -0.3213  0.3675 -0.2609
  644MOL0     C84917   2.942   6.894   5.598  0.4954 -0.2294 -0.9911
  644MOL0     C84918   2.913   6.992   5.484  0.1927 -0.3521  0.5378
  644MOL0     C84919   2.845   6.920   5.364 -0.7403 -1.0048 -0.2420
  644MOL0    Cl84920   2.685   6.887   5.405  0.1530  0.1369  0.0114
  644MOL0     C84921   3.224   6.783   6.412  0.7989 -0.7331 -0.2024
  644MOL0     C84922   3.350   6.724   6.429  0.7470 -0.2435  0.5437
  644MOL0     O84923   3.515   6.511   6.541 -0.3796 -0.3756  0.4348
  644MOL0     C84924   3.797   6.542   6.330  0.7654  0.2432 -0.1789
  644MOL0     C84925   3.940   6.513   6.333 -0.3910 -0.9818 -1.4140
  644MOL0     N84926   4.635   6.250   6.851 -0.5000  0.3072  0.6357
  644MOL0     N84927   4.731   6.196   6.914 -0.0157 -0.7869  0.3509
  644MOL0     C84928   6.035   6.265   7.404  0.1608  0.0792  0.5115
  644MOL0     C84929   6.161   6.310   7.441 -0.5049 -0.3001  0.6094
  644MOL0     C84930   6.527   6.516   7.571  0.2953  0.0614 -1.1346
  644MOL0     C84931   6.548   6.633   7.494 -0.0764  0.6943 -0.7208
  644MOL0     C84932   6.662   6.711   7.514 -0.2483  0.3210  0.1788
  644MOL0     C84933   6.767   6.668   7.597 -0.7591 -0.5101  0.0856
  644MOL0     O84934   6.890   6.731   7.623  0.7082 -0.8003  0.1016
  644MOL0     C84935   6.892   6.874   7.583 -1.5125 -0.2714  0.6519
  644MOL0     C84936   7.009   6.934   7.668  0.7736  0.0468  0.8544
  644MOL0     C84937   6.981   6.967   7.817 -0.1543  0.0787 -0.5961
  644MOL0     C84938   7.102   7.039   7.887 -0.0591  0.5044 -0.6989
  644MOL0     C84939   7.213   6.938   7.916  0.0422 -0.0880 -0.1259
  644MOL0     C84940   7.313   6.873   7.942 -0.1916 -0.8178  0.4115
  644MOL0     C84941   6.755   6.541   7.655 -0.7066 -0.7185 -0.9689
  644MOL0     C84942   6.635   6.481   7.653  0.4383 -0.2755  0.1661
  644MOL0     H84943   6.054   6.629   7.518  1.4083 -0.8993  0.8849
  644MOL0     H84944   5.839   6.523   7.466 -0.9430  0.8430 -1.9010
  644MOL0     H84945   5.807   6.387   7.187  0.0725  2.3990  0.3239
  644MOL0     H84946   5.678   6.439   7.298  1.2251  1.3907  1.1952
  644MOL0     H84947   5.567   6.250   7.307  1.4364 -2.9119  0.9065
  644MOL0     H84948   5.666   6.164   7.185  1.1843 -0.8643  1.7889
  644MOL0     H84949   5.584   6.332   7.022  1.2506  0.3471  0.0962
  644MOL0     H84950   5.488   6.411   7.157  2.6035  1.3318 -1.5040
  644MOL0     H84951   5.446   6.115   7.050 -1.7528 -1.1356  1.2146
  644MOL0     H84952   5.381   6.185   7.186 -0.5798 -4.0507 -1.0523
  644MOL0     H84953   5.343   6.268   6.886 -1.4894  0.3195 -0.5168
  644MOL0     H84954   5.281   6.373   7.017 -1.9600 -0.7174 -0.4960
  644MOL0     H84955   5.151   6.197   7.097  0.1532 -1.4152 -0.7318
  644MOL0     H84956   5.202   6.082   6.973 -2.6089 -0.7692 -0.8800
  644MOL0     H84957   5.045   6.348   6.918 -2.5617 -1.0856 -2.1160
  644MOL0     H84958   5.121   6.253   6.797 -0.2761  2.0322  0.7022
  644MOL0     H84959   4.948   6.116   7.005 -0.5230 -1.8831 -0.6778
  644MOL0     H84960   4.980   6.055   6.852  0.4271  0.1062 -1.1915
  644MOL0     H84961   4.904   6.304   6.660  0.0255  0.6383  0.5186
  644MOL0     H84962   4.612   6.280   6.536  0.8926  1.1310 -0.6903
  644MOL0     H84963   4.657   6.444   6.583  2.1011 -0.5957 -1.2743
  644MOL0     H84964   4.438   6.454   6.731 -0.0356  0.9130 -0.0002
  644MOL0     H84965   4.422   6.284   6.703 -0.3372  1.1503  2.9492
  644MOL0     H84966   4.402   6.499   6.489  0.0799  2.1625  2.8935
  644MOL0     H84967   4.390   6.321   6.463 -0.3191 -0.5029  0.1687
  644MOL0     H84968   4.191   6.476   6.639  1.0421  1.7588 -0.8899
  644MOL0     H84969   4.201   6.304   6.612  2.3448  0.4076  1.2598
  644MOL0     H84970   3.961   6.408   6.663  0.5073  0.2154 -0.1879
  644MOL0     H84971   3.737   6.466   6.656 -0.3059 -1.1543 -0.8397
  644MOL0     H84972   3.372   6.590   6.115 -0.1367  0.4675 -0.0395
  644MOL0     H84973   3.155   6.670   6.096  0.1775  1.3277  0.0116
  644MOL0     H84974   3.077   6.936   6.136 -0.5924  0.8847 -0.8063
  644MOL0     H84975   2.918   6.968   6.212 -0.6689 -1.2401 -0.7403
  644MOL0     H84976   2.817   6.780   6.130  1.4517  0.5302  2.9405
  644MOL0     H84977   2.960   6.707   6.070 -1.0344  0.4037 -2.7873
  644MOL0     H84978   2.820   6.932   5.924  1.7890  1.1570 -0.6303
  644MOL0     H84979   2.848   6.764   5.886 -1.4020 -0.4342  1.2232
  644MOL0     H84980   3.092   6.936   5.912  0.7656 -0.0098  0.1210
  644MOL0     H84981   3.080   6.788   5.836  0.9183  0.2631  0.1304
  644MOL0     H84982   3.074   7.022   5.696  0.6706  0.5955  3.0919
  644MOL0     H84983   2.916   7.047   5.749  0.1986  0.3454  1.2455
  644MOL0     H84984   2.841   6.853   5.612  0.2896  0.6876  0.4178
  644MOL0     H84985   3.010   6.811   5.577  2.0814 -0.4300  3.7387
  644MOL0     H84986   2.851   7.065   5.537  2.3219  0.8903  1.4701
  644MOL0     H84987   3.007   7.033   5.446  0.2677 -1.2195 -0.2621
  644MOL0     H84988   2.905   6.833   5.334  0.2195  0.0269 -1.4059
  644MOL0     H84989   2.840   6.986   5.277  2.2335 -1.0565 -0.5370
  644MOL0     H84990   3.165   6.826   6.493  0.2876 -3.7089  1.1525
  644MOL0     H84991   3.407   6.756   6.515 -0.8906  0.8853  1.2663
  644MOL0     H84992   3.759   6.572   6.233  1.3572 -0.3164 -0.5891
  644MOL0     H84993   4.002   6.533   6.246  1.0773  1.1963  0.0367
  644MOL0     H84994   6.032   6.161   7.371  3.2219  0.4978 -1.5284
  644MOL0     H84995   6.246   6.244   7.424  0.8096  1.1654  1.2389
  644MOL0     H84996   6.466   6.665   7.429  1.2206 -0.9243 -3.3357
  644MOL0     H84997   6.668   6.805   7.460 -0.2783  0.5126  0.5074
  644MOL0     H84998   6.793   6.912   7.610 -3.9397 -3.5336 -2.6332
  644MOL0     H84999   6.921   6.874   7.477  1.4589 -1.6346  1.3777
  644MOL0     H85000   7.093   6.864   7.660  2.6252  2.3175 -1.5135
  644MOL0     H85001   7.032   7.025   7.612  0.8046  0.1000  0.9530
  644MOL0     H85002   6.947   6.876   7.867  0.8656  0.8860  1.7201
  644MOL0     H85003   6.887   7.024   7.813 -0.2826 -0.1075 -0.2815
  644MOL0     H85004   7.140   7.126   7.834 -2.3184  1.7155 -0.4397
  644MOL0     H85005   7.062   7.068   7.985 -0.8475 -0.6230 -0.6617
  644MOL0     H85006   7.400   6.811   7.952 -1.2911 -2.0798  3.4669
  644MOL0     H85007   6.837   6.513   7.720  2.4820  2.1622 -3.4186
  644MOL0     H85008   6.624   6.391   7.712  0.0457 -0.5519 -0.3261
  645MOL0     O85009   2.267   2.787   0.429 -0.2217 -0.8810 -0.6610
  645MOL0     C85010   2.285   2.806   0.314 -0.4271  0.3727 -0.2445
  645MOL0     O85011   2.190   2.851   0.238 -0.6611 -0.1823  0.1877
  645MOL0     C85012   2.074   2.932   0.268  0.3792  0.5863  0.5438
  645MOL0     C85013   2.052   3.008   0.381  0.6293 -0.3236 -0.3968
  645MOL0     C85014   1.923   3.068   0.399 -0.1077  0.5660 -0.6877
  645MOL0     C85015   1.816   3.044   0.309  1.1794 -0.6474 -0.9792
  645MOL0     O85016   1.699   3.117   0.348  0.6327  0.1577  0.2668
  645MOL0     C85017   1.594   3.114   0.256  0.8149 -1.4735  0.1696
  645MOL0     C85018   1.474   3.179   0.335 -0.5791 -0.2704 -0.6398
  645MOL0     C85019   1.351   3.177   0.248 -0.5384 -0.0064 -0.3272
  645MOL0     C85020   1.217   3.208   0.323  0.6397 -0.6093  0.3416
  645MOL0     C85021   1.102   3.224   0.219  0.1569 -0.6474 -0.9925
  645MOL0     C85022   0.962   3.257   0.270  0.4028 -0.2258 -0.4175
  645MOL0     C85023   0.869   3.284   0.146 -0.1621  0.4983 -0.7100
  645MOL0     C85024   0.731   3.319   0.203  0.0016  0.1725  0.0422
  645MOL0     N85025   0.619   3.334   0.104 -0.2929  0.1558  1.0868
  645MOL0     C85026   0.513   3.411   0.135  0.3368 -0.3593 -0.2476
  645MOL0     C85027   0.434   3.406   0.024 -0.1063 -0.2715  0.3230
  645MOL0     C85028   0.313   3.491  -0.010 -0.5181 -0.5464  0.1659
  645MOL0     C85029   0.193   3.426   0.056 -0.2031 -0.2852 -0.4117
  645MOL0     C85030   0.077   3.529   0.039  0.5679 -0.6168  0.1492
  645MOL0     C85031  -0.064   3.464   0.062  0.2144  0.3693 -0.0184
  645MOL0     O85032  -0.060   3.368   0.170  0.0032  0.4325  0.2259
  645MOL0     C85033  -0.184   3.350   0.222  0.2003  0.6441 -0.3234
  645MOL0     C85034  -0.257   3.444   0.289  0.1397 -0.2167 -0.1326
  645MOL0     C85035  -0.387   3.416   0.347 -0.3198  0.5526 -0.3588
  645MOL0     C85036  -0.455   3.292   0.328 -0.8228 -0.3264 -0.4885
  645MOL0     C85037  -0.589   3.262   0.381 -0.3839 -0.0888  0.4023
  645MOL0     O85038  -0.643   3.144   0.356 -0.2275  0.4928 -0.3009
  645MOL0     C85039  -0.780   3.115   0.368 -0.1311 -0.5121  0.7797
  645MOL0     C85040  -0.881   3.185   0.292  0.2554 -0.9442  0.2289
  645MOL0     C85041  -1.010   3.156   0.312 -0.3009  0.2091 -0.3611
  645MOL0     C85042  -1.045   3.056   0.412 -0.3293 -0.6054  0.4282
  645MOL0     O85043  -1.176   3.011   0.415  0.3023  0.2137 -0.6735
  645MOL0     C85044  -1.211   2.912   0.506 -0.1278  0.4071  0.3839
  645MOL0     C85045  -1.359   2.880   0.499 -0.2109  0.3232 -0.8913
  645MOL0     C85046  -1.443   3.000   0.528 -0.0678  0.4719 -0.1326
  645MOL0     C85047  -1.585   2.970   0.549  0.3249 -0.2539 -0.2759
  645MOL0     C85048  -1.678   3.090   0.557  0.2988 -0.2333  1.1814
  645MOL0     C85049  -1.804   3.062   0.651 -0.3087 -0.4411 -0.3261
  645MOL0     C85050  -1.897   3.184   0.662  0.2151  0.1013 -0.0075
  645MOL0     C85051  -1.869   3.267   0.786  0.0259 -0.1319 -0.4319
  645MOL0    Cl85052  -1.699   3.318   0.815 -0.2440  0.2856 -0.3477
  645MOL0     C85053  -0.949   3.000   0.493 -0.3212 -0.3357 -0.3382
  645MOL0     C85054  -0.819   3.023   0.465 -0.3269 -0.2367 -0.5853
  645MOL0     O85055  -0.650   3.356   0.422 -0.6680 -0.1594  0.4139
  645MOL0     C85056  -0.375   3.200   0.259  0.1630  0.6400 -0.0071
  645MOL0     C85057  -0.244   3.223   0.208  0.7176  0.2808  0.1048
  645MOL0     N85058   0.500   3.323  -0.069 -0.9029  0.1595 -0.4808
  645MOL0     N85059   0.605   3.280  -0.019 -0.7988 -0.0179  0.2004
  645MOL0     C85060   1.841   2.973   0.196  0.2048 -0.3633 -0.1037
  645MOL0     C85061   1.969   2.924   0.174  0.5090  0.1229 -0.5669
  645MOL0     C85062   2.418   2.785   0.250 -0.1632 -0.4012 -0.0598
  645MOL0     C85063   2.530   2.797   0.327  0.0348 -0.8119 -0.0505
  645MOL0     C85064   2.653   2.738   0.283  0.0709 -0.1898 -0.5398
  645MOL0     C85065   2.664   2.688   0.153 -0.6787  0.0054  0.6127
  645MOL0     O85066   2.785   2.640   0.101 -0.0318 -0.1698 -0.2856
  645MOL0     C85067   2.883   2.574   0.182 -0.1339 -0.0670 -0.6024
  645MOL0     C85068   2.959   2.484   0.083  0.4401  0.4151 -0.4164
  645MOL0     C85069   3.043   2.560  -0.008 -0.7831 -0.1582 -0.0169
  645MOL0     C85070   3.189   2.586   0.041  0.0198  0.0646  0.9284
  645MOL0     C85071   3.264   2.661  -0.059  0.0469 -0.4615 -0.1845
  645MOL0     C85072   3.320   2.714  -0.152  0.2432 -0.0784 -0.6523
  645MOL0     C85073   2.549   2.695   0.064 -0.0862 -0.3911 -0.4210
  645MOL0     C85074   2.428   2.743   0.119 -0.1414  0.0472  0.2115
  645MOL0     H85075   2.137   3.021   0.447  1.1762 -0.7285 -1.0008
  645MOL0     H85076   1.899   3.122   0.490 -0.1974 -0.1704 -0.2734
  645MOL0     H85077   1.560   3.014   0.227 -2.9151  0.6812 -4.0982
  645MOL0     H85078   1.625   3.169   0.167 -0.3022 -1.6285 -0.3311
  645MOL0     H85079   1.502   3.278   0.374  0.2203 -0.9976  0.7097
  645MOL0     H85080   1.450   3.118   0.422 -3.9354 -0.1239 -1.3250
  645MOL0     H85081   1.347   3.079   0.201  2.6566  0.0227 -0.8740
  645MOL0     H85082   1.368   3.250   0.168 -3.4191 -0.8922 -1.8740
  645MOL0     H85083   1.184   3.128   0.390  0.7050  0.2177  1.3876
  645MOL0     H85084   1.226   3.300   0.382  0.2662  1.6687 -2.9139
  645MOL0     H85085   1.095   3.144   0.144 -2.8457 -0.9412 -0.5409
  645MOL0     H85086   1.133   3.317   0.170  1.9887 -0.8755 -0.3277
  645MOL0     H85087   0.955   3.334   0.346 -0.3810  0.3712 -1.0762
  645MOL0     H85088   0.925   3.166   0.318 -2.4309  0.0467 -1.8451
  645MOL0     H85089   0.905   3.367   0.083 -1.7244  0.8904 -1.1391
  645MOL0     H85090   0.871   3.194   0.084 -1.4357  0.5095 -0.8068
  645MOL0     H85091   0.753   3.416   0.249  2.5681 -0.9649  1.4692
  645MOL0     H85092   0.700   3.246   0.279  0.0692 -0.6026 -0.6605
  645MOL0     H85093   0.486   3.469   0.223 -1.2385  0.6868 -1.3621
  645MOL0     H85094   0.307   3.506  -0.118  1.6849  0.0241  0.0749
  645MOL0     H85095   0.329   3.592   0.028  0.6908  0.1731 -2.0499
  645MOL0     H85096   0.209   3.386   0.156 -0.3796  0.8699  0.0901
  645MOL0     H85097   0.167   3.340  -0.008 -5.0643  1.5819 -1.3828
  645MOL0     H85098   0.087   3.615   0.105 -0.9749  0.1513 -0.5822
  645MOL0     H85099   0.066   3.576  -0.059  0.0868  1.3719  1.1067
  645MOL0     H85100  -0.084   3.408  -0.029  1.0444 -0.1362  0.0985
  645MOL0     H85101  -0.129   3.551   0.076  0.7175  0.2986  4.2392
  645MOL0     H85102  -0.213   3.542   0.307 -1.7004  0.5323  0.4734
  645MOL0     H85103  -0.429   3.486   0.418 -0.9038 -1.1995  1.1238
  645MOL0     H85104  -0.858   3.262   0.219  1.5287 -1.9265 -0.4390
  645MOL0     H85105  -1.088   3.217   0.267  1.0425  1.1437 -1.4887
  645MOL0     H85106  -1.193   2.935   0.611  1.6208 -0.7005  0.3739
  645MOL0     H85107  -1.158   2.816   0.499  1.7313  1.5142 -2.2413
  645MOL0     H85108  -1.381   2.805   0.576  1.6586  0.8398  0.1943
  645MOL0     H85109  -1.393   2.839   0.403  1.2528 -0.7732 -0.9665
  645MOL0     H85110  -1.420   3.071   0.448  1.8415 -0.3269 -0.3590
  645MOL0     H85111  -1.403   3.028   0.626  1.3963 -1.9286  0.0428
  645MOL0     H85112  -1.623   2.909   0.466 -1.2003  1.6160 -1.0207
  645MOL0     H85113  -1.582   2.919   0.645  0.7061  1.0460  0.4173
  645MOL0     H85114  -1.706   3.128   0.458 -1.6893 -3.1289  0.5191
  645MOL0     H85115  -1.619   3.164   0.612 -1.2030 -0.0633  2.6766
  645MOL0     H85116  -1.762   3.040   0.749  0.5208  0.2503 -0.5018
  645MOL0     H85117  -1.853   2.976   0.604  0.1430 -1.4540  1.0000
  645MOL0     H85118  -1.885   3.247   0.573  0.3211  0.7269  0.4415
  645MOL0     H85119  -2.003   3.159   0.655  0.9454 -3.0581 -1.7054
  645MOL0     H85120  -1.896   3.203   0.870  2.5185 -2.4585 -1.2629
  645MOL0     H85121  -1.930   3.357   0.777  2.8584  1.7451 -2.7027
  645MOL0     H85122  -0.971   2.931   0.574  0.0368 -0.3217 -0.2255
  645MOL0     H85123  -0.731   2.986   0.518  0.3137  2.2460  0.2173
  645MOL0     H85124  -0.427   3.105   0.248  1.2841 -0.0104  0.1892
  645MOL0     H85125  -0.185   3.141   0.167  2.5003 -0.1597  3.2645
  645MOL0     H85126   1.761   2.970   0.122  3.7493  0.4527 -4.3343
  645MOL0     H85127   1.987   2.883   0.075 -0.5613 -1.2467 -0.2225
  645MOL0     H85128   2.524   2.837   0.427 -0.6525  0.9433 -0.7620
  645MOL0     H85129   2.737   2.743   0.352  0.3319 -0.1234 -0.8575
  645MOL0     H85130   2.833   2.511   0.256  0.3024  1.5558  1.1345
  645MOL0     H85131   2.948   2.652   0.223  0.5862  0.9303 -3.4246
  645MOL0     H85132   3.027   2.418   0.138 -0.7344 -1.7933 -1.4976
  645MOL0     H85133   2.886   2.417   0.035  0.3435  0.1129  0.1446
  645MOL0     H85134   2.995   2.658  -0.022  1.4370  1.1768  1.0843
  645MOL0     H85135   3.059   2.516  -0.107  0.0928 -0.1122  0.0895
  645MOL0     H85136   3.195   2.629   0.141 -2.7063  2.7190  0.0861
  645MOL0     H85137   3.236   2.487   0.050 -1.9754 -1.2740 -1.8069
  645MOL0     H85138   3.380   2.739  -0.237  1.6001  0.7334  0.4952
  645MOL0     H85139   2.551   2.645  -0.032 -1.3147  1.2164 -1.3278
  645MOL0     H85140   2.344   2.749   0.051  0.5807 -1.6771 -0.8942
  646MOL0     O85141   1.258   1.874  11.061 -0.2650  0.0876  0.0148
  646MOL0     C85142   1.336   1.951  10.997 -0.5089  0.9810 -0.9303
  646MOL0     O85143   1.308   2.070  10.943  0.1286  0.0843 -0.3092
  646MOL0     C85144   1.179   2.115  10.956  0.4929  0.8704  0.0850
  646MOL0     C85145   1.154   2.208  11.055  0.6579 -0.0136 -0.0030
  646MOL0     C85146   1.021   2.253  11.072 -0.2071 -0.1896  0.1340
  646MOL0     C85147   0.913   2.192  10.993 -0.2886 -0.3495 -0.2667
  646MOL0     O85148   0.779   2.221  10.999  0.5704 -0.5332  0.4569
  646MOL0     C85149   0.728   2.204  11.130  0.3282  0.0487  0.1078
  646MOL0     C85150   0.575   2.227  11.135 -0.0459 -0.1809 -0.2552
  646MOL0     C85151   0.508   2.170  11.267  0.0440  0.0436  0.7129
  646MOL0     C85152   0.366   2.211  11.272  0.3352  0.7048  0.0848
  646MOL0     C85153   0.305   2.167  11.401 -0.0684  0.4034 -0.3406
  646MOL0     C85154   0.175   2.250  11.437  0.0005  0.8215  0.4003
  646MOL0     C85155   0.071   2.227  11.320  0.0399 -0.6717  0.0991
  646MOL0     C85156   0.042   2.081  11.284 -0.5903  0.2249  0.1899
  646MOL0     N85157  -0.060   2.079  11.183 -0.9535 -0.5191  0.0045
  646MOL0     C85158  -0.191   2.023  11.184 -1.0727 -0.4441  0.2912
  646MOL0     C85159  -0.227   2.032  11.053 -0.0371  0.0525 -0.1015
  646MOL0     C85160  -0.349   1.968  10.996 -1.3218  0.0384 -0.0630
  646MOL0     C85161  -0.474   2.058  11.008  0.3724  0.0329  0.4291
  646MOL0     C85162  -0.599   1.984  10.941 -0.8051  0.4720  0.3442
  646MOL0     C85163  -0.726   2.039  11.000  0.2203 -0.1190 -0.2338
  646MOL0     O85164  -0.755   1.974  11.126 -0.7495 -0.1624 -0.4910
  646MOL0     C85165  -0.887   1.967  11.143  0.1703 -0.1286 -0.8239
  646MOL0     C85166  -0.974   2.070  11.112  0.2017 -0.3286 -0.3908
  646MOL0     C85167  -1.115   2.048  11.111  0.3180 -0.4789 -0.6523
  646MOL0     C85168  -1.164   1.922  11.156 -0.5359  0.4800  0.0229
  646MOL0     C85169  -1.312   1.898  11.146 -0.6314  0.3185  0.2235
  646MOL0     O85170  -1.400   2.000  11.098  0.1674 -0.0181 -0.0157
  646MOL0     C85171  -1.531   1.989  11.125  0.3508  0.9963 -0.4378
  646MOL0     C85172  -1.613   2.027  11.024  0.3831 -0.4516 -0.5237
  646MOL0     C85173  -1.755   2.015  11.027 -0.2395 -0.3199 -0.3201
  646MOL0     C85174  -1.817   1.955  11.128  0.7136  0.4434 -0.4418
  646MOL0     O85175  -1.950   1.930  11.126 -0.0567 -0.2162  0.3004
  646MOL0     C85176  -2.014   1.876  11.006  0.4036 -0.8903 -0.3823
  646MOL0     C85177  -2.134   1.789  11.032 -0.3665 -1.3122  0.2795
  646MOL0     C85178  -2.241   1.869  11.098  0.1569 -0.0504  0.2100
  646MOL0     C85179  -2.350   1.773  11.112  0.2551  0.6507 -0.3265
  646MOL0     C85180  -2.459   1.836  11.207 -0.1020 -1.3082  0.2609
  646MOL0     C85181  -2.583   1.757  11.227  0.4844 -0.0192  0.1953
  646MOL0     C85182  -2.673   1.787  11.353 -0.3122 -0.2188  0.4846
  646MOL0     C85183  -2.776   1.677  11.368  0.3900  0.2549 -0.4105
  646MOL0    Cl85184  -2.883   1.700  11.514 -0.2013 -0.0550  0.2722
  646MOL0     C85185  -1.744   1.918  11.236  0.1128 -0.4350 -0.4071
  646MOL0     C85186  -1.599   1.932  11.240 -0.8639 -0.2174 -0.5169
  646MOL0     O85187  -1.348   1.783  11.179  0.1642 -0.3489  0.0543
  646MOL0     C85188  -1.072   1.821  11.208  0.0369 -0.7643  1.2535
  646MOL0     C85189  -0.932   1.847  11.187 -0.0464 -0.1900  0.4216
  646MOL0     N85190  -0.128   2.090  10.978 -0.1151 -0.6669 -0.4068
  646MOL0     N85191  -0.026   2.120  11.062  0.2230 -0.3552  0.1466
  646MOL0     C85192   0.944   2.099  10.896 -0.3799  0.0925  0.2877
  646MOL0     C85193   1.076   2.059  10.878 -0.3503 -0.8905  0.8694
  646MOL0     C85194   1.480   1.893  10.998 -0.4268 -0.4911  0.0096
  646MOL0     C85195   1.517   1.784  11.075 -0.4571  0.3465 -0.8651
  646MOL0     C85196   1.655   1.742  11.056 -0.1345 -0.1263 -0.6827
  646MOL0     C85197   1.752   1.804  10.978  0.1265 -0.4668  0.3374
  646MOL0     O85198   1.881   1.765  10.950 -0.0529  0.4441 -0.1990
  646MOL0     C85199   1.929   1.655  11.039  0.9462 -0.3178 -0.0311
  646MOL0     C85200   2.082   1.632  11.005  0.5723  0.5720 -0.3384
  646MOL0     C85201   2.106   1.497  10.945  0.5242 -0.0593  0.0984
  646MOL0     C85202   2.257   1.464  10.922  0.2697  0.1096  0.1632
  646MOL0     C85203   2.283   1.324  10.902 -0.1706  0.1645 -1.3632
  646MOL0     C85204   2.298   1.206  10.887  0.9375  0.1759  0.2114
  646MOL0     C85205   1.710   1.914  10.912  0.6485  0.2944 -0.3605
  646MOL0     C85206   1.577   1.966  10.928  0.8929  0.2073  0.8475
  646MOL0     H85207   1.242   2.243  11.108  0.1377  0.8637  0.3052
  646MOL0     H85208   1.011   2.331  11.146  0.4974  0.7275 -0.7045
  646MOL0     H85209   0.774   2.274  11.200  1.7066  1.3625 -2.0210
  646MOL0     H85210   0.743   2.103  11.169 -1.0427 -0.1144  0.2883
  646MOL0     H85211   0.527   2.176  11.051 -0.0395 -1.6216  0.5922
  646MOL0     H85212   0.565   2.336  11.127  1.7229  0.1010  0.9954
  646MOL0     H85213   0.559   2.206  11.357  0.2876  0.9433  0.2297
  646MOL0     H85214   0.526   2.063  11.255 -0.2949  0.1044 -0.5095
  646MOL0     H85215   0.354   2.320  11.271 -0.8554  0.6026  1.3371
  646MOL0     H85216   0.319   2.166  11.184 -0.9967 -0.3974  1.3051
  646MOL0     H85217   0.374   2.171  11.486 -0.2333  1.5443 -0.2497
  646MOL0     H85218   0.275   2.062  11.387  1.9447 -0.1946 -0.5072
  646MOL0     H85219   0.196   2.357  11.449  3.6033  0.3243 -0.2013
  646MOL0     H85220   0.136   2.208  11.530  1.6885 -1.1834  0.2782
  646MOL0     H85221  -0.025   2.263  11.359 -1.5601 -2.8174 -1.5785
  646MOL0     H85222   0.093   2.285  11.230 -1.3096 -1.1523 -0.5676
  646MOL0     H85223   0.019   2.030  11.377  3.9275 -2.2040  0.2870
  646MOL0     H85224   0.132   2.040  11.236 -0.1183  0.2102  1.0816
  646MOL0     H85225  -0.256   1.986  11.262 -2.0887  1.1061  0.2198
  646MOL0     H85226  -0.353   1.872  11.048  1.0421  0.3057  0.7087
  646MOL0     H85227  -0.328   1.950  10.891  0.0126  0.3513  0.1322
  646MOL0     H85228  -0.452   2.156  10.963 -0.0627  0.4193  1.0374
  646MOL0     H85229  -0.493   2.068  11.116 -0.7512  1.0655  0.1638
  646MOL0     H85230  -0.590   1.987  10.832 -0.7020 -0.0628  0.3333
  646MOL0     H85231  -0.595   1.877  10.965 -2.0572  0.4087  0.3494
  646MOL0     H85232  -0.800   2.012  10.925 -0.8631 -1.5828  1.2852
  646MOL0     H85233  -0.711   2.147  11.008  1.8292 -0.3481  0.1892
  646MOL0     H85234  -0.945   2.173  11.092 -0.7779  0.1980  0.7458
  646MOL0     H85235  -1.186   2.127  11.087 -2.7258 -2.8973 -0.3014
  646MOL0     H85236  -1.567   2.074  10.938  0.5760  2.6256  1.1260
  646MOL0     H85237  -1.808   2.050  10.939 -3.2521 -2.5629  0.4063
  646MOL0     H85238  -1.933   1.821  10.957 -0.3936 -1.6169 -0.9173
  646MOL0     H85239  -2.046   1.956  10.939 -0.5303 -0.7010  0.2792
  646MOL0     H85240  -2.103   1.703  11.091  1.7676 -1.0707 -0.4010
  646MOL0     H85241  -2.168   1.758  10.933 -0.0150  1.0565 -0.6560
  646MOL0     H85242  -2.264   1.959  11.040  0.3921 -0.8497 -1.1624
  646MOL0     H85243  -2.201   1.902  11.194  0.7389 -0.3533  0.0742
  646MOL0     H85244  -2.392   1.734  11.020  2.2907 -2.8889  0.0772
  646MOL0     H85245  -2.311   1.686  11.165  1.6954  1.8023  0.6032
  646MOL0     H85246  -2.482   1.941  11.186  1.8091 -0.6256  1.2804
  646MOL0     H85247  -2.416   1.840  11.308  2.4443 -3.8982 -0.6005
  646MOL0     H85248  -2.564   1.650  11.226  2.1999  0.2437  0.9255
  646MOL0     H85249  -2.646   1.771  11.139 -0.4872  0.0600  0.8928
  646MOL0     H85250  -2.602   1.778  11.435 -0.8026  1.1532  1.0944
  646MOL0     H85251  -2.726   1.883  11.349 -1.9524 -1.1001 -0.2996
  646MOL0     H85252  -2.730   1.582  11.397 -1.3005 -0.8211 -1.1109
  646MOL0     H85253  -2.835   1.663  11.277 -1.3551 -0.1900  0.7404
  646MOL0     H85254  -1.798   1.874  11.320 -1.4146 -0.5893 -1.4244
  646MOL0     H85255  -1.550   1.899  11.331 -1.7069  0.3260  0.1533
  646MOL0     H85256  -1.118   1.734  11.251 -1.2785 -0.3547  0.7160
  646MOL0     H85257  -0.866   1.762  11.204  0.4141  0.5947  3.1140
  646MOL0     H85258   0.871   2.061  10.826 -0.7241 -1.6558  1.5349
  646MOL0     H85259   1.105   1.992  10.799  1.0637  0.6835 -0.0118
  646MOL0     H85260   1.444   1.721  11.124  0.2298  0.4934  0.3701
  646MOL0     H85261   1.671   1.657  11.121  0.1744  1.3975  1.3295
  646MOL0     H85262   1.861   1.570  11.022 -0.0810  0.1606  1.4573
  646MOL0     H85263   1.916   1.690  11.142  2.7342 -0.2700  0.2101
  646MOL0     H85264   2.124   1.705  10.935  0.8697 -0.3308 -1.1110
  646MOL0     H85265   2.123   1.642  11.106  0.4424 -1.7392 -0.0150
  646MOL0     H85266   2.048   1.490  10.852 -2.0046 -0.7406  1.6019
  646MOL0     H85267   2.056   1.421  11.007 -0.3383  0.2398 -0.2140
  646MOL0     H85268   2.290   1.524  10.837 -0.7759 -1.0547 -1.1018
  646MOL0     H85269   2.308   1.500  11.012  0.5631 -1.7035  0.7664
  646MOL0     H85270   2.298   1.100  10.873 -0.3179  0.2625 -0.6296
  646MOL0     H85271   1.775   1.979  10.854 -0.8354  3.7589  1.5809
  646MOL0     H85272   1.553   2.064  10.888 -2.5529  1.3555  4.9987
  647MOL0     O85273   9.079   0.374   5.036  0.0127  0.2564  0.0832
  647MOL0     C85274   9.070   0.319   5.144  0.1759 -0.1701  0.8910
  647MOL0     O85275   8.958   0.279   5.207  0.2080  0.5836  0.7198
  647MOL0     C85276   8.838   0.313   5.160  0.2938 -0.0627 -0.3358
  647MOL0     C85277   8.756   0.405   5.232  0.7880  0.6872 -0.1020
  647MOL0     C85278   8.622   0.433   5.181 -0.4484  0.0972 -0.1221
  647MOL0     C85279   8.574   0.372   5.064 -0.0128  0.3968 -0.1908
  647MOL0     O85280   8.443   0.388   5.032  0.3335 -0.8251  0.6736
  647MOL0     C85281   8.382   0.276   4.965  0.4444 -0.3424 -0.3812
  647MOL0     C85282   8.245   0.342   4.943  0.3040 -1.1198 -0.9553
  647MOL0     C85283   8.149   0.243   4.871 -0.4404 -0.7083  0.3768
  647MOL0     C85284   8.014   0.300   4.839 -0.2253 -0.3560  0.5512
  647MOL0     C85285   7.915   0.186   4.803 -0.7109  0.6927  0.2531
  647MOL0     C85286   7.778   0.234   4.756  0.6638 -0.8596 -0.0662
  647MOL0     C85287   7.688   0.116   4.729 -0.2980 -0.8442  0.2508
  647MOL0     C85288   7.542   0.155   4.689  0.0244  0.5387 -0.2951
  647MOL0     N85289   7.457   0.031   4.667 -0.3909 -0.4601  0.1880
  647MOL0     C85290   7.466  -0.043   4.550  0.1558  0.5967  0.3801
  647MOL0     C85291   7.379  -0.147   4.556 -0.3365  0.3243 -0.4902
  647MOL0     C85292   7.345  -0.251   4.452  0.0112 -0.7361  1.0755
  647MOL0     C85293   7.207  -0.231   4.390  0.7141 -0.6246 -0.5558
  647MOL0     C85294   7.200  -0.099   4.321 -0.3885 -0.3434  0.2467
  647MOL0     C85295   7.070  -0.070   4.236 -0.3049  0.2835 -0.2180
  647MOL0     O85296   7.050  -0.172   4.136  0.1941 -0.5113  0.4252
  647MOL0     C85297   6.953  -0.277   4.156 -0.3745 -0.5425  0.5206
  647MOL0     C85298   6.918  -0.353   4.041 -0.0767 -0.4131 -0.8952
  647MOL0     C85299   6.831  -0.458   4.054  0.2338 -0.1152  0.5894
  647MOL0     C85300   6.759  -0.481   4.171  1.2633 -0.0156  0.0715
  647MOL0     C85301   6.659  -0.588   4.178  0.4064  0.9439 -0.7418
  647MOL0     O85302   6.637  -0.667   4.062 -0.6334  0.0955 -0.0685
  647MOL0     C85303   6.534  -0.754   4.062 -0.1372  0.9894  0.2814
  647MOL0     C85304   6.507  -0.859   4.159 -0.8971 -0.0333  1.0898
  647MOL0     C85305   6.403  -0.950   4.134  0.5601  0.2304 -0.4272
  647MOL0     C85306   6.322  -0.938   4.018  0.2824  0.0594 -0.4439
  647MOL0     O85307   6.210  -1.010   3.998  0.5666 -0.2814  0.3691
  647MOL0     C85308   6.168  -1.115   4.084  0.6592 -0.6666 -0.5027
  647MOL0     C85309   6.034  -1.146   4.023  0.2030 -0.8203 -0.4211
  647MOL0     C85310   6.047  -1.238   3.903  1.1453 -0.5984  0.8395
  647MOL0     C85311   5.908  -1.255   3.839 -0.2830  0.0937  0.1948
  647MOL0     C85312   5.920  -1.293   3.691 -0.1493  0.1589  0.4989
  647MOL0     C85313   5.951  -1.173   3.593 -0.0983 -0.6785 -0.5967
  647MOL0     C85314   6.012  -1.220   3.465 -0.1835  0.2237  0.4666
  647MOL0     C85315   5.916  -1.274   3.366  0.2689 -0.5070  0.4031
  647MOL0    Cl85316   5.807  -1.408   3.416 -0.0999  0.2948  0.1012
  647MOL0     C85317   6.350  -0.834   3.924 -0.4972 -0.6850 -0.1862
  647MOL0     C85318   6.458  -0.750   3.941 -0.3649  0.0670  0.3750
  647MOL0     O85319   6.610  -0.616   4.286 -0.4569 -0.4873 -0.0624
  647MOL0     C85320   6.780  -0.408   4.289 -0.2523  0.8098  0.5854
  647MOL0     C85321   6.880  -0.308   4.276  0.1337  0.6955 -0.3771
  647MOL0     N85322   7.335  -0.156   4.685  0.6257 -0.1349 -0.6612
  647MOL0     N85323   7.381  -0.052   4.752  0.2616 -0.2007 -0.7093
  647MOL0     C85324   8.666   0.295   4.992  0.3674  0.1294 -0.4020
  647MOL0     C85325   8.792   0.253   5.042 -0.5485 -0.0575 -1.2574
  647MOL0     C85326   9.201   0.296   5.204 -0.2899  0.1045  0.1406
  647MOL0     C85327   9.219   0.184   5.285  0.0125 -0.0313 -0.5018
  647MOL0     C85328   9.340   0.153   5.346  0.0960  0.5038  0.5831
  647MOL0     C85329   9.452   0.234   5.325 -0.5791  0.2230  0.1212
  647MOL0     O85330   9.568   0.210   5.392 -0.6147  0.8315  0.4712
  647MOL0     C85331   9.673   0.307   5.371  0.3582  0.2111  0.4388
  647MOL0     C85332   9.775   0.299   5.482 -0.6352 -0.1448 -0.0061
  647MOL0     C85333   9.829   0.436   5.514  0.0567 -0.3091 -0.0156
  647MOL0     C85334   9.965   0.432   5.600 -0.7216  0.0515  0.1259
  647MOL0     C85335  10.016   0.565   5.624  0.4108  0.2990  0.5979
  647MOL0     C85336  10.056   0.676   5.636 -0.0569 -0.8017  0.0579
  647MOL0     C85337   9.429   0.342   5.236 -0.6353  0.2713 -0.4860
  647MOL0     C85338   9.311   0.381   5.177  0.4026  0.6383  0.0370
  647MOL0     H85339   8.789   0.440   5.329 -1.1888 -0.7923  1.1745
  647MOL0     H85340   8.553   0.494   5.238 -0.5830  1.4927 -1.6918
  647MOL0     H85341   8.358   0.196   5.036  1.6606  0.8475  1.4366
  647MOL0     H85342   8.438   0.242   4.878 -0.1231  1.9371 -1.7118
  647MOL0     H85343   8.248   0.436   4.888 -4.0011  1.8585  3.0495
  647MOL0     H85344   8.209   0.364   5.044  1.1146 -0.5510 -0.7838
  647MOL0     H85345   8.132   0.158   4.939  0.5702  0.6902  2.4673
  647MOL0     H85346   8.210   0.220   4.784  2.7174  3.4124  1.2097
  647MOL0     H85347   7.975   0.346   4.931  1.1822 -0.2202  1.0981
  647MOL0     H85348   8.024   0.377   4.763  2.2379 -0.0954  1.0702
  647MOL0     H85349   7.884   0.126   4.889  0.2354 -1.7455 -1.0279
  647MOL0     H85350   7.960   0.114   4.734  0.3802  0.6512  0.9821
  647MOL0     H85351   7.797   0.281   4.659  1.2683 -1.1957 -0.1170
  647MOL0     H85352   7.727   0.307   4.819 -1.6235 -0.8059 -1.8407
  647MOL0     H85353   7.732   0.044   4.659  0.5753  0.1097 -0.2073
  647MOL0     H85354   7.691   0.052   4.819 -2.5818  0.2101  1.1694
  647MOL0     H85355   7.541   0.218   4.600 -2.7482  1.5326  0.3436
  647MOL0     H85356   7.504   0.217   4.770  2.1831  3.6415 -1.4677
  647MOL0     H85357   7.511  -0.019   4.454  0.7938 -0.3472  0.4296
  647MOL0     H85358   7.373  -0.346   4.499  2.1460 -1.4169 -1.3230
  647MOL0     H85359   7.408  -0.228   4.365 -1.8366  1.8868  0.3110
  647MOL0     H85360   7.131  -0.241   4.468  3.7864  1.2387  3.0019
  647MOL0     H85361   7.189  -0.310   4.316  1.3699 -1.4061  0.0954
  647MOL0     H85362   7.211  -0.026   4.401 -0.2930 -0.1879  0.0929
  647MOL0     H85363   7.285  -0.093   4.252  1.9070  1.0817  2.9978
  647MOL0     H85364   7.092   0.026   4.187  2.9370 -1.0243 -1.5541
  647MOL0     H85365   6.978  -0.060   4.296 -1.3181 -3.7369 -0.8414
  647MOL0     H85366   6.952  -0.323   3.943 -1.2312  1.8212 -0.6807
  647MOL0     H85367   6.805  -0.501   3.958 -3.6308  2.1606  0.4214
  647MOL0     H85368   6.570  -0.865   4.247  1.5555  2.8275 -0.3040
  647MOL0     H85369   6.390  -1.028   4.209  0.6781 -1.6982 -2.3223
  647MOL0     H85370   6.154  -1.067   4.181  1.5178 -0.8380 -0.2887
  647MOL0     H85371   6.237  -1.200   4.079 -0.7408 -1.7996 -1.5906
  647MOL0     H85372   5.986  -1.054   3.989  0.2716 -0.9761 -0.9441
  647MOL0     H85373   5.966  -1.185   4.099  0.6810  0.0186  0.4704
  647MOL0     H85374   6.090  -1.335   3.928 -0.8582 -1.8641 -0.3788
  647MOL0     H85375   6.111  -1.198   3.824  1.6177 -1.2013  0.9119
  647MOL0     H85376   5.850  -1.324   3.900  0.4721  1.3906  2.5201
  647MOL0     H85377   5.851  -1.162   3.840 -1.0377 -0.3345 -0.9696
  647MOL0     H85378   5.828  -1.344   3.663  1.0522 -2.6922  1.3707
  647MOL0     H85379   6.001  -1.366   3.680 -0.8575 -0.5252 -0.3416
  647MOL0     H85380   6.018  -1.106   3.648 -2.1306  0.2918  0.8242
  647MOL0     H85381   5.858  -1.121   3.566 -1.5938 -3.8232 -2.0803
  647MOL0     H85382   6.068  -1.134   3.428  1.2824 -0.4572  1.0071
  647MOL0     H85383   6.087  -1.297   3.487  0.4127  0.0941 -1.8233
  647MOL0     H85384   5.973  -1.315   3.282  1.1775 -0.4304  0.9768
  647MOL0     H85385   5.854  -1.193   3.326 -0.7710 -2.6515 -2.8058
  647MOL0     H85386   6.283  -0.823   3.839 -0.0038 -0.0934 -0.5022
  647MOL0     H85387   6.474  -0.671   3.868  0.4314 -2.6235 -2.6012
  647MOL0     H85388   6.729  -0.432   4.381  1.5047 -2.0098  0.9836
  647MOL0     H85389   6.895  -0.249   4.367 -0.5727  0.2211  0.0573
  647MOL0     H85390   8.636   0.241   4.903 -0.9947 -2.7181  1.6186
  647MOL0     H85391   8.857   0.196   4.976 -0.6218  1.9070 -3.1338
  647MOL0     H85392   9.137   0.119   5.316  1.1652 -0.9499  0.7346
  647MOL0     H85393   9.334   0.062   5.405 -1.9114 -2.4882 -3.6657
  647MOL0     H85394   9.628   0.407   5.373 -0.0624  0.0497 -0.6348
  647MOL0     H85395   9.723   0.293   5.275 -1.9369  1.3282 -1.0012
  647MOL0     H85396   9.724   0.262   5.571  0.0778 -0.7738  0.1436
  647MOL0     H85397   9.847   0.218   5.467 -0.5652 -0.7518  3.0816
  647MOL0     H85398   9.747   0.488   5.565 -1.6820 -4.7514  2.2415
  647MOL0     H85399   9.856   0.490   5.423  1.8827 -1.1463 -0.0139
  647MOL0     H85400   9.939   0.383   5.694 -0.4258 -2.3678 -0.9943
  647MOL0     H85401  10.044   0.378   5.547 -2.1086 -0.9315 -1.0198
  647MOL0     H85402  10.078   0.781   5.641 -1.1191 -0.4304 -2.1523
  647MOL0     H85403   9.520   0.387   5.197 -0.7955 -0.3503 -1.6303
  647MOL0     H85404   9.294   0.472   5.121  0.6329  1.6738  1.5936
  648MOL0     O85405   7.816   2.152   7.427  0.2375 -0.5558  0.5843
  648MOL0     C85406   7.864   2.100   7.526  0.7079  0.2498 -0.1972
  648MOL0     O85407   7.810   1.986   7.589 -0.2578  0.4936  0.2726
  648MOL0     C85408   7.698   1.918   7.552  1.1189  0.5932 -0.4171
  648MOL0     C85409   7.672   1.792   7.614  0.2224  1.2098  0.3728
  648MOL0     C85410   7.559   1.708   7.578  0.7243 -0.2873 -0.1376
  648MOL0     C85411   7.457   1.759   7.499 -1.5945  0.5229 -0.6227
  648MOL0     O85412   7.350   1.680   7.464 -0.1818  0.5349  0.2890
  648MOL0     C85413   7.231   1.738   7.422 -0.4958 -0.5850  0.0071
  648MOL0     C85414   7.134   1.630   7.372 -0.5110 -0.3947 -0.0435
  648MOL0     C85415   6.993   1.678   7.342 -0.8066  0.0134  0.3271
  648MOL0     C85416   6.893   1.562   7.312 -0.6138 -0.0308 -0.2276
  648MOL0     C85417   6.768   1.620   7.243  0.1864 -0.3736 -0.4676
  648MOL0     C85418   6.681   1.697   7.361 -0.0978  0.0969  0.7555
  648MOL0     C85419   6.555   1.748   7.297  0.0936 -0.1789  0.0130
  648MOL0     C85420   6.487   1.854   7.389  0.9772 -0.0641  0.8598
  648MOL0     N85421   6.371   1.924   7.332  0.9596  0.4289  0.1955
  648MOL0     C85422   6.240   1.895   7.360 -0.2965 -0.2799  0.1064
  648MOL0     C85423   6.176   2.005   7.309 -0.7969  0.2106 -0.0622
  648MOL0     C85424   6.025   2.027   7.317  0.0765 -0.1971 -0.3284
  648MOL0     C85425   5.982   2.177   7.311 -0.4196  0.1592  0.0929
  648MOL0     C85426   5.835   2.191   7.326  1.1242  0.2745  0.6970
  648MOL0     C85427   5.788   2.332   7.310  0.0228 -0.0409  0.4002
  648MOL0     O85428   5.651   2.341   7.359  0.3025 -0.1876 -0.0691
  648MOL0     C85429   5.543   2.320   7.273 -0.3224 -0.2579  0.2014
  648MOL0     C85430   5.544   2.246   7.152  0.3593 -0.3360 -1.1092
  648MOL0     C85431   5.423   2.222   7.083 -0.8721 -0.5092 -0.3418
  648MOL0     C85432   5.301   2.265   7.135  0.3899  0.2406  0.0794
  648MOL0     C85433   5.169   2.235   7.073 -0.3614 -0.7916 -0.8600
  648MOL0     O85434   5.070   2.307   7.124 -0.2223  0.1933 -0.0094
  648MOL0     C85435   4.934   2.297   7.075  0.3655  0.2400 -0.5652
  648MOL0     C85436   4.882   2.240   6.959  0.1886 -0.1810  0.3722
  648MOL0     C85437   4.744   2.246   6.938 -0.6732 -0.2550  0.2656
  648MOL0     C85438   4.657   2.292   7.038 -0.3616  0.4640  0.7547
  648MOL0     O85439   4.526   2.321   7.012  0.2348 -0.4003 -0.1052
  648MOL0     C85440   4.474   2.333   6.880 -0.3433  0.5936 -0.0773
  648MOL0     C85441   4.340   2.398   6.904 -0.3468  1.4683 -0.0050
  648MOL0     C85442   4.242   2.298   6.972 -0.4597 -0.1555 -0.2149
  648MOL0     C85443   4.105   2.323   6.929 -0.0417 -0.3971  0.4689
  648MOL0     C85444   4.046   2.464   6.975 -0.3368 -0.0855 -0.6007
  648MOL0     C85445   3.939   2.509   6.882  0.5555 -0.5161  0.0453
  648MOL0     C85446   3.817   2.419   6.906  0.4067 -0.7689 -0.1306
  648MOL0     C85447   3.704   2.446   6.800 -0.4678  0.2697  0.1114
  648MOL0    Cl85448   3.753   2.403   6.629  0.2539 -0.5162 -0.3495
  648MOL0     C85449   4.706   2.329   7.159  0.4861  0.1409 -0.4321
  648MOL0     C85450   4.843   2.347   7.172 -0.6188 -0.5192  1.0292
  648MOL0     O85451   5.161   2.152   6.989 -0.6106  0.3528 -0.0189
  648MOL0     C85452   5.311   2.348   7.254  0.8388  0.2514  1.8933
  648MOL0     C85453   5.423   2.379   7.313 -0.0614  0.1525 -0.3483
  648MOL0     N85454   6.255   2.083   7.233 -0.7028  0.5696 -0.3815
  648MOL0     N85455   6.378   2.027   7.243  0.2497 -0.0185 -0.3295
  648MOL0     C85456   7.487   1.881   7.440  0.4151 -0.9985 -0.7445
  648MOL0     C85457   7.603   1.955   7.460  0.0309 -0.3483 -0.4222
  648MOL0     C85458   7.992   2.164   7.576  0.0764 -0.1415  0.1230
  648MOL0     C85459   8.077   2.251   7.503  0.9565 -0.0318  0.2634
  648MOL0     C85460   8.180   2.316   7.573  0.7275 -0.1888  0.2105
  648MOL0     C85461   8.209   2.298   7.705  0.4033 -0.0221  0.3289
  648MOL0     O85462   8.316   2.355   7.777 -0.3106  0.2419 -0.0268
  648MOL0     C85463   8.422   2.416   7.707  0.0020  0.4356 -0.3489
  648MOL0     C85464   8.516   2.486   7.807 -0.1169 -0.2878 -0.5909
  648MOL0     C85465   8.667   2.482   7.754 -0.0861  0.3176  0.1153
  648MOL0     C85466   8.753   2.551   7.860 -0.0872 -0.3503  0.3339
  648MOL0     C85467   8.894   2.564   7.814  0.2140 -0.1092  0.2022
  648MOL0     C85468   9.008   2.578   7.778  0.2370 -0.6240  0.1141
  648MOL0     C85469   8.116   2.225   7.780 -0.5427 -0.3086 -0.0014
  648MOL0     C85470   8.005   2.159   7.715 -0.7528 -0.3791 -0.0185
  648MOL0     H85471   7.736   1.746   7.689 -0.0617  0.2876  0.0588
  648MOL0     H85472   7.546   1.608   7.618  2.4531 -1.2862 -1.9078
  648MOL0     H85473   7.254   1.790   7.328  1.4492  1.6176  1.5852
  648MOL0     H85474   7.186   1.812   7.488  1.6137  1.3972 -0.6403
  648MOL0     H85475   7.130   1.555   7.451 -2.6197 -1.7507 -1.3516
  648MOL0     H85476   7.182   1.586   7.284 -0.2586  0.0121 -0.1140
  648MOL0     H85477   7.008   1.749   7.259 -0.7764 -0.2185  0.1329
  648MOL0     H85478   6.967   1.731   7.434 -1.6130 -1.8564  1.2197
  648MOL0     H85479   6.957   1.509   7.241  2.5031  1.6552  1.1106
  648MOL0     H85480   6.877   1.498   7.399  1.8691  0.8651  0.9912
  648MOL0     H85481   6.702   1.540   7.208  0.1870 -0.5718 -0.0283
  648MOL0     H85482   6.790   1.689   7.161 -0.3386  1.6852  1.0494
  648MOL0     H85483   6.744   1.779   7.397  1.0482  0.8810 -2.7224
  648MOL0     H85484   6.660   1.621   7.437 -2.8204  0.8405  0.8480
  648MOL0     H85485   6.579   1.798   7.202 -1.9258  1.2434  0.1937
  648MOL0     H85486   6.498   1.656   7.279  1.7758 -2.0080  3.1747
  648MOL0     H85487   6.560   1.929   7.423  1.7516 -1.4453  2.3934
  648MOL0     H85488   6.440   1.797   7.469  0.0031 -0.7513 -0.1702
  648MOL0     H85489   6.208   1.814   7.426  1.5338  0.6267  2.2690
  648MOL0     H85490   5.990   1.979   7.409  1.0899 -0.1626  0.0887
  648MOL0     H85491   5.989   1.964   7.235  1.5061 -3.5132  1.3858
  648MOL0     H85492   6.006   2.224   7.215 -0.4998 -0.2619 -0.1357
  648MOL0     H85493   6.031   2.220   7.399 -1.9574 -0.4115  1.2805
  648MOL0     H85494   5.783   2.131   7.251 -1.9060 -0.0057  2.8556
  648MOL0     H85495   5.791   2.157   7.420  0.0576  1.5862  0.6937
  648MOL0     H85496   5.797   2.353   7.203 -0.3606  1.3574  0.6266
  648MOL0     H85497   5.847   2.408   7.361 -1.7575  2.1612 -0.6551
  648MOL0     H85498   5.637   2.213   7.108  2.5503  1.8045  1.5746
  648MOL0     H85499   5.423   2.161   6.994  1.9044 -1.5441  0.2546
  648MOL0     H85500   4.944   2.186   6.888 -3.8484 -2.6812 -1.6655
  648MOL0     H85501   4.698   2.208   6.847 -0.5501  2.4564 -1.0340
  648MOL0     H85502   4.465   2.238   6.825  0.6384  0.6505 -0.3570
  648MOL0     H85503   4.543   2.391   6.818 -1.4676  0.4507 -1.5128
  648MOL0     H85504   4.304   2.426   6.804 -0.5553  2.3870  0.3178
  648MOL0     H85505   4.342   2.482   6.973 -0.5405  0.5867  1.1171
  648MOL0     H85506   4.257   2.314   7.079  0.5371  3.1244 -0.7331
  648MOL0     H85507   4.261   2.197   6.933 -0.5402 -0.2210 -0.0815
  648MOL0     H85508   4.078   2.312   6.824 -1.2725  3.5521  0.1970
  648MOL0     H85509   4.048   2.249   6.985  1.5478 -1.1830  1.1219
  648MOL0     H85510   4.124   2.540   6.980 -2.0721  1.7130  1.0619
  648MOL0     H85511   4.008   2.449   7.076 -2.8207 -0.2913 -1.4848
  648MOL0     H85512   3.985   2.509   6.782  1.2313  4.0870  0.1413
  648MOL0     H85513   3.913   2.611   6.911 -1.0928 -1.1758  0.9835
  648MOL0     H85514   3.843   2.317   6.877 -0.5570 -1.0419 -0.0879
  648MOL0     H85515   3.785   2.424   7.011  0.0139 -0.9785 -0.2388
  648MOL0     H85516   3.687   2.554   6.798 -2.7962  0.0173  1.8804
  648MOL0     H85517   3.602   2.411   6.822  0.0800 -0.0355  2.4554
  648MOL0     H85518   4.626   2.370   7.220 -0.8955 -3.3414  0.2807
  648MOL0     H85519   4.891   2.403   7.252  1.7664  0.5433 -1.0293
  648MOL0     H85520   5.219   2.385   7.298  0.2625 -0.7465  1.5488
  648MOL0     H85521   5.411   2.432   7.407  0.0163  1.4890 -1.0706
  648MOL0     H85522   7.423   1.930   7.367  0.4163 -2.9595 -2.1418
  648MOL0     H85523   7.610   2.049   7.406 -0.2369  0.0860  0.2788
  648MOL0     H85524   8.054   2.275   7.400 -0.8302 -1.4286  0.3069
  648MOL0     H85525   8.252   2.377   7.519 -0.1358  0.2388 -0.4706
  648MOL0     H85526   8.384   2.491   7.636 -2.1546 -2.3090 -2.3223
  648MOL0     H85527   8.476   2.345   7.645  0.7595  0.4688  0.2579
  648MOL0     H85528   8.472   2.582   7.836 -0.1861  0.0166 -1.6554
  648MOL0     H85529   8.517   2.425   7.898 -2.8389  0.8877  0.3454
  648MOL0     H85530   8.669   2.543   7.663  1.3022  0.3071  0.1216
  648MOL0     H85531   8.707   2.382   7.736 -1.9337 -0.3973 -0.3002
  648MOL0     H85532   8.714   2.651   7.880 -2.7851 -0.9654 -1.4294
  648MOL0     H85533   8.742   2.484   7.947  1.1371 -0.4452  0.4404
  648MOL0     H85534   9.111   2.587   7.748  0.4302 -2.1317  0.2391
  648MOL0     H85535   8.113   2.222   7.889  0.5401 -0.9627  0.0223
  648MOL0     H85536   7.930   2.116   7.779 -1.0003  1.5823  1.1001
  649MOL0     O85537   4.105   0.943   3.975  0.1117  0.2440  0.7823
  649MOL0     C85538   4.142   0.982   4.080  0.8810 -0.5232 -0.9805
  649MOL0     O85539   4.057   1.009   4.181 -0.2137 -0.2278 -0.0546
  649MOL0     C85540   3.923   0.991   4.160  0.3228  0.1862 -0.0709
  649MOL0     C85541   3.871   0.864   4.181  0.5316 -0.6431 -0.3523
  649MOL0     C85542   3.736   0.838   4.158  0.0979 -0.6746 -0.0592
  649MOL0     C85543   3.653   0.938   4.112 -0.3049  1.0643  0.2299
  649MOL0     O85544   3.521   0.908   4.089  0.4191 -0.2794 -0.1987
  649MOL0     C85545   3.426   1.015   4.080 -0.5964  0.8461  0.5018
  649MOL0     C85546   3.286   0.948   4.079  0.0650 -0.3319  0.4111
  649MOL0     C85547   3.180   1.056   4.128 -0.3525  0.3083  0.0541
  649MOL0     C85548   3.038   1.016   4.093 -0.6423  0.1482  0.0883
  649MOL0     C85549   2.947   1.144   4.104 -0.0603  0.4479 -0.4103
  649MOL0     C85550   2.802   1.098   4.123  0.5341 -0.8026 -0.2663
  649MOL0     C85551   2.783   1.014   4.264 -0.0167 -0.3240 -0.5027
  649MOL0     C85552   2.636   0.975   4.297 -0.4886  0.8068 -0.1791
  649MOL0     N85553   2.633   0.849   4.379  0.1178  0.2740 -0.0008
  649MOL0     C85554   2.642   0.728   4.322  0.1876  0.1549  0.3891
  649MOL0     C85555   2.598   0.630   4.412 -0.7135 -0.9542  0.7370
  649MOL0     C85556   2.625   0.481   4.383 -0.0495 -0.8382  0.4208
  649MOL0     C85557   2.500   0.407   4.395  0.2458  0.1785  0.3816
  649MOL0     C85558   2.502   0.268   4.339 -0.2597  0.2616  0.1861
  649MOL0     C85559   2.355   0.207   4.339 -0.8591  0.5537 -0.0766
  649MOL0     O85560   2.263   0.296   4.271 -0.7136 -0.3513 -0.2634
  649MOL0     C85561   2.135   0.292   4.324  0.5751 -0.3032  0.1311
  649MOL0     C85562   2.081   0.187   4.414 -0.4333  0.7395  0.7126
  649MOL0     C85563   1.952   0.189   4.467 -0.4941  0.2858 -1.3041
  649MOL0     C85564   1.857   0.293   4.440 -0.8658 -0.5920 -0.1121
  649MOL0     C85565   1.723   0.298   4.494 -0.0031 -1.0367 -0.3899
  649MOL0     O85566   1.671   0.418   4.456 -0.5093 -0.0950 -0.8209
  649MOL0     C85567   1.542   0.468   4.497 -0.4701  0.5503  0.4899
  649MOL0     C85568   1.530   0.598   4.443  0.0252  0.6521 -0.4404
  649MOL0     C85569   1.410   0.663   4.452 -0.3410  0.8001 -1.3304
  649MOL0     C85570   1.297   0.603   4.512 -0.4938 -0.9535 -0.6789
  649MOL0     O85571   1.183   0.677   4.501 -0.4594 -1.0777  0.2376
  649MOL0     C85572   1.075   0.596   4.449  0.2643 -1.3146 -0.0946
  649MOL0     C85573   0.958   0.703   4.411  0.1401  0.4759 -0.9432
  649MOL0     C85574   0.831   0.636   4.339 -0.0158 -0.3044 -0.0582
  649MOL0     C85575   0.761   0.529   4.423  0.0057  0.0156 -0.1026
  649MOL0     C85576   0.653   0.444   4.359  0.5166 -0.4280  0.7132
  649MOL0     C85577   0.711   0.308   4.306 -0.3857 -0.2145  0.9467
  649MOL0     C85578   0.608   0.232   4.224 -0.6595 -1.2208  0.4039
  649MOL0     C85579   0.508   0.151   4.310  0.0366 -0.2720  0.2398
  649MOL0    Cl85580   0.580   0.021   4.403  0.2479  0.0605  0.4058
  649MOL0     C85581   1.310   0.471   4.571  0.1286  0.3965  0.8436
  649MOL0     C85582   1.430   0.407   4.556 -0.2994  0.4350  0.3114
  649MOL0     O85583   1.672   0.212   4.565 -0.2515 -0.2808  0.2435
  649MOL0     C85584   1.910   0.390   4.349 -0.2621 -0.3088 -0.1464
  649MOL0     C85585   2.045   0.390   4.293 -0.2625  0.8361 -0.2507
  649MOL0     N85586   2.566   0.691   4.525 -0.4627  0.9231 -0.8469
  649MOL0     N85587   2.582   0.823   4.508  0.8441 -0.3132 -0.4418
  649MOL0     C85588   3.706   1.064   4.081  0.3017  0.4544 -0.2601
  649MOL0     C85589   3.847   1.087   4.101  0.2932 -0.1866  0.1296
  649MOL0     C85590   4.281   1.018   4.117 -0.2878 -0.5466  0.1663
  649MOL0     C85591   4.311   1.085   4.242 -0.0782  0.1222  1.1264
  649MOL0     C85592   4.436   1.141   4.276 -0.4245 -0.2840 -0.0026
  649MOL0     C85593   4.550   1.116   4.188 -0.2925  0.3709 -0.0487
  649MOL0     O85594   4.673   1.165   4.228 -0.2111  0.1053  0.3663
  649MOL0     C85595   4.786   1.150   4.146 -0.3246  0.8392 -0.7922
  649MOL0     C85596   4.901   1.234   4.192  0.5882 -0.9886  1.6733
  649MOL0     C85597   4.883   1.388   4.181  0.3854  0.4543  0.6984
  649MOL0     C85598   4.994   1.464   4.237  1.0935 -0.7293  1.1677
  649MOL0     C85599   4.993   1.610   4.204  0.2783 -0.0934 -0.3114
  649MOL0     C85600   4.977   1.721   4.167 -0.2589  0.3564 -0.6405
  649MOL0     C85601   4.524   1.050   4.069  0.4568 -0.7889 -0.1187
  649MOL0     C85602   4.388   1.007   4.035 -0.1998 -1.2505  0.4686
  649MOL0     H85603   3.924   0.791   4.242  0.1057  0.0527  0.8974
  649MOL0     H85604   3.700   0.741   4.190  0.4750 -1.1615 -1.0637
  649MOL0     H85605   3.435   1.071   3.987  2.4092 -1.3343 -0.6697
  649MOL0     H85606   3.431   1.090   4.159 -2.3590  0.5226  0.9818
  649MOL0     H85607   3.280   0.855   4.135  0.4247 -0.5735  0.0464
  649MOL0     H85608   3.272   0.933   3.972  2.2631 -2.2102  0.3216
  649MOL0     H85609   3.208   1.145   4.069  0.6796 -1.2644 -1.9582
  649MOL0     H85610   3.193   1.073   4.235 -0.7837 -0.1318  0.1751
  649MOL0     H85611   3.030   0.989   3.987 -0.2665 -2.5025  0.6786
  649MOL0     H85612   3.005   0.927   4.148  2.4286 -2.8261 -2.4451
  649MOL0     H85613   2.954   1.194   4.007 -0.7065  0.4064 -0.4826
  649MOL0     H85614   2.975   1.211   4.186 -1.1190 -0.4490  0.7180
  649MOL0     H85615   2.778   1.032   4.038  0.1224 -2.3134  0.9690
  649MOL0     H85616   2.728   1.178   4.121  1.6200  0.2198 -0.3607
  649MOL0     H85617   2.849   0.928   4.253  1.2967  0.4138  1.2449
  649MOL0     H85618   2.826   1.075   4.344 -0.7082 -0.2430 -0.1836
  649MOL0     H85619   2.583   0.950   4.205 -0.9790 -2.4361  0.8569
  649MOL0     H85620   2.583   1.054   4.350  1.3763  0.3045  2.6886
  649MOL0     H85621   2.682   0.698   4.226  0.1063 -0.2138  0.4712
  649MOL0     H85622   2.715   0.444   4.433  0.3662 -0.0223  0.2937
  649MOL0     H85623   2.649   0.475   4.277 -3.9006 -2.2298 -0.5390
  649MOL0     H85624   2.428   0.468   4.341  1.8830  2.0707  0.2292
  649MOL0     H85625   2.468   0.397   4.499  2.1682 -1.1475  0.9088
  649MOL0     H85626   2.529   0.273   4.233 -1.6155  0.5764 -0.1634
  649MOL0     H85627   2.573   0.194   4.379  2.2679  2.4660  0.0762
  649MOL0     H85628   2.327   0.186   4.442  0.9816  1.8140  0.7382
  649MOL0     H85629   2.351   0.118   4.276 -2.4455 -0.6787  1.6697
  649MOL0     H85630   2.132   0.095   4.441  2.4496  2.0890  0.1325
  649MOL0     H85631   1.916   0.104   4.524  0.2212  1.3249  0.7819
  649MOL0     H85632   1.609   0.639   4.380 -2.3368  1.7766 -2.8257
  649MOL0     H85633   1.397   0.757   4.399 -0.7981  1.6025  0.1524
  649MOL0     H85634   1.027   0.533   4.525 -0.9532  0.1189  0.3780
  649MOL0     H85635   1.116   0.539   4.365  3.2003  1.2787 -0.6395
  649MOL0     H85636   0.996   0.787   4.351  1.4675  1.0672  0.6480
  649MOL0     H85637   0.925   0.739   4.509  0.8189 -0.4798 -0.3440
  649MOL0     H85638   0.863   0.616   4.236 -0.1701  1.8315 -0.5721
  649MOL0     H85639   0.756   0.714   4.325  0.2498  0.3102  1.7487
  649MOL0     H85640   0.832   0.458   4.468 -2.1256 -0.3443  3.0604
  649MOL0     H85641   0.715   0.582   4.507  0.3870  2.5885 -1.4454
  649MOL0     H85642   0.584   0.498   4.292  0.2075 -0.6864  0.8191
  649MOL0     H85643   0.582   0.419   4.438  0.6304  2.6382  1.9130
  649MOL0     H85644   0.742   0.241   4.387  2.5138  0.4433  0.5136
  649MOL0     H85645   0.804   0.331   4.253  0.9760 -1.0001  2.8734
  649MOL0     H85646   0.548   0.295   4.158  1.7286 -1.1644 -1.9000
  649MOL0     H85647   0.659   0.162   4.157  2.0848  0.5185  0.5403
  649MOL0     H85648   0.431   0.103   4.248 -0.0871  1.6318 -1.1579
  649MOL0     H85649   0.465   0.217   4.386  0.8960  0.7593 -0.1424
  649MOL0     H85650   1.224   0.416   4.608 -0.0235 -0.9186 -1.2497
  649MOL0     H85651   1.439   0.302   4.582  0.4609  0.4421  0.1127
  649MOL0     H85652   1.848   0.478   4.339  2.1884  1.7873  1.6418
  649MOL0     H85653   2.091   0.470   4.237  0.7225  1.3993  1.3158
  649MOL0     H85654   3.635   1.132   4.036  0.0037 -0.1214 -0.6655
  649MOL0     H85655   3.887   1.178   4.059 -1.9756  0.2144 -1.3705
  649MOL0     H85656   4.229   1.114   4.306 -1.7462 -0.3785 -0.6788
  649MOL0     H85657   4.445   1.196   4.369 -2.3957 -1.5231  0.9983
  649MOL0     H85658   4.767   1.171   4.040 -0.1073  0.1439 -0.9786
  649MOL0     H85659   4.811   1.045   4.165 -2.2199  0.7284  1.4951
  649MOL0     H85660   4.929   1.209   4.295  0.5236 -0.8559  1.7228
  649MOL0     H85661   4.984   1.210   4.125  0.3250 -0.4445  1.1417
  649MOL0     H85662   4.792   1.428   4.225 -0.1482 -2.0712  2.1177
  649MOL0     H85663   4.883   1.414   4.075 -0.0664 -0.8700  0.3402
  649MOL0     H85664   4.991   1.447   4.345  2.0623 -0.1237  1.3031
  649MOL0     H85665   5.087   1.425   4.195  0.7683 -1.6359  1.2764
  649MOL0     H85666   4.972   1.823   4.134  1.0793  1.6306  2.6751
  649MOL0     H85667   4.599   1.038   3.991 -0.4032 -0.6550 -0.9894
  649MOL0     H85668   4.362   0.959   3.941 -2.7441 -3.2194  2.0274
  650MOL0     O85669   0.933   4.713   1.695 -0.1789 -0.2833 -0.5517
  650MOL0     C85670   1.004   4.672   1.786 -0.7035  0.7893  0.5577
  650MOL0     O85671   0.961   4.620   1.903 -0.3068  0.2334 -0.6005
  650MOL0     C85672   0.827   4.596   1.915 -0.9115 -0.4001  0.0302
  650MOL0     C85673   0.770   4.482   1.845  0.8932  0.1813  1.0672
  650MOL0     C85674   0.638   4.442   1.886  0.0430  0.5393 -0.1041
  650MOL0     C85675   0.572   4.504   1.989 -0.2494 -0.5324 -0.5595
  650MOL0     O85676   0.447   4.460   2.010  0.5479 -0.1415 -0.7109
  650MOL0     C85677   0.359   4.564   2.058  0.0241  0.3143 -0.2592
  650MOL0     C85678   0.217   4.505   2.047 -0.8804 -0.7548  0.0543
  650MOL0     C85679   0.113   4.606   2.089  0.4078  0.4623 -0.6819
  650MOL0     C85680  -0.023   4.537   2.101 -0.3398 -0.5377 -0.1538
  650MOL0     C85681  -0.144   4.636   2.125  0.3949  0.4541 -0.0322
  650MOL0     C85682  -0.267   4.553   2.168 -0.7721  0.5069 -0.0047
  650MOL0     C85683  -0.390   4.647   2.179 -0.2131 -0.9435 -0.0812
  650MOL0     C85684  -0.521   4.601   2.243  0.8604  0.3216  0.4079
  650MOL0     N85685  -0.616   4.711   2.235 -0.1366 -0.1976 -1.0222
  650MOL0     C85686  -0.605   4.821   2.311 -1.2244 -0.0060  0.4413
  650MOL0     C85687  -0.655   4.917   2.239 -0.2542  0.4430 -0.0613
  650MOL0     C85688  -0.670   5.062   2.265  0.0232  0.7357 -0.2061
  650MOL0     C85689  -0.752   5.107   2.386  0.2765 -0.0944  0.5146
  650MOL0     C85690  -0.737   5.260   2.376 -0.0200  0.2144 -1.1237
  650MOL0     C85691  -0.801   5.332   2.484  0.0888  0.2077 -0.4875
  650MOL0     O85692  -0.945   5.321   2.468 -0.4497 -0.6587 -0.8100
  650MOL0     C85693  -1.012   5.358   2.586 -0.1774 -0.1051 -0.0268
  650MOL0     C85694  -1.149   5.330   2.589  0.8466  0.5941 -0.3921
  650MOL0     C85695  -1.236   5.360   2.695 -0.2369 -0.0012  1.1025
  650MOL0     C85696  -1.182   5.407   2.814 -0.2842  0.0232  0.0891
  650MOL0     C85697  -1.266   5.419   2.934 -0.4218  0.1712 -0.1915
  650MOL0     O85698  -1.196   5.409   3.050  1.0125  0.1223 -0.1481
  650MOL0     C85699  -1.273   5.423   3.161  0.9739 -0.6467 -0.8247
  650MOL0     C85700  -1.349   5.314   3.207  0.2894 -0.3426  0.1804
  650MOL0     C85701  -1.404   5.320   3.339  0.1388 -0.4169  0.7644
  650MOL0     C85702  -1.410   5.440   3.410 -0.3209  0.3923 -1.0393
  650MOL0     O85703  -1.461   5.447   3.533  0.2459 -0.1846  0.0998
  650MOL0     C85704  -1.604   5.451   3.535 -0.6413  0.4755 -0.6910
  650MOL0     C85705  -1.670   5.403   3.668  0.0627 -0.6016  0.5028
  650MOL0     C85706  -1.618   5.485   3.791 -0.6144 -0.1217 -0.8223
  650MOL0     C85707  -1.672   5.448   3.924  0.8407 -0.2043 -0.2331
  650MOL0     C85708  -1.827   5.428   3.936 -0.2400  0.5012  0.5858
  650MOL0     C85709  -1.901   5.556   3.922 -0.6012  0.0663  0.3872
  650MOL0     C85710  -1.865   5.657   4.036 -0.1130 -0.1252  0.4764
  650MOL0     C85711  -1.944   5.797   4.009 -0.9989  0.6637  0.6115
  650MOL0    Cl85712  -1.919   5.871   3.856 -0.3976  0.0500 -0.0503
  650MOL0     C85713  -1.333   5.546   3.362 -0.3126  0.4561 -0.4683
  650MOL0     C85714  -1.264   5.538   3.240  0.6963 -0.5274 -0.2694
  650MOL0     O85715  -1.391   5.441   2.924 -0.1777 -0.1607  0.6131
  650MOL0     C85716  -1.041   5.427   2.821  0.6819  0.0709  0.4671
  650MOL0     C85717  -0.963   5.406   2.711  0.0225  0.7009  0.5627
  650MOL0     N85718  -0.702   4.855   2.122  0.0852  0.8744 -0.1243
  650MOL0     N85719  -0.681   4.734   2.120  0.4918  0.1290 -0.2344
  650MOL0     C85720   0.630   4.611   2.055 -0.0815 -1.1118  0.4991
  650MOL0     C85721   0.758   4.666   2.014 -0.2819  0.9435 -0.0299
  650MOL0     C85722   1.150   4.702   1.773 -0.0004  0.2966  0.4257
  650MOL0     C85723   1.241   4.656   1.870  0.1169 -0.0596 -0.1196
  650MOL0     C85724   1.381   4.671   1.856 -0.0408 -0.1628 -0.0754
  650MOL0     C85725   1.433   4.759   1.761  0.7874 -0.0068  0.3049
  650MOL0     O85726   1.559   4.787   1.740  0.0891  0.2060 -0.8573
  650MOL0     C85727   1.648   4.788   1.845  0.6504  0.1966 -0.3760
  650MOL0     C85728   1.784   4.831   1.798  0.1800  0.0285 -0.6059
  650MOL0     C85729   1.894   4.815   1.909  0.0828 -0.3301 -0.2010
  650MOL0     C85730   2.025   4.873   1.877  0.1297  0.0937 -0.1819
  650MOL0     C85731   2.127   4.871   1.975  0.2486 -0.1198  0.4506
  650MOL0     C85732   2.206   4.878   2.064  0.0394  0.7631  0.3580
  650MOL0     C85733   1.340   4.813   1.669 -0.8674 -0.0133  0.2055
  650MOL0     C85734   1.204   4.779   1.672 -0.8938 -1.2402 -0.4881
  650MOL0     H85735   0.821   4.433   1.763  0.5489  2.2350 -0.4542
  650MOL0     H85736   0.587   4.359   1.838  1.9617 -0.0738 -1.1611
  650MOL0     H85737   0.370   4.653   1.996 -1.4737  0.5739 -0.1696
  650MOL0     H85738   0.378   4.598   2.160  1.0994  2.8617 -1.2263
  650MOL0     H85739   0.220   4.424   2.120  2.0378 -1.2006 -0.4368
  650MOL0     H85740   0.208   4.468   1.945  1.6118  0.9523 -0.8842
  650MOL0     H85741   0.107   4.673   2.002  0.0523  0.8476 -0.3681
  650MOL0     H85742   0.142   4.664   2.177  0.2056 -0.0333 -0.2868
  650MOL0     H85743  -0.035   4.475   2.012  0.2946 -0.7084 -0.1206
  650MOL0     H85744  -0.022   4.469   2.187  1.6221 -0.6158 -0.1919
  650MOL0     H85745  -0.159   4.695   2.034 -0.7736  1.3689  0.7203
  650MOL0     H85746  -0.110   4.701   2.206  1.8195  1.1040 -1.1271
  650MOL0     H85747  -0.249   4.493   2.258 -1.7359  1.8700  1.1500
  650MOL0     H85748  -0.285   4.478   2.091  0.2125  1.5216 -1.2673
  650MOL0     H85749  -0.363   4.739   2.232 -2.3954  1.1742 -2.3469
  650MOL0     H85750  -0.413   4.678   2.076 -1.1337  2.8850  1.1194
  650MOL0     H85751  -0.505   4.569   2.346 -0.6825  0.1699  0.6233
  650MOL0     H85752  -0.563   4.516   2.188 -1.2279  1.3146  0.3539
  650MOL0     H85753  -0.548   4.845   2.401 -0.1348  3.2915 -0.9796
  650MOL0     H85754  -0.707   5.112   2.175  0.6639 -1.1638 -1.5815
  650MOL0     H85755  -0.573   5.109   2.285  0.0461  0.9624 -0.8336
  650MOL0     H85756  -0.714   5.060   2.478  0.8245 -2.5263 -0.8770
  650MOL0     H85757  -0.857   5.082   2.369 -0.0256  0.8621  0.8870
  650MOL0     H85758  -0.632   5.290   2.383  0.2775 -0.5687 -1.9452
  650MOL0     H85759  -0.788   5.290   2.284  0.0344  0.8626 -0.9463
  650MOL0     H85760  -0.766   5.435   2.472  3.7657 -0.8997 -0.6176
  650MOL0     H85761  -0.762   5.312   2.585  0.1905  0.2391 -0.5200
  650MOL0     H85762  -1.199   5.293   2.500 -1.8368 -1.1409  1.6596
  650MOL0     H85763  -1.343   5.341   2.696  0.0416 -1.7887  2.9381
  650MOL0     H85764  -1.346   5.226   3.144  0.6013 -0.9762  1.0533
  650MOL0     H85765  -1.439   5.226   3.381  0.4367 -0.5005  0.8267
  650MOL0     H85766  -1.652   5.396   3.454 -0.9786 -2.1311  1.1623
  650MOL0     H85767  -1.645   5.550   3.511 -2.3660 -0.2373 -0.7924
  650MOL0     H85768  -1.658   5.298   3.697 -2.5282 -0.9872  0.4454
  650MOL0     H85769  -1.777   5.414   3.647  0.5153  0.3417 -1.6047
  650MOL0     H85770  -1.637   5.592   3.782  0.3623  0.1287 -0.1286
  650MOL0     H85771  -1.508   5.481   3.794 -0.6324 -1.5373 -1.0817
  650MOL0     H85772  -1.620   5.356   3.952  0.6339  0.1302  1.3467
  650MOL0     H85773  -1.635   5.521   3.997  0.4441  0.3651 -0.5878
  650MOL0     H85774  -1.852   5.385   4.034 -1.5656  1.1271  0.5506
  650MOL0     H85775  -1.866   5.357   3.862  2.4108  0.4436 -0.8705
  650MOL0     H85776  -2.009   5.538   3.931 -0.7671  1.3145  1.2242
  650MOL0     H85777  -1.882   5.598   3.823  0.5106  0.1128  0.6059
  650MOL0     H85778  -1.889   5.619   4.136  3.6893 -0.7804  1.2908
  650MOL0     H85779  -1.763   5.694   4.049 -0.2741  0.6724 -0.4696
  650MOL0     H85780  -1.909   5.870   4.082 -1.5829  2.4735 -0.8385
  650MOL0     H85781  -2.053   5.782   4.007 -1.0485  0.8167  1.4835
  650MOL0     H85782  -1.323   5.629   3.431 -2.6895 -0.9908  1.8153
  650MOL0     H85783  -1.198   5.618   3.207 -0.8528  0.4931 -0.9776
  650MOL0     H85784  -0.994   5.475   2.907 -2.9729  5.0864  0.1116
  650MOL0     H85785  -0.856   5.426   2.708  0.2201 -0.3334 -2.3049
  650MOL0     H85786   0.579   4.668   2.132  0.5701 -0.4121  0.4198
  650MOL0     H85787   0.799   4.753   2.063  3.5019  0.6345 -2.2833
  650MOL0     H85788   1.195   4.609   1.956 -1.1113  1.4240  0.0842
  650MOL0     H85789   1.437   4.625   1.936 -1.8484 -0.0070  1.3282
  650MOL0     H85790   1.658   4.683   1.873 -1.8364  0.3333  1.4174
  650MOL0     H85791   1.617   4.850   1.930 -1.4720 -0.1389 -0.8373
  650MOL0     H85792   1.803   4.772   1.707 -1.9389  1.0590 -1.7999
  650MOL0     H85793   1.787   4.933   1.758 -0.2560 -0.3952 -1.7952
  650MOL0     H85794   1.918   4.708   1.910 -1.5060 -0.8340 -2.9565
  650MOL0     H85795   1.860   4.866   2.000  1.2619  0.7806 -0.3658
  650MOL0     H85796   2.063   4.819   1.791 -1.3649 -1.3176 -0.0041
  650MOL0     H85797   2.006   4.976   1.845  2.1102  0.0784 -1.5531
  650MOL0     H85798   2.278   4.896   2.142  1.1146 -0.2789 -0.3766
  650MOL0     H85799   1.366   4.881   1.588 -1.5520  1.0923  0.8905
  650MOL0     H85800   1.159   4.826   1.585  2.8862  1.3199 -1.3122
  651MOL0     O85801   5.507  10.520   1.412 -0.2623 -0.1434 -0.0963
  651MOL0     C85802   5.527  10.502   1.291  0.0003 -0.9124  0.7555
  651MOL0     O85803   5.456  10.424   1.211  0.1234  0.3898  0.9061
  651MOL0     C85804   5.340  10.374   1.257 -0.6277  0.4130  0.5391
  651MOL0     C85805   5.325  10.236   1.250 -0.5508 -0.4973  0.7145
  651MOL0     C85806   5.204  10.173   1.293  0.1580 -0.0267 -0.3058
  651MOL0     C85807   5.103  10.257   1.335  1.1767  0.0960 -0.4567
  651MOL0     O85808   4.968  10.224   1.350 -0.3438 -0.6804  0.0434
  651MOL0     C85809   4.917  10.091   1.323  0.6004 -0.5257 -0.2431
  651MOL0     C85810   4.762  10.093   1.320 -0.7864 -0.3515  0.2060
  651MOL0     C85811   4.701  10.208   1.238  0.2867  0.2805  0.2339
  651MOL0     C85812   4.660  10.324   1.330 -0.3849 -0.1799 -0.1565
  651MOL0     C85813   4.575  10.421   1.259 -0.7926  0.7208  0.2772
  651MOL0     C85814   4.529  10.527   1.358 -0.7290  0.0075 -0.1710
  651MOL0     C85815   4.460  10.648   1.306 -1.2048  0.3889  0.7952
  651MOL0     C85816   4.321  10.611   1.253  0.0001 -0.2089 -0.9583
  651MOL0     N85817   4.239  10.721   1.216  0.4966 -0.3633  0.1570
  651MOL0     C85818   4.262  10.813   1.114 -0.2389  1.0198  0.1205
  651MOL0     C85819   4.149  10.882   1.104 -0.1676 -0.4245  0.1244
  651MOL0     C85820   4.130  10.999   1.010 -0.7475  0.1862  0.3551
  651MOL0     C85821   3.979  11.004   0.959  0.3979 -0.7311 -0.5201
  651MOL0     C85822   3.953  11.116   0.860 -0.4338  0.0352 -0.5078
  651MOL0     C85823   3.806  11.144   0.841  0.0340 -0.1418  0.2520
  651MOL0     O85824   3.784  11.243   0.737 -0.3046  0.1871  0.3191
  651MOL0     C85825   3.656  11.279   0.717  0.7860  0.2973  0.8099
  651MOL0     C85826   3.640  11.376   0.617  0.1545  0.2810  0.1061
  651MOL0     C85827   3.517  11.434   0.596  0.2386 -0.2421 -0.4952
  651MOL0     C85828   3.400  11.382   0.662 -0.1794 -0.1716  0.7860
  651MOL0     C85829   3.269  11.438   0.623 -0.1737  0.6950 -0.7586
  651MOL0     O85830   3.268  11.520   0.513  0.3258 -0.2094 -0.0593
  651MOL0     C85831   3.150  11.563   0.466 -0.1633 -0.5489  0.7684
  651MOL0     C85832   3.027  11.495   0.456  0.4085 -0.5729  0.6349
  651MOL0     C85833   2.910  11.561   0.394 -0.1106 -0.4595  0.6069
  651MOL0     C85834   2.925  11.695   0.338 -0.1488  0.1686  0.1078
  651MOL0     O85835   2.832  11.765   0.264 -0.4424  0.3452  0.6430
  651MOL0     C85836   2.708  11.693   0.245 -0.1080 -0.6587  0.2936
  651MOL0     C85837   2.640  11.771   0.135 -0.1308  0.2403  0.3625
  651MOL0     C85838   2.511  11.708   0.100  0.2838 -0.0149  0.6441
  651MOL0     C85839   2.399  11.728   0.204  0.3622 -0.2707 -0.0324
  651MOL0     C85840   2.262  11.714   0.141  0.0374  0.0896 -0.2834
  651MOL0     C85841   2.151  11.727   0.239 -0.0582  0.1665  0.1218
  651MOL0     C85842   2.143  11.869   0.302 -0.2233  0.4518  0.1270
  651MOL0     C85843   2.046  11.882   0.430 -0.0154  0.3541  0.4653
  651MOL0    Cl85844   1.882  11.827   0.392  0.0447 -0.0571  0.1985
  651MOL0     C85845   3.054  11.750   0.344  0.3624  0.1819  0.3222
  651MOL0     C85846   3.163  11.691   0.408  0.7699 -0.0069  0.3887
  651MOL0     O85847   3.176  11.396   0.692 -0.0733 -0.2452  0.1414
  651MOL0     C85848   3.422  11.278   0.757  0.7328 -0.0091 -0.5697
  651MOL0     C85849   3.541  11.226   0.782  0.6111 -0.1141  0.6712
  651MOL0     N85850   4.054  10.821   1.184  0.2573  1.1272 -0.6486
  651MOL0     N85851   4.105  10.718   1.240  0.7554 -0.2471 -0.0695
  651MOL0     C85852   5.122  10.397   1.351 -0.9173 -0.3474  0.6644
  651MOL0     C85853   5.237  10.451   1.309 -0.1879 -0.8081  0.5922
  651MOL0     C85854   5.649  10.569   1.236 -0.6991  0.1522  0.0207
  651MOL0     C85855   5.701  10.681   1.304  0.5012 -0.4366 -0.8717
  651MOL0     C85856   5.817  10.736   1.270 -0.3200 -0.1023 -0.1655
  651MOL0     C85857   5.882  10.700   1.146  0.1449  0.6099 -1.2175
  651MOL0     O85858   5.994  10.767   1.107  0.0190  0.1438  0.8643
  651MOL0     C85859   6.055  10.729   0.977 -0.1461  0.0498  0.1424
  651MOL0     C85860   6.157  10.830   0.937 -0.2389 -1.1414  0.3483
  651MOL0     C85861   6.266  10.846   1.037  0.1545 -0.3030  0.1980
  651MOL0     C85862   6.374  10.951   1.001  0.0024  0.3665 -0.3662
  651MOL0     C85863   6.480  10.899   0.926 -0.4017 -0.3012  0.0217
  651MOL0     C85864   6.563  10.865   0.840 -0.3213  0.3553 -0.2152
  651MOL0     C85865   5.840  10.583   1.080 -0.0777 -0.3676 -0.8159
  651MOL0     C85866   5.724  10.519   1.130  0.1857 -0.0907 -0.4031
  651MOL0     H85867   5.401  10.174   1.205 -2.8112 -1.5876 -1.8523
  651MOL0     H85868   5.183  10.067   1.279  0.9877 -0.4687  1.4917
  651MOL0     H85869   4.946  10.023   1.404 -0.0452  1.6024  1.8884
  651MOL0     H85870   4.963  10.058   1.229 -2.8262 -0.5001 -2.0999
  651MOL0     H85871   4.716  10.087   1.419  0.4749 -0.9167  0.7783
  651MOL0     H85872   4.736   9.999   1.270  0.2866  0.0219 -1.1350
  651MOL0     H85873   4.623  10.179   1.167 -0.5095 -1.3328  1.6826
  651MOL0     H85874   4.780  10.254   1.177 -0.4065  0.7902 -0.2863
  651MOL0     H85875   4.599  10.292   1.415  1.7109  0.1354  1.5342
  651MOL0     H85876   4.747  10.382   1.361  1.9113 -2.7354 -1.3688
  651MOL0     H85877   4.482  10.374   1.226 -0.8218 -0.9006  2.4517
  651MOL0     H85878   4.625  10.453   1.167  0.7599 -0.9437  0.4890
  651MOL0     H85879   4.623  10.556   1.406  1.9419 -0.2967 -4.5931
  651MOL0     H85880   4.462  10.470   1.422  0.9255 -3.0693 -0.9419
  651MOL0     H85881   4.462  10.723   1.386  0.0620  0.2192  0.9336
  651MOL0     H85882   4.521  10.688   1.224 -0.1608 -1.8927  0.3928
  651MOL0     H85883   4.266  10.567   1.336 -1.8561 -0.0185 -2.0328
  651MOL0     H85884   4.324  10.541   1.170  0.3637 -1.1547 -0.1690
  651MOL0     H85885   4.346  10.828   1.047 -0.6375  2.7094 -0.0437
  651MOL0     H85886   4.198  11.000   0.925 -0.8365 -0.3658  0.2776
  651MOL0     H85887   4.148  11.093   1.064 -2.2339 -0.1721  1.5645
  651MOL0     H85888   3.912  11.011   1.044  2.3366 -2.8407  1.3058
  651MOL0     H85889   3.964  10.907   0.909  1.2410 -1.1366 -0.0026
  651MOL0     H85890   4.003  11.205   0.899 -1.2077  0.8903 -1.3943
  651MOL0     H85891   3.996  11.092   0.762  0.7246 -1.2437  0.2939
  651MOL0     H85892   3.754  11.168   0.934  0.3816 -0.2752  0.4845
  651MOL0     H85893   3.766  11.048   0.808 -1.9818  0.3416  1.1974
  651MOL0     H85894   3.726  11.415   0.563  0.9283 -2.3559 -0.6954
  651MOL0     H85895   3.516  11.522   0.532  0.2427 -0.1658 -0.3918
  651MOL0     H85896   3.006  11.396   0.495  0.5439 -1.6297 -1.8358
  651MOL0     H85897   2.808  11.524   0.387 -1.0059  2.1531 -2.6612
  651MOL0     H85898   2.645  11.683   0.334  0.1098 -0.6485  0.4529
  651MOL0     H85899   2.723  11.591   0.209 -1.8365 -0.5386 -0.9041
  651MOL0     H85900   2.700  11.752   0.046 -0.5930 -1.5384  0.3819
  651MOL0     H85901   2.624  11.877   0.154  2.0149  1.1419 -2.2377
  651MOL0     H85902   2.517  11.600   0.083 -1.9468 -0.1982  0.7335
  651MOL0     H85903   2.489  11.748   0.000  2.1394 -1.9501 -0.6275
  651MOL0     H85904   2.408  11.661   0.290 -1.5976 -0.6512 -0.0848
  651MOL0     H85905   2.407  11.833   0.233 -1.1851 -0.1846  0.1734
  651MOL0     H85906   2.255  11.627   0.075  1.4811  0.0497 -0.4206
  651MOL0     H85907   2.254  11.796   0.069  2.6087 -0.6294 -1.5145
  651MOL0     H85908   2.166  11.650   0.316  1.7558 -2.0858 -2.2853
  651MOL0     H85909   2.057  11.705   0.189 -1.4506  1.3350  2.0815
  651MOL0     H85910   2.245  11.903   0.324  0.8167 -3.2084  1.8035
  651MOL0     H85911   2.108  11.942   0.230 -2.0263 -0.0759  0.4199
  651MOL0     H85912   2.043  11.989   0.451  2.2934  1.0519 -2.1767
  651MOL0     H85913   2.091  11.820   0.508  0.9019 -0.2547 -0.5202
  651MOL0     H85914   3.065  11.846   0.295 -1.4980 -0.0990 -0.7393
  651MOL0     H85915   3.256  11.745   0.415  0.9375  0.6873 -4.0064
  651MOL0     H85916   3.351  11.233   0.825  1.6946  0.7970  1.0082
  651MOL0     H85917   3.553  11.156   0.864 -0.5722 -1.3236 -0.1288
  651MOL0     H85918   5.049  10.472   1.380 -0.3635 -0.3106  2.0206
  651MOL0     H85919   5.254  10.558   1.314  0.3458 -0.4782 -4.0655
  651MOL0     H85920   5.646  10.727   1.385 -2.5091 -0.4464 -2.7455
  651MOL0     H85921   5.852  10.824   1.322 -0.5378 -0.2046  0.1553
  651MOL0     H85922   5.984  10.717   0.894  0.4642  1.6314 -0.6426
  651MOL0     H85923   6.113  10.637   0.990  0.1307 -0.0298 -1.4605
  651MOL0     H85924   6.197  10.796   0.841 -1.7829 -0.4543 -0.5695
  651MOL0     H85925   6.111  10.927   0.917  1.1871 -0.8965 -2.0552
  651MOL0     H85926   6.312  10.747   1.051  0.7909 -0.0852 -0.3271
  651MOL0     H85927   6.225  10.874   1.134 -0.9261 -2.2369  0.3558
  651MOL0     H85928   6.322  11.021   0.935  0.0243  0.1227 -0.6431
  651MOL0     H85929   6.399  11.011   1.089 -0.6054 -0.0814  0.1222
  651MOL0     H85930   6.645  10.835   0.779 -0.3997  0.2187 -0.2537
  651MOL0     H85931   5.882  10.544   0.988  0.7239 -1.3192 -0.0778
  651MOL0     H85932   5.673  10.442   1.073 -0.9305 -1.4470  2.2857
  652MOL0     O85933   1.435  10.581   9.096 -0.3168 -0.0518  0.3090
  652MOL0     C85934   1.489  10.570   8.980 -0.3955 -0.8889 -0.4507
  652MOL0     O85935   1.430  10.585   8.854  0.0010  0.1978 -0.6422
  652MOL0     C85936   1.289  10.573   8.839 -0.4207  0.6046 -0.1953
  652MOL0     C85937   1.247  10.455   8.780 -0.2319  0.1273  1.3528
  652MOL0     C85938   1.110  10.444   8.749  0.2203 -0.1049  0.4015
  652MOL0     C85939   1.015  10.534   8.783 -0.3210  0.2876 -0.1539
  652MOL0     O85940   0.879  10.518   8.762  0.3922  0.0156 -0.6661
  652MOL0     C85941   0.816  10.393   8.806 -0.2250  0.1898  0.1100
  652MOL0     C85942   0.665  10.417   8.818 -0.5846 -0.2692 -0.1548
  652MOL0     C85943   0.580  10.294   8.768  0.4116 -0.9541  0.0353
  652MOL0     C85944   0.434  10.293   8.828  0.1695  0.0762  0.6652
  652MOL0     C85945   0.350  10.402   8.760  0.3890 -0.8077  0.3099
  652MOL0     C85946   0.211  10.411   8.816  0.3719 -0.4724 -0.1815
  652MOL0     C85947   0.140  10.530   8.764 -0.2200 -0.6852 -0.4552
  652MOL0     C85948   0.008  10.560   8.829  0.8116 -0.3323 -0.0837
  652MOL0     N85949   0.044  10.616   8.958 -0.2896 -0.9597  0.3453
  652MOL0     C85950   0.005  10.563   9.078  0.7871 -0.6763 -0.2408
  652MOL0     C85951   0.029  10.650   9.177  0.3584  0.3533 -0.9665
  652MOL0     C85952   0.011  10.600   9.326  0.6670  0.1085 -0.3205
  652MOL0     C85953  -0.137  10.633   9.353  0.3216  0.4750 -0.5606
  652MOL0     C85954  -0.202  10.586   9.484  0.2246  0.0632  0.7249
  652MOL0     C85955  -0.355  10.611   9.485 -0.8713 -0.5019  0.9318
  652MOL0     O85956  -0.419  10.512   9.413 -0.6021 -0.4015  1.1414
  652MOL0     C85957  -0.556  10.519   9.396  0.2931  0.1887 -0.1630
  652MOL0     C85958  -0.614  10.467   9.285  0.5508 -0.6539  0.1301
  652MOL0     C85959  -0.751  10.472   9.257 -0.0380 -0.8005  0.7580
  652MOL0     C85960  -0.843  10.522   9.352 -0.1901 -0.0811  0.4497
  652MOL0     C85961  -0.988  10.537   9.325  0.0588  0.4375 -0.2027
  652MOL0     O85962  -1.036  10.456   9.236 -0.2841  0.1320  0.0580
  652MOL0     C85963  -1.165  10.407   9.246 -0.7323 -0.9572 -0.3176
  652MOL0     C85964  -1.212  10.357   9.364  0.1307  0.6183 -0.4606
  652MOL0     C85965  -1.350  10.322   9.383 -0.3309 -0.6630 -0.6652
  652MOL0     C85966  -1.439  10.348   9.275  0.3188  0.0036  0.1011
  652MOL0     O85967  -1.567  10.311   9.282 -0.0339  0.1670 -0.0372
  652MOL0     C85968  -1.667  10.409   9.255  0.8425 -0.0195  0.4528
  652MOL0     C85969  -1.771  10.425   9.361  0.2269 -0.3280 -0.3648
  652MOL0     C85970  -1.920  10.397   9.303 -0.6079 -0.6710 -0.5599
  652MOL0     C85971  -1.943  10.254   9.271  0.2055 -0.9360 -0.2801
  652MOL0     C85972  -2.094  10.239   9.237  0.4298  0.1738  0.0676
  652MOL0     C85973  -2.124  10.094   9.200  0.4236 -0.6718  0.7865
  652MOL0     C85974  -2.271  10.071   9.164  0.6774 -0.2573 -0.1868
  652MOL0     C85975  -2.317  10.165   9.049  0.1245  0.0348  0.2185
  652MOL0    Cl85976  -2.461  10.086   8.965  0.5736 -0.4128 -0.3792
  652MOL0     C85977  -1.386  10.398   9.151 -1.2458 -0.3867 -0.4093
  652MOL0     C85978  -1.250  10.435   9.141 -0.4307  0.2567  0.6179
  652MOL0     O85979  -1.054  10.603   9.414  0.2867 -0.1213 -0.2227
  652MOL0     C85980  -0.784  10.562   9.473  0.0321 -0.8022  0.4432
  652MOL0     C85981  -0.649  10.574   9.487 -1.0668 -0.3068  0.2577
  652MOL0     N85982   0.085  10.762   9.117  0.0302 -0.2988  0.1931
  652MOL0     N85983   0.094  10.741   8.986  0.4656 -0.1878 -0.6065
  652MOL0     C85984   1.062  10.641   8.861  0.0982  0.5130  0.2853
  652MOL0     C85985   1.200  10.662   8.888  0.0584 -0.5388  0.6215
  652MOL0     C85986   1.635  10.551   8.978  0.1311 -0.8957  0.4655
  652MOL0     C85987   1.707  10.532   8.856  0.7372 -0.3200  0.5183
  652MOL0     C85988   1.840  10.504   8.859  0.1462  0.0570  1.4043
  652MOL0     C85989   1.915  10.491   8.973  0.0678  0.4573 -0.2371
  652MOL0     O85990   2.044  10.470   8.987 -0.0300  0.0686  0.8538
  652MOL0     C85991   2.127  10.461   8.865  0.9768  0.6918 -0.6582
  652MOL0     C85992   2.270  10.404   8.890 -0.2036 -0.7458 -0.0392
  652MOL0     C85993   2.355  10.493   8.975  0.0182 -0.2473 -0.1281
  652MOL0     C85994   2.362  10.635   8.915 -0.8519 -0.3765  1.1910
  652MOL0     C85995   2.495  10.699   8.937  0.6995 -0.2288 -0.3897
  652MOL0     C85996   2.605  10.731   8.976 -0.1561  0.4053  0.3673
  652MOL0     C85997   1.842  10.499   9.098  0.7415  0.8536 -0.0500
  652MOL0     C85998   1.707  10.520   9.096  0.6212 -0.7016 -0.1412
  652MOL0     H85999   1.326  10.383   8.764  1.5134  2.0313  1.0328
  652MOL0     H86000   1.087  10.349   8.704  0.1385  0.5115 -0.8917
  652MOL0     H86001   0.855  10.376   8.907  0.7399 -1.6156 -0.5394
  652MOL0     H86002   0.839  10.305   8.745  0.8535 -0.3442  1.2348
  652MOL0     H86003   0.624  10.501   8.761 -1.0240 -0.5657 -0.2822
  652MOL0     H86004   0.637  10.426   8.923 -3.2100  0.9519 -0.8769
  652MOL0     H86005   0.621  10.200   8.806 -0.5916 -0.4864  2.5023
  652MOL0     H86006   0.577  10.281   8.660 -0.4399  1.6168 -0.3272
  652MOL0     H86007   0.396  10.192   8.808  0.4057 -0.3354  2.1954
  652MOL0     H86008   0.435  10.290   8.937  1.5190 -0.3563  0.6633
  652MOL0     H86009   0.348  10.370   8.655  0.7774 -1.3752  0.4673
  652MOL0     H86010   0.393  10.501   8.779 -0.1441 -0.6248  0.5506
  652MOL0     H86011   0.223  10.421   8.925 -1.2451 -2.1456  0.2105
  652MOL0     H86012   0.146  10.323   8.808 -1.1870  0.2785  2.6115
  652MOL0     H86013   0.203  10.619   8.764 -1.5895  0.4655 -3.9164
  652MOL0     H86014   0.132  10.501   8.659  2.1235 -0.1702 -0.8179
  652MOL0     H86015  -0.061  10.476   8.839 -0.5085  0.6332 -0.7597
  652MOL0     H86016  -0.050  10.635   8.774 -1.6004 -1.1868  1.1899
  652MOL0     H86017  -0.040  10.465   9.085 -0.0280 -0.1883  3.5220
  652MOL0     H86018   0.077  10.650   9.397 -0.6451  1.1761  0.1728
  652MOL0     H86019   0.032  10.496   9.352 -0.3585  0.3402  1.5834
  652MOL0     H86020  -0.194  10.585   9.272 -3.1610  4.4825 -0.8134
  652MOL0     H86021  -0.151  10.740   9.341 -0.4755  0.2769 -1.5483
  652MOL0     H86022  -0.190  10.478   9.491  3.7526  0.4249  2.4845
  652MOL0     H86023  -0.151  10.638   9.566  0.8668 -0.3177  0.5719
  652MOL0     H86024  -0.383  10.708   9.442 -2.5892 -0.3525  2.3147
  652MOL0     H86025  -0.384  10.615   9.590 -1.2351 -1.9480  0.9039
  652MOL0     H86026  -0.550  10.411   9.218 -1.1330 -0.4091 -1.7488
  652MOL0     H86027  -0.785  10.437   9.160 -1.3048  1.2937  0.3692
  652MOL0     H86028  -1.145  10.336   9.446 -2.2690 -1.9924  1.0061
  652MOL0     H86029  -1.385  10.281   9.476  0.2790 -1.6221 -0.8463
  652MOL0     H86030  -1.713  10.371   9.163  0.7438  0.4132  0.3228
  652MOL0     H86031  -1.619  10.505   9.231  0.9065 -0.1896 -0.1403
  652MOL0     H86032  -1.762  10.526   9.402  1.0604 -1.3551  2.2082
  652MOL0     H86033  -1.749  10.351   9.439  2.4125 -1.0702 -1.6172
  652MOL0     H86034  -1.949  10.461   9.219  0.7908  0.2761 -0.3517
  652MOL0     H86035  -1.989  10.422   9.383 -2.5422  0.5912 -2.4958
  652MOL0     H86036  -1.884  10.223   9.184 -0.7653 -0.4997 -1.1254
  652MOL0     H86037  -1.913  10.195   9.358 -2.0192  1.4790  2.3390
  652MOL0     H86038  -2.121  10.294   9.146 -0.1556 -3.5801 -2.2117
  652MOL0     H86039  -2.159  10.279   9.316 -0.7104 -1.6409  0.0864
  652MOL0     H86040  -2.095  10.020   9.276 -1.1855 -3.8529 -1.4929
  652MOL0     H86041  -2.057  10.066   9.118 -1.1511  1.8608 -1.5026
  652MOL0     H86042  -2.275   9.969   9.125  1.2680 -0.1089 -0.6597
  652MOL0     H86043  -2.325  10.083   9.258  0.7637 -1.0740 -0.0210
  652MOL0     H86044  -2.240  10.188   8.975  1.1058 -1.1907  0.8354
  652MOL0     H86045  -2.341  10.260   9.098 -0.1022  1.4848 -2.4814
  652MOL0     H86046  -1.442  10.416   9.059  0.9820 -0.6296 -1.8734
  652MOL0     H86047  -1.229  10.497   9.055  0.1569 -0.4996  0.2067
  652MOL0     H86048  -0.852  10.594   9.552  0.1642 -0.1727  0.3124
  652MOL0     H86049  -0.607  10.606   9.582  3.6567 -0.7507 -1.3863
  652MOL0     H86050   0.985  10.714   8.883 -0.5361  0.2793 -1.0992
  652MOL0     H86051   1.240  10.749   8.939  0.4895  0.4114 -1.2449
  652MOL0     H86052   1.649  10.532   8.764  0.4555 -1.3140  0.6935
  652MOL0     H86053   1.885  10.500   8.760 -0.2712 -0.9920  1.2468
  652MOL0     H86054   2.126  10.561   8.819  3.0972  0.6576 -0.8548
  652MOL0     H86055   2.079  10.386   8.801  1.8484 -0.6578  0.2321
  652MOL0     H86056   2.261  10.309   8.943  0.4622  0.3401  2.1442
  652MOL0     H86057   2.304  10.400   8.787 -0.2710  0.9750 -0.1556
  652MOL0     H86058   2.458  10.457   8.981  0.6482  1.7083  3.3378
  652MOL0     H86059   2.317  10.497   9.078  2.9378 -1.4821  1.0935
  652MOL0     H86060   2.339  10.632   8.808  1.4140 -0.8845  0.6851
  652MOL0     H86061   2.282  10.683   8.973 -1.0782 -0.7981  1.2259
  652MOL0     H86062   2.709  10.749   8.995 -0.0707 -0.6021  0.8946
  652MOL0     H86063   1.892  10.500   9.194  3.0132 -0.1053 -1.1582
  652MOL0     H86064   1.661  10.513   9.194  3.1444 -0.6623  1.1240
  653MOL0     O86065  10.544   5.117  10.621  0.5930  0.6811  0.4343
  653MOL0     C86066  10.610   5.190  10.699 -0.2103  0.4661 -0.2367
  653MOL0     O86067  10.558   5.282  10.784  0.0963  0.1137  0.3625
  653MOL0     C86068  10.423   5.280  10.808 -0.0834 -0.7605  0.9309
  653MOL0     C86069  10.353   5.410  10.774 -1.0291 -0.1869  0.0673
  653MOL0     C86070  10.221   5.413  10.795 -0.6718  0.2966  0.1734
  653MOL0     C86071  10.147   5.310  10.845  0.1751  0.4443  0.1334
  653MOL0     O86072  10.013   5.331  10.857  0.0378 -0.8405  0.3025
  653MOL0     C86073   9.933   5.253  10.959 -0.6769 -0.0006  0.1467
  653MOL0     C86074   9.784   5.282  10.933  0.0374  0.5051  0.1176
  653MOL0     C86075   9.692   5.202  11.031  0.1781 -0.1945  0.3187
  653MOL0     C86076   9.545   5.254  11.017 -0.1706  0.2673  0.4641
  653MOL0     C86077   9.448   5.181  11.112 -1.0097 -0.9494  0.9345
  653MOL0     C86078   9.311   5.249  11.078 -0.7246  0.8187 -0.4575
  653MOL0     C86079   9.194   5.193  11.166 -0.3013 -0.8630 -0.1031
  653MOL0     C86080   9.066   5.270  11.131 -0.0896 -0.0597  0.1821
  653MOL0     N86081   8.951   5.219  11.204 -0.0654 -0.2652  0.4951
  653MOL0     C86082   8.943   5.170  11.330 -1.0603  0.4615  0.5288
  653MOL0     C86083   8.815   5.125  11.341  0.0523  0.2456  0.0200
  653MOL0     C86084   8.753   5.075  11.471 -0.2765 -0.3576  0.6070
  653MOL0     C86085   8.739   5.188  11.569 -0.0474 -0.0987 -0.9292
  653MOL0     C86086   8.695   5.148  11.709 -1.2977  0.0952 -0.0974
  653MOL0     C86087   8.546   5.109  11.702  0.8445 -1.3908  0.6808
  653MOL0     O86088   8.458   5.213  11.658 -0.2921  0.5959  0.4220
  653MOL0     C86089   8.330   5.188  11.632 -0.3000  0.8088 -0.9954
  653MOL0     C86090   8.275   5.060  11.633 -0.1053  0.0594 -0.1775
  653MOL0     C86091   8.141   5.044  11.603 -0.1652 -0.5388 -0.2330
  653MOL0     C86092   8.058   5.151  11.573 -0.2018  0.3641 -0.1649
  653MOL0     C86093   7.920   5.132  11.530  0.7201  0.7773  0.5503
  653MOL0     O86094   7.861   5.006  11.549  0.2156  0.7137 -0.2507
  653MOL0     C86095   7.725   4.993  11.541  0.2230 -0.3389  0.4094
  653MOL0     C86096   7.647   4.972  11.424 -0.3125  0.5389 -0.4071
  653MOL0     C86097   7.504   4.959  11.424 -0.0968 -0.0529 -0.7875
  653MOL0     C86098   7.435   4.965  11.547 -0.2837 -0.5595 -0.2220
  653MOL0     O86099   7.297   4.952  11.542 -0.0346  0.3984  1.1917
  653MOL0     C86100   7.223   4.922  11.657  0.2481 -0.4414  0.3519
  653MOL0     C86101   7.256   4.770  11.698  0.9083 -0.6752  0.2550
  653MOL0     C86102   7.159   4.696  11.787 -0.1103  0.4234 -0.4273
  653MOL0     C86103   7.036   4.652  11.716  0.0233  0.9118  0.5837
  653MOL0     C86104   6.953   4.569  11.814  1.2534 -0.0693 -0.2464
  653MOL0     C86105   6.814   4.551  11.770 -0.7276  0.3202  0.0253
  653MOL0     C86106   6.724   4.488  11.878  0.0564  0.4159  0.4291
  653MOL0     C86107   6.574   4.488  11.850  0.3897  0.2532  0.1305
  653MOL0    Cl86108   6.475   4.477  12.004  0.1555 -0.2340 -0.3349
  653MOL0     C86109   7.511   5.001  11.663 -0.7829  0.3950  0.1066
  653MOL0     C86110   7.655   5.001  11.661  0.0463  0.7086 -0.4665
  653MOL0     O86111   7.857   5.232  11.497  0.2156  0.4941 -0.6320
  653MOL0     C86112   8.112   5.280  11.583 -0.2791 -0.3136 -0.5600
  653MOL0     C86113   8.243   5.297  11.621 -0.8035 -0.1923  0.0278
  653MOL0     N86114   8.748   5.145  11.229  1.2633  0.7082  0.0523
  653MOL0     N86115   8.830   5.199  11.148  0.3458 -0.9024  0.6893
  653MOL0     C86116  10.211   5.187  10.870 -0.0629  0.8163  0.5773
  653MOL0     C86117  10.351   5.171  10.859 -0.2728  0.7643  0.5706
  653MOL0     C86118  10.759   5.181  10.703  0.8449  0.0627 -0.2027
  653MOL0     C86119  10.824   5.085  10.633 -0.3994 -0.3173  0.2016
  653MOL0     C86120  10.962   5.078  10.621  0.4056 -0.1901 -0.0116
  653MOL0     C86121  11.040   5.167  10.688 -0.2735  0.1353  0.5200
  653MOL0     O86122  11.177   5.174  10.688  1.0786 -0.9065 -0.2348
  653MOL0     C86123  11.248   5.082  10.616 -0.1215  0.2888 -0.3645
  653MOL0     C86124  11.292   5.140  10.473 -0.6116 -0.2755 -0.5253
  653MOL0     C86125  11.397   5.245  10.493  0.2435 -0.6339  0.5364
  653MOL0     C86126  11.488   5.273  10.369  0.4465  0.1731 -0.1092
  653MOL0     C86127  11.606   5.356  10.404 -0.2870  0.2654 -0.8094
  653MOL0     C86128  11.713   5.397  10.439  0.0246  0.4460  0.5771
  653MOL0     C86129  10.976   5.270  10.753  0.2271 -0.7232 -0.0159
  653MOL0     C86130  10.836   5.274  10.768  1.1028 -0.6145  0.3484
  653MOL0     H86131  10.414   5.496  10.747  0.3639 -0.6321  1.6308
  653MOL0     H86132  10.166   5.499  10.757 -0.8635 -0.4532 -1.3365
  653MOL0     H86133   9.961   5.291  11.058 -2.2965  1.9815 -0.0897
  653MOL0     H86134   9.959   5.148  10.943  2.3725  0.6698  0.0799
  653MOL0     H86135   9.749   5.257  10.832  0.2590  1.5399 -0.2326
  653MOL0     H86136   9.766   5.389  10.949 -0.6950  0.6464 -1.4533
  653MOL0     H86137   9.710   5.228  11.136 -0.5685  1.3094  0.1019
  653MOL0     H86138   9.688   5.093  11.031 -3.0796 -0.3146  4.3741
  653MOL0     H86139   9.535   5.361  11.037  0.3380  0.3756  0.1679
  653MOL0     H86140   9.530   5.232  10.911  4.3474  2.3109 -0.8875
  653MOL0     H86141   9.484   5.192  11.215  1.4612 -2.0862  0.2705
  653MOL0     H86142   9.455   5.074  11.093  0.1817 -1.2782  2.9671
  653MOL0     H86143   9.279   5.230  10.975  0.2235 -0.1435 -0.5910
  653MOL0     H86144   9.316   5.357  11.090  1.7006  1.0011 -2.2460
  653MOL0     H86145   9.189   5.085  11.151  1.8154 -1.0750  0.4009
  653MOL0     H86146   9.221   5.215  11.269  0.8963 -0.3464 -0.5139
  653MOL0     H86147   9.055   5.253  11.024 -1.9609 -2.4117  0.6699
  653MOL0     H86148   9.071   5.379  11.144 -2.6856  0.1707 -0.1575
  653MOL0     H86149   9.023   5.163  11.403  0.3756  1.7730 -0.8330
  653MOL0     H86150   8.807   4.986  11.503 -1.2311 -1.0645  0.2603
  653MOL0     H86151   8.654   5.039  11.441  1.3815 -2.2261 -3.4279
  653MOL0     H86152   8.670   5.263  11.530  0.2165  1.1101  0.7981
  653MOL0     H86153   8.831   5.245  11.587 -0.5365  0.8145 -1.2925
  653MOL0     H86154   8.762   5.067  11.740 -0.8858  0.6544  0.5101
  653MOL0     H86155   8.711   5.228  11.781  3.2139 -0.7511  0.1422
  653MOL0     H86156   8.520   5.084  11.805  0.5431 -1.6539  0.5390
  653MOL0     H86157   8.543   5.019  11.641  0.6186 -2.2084  1.8604
  653MOL0     H86158   8.325   4.968  11.660 -1.8892 -0.5888  1.1806
  653MOL0     H86159   8.113   4.939  11.607 -3.3009  0.2139  2.3387
  653MOL0     H86160   7.707   4.943  11.338  1.1057 -1.1593  1.0653
  653MOL0     H86161   7.436   4.935  11.343 -3.2543  0.4920  1.4953
  653MOL0     H86162   7.118   4.936  11.630 -0.0187 -1.8898  0.5756
  653MOL0     H86163   7.241   4.995  11.736  1.4583  0.6306 -0.8533
  653MOL0     H86164   7.350   4.772  11.754  0.4165  1.4151  1.1174
  653MOL0     H86165   7.262   4.713  11.606  0.6407 -0.9102  0.3815
  653MOL0     H86166   7.142   4.756  11.876  1.5728 -1.2899  1.1431
  653MOL0     H86167   7.206   4.603  11.822 -1.0068 -1.1648 -3.0913
  653MOL0     H86168   6.975   4.734  11.678 -2.5558 -0.1829  2.1382
  653MOL0     H86169   7.060   4.586  11.632 -2.2515  1.1388 -0.3142
  653MOL0     H86170   6.957   4.616  11.912 -1.8920  0.5629 -0.2970
  653MOL0     H86171   6.985   4.464  11.820 -1.5307 -1.0908 -1.5438
  653MOL0     H86172   6.801   4.509  11.670 -3.4276 -1.1494  0.8987
  653MOL0     H86173   6.772   4.651  11.763  0.1381  0.6542 -0.6395
  653MOL0     H86174   6.762   4.386  11.892 -0.8567  0.3445  2.8172
  653MOL0     H86175   6.748   4.532  11.975  2.6163 -0.6955  0.3823
  653MOL0     H86176   6.542   4.406  11.785 -0.9562  0.7183  0.1843
  653MOL0     H86177   6.551   4.582  11.799 -0.7058  1.6105  2.9154
  653MOL0     H86178   7.469   5.014  11.762  0.4312  1.9248  0.4497
  653MOL0     H86179   7.710   5.035  11.748 -2.0633 -0.0234  1.2673
  653MOL0     H86180   8.044   5.365  11.575 -1.6873 -1.4437 -1.1017
  653MOL0     H86181   8.288   5.395  11.632  0.5337 -0.9770  2.3709
  653MOL0     H86182  10.168   5.095  10.907 -0.7389  0.6452 -0.6193
  653MOL0     H86183  10.404   5.078  10.878 -1.5122 -1.0202 -3.4569
  653MOL0     H86184  10.770   5.016  10.568  1.9841  0.1376 -2.4367
  653MOL0     H86185  10.997   4.995  10.560  0.9160 -0.2699  0.3805
  653MOL0     H86186  11.190   4.991  10.600  0.5466 -0.1290 -0.4430
  653MOL0     H86187  11.339   5.058  10.672 -1.0039  0.2375  1.1001
  653MOL0     H86188  11.335   5.064  10.408  0.9480 -0.5787  0.7876
  653MOL0     H86189  11.206   5.178  10.418 -0.8596 -0.2623 -0.1365
  653MOL0     H86190  11.463   5.200  10.567  0.4538 -2.4592 -0.6838
  653MOL0     H86191  11.348   5.335  10.531  1.9640  0.9161 -0.7451
  653MOL0     H86192  11.526   5.175  10.338  5.4767  1.6317  0.5471
  653MOL0     H86193  11.425   5.324  10.295  0.0016  0.8098  0.6925
  653MOL0     H86194  11.806   5.431  10.481  0.4750 -0.7242  0.5504
  653MOL0     H86195  11.042   5.345  10.796 -0.9274  2.7119 -3.6916
  653MOL0     H86196  10.795   5.356  10.825 -1.9772 -2.7056  1.3556
  654MOL0     O86197   5.546   3.332  10.470  0.0920 -0.0189  0.1533
  654MOL0     C86198   5.590   3.441  10.524 -0.4746  0.1749  0.3578
  654MOL0     O86199   5.521   3.546  10.578  0.0045 -0.5374 -0.5171
  654MOL0     C86200   5.383   3.551  10.571 -0.6281 -0.6071 -0.1580
  654MOL0     C86201   5.323   3.544  10.447 -0.1101  0.4109 -0.3385
  654MOL0     C86202   5.186   3.542  10.437 -0.0906  1.1471 -0.0746
  654MOL0     C86203   5.104   3.553  10.546  0.9244  0.1226  0.1473
  654MOL0     O86204   4.962   3.563  10.547  0.1077  0.7940  0.3154
  654MOL0     C86205   4.914   3.663  10.452 -0.4303  0.4558 -0.1477
  654MOL0     C86206   4.762   3.640  10.442  0.1779 -0.7584 -0.1649
  654MOL0     C86207   4.689   3.675  10.567  0.0469 -0.2803  0.3122
  654MOL0     C86208   4.681   3.835  10.592  0.0572  0.1315  0.1624
  654MOL0     C86209   4.617   3.878  10.727  0.0285  0.2383 -0.2009
  654MOL0     C86210   4.467   3.844  10.747  0.5972  0.2360 -0.3685
  654MOL0     C86211   4.417   3.874  10.892  0.0744 -0.0676  0.4457
  654MOL0     C86212   4.277   3.816  10.921  1.3081 -0.6477 -0.2032
  654MOL0     N86213   4.172   3.899  10.861  1.0621  0.3475  0.3242
  654MOL0     C86214   4.140   4.031  10.864 -0.7955 -0.4004 -0.4304
  654MOL0     C86215   4.031   4.051  10.794  0.9781 -0.1656  0.4581
  654MOL0     C86216   3.968   4.182  10.784  0.8129 -0.3224  0.6786
  654MOL0     C86217   3.813   4.177  10.770 -0.2993 -0.6755  0.3163
  654MOL0     C86218   3.763   4.132  10.908 -0.2936  0.2640  0.1869
  654MOL0     C86219   3.613   4.132  10.924 -0.7108 -0.7380  0.1243
  654MOL0     O86220   3.573   4.256  10.871  0.0605 -0.1207  0.0366
  654MOL0     C86221   3.441   4.274  10.887  0.5629 -0.4745 -1.1316
  654MOL0     C86222   3.351   4.238  10.995  0.4728  1.3654  0.9139
  654MOL0     C86223   3.212   4.277  10.991 -0.4664  0.7208  0.0211
  654MOL0     C86224   3.152   4.336  10.881 -0.7497 -0.0776 -0.4858
  654MOL0     C86225   3.005   4.371  10.863 -0.4936  0.4604  0.3827
  654MOL0     O86226   2.972   4.424  10.739 -0.0779 -0.3108 -0.1959
  654MOL0     C86227   2.851   4.473  10.709  0.0435 -0.6109 -0.1433
  654MOL0     C86228   2.802   4.462  10.574 -0.0357  0.8032  0.1643
  654MOL0     C86229   2.681   4.533  10.537 -0.5187 -0.2476 -0.4456
  654MOL0     C86230   2.598   4.592  10.632  0.5344 -0.7550  0.0086
  654MOL0     O86231   2.480   4.635  10.580  0.3103  0.4117 -0.6228
  654MOL0     C86232   2.420   4.747  10.653 -0.6272  0.6541 -0.3938
  654MOL0     C86233   2.369   4.846  10.543 -0.5228  0.0906  0.3682
  654MOL0     C86234   2.475   4.906  10.440 -0.1685  0.1393 -0.1773
  654MOL0     C86235   2.411   5.018  10.352 -0.3909  0.2578  0.2144
  654MOL0     C86236   2.499   5.078  10.249  1.0070 -0.4003  0.5921
  654MOL0     C86237   2.438   5.214  10.200  0.6182  0.0295 -0.9673
  654MOL0     C86238   2.516   5.262  10.076 -0.0098  0.7086 -0.6780
  654MOL0     C86239   2.456   5.382  10.007 -0.0301 -0.2267  0.0172
  654MOL0    Cl86240   2.291   5.341   9.936 -0.3499 -0.0946 -0.0108
  654MOL0     C86241   2.638   4.582  10.765 -0.1794  0.0084 -0.6671
  654MOL0     C86242   2.767   4.540  10.807 -0.1665  0.5819 -0.1022
  654MOL0     O86243   2.920   4.339  10.945 -0.4068 -0.0077 -0.2157
  654MOL0     C86244   3.242   4.363  10.776 -0.1341  0.7666 -0.0524
  654MOL0     C86245   3.381   4.329  10.779  1.0975 -0.1324  1.0420
  654MOL0     N86246   3.982   3.935  10.742  0.3995 -0.1788 -0.2053
  654MOL0     N86247   4.065   3.844  10.786  0.2100  0.3423  0.2887
  654MOL0     C86248   5.168   3.573  10.667 -0.4406 -0.5882 -0.7312
  654MOL0     C86249   5.304   3.578  10.683 -0.4985  0.1277 -0.4237
  654MOL0     C86250   5.735   3.464  10.512  0.8995 -0.4367 -0.9131
  654MOL0     C86251   5.810   3.396  10.421  0.0362 -0.0102  0.7842
  654MOL0     C86252   5.949   3.422  10.410 -0.0483 -0.1931  0.3731
  654MOL0     C86253   6.013   3.508  10.499 -0.3244 -0.1648  0.0549
  654MOL0     O86254   6.156   3.532  10.506  0.0708  0.5933 -0.5090
  654MOL0     C86255   6.249   3.477  10.412 -0.4776 -0.5614 -0.2929
  654MOL0     C86256   6.286   3.330  10.444  0.5087  0.8062  0.1869
  654MOL0     C86257   6.372   3.257  10.337  0.2674  0.3131  0.4982
  654MOL0     C86258   6.501   3.319  10.312 -0.1786 -0.4483  0.6213
  654MOL0     C86259   6.573   3.242  10.214 -0.0411  0.0124  0.3889
  654MOL0     C86260   6.634   3.169  10.138 -0.7641 -0.5799 -0.3098
  654MOL0     C86261   5.941   3.571  10.595 -0.3501 -0.0684 -0.4438
  654MOL0     C86262   5.806   3.541  10.605  0.4295  0.6633  0.1362
  654MOL0     H86263   5.382   3.537  10.357 -0.5554 -2.5620 -0.4944
  654MOL0     H86264   5.139   3.536  10.339  1.2997 -0.9787 -0.6790
  654MOL0     H86265   4.949   3.663  10.349 -0.3128  3.9549 -0.2341
  654MOL0     H86266   4.936   3.763  10.493 -0.5767  1.1968 -1.8029
  654MOL0     H86267   4.754   3.532  10.426  1.9525 -0.8660 -0.5477
  654MOL0     H86268   4.723   3.696  10.356 -2.0434 -0.5262  0.9294
  654MOL0     H86269   4.747   3.629  10.647  0.2878  0.6584  0.6969
  654MOL0     H86270   4.589   3.631  10.568  0.1708 -0.5674  0.2384
  654MOL0     H86271   4.776   3.882  10.565 -0.5062  0.9195 -0.5099
  654MOL0     H86272   4.615   3.873  10.513 -0.0855 -0.8836 -0.2298
  654MOL0     H86273   4.625   3.984  10.755  1.2955 -0.1955  1.2114
  654MOL0     H86274   4.671   3.815  10.798 -0.9716 -0.1469  0.2328
  654MOL0     H86275   4.452   3.740  10.714  1.4118  0.0548 -0.1793
  654MOL0     H86276   4.420   3.914  10.677  3.7922  1.2100 -1.7454
  654MOL0     H86277   4.486   3.830  10.965  0.0821  0.2906  0.6544
  654MOL0     H86278   4.434   3.979  10.917  2.3070 -0.1694 -0.3530
  654MOL0     H86279   4.266   3.809  11.030  1.2537  1.2108 -0.0590
  654MOL0     H86280   4.278   3.712  10.887  0.0999 -0.4625 -0.8789
  654MOL0     H86281   4.192   4.117  10.907 -3.1185  0.2295  1.3210
  654MOL0     H86282   4.010   4.241  10.703 -1.1611  1.1408  0.6369
  654MOL0     H86283   3.994   4.251  10.865  0.7233  1.2285 -0.5604
  654MOL0     H86284   3.781   4.105  10.694  2.3099  1.5131 -3.1552
  654MOL0     H86285   3.775   4.277  10.749  1.9282 -0.0769 -1.2689
  654MOL0     H86286   3.798   4.031  10.928  1.7077  1.5579  4.3172
  654MOL0     H86287   3.806   4.197  10.986 -2.3149 -0.0169  1.6106
  654MOL0     H86288   3.593   4.116  11.030  1.7240 -2.1243  0.4528
  654MOL0     H86289   3.563   4.048  10.875 -5.4917  1.1205  1.2997
  654MOL0     H86290   3.393   4.181  11.077  0.3120 -1.0441 -0.5944
  654MOL0     H86291   3.144   4.244  11.069  0.7815 -2.8184 -0.1960
  654MOL0     H86292   2.865   4.413  10.501 -0.4524  1.7611 -0.8638
  654MOL0     H86293   2.646   4.528  10.434  1.4361 -1.1163 -1.1255
  654MOL0     H86294   2.492   4.808  10.707 -0.3572 -1.0165  1.2077
  654MOL0     H86295   2.342   4.701  10.713  0.6366 -3.1066 -1.3420
  654MOL0     H86296   2.330   4.928  10.605  0.2964 -1.3559  2.9740
  654MOL0     H86297   2.291   4.805  10.478 -0.5662  0.1961  0.3550
  654MOL0     H86298   2.489   4.821  10.373 -0.9390  1.7609 -2.5096
  654MOL0     H86299   2.574   4.935  10.475 -0.2711 -2.0085  2.1544
  654MOL0     H86300   2.322   4.966  10.315  0.0348 -0.6331  0.4122
  654MOL0     H86301   2.380   5.104  10.411 -4.3294  0.0749 -1.2721
  654MOL0     H86302   2.514   5.006  10.168  3.0876 -0.3594  0.8889
  654MOL0     H86303   2.594   5.088  10.303 -1.1137  2.0736  4.3016
  654MOL0     H86304   2.452   5.294  10.273  2.6306  0.7003 -2.0064
  654MOL0     H86305   2.332   5.202  10.175  1.0049 -0.3995 -2.5361
  654MOL0     H86306   2.621   5.284  10.099 -0.4015  0.7083  1.2806
  654MOL0     H86307   2.519   5.170  10.017 -0.7341  0.4274 -0.2941
  654MOL0     H86308   2.519   5.431   9.933 -1.0085  1.1303  0.0500
  654MOL0     H86309   2.448   5.464  10.080  2.7228  1.2303 -1.1870
  654MOL0     H86310   2.570   4.618  10.842 -1.1124  0.5486 -1.7205
  654MOL0     H86311   2.804   4.552  10.909 -1.8323  1.9565  0.3887
  654MOL0     H86312   3.208   4.417  10.688 -0.0002  1.2642  0.2025
  654MOL0     H86313   3.447   4.355  10.696  0.8688 -0.1428  0.8574
  654MOL0     H86314   5.106   3.584  10.755 -0.2916 -1.8022 -0.4625
  654MOL0     H86315   5.345   3.578  10.784 -2.6552 -0.7322  0.5132
  654MOL0     H86316   5.763   3.337  10.343  3.0428 -3.0266  1.0688
  654MOL0     H86317   6.018   3.369  10.344 -0.5001  1.1635 -1.2467
  654MOL0     H86318   6.340   3.538  10.404  0.2947 -1.4782  1.0933
  654MOL0     H86319   6.206   3.489  10.312  1.3607 -1.3401 -1.2188
  654MOL0     H86320   6.332   3.324  10.543 -2.0370 -3.4074  1.3632
  654MOL0     H86321   6.196   3.273  10.471  1.9530  0.6880  6.2605
  654MOL0     H86322   6.324   3.250  10.238  0.5278 -1.2849  0.4630
  654MOL0     H86323   6.391   3.158  10.379  0.8135 -0.1506 -0.7888
  654MOL0     H86324   6.493   3.422  10.276  2.9489 -0.2606  0.1001
  654MOL0     H86325   6.562   3.329  10.402 -0.4349  1.1251  0.6408
  654MOL0     H86326   6.698   3.116  10.071  0.4673  0.4808 -0.0135
  654MOL0     H86327   5.996   3.637  10.662 -1.0968 -2.0363  2.2767
  654MOL0     H86328   5.745   3.583  10.685  1.1803  2.2998 -0.1017
  655MOL0     O86329   8.321  10.108   0.582 -0.5264  0.3488  0.5068
  655MOL0     C86330   8.335  10.181   0.675 -1.1555 -0.2013 -0.3764
  655MOL0     O86331   8.241  10.243   0.742  0.6424 -0.3101 -0.5903
  655MOL0     C86332   8.114  10.239   0.686  0.8525 -0.5496  0.3936
  655MOL0     C86333   8.022  10.135   0.711  0.8304 -0.0551  0.0011
  655MOL0     C86334   7.892  10.134   0.655 -0.0671 -0.1301 -0.8288
  655MOL0     C86335   7.850  10.245   0.584 -0.0267  0.4545 -0.6379
  655MOL0     O86336   7.729  10.255   0.525  0.3781  0.5601 -0.2721
  655MOL0     C86337   7.639  10.138   0.523 -0.0858  0.4947  0.7161
  655MOL0     C86338   7.513  10.192   0.454  0.7759  0.1170  0.3198
  655MOL0     C86339   7.385  10.100   0.468  0.1897 -0.4877  0.4567
  655MOL0     C86340   7.309  10.122   0.595 -0.7392  0.0393  0.6502
  655MOL0     C86341   7.210  10.007   0.621  0.0825 -0.0910 -0.3133
  655MOL0     C86342   7.128  10.032   0.752 -0.1053 -0.2478  0.6696
  655MOL0     C86343   7.006   9.945   0.757  0.1355  0.5787  0.0529
  655MOL0     C86344   6.935   9.961   0.889  0.6358  0.7478  0.3451
  655MOL0     N86345   6.789   9.920   0.885  0.5241  0.4184 -0.0039
  655MOL0     C86346   6.745   9.790   0.868  0.5892  0.4252  0.0009
  655MOL0     C86347   6.611   9.801   0.876 -0.3780 -0.6353 -0.3598
  655MOL0     C86348   6.517   9.681   0.866  0.3874  0.2321  0.6379
  655MOL0     C86349   6.386   9.709   0.922 -0.1586  0.0594 -0.9121
  655MOL0     C86350   6.297   9.587   0.927 -0.2832  0.8148  1.2244
  655MOL0     C86351   6.316   9.490   0.813 -0.4771 -0.3812 -0.6998
  655MOL0     O86352   6.280   9.551   0.689  0.1031  0.4065 -0.4906
  655MOL0     C86353   6.155   9.591   0.655 -0.6740  0.3338  1.1690
  655MOL0     C86354   6.161   9.674   0.546  0.3656  0.2197  0.8200
  655MOL0     C86355   6.053   9.733   0.498 -0.1905  0.5567 -0.0266
  655MOL0     C86356   5.926   9.712   0.558  0.4721  0.2500  0.1922
  655MOL0     C86357   5.804   9.770   0.494 -0.0400 -0.3354  0.1324
  655MOL0     O86358   5.689   9.768   0.579  0.3926  0.4311  0.7763
  655MOL0     C86359   5.566   9.796   0.518  0.1664  0.1384 -0.5478
  655MOL0     C86360   5.533   9.918   0.460 -0.3994 -0.4714  0.8362
  655MOL0     C86361   5.413   9.941   0.408 -0.6957  0.3065 -0.5952
  655MOL0     C86362   5.308   9.842   0.413 -0.1108 -0.3710 -1.2786
  655MOL0     O86363   5.182   9.877   0.367 -0.6950 -0.7015 -0.5725
  655MOL0     C86364   5.074   9.871   0.471 -0.0897  0.0939 -0.4495
  655MOL0     C86365   4.939   9.917   0.404 -1.0466 -0.0073  1.3111
  655MOL0     C86366   4.827   9.868   0.492 -0.3706  0.0349 -0.9542
  655MOL0     C86367   4.698   9.946   0.454  0.2464 -0.5638  0.1641
  655MOL0     C86368   4.604   9.943   0.572 -0.3942  0.1753  0.5863
  655MOL0     C86369   4.470  10.021   0.532  0.0640 -0.1152  0.2808
  655MOL0     C86370   4.375  10.023   0.655  0.4079  0.6800 -0.1615
  655MOL0     C86371   4.242  10.097   0.624 -0.0600 -0.2733  0.9733
  655MOL0    Cl86372   4.165  10.100   0.795  0.1596 -0.1484 -0.0159
  655MOL0     C86373   5.347   9.714   0.459  0.6282  0.0697  0.0270
  655MOL0     C86374   5.477   9.694   0.510  0.4758  0.6692  0.1037
  655MOL0     O86375   5.807   9.806   0.380 -0.4046 -0.3938  0.0175
  655MOL0     C86376   5.917   9.631   0.667  0.4829 -0.5018 -0.7686
  655MOL0     C86377   6.036   9.568   0.723 -0.0091 -0.1464 -0.2953
  655MOL0     N86378   6.579   9.932   0.924  0.1616 -0.1512 -0.8279
  655MOL0     N86379   6.685  10.006   0.923 -0.3950 -0.6131  0.0495
  655MOL0     C86380   7.934  10.354   0.567 -1.3079  0.2878  0.9064
  655MOL0     C86381   8.065  10.356   0.623  0.7480  0.3977 -0.6150
  655MOL0     C86382   8.471  10.184   0.729  0.8103 -0.3721  0.6353
  655MOL0     C86383   8.576  10.123   0.662  0.1950  0.0467 -0.4932
  655MOL0     C86384   8.707  10.124   0.710  0.3533 -0.8021 -0.2632
  655MOL0     C86385   8.737  10.202   0.823  0.3310 -0.3350 -0.2564
  655MOL0     O86386   8.870  10.204   0.863 -1.0861 -0.6551 -0.6474
  655MOL0     C86387   8.932  10.331   0.889 -0.9705  0.2228 -0.3220
  655MOL0     C86388   9.082  10.323   0.835  0.0833  0.7275  0.0348
  655MOL0     C86389   9.086  10.270   0.687  0.5298 -0.1948 -1.4565
  655MOL0     C86390   9.230  10.226   0.649  0.4645  0.3155  0.4287
  655MOL0     C86391   9.333  10.323   0.691  0.3890  0.1105  0.8356
  655MOL0     C86392   9.412  10.399   0.736  0.3133 -0.4191 -0.2740
  655MOL0     C86393   8.639  10.264   0.890  0.0470 -0.0408  0.9873
  655MOL0     C86394   8.502  10.243   0.849 -0.8850 -0.4933  0.0926
  655MOL0     H86395   8.061  10.049   0.763 -0.2257 -0.8184 -0.4499
  655MOL0     H86396   7.831  10.045   0.665 -0.8688  0.3105 -1.6681
  655MOL0     H86397   7.622  10.106   0.626  0.8389  2.5923  1.5852
  655MOL0     H86398   7.674  10.058   0.457 -0.2941  1.5242 -0.7007
  655MOL0     H86399   7.529  10.208   0.347 -0.9101  0.1971  0.0388
  655MOL0     H86400   7.479  10.289   0.492 -1.6315 -0.8683  0.8913
  655MOL0     H86401   7.420   9.996   0.464 -0.0001 -0.5583  0.6543
  655MOL0     H86402   7.319  10.121   0.384  0.5094  0.5852  0.4624
  655MOL0     H86403   7.379  10.128   0.679 -3.7025 -0.4037  3.3199
  655MOL0     H86404   7.242  10.208   0.586 -1.5439 -0.5015  1.4278
  655MOL0     H86405   7.270   9.917   0.635  0.5974  0.3700  0.4667
  655MOL0     H86406   7.136  10.008   0.540  0.6201  1.9394 -0.8422
  655MOL0     H86407   7.091  10.133   0.732 -0.9071 -0.1975  2.2478
  655MOL0     H86408   7.189  10.026   0.843  0.6851  0.6105  0.2165
  655MOL0     H86409   6.945   9.991   0.679  1.8613  4.8883  0.9417
  655MOL0     H86410   7.039   9.842   0.744 -2.6398 -0.5729  1.4392
  655MOL0     H86411   6.957  10.055   0.941  0.4178  0.8387  0.2718
  655MOL0     H86412   6.967   9.882   0.957  2.9478  0.5996 -0.8002
  655MOL0     H86413   6.803   9.701   0.846  1.2252  1.4296 -2.9657
  655MOL0     H86414   6.555   9.589   0.912 -0.2562 -0.8198 -0.8339
  655MOL0     H86415   6.501   9.665   0.759  1.9190  1.2252  0.2318
  655MOL0     H86416   6.336   9.787   0.865  1.4412  0.4434 -1.8722
  655MOL0     H86417   6.407   9.748   1.022  1.4771 -0.5800 -0.9674
  655MOL0     H86418   6.322   9.543   1.023  4.5660  1.2423  0.4012
  655MOL0     H86419   6.194   9.627   0.926  0.1296  1.9906 -0.7419
  655MOL0     H86420   6.256   9.399   0.830 -1.9282  0.7060  0.2837
  655MOL0     H86421   6.420   9.459   0.807 -0.2125  0.6700 -2.1576
  655MOL0     H86422   6.261   9.680   0.504  0.1178 -2.3327 -0.2951
  655MOL0     H86423   6.074   9.793   0.410  2.0550  2.0943  1.4504
  655MOL0     H86424   5.607   9.998   0.455  0.1580 -0.9797  0.8568
  655MOL0     H86425   5.380  10.034   0.363  1.4176  1.4323  0.0472
  655MOL0     H86426   5.098   9.937   0.555 -1.4440 -1.9674  1.7134
  655MOL0     H86427   5.058   9.769   0.508  2.4546 -0.7525 -1.4332
  655MOL0     H86428   4.927   9.870   0.306 -1.5238 -0.0877  1.4071
  655MOL0     H86429   4.938  10.026   0.396  1.1497  0.0834  1.6112
  655MOL0     H86430   4.861   9.898   0.592 -0.8727 -0.7861 -0.5280
  655MOL0     H86431   4.807   9.761   0.490 -1.0187  0.1677 -2.3357
  655MOL0     H86432   4.717  10.047   0.414  0.5892 -0.7781 -0.2268
  655MOL0     H86433   4.644   9.890   0.377 -2.6158  2.3674 -0.1740
  655MOL0     H86434   4.650   9.993   0.658  0.5600 -0.0923  0.2514
  655MOL0     H86435   4.585   9.840   0.602  0.0582  1.1334  4.8744
  655MOL0     H86436   4.426   9.971   0.445  2.3437  0.5310 -1.3547
  655MOL0     H86437   4.480  10.127   0.506 -1.8826 -0.1746 -0.9670
  655MOL0     H86438   4.349   9.923   0.690 -0.4126  0.8994 -0.1262
  655MOL0     H86439   4.423  10.069   0.742  0.2793 -0.2347  0.4043
  655MOL0     H86440   4.181  10.045   0.549  1.4137  2.4257 -2.4155
  655MOL0     H86441   4.252  10.199   0.586 -2.9442 -1.5433 -4.2034
  655MOL0     H86442   5.270   9.638   0.453  0.3735  0.3052  0.3175
  655MOL0     H86443   5.502   9.592   0.539  1.2244  1.2483  1.5732
  655MOL0     H86444   5.824   9.594   0.709  2.5278 -3.5735  1.5143
  655MOL0     H86445   6.029   9.494   0.802  1.1018 -1.2365 -1.1772
  655MOL0     H86446   7.905  10.437   0.503 -0.4233 -0.4755 -0.5385
  655MOL0     H86447   8.128  10.444   0.609 -2.0267  2.3130 -2.0093
  655MOL0     H86448   8.547  10.080   0.567  0.6166 -1.2175 -0.0729
  655MOL0     H86449   8.793  10.074   0.667 -1.1465 -3.2369 -0.5814
  655MOL0     H86450   8.924  10.367   0.992 -2.7987  0.6633 -0.5688
  655MOL0     H86451   8.888  10.414   0.832  1.1171  1.7392  0.1546
  655MOL0     H86452   9.126  10.423   0.837 -0.5977  1.1833 -2.9344
  655MOL0     H86453   9.138  10.254   0.899  1.2039  1.2075 -0.4011
  655MOL0     H86454   9.049  10.346   0.616  0.2181 -0.1074 -1.2045
  655MOL0     H86455   9.028  10.177   0.678  1.7137 -0.9815 -1.1249
  655MOL0     H86456   9.247  10.129   0.697  0.4183  1.0585  2.0233
  655MOL0     H86457   9.236  10.225   0.540  2.7053  3.0171  0.3948
  655MOL0     H86458   9.469  10.483   0.771 -0.0773 -0.1212 -0.3347
  655MOL0     H86459   8.665  10.319   0.980 -1.2891 -0.6268  1.7597
  655MOL0     H86460   8.433  10.297   0.912 -0.4761  2.0881 -1.5484
  656MOL0     O86461   1.003  10.984   8.667 -0.1227  0.4175 -0.2236
  656MOL0     C86462   1.064  11.078   8.719  0.0998 -0.0145  0.2471
  656MOL0     O86463   1.019  11.201   8.737  0.4519 -0.5762 -0.2484
  656MOL0     C86464   0.890  11.246   8.711  0.5276  0.8426 -0.5842
  656MOL0     C86465   0.877  11.378   8.666  0.1848 -0.0719 -0.1486
  656MOL0     C86466   0.744  11.427   8.641 -0.0118 -0.1499  0.7452
  656MOL0     C86467   0.628  11.352   8.667  0.3641 -0.1774 -0.6335
  656MOL0     O86468   0.505  11.409   8.646  0.1391  0.9576 -0.6739
  656MOL0     C86469   0.403  11.308   8.645  1.0716 -0.6588 -0.1498
  656MOL0     C86470   0.276  11.372   8.597 -0.5851  0.2298 -0.0233
  656MOL0     C86471   0.165  11.266   8.570  0.0500 -0.5469  0.0634
  656MOL0     C86472   0.037  11.337   8.538  0.4223 -0.2869 -0.1215
  656MOL0     C86473  -0.076  11.236   8.509 -0.2302 -0.0228 -0.1198
  656MOL0     C86474  -0.124  11.174   8.642  0.2587  0.1561 -0.7259
  656MOL0     C86475  -0.249  11.089   8.629  0.2733  0.1348 -0.3183
  656MOL0     C86476  -0.369  11.183   8.642 -0.0948 -0.9246 -0.6898
  656MOL0     N86477  -0.483  11.098   8.645 -0.5188  0.3880  0.0036
  656MOL0     C86478  -0.517  11.016   8.530 -0.4618 -0.3148 -0.9043
  656MOL0     C86479  -0.615  10.944   8.563  0.4026 -0.7144  0.2216
  656MOL0     C86480  -0.686  10.846   8.464  0.0604 -0.3019 -0.1059
  656MOL0     C86481  -0.764  10.909   8.349 -0.1368 -0.2869  0.5220
  656MOL0     C86482  -0.873  11.001   8.384 -1.1185 -0.5723  0.4486
  656MOL0     C86483  -0.959  10.946   8.491  0.1134 -0.5313  0.2336
  656MOL0     O86484  -1.013  10.822   8.450  0.2511 -0.1711 -0.3144
  656MOL0     C86485  -1.131  10.774   8.511  0.6351 -0.1988  0.0473
  656MOL0     C86486  -1.168  10.809   8.637  0.6288 -0.2792  1.0113
  656MOL0     C86487  -1.300  10.770   8.691 -1.0232  0.1241 -0.0070
  656MOL0     C86488  -1.388  10.699   8.617 -1.2267 -0.3687  0.7381
  656MOL0     C86489  -1.522  10.667   8.667 -0.4854 -0.8595  0.0032
  656MOL0     O86490  -1.584  10.753   8.752  0.3955 -0.7193 -0.0669
  656MOL0     C86491  -1.721  10.726   8.780  0.0823 -0.5224 -0.0655
  656MOL0     C86492  -1.823  10.757   8.686 -0.1265 -0.4293  0.3453
  656MOL0     C86493  -1.957  10.721   8.711  0.3816  0.0577 -0.0387
  656MOL0     C86494  -1.992  10.664   8.840  0.0268  0.3218  0.3527
  656MOL0     O86495  -2.125  10.622   8.862 -0.2598 -0.2907  0.3643
  656MOL0     C86496  -2.224  10.725   8.808 -0.1090  0.1799 -0.8578
  656MOL0     C86497  -2.353  10.696   8.888 -0.4181 -0.2327 -0.9618
  656MOL0     C86498  -2.464  10.788   8.842  0.5874 -0.6337  0.4491
  656MOL0     C86499  -2.591  10.767   8.930 -0.0866  0.0565  0.7383
  656MOL0     C86500  -2.698  10.871   8.913  0.6497  0.1717  0.5275
  656MOL0     C86501  -2.783  10.836   8.785  0.6212 -0.8421  0.2036
  656MOL0     C86502  -2.915  10.923   8.761  0.4016 -0.1643 -0.4328
  656MOL0     C86503  -2.898  11.067   8.723 -0.3946  0.2962  0.2939
  656MOL0    Cl86504  -2.773  11.096   8.589 -0.3469  0.7165  0.6541
  656MOL0     C86505  -1.894  10.622   8.926  0.2182 -0.2073  0.6148
  656MOL0     C86506  -1.762  10.661   8.894 -0.5604 -0.8159  0.6371
  656MOL0     O86507  -1.579  10.573   8.617  0.0383  0.2498 -0.0049
  656MOL0     C86508  -1.345  10.655   8.488  0.1929 -0.2124 -0.3375
  656MOL0     C86509  -1.221  10.690   8.440 -0.1960 -0.1775 -0.0521
  656MOL0     N86510  -0.645  10.957   8.697 -0.2770 -0.2712 -0.3239
  656MOL0     N86511  -0.553  11.041   8.748  0.5855  0.3570 -0.4949
  656MOL0     C86512   0.646  11.226   8.723  0.0012  0.7042 -0.2412
  656MOL0     C86513   0.777  11.174   8.735 -0.5036  0.7113  0.1440
  656MOL0     C86514   1.203  11.051   8.760 -0.3535 -0.2988  0.1680
  656MOL0     C86515   1.275  10.943   8.734 -0.1672  0.4081  0.4375
  656MOL0     C86516   1.409  10.926   8.770 -0.4532  0.0129 -0.5382
  656MOL0     C86517   1.485  11.025   8.835 -0.0941 -0.0486  0.3591
  656MOL0     O86518   1.622  11.000   8.844 -0.8818 -0.0779 -0.0982
  656MOL0     C86519   1.724  11.101   8.857  0.1071  0.0388 -0.0931
  656MOL0     C86520   1.857  11.024   8.813  0.5346 -0.2619 -0.0851
  656MOL0     C86521   1.882  10.917   8.921  0.0832 -0.5741 -0.1100
  656MOL0     C86522   2.000  10.821   8.882  1.1339  0.1159 -0.2032
  656MOL0     C86523   2.105  10.887   8.815 -0.7642 -0.7825  0.0994
  656MOL0     C86524   2.194  10.962   8.784  0.7506  0.6511  0.5230
  656MOL0     C86525   1.419  11.141   8.861 -0.3028  0.4903  0.3237
  656MOL0     C86526   1.280  11.150   8.835  1.6509 -0.2573 -0.7910
  656MOL0     H86527   0.966  11.439   8.650  0.6051 -0.4305  0.7750
  656MOL0     H86528   0.749  11.528   8.601 -0.6788 -0.8669 -1.2654
  656MOL0     H86529   0.382  11.268   8.745 -2.0067  2.8656  0.8339
  656MOL0     H86530   0.440  11.225   8.584 -0.2845 -0.5321 -1.1858
  656MOL0     H86531   0.302  11.428   8.506  0.6335 -0.2906 -0.0099
  656MOL0     H86532   0.248  11.440   8.678  0.2342  1.4983 -0.7647
  656MOL0     H86533   0.145  11.210   8.662  0.5067 -0.2991  0.3160
  656MOL0     H86534   0.206  11.204   8.490  2.2668  2.3040 -1.2030
  656MOL0     H86535   0.017  11.395   8.627 -1.5310 -2.3975  0.9181
  656MOL0     H86536   0.054  11.402   8.451  2.7191 -0.8808 -0.2038
  656MOL0     H86537  -0.045  11.161   8.435 -0.8928 -1.7141  1.2325
  656MOL0     H86538  -0.160  11.291   8.465 -1.5288 -2.5334 -0.9846
  656MOL0     H86539  -0.136  11.250   8.720 -2.0553  0.1541 -1.0233
  656MOL0     H86540  -0.055  11.107   8.694  0.7624  1.2899  0.1105
  656MOL0     H86541  -0.252  11.041   8.531  1.2003  3.1532 -1.9378
  656MOL0     H86542  -0.256  11.015   8.710  1.4346  0.7036  0.3380
  656MOL0     H86543  -0.361  11.256   8.561  0.9470 -2.0844 -1.6729
  656MOL0     H86544  -0.357  11.233   8.739  2.6383 -2.3488 -0.1730
  656MOL0     H86545  -0.466  11.029   8.435 -0.3802  1.1553 -0.6952
  656MOL0     H86546  -0.759  10.778   8.508  0.7475 -1.2322 -0.3754
  656MOL0     H86547  -0.603  10.785   8.425  0.5399 -0.6609  1.4199
  656MOL0     H86548  -0.794  10.826   8.285 -1.1198 -0.8903  1.7156
  656MOL0     H86549  -0.689  10.970   8.297  1.1377 -3.7274 -2.0267
  656MOL0     H86550  -0.815  11.079   8.435 -1.1795 -1.2532  1.5951
  656MOL0     H86551  -0.926  11.048   8.302  1.8196 -0.0006 -1.2852
  656MOL0     H86552  -1.040  11.017   8.510  1.8133  1.8111 -0.7639
  656MOL0     H86553  -0.895  10.938   8.579  1.8975  0.0212 -0.9661
  656MOL0     H86554  -1.101  10.873   8.693  0.4437  0.3887  0.4749
  656MOL0     H86555  -1.318  10.799   8.794  1.8265 -1.4944  1.0824
  656MOL0     H86556  -1.793  10.802   8.591 -0.8466 -1.4205 -0.3762
  656MOL0     H86557  -2.030  10.752   8.637 -0.7312 -0.7040  0.7076
  656MOL0     H86558  -2.235  10.705   8.701 -0.5005  1.8002 -1.1351
  656MOL0     H86559  -2.212  10.831   8.829 -2.2220 -0.3080  4.3623
  656MOL0     H86560  -2.323  10.730   8.988 -0.1960 -0.7793 -0.8346
  656MOL0     H86561  -2.381  10.590   8.893  3.1903 -1.2858  0.6374
  656MOL0     H86562  -2.480  10.776   8.734  0.3324 -0.9499  0.5204
  656MOL0     H86563  -2.429  10.891   8.857 -0.6976 -0.3048  1.2655
  656MOL0     H86564  -2.630  10.665   8.921  0.3666 -0.0126 -0.7680
  656MOL0     H86565  -2.557  10.780   9.033 -2.8371  2.3315  1.4719
  656MOL0     H86566  -2.656  10.972   8.909  1.4640 -0.2029 -0.7666
  656MOL0     H86567  -2.760  10.884   9.003  1.8565  2.8649  1.0696
  656MOL0     H86568  -2.819  10.733   8.791 -0.7976 -0.3280  0.8587
  656MOL0     H86569  -2.720  10.844   8.696 -1.7634  1.9394 -1.3775
  656MOL0     H86570  -2.969  10.860   8.688 -2.7337 -1.4189  2.6854
  656MOL0     H86571  -2.976  10.931   8.851 -0.5352 -2.7579 -0.7472
  656MOL0     H86572  -2.853  11.124   8.805  1.5232 -0.9171  0.1518
  656MOL0     H86573  -2.996  11.101   8.689 -0.5220 -1.4456 -1.2332
  656MOL0     H86574  -1.926  10.559   9.008  0.7980  0.8012  1.6498
  656MOL0     H86575  -1.681  10.652   8.967 -0.0512  2.3765  0.6211
  656MOL0     H86576  -1.411  10.588   8.433 -0.0829 -1.3013  1.2631
  656MOL0     H86577  -1.192  10.666   8.338  3.6802 -0.2814  0.9383
  656MOL0     H86578   0.564  11.164   8.757  0.7530  0.5409  1.4219
  656MOL0     H86579   0.789  11.071   8.770 -0.7317  0.6898  0.1572
  656MOL0     H86580   1.228  10.865   8.675 -0.7845 -0.8926  2.5799
  656MOL0     H86581   1.470  10.840   8.744  2.4219  1.0691  2.1020
  656MOL0     H86582   1.736  11.139   8.959 -2.7548  0.9381  0.0187
  656MOL0     H86583   1.706  11.185   8.790 -1.9785 -0.1339  0.1775
  656MOL0     H86584   1.848  10.984   8.712  1.8460 -1.0073  0.0714
  656MOL0     H86585   1.941  11.093   8.809  1.1338 -0.8885  1.1600
  656MOL0     H86586   1.797  10.854   8.950  0.3964 -1.0813 -0.2656
  656MOL0     H86587   1.918  10.977   9.005  0.0150  0.7246 -0.9764
  656MOL0     H86588   2.045  10.758   8.959  0.2688 -3.3527 -2.2866
  656MOL0     H86589   1.946  10.754   8.815  1.7366  1.3941 -2.0692
  656MOL0     H86590   2.268  11.034   8.757 -1.3258  3.1346  1.0492
  656MOL0     H86591   1.471  11.225   8.906 -1.4272  1.1846  0.3666
  656MOL0     H86592   1.228  11.243   8.854  0.4437 -0.8388 -1.1477
  657MOL0     O86593   7.394   8.937   3.680  0.2998  0.0399  0.7757
  657MOL0     C86594   7.338   8.903   3.786 -0.5542 -0.0016  0.8483
  657MOL0     O86595   7.203   8.908   3.800  0.9899  0.3935 -0.0508
  657MOL0     C86596   7.123   8.914   3.684  0.0079 -0.7851  0.5322
  657MOL0     C86597   7.042   9.022   3.652 -0.3105  0.0069  0.0934
  657MOL0     C86598   6.948   9.016   3.543  0.2004 -0.1796 -0.0179
  657MOL0     C86599   6.943   8.906   3.463  1.0809  1.1930  0.3800
  657MOL0     O86600   6.854   8.889   3.354  0.1760 -0.4131 -0.6912
  657MOL0     C86601   6.745   8.796   3.373  0.5038 -0.4215 -0.5423
  657MOL0     C86602   6.620   8.873   3.429  0.4319 -0.1375  0.2200
  657MOL0     C86603   6.526   8.932   3.319 -0.3058 -0.3343  0.0282
  657MOL0     C86604   6.395   8.994   3.374 -0.3260  0.0950 -0.0745
  657MOL0     C86605   6.296   9.010   3.257  1.1009  0.3460  0.5928
  657MOL0     C86606   6.177   9.089   3.312 -0.0202 -0.0253 -0.0844
  657MOL0     C86607   6.086   9.143   3.205  0.6359  0.0307 -0.0616
  657MOL0     C86608   6.023   9.021   3.135 -0.5537  0.5399 -0.4639
  657MOL0     N86609   5.912   9.064   3.046  0.5819  0.1271 -0.6081
  657MOL0     C86610   5.929   9.096   2.915 -0.1784 -0.5482  0.2269
  657MOL0     C86611   5.810   9.146   2.880  1.0276 -0.0066 -0.3915
  657MOL0     C86612   5.765   9.202   2.753  0.2386  0.6099  1.3340
  657MOL0     C86613   5.810   9.342   2.735 -0.0830 -0.0472  0.3431
  657MOL0     C86614   5.792   9.399   2.585 -0.0233  0.1392  0.8520
  657MOL0     C86615   5.646   9.424   2.538 -0.2753 -0.2679 -0.7144
  657MOL0     O86616   5.584   9.530   2.617 -0.3877 -0.0005 -0.3037
  657MOL0     C86617   5.453   9.544   2.641  1.5671 -0.3546 -0.2284
  657MOL0     C86618   5.360   9.486   2.561 -0.3450 -0.5996 -0.3934
  657MOL0     C86619   5.222   9.499   2.590 -0.6123  0.0440 -0.7822
  657MOL0     C86620   5.178   9.585   2.686  0.8118  0.3988 -0.3455
  657MOL0     C86621   5.031   9.593   2.717 -0.1221 -0.7092  0.1555
  657MOL0     O86622   4.990   9.671   2.822 -0.1933  0.0745 -0.0475
  657MOL0     C86623   4.858   9.666   2.857 -0.0312  0.4078 -0.1705
  657MOL0     C86624   4.825   9.621   2.982  0.1292  0.6834  0.4549
  657MOL0     C86625   4.695   9.611   3.027 -0.7210 -0.4624 -1.0966
  657MOL0     C86626   4.589   9.643   2.936 -0.1307 -0.7065 -0.2704
  657MOL0     O86627   4.459   9.651   2.967  0.0847  0.1239  0.2904
  657MOL0     C86628   4.407   9.726   3.084  0.4369  0.7554 -0.1447
  657MOL0     C86629   4.386   9.630   3.199 -0.3235 -0.2638 -0.6233
  657MOL0     C86630   4.265   9.532   3.175 -0.1339 -0.3018  0.1265
  657MOL0     C86631   4.255   9.425   3.275 -0.1346  0.2783 -0.7460
  657MOL0     C86632   4.118   9.355   3.259 -0.1488 -0.0231  0.4148
  657MOL0     C86633   4.117   9.239   3.348  0.2493  0.4443 -0.0702
  657MOL0     C86634   3.986   9.165   3.342  0.4415  0.2646 -0.2610
  657MOL0     C86635   3.977   9.084   3.211 -0.0824 -0.3263 -0.1932
  657MOL0    Cl86636   3.814   9.003   3.218  0.0799  0.0901 -0.2700
  657MOL0     C86637   4.621   9.690   2.810 -0.1232  0.2058  0.0725
  657MOL0     C86638   4.758   9.701   2.765 -0.0543  0.1772  0.2728
  657MOL0     O86639   4.955   9.529   2.653  0.3480 -0.0044  0.2905
  657MOL0     C86640   5.270   9.652   2.768 -0.7526  0.9676  0.6874
  657MOL0     C86641   5.406   9.629   2.745  0.6107  0.8136  0.3742
  657MOL0     N86642   5.716   9.133   2.977  0.4328 -0.2371  0.7473
  657MOL0     N86643   5.782   9.083   3.079 -0.2038 -0.1263  0.0300
  657MOL0     C86644   7.025   8.792   3.506  0.5112  0.5602 -0.2580
  657MOL0     C86645   7.108   8.791   3.613 -0.4982 -0.9911 -0.1324
  657MOL0     C86646   7.426   8.871   3.903  0.5122  0.2597 -0.3242
  657MOL0     C86647   7.561   8.853   3.899 -1.0905 -0.1378  0.3650
  657MOL0     C86648   7.638   8.815   4.012  0.7021 -0.0200  1.2191
  657MOL0     C86649   7.581   8.791   4.141  0.0189 -0.9022 -0.2149
  657MOL0     O86650   7.650   8.749   4.254  0.3313  0.0498 -0.1579
  657MOL0     C86651   7.786   8.698   4.242 -0.2823  0.3235 -1.1472
  657MOL0     C86652   7.831   8.654   4.386 -0.1912 -0.4654 -0.3466
  657MOL0     C86653   7.798   8.504   4.417 -0.5012 -0.3937 -0.2481
  657MOL0     C86654   7.874   8.460   4.552  0.4876 -0.6791  0.7217
  657MOL0     C86655   7.821   8.325   4.575  0.3307  0.6619 -0.2002
  657MOL0     C86656   7.790   8.213   4.595 -0.3251  1.2486 -0.6243
  657MOL0     C86657   7.440   8.816   4.147  0.2106  0.4866  0.6366
  657MOL0     C86658   7.367   8.855   4.032  0.1536  0.5456  0.2546
  657MOL0     H86659   7.069   9.110   3.709  0.0721  0.2890 -0.5072
  657MOL0     H86660   6.876   9.096   3.526 -2.2422 -1.9688  1.2321
  657MOL0     H86661   6.769   8.718   3.446  1.0776  1.4152  1.3093
  657MOL0     H86662   6.714   8.749   3.279 -0.5019  0.6526 -0.7750
  657MOL0     H86663   6.637   8.943   3.511 -2.1821 -1.8466  2.3943
  657MOL0     H86664   6.555   8.800   3.477 -1.4987 -0.0622 -2.1332
  657MOL0     H86665   6.501   8.853   3.247  3.1477 -1.5502 -0.0460
  657MOL0     H86666   6.577   9.010   3.262  0.4688  0.1725  1.3898
  657MOL0     H86667   6.367   8.922   3.451  3.0438  0.7504  2.0085
  657MOL0     H86668   6.411   9.094   3.416  4.8246 -0.0283 -1.0736
  657MOL0     H86669   6.263   8.908   3.238 -0.6714  0.4089  2.8522
  657MOL0     H86670   6.343   9.064   3.174 -0.3469  1.6196  0.5529
  657MOL0     H86671   6.215   9.179   3.361 -0.1255 -0.8390  1.5605
  657MOL0     H86672   6.123   9.037   3.392 -0.6886  0.7516 -0.0107
  657MOL0     H86673   6.013   9.215   3.245 -2.3315 -0.9668 -3.1712
  657MOL0     H86674   6.146   9.204   3.137  1.5350 -1.3795 -0.5663
  657MOL0     H86675   5.985   8.956   3.215 -1.0611  1.5759  0.1674
  657MOL0     H86676   6.096   8.968   3.075  1.2373  1.3845  0.8809
  657MOL0     H86677   6.025   9.086   2.865  0.4490 -2.6473  1.6926
  657MOL0     H86678   5.656   9.199   2.744  0.0024  1.6812  3.3402
  657MOL0     H86679   5.799   9.140   2.670 -0.4583  0.0247  1.4764
  657MOL0     H86680   5.914   9.349   2.769 -0.0886 -4.3448  1.8320
  657MOL0     H86681   5.757   9.403   2.809 -0.9047  0.6705 -0.8052
  657MOL0     H86682   5.859   9.483   2.563  2.4553 -2.1236 -1.0393
  657MOL0     H86683   5.830   9.322   2.517 -1.6996  1.0745 -1.2170
  657MOL0     H86684   5.596   9.327   2.548  2.7829 -1.8544  0.5485
  657MOL0     H86685   5.639   9.452   2.432  1.1005  1.0217 -0.4895
  657MOL0     H86686   5.389   9.427   2.475 -0.2195 -0.9205 -0.1308
  657MOL0     H86687   5.163   9.429   2.531  0.8405 -2.6107  0.7516
  657MOL0     H86688   4.905   9.585   3.047  0.3597  0.6493  0.1562
  657MOL0     H86689   4.666   9.591   3.130 -0.7198 -0.3157 -1.0673
  657MOL0     H86690   4.309   9.770   3.065  0.3772  1.9159  2.4504
  657MOL0     H86691   4.478   9.804   3.111  0.2214  0.6765  0.6531
  657MOL0     H86692   4.366   9.677   3.296 -0.1869 -1.8486  0.1981
  657MOL0     H86693   4.474   9.571   3.226 -1.6172 -0.7528  3.2186
  657MOL0     H86694   4.269   9.481   3.079  0.0451 -3.0572  1.4971
  657MOL0     H86695   4.171   9.589   3.166  0.5965  1.1647  1.3134
  657MOL0     H86696   4.341   9.357   3.271  0.2918  0.8829 -2.1132
  657MOL0     H86697   4.263   9.461   3.378 -1.2337 -0.9175 -0.2188
  657MOL0     H86698   4.103   9.331   3.153  0.1786 -0.7355  0.5250
  657MOL0     H86699   4.035   9.420   3.287 -0.0560  1.1478 -1.8086
  657MOL0     H86700   4.114   9.282   3.449 -1.3701  0.0466  0.0695
  657MOL0     H86701   4.199   9.169   3.330  0.1135  0.0866  0.6904
  657MOL0     H86702   3.995   9.104   3.433  0.4494  0.3330 -0.2159
  657MOL0     H86703   3.903   9.232   3.367  0.7926 -0.2125  2.4979
  657MOL0     H86704   4.060   9.013   3.206  0.7824  0.7236 -2.9141
  657MOL0     H86705   3.977   9.143   3.119  0.7378 -2.1293 -1.4021
  657MOL0     H86706   4.532   9.714   2.753 -1.4933 -0.0894  2.0059
  657MOL0     H86707   4.777   9.737   2.664  3.1651 -2.0456 -0.0811
  657MOL0     H86708   5.246   9.718   2.851 -2.8986  2.3323 -0.9202
  657MOL0     H86709   5.485   9.672   2.805 -1.9054  1.2396  3.6339
  657MOL0     H86710   7.026   8.702   3.445  0.3194  0.6280 -0.3621
  657MOL0     H86711   7.163   8.706   3.650  0.1477 -1.1949 -1.4880
  657MOL0     H86712   7.605   8.872   3.802 -0.3433 -0.6086  0.6058
  657MOL0     H86713   7.746   8.809   4.003  1.0921  2.9840  2.4357
  657MOL0     H86714   7.852   8.776   4.204  0.3110  1.1357  1.3819
  657MOL0     H86715   7.782   8.619   4.166 -2.0634  1.8308 -2.7372
  657MOL0     H86716   7.935   8.686   4.401 -1.1342  1.9649  1.6513
  657MOL0     H86717   7.776   8.718   4.455  1.1086  1.2596 -0.8338
  657MOL0     H86718   7.817   8.443   4.328 -0.5978  0.9686 -1.2371
  657MOL0     H86719   7.692   8.492   4.442 -0.5908 -1.4401 -1.0387
  657MOL0     H86720   7.981   8.469   4.531 -0.3292  1.2161 -3.7119
  657MOL0     H86721   7.843   8.522   4.636 -1.4211 -0.1299 -0.3068
  657MOL0     H86722   7.750   8.118   4.623 -0.4107  1.4042 -0.2122
  657MOL0     H86723   7.387   8.809   4.241  0.9120  1.1104  1.0861
  657MOL0     H86724   7.260   8.867   4.043  0.0711  0.6122 -0.5570
  658MOL0     O86725   0.855   7.729   8.230  0.1034 -0.0525 -0.3473
  658MOL0     C86726   0.885   7.665   8.126  0.2514  1.0793  0.1743
  658MOL0     O86727   0.798   7.635   8.020  0.6610  0.5191  0.0320
  658MOL0     C86728   0.682   7.706   8.025  0.7579 -0.1475  0.8461
  658MOL0     C86729   0.572   7.646   8.092  0.0406 -0.8202 -0.1066
  658MOL0     C86730   0.449   7.711   8.091  0.6307  0.5903 -0.9093
  658MOL0     C86731   0.435   7.832   8.026 -0.6304 -0.5349  0.3247
  658MOL0     O86732   0.308   7.873   8.038  0.2987  0.3437  0.1514
  658MOL0     C86733   0.272   8.009   8.001  0.4533  0.6699 -0.0839
  658MOL0     C86734   0.133   8.027   8.059 -0.0440 -0.0469 -0.2113
  658MOL0     C86735   0.136   8.026   8.212  0.1100  0.3351 -0.4793
  658MOL0     C86736  -0.011   8.028   8.268  0.4149  0.4026 -1.1571
  658MOL0     C86737  -0.018   7.965   8.406 -0.5244  0.2887  0.4091
  658MOL0     C86738  -0.036   7.814   8.388 -0.5946  0.0656 -0.0369
  658MOL0     C86739  -0.042   7.748   8.524 -0.4600  0.3486  1.1634
  658MOL0     C86740  -0.077   7.592   8.517  0.9693  0.1044 -0.1538
  658MOL0     N86741  -0.218   7.563   8.543  0.2327  0.2465 -0.0186
  658MOL0     C86742  -0.305   7.595   8.653 -0.5724  0.5985  0.1741
  658MOL0     C86743  -0.422   7.552   8.605  0.2459 -0.6122  0.0771
  658MOL0     C86744  -0.554   7.567   8.669 -0.3636 -0.0365 -0.5913
  658MOL0     C86745  -0.683   7.523   8.592 -0.9343  0.0835 -0.2443
  658MOL0     C86746  -0.812   7.553   8.664 -0.2152 -1.1825 -0.4318
  658MOL0     C86747  -0.936   7.514   8.582  0.6770 -0.0551  0.2453
  658MOL0     O86748  -1.050   7.565   8.646 -0.3156 -0.3269 -0.3505
  658MOL0     C86749  -1.165   7.531   8.587 -0.6102  0.4231  0.4530
  658MOL0     C86750  -1.183   7.457   8.471  0.0531 -0.2792  0.7802
  658MOL0     C86751  -1.317   7.426   8.418 -0.3680 -0.2643 -0.1513
  658MOL0     C86752  -1.429   7.463   8.500 -0.2668 -0.1813  0.0693
  658MOL0     C86753  -1.563   7.425   8.455  0.5596  0.0368 -1.1456
  658MOL0     O86754  -1.664   7.493   8.503 -0.4308  0.2145 -0.4405
  658MOL0     C86755  -1.796   7.447   8.479  0.4183  0.3415 -0.8521
  658MOL0     C86756  -1.896   7.547   8.501 -0.2110  0.7204 -0.0234
  658MOL0     C86757  -2.031   7.515   8.481 -0.4432 -0.3910 -0.8277
  658MOL0     C86758  -2.064   7.383   8.439  0.7038 -0.4442  0.6315
  658MOL0     O86759  -2.198   7.357   8.417  0.5269 -0.0030  0.5244
  658MOL0     C86760  -2.297   7.418   8.507 -0.1754 -0.4149 -0.7567
  658MOL0     C86761  -2.414   7.328   8.516 -0.7099  0.6644 -0.4272
  658MOL0     C86762  -2.536   7.411   8.536 -1.1540  0.2525 -0.4265
  658MOL0     C86763  -2.649   7.320   8.563  0.0024 -0.0514 -0.1999
  658MOL0     C86764  -2.791   7.396   8.589 -0.3377 -0.1648  1.3846
  658MOL0     C86765  -2.912   7.320   8.550 -0.2487  0.0374 -0.6713
  658MOL0     C86766  -3.040   7.390   8.589  0.4216 -0.7920 -0.0225
  658MOL0     C86767  -3.172   7.308   8.558  0.3541  0.2076 -1.1842
  658MOL0    Cl86768  -3.207   7.260   8.390  0.2172 -0.1764 -0.6950
  658MOL0     C86769  -1.963   7.291   8.414  0.0585 -0.2267 -0.0949
  658MOL0     C86770  -1.832   7.318   8.442 -0.5355 -0.1387 -0.2690
  658MOL0     O86771  -1.564   7.320   8.394  0.0374 -0.0753 -0.7484
  658MOL0     C86772  -1.405   7.544   8.611 -0.4199  0.2161 -0.1642
  658MOL0     C86773  -1.275   7.581   8.662  0.3042 -0.6044  0.7933
  658MOL0     N86774  -0.410   7.501   8.481  0.3535 -0.2221  0.8518
  658MOL0     N86775  -0.293   7.519   8.434  0.6733  0.1518  0.0206
  658MOL0     C86776   0.544   7.902   7.969 -0.4480  0.3223  1.2203
  658MOL0     C86777   0.667   7.834   7.958  0.2475  0.1862 -0.4137
  658MOL0     C86778   1.018   7.606   8.098 -0.8961  0.6577 -0.4166
  658MOL0     C86779   1.051   7.526   7.991 -0.3281  0.2517 -0.2875
  658MOL0     C86780   1.183   7.496   7.968  0.3608  0.1756  0.4978
  658MOL0     C86781   1.287   7.540   8.043 -0.1628  0.1053  0.1490
  658MOL0     O86782   1.411   7.511   7.986  0.6644  0.2358  0.1147
  658MOL0     C86783   1.515   7.563   8.067  0.1194  0.2349 -0.4394
  658MOL0     C86784   1.640   7.522   7.996 -2.0693 -0.3179 -0.4052
  658MOL0     C86785   1.692   7.383   8.029 -0.5489  0.2927  0.6565
  658MOL0     C86786   1.721   7.364   8.176  0.8938 -0.0836  0.7809
  658MOL0     C86787   1.822   7.266   8.196 -0.5733  0.1776  0.0341
  658MOL0     C86788   1.912   7.184   8.204 -0.0303  0.4483  0.1003
  658MOL0     C86789   1.257   7.609   8.163  0.1547  0.7527 -0.1037
  658MOL0     C86790   1.126   7.660   8.178 -0.0638 -0.2398  0.0503
  658MOL0     H86791   0.601   7.555   8.144 -0.0875  0.8251  3.1383
  658MOL0     H86792   0.358   7.668   8.131  1.4814 -0.3320  0.1306
  658MOL0     H86793   0.279   8.021   7.892  1.2877 -1.6086 -0.3430
  658MOL0     H86794   0.340   8.081   8.046  1.3478 -0.5953  0.6627
  658MOL0     H86795   0.064   7.952   8.018 -0.1230 -1.4015  2.2004
  658MOL0     H86796   0.098   8.127   8.031  2.9991  1.5317  1.2356
  658MOL0     H86797   0.192   8.112   8.249  0.2151  1.9755 -4.0340
  658MOL0     H86798   0.196   7.943   8.253  0.1792  0.5841 -0.0688
  658MOL0     H86799  -0.047   8.132   8.266  0.9723  0.7643  2.2652
  658MOL0     H86800  -0.080   7.979   8.199  0.4283  0.0020 -0.8861
  658MOL0     H86801  -0.098   8.009   8.467 -0.7642 -0.2233  0.4649
  658MOL0     H86802   0.075   7.972   8.463 -0.0176 -4.2494  0.4694
  658MOL0     H86803   0.050   7.773   8.334 -0.0510 -2.3597  2.4700
  658MOL0     H86804  -0.132   7.787   8.343 -1.9077 -0.5091  2.8789
  658MOL0     H86805   0.056   7.758   8.572  0.7300  1.4233 -1.2701
  658MOL0     H86806  -0.117   7.807   8.577  1.0110  1.3008  2.2822
  658MOL0     H86807  -0.036   7.539   8.604 -1.4351 -2.2048 -0.2898
  658MOL0     H86808  -0.049   7.547   8.421 -0.4600  0.3618 -0.7211
  658MOL0     H86809  -0.271   7.646   8.742  1.1025  2.4108 -1.3890
  658MOL0     H86810  -0.572   7.674   8.683  0.0340 -0.2624  2.1020
  658MOL0     H86811  -0.542   7.521   8.767 -0.0163  3.0843  0.9617
  658MOL0     H86812  -0.681   7.415   8.577 -2.1848  0.1181 -0.8281
  658MOL0     H86813  -0.682   7.584   8.501  1.8655  3.4408  1.8002
  658MOL0     H86814  -0.826   7.491   8.753 -0.9469  0.4223  0.6225
  658MOL0     H86815  -0.817   7.661   8.682  0.3746 -0.8353 -2.1780
  658MOL0     H86816  -0.940   7.405   8.574  0.3657  0.0173 -0.7338
  658MOL0     H86817  -0.929   7.547   8.478 -3.8376  0.5512 -0.0609
  658MOL0     H86818  -1.101   7.420   8.410  0.4748  0.3226  0.9821
  658MOL0     H86819  -1.326   7.368   8.327  0.3219 -3.0103  1.4298
  658MOL0     H86820  -1.864   7.644   8.538  0.4224  0.0470  1.2610
  658MOL0     H86821  -2.103   7.596   8.483  0.3645  0.3318 -0.5892
  658MOL0     H86822  -2.324   7.510   8.454  1.6235  1.6728  1.6885
  658MOL0     H86823  -2.256   7.432   8.607 -0.0273  0.0818 -0.8823
  658MOL0     H86824  -2.399   7.252   8.593 -1.6849  1.5947  0.7350
  658MOL0     H86825  -2.429   7.280   8.419 -0.8269  1.6824 -0.9230
  658MOL0     H86826  -2.562   7.480   8.455  0.1891  0.2227 -0.9014
  658MOL0     H86827  -2.521   7.476   8.623  0.1614 -1.1057  0.4246
  658MOL0     H86828  -2.653   7.266   8.468  3.0777  0.0072 -0.4686
  658MOL0     H86829  -2.634   7.248   8.644 -4.0395 -3.4671 -2.0812
  658MOL0     H86830  -2.784   7.483   8.523  0.8338 -1.5468 -0.4094
  658MOL0     H86831  -2.789   7.430   8.693 -2.3329  1.7891  0.8539
  658MOL0     H86832  -2.918   7.220   8.593  0.3287 -1.2936 -3.5098
  658MOL0     H86833  -2.905   7.314   8.442 -1.7462 -1.7054 -0.7168
  658MOL0     H86834  -3.037   7.415   8.695  1.3800 -0.9022 -0.0185
  658MOL0     H86835  -3.048   7.482   8.531  0.4385  0.2364  1.5622
  658MOL0     H86836  -3.256   7.355   8.609  1.3771  2.2434 -1.2879
  658MOL0     H86837  -3.151   7.218   8.617  1.8182 -0.4562 -2.6178
  658MOL0     H86838  -1.987   7.191   8.380 -0.0178 -0.1000 -0.4145
  658MOL0     H86839  -1.773   7.227   8.429 -1.8350 -0.7141 -2.9097
  658MOL0     H86840  -1.488   7.584   8.669 -0.6007  0.8547 -0.8340
  658MOL0     H86841  -1.265   7.645   8.749 -0.1466 -1.9270  1.8457
  658MOL0     H86842   0.527   7.998   7.920  0.3882  0.1319  0.5347
  658MOL0     H86843   0.752   7.879   7.908 -0.6834  2.2583 -0.2398
  658MOL0     H86844   0.975   7.492   7.923 -0.6142 -1.8663  1.0057
  658MOL0     H86845   1.206   7.446   7.874  2.2018  0.7301  0.6076
  658MOL0     H86846   1.511   7.538   8.173 -1.3471 -0.3569 -0.6054
  658MOL0     H86847   1.503   7.672   8.059 -1.5158  0.1115 -0.0645
  658MOL0     H86848   1.647   7.547   7.890 -1.0117  0.8473 -0.0795
  658MOL0     H86849   1.721   7.588   8.028 -2.0854  0.2598 -1.4937
  658MOL0     H86850   1.776   7.364   7.961 -0.4719  2.7322 -0.0285
  658MOL0     H86851   1.613   7.311   8.008  1.1856 -0.7530 -3.2852
  658MOL0     H86852   1.766   7.457   8.212  1.7918  1.0704 -2.8177
  658MOL0     H86853   1.635   7.333   8.235 -0.0826 -0.7915 -0.9172
  658MOL0     H86854   1.995   7.117   8.205 -2.9969 -3.6593  2.4026
  658MOL0     H86855   1.322   7.638   8.244  3.9592 -0.8175 -2.3488
  658MOL0     H86856   1.110   7.724   8.264  1.5985  1.4496 -0.7994
  659MOL0     O86857   2.683  11.029   6.450 -0.3153 -0.2978  0.2963
  659MOL0     C86858   2.664  10.980   6.562  1.2412 -0.3462  0.0469
  659MOL0     O86859   2.538  10.960   6.612 -0.4671  0.9791 -0.2919
  659MOL0     C86860   2.435  10.988   6.526  0.0673 -0.3916 -0.5815
  659MOL0     C86861   2.367  11.105   6.546  0.9150  0.0622  0.0060
  659MOL0     C86862   2.243  11.123   6.475  0.2042  0.8744  0.3725
  659MOL0     C86863   2.194  11.023   6.383  0.2795 -0.5257 -0.6726
  659MOL0     O86864   2.072  11.025   6.317  0.0423 -0.4774 -0.1333
  659MOL0     C86865   2.043  11.147   6.243 -0.1244 -0.2232 -0.6586
  659MOL0     C86866   1.910  11.200   6.294  0.0497  0.3529  0.2316
  659MOL0     C86867   1.903  11.351   6.267  0.6666 -0.7557  0.0808
  659MOL0     C86868   1.762  11.390   6.305  0.4776 -0.7698 -0.4365
  659MOL0     C86869   1.734  11.533   6.257 -0.3265  0.5568 -0.6622
  659MOL0     C86870   1.581  11.564   6.285 -0.3417 -0.5195  0.2150
  659MOL0     C86871   1.560  11.697   6.221 -0.0714  1.4080  0.2909
  659MOL0     C86872   1.423  11.752   6.265  0.5344  0.0066  0.5787
  659MOL0     N86873   1.427  11.849   6.375 -0.1591 -0.8370  0.4366
  659MOL0     C86874   1.497  11.969   6.385  0.1802  0.1338  0.1840
  659MOL0     C86875   1.485  12.009   6.511  0.0173  0.3674  0.6844
  659MOL0     C86876   1.539  12.116   6.599 -0.0100 -0.4657  0.1132
  659MOL0     C86877   1.574  12.245   6.522 -0.5990  0.8729 -0.2227
  659MOL0     C86878   1.617  12.362   6.614  0.1066 -0.7772  0.0763
  659MOL0     C86879   1.735  12.329   6.704  0.3231  0.2679  0.4042
  659MOL0     O86880   1.853  12.287   6.622  0.1646 -0.4331 -0.4977
  659MOL0     C86881   1.974  12.263   6.690  0.2954  0.5244  0.3237
  659MOL0     C86882   2.082  12.199   6.617 -0.3750 -0.5877 -0.3268
  659MOL0     C86883   2.194  12.147   6.682 -0.1216 -0.2604  0.4476
  659MOL0     C86884   2.208  12.175   6.819 -0.4689  0.4803  0.4967
  659MOL0     C86885   2.334  12.138   6.886 -0.6266  0.1475 -0.5913
  659MOL0     O86886   2.429  12.066   6.821 -0.4784 -0.4146  0.3152
  659MOL0     C86887   2.553  12.030   6.876  0.4849  0.3179 -0.0630
  659MOL0     C86888   2.604  11.904   6.859 -0.9530 -0.2387  0.6634
  659MOL0     C86889   2.733  11.871   6.902 -0.6618 -0.3031 -0.0257
  659MOL0     C86890   2.820  11.969   6.959  0.3224 -0.1366  0.0527
  659MOL0     O86891   2.946  11.929   7.005  0.5346 -0.2718 -1.2799
  659MOL0     C86892   3.024  12.035   7.057  0.1975 -0.3963  0.0201
  659MOL0     C86893   3.153  11.976   7.103 -0.4998  1.1236  0.1281
  659MOL0     C86894   3.236  11.893   7.006  0.2156  0.8468  1.0614
  659MOL0     C86895   3.288  11.985   6.887  0.7112  0.3017  0.1450
  659MOL0     C86896   3.409  11.923   6.803  0.5125 -0.5892  1.0080
  659MOL0     C86897   3.544  11.964   6.866  0.3439  0.6854  0.2500
  659MOL0     C86898   3.676  11.896   6.797 -0.5743 -0.3968  1.1812
  659MOL0     C86899   3.796  11.957   6.853  0.7274 -0.2405 -0.5561
  659MOL0    Cl86900   3.953  11.886   6.800  0.2837  0.2925  0.0052
  659MOL0     C86901   2.771  12.098   6.962 -0.5587 -1.0430 -0.1714
  659MOL0     C86902   2.636  12.127   6.932  0.1559  0.9510  1.0252
  659MOL0     O86903   2.346  12.170   7.003  0.4624 -0.1339  0.3323
  659MOL0     C86904   2.104  12.237   6.887  0.1233 -0.2881 -0.4960
  659MOL0     C86905   1.985  12.280   6.828 -0.7524  0.3968 -0.0252
  659MOL0     N86906   1.393  11.922   6.568 -0.1523  0.1082  0.7745
  659MOL0     N86907   1.365  11.827   6.490 -0.0812  0.6827 -0.1443
  659MOL0     C86908   2.277  10.912   6.363  0.5186  0.4844  0.5270
  659MOL0     C86909   2.392  10.895   6.431  0.0024 -0.7360  0.0197
  659MOL0     C86910   2.783  10.940   6.645  0.5170  0.0364  0.2626
  659MOL0     C86911   2.915  10.943   6.588  1.0491  0.3698  0.9561
  659MOL0     C86912   3.024  10.907   6.666  0.1174  0.1581  0.0279
  659MOL0     C86913   3.012  10.868   6.798 -1.4418 -0.4599  1.0453
  659MOL0     O86914   3.116  10.824   6.879 -0.4024  0.9567  0.1131
  659MOL0     C86915   3.238  10.777   6.824 -0.3110  0.2215 -0.7162
  659MOL0     C86916   3.254  10.636   6.888 -0.5611  0.3636 -0.4543
  659MOL0     C86917   3.397  10.580   6.909  0.3491 -0.6975 -0.4237
  659MOL0     C86918   3.388  10.439   6.975 -0.4701 -0.1353 -0.4553
  659MOL0     C86919   3.387  10.441   7.123 -0.1773 -0.3649 -0.0103
  659MOL0     C86920   3.380  10.432   7.244  0.0931  0.0217 -0.0605
  659MOL0     C86921   2.887  10.862   6.859 -0.2959  0.2331 -0.4588
  659MOL0     C86922   2.776  10.903   6.784 -0.5294  0.4542 -0.0814
  659MOL0     H86923   2.392  11.185   6.615  3.1969 -0.2814 -0.3558
  659MOL0     H86924   2.173  11.205   6.487 -0.8756  0.0371  0.0444
  659MOL0     H86925   2.038  11.123   6.136  2.2790 -0.6745 -0.7184
  659MOL0     H86926   2.130  11.213   6.238 -0.7735  0.5806 -2.4538
  659MOL0     H86927   1.896  11.186   6.402 -0.4818  1.9882  0.4134
  659MOL0     H86928   1.824  11.154   6.246  0.2304  0.8398 -0.5652
  659MOL0     H86929   1.914  11.365   6.159 -1.3713  1.6188  0.0924
  659MOL0     H86930   1.982  11.403   6.322 -1.6423 -0.2154  3.1772
  659MOL0     H86931   1.689  11.325   6.256  1.7106 -2.3336 -0.2800
  659MOL0     H86932   1.740  11.380   6.412 -2.2851 -0.5627 -0.9131
  659MOL0     H86933   1.751  11.542   6.149  0.9652 -1.2522 -0.6578
  659MOL0     H86934   1.792  11.610   6.308 -3.0541  0.8955  2.2525
  659MOL0     H86935   1.559  11.577   6.391 -0.6381  0.7435  0.0163
  659MOL0     H86936   1.517  11.486   6.246  0.4840 -0.6702 -0.8772
  659MOL0     H86937   1.639  11.767   6.250  0.1693  1.6169 -0.8336
  659MOL0     H86938   1.562  11.702   6.112  0.7178  1.8704  0.3200
  659MOL0     H86939   1.356  11.668   6.285 -2.0863  2.1644  1.4843
  659MOL0     H86940   1.373  11.800   6.181  2.0157 -0.1345 -0.4355
  659MOL0     H86941   1.560  12.014   6.309 -1.9901  0.4876 -1.5308
  659MOL0     H86942   1.621  12.080   6.662  1.3265  2.3928  0.1488
  659MOL0     H86943   1.456  12.148   6.663 -0.7613 -0.5430 -0.8041
  659MOL0     H86944   1.495  12.291   6.462  0.3539  0.6977 -1.6572
  659MOL0     H86945   1.652  12.209   6.454 -2.8391 -2.6961 -1.2033
  659MOL0     H86946   1.643  12.449   6.553 -0.3537  0.1293  1.1331
  659MOL0     H86947   1.530  12.388   6.676  0.4573 -4.1704  2.2636
  659MOL0     H86948   1.707  12.252   6.776  0.1762  0.4556  0.5464
  659MOL0     H86949   1.765  12.420   6.757  1.2791  0.4688 -0.4288
  659MOL0     H86950   2.084  12.174   6.512 -0.0070 -0.2056 -0.4142
  659MOL0     H86951   2.256  12.083   6.621 -1.0358  0.2082 -1.0260
  659MOL0     H86952   2.544  11.829   6.808 -0.4969  0.4111 -0.9153
  659MOL0     H86953   2.753  11.764   6.907 -1.1377 -0.3908  0.0271
  659MOL0     H86954   2.975  12.087   7.140  1.6373  0.5567  0.3165
  659MOL0     H86955   3.037  12.115   6.983 -2.5833  0.2217  0.0911
  659MOL0     H86956   3.137  11.909   7.188  0.2682  1.7740  0.8033
  659MOL0     H86957   3.217  12.054   7.146  0.0151  0.9155 -0.2527
  659MOL0     H86958   3.176  11.812   6.964  1.2009  0.5342  0.1978
  659MOL0     H86959   3.325  11.854   7.057 -0.6149 -0.8017  1.3185
  659MOL0     H86960   3.207  11.992   6.814  1.5249  2.1584 -0.6503
  659MOL0     H86961   3.318  12.085   6.919  2.5200 -0.5229  1.2086
  659MOL0     H86962   3.410  11.967   6.703  2.9420 -1.7209  0.4761
  659MOL0     H86963   3.396  11.817   6.778  2.4687 -0.5941 -0.1338
  659MOL0     H86964   3.543  11.932   6.970 -0.2477  4.2180  1.4422
  659MOL0     H86965   3.559  12.072   6.867 -0.2274  0.7794  2.0213
  659MOL0     H86966   3.686  11.793   6.834 -1.3146 -1.2978 -0.9288
  659MOL0     H86967   3.670  11.899   6.687 -1.9343 -1.8984  1.1755
  659MOL0     H86968   3.795  11.944   6.962 -0.6294  0.5399 -0.4557
  659MOL0     H86969   3.793  12.064   6.830  4.5694  0.0157 -0.6497
  659MOL0     H86970   2.840  12.178   6.985  2.4714 -3.2952 -0.6492
  659MOL0     H86971   2.591  12.226   6.940  1.8806  1.7868  0.9162
  659MOL0     H86972   2.113  12.272   6.989  1.3229  2.9489 -1.6061
  659MOL0     H86973   1.909  12.329   6.888  0.1236  0.8891  0.7183
  659MOL0     H86974   2.240  10.849   6.283 -2.7065  0.1220  2.1629
  659MOL0     H86975   2.451  10.804   6.434  0.5964 -0.4548  4.5581
  659MOL0     H86976   2.911  10.966   6.482 -4.2698 -3.2290 -0.0376
  659MOL0     H86977   3.121  10.890   6.621 -0.2645 -4.0650  0.4847
  659MOL0     H86978   3.318  10.844   6.858 -2.3638  0.8672  3.4235
  659MOL0     H86979   3.234  10.764   6.715 -1.1344  1.2576 -0.8194
  659MOL0     H86980   3.206  10.627   6.986 -0.2274 -2.6854 -0.4738
  659MOL0     H86981   3.196  10.562   6.831 -0.9696 -1.6077  2.3566
  659MOL0     H86982   3.444  10.648   6.980 -2.6892  1.4194 -0.2412
  659MOL0     H86983   3.464  10.567   6.824  2.6957  1.1657  1.0363
  659MOL0     H86984   3.301  10.386   6.938  0.4547 -2.6682  0.7960
  659MOL0     H86985   3.478  10.382   6.950  0.7053  1.5826 -0.3734
  659MOL0     H86986   3.380  10.425   7.351  1.7198  1.8998  0.1107
  659MOL0     H86987   2.886  10.838   6.964  0.6533  1.3327 -0.1836
  659MOL0     H86988   2.678  10.910   6.830 -1.7318  0.5860 -2.5103
  660MOL0     O86989   6.280   4.780   8.812  0.7332  0.0195  0.1412
  660MOL0     C86990   6.276   4.818   8.693 -0.1633 -0.3629 -0.0704
  660MOL0     O86991   6.161   4.821   8.612 -0.1640  0.3542  0.1494
  660MOL0     C86992   6.049   4.766   8.662 -0.0483 -0.8799  0.8636
  660MOL0     C86993   5.929   4.845   8.648  0.0998  0.0318  0.4977
  660MOL0     C86994   5.801   4.792   8.677  0.4847  0.2858  0.1877
  660MOL0     C86995   5.794   4.653   8.696 -0.2569 -0.5009 -0.2111
  660MOL0     O86996   5.672   4.598   8.707  0.4460  0.3672 -0.1086
  660MOL0     C86997   5.590   4.642   8.813  0.7193 -0.5301 -0.2473
  660MOL0     C86998   5.440   4.605   8.781  0.5531 -0.6331 -0.4511
  660MOL0     C86999   5.331   4.642   8.888 -0.0704 -0.0912 -0.1479
  660MOL0     C87000   5.192   4.606   8.840 -0.2214  0.6681  0.2852
  660MOL0     C87001   5.093   4.662   8.938 -0.8293 -1.0051 -0.2537
  660MOL0     C87002   4.950   4.630   8.895  0.2841  0.1893 -0.9391
  660MOL0     C87003   4.838   4.708   8.967 -0.0974 -0.3577 -0.4662
  660MOL0     C87004   4.776   4.813   8.874  0.0220  0.0657 -0.0997
  660MOL0     N87005   4.706   4.746   8.768  0.6428 -0.4042  0.1554
  660MOL0     C87006   4.597   4.662   8.785  0.0869 -0.2933  0.6777
  660MOL0     C87007   4.581   4.602   8.664 -0.3371 -0.1663  0.2955
  660MOL0     C87008   4.497   4.481   8.628 -0.2552 -0.2259 -0.0975
  660MOL0     C87009   4.519   4.366   8.730 -0.0284  0.1518  0.6988
  660MOL0     C87010   4.652   4.289   8.703  0.8642 -0.8511 -0.0495
  660MOL0     C87011   4.674   4.162   8.789 -0.0698  0.0130  0.4318
  660MOL0     O87012   4.738   4.183   8.915  0.3923  0.1110  0.4067
  660MOL0     C87013   4.870   4.205   8.905  0.2847 -0.8863 -0.8245
  660MOL0     C87014   4.915   4.238   9.032  0.0295 -0.0812  0.0514
  660MOL0     C87015   5.055   4.247   9.048  0.2809  0.6118 -0.1985
  660MOL0     C87016   5.149   4.235   8.946  0.1693 -0.2675  0.3236
  660MOL0     C87017   5.298   4.235   8.963 -0.0386 -0.2583 -0.1674
  660MOL0     O87018   5.375   4.234   8.853 -0.6266 -0.0454 -0.7570
  660MOL0     C87019   5.513   4.234   8.860  0.6059  0.0765  0.2078
  660MOL0     C87020   5.581   4.186   8.750  0.3596 -0.3280 -0.0998
  660MOL0     C87021   5.716   4.162   8.744  0.3352  0.1684  0.0064
  660MOL0     C87022   5.801   4.201   8.853  0.8081  0.7457 -0.5838
  660MOL0     O87023   5.940   4.166   8.862 -0.2952  0.2721 -0.2737
  660MOL0     C87024   6.003   4.074   8.777  0.0468  0.0823  0.9532
  660MOL0     C87025   6.143   4.053   8.833 -0.6446 -0.8536  0.1073
  660MOL0     C87026   6.224   3.982   8.730  0.7270 -0.6886  0.5218
  660MOL0     C87027   6.298   4.074   8.638  0.2157  0.2755  0.0512
  660MOL0     C87028   6.402   3.999   8.553  0.3404  0.0487 -0.1701
  660MOL0     C87029   6.484   4.095   8.475 -0.2028 -0.7958  0.0610
  660MOL0     C87030   6.614   4.051   8.411  0.5377 -0.2459 -0.5099
  660MOL0     C87031   6.673   4.152   8.312 -0.3873  0.2146  0.2554
  660MOL0    Cl87032   6.830   4.090   8.262 -0.2409 -0.4202  0.8543
  660MOL0     C87033   5.732   4.265   8.961 -0.0429  0.4875 -0.0186
  660MOL0     C87034   5.591   4.281   8.964 -0.0842  0.3035 -0.5020
  660MOL0     O87035   5.336   4.248   9.082  0.2959  0.0861  0.7854
  660MOL0     C87036   5.099   4.195   8.815 -0.1721 -0.1956  0.0830
  660MOL0     C87037   4.960   4.184   8.798 -0.5480 -0.2447 -0.2729
  660MOL0     N87038   4.675   4.652   8.578 -0.6704  0.1088 -0.1948
  660MOL0     N87039   4.746   4.737   8.641 -1.0206  0.6596  0.2458
  660MOL0     C87040   5.907   4.579   8.710 -0.3516  0.1253 -0.0756
  660MOL0     C87041   6.035   4.626   8.695 -0.4500 -0.4637 -0.2876
  660MOL0     C87042   6.409   4.837   8.633  0.9092  0.2409  0.1478
  660MOL0     C87043   6.414   4.884   8.498 -0.2012  0.0777  0.0150
  660MOL0     C87044   6.529   4.917   8.435  0.4069 -0.3883 -0.2267
  660MOL0     C87045   6.654   4.894   8.491  0.5113  0.6469  0.1667
  660MOL0     O87046   6.762   4.923   8.424 -0.3752 -0.4812  0.1350
  660MOL0     C87047   6.766   4.997   8.305 -0.0898  0.2714 -0.1401
  660MOL0     C87048   6.905   5.061   8.293  0.2271  0.8142  0.4114
  660MOL0     C87049   6.947   5.109   8.153 -0.8001 -0.2008 -0.1924
  660MOL0     C87050   7.084   5.190   8.148 -1.1838 -0.5484 -0.0055
  660MOL0     C87051   7.208   5.109   8.157  0.3753 -0.0133  0.3285
  660MOL0     C87052   7.320   5.072   8.165 -0.5408  0.3145 -0.2280
  660MOL0     C87053   6.653   4.852   8.619  0.1947  0.0241 -0.1461
  660MOL0     C87054   6.531   4.820   8.695 -0.4210  0.5119  0.0091
  660MOL0     H87055   5.942   4.952   8.639  0.8602 -0.0883  0.0840
  660MOL0     H87056   5.714   4.851   8.651  0.5874 -0.5253 -2.2038
  660MOL0     H87057   5.601   4.747   8.842  3.3483 -1.2214  1.6068
  660MOL0     H87058   5.623   4.578   8.895 -2.2606 -2.5797 -0.4891
  660MOL0     H87059   5.423   4.501   8.752  1.8661 -0.6203 -1.3329
  660MOL0     H87060   5.416   4.665   8.693  2.9316  0.3667 -0.4805
  660MOL0     H87061   5.333   4.750   8.909 -0.0712 -0.2146  0.4924
  660MOL0     H87062   5.346   4.586   8.980  1.4332  0.6604  0.0905
  660MOL0     H87063   5.166   4.661   8.749  0.6203  0.0539 -0.3503
  660MOL0     H87064   5.176   4.501   8.815  2.1106  0.7573 -2.0472
  660MOL0     H87065   5.102   4.771   8.943  0.5482 -1.1569  1.9548
  660MOL0     H87066   5.111   4.631   9.041  0.2617  0.7782  0.1478
  660MOL0     H87067   4.933   4.525   8.920 -0.5067  0.5692  0.2114
  660MOL0     H87068   4.935   4.642   8.787  0.8441 -0.7527 -1.1376
  660MOL0     H87069   4.771   4.632   9.007 -2.6983  1.9660 -0.1159
  660MOL0     H87070   4.877   4.757   9.057  0.7765 -0.8475 -0.5599
  660MOL0     H87071   4.862   4.874   8.847  1.7490 -1.2512  2.1013
  660MOL0     H87072   4.703   4.881   8.920 -0.8914 -0.6829 -0.3940
  660MOL0     H87073   4.544   4.643   8.878  0.1750 -2.7533  0.3004
  660MOL0     H87074   4.515   4.441   8.528 -0.2287  0.0778 -0.2159
  660MOL0     H87075   4.391   4.507   8.626 -0.0305  1.9441  4.2325
  660MOL0     H87076   4.434   4.298   8.715  1.2251 -0.7054 -4.2458
  660MOL0     H87077   4.516   4.411   8.830 -0.5992  0.9084  0.3482
  660MOL0     H87078   4.668   4.269   8.596  0.6080 -0.1040 -0.2329
  660MOL0     H87079   4.720   4.372   8.726  0.6435 -0.9609  1.0395
  660MOL0     H87080   4.718   4.086   8.723 -1.2972  1.9771 -2.9231
  660MOL0     H87081   4.578   4.122   8.821 -1.5114  0.6447 -2.6887
  660MOL0     H87082   4.851   4.256   9.118 -0.1351 -1.9146  0.3476
  660MOL0     H87083   5.087   4.262   9.151  0.3574 -1.0570  0.0489
  660MOL0     H87084   5.521   4.153   8.665 -0.9816  1.7811 -0.0446
  660MOL0     H87085   5.746   4.120   8.649 -1.9424  2.1700 -1.7440
  660MOL0     H87086   6.003   4.116   8.676 -0.2591 -1.2247  0.3897
  660MOL0     H87087   5.953   3.977   8.771  0.0959 -0.0654  2.3769
  660MOL0     H87088   6.145   4.001   8.929  0.0669  1.3795  1.3729
  660MOL0     H87089   6.176   4.156   8.844  2.4298 -1.7117 -0.1548
  660MOL0     H87090   6.160   3.917   8.670 -1.3301  2.8603 -1.4985
  660MOL0     H87091   6.286   3.919   8.794  0.1642 -3.2625 -1.3113
  660MOL0     H87092   6.227   4.127   8.574 -1.7835  1.6295  3.1322
  660MOL0     H87093   6.346   4.148   8.703 -1.2500  0.0913  1.4122
  660MOL0     H87094   6.360   3.925   8.484  1.7998 -0.5059 -0.5020
  660MOL0     H87095   6.470   3.944   8.619 -1.1528 -0.9856  0.5669
  660MOL0     H87096   6.514   4.183   8.533  0.8569  2.5325 -4.8548
  660MOL0     H87097   6.413   4.115   8.394 -0.4142 -1.7203  0.0099
  660MOL0     H87098   6.685   4.049   8.494 -1.2923  1.0096  1.1763
  660MOL0     H87099   6.602   3.951   8.369 -1.7600 -0.2209 -0.0134
  660MOL0     H87100   6.700   4.244   8.364  1.4579  0.1374 -0.5046
  660MOL0     H87101   6.614   4.167   8.221 -0.1071  1.8459  0.3233
  660MOL0     H87102   5.788   4.318   9.039 -0.4031  0.7581  0.0579
  660MOL0     H87103   5.563   4.332   9.056  3.5572 -0.9168  1.4920
  660MOL0     H87104   5.157   4.169   8.727 -1.6556  0.3748 -1.1079
  660MOL0     H87105   4.924   4.151   8.701 -0.0585  0.3198 -0.6499
  660MOL0     H87106   5.904   4.472   8.728  2.5568 -0.2088 -1.1242
  660MOL0     H87107   6.123   4.564   8.711  1.5486  2.2734  0.1109
  660MOL0     H87108   6.321   4.910   8.448 -0.5323 -0.5396  0.2937
  660MOL0     H87109   6.521   4.959   8.335  2.0661 -0.4909 -0.4395
  660MOL0     H87110   6.693   5.078   8.306 -0.4407 -0.0038 -1.3360
  660MOL0     H87111   6.750   4.936   8.215  1.3458  1.7113 -1.4622
  660MOL0     H87112   6.906   5.142   8.367  1.3646 -0.0593  1.3933
  660MOL0     H87113   6.977   4.989   8.333 -0.1996  1.1433  1.8204
  660MOL0     H87114   6.868   5.176   8.119 -1.2840 -0.6306  0.0529
  660MOL0     H87115   6.950   5.023   8.086 -2.3181  0.9579 -1.8312
  660MOL0     H87116   7.099   5.252   8.059 -2.5194 -0.9912 -0.5798
  660MOL0     H87117   7.079   5.264   8.228  0.3082 -0.4452  0.0112
  660MOL0     H87118   7.415   5.024   8.173 -1.0739 -1.0717 -1.6250
  660MOL0     H87119   6.751   4.831   8.662 -0.2776 -2.1277 -0.0076
  660MOL0     H87120   6.540   4.820   8.803  1.2876  2.7414 -0.0740
  661MOL0     O87121   2.420   7.360   3.455 -0.0148 -0.0399 -0.2584
  661MOL0     C87122   2.357   7.401   3.355  0.2866  0.3077  0.1006
  661MOL0     O87123   2.266   7.510   3.351 -0.1866 -0.1192  0.8887
  661MOL0     C87124   2.246   7.597   3.450 -0.1810  1.1811  0.1970
  661MOL0     C87125   2.282   7.583   3.588 -0.1231  0.2829  0.7762
  661MOL0     C87126   2.263   7.691   3.675  0.0227 -0.2926  0.1966
  661MOL0     C87127   2.214   7.804   3.633  0.1846 -0.0865 -0.8437
  661MOL0     O87128   2.187   7.905   3.727  0.3637  0.2751  0.4320
  661MOL0     C87129   2.059   7.974   3.723  0.1270 -0.7573  0.4754
  661MOL0     C87130   1.939   7.883   3.745  0.2184 -0.0111  0.1341
  661MOL0     C87131   1.798   7.950   3.726 -0.8948  0.0929 -0.0259
  661MOL0     C87132   1.693   7.847   3.769 -0.1102 -0.4253 -1.0346
  661MOL0     C87133   1.613   7.804   3.651  0.4427 -0.0430  0.0214
  661MOL0     C87134   1.505   7.901   3.610  0.0105  0.2857  0.4930
  661MOL0     C87135   1.381   7.917   3.692  0.3666  0.3170 -0.2298
  661MOL0     C87136   1.279   7.998   3.625  0.0834  0.4968  0.3139
  661MOL0     N87137   1.156   7.989   3.707  0.1336  0.3044 -0.0235
  661MOL0     C87138   1.062   7.886   3.695 -0.3835  0.0558 -0.0972
  661MOL0     C87139   0.954   7.928   3.775  0.3043 -0.6498 -0.2892
  661MOL0     C87140   0.823   7.872   3.786  0.8921  0.9347  0.1247
  661MOL0     C87141   0.767   7.846   3.646 -0.7342  0.2059  0.0386
  661MOL0     C87142   0.624   7.788   3.671  0.4901 -0.1804  0.0308
  661MOL0     C87143   0.556   7.734   3.551  0.7299 -0.2236  1.1395
  661MOL0     O87144   0.430   7.684   3.596  0.2120 -0.2842  0.0945
  661MOL0     C87145   0.325   7.773   3.632 -0.1720 -0.4013 -0.3692
  661MOL0     C87146   0.308   7.904   3.589  0.2726 -0.5759  0.3007
  661MOL0     C87147   0.203   7.985   3.626 -0.6146 -0.4480  0.3535
  661MOL0     C87148   0.099   7.928   3.702 -0.5618  0.4874  0.3870
  661MOL0     C87149  -0.014   8.009   3.736  0.0673 -0.1699  0.0016
  661MOL0     O87150  -0.107   7.957   3.818 -0.2704  0.3015  0.5075
  661MOL0     C87151  -0.233   8.006   3.845  0.0012  0.3066  0.5675
  661MOL0     C87152  -0.254   8.139   3.883  0.5361  0.0162  0.0335
  661MOL0     C87153  -0.386   8.186   3.904  0.6212  0.3207 -1.2309
  661MOL0     C87154  -0.499   8.099   3.881 -0.5572 -0.2717  0.4865
  661MOL0     O87155  -0.627   8.137   3.889  0.5409 -0.2680 -0.5397
  661MOL0     C87156  -0.684   8.183   3.765 -0.2394  0.0339  0.3872
  661MOL0     C87157  -0.817   8.252   3.796  0.1530 -0.4125 -0.0233
  661MOL0     C87158  -0.919   8.155   3.872 -0.8793 -0.4642  0.1938
  661MOL0     C87159  -1.027   8.249   3.924 -1.5021 -0.5644  0.0828
  661MOL0     C87160  -1.133   8.175   4.000  0.3151 -0.3756 -0.3062
  661MOL0     C87161  -1.234   8.265   4.063  0.1706  0.1911  0.5249
  661MOL0     C87162  -1.352   8.190   4.114 -0.8618  0.6134  0.1220
  661MOL0     C87163  -1.470   8.272   4.127 -0.2960 -0.3248 -0.5138
  661MOL0    Cl87164  -1.619   8.182   4.194 -0.1459  0.3222  0.1772
  661MOL0     C87165  -0.477   7.966   3.847  0.5356  1.4225 -0.8640
  661MOL0     C87166  -0.343   7.918   3.821 -0.2496 -0.8415 -0.3352
  661MOL0     O87167  -0.024   8.127   3.690 -0.5176  0.1629  0.5350
  661MOL0     C87168   0.107   7.794   3.729 -0.0046  0.2486  0.0333
  661MOL0     C87169   0.222   7.719   3.713  1.2698 -0.3492  0.5253
  661MOL0     N87170   0.989   8.052   3.823  0.7246  0.6285  0.2326
  661MOL0     N87171   1.112   8.078   3.798  0.3755  0.5168 -0.0772
  661MOL0     C87172   2.184   7.822   3.502  0.5148 -0.5711 -0.3022
  661MOL0     C87173   2.192   7.720   3.411 -0.3660 -1.1634 -0.3523
  661MOL0     C87174   2.374   7.332   3.232  0.1607  1.1372  0.0775
  661MOL0     C87175   2.461   7.222   3.227  0.1840 -0.5261  0.4189
  661MOL0     C87176   2.464   7.140   3.105 -0.2443  0.3695 -0.1766
  661MOL0     C87177   2.389   7.176   2.996 -0.2192 -0.7300  0.1368
  661MOL0     O87178   2.390   7.101   2.883 -0.3115  0.3292  0.4454
  661MOL0     C87179   2.341   6.968   2.903 -0.1731  0.0734  0.7810
  661MOL0     C87180   2.308   6.902   2.766 -0.0533  0.9811  0.5922
  661MOL0     C87181   2.272   6.756   2.785  0.1918 -0.2014  0.4370
  661MOL0     C87182   2.248   6.676   2.651 -0.8623 -0.3079 -1.0781
  661MOL0     C87183   2.137   6.720   2.573  0.0990  0.4537  1.1939
  661MOL0     C87184   2.051   6.768   2.508  0.3132  0.0559 -0.0945
  661MOL0     C87185   2.314   7.296   3.003  0.2244  0.2865 -0.3478
  661MOL0     C87186   2.309   7.371   3.118  0.8726  0.1129 -0.9501
  661MOL0     H87187   2.323   7.489   3.623 -1.6459 -2.3852 -3.6881
  661MOL0     H87188   2.294   7.675   3.778  0.7555 -1.2912 -0.1670
  661MOL0     H87189   2.042   8.024   3.627 -0.1496  1.2266  1.5082
  661MOL0     H87190   2.068   8.052   3.799 -0.3116  0.3227 -0.5430
  661MOL0     H87191   1.957   7.840   3.844  4.8442 -0.5449 -0.6662
  661MOL0     H87192   1.944   7.798   3.677  0.7911  0.6066 -0.6188
  661MOL0     H87193   1.787   7.991   3.625  0.7370  0.2501 -0.1727
  661MOL0     H87194   1.795   8.034   3.795 -0.6372  0.7690 -0.8253
  661MOL0     H87195   1.731   7.755   3.814 -0.1052  0.0808  0.0320
  661MOL0     H87196   1.638   7.892   3.852  0.7304 -0.5068 -0.4172
  661MOL0     H87197   1.559   7.710   3.663 -4.6045  2.2345 -1.7829
  661MOL0     H87198   1.682   7.787   3.568  0.9676  1.8989 -0.0006
  661MOL0     H87199   1.477   7.874   3.508  1.7097 -1.7663  0.4949
  661MOL0     H87200   1.546   8.002   3.603 -1.3059  0.8094 -0.1727
  661MOL0     H87201   1.341   7.816   3.706 -1.9659  0.8595 -2.2504
  661MOL0     H87202   1.403   7.959   3.791 -0.7525 -0.6590  0.4620
  661MOL0     H87203   1.269   7.953   3.526  1.3957 -1.3522  0.9614
  661MOL0     H87204   1.301   8.104   3.610 -2.4032  0.7588 -2.4084
  661MOL0     H87205   1.067   7.785   3.655  3.7864 -0.4693  1.2085
  661MOL0     H87206   0.758   7.940   3.843  0.1927  0.0668  0.3886
  661MOL0     H87207   0.828   7.775   3.835 -3.0878 -1.1827 -2.9538
  661MOL0     H87208   0.825   7.767   3.598 -0.4398  1.2486 -1.3686
  661MOL0     H87209   0.768   7.934   3.582  0.9159  0.0661 -0.1553
  661MOL0     H87210   0.625   7.713   3.750  0.1048 -2.6312 -2.1725
  661MOL0     H87211   0.558   7.871   3.698 -1.0586 -1.8020  1.4637
  661MOL0     H87212   0.609   7.650   3.506  0.9577  1.4462 -1.9813
  661MOL0     H87213   0.541   7.799   3.464  1.5199 -0.5405  0.7640
  661MOL0     H87214   0.372   7.966   3.526 -1.7737  1.9267  0.5227
  661MOL0     H87215   0.201   8.088   3.592 -0.5360 -1.2117 -2.2294
  661MOL0     H87216  -0.168   8.204   3.896  1.4869 -1.3745  0.9320
  661MOL0     H87217  -0.414   8.286   3.937 -1.4406 -0.0375 -1.7568
  661MOL0     H87218  -0.694   8.105   3.690  0.6170  1.9729 -1.8703
  661MOL0     H87219  -0.615   8.253   3.717 -0.7995 -1.4470 -2.8090
  661MOL0     H87220  -0.870   8.287   3.707 -2.0024 -0.5171  1.1483
  661MOL0     H87221  -0.791   8.334   3.863 -0.0732 -0.4393  0.0966
  661MOL0     H87222  -0.867   8.103   3.953 -0.9692  0.5999  0.9650
  661MOL0     H87223  -0.965   8.078   3.810 -2.9578  1.9312 -1.4489
  661MOL0     H87224  -0.977   8.324   3.985  1.1577 -3.1484  1.3204
  661MOL0     H87225  -1.082   8.290   3.838 -1.4682  1.7000  1.0647
  661MOL0     H87226  -1.071   8.130   4.078  0.7729 -1.9425 -1.5350
  661MOL0     H87227  -1.179   8.093   3.944 -0.0957 -1.5248  1.6296
  661MOL0     H87228  -1.273   8.344   3.998 -0.8586 -0.3164  0.5031
  661MOL0     H87229  -1.198   8.326   4.147 -2.9884  2.6141  0.3169
  661MOL0     H87230  -1.384   8.112   4.044 -0.6954  1.6236 -1.1160
  661MOL0     H87231  -1.313   8.142   4.205  2.5468  2.2614 -0.3138
  661MOL0     H87232  -1.481   8.325   4.032  1.9953 -0.7315 -1.0575
  661MOL0     H87233  -1.447   8.345   4.206  0.5751 -2.2933  1.1444
  661MOL0     H87234  -0.551   7.887   3.851  2.3815 -0.3511  0.9165
  661MOL0     H87235  -0.337   7.812   3.799 -3.4889 -1.3627  0.7388
  661MOL0     H87236   0.018   7.753   3.776 -2.3188  1.3198 -3.0391
  661MOL0     H87237   0.205   7.619   3.751 -1.5296 -0.5137 -0.8788
  661MOL0     H87238   2.152   7.918   3.462 -0.3440 -1.1749 -1.0864
  661MOL0     H87239   2.169   7.730   3.306 -0.6223 -1.2623 -0.3073
  661MOL0     H87240   2.533   7.197   3.304  2.6204  1.8963 -0.9035
  661MOL0     H87241   2.521   7.048   3.097 -1.7054 -0.4383 -2.5906
  661MOL0     H87242   2.252   6.963   2.966 -2.7643 -2.9737 -2.6145
  661MOL0     H87243   2.423   6.909   2.945  2.0156  1.9805 -0.5956
  661MOL0     H87244   2.233   6.961   2.713 -1.8257 -1.8286 -0.2478
  661MOL0     H87245   2.394   6.912   2.698 -1.4731  0.6587 -1.3600
  661MOL0     H87246   2.193   6.740   2.859  2.6386 -2.0749  2.8341
  661MOL0     H87247   2.359   6.703   2.825 -0.1980 -1.2507 -0.0795
  661MOL0     H87248   2.341   6.689   2.594 -0.2183 -1.3910 -0.3261
  661MOL0     H87249   2.238   6.570   2.679 -0.7361 -0.3940 -1.3532
  661MOL0     H87250   1.971   6.793   2.442  0.7137 -1.0417 -1.0286
  661MOL0     H87251   2.261   7.320   2.912 -0.8600  0.0473  0.2066
  661MOL0     H87252   2.236   7.452   3.119 -1.4430 -1.7876  1.8735
  662MOL0     O87253   7.155   3.787  10.002  0.0551  0.0269  0.3564
  662MOL0     C87254   7.193   3.865   9.912  0.6513 -0.1540  0.2532
  662MOL0     O87255   7.110   3.956   9.849 -0.2459 -0.1490  0.1364
  662MOL0     C87256   6.977   3.949   9.878 -0.7597 -0.6097  1.2094
  662MOL0     C87257   6.908   3.952  10.000  0.5218  1.0060 -0.5833
  662MOL0     C87258   6.768   3.939   9.997 -0.6512 -0.5490  0.6273
  662MOL0     C87259   6.693   3.912   9.882 -0.2051  0.2239 -1.0791
  662MOL0     O87260   6.552   3.911   9.910 -1.2224 -0.9572  0.4964
  662MOL0     C87261   6.450   3.937   9.807 -0.5972  0.6451 -0.5530
  662MOL0     C87262   6.334   4.000   9.882 -0.8368  0.5220 -0.3122
  662MOL0     C87263   6.221   4.061   9.805  0.2894  0.4266  0.0329
  662MOL0     C87264   6.102   4.077   9.900 -0.0346 -0.2194 -0.5058
  662MOL0     C87265   5.993   4.162   9.830 -0.0784  0.2141 -0.5497
  662MOL0     C87266   5.871   4.133   9.914 -0.1115 -0.5829  0.2865
  662MOL0     C87267   5.756   4.182   9.833  0.1879  0.9212 -0.7053
  662MOL0     C87268   5.632   4.183   9.924 -1.3995  0.5677 -0.0506
  662MOL0     N87269   5.518   4.223   9.831  0.6671 -0.0464 -0.1353
  662MOL0     C87270   5.494   4.357   9.796 -0.2799 -0.1472 -0.2376
  662MOL0     C87271   5.371   4.354   9.748 -0.1541  1.1008  0.4275
  662MOL0     C87272   5.284   4.468   9.708 -0.5073  0.1796  0.4745
  662MOL0     C87273   5.277   4.564   9.825  0.0390 -0.3227 -0.3886
  662MOL0     C87274   5.167   4.676   9.801 -0.2048 -0.9279  0.1416
  662MOL0     C87275   5.128   4.744   9.928  0.9152  0.0011 -0.4910
  662MOL0     O87276   5.086   4.646  10.029  0.1900  0.0736  0.0900
  662MOL0     C87277   4.955   4.602  10.037  0.1403 -0.1970  0.3043
  662MOL0     C87278   4.846   4.666   9.976  0.5170  0.4489  0.1820
  662MOL0     C87279   4.721   4.608   9.986 -0.4273 -0.4430  0.0186
  662MOL0     C87280   4.696   4.495  10.065  0.7761  0.4566 -0.9617
  662MOL0     C87281   4.551   4.450  10.087  0.0090 -0.2785  0.4545
  662MOL0     O87282   4.461   4.548  10.061  0.1922 -0.1783 -0.1776
  662MOL0     C87283   4.328   4.523  10.050 -0.5044 -0.4813 -0.3486
  662MOL0     C87284   4.253   4.625  10.101 -0.2313 -0.5132 -0.6291
  662MOL0     C87285   4.115   4.623  10.107 -0.2097  0.0544 -0.6996
  662MOL0     C87286   4.040   4.520  10.049 -0.1886 -0.1725 -0.0086
  662MOL0     O87287   3.899   4.522  10.057  0.5033 -0.4054  0.2358
  662MOL0     C87288   3.813   4.437   9.977  0.4561  0.7956 -0.0101
  662MOL0     C87289   3.671   4.488   9.998  0.9289 -0.0570  0.4100
  662MOL0     C87290   3.651   4.638   9.962 -0.2980  0.0148  0.3662
  662MOL0     C87291   3.507   4.679   9.984  0.3493  0.4037  0.3835
  662MOL0     C87292   3.416   4.638   9.869  0.6210  0.5216 -0.0679
  662MOL0     C87293   3.281   4.710   9.879  0.1560 -0.4460  0.5324
  662MOL0     C87294   3.291   4.855   9.829  0.0674  0.5234 -0.3257
  662MOL0     C87295   3.189   4.947   9.902  0.3936  0.2074 -0.6665
  662MOL0    Cl87296   3.251   4.969  10.071 -0.3803 -0.3433  0.2248
  662MOL0     C87297   4.115   4.411   9.992  0.5012 -0.6467  0.2958
  662MOL0     C87298   4.256   4.408  10.005 -0.1219  0.0246 -0.8187
  662MOL0     O87299   4.519   4.333  10.113  0.3423  0.4070  0.6984
  662MOL0     C87300   4.799   4.444  10.143 -0.2504  0.2102  0.9744
  662MOL0     C87301   4.929   4.486  10.114 -0.6846 -0.5195 -0.0339
  662MOL0     N87302   5.319   4.226   9.747 -1.0267  0.7121 -0.0618
  662MOL0     N87303   5.412   4.147   9.792  0.0243 -0.9220  0.2972
  662MOL0     C87304   6.759   3.927   9.758  0.5542 -0.3921 -0.1655
  662MOL0     C87305   6.899   3.944   9.757 -0.4444  0.2376  0.0975
  662MOL0     C87306   7.330   3.874   9.876 -0.7372  0.4289  0.3083
  662MOL0     C87307   7.410   3.757   9.887  0.6760 -0.2088 -0.1669
  662MOL0     C87308   7.549   3.763   9.857  0.2323 -0.9569 -0.5327
  662MOL0     C87309   7.604   3.882   9.807  0.3845 -0.2353  0.1715
  662MOL0     O87310   7.742   3.890   9.772  0.7779  0.7555 -0.4440
  662MOL0     C87311   7.812   3.770   9.731  0.1788 -0.6295  0.2047
  662MOL0     C87312   7.928   3.815   9.653  0.5233 -0.0639  1.0951
  662MOL0     C87313   7.885   3.908   9.534 -0.0358  1.0643 -0.1624
  662MOL0     C87314   7.994   3.942   9.437  0.5345 -0.7807 -0.0871
  662MOL0     C87315   7.938   4.033   9.333 -0.8171  0.0714 -0.0525
  662MOL0     C87316   7.882   4.089   9.248 -0.2291  0.2881  0.4666
  662MOL0     C87317   7.522   3.993   9.790 -0.0966  0.1110 -0.0163
  662MOL0     C87318   7.386   3.987   9.813  0.3927  0.0437 -0.3479
  662MOL0     H87319   6.958   3.955  10.096 -1.7647 -1.9382  0.8680
  662MOL0     H87320   6.697   3.930  10.078  0.4296  1.6258  1.9235
  662MOL0     H87321   6.412   3.849   9.754 -1.5248  0.9158 -0.3616
  662MOL0     H87322   6.474   4.006   9.725 -2.7848 -0.5151 -2.2816
  662MOL0     H87323   6.366   4.081   9.948  1.8320 -1.1503  0.5856
  662MOL0     H87324   6.294   3.927   9.954  1.4276  1.8437  2.4728
  662MOL0     H87325   6.191   4.003   9.718 -1.8164  1.3951  0.0472
  662MOL0     H87326   6.238   4.160   9.761 -1.5360  1.6358  1.8264
  662MOL0     H87327   6.063   3.977   9.920  0.6002 -0.7901 -1.9425
  662MOL0     H87328   6.127   4.132   9.991 -1.9867 -2.6048  1.5914
  662MOL0     H87329   5.988   4.110   9.734  2.8929 -3.0225  0.8158
  662MOL0     H87330   6.017   4.269   9.827 -1.7012  0.7128  1.5733
  662MOL0     H87331   5.880   4.190  10.006  2.5928  1.8435 -1.2916
  662MOL0     H87332   5.845   4.028   9.930  0.5600 -0.8839 -0.4729
  662MOL0     H87333   5.771   4.285   9.800  2.1605  1.5561  1.8873
  662MOL0     H87334   5.753   4.108   9.752  2.7818  0.9584 -0.8979
  662MOL0     H87335   5.639   4.248  10.012  0.0441  0.0607  0.2317
  662MOL0     H87336   5.617   4.082   9.964  1.9457  0.1743  0.5057
  662MOL0     H87337   5.560   4.438   9.826  0.7908 -1.9189  2.5396
  662MOL0     H87338   5.184   4.426   9.690  0.4339 -1.9533 -0.0754
  662MOL0     H87339   5.334   4.510   9.621 -2.3977  1.5749 -0.0138
  662MOL0     H87340   5.379   4.604   9.832  0.6776 -1.7816 -1.0603
  662MOL0     H87341   5.257   4.502   9.913 -0.0372 -1.9759 -1.5218
  662MOL0     H87342   5.217   4.746   9.733 -1.3466 -0.3765 -0.1596
  662MOL0     H87343   5.084   4.626   9.750 -0.6502 -0.9669  0.8891
  662MOL0     H87344   5.047   4.812   9.900  1.1969 -0.0158 -1.3905
  662MOL0     H87345   5.194   4.812   9.983 -0.1212 -0.0897  0.9443
  662MOL0     H87346   4.848   4.768   9.939 -1.1378  1.0510  1.6613
  662MOL0     H87347   4.643   4.665   9.936  0.3805  1.0775  0.4088
  662MOL0     H87348   4.305   4.711  10.143  0.2923 -0.1611 -1.9265
  662MOL0     H87349   4.050   4.696  10.154  1.7046  1.7597 -0.5924
  662MOL0     H87350   3.807   4.336  10.019 -1.8793  0.6439 -0.5563
  662MOL0     H87351   3.847   4.448   9.874 -0.1114  0.3167 -0.2501
  662MOL0     H87352   3.624   4.471  10.095 -1.8340 -0.0052 -0.8198
  662MOL0     H87353   3.607   4.431   9.930 -0.5492 -0.3729  2.0060
  662MOL0     H87354   3.681   4.658   9.859 -1.5981 -1.4381 -0.3280
  662MOL0     H87355   3.718   4.689  10.032 -0.1951 -1.6763  1.5699
  662MOL0     H87356   3.460   4.625  10.067  0.3440  0.2030  0.2519
  662MOL0     H87357   3.505   4.785  10.009  1.9043  1.0872 -2.0287
  662MOL0     H87358   3.390   4.532   9.870 -0.7819  0.7805 -2.0666
  662MOL0     H87359   3.457   4.664   9.771  2.7249  0.1784  0.6722
  662MOL0     H87360   3.253   4.721   9.984  2.0779  0.2692  1.0254
  662MOL0     H87361   3.211   4.658   9.814  4.0586 -3.6215 -1.5913
  662MOL0     H87362   3.394   4.891   9.834 -0.8329  3.2784  0.0692
  662MOL0     H87363   3.263   4.864   9.723 -0.0398  2.0626 -0.1893
  662MOL0     H87364   3.088   4.906   9.912  0.2193  0.4431 -1.3955
  662MOL0     H87365   3.187   5.049   9.862  0.0135  1.3400  2.0237
  662MOL0     H87366   4.058   4.327   9.953  0.2129 -0.1284 -0.4088
  662MOL0     H87367   4.306   4.322   9.963  1.1111  0.2204  0.1814
  662MOL0     H87368   4.796   4.352  10.200 -0.8310 -0.6845 -0.4375
  662MOL0     H87369   5.011   4.444  10.171 -0.8662  0.2773  0.8314
  662MOL0     H87370   6.696   3.918   9.670 -0.8164  1.9082  0.4985
  662MOL0     H87371   6.948   3.959   9.661 -0.8427 -1.1126 -0.3404
  662MOL0     H87372   7.373   3.661   9.921  0.9479 -0.0858  0.4898
  662MOL0     H87373   7.612   3.680   9.888  2.4355  1.0038  0.6264
  662MOL0     H87374   7.750   3.692   9.686 -1.1847 -1.4930  3.2589
  662MOL0     H87375   7.861   3.724   9.818 -0.8767 -0.3489  0.9681
  662MOL0     H87376   8.002   3.876   9.707  0.1132  0.7146  0.7829
  662MOL0     H87377   7.975   3.720   9.625 -2.4732 -1.2949 -0.1924
  662MOL0     H87378   7.846   4.003   9.571 -1.1990  1.4852 -2.3285
  662MOL0     H87379   7.804   3.852   9.487  0.5042 -0.3090  0.4765
  662MOL0     H87380   8.056   4.009   9.497  0.6048  1.3688 -2.3746
  662MOL0     H87381   8.046   3.856   9.395 -2.4995 -1.9798 -1.7605
  662MOL0     H87382   7.825   4.140   9.172  0.1087  0.3596  0.2577
  662MOL0     H87383   7.566   4.086   9.754  0.9934 -1.1685 -2.1544
  662MOL0     H87384   7.325   4.072   9.784 -1.3000 -1.1949 -0.5494
  663MOL0     O87385   9.131   3.148   1.240  0.5312  0.0955 -0.4856
  663MOL0     C87386   9.210   3.210   1.176  0.6388 -0.7449  0.3199
  663MOL0     O87387   9.186   3.281   1.053  0.1398  0.3416 -0.2935
  663MOL0     C87388   9.057   3.273   1.004 -0.4251 -0.7210 -0.5213
  663MOL0     C87389   9.032   3.171   0.916 -0.0908  0.1063 -0.4780
  663MOL0     C87390   8.900   3.172   0.858 -0.3325  0.0987  0.3555
  663MOL0     C87391   8.795   3.267   0.889  0.1065  0.0767 -0.0947
  663MOL0     O87392   8.662   3.254   0.846 -0.2106 -0.2357 -0.3570
  663MOL0     C87393   8.630   3.142   0.755 -0.3006 -0.2576  0.5318
  663MOL0     C87394   8.492   3.147   0.704  0.2161 -0.0010  0.3962
  663MOL0     C87395   8.388   3.128   0.811  1.5987 -0.2154 -0.0139
  663MOL0     C87396   8.257   3.149   0.747  0.2151 -0.2110  0.3958
  663MOL0     C87397   8.151   3.187   0.850 -0.7266 -0.0373  0.0650
  663MOL0     C87398   8.003   3.182   0.801  0.3940  0.4189  0.3713
  663MOL0     C87399   7.966   3.243   0.664  0.1814  0.3651 -0.0432
  663MOL0     C87400   7.816   3.206   0.609 -0.3965 -0.3728 -0.1121
  663MOL0     N87401   7.703   3.254   0.694  0.1126 -0.5507  0.3645
  663MOL0     C87402   7.677   3.384   0.735  0.1951 -0.8384  0.0996
  663MOL0     C87403   7.593   3.379   0.838  0.3214  0.2344  0.9607
  663MOL0     C87404   7.541   3.499   0.908 -0.8886  0.1105  0.1150
  663MOL0     C87405   7.406   3.543   0.840 -0.0606 -0.3105  0.4610
  663MOL0     C87406   7.284   3.512   0.929 -0.1423 -0.9975  0.3683
  663MOL0     C87407   7.151   3.559   0.863  0.2550 -0.8403  0.0200
  663MOL0     O87408   7.055   3.618   0.957 -0.8583  0.2881 -0.4875
  663MOL0     C87409   6.922   3.621   0.913  0.2071  0.9586 -0.2495
  663MOL0     C87410   6.818   3.642   1.008 -0.9186 -0.0224 -0.4789
  663MOL0     C87411   6.686   3.640   0.968 -1.0027  0.5382  0.5605
  663MOL0     C87412   6.647   3.614   0.838  0.1945  1.2430  0.0370
  663MOL0     C87413   6.507   3.625   0.803 -0.3201  0.6533  1.1211
  663MOL0     O87414   6.411   3.652   0.904 -0.1075  0.6375 -0.0806
  663MOL0     C87415   6.279   3.665   0.871 -0.0761 -0.8439 -0.0632
  663MOL0     C87416   6.220   3.576   0.778 -0.6882 -0.0541 -0.2228
  663MOL0     C87417   6.085   3.589   0.744 -0.4016 -0.1256  0.3735
  663MOL0     C87418   6.005   3.697   0.794 -0.6746  0.3869 -0.0817
  663MOL0     O87419   5.865   3.699   0.772  0.9166  0.1071 -0.0431
  663MOL0     C87420   5.795   3.823   0.807 -0.4860  0.6066 -0.2262
  663MOL0     C87421   5.655   3.800   0.756  0.0085 -1.3115  0.1819
  663MOL0     C87422   5.553   3.912   0.784  0.0256 -0.0393 -0.5252
  663MOL0     C87423   5.584   4.031   0.689  0.8013 -0.1452 -0.0920
  663MOL0     C87424   5.491   4.158   0.693 -0.3085  0.3169 -0.0252
  663MOL0     C87425   5.351   4.131   0.638 -0.8133 -0.4592 -0.7842
  663MOL0     C87426   5.255   4.254   0.621 -0.4541 -0.5324 -0.1796
  663MOL0     C87427   5.233   4.318   0.746  0.3071  0.7368 -0.7851
  663MOL0    Cl87428   5.181   4.190   0.869  0.4463 -0.0429 -0.3796
  663MOL0     C87429   6.076   3.787   0.880  0.3632  0.7487 -0.0452
  663MOL0     C87430   6.202   3.769   0.923 -1.0047 -0.1306  0.3469
  663MOL0     O87431   6.482   3.596   0.692  0.2630  0.4805 -0.7213
  663MOL0     C87432   6.752   3.587   0.749 -0.1050 -0.0946  0.9241
  663MOL0     C87433   6.881   3.598   0.783 -1.2272 -0.2897 -0.1141
  663MOL0     N87434   7.573   3.242   0.870 -0.0708  0.3902  0.3331
  663MOL0     N87435   7.634   3.170   0.778  0.9493 -0.4709  0.4295
  663MOL0     C87436   8.830   3.364   0.980  0.7203  0.0549  0.6129
  663MOL0     C87437   8.957   3.370   1.039 -0.7326 -0.3692  0.8012
  663MOL0     C87438   9.355   3.207   1.221 -0.3765 -0.3298  0.3924
  663MOL0     C87439   9.448   3.300   1.158  0.3022  0.0457 -1.1078
  663MOL0     C87440   9.581   3.306   1.198  0.4211  0.1489 -0.5199
  663MOL0     C87441   9.629   3.226   1.312  0.1199  0.0270  1.2408
  663MOL0     O87442   9.754   3.241   1.361 -0.0872 -0.6849 -0.2297
  663MOL0     C87443   9.847   3.312   1.271 -0.4417  0.4469 -0.3189
  663MOL0     C87444   9.992   3.320   1.322 -0.2447 -0.5121 -0.2973
  663MOL0     C87445  10.052   3.184   1.323 -0.1182  0.3058  0.2659
  663MOL0     C87446  10.206   3.187   1.333 -0.0355  0.5578 -0.4408
  663MOL0     C87447  10.267   3.245   1.213 -0.4074 -0.5157  0.5016
  663MOL0     C87448  10.319   3.303   1.117 -0.5501  0.1038 -0.0007
  663MOL0     C87449   9.535   3.135   1.364 -0.7690 -1.0473 -0.6738
  663MOL0     C87450   9.399   3.125   1.330  0.0915  0.1207  0.6065
  663MOL0     H87451   9.105   3.108   0.867 -0.0991 -0.4171  0.1573
  663MOL0     H87452   8.872   3.091   0.791  1.0401 -0.6853  0.6799
  663MOL0     H87453   8.643   3.050   0.813  0.1499 -1.6292 -1.6507
  663MOL0     H87454   8.699   3.143   0.671 -0.6827  0.3484  0.2244
  663MOL0     H87455   8.476   3.079   0.620 -0.4367 -1.3039  1.5388
  663MOL0     H87456   8.477   3.245   0.657 -1.8513 -1.6246 -2.6589
  663MOL0     H87457   8.412   3.188   0.899  0.2168  0.0647  0.1852
  663MOL0     H87458   8.388   3.027   0.854 -0.1513 -1.6430 -3.0644
  663MOL0     H87459   8.259   3.229   0.674 -1.0225  1.0269  1.6614
  663MOL0     H87460   8.226   3.056   0.698  1.1048  1.1797 -3.0660
  663MOL0     H87461   8.167   3.289   0.885 -0.1573  0.0854 -0.5438
  663MOL0     H87462   8.164   3.114   0.931  2.2455 -1.6556 -1.6948
  663MOL0     H87463   7.948   3.243   0.873  0.0336 -2.5077  2.7828
  663MOL0     H87464   7.975   3.076   0.795  1.6097  0.0764  0.3098
  663MOL0     H87465   7.959   3.352   0.666 -1.6841  0.3592 -2.2937
  663MOL0     H87466   8.034   3.219   0.582  1.0078 -0.2809  0.8093
  663MOL0     H87467   7.794   3.100   0.593 -2.2133 -0.0612  0.1507
  663MOL0     H87468   7.802   3.257   0.514  1.7085  1.6870  0.6002
  663MOL0     H87469   7.726   3.474   0.698  2.2356 -2.2206 -0.7751
  663MOL0     H87470   7.612   3.582   0.911 -0.0743 -0.4614 -1.8499
  663MOL0     H87471   7.515   3.466   1.009  0.6649 -0.0962  0.4704
  663MOL0     H87472   7.386   3.489   0.747 -1.0446  0.1628  0.3854
  663MOL0     H87473   7.406   3.652   0.825  1.0076 -0.2642  0.7224
  663MOL0     H87474   7.286   3.404   0.947 -1.7859 -0.7683  2.2764
  663MOL0     H87475   7.299   3.549   1.031  0.7377 -0.3099  0.0019
  663MOL0     H87476   7.115   3.469   0.812  1.2213  0.3796 -3.0557
  663MOL0     H87477   7.168   3.629   0.781 -1.5413  0.3041  0.5721
  663MOL0     H87478   6.851   3.660   1.110 -0.1187  0.4194 -0.8076
  663MOL0     H87479   6.617   3.659   1.049  0.4543 -1.2572  2.3252
  663MOL0     H87480   6.268   3.487   0.739 -0.4117  0.3841 -0.8942
  663MOL0     H87481   6.043   3.524   0.669  2.5334 -3.0454  0.9881
  663MOL0     H87482   5.851   3.904   0.761  1.8558  0.8598  2.7595
  663MOL0     H87483   5.799   3.848   0.913 -1.9260 -0.0282  0.0120
  663MOL0     H87484   5.621   3.716   0.817 -0.1595 -0.2724  1.5799
  663MOL0     H87485   5.655   3.770   0.651  0.6117  1.7248 -0.7933
  663MOL0     H87486   5.544   3.936   0.890  0.2803  0.1268 -0.5423
  663MOL0     H87487   5.452   3.878   0.759 -0.1542  0.3372 -0.3077
  663MOL0     H87488   5.680   4.072   0.721  0.2693  1.3921 -0.3501
  663MOL0     H87489   5.593   4.000   0.585 -0.7416 -0.5474 -0.1275
  663MOL0     H87490   5.530   4.240   0.632  1.4407  0.4462  1.1851
  663MOL0     H87491   5.486   4.203   0.793 -1.3235  3.0621 -1.2199
  663MOL0     H87492   5.317   4.045   0.696  3.6371 -2.3472 -0.6032
  663MOL0     H87493   5.366   4.089   0.538  2.3030 -1.5171  0.0145
  663MOL0     H87494   5.304   4.331   0.561 -1.5124  0.7305  0.5395
  663MOL0     H87495   5.160   4.228   0.573 -1.4712  2.6546 -0.0767
  663MOL0     H87496   5.154   4.393   0.740  1.2735  1.7675 -1.0373
  663MOL0     H87497   5.325   4.369   0.776  0.5783  0.7194 -1.5515
  663MOL0     H87498   6.033   3.886   0.892 -0.3158  0.3089  1.2584
  663MOL0     H87499   6.251   3.824   1.002 -0.0353  0.7964 -0.8544
  663MOL0     H87500   6.722   3.559   0.648 -0.0792 -2.8184  1.6030
  663MOL0     H87501   6.950   3.586   0.701  0.8270 -1.4814  1.6550
  663MOL0     H87502   8.754   3.433   1.014 -1.9802 -4.0198  3.7500
  663MOL0     H87503   8.996   3.455   1.093 -1.0256 -1.1957  2.3678
  663MOL0     H87504   9.409   3.354   1.072  1.4045  0.1339 -1.5688
  663MOL0     H87505   9.645   3.365   1.135 -0.8877 -0.8025 -2.8637
  663MOL0     H87506   9.829   3.418   1.252 -1.8542  1.0684  3.5643
  663MOL0     H87507   9.848   3.260   1.174 -1.0500  3.8777 -2.3116
  663MOL0     H87508  10.054   3.381   1.255  1.0064 -0.1543  1.1400
  663MOL0     H87509  10.001   3.366   1.421  2.7021  0.8198 -1.0890
  663MOL0     H87510  10.030   3.117   1.239 -2.6604  0.6815  0.5760
  663MOL0     H87511  10.011   3.138   1.413 -0.4101  0.8740  0.4214
  663MOL0     H87512  10.239   3.248   1.418  0.0617  0.9765 -0.7732
  663MOL0     H87513  10.237   3.083   1.348  2.8307  1.5157  0.9943
  663MOL0     H87514  10.359   3.347   1.028  0.3300  0.0137  0.3411
  663MOL0     H87515   9.572   3.058   1.432  1.1242 -0.3247 -0.8469
  663MOL0     H87516   9.328   3.064   1.384 -0.9545  1.8042  1.1983
  664MOL0     O87517  10.607   8.686   8.940  0.0429  0.3037  0.6227
  664MOL0     C87518  10.696   8.681   9.025  0.1601 -0.6982 -0.7180
  664MOL0     O87519  10.685   8.630   9.149  0.9094  0.2926 -0.2803
  664MOL0     C87520  10.562   8.615   9.209 -0.1250  0.2010 -0.7557
  664MOL0     C87521  10.446   8.703   9.186  0.2778  0.7270 -0.5723
  664MOL0     C87522  10.335   8.681   9.266 -0.0915 -0.5233 -0.5512
  664MOL0     C87523  10.322   8.582   9.370  0.5105 -0.6325 -0.4545
  664MOL0     O87524  10.211   8.563   9.452  0.3717  0.6454  0.0348
  664MOL0     C87525  10.083   8.577   9.382 -0.5806  0.3516  0.2129
  664MOL0     C87526   9.969   8.545   9.476 -1.6579 -0.6248 -0.3116
  664MOL0     C87527   9.833   8.573   9.415 -0.4558  0.0169  0.0943
  664MOL0     C87528   9.728   8.587   9.527  1.1286  0.2927 -0.2396
  664MOL0     C87529   9.657   8.458   9.541 -0.1716  0.4883 -0.1330
  664MOL0     C87530   9.536   8.449   9.634 -0.4253 -0.2737  0.4603
  664MOL0     C87531   9.454   8.317   9.613  0.4821  0.5316 -0.1578
  664MOL0     C87532   9.521   8.209   9.694  0.4397  0.0419  0.7009
  664MOL0     N87533   9.457   8.079   9.691  0.1119  0.3469  0.1245
  664MOL0     C87534   9.388   8.022   9.793  0.0798  0.2690 -0.3922
  664MOL0     C87535   9.364   7.896   9.757 -1.5575 -0.5455  0.3848
  664MOL0     C87536   9.286   7.799   9.840  0.7905 -0.4278 -0.1201
  664MOL0     C87537   9.136   7.790   9.814 -0.6240  0.7698  1.1417
  664MOL0     C87538   9.082   7.718   9.691 -0.3828  0.0082  0.3336
  664MOL0     C87539   8.928   7.750   9.673 -0.2271 -0.4082 -1.0785
  664MOL0     O87540   8.861   7.724   9.793 -0.5314  0.0291  0.2242
  664MOL0     C87541   8.727   7.688   9.781 -0.6319 -0.5883 -0.6442
  664MOL0     C87542   8.641   7.737   9.681 -0.3708  0.2902  0.2790
  664MOL0     C87543   8.500   7.718   9.683 -0.5505  0.1983  0.4740
  664MOL0     C87544   8.441   7.645   9.793 -0.3081 -0.5364 -0.4648
  664MOL0     C87545   8.293   7.610   9.788  0.2888 -0.1422 -0.1365
  664MOL0     O87546   8.224   7.633   9.669  0.4025  0.2981 -0.7560
  664MOL0     C87547   8.088   7.652   9.673 -0.2582 -1.3057  0.2776
  664MOL0     C87548   8.032   7.755   9.592  0.6799 -0.1844 -0.0263
  664MOL0     C87549   7.898   7.766   9.573 -1.0770 -0.1180  1.2609
  664MOL0     C87550   7.803   7.694   9.653 -0.0446  0.5671  0.0055
  664MOL0     O87551   7.667   7.713   9.664  0.5003  0.1447 -0.1116
  664MOL0     C87552   7.608   7.797   9.563 -0.0617 -0.2449 -0.5729
  664MOL0     C87553   7.578   7.717   9.440 -0.0074  0.1979 -0.0373
  664MOL0     C87554   7.495   7.797   9.343  0.4240  0.4538  0.0975
  664MOL0     C87555   7.438   7.721   9.222 -0.2562 -0.3846 -0.3133
  664MOL0     C87556   7.333   7.798   9.138 -0.2874  0.5040 -0.6552
  664MOL0     C87557   7.397   7.930   9.068 -0.0090  0.5301 -0.1414
  664MOL0     C87558   7.283   8.010   9.016 -0.2066  0.6305 -0.1538
  664MOL0     C87559   7.313   8.138   8.947 -0.5992  0.8773  0.4039
  664MOL0    Cl87560   7.199   8.279   8.950 -0.0240  0.4714  0.1528
  664MOL0     C87561   7.860   7.591   9.737 -0.1356 -0.6130  0.7565
  664MOL0     C87562   7.994   7.568   9.738 -0.7144 -0.8526  0.2196
  664MOL0     O87563   8.244   7.569   9.896  0.1984  0.3088 -0.0774
  664MOL0     C87564   8.529   7.573   9.883 -0.4072 -0.8838  0.3905
  664MOL0     C87565   8.674   7.607   9.880  0.5193  0.6067  0.1522
  664MOL0     N87566   9.426   7.875   9.636  0.4997 -0.0233 -0.3146
  664MOL0     N87567   9.484   7.976   9.601 -0.0278 -0.4684 -1.1037
  664MOL0     C87568  10.440   8.515   9.401 -0.1682 -0.5475  0.1001
  664MOL0     C87569  10.554   8.522   9.316  1.0977  0.2849 -0.4172
  664MOL0     C87570  10.831   8.729   8.998  0.7831  0.0492  0.2708
  664MOL0     C87571  10.916   8.750   9.105  0.5259 -0.2039  0.9521
  664MOL0     C87572  11.048   8.805   9.096  0.4890 -0.4801  1.0466
  664MOL0     C87573  11.102   8.817   8.968  0.4737  0.1937  0.0365
  664MOL0     O87574  11.236   8.842   8.943 -0.0183  0.0044 -0.0895
  664MOL0     C87575  11.307   8.905   9.044  0.6547 -0.8690 -0.4894
  664MOL0     C87576  11.455   8.910   8.995  1.0091  0.2180  0.1472
  664MOL0     C87577  11.540   8.999   9.079  0.5779  1.1702  0.1571
  664MOL0     C87578  11.688   8.969   9.083 -0.2555  0.8790  0.4471
  664MOL0     C87579  11.745   8.920   8.955  0.9519  0.2677  0.3390
  664MOL0     C87580  11.773   8.890   8.847  0.0573 -0.0386  0.2400
  664MOL0     C87581  11.019   8.785   8.856 -0.7073  0.5568 -0.1819
  664MOL0     C87582  10.882   8.752   8.877 -0.0022 -0.3794  0.0544
  664MOL0     H87583  10.458   8.782   9.113  1.5939  0.0358 -1.1376
  664MOL0     H87584  10.247   8.744   9.257  1.0866  1.2629 -0.0404
  664MOL0     H87585  10.094   8.511   9.296  3.8100 -0.6773  1.2883
  664MOL0     H87586  10.079   8.682   9.351 -0.5106  0.3478  0.1929
  664MOL0     H87587   9.985   8.614   9.560  1.2068  2.0880 -2.8451
  664MOL0     H87588   9.980   8.442   9.510 -0.3877 -1.0145 -1.8310
  664MOL0     H87589   9.811   8.496   9.340 -1.4670  2.4499 -2.2933
  664MOL0     H87590   9.847   8.673   9.372 -2.7626  1.7280  2.9665
  664MOL0     H87591   9.775   8.618   9.620  0.2138  0.9934  0.0075
  664MOL0     H87592   9.651   8.660   9.500  2.7627  1.9984 -0.5014
  664MOL0     H87593   9.741   8.395   9.574  0.7120  1.5760 -0.2247
  664MOL0     H87594   9.624   8.427   9.442  0.4590 -2.2710  0.4464
  664MOL0     H87595   9.482   8.538   9.599  0.3591 -0.4406 -1.2759
  664MOL0     H87596   9.574   8.467   9.735  0.7258 -0.7482  0.1279
  664MOL0     H87597   9.351   8.336   9.642  1.2963  2.1819  1.9644
  664MOL0     H87598   9.448   8.282   9.510  0.7552  1.2277 -0.4157
  664MOL0     H87599   9.520   8.238   9.799 -2.3211  0.6969  0.5723
  664MOL0     H87600   9.621   8.201   9.650  0.0773  1.0673 -0.3637
  664MOL0     H87601   9.357   8.068   9.886  1.2239 -0.9982  0.6539
  664MOL0     H87602   9.304   7.824   9.945 -1.7329 -2.6821  0.9640
  664MOL0     H87603   9.318   7.695   9.828 -0.0895 -1.0431  2.3347
  664MOL0     H87604   9.102   7.893   9.808 -0.7860  0.6395 -0.8234
  664MOL0     H87605   9.106   7.736   9.904 -1.3595 -0.7868  0.0078
  664MOL0     H87606   9.136   7.741   9.599 -0.2805 -1.2005  0.0816
  664MOL0     H87607   9.084   7.610   9.705 -0.9256  0.1378  1.5379
  664MOL0     H87608   8.890   7.686   9.593 -0.5767 -3.7765  1.5651
  664MOL0     H87609   8.917   7.856   9.649 -0.3270  0.5906  2.7583
  664MOL0     H87610   8.684   7.805   9.609  1.1075  1.3505  2.0836
  664MOL0     H87611   8.437   7.763   9.607 -1.8657 -0.8187  0.9288
  664MOL0     H87612   8.102   7.824   9.545  0.8140 -0.7986 -0.7442
  664MOL0     H87613   7.870   7.836   9.494  4.5912 -0.8275 -1.9658
  664MOL0     H87614   7.672   7.882   9.537  2.1288 -1.6495 -0.0401
  664MOL0     H87615   7.513   7.826   9.608  0.3568  0.8902 -0.3924
  664MOL0     H87616   7.527   7.624   9.467  2.2446 -0.8813  0.7149
  664MOL0     H87617   7.675   7.688   9.398 -0.3656 -2.3660  0.6858
  664MOL0     H87618   7.546   7.883   9.300  1.7157 -0.6944 -0.7690
  664MOL0     H87619   7.420   7.840   9.410 -0.8487 -0.4697 -0.6648
  664MOL0     H87620   7.530   7.697   9.168  1.3574  1.4570  1.4190
  664MOL0     H87621   7.409   7.625   9.267  1.7629 -0.7923  0.2526
  664MOL0     H87622   7.242   7.814   9.197  1.8145 -1.8215  3.7289
  664MOL0     H87623   7.301   7.734   9.055  0.3680 -0.2133 -0.3647
  664MOL0     H87624   7.466   7.890   8.992  1.1996  0.5654  0.9038
  664MOL0     H87625   7.453   7.994   9.137  2.7390 -1.0764 -0.7323
  664MOL0     H87626   7.223   7.952   8.944  0.0847 -0.6616  0.6065
  664MOL0     H87627   7.217   8.035   9.100 -0.1241 -0.2483  0.1788
  664MOL0     H87628   7.337   8.112   8.844  2.3244 -1.0080  1.4199
  664MOL0     H87629   7.410   8.170   8.988 -0.7419  1.1890  0.4990
  664MOL0     H87630   7.781   7.542   9.794 -1.1496 -1.0199 -0.9385
  664MOL0     H87631   8.026   7.494   9.810  0.0506  2.0787  3.1438
  664MOL0     H87632   8.507   7.501   9.961 -0.1396 -1.9561 -0.4854
  664MOL0     H87633   8.733   7.579   9.967 -1.8963 -1.2051  1.3174
  664MOL0     H87634  10.430   8.441   9.479 -2.1060  0.8071  1.2402
  664MOL0     H87635  10.637   8.453   9.333 -1.2276 -2.6361 -0.0133
  664MOL0     H87636  10.890   8.733   9.209 -0.1537 -2.5905  0.4601
  664MOL0     H87637  11.092   8.837   9.190  1.9036  0.9428 -0.0514
  664MOL0     H87638  11.315   8.856   9.141 -0.1450 -0.3958 -0.1651
  664MOL0     H87639  11.272   9.009   9.048 -0.7749 -1.2341 -2.0900
  664MOL0     H87640  11.480   8.803   9.003 -0.1995  0.0544  2.9804
  664MOL0     H87641  11.453   8.950   8.893 -0.5699  0.0622  0.0919
  664MOL0     H87642  11.500   8.993   9.181  0.4003 -0.8292  0.0162
  664MOL0     H87643  11.522   9.099   9.041 -1.8205  0.7791  0.1601
  664MOL0     H87644  11.738   9.063   9.108  1.6869  0.6173 -2.0711
  664MOL0     H87645  11.708   8.897   9.163 -0.7304  0.8151  0.5112
  664MOL0     H87646  11.797   8.874   8.743 -0.9231  1.8004 -0.3234
  664MOL0     H87647  11.054   8.779   8.754 -1.5639 -0.2611 -0.4433
  664MOL0     H87648  10.819   8.738   8.789 -0.0162  4.2458 -0.8962
  665MOL0     O87649   3.676   1.827   8.878  0.5499 -0.1625 -0.0996
  665MOL0     C87650   3.722   1.808   8.766  0.3778  0.0062  0.5339
  665MOL0     O87651   3.650   1.826   8.653 -0.8897 -0.0079  0.1788
  665MOL0     C87652   3.522   1.852   8.650 -0.1090  1.1574 -0.5183
  665MOL0     C87653   3.480   1.948   8.555 -0.2581  0.3085 -0.6081
  665MOL0     C87654   3.351   1.976   8.553 -0.3850 -0.0631  0.4838
  665MOL0     C87655   3.250   1.929   8.639 -1.1416 -0.3131 -0.2961
  665MOL0     O87656   3.123   1.991   8.650 -0.1149 -0.3237  0.2262
  665MOL0     C87657   3.080   2.088   8.549 -0.6684  0.5747 -0.6328
  665MOL0     C87658   2.941   2.127   8.582  0.2504  0.3587  0.0164
  665MOL0     C87659   2.844   2.005   8.556  1.0013 -0.1827 -0.1317
  665MOL0     C87660   2.701   2.048   8.591  0.1502  0.0217 -0.1622
  665MOL0     C87661   2.601   1.983   8.495  0.2640 -0.4404 -0.5803
  665MOL0     C87662   2.601   2.043   8.356  0.2230  0.1415 -0.2374
  665MOL0     C87663   2.524   1.961   8.253 -0.3170  0.7890 -0.2582
  665MOL0     C87664   2.578   1.828   8.216 -0.1859  0.6435  0.4712
  665MOL0     N87665   2.712   1.850   8.156  0.6998  0.4368  0.2068
  665MOL0     C87666   2.829   1.836   8.232 -1.1681 -0.6144  1.0196
  665MOL0     C87667   2.925   1.878   8.147  0.0576  0.4218  0.1334
  665MOL0     C87668   3.068   1.884   8.177 -0.4009 -0.0236  1.0037
  665MOL0     C87669   3.133   2.006   8.108  0.1630  0.5099 -0.2676
  665MOL0     C87670   3.264   2.048   8.170  0.2432 -0.6988 -0.1488
  665MOL0     C87671   3.326   2.154   8.081 -0.6144 -0.0244 -0.3824
  665MOL0     O87672   3.454   2.198   8.129 -0.0617 -0.2688 -0.3681
  665MOL0     C87673   3.567   2.133   8.082 -0.0091  0.5230 -0.2535
  665MOL0     C87674   3.560   2.021   7.989 -0.4243 -0.2381 -0.2960
  665MOL0     C87675   3.672   1.958   7.949 -0.9530 -0.3354  0.9293
  665MOL0     C87676   3.806   2.002   7.990 -0.1644  0.4561  0.2679
  665MOL0     C87677   3.930   1.925   7.952 -0.3953 -0.8819  0.9540
  665MOL0     O87678   4.050   1.987   7.980 -0.1182  0.7256 -0.4389
  665MOL0     C87679   4.162   1.915   7.955 -0.0453  0.7823  1.0236
  665MOL0     C87680   4.274   1.993   7.933 -0.2482 -0.1819 -0.9043
  665MOL0     C87681   4.385   1.931   7.886 -0.8287  0.4646 -0.0096
  665MOL0     C87682   4.397   1.794   7.880  0.8285  0.0472 -0.2980
  665MOL0     O87683   4.505   1.740   7.816 -0.4221  1.2793 -0.3210
  665MOL0     C87684   4.598   1.821   7.753  0.2046 -0.2879  0.0305
  665MOL0     C87685   4.715   1.728   7.738 -0.9500  0.1367  0.5124
  665MOL0     C87686   4.845   1.816   7.755  0.8233 -0.2463 -0.0794
  665MOL0     C87687   4.965   1.724   7.768 -0.2103  0.3800  0.4400
  665MOL0     C87688   5.034   1.697   7.638  0.5617  0.3411 -0.5688
  665MOL0     C87689   5.128   1.578   7.645 -0.3927 -0.5184 -0.3660
  665MOL0     C87690   5.230   1.582   7.756 -0.3177  0.3396  0.5330
  665MOL0     C87691   5.355   1.661   7.713 -1.1375 -0.0946 -0.9071
  665MOL0    Cl87692   5.444   1.576   7.579 -0.0321 -0.1322  0.7449
  665MOL0     C87693   4.294   1.715   7.927  0.0422 -0.0823  0.7655
  665MOL0     C87694   4.177   1.774   7.971 -0.4460  0.1197  0.4968
  665MOL0     O87695   3.909   1.818   7.892 -0.8109  0.9364 -0.0350
  665MOL0     C87696   3.813   2.116   8.076  0.7800 -0.2999 -0.4540
  665MOL0     C87697   3.693   2.182   8.118  0.5546  0.7868  0.5933
  665MOL0     N87698   2.868   1.897   8.022  0.3285  0.7560  0.1381
  665MOL0     N87699   2.739   1.871   8.024 -0.7571  0.4571  0.2088
  665MOL0     C87700   3.294   1.832   8.734 -0.6661 -0.2914  0.6465
  665MOL0     C87701   3.428   1.793   8.743  0.0865 -0.0935  0.6612
  665MOL0     C87702   3.869   1.767   8.753 -0.4825  0.2451  0.8217
  665MOL0     C87703   3.938   1.767   8.626 -1.1273 -0.4089  0.1017
  665MOL0     C87704   4.076   1.740   8.620  0.0981 -0.0281 -1.8676
  665MOL0     C87705   4.146   1.694   8.735 -0.4419  0.7275 -0.0021
  665MOL0     O87706   4.283   1.652   8.718  0.3016 -0.8730 -0.1460
  665MOL0     C87707   4.353   1.626   8.834  0.3453  0.3569 -0.6168
  665MOL0     C87708   4.495   1.587   8.788  0.5650  0.0666  0.1701
  665MOL0     C87709   4.598   1.576   8.899 -0.0543 -0.1347  0.3194
  665MOL0     C87710   4.725   1.508   8.852 -0.7622  0.6608  0.2381
  665MOL0     C87711   4.790   1.579   8.744 -0.3402 -0.2125  0.0491
  665MOL0     C87712   4.845   1.634   8.643  1.0141  0.3742 -0.1770
  665MOL0     C87713   4.075   1.696   8.856 -0.0093 -0.7930 -0.2665
  665MOL0     C87714   3.943   1.734   8.863  1.1962  0.0165  0.4688
  665MOL0     H87715   3.553   1.997   8.491 -1.3530  1.0869 -1.2927
  665MOL0     H87716   3.328   2.043   8.470  0.7846 -0.3743 -0.1221
  665MOL0     H87717   3.090   2.038   8.452  1.4388  0.0410 -0.1726
  665MOL0     H87718   3.144   2.176   8.561 -2.3626  1.7956 -0.0284
  665MOL0     H87719   2.910   2.198   8.505  1.3521  1.9283  0.9511
  665MOL0     H87720   2.925   2.178   8.678 -1.6887 -0.6119  0.2569
  665MOL0     H87721   2.868   1.919   8.620  0.9045  0.9319  1.4540
  665MOL0     H87722   2.854   1.974   8.452 -2.5542 -0.4430 -0.5168
  665MOL0     H87723   2.672   2.026   8.694  2.7864 -0.4046  0.5409
  665MOL0     H87724   2.678   2.154   8.579  0.1653  0.0141 -0.2596
  665MOL0     H87725   2.499   2.000   8.530  0.5758  1.2162 -0.4046
  665MOL0     H87726   2.619   1.875   8.492 -1.7910 -0.9104  1.3399
  665MOL0     H87727   2.704   2.045   8.319 -0.4705 -0.6945 -2.4067
  665MOL0     H87728   2.570   2.146   8.373  2.1576  0.5264  1.3076
  665MOL0     H87729   2.422   1.947   8.292  0.3111 -0.8428  0.9173
  665MOL0     H87730   2.510   2.021   8.163 -2.2820  1.4304  0.4282
  665MOL0     H87731   2.509   1.775   8.150 -1.0162 -2.1409  3.3149
  665MOL0     H87732   2.582   1.763   8.303  2.4881  0.1114  0.0226
  665MOL0     H87733   2.835   1.821   8.339  0.3016 -1.9252  0.8092
  665MOL0     H87734   3.115   1.791   8.143 -1.9114 -0.7279  0.7444
  665MOL0     H87735   3.078   1.886   8.286  2.0640  0.3923  0.8172
  665MOL0     H87736   3.061   2.087   8.116 -2.0664 -1.0925 -2.6090
  665MOL0     H87737   3.141   1.968   8.006  0.8717 -4.6849  1.4351
  665MOL0     H87738   3.250   2.087   8.271 -0.4970 -0.6796 -0.2523
  665MOL0     H87739   3.328   1.959   8.173 -0.2228 -1.2085 -2.7817
  665MOL0     H87740   3.266   2.245   8.081  3.4303  2.9802  0.8752
  665MOL0     H87741   3.323   2.123   7.977  0.3190  1.4749 -0.8959
  665MOL0     H87742   3.469   1.976   7.950 -0.5064  1.8873 -2.7883
  665MOL0     H87743   3.669   1.875   7.878  0.1413  0.3969 -0.0247
  665MOL0     H87744   4.252   2.098   7.949  1.2140  0.8082 -4.5544
  665MOL0     H87745   4.461   2.003   7.858  1.9108 -1.1755  2.5677
  665MOL0     H87746   4.629   1.908   7.812  2.7614 -0.6570 -0.6499
  665MOL0     H87747   4.559   1.852   7.655  1.2086 -0.5218 -0.4462
  665MOL0     H87748   4.720   1.667   7.647  2.6029 -2.6805  2.3139
  665MOL0     H87749   4.717   1.656   7.821 -0.0708  2.3924  2.5568
  665MOL0     H87750   4.819   1.870   7.846 -0.6195 -2.9245  1.2296
  665MOL0     H87751   4.855   1.885   7.670  0.6434 -0.4005 -0.2261
  665MOL0     H87752   5.041   1.781   7.822  1.1953 -1.9951  1.0751
  665MOL0     H87753   4.948   1.623   7.806  1.0558 -0.3493 -0.8216
  665MOL0     H87754   5.077   1.794   7.612  0.1391  1.2577  1.8773
  665MOL0     H87755   4.962   1.672   7.560  0.0432  1.6947 -0.5588
  665MOL0     H87756   5.178   1.563   7.550 -1.4939 -0.4795 -0.9707
  665MOL0     H87757   5.065   1.489   7.650 -0.4874 -0.4338  0.0450
  665MOL0     H87758   5.186   1.627   7.846  2.1370  0.0753  1.9442
  665MOL0     H87759   5.252   1.480   7.787  0.5996 -0.1422 -1.5919
  665MOL0     H87760   5.422   1.669   7.799 -2.8000  1.8962  0.2898
  665MOL0     H87761   5.336   1.766   7.685  0.7956  1.5561  3.1846
  665MOL0     H87762   4.301   1.607   7.916  2.3088  0.2038 -1.7708
  665MOL0     H87763   4.105   1.702   8.009 -0.0566  0.9177  2.8907
  665MOL0     H87764   3.915   2.149   8.094  1.9669 -2.4428 -2.6545
  665MOL0     H87765   3.695   2.264   8.189 -0.7804  1.3161  0.0487
  665MOL0     H87766   3.226   1.808   8.815 -1.3374 -2.4403 -0.4555
  665MOL0     H87767   3.456   1.718   8.816  1.4583 -1.2370 -0.9535
  665MOL0     H87768   3.884   1.785   8.533  0.1391 -0.6222 -0.6945
  665MOL0     H87769   4.131   1.740   8.527  2.8734 -1.8972 -0.3843
  665MOL0     H87770   4.317   1.536   8.885  0.2394  0.9718  0.4031
  665MOL0     H87771   4.359   1.704   8.910 -2.8032 -0.9581  1.1980
  665MOL0     H87772   4.489   1.491   8.738  2.5772 -0.0360  0.0187
  665MOL0     H87773   4.532   1.655   8.711  1.1425  0.1080  0.4733
  665MOL0     H87774   4.555   1.511   8.976  0.0604  0.5796  1.0039
  665MOL0     H87775   4.623   1.665   8.957  1.8956 -0.2457 -0.2660
  665MOL0     H87776   4.782   1.493   8.944  0.3653 -4.1948 -0.9513
  665MOL0     H87777   4.711   1.403   8.826 -0.4814  0.6644  0.0630
  665MOL0     H87778   4.907   1.696   8.581  1.7901  0.7601  0.9400
  665MOL0     H87779   4.123   1.664   8.948 -3.7385 -1.2222  1.6901
  665MOL0     H87780   3.883   1.734   8.953  0.8963  0.9562  0.2728
  666MOL0     O87781  10.942   7.332   1.136 -0.0517  0.9444 -0.3677
  666MOL0     C87782  10.966   7.438   1.083  0.6282 -0.1928 -0.3640
  666MOL0     O87783  10.879   7.543   1.064  0.4531 -0.2459  0.5976
  666MOL0     C87784  10.768   7.538   1.143 -0.1184  0.3646  0.4849
  666MOL0     C87785  10.776   7.613   1.255  0.8427 -0.6211 -1.0029
  666MOL0     C87786  10.659   7.646   1.327 -0.5476 -0.5781  0.3158
  666MOL0     C87787  10.536   7.583   1.287  0.3957  0.8163 -0.1993
  666MOL0     O87788  10.427   7.625   1.350 -0.2558 -0.0898 -0.9558
  666MOL0     C87789  10.297   7.602   1.284 -0.3434 -0.6066 -0.5119
  666MOL0     C87790  10.179   7.671   1.369 -0.1020 -0.1667 -0.2371
  666MOL0     C87791  10.046   7.614   1.330 -1.2104  0.3624  0.4134
  666MOL0     C87792   9.918   7.681   1.402 -0.3942  0.0319  0.0164
  666MOL0     C87793   9.776   7.634   1.366 -0.0272 -0.6384  0.5647
  666MOL0     C87794   9.762   7.481   1.390 -0.3907 -0.5116 -0.3032
  666MOL0     C87795   9.613   7.428   1.363 -0.5132 -0.2766 -0.5977
  666MOL0     C87796   9.568   7.454   1.214 -0.2230  0.8108 -0.6438
  666MOL0     N87797   9.422   7.431   1.190 -1.0384  0.1922  0.6350
  666MOL0     C87798   9.350   7.318   1.232  1.0548 -0.0688  0.3618
  666MOL0     C87799   9.227   7.339   1.193 -0.4516  0.3052  0.3370
  666MOL0     C87800   9.111   7.243   1.210  0.4041 -0.2220 -0.2190
  666MOL0     C87801   8.980   7.296   1.268  0.4712  0.3585 -0.0826
  666MOL0     C87802   8.882   7.172   1.258  0.1101  0.2363  0.9059
  666MOL0     C87803   8.741   7.207   1.285  0.3464 -0.3676  0.1647
  666MOL0     O87804   8.659   7.085   1.291 -0.1998  0.3166 -0.9662
  666MOL0     C87805   8.525   7.088   1.318 -0.0684  1.0569  0.0402
  666MOL0     C87806   8.429   7.185   1.293 -1.2924 -0.5880  0.6394
  666MOL0     C87807   8.303   7.183   1.349  0.3028 -1.0666 -0.1920
  666MOL0     C87808   8.259   7.074   1.422 -0.3204  0.4776  0.2687
  666MOL0     C87809   8.120   7.051   1.465 -0.5028  0.5779 -0.0937
  666MOL0     O87810   8.079   6.920   1.480 -0.1256 -0.6185 -0.6299
  666MOL0     C87811   7.943   6.897   1.508 -0.3432  1.0519 -0.4754
  666MOL0     C87812   7.900   6.869   1.635  0.8399 -0.1231  1.0426
  666MOL0     C87813   7.763   6.847   1.653 -0.5014 -0.6791  0.5087
  666MOL0     C87814   7.666   6.859   1.550 -0.2489 -0.0270  0.0675
  666MOL0     O87815   7.534   6.832   1.589 -0.4810  0.3262  0.1792
  666MOL0     C87816   7.441   6.849   1.483 -1.0552 -0.4496 -0.2391
  666MOL0     C87817   7.295   6.851   1.524  0.2495  0.3655 -0.7502
  666MOL0     C87818   7.259   6.973   1.618  0.4740  0.0678 -1.0836
  666MOL0     C87819   7.114   6.957   1.642  1.3494 -0.3885  0.6276
  666MOL0     C87820   7.056   7.074   1.723 -0.5114  0.6812 -0.3214
  666MOL0     C87821   6.918   7.031   1.785 -0.1297 -0.3869 -0.8398
  666MOL0     C87822   6.855   7.140   1.862  0.3678 -0.0569 -0.4394
  666MOL0     C87823   6.727   7.096   1.922  0.2949 -0.4072 -0.6159
  666MOL0    Cl87824   6.600   7.038   1.805  0.2344  0.2498 -0.0287
  666MOL0     C87825   7.714   6.881   1.420  0.2574  0.0729  0.7278
  666MOL0     C87826   7.853   6.900   1.398 -0.5509 -0.3680  0.2688
  666MOL0     O87827   8.053   7.143   1.482 -0.0497 -1.3203 -0.1748
  666MOL0     C87828   8.348   6.965   1.430 -0.1470  0.1806  0.2272
  666MOL0     C87829   8.478   6.975   1.381 -0.5762  0.4335 -0.3748
  666MOL0     N87830   9.225   7.469   1.133  0.5928  0.4421 -0.0339
  666MOL0     N87831   9.338   7.520   1.135  0.5275  0.1313  0.5040
  666MOL0     C87832  10.536   7.491   1.178 -0.1761 -0.2015  0.1315
  666MOL0     C87833  10.651   7.477   1.102 -0.2871  0.4767  1.0140
  666MOL0     C87834  11.097   7.461   1.033 -1.0396 -0.4634  0.3370
  666MOL0     C87835  11.145   7.598   1.013 -0.2797  0.4672  0.2863
  666MOL0     C87836  11.277   7.623   0.958 -0.3976 -0.5215  0.3356
  666MOL0     C87837  11.357   7.518   0.908 -0.6813  0.4676 -0.3540
  666MOL0     O87838  11.481   7.545   0.856  0.5473  0.4040  0.0397
  666MOL0     C87839  11.543   7.677   0.827  0.6144 -0.1842 -0.5686
  666MOL0     C87840  11.607   7.739   0.950 -0.3144  1.1252 -0.4926
  666MOL0     C87841  11.722   7.844   0.931 -0.1346 -0.3444 -0.5371
  666MOL0     C87842  11.785   7.883   1.069 -0.3151 -0.8656  0.8254
  666MOL0     C87843  11.848   8.013   1.059 -0.3733  0.1334  0.3565
  666MOL0     C87844  11.894   8.127   1.038 -0.1061  0.2671  0.5110
  666MOL0     C87845  11.318   7.389   0.920 -0.0178  0.0174 -0.6282
  666MOL0     C87846  11.187   7.361   0.984  0.1402 -0.4788  0.5371
  666MOL0     H87847  10.874   7.645   1.289  0.0534  0.1171  0.7067
  666MOL0     H87848  10.672   7.706   1.417  0.4415 -1.7044  0.9595
  666MOL0     H87849  10.274   7.498   1.258  1.1721 -0.6609 -1.8032
  666MOL0     H87850  10.292   7.649   1.185 -0.8353 -2.7254 -1.5594
  666MOL0     H87851  10.165   7.778   1.357  0.4218 -0.3568 -3.0166
  666MOL0     H87852  10.211   7.654   1.472 -1.0758  2.5367  0.6004
  666MOL0     H87853  10.054   7.510   1.361 -0.4670 -0.1559 -1.3711
  666MOL0     H87854  10.023   7.623   1.223 -1.1523 -2.5155  0.0792
  666MOL0     H87855   9.927   7.673   1.511  2.2964 -4.2851 -0.2780
  666MOL0     H87856   9.910   7.789   1.386  0.0700  0.3835  1.8945
  666MOL0     H87857   9.753   7.652   1.260  0.4598 -0.3418  0.5072
  666MOL0     H87858   9.702   7.686   1.428  0.4294 -1.8430  2.1791
  666MOL0     H87859   9.794   7.461   1.493  0.0320 -0.5447 -0.4391
  666MOL0     H87860   9.832   7.436   1.320  1.6685 -1.3656  2.1315
  666MOL0     H87861   9.615   7.321   1.382  0.4977  0.0148  1.1001
  666MOL0     H87862   9.546   7.489   1.424 -1.2126 -2.4452  0.9167
  666MOL0     H87863   9.638   7.399   1.149  0.2260  0.5766  0.0200
  666MOL0     H87864   9.585   7.558   1.188  2.4764  1.0283  1.4587
  666MOL0     H87865   9.389   7.232   1.285 -0.2837 -1.2460 -0.4915
  666MOL0     H87866   9.131   7.149   1.263  0.3290 -0.9503 -1.4557
  666MOL0     H87867   9.083   7.215   1.108 -3.1895  1.7481  0.0633
  666MOL0     H87868   8.944   7.386   1.219  0.8950  0.1206 -0.8498
  666MOL0     H87869   8.991   7.320   1.374 -1.8110  2.0353 -0.1531
  666MOL0     H87870   8.893   7.125   1.160 -0.0804  1.8247  0.0963
  666MOL0     H87871   8.919   7.106   1.337  0.5511  0.1530  0.6347
  666MOL0     H87872   8.707   7.279   1.211 -1.3669 -0.8075  0.4897
  666MOL0     H87873   8.719   7.255   1.381 -3.5889 -0.8320 -0.3395
  666MOL0     H87874   8.454   7.280   1.248  0.8745 -0.7653  1.3833
  666MOL0     H87875   8.227   7.256   1.323 -0.1630 -1.2406  0.6327
  666MOL0     H87876   7.966   6.871   1.722  0.1533 -1.7204  1.6539
  666MOL0     H87877   7.724   6.832   1.753  1.2430 -0.7701  1.2118
  666MOL0     H87878   7.455   6.762   1.418  0.6162  0.0796 -0.6359
  666MOL0     H87879   7.458   6.936   1.418 -2.7159 -0.2901 -0.4909
  666MOL0     H87880   7.270   6.757   1.573  0.6601  1.1697  1.0662
  666MOL0     H87881   7.232   6.856   1.435 -1.8631 -1.4391  0.5453
  666MOL0     H87882   7.286   7.068   1.571 -0.0026  0.2546 -0.9852
  666MOL0     H87883   7.314   6.968   1.712 -0.9270 -1.2783 -0.2919
  666MOL0     H87884   7.061   6.950   1.546  3.4330  1.6835 -0.8057
  666MOL0     H87885   7.099   6.862   1.693  0.7692 -1.5646 -1.5909
  666MOL0     H87886   7.042   7.169   1.669 -0.9498  1.3058  0.8612
  666MOL0     H87887   7.121   7.088   1.809 -1.0097 -1.7889  0.5183
  666MOL0     H87888   6.941   6.946   1.850  0.2517  2.6385  3.4436
  666MOL0     H87889   6.847   6.989   1.713 -0.1343 -0.0972 -1.0097
  666MOL0     H87890   6.911   7.168   1.951 -3.8504  1.0761  2.1912
  666MOL0     H87891   6.834   7.224   1.795 -3.3220  0.0084  0.5434
  666MOL0     H87892   6.672   7.182   1.960 -2.1453 -0.5428 -3.4058
  666MOL0     H87893   6.746   7.010   1.987 -0.6382 -0.6054 -0.5903
  666MOL0     H87894   7.647   6.874   1.335  0.7988  1.3780  0.1584
  666MOL0     H87895   7.892   6.923   1.300  0.5450 -0.2048  0.7339
  666MOL0     H87896   8.316   6.869   1.467 -2.6481  0.3165 -1.2839
  666MOL0     H87897   8.554   6.897   1.384 -1.3804 -0.3496  0.3624
  666MOL0     H87898  10.442   7.438   1.162 -1.1130  0.9458  1.4982
  666MOL0     H87899  10.652   7.416   1.012  0.5100  1.4732  0.3390
  666MOL0     H87900  11.092   7.688   1.046  0.3517  0.9831 -0.0763
  666MOL0     H87901  11.320   7.722   0.944  2.5369 -1.6287  0.7683
  666MOL0     H87902  11.486   7.743   0.761  0.1605 -0.2107 -0.2049
  666MOL0     H87903  11.628   7.660   0.760 -0.3492 -3.2011 -1.1667
  666MOL0     H87904  11.537   7.785   1.021 -0.4709  2.6262 -1.5549
  666MOL0     H87905  11.672   7.658   0.984 -0.4455  0.7937 -1.0187
  666MOL0     H87906  11.666   7.935   0.911  2.7231  1.7381  0.2404
  666MOL0     H87907  11.801   7.814   0.861  1.3131  0.4963  0.6601
  666MOL0     H87908  11.714   7.872   1.152  1.0107 -1.8310  1.8599
  666MOL0     H87909  11.859   7.808   1.097 -2.3166 -3.3040  0.0010
  666MOL0     H87910  11.928   8.224   1.011  0.0769 -0.0052 -0.2604
  666MOL0     H87911  11.371   7.302   0.884  1.6144  0.0447  1.5487
  666MOL0     H87912  11.138   7.265   0.995 -0.9708 -0.1294 -1.1169
  667MOL0     O87913   1.120   3.927   7.788  0.0971 -0.3978 -0.2044
  667MOL0     C87914   1.214   3.992   7.739  0.1422 -0.5471 -0.7038
  667MOL0     O87915   1.203   4.093   7.646 -0.4191 -0.3800 -0.5456
  667MOL0     C87916   1.079   4.124   7.597 -0.0557  0.0443  0.5604
  667MOL0     C87917   0.951   4.109   7.653 -0.3703 -0.6079 -0.4948
  667MOL0     C87918   0.837   4.170   7.593  0.1618  0.2770  0.0427
  667MOL0     C87919   0.838   4.239   7.468  0.1414  0.1817  0.0955
  667MOL0     O87920   0.721   4.285   7.414  0.3709  0.4557 -0.0444
  667MOL0     C87921   0.735   4.371   7.300  0.0361 -0.4432  0.1646
  667MOL0     C87922   0.608   4.402   7.226  0.0379  0.1723  0.0944
  667MOL0     C87923   0.484   4.418   7.320  0.3040 -0.1796 -0.5990
  667MOL0     C87924   0.356   4.418   7.230 -0.4454  0.0746 -1.0139
  667MOL0     C87925   0.228   4.483   7.284  0.1291  0.2327 -0.2681
  667MOL0     C87926   0.145   4.396   7.373  0.3296  0.4538 -0.0732
  667MOL0     C87927   0.211   4.360   7.508  0.1305 -0.4420  0.6453
  667MOL0     C87928   0.236   4.483   7.600  0.8970  0.3125  0.6001
  667MOL0     N87929   0.123   4.583   7.589 -0.5000  0.4242 -0.2246
  667MOL0     C87930  -0.015   4.556   7.607  0.2492  0.2213 -0.7898
  667MOL0     C87931  -0.083   4.670   7.574  0.2638 -0.2186 -0.3590
  667MOL0     C87932  -0.234   4.689   7.590  1.0251 -0.2547  0.7920
  667MOL0     C87933  -0.292   4.765   7.466 -0.3895  1.1638  0.3239
  667MOL0     C87934  -0.445   4.795   7.481 -0.4072  0.4017 -0.8337
  667MOL0     C87935  -0.551   4.681   7.501 -0.5203  0.6285 -0.0253
  667MOL0     O87936  -0.677   4.748   7.513 -0.1757  0.0757 -0.8027
  667MOL0     C87937  -0.788   4.674   7.550 -0.3099  0.3924  0.0100
  667MOL0     C87938  -0.911   4.737   7.532 -0.6387  0.6187  0.2146
  667MOL0     C87939  -1.028   4.675   7.557  0.7737  0.0003  0.2066
  667MOL0     C87940  -1.035   4.540   7.596 -0.1403 -0.2583 -0.5016
  667MOL0     C87941  -1.158   4.468   7.634  0.3957 -0.3492 -0.1392
  667MOL0     O87942  -1.267   4.511   7.577 -0.1473 -0.3163  0.7250
  667MOL0     C87943  -1.359   4.415   7.551 -0.1264  0.3564  0.3697
  667MOL0     C87944  -1.492   4.443   7.564 -0.8422  0.6496  0.6128
  667MOL0     C87945  -1.592   4.342   7.529  0.6321  0.2825  0.0169
  667MOL0     C87946  -1.560   4.219   7.474  0.2416  0.3739  0.1089
  667MOL0     O87947  -1.653   4.122   7.435  0.4576 -0.1896  0.0649
  667MOL0     C87948  -1.787   4.168   7.428  0.3955  0.1022  0.3535
  667MOL0     C87949  -1.865   4.052   7.366  1.1836 -0.1898  0.6458
  667MOL0     C87950  -2.001   4.113   7.322  1.0022  0.1765  0.1383
  667MOL0     C87951  -2.105   4.008   7.273 -0.0361  0.4106  0.0443
  667MOL0     C87952  -2.255   4.064   7.282 -0.2087  0.0459 -0.0088
  667MOL0     C87953  -2.356   3.951   7.249  0.4732 -0.1960 -0.3152
  667MOL0     C87954  -2.491   3.974   7.323  0.1762 -0.2271 -0.1984
  667MOL0     C87955  -2.558   4.112   7.288  0.6970  0.2051 -0.8773
  667MOL0    Cl87956  -2.492   4.255   7.373  0.3201  0.2908  0.1623
  667MOL0     C87957  -1.429   4.193   7.460  0.2608  0.1179 -0.6864
  667MOL0     C87958  -1.332   4.290   7.500  0.4705  0.1738  0.1408
  667MOL0     O87959  -1.153   4.391   7.731 -0.9175 -0.0384 -0.1839
  667MOL0     C87960  -0.908   4.468   7.621  1.0000 -0.7656  0.3800
  667MOL0     C87961  -0.786   4.538   7.595  0.9841  0.1829  0.2277
  667MOL0     N87962   0.006   4.770   7.555  1.4323  0.1483 -0.2686
  667MOL0     N87963   0.130   4.711   7.561  0.3833  0.8568 -0.3063
  667MOL0     C87964   0.968   4.269   7.420  0.3442 -0.1741 -0.0894
  667MOL0     C87965   1.085   4.208   7.480  0.0305  0.3085  0.2811
  667MOL0     C87966   1.348   3.963   7.798 -0.3254 -0.7518  0.3779
  667MOL0     C87967   1.449   4.058   7.783  0.4034 -0.1191 -0.3214
  667MOL0     C87968   1.579   4.029   7.838 -0.8023 -0.4648 -1.2466
  667MOL0     C87969   1.591   3.928   7.939  0.0054 -0.5513  0.5588
  667MOL0     O87970   1.696   3.902   8.022 -0.3431  0.1079  0.7698
  667MOL0     C87971   1.827   3.936   7.975  0.3479  0.2570 -0.2087
  667MOL0     C87972   1.925   3.874   8.073  0.0035 -0.8251  0.7063
  667MOL0     C87973   2.069   3.907   8.034  0.7575 -0.7211  0.1891
  667MOL0     C87974   2.122   3.862   7.890  0.6355  1.1234  0.7369
  667MOL0     C87975   2.267   3.879   7.881 -0.7324  0.3959 -0.1125
  667MOL0     C87976   2.386   3.898   7.877  0.3217 -0.7289  1.0427
  667MOL0     C87977   1.482   3.853   7.965 -0.2316  0.0187  0.0976
  667MOL0     C87978   1.365   3.862   7.885  0.5075 -1.2598 -0.5734
  667MOL0     H87979   0.941   4.074   7.755 -3.2245 -0.8496 -0.7731
  667MOL0     H87980   0.748   4.153   7.652  1.2729  2.5990  2.5998
  667MOL0     H87981   0.802   4.329   7.224  1.3748 -1.0241  1.5986
  667MOL0     H87982   0.780   4.463   7.337 -1.0064  1.1015 -2.1355
  667MOL0     H87983   0.586   4.314   7.165  0.0152  0.0425  0.2883
  667MOL0     H87984   0.616   4.485   7.155 -0.0289 -0.0885 -0.2206
  667MOL0     H87985   0.500   4.510   7.376  0.7887  0.1955 -1.3366
  667MOL0     H87986   0.482   4.330   7.386  0.5645 -1.0524 -1.7234
  667MOL0     H87987   0.384   4.465   7.136  1.7687  1.3280  0.2011
  667MOL0     H87988   0.332   4.311   7.224 -0.7715 -0.3404  3.6426
  667MOL0     H87989   0.167   4.513   7.198  0.0659 -0.9792 -0.6724
  667MOL0     H87990   0.259   4.575   7.335  0.9415  0.2240 -0.7277
  667MOL0     H87991   0.124   4.301   7.322 -0.5011  1.6789 -2.1337
  667MOL0     H87992   0.044   4.435   7.380  0.2625 -0.0108  2.1239
  667MOL0     H87993   0.137   4.302   7.565 -0.0546 -0.3512  0.4999
  667MOL0     H87994   0.297   4.295   7.490 -0.0619  0.2262 -3.5323
  667MOL0     H87995   0.330   4.527   7.569  0.5603 -1.1876 -2.9955
  667MOL0     H87996   0.247   4.451   7.704 -0.7282 -3.2959 -0.1413
  667MOL0     H87997  -0.057   4.459   7.631 -2.0323  0.8629 -1.9839
  667MOL0     H87998  -0.256   4.734   7.687 -0.2247  1.6247 -0.2910
  667MOL0     H87999  -0.269   4.586   7.599 -0.4250 -0.0474 -1.5869
  667MOL0     H88000  -0.279   4.711   7.372  0.0838 -2.2834  2.1873
  667MOL0     H88001  -0.249   4.865   7.456  1.9172  0.0156 -2.4335
  667MOL0     H88002  -0.441   4.851   7.575 -0.2056 -1.0309  0.0410
  667MOL0     H88003  -0.473   4.857   7.396 -2.8855 -0.8190 -0.9756
  667MOL0     H88004  -0.534   4.628   7.596  0.1264  2.0525  0.6887
  667MOL0     H88005  -0.554   4.600   7.427 -0.1029  0.1700  0.4506
  667MOL0     H88006  -0.916   4.830   7.478 -0.7791 -0.0011 -0.8592
  667MOL0     H88007  -1.119   4.735   7.553  0.5542 -0.3819 -0.8439
  667MOL0     H88008  -1.519   4.543   7.595  3.2654  2.3976 -0.7137
  667MOL0     H88009  -1.698   4.365   7.539  0.7008  0.6130 -0.0098
  667MOL0     H88010  -1.795   4.265   7.378  1.0486  0.8155  1.5976
  667MOL0     H88011  -1.828   4.180   7.529  0.8597 -3.3897  1.1042
  667MOL0     H88012  -1.861   3.967   7.435 -1.3222 -1.1027 -0.2340
  667MOL0     H88013  -1.804   4.029   7.278  2.3179 -0.1078  1.3967
  667MOL0     H88014  -1.992   4.187   7.242 -0.6663  1.4016  1.0270
  667MOL0     H88015  -2.038   4.167   7.409  1.4529  2.1260 -0.8162
  667MOL0     H88016  -2.103   3.986   7.166  3.8940 -0.4126  0.1204
  667MOL0     H88017  -2.082   3.914   7.324 -1.7384 -0.8903 -1.4354
  667MOL0     H88018  -2.266   4.157   7.226  2.4975  2.4035  2.9634
  667MOL0     H88019  -2.288   4.096   7.382  0.9154  4.4457 -0.8555
  667MOL0     H88020  -2.305   3.863   7.287  1.0582  0.1690 -0.2434
  667MOL0     H88021  -2.356   3.948   7.140 -2.8948  1.7390 -0.5239
  667MOL0     H88022  -2.557   3.890   7.297 -2.6424  1.5048  0.8631
  667MOL0     H88023  -2.482   3.976   7.432  3.7015 -0.3965 -0.3975
  667MOL0     H88024  -2.662   4.108   7.320 -0.0737  1.4937 -3.0201
  667MOL0     H88025  -2.566   4.139   7.182  3.6773  2.3274 -0.6767
  667MOL0     H88026  -1.413   4.103   7.402 -1.1852  0.7709 -2.1914
  667MOL0     H88027  -1.232   4.256   7.474 -0.7480 -1.1243 -3.4767
  667MOL0     H88028  -0.902   4.369   7.666 -0.8600 -1.1681 -0.1790
  667MOL0     H88029  -0.695   4.480   7.598  1.9743  1.6071 -0.8137
  667MOL0     H88030   0.985   4.337   7.337  0.3659 -2.8341 -2.3987
  667MOL0     H88031   1.186   4.242   7.455  0.0541 -0.4335 -0.6968
  667MOL0     H88032   1.424   4.143   7.720 -4.7712 -1.4648 -0.5694
  667MOL0     H88033   1.664   4.089   7.807 -0.2699 -0.4045  0.2747
  667MOL0     H88034   1.836   4.044   7.983  0.3139  0.4027 -1.9151
  667MOL0     H88035   1.841   3.902   7.872 -2.0043 -0.5712 -0.3157
  667MOL0     H88036   1.898   3.909   8.173  3.5705  2.3028  0.7840
  667MOL0     H88037   1.918   3.765   8.070  0.6316 -1.0840  4.3969
  667MOL0     H88038   2.137   3.864   8.109 -0.1755  0.2758  1.6690
  667MOL0     H88039   2.087   4.015   8.038  2.2076 -0.8822 -1.0557
  667MOL0     H88040   2.093   3.757   7.877  0.7556  1.3457 -1.7510
  667MOL0     H88041   2.069   3.916   7.812  0.1490  1.2391  1.1369
  667MOL0     H88042   2.487   3.934   7.866 -0.5265  2.1045  1.7262
  667MOL0     H88043   1.485   3.777   8.043 -1.9050 -0.2481 -0.0564
  667MOL0     H88044   1.291   3.790   7.917 -0.7678 -0.2229 -1.0906
  668MOL0     O88045   1.145   1.760   8.280  0.6019  0.1326  0.0405
  668MOL0     C88046   1.192   1.849   8.214 -0.2572  0.2539  0.5008
  668MOL0     O88047   1.115   1.942   8.158 -0.4942 -0.4436  0.0098
  668MOL0     C88048   0.977   1.934   8.157 -0.3504  0.3669 -0.6699
  668MOL0     C88049   0.911   2.037   8.220 -0.0882  0.6563  0.6045
  668MOL0     C88050   0.774   2.033   8.214  0.5095  0.2989 -0.1962
  668MOL0     C88051   0.699   1.937   8.152 -0.5511  0.4628  1.0100
  668MOL0     O88052   0.566   1.946   8.167  0.8710 -0.7555  0.1307
  668MOL0     C88053   0.481   1.929   8.060  0.8564  0.2115  0.6626
  668MOL0     C88054   0.350   1.866   8.105  0.2505 -0.5536  0.6191
  668MOL0     C88055   0.244   1.979   8.139 -0.7465  0.0754 -0.5705
  668MOL0     C88056   0.136   1.931   8.231 -0.9132 -0.3833  0.5752
  668MOL0     C88057   0.036   2.049   8.262 -0.7521  0.3251  0.2277
  668MOL0     C88058  -0.083   2.021   8.353  0.9605 -0.1179 -0.3151
  668MOL0     C88059  -0.179   2.141   8.376 -0.1665  0.3715 -0.2163
  668MOL0     C88060  -0.248   2.194   8.251 -0.3510  0.2786  0.0076
  668MOL0     N88061  -0.357   2.290   8.266 -0.1269  0.7039  0.0442
  668MOL0     C88062  -0.353   2.426   8.292 -0.2188 -0.5230  1.1685
  668MOL0     C88063  -0.485   2.460   8.275  0.1936  0.4307  0.4557
  668MOL0     C88064  -0.540   2.608   8.287 -0.5321  1.0540 -0.2435
  668MOL0     C88065  -0.697   2.603   8.278  0.2738  0.2949 -0.5917
  668MOL0     C88066  -0.737   2.748   8.309 -0.4884 -0.5663  0.4675
  668MOL0     C88067  -0.883   2.746   8.350  0.8504 -0.5983 -0.5877
  668MOL0     O88068  -0.911   2.689   8.475  0.3408  0.7847 -0.1334
  668MOL0     C88069  -1.034   2.727   8.530  0.0169  1.5311 -0.5248
  668MOL0     C88070  -1.052   2.705   8.667 -0.5669 -0.5853  0.5357
  668MOL0     C88071  -1.155   2.763   8.731 -0.0900  0.8898  0.5708
  668MOL0     C88072  -1.253   2.840   8.662  0.1028  0.4421 -1.5521
  668MOL0     C88073  -1.372   2.896   8.744  0.7824  0.3717 -0.1219
  668MOL0     O88074  -1.486   2.916   8.672  0.3900  0.2480 -0.1038
  668MOL0     C88075  -1.599   2.964   8.731 -0.0352 -1.3209 -0.3798
  668MOL0     C88076  -1.673   2.896   8.828  0.3548  0.1102  0.6772
  668MOL0     C88077  -1.786   2.949   8.885 -0.3477 -0.1179 -0.8861
  668MOL0     C88078  -1.823   3.084   8.852 -0.3901 -0.0777  0.2512
  668MOL0     O88079  -1.933   3.143   8.904 -0.2183  0.2602  0.0213
  668MOL0     C88080  -2.062   3.084   8.886 -0.3270 -0.3990 -0.2468
  668MOL0     C88081  -2.166   3.202   8.912 -0.0933 -0.0038 -0.3222
  668MOL0     C88082  -2.314   3.162   8.919  0.1677  0.1897  0.3483
  668MOL0     C88083  -2.411   3.283   8.940 -0.2526 -0.5177  0.0817
  668MOL0     C88084  -2.559   3.239   8.907  0.9244 -1.0216 -0.2106
  668MOL0     C88085  -2.642   3.353   8.961 -0.0001 -0.2248  0.1149
  668MOL0     C88086  -2.795   3.316   8.946 -0.8000 -0.9521 -0.9210
  668MOL0     C88087  -2.882   3.433   8.963 -0.4134 -1.2378 -0.9858
  668MOL0    Cl88088  -3.049   3.408   8.897 -0.0065 -0.1843 -0.2972
  668MOL0     C88089  -1.732   3.160   8.775  0.8772  0.5412  0.2655
  668MOL0     C88090  -1.636   3.096   8.703  0.3012  0.5871 -0.7055
  668MOL0     O88091  -1.363   2.917   8.865 -0.2554  0.5649 -0.0629
  668MOL0     C88092  -1.251   2.850   8.524 -1.2998  0.1499 -0.4012
  668MOL0     C88093  -1.138   2.793   8.459  0.4234  0.2908  0.5915
  668MOL0     N88094  -0.561   2.351   8.234  0.0447  1.0817  0.0477
  668MOL0     N88095  -0.480   2.251   8.227  0.3093  0.6545  0.5515
  668MOL0     C88096   0.768   1.843   8.069  0.0274 -1.1025 -0.0323
  668MOL0     C88097   0.907   1.836   8.079  0.2287 -0.2197  0.3123
  668MOL0     C88098   1.341   1.855   8.214 -0.3876  0.2899 -0.2350
  668MOL0     C88099   1.429   1.788   8.301 -0.0921  0.5948  0.1628
  668MOL0     C88100   1.559   1.814   8.288 -0.1843  0.1938  0.4599
  668MOL0     C88101   1.617   1.882   8.183 -0.4045  0.0895 -0.2870
  668MOL0     O88102   1.750   1.879   8.180  0.7813 -0.4149  0.0505
  668MOL0     C88103   1.821   1.919   8.059  0.4313  0.2648  0.1897
  668MOL0     C88104   1.961   1.954   8.099 -0.2458 -0.1748 -0.5855
  668MOL0     C88105   2.033   2.039   8.001 -0.3395 -0.5840  0.9994
  668MOL0     C88106   2.179   2.059   8.048 -0.4195  0.8945  0.0324
  668MOL0     C88107   2.279   2.106   7.949 -0.8789 -0.2929  0.5410
  668MOL0     C88108   2.352   2.152   7.861 -0.1995  0.7033 -0.3171
  668MOL0     C88109   1.527   1.934   8.088  1.3540 -0.3820  0.0742
  668MOL0     C88110   1.384   1.920   8.101 -0.4931  0.2626 -0.6930
  668MOL0     H88111   0.967   2.106   8.281 -3.0361  3.5102  0.3793
  668MOL0     H88112   0.725   2.110   8.271  0.8335  0.4902 -0.1754
  668MOL0     H88113   0.531   1.867   7.984  1.9913  1.0653  0.6838
  668MOL0     H88114   0.469   2.020   8.000  0.7881  1.9797  3.1748
  668MOL0     H88115   0.372   1.796   8.186 -1.9420 -0.4889  1.3562
  668MOL0     H88116   0.302   1.801   8.031  0.1324 -1.1633  1.2211
  668MOL0     H88117   0.199   2.021   8.049 -1.0967 -1.8856 -1.3718
  668MOL0     H88118   0.287   2.066   8.190  0.7274 -0.4286 -0.8777
  668MOL0     H88119   0.085   1.842   8.193  0.0597 -0.7641  0.1222
  668MOL0     H88120   0.180   1.895   8.324  0.1466 -2.7438 -0.7489
  668MOL0     H88121   0.010   2.111   8.176  0.0090 -1.3683 -1.2795
  668MOL0     H88122   0.105   2.118   8.312 -0.3012  0.4142 -0.5037
  668MOL0     H88123  -0.043   1.997   8.453  0.4463  2.6990  0.6559
  668MOL0     H88124  -0.142   1.937   8.314  2.0491 -0.4266 -1.3602
  668MOL0     H88125  -0.244   2.128   8.462  0.0298  2.8261  0.3931
  668MOL0     H88126  -0.131   2.231   8.414 -1.8260  0.9150  0.7061
  668MOL0     H88127  -0.288   2.108   8.196 -0.1530  0.9510 -1.2330
  668MOL0     H88128  -0.174   2.239   8.185 -1.0749  0.2233 -0.8639
  668MOL0     H88129  -0.266   2.488   8.309  0.2449 -0.3244 -1.4608
  668MOL0     H88130  -0.498   2.661   8.200 -0.1458 -0.5769 -1.0866
  668MOL0     H88131  -0.511   2.655   8.381 -1.6512  2.2450 -0.4683
  668MOL0     H88132  -0.735   2.539   8.358 -0.6975  1.2217 -0.2823
  668MOL0     H88133  -0.738   2.557   8.188 -0.5581  1.4208 -0.8081
  668MOL0     H88134  -0.667   2.786   8.384  1.6574 -1.7924 -0.8057
  668MOL0     H88135  -0.725   2.803   8.216  2.2273 -0.3760  0.8395
  668MOL0     H88136  -0.938   2.685   8.277  0.6748 -1.9301  0.6133
  668MOL0     H88137  -0.929   2.845   8.349  0.2915 -0.7666  2.0774
  668MOL0     H88138  -0.971   2.663   8.726 -0.4182  1.0841  1.6022
  668MOL0     H88139  -1.166   2.753   8.839  0.7051  0.3334  0.6117
  668MOL0     H88140  -1.651   2.793   8.852 -0.8219  0.0199  1.4738
  668MOL0     H88141  -1.845   2.900   8.961  0.7649  1.7722  1.3248
  668MOL0     H88142  -2.070   2.995   8.949 -0.9519  1.4357  2.4618
  668MOL0     H88143  -2.060   3.060   8.779  0.3905 -0.2735 -0.2664
  668MOL0     H88144  -2.154   3.271   8.828  0.1988  0.3171 -0.0194
  668MOL0     H88145  -2.124   3.263   8.993 -0.9099  3.3431 -2.2223
  668MOL0     H88146  -2.332   3.094   9.003 -1.9988  0.1836 -0.0650
  668MOL0     H88147  -2.333   3.104   8.828  0.5558 -0.0979  0.4445
  668MOL0     H88148  -2.393   3.316   9.042 -3.3248 -2.1011  1.2736
  668MOL0     H88149  -2.396   3.367   8.872 -1.9703 -1.9671 -2.2470
  668MOL0     H88150  -2.590   3.153   8.968  1.2520  0.2070  1.7884
  668MOL0     H88151  -2.595   3.213   8.807  2.5836 -0.3271 -1.0136
  668MOL0     H88152  -2.626   3.445   8.904 -1.8003  0.9792  1.4521
  668MOL0     H88153  -2.620   3.383   9.064  0.2475  1.2523 -0.3400
  668MOL0     H88154  -2.808   3.265   8.850  0.8212 -0.5544 -1.3876
  668MOL0     H88155  -2.820   3.243   9.023  1.2634 -0.4584  0.3040
  668MOL0     H88156  -2.847   3.524   8.913  0.6238 -0.2126  1.4623
  668MOL0     H88157  -2.892   3.459   9.069  1.6694 -0.3960 -0.9478
  668MOL0     H88158  -1.753   3.265   8.759 -0.1909  0.7429  2.5957
  668MOL0     H88159  -1.581   3.147   8.624  2.3843 -0.9400 -0.3210
  668MOL0     H88160  -1.337   2.897   8.476 -4.0179 -2.8976  1.1473
  668MOL0     H88161  -1.140   2.795   8.350  1.8424  1.7335  0.5600
  668MOL0     H88162   0.722   1.770   8.003  0.3075 -0.1045 -1.3550
  668MOL0     H88163   0.962   1.758   8.028  1.2271 -1.7872  3.4924
  668MOL0     H88164   1.402   1.714   8.375 -0.7202  0.9186  0.2625
  668MOL0     H88165   1.611   1.762   8.368  1.6932 -0.3521 -1.0555
  668MOL0     H88166   1.777   2.010   8.018  0.5002 -0.2711 -1.1212
  668MOL0     H88167   1.823   1.842   7.982 -0.9762 -0.0079  0.4051
  668MOL0     H88168   1.960   2.007   8.195 -2.3933 -0.3189 -0.4769
  668MOL0     H88169   2.013   1.859   8.111 -0.9047 -0.2665  2.8549
  668MOL0     H88170   1.985   2.136   7.985  0.9459 -0.2492 -1.2067
  668MOL0     H88171   2.053   1.988   7.906  0.0558 -1.3136  1.4667
  668MOL0     H88172   2.177   2.129   8.132  0.1777  1.8335 -0.7185
  668MOL0     H88173   2.205   1.960   8.087 -1.1907  0.8283  0.3918
  668MOL0     H88174   2.428   2.193   7.797 -0.5466  0.9607 -0.5696
  668MOL0     H88175   1.564   1.989   8.002  0.5460 -0.7369 -0.5158
  668MOL0     H88176   1.312   1.962   8.032  0.3491  2.0126 -0.5536
  669MOL0     O88177   4.495   9.433   3.714  0.6556  0.6951  0.6617
  669MOL0     C88178   4.546   9.372   3.811 -0.1480  0.3103  0.5051
  669MOL0     O88179   4.502   9.255   3.870 -0.0612 -0.3889  0.0631
  669MOL0     C88180   4.394   9.190   3.816  1.0938  0.6349 -0.2438
  669MOL0     C88181   4.392   9.159   3.681 -0.0498 -1.2199 -0.8100
  669MOL0     C88182   4.296   9.073   3.625 -0.2850 -0.3407  0.8015
  669MOL0     C88183   4.197   9.023   3.703 -0.1345  0.0412 -0.3182
  669MOL0     O88184   4.097   8.937   3.666  0.1847  0.1436 -0.3323
  669MOL0     C88185   4.119   8.862   3.546  0.0170 -0.6117 -0.0741
  669MOL0     C88186   3.996   8.762   3.534 -0.5507 -0.4578  0.0630
  669MOL0     C88187   3.860   8.822   3.578 -1.4914 -0.5182  0.2977
  669MOL0     C88188   3.742   8.752   3.506 -0.1710  0.4555  0.3907
  669MOL0     C88189   3.615   8.836   3.541  0.0668 -0.3260 -0.6981
  669MOL0     C88190   3.499   8.798   3.465  0.3157  0.3341 -0.3864
  669MOL0     C88191   3.367   8.831   3.535  0.3094  0.1831  0.2750
  669MOL0     C88192   3.247   8.792   3.457 -0.0019  0.5172 -0.3540
  669MOL0     N88193   3.129   8.851   3.508 -0.1586 -0.4956 -0.2011
  669MOL0     C88194   3.007   8.813   3.464 -0.6461  0.9283  0.9115
  669MOL0     C88195   2.916   8.878   3.528 -0.1631  0.5882 -0.0325
  669MOL0     C88196   2.775   8.845   3.521  0.1688  0.1057  0.3380
  669MOL0     C88197   2.743   8.807   3.665 -0.0472 -0.4162  0.3714
  669MOL0     C88198   2.606   8.738   3.684  0.5476  0.2502  0.5852
  669MOL0     C88199   2.504   8.820   3.613 -0.0046  0.4810  0.2315
  669MOL0     O88200   2.375   8.759   3.640  0.1275  0.7005  0.2507
  669MOL0     C88201   2.318   8.794   3.762 -0.1323 -0.2499 -0.1477
  669MOL0     C88202   2.193   8.730   3.780 -0.4040 -0.3779  0.0896
  669MOL0     C88203   2.098   8.771   3.873 -0.2866 -0.0077 -0.1838
  669MOL0     C88204   2.125   8.880   3.956 -0.0919  0.2816 -0.1349
  669MOL0     C88205   2.026   8.950   4.027 -0.6861 -0.1742  0.6919
  669MOL0     O88206   2.051   9.079   4.065  0.1747  0.8852 -0.0621
  669MOL0     C88207   1.945   9.149   4.113  0.0155  0.2285 -0.6878
  669MOL0     C88208   1.927   9.165   4.255 -0.3163  0.1188  0.9298
  669MOL0     C88209   1.809   9.219   4.301 -0.4151 -0.7314 -0.2705
  669MOL0     C88210   1.720   9.278   4.209  0.1098  0.2666 -0.6301
  669MOL0     O88211   1.601   9.338   4.244 -0.1652  0.6311  0.5126
  669MOL0     C88212   1.591   9.362   4.381  0.4515 -0.3832  0.0163
  669MOL0     C88213   1.455   9.428   4.424  0.0468  0.1046  1.2381
  669MOL0     C88214   1.425   9.553   4.332  0.8618  0.1523 -0.5040
  669MOL0     C88215   1.312   9.643   4.386  0.1542  0.7566 -0.6715
  669MOL0     C88216   1.339   9.792   4.348  0.3370  0.4577 -0.2743
  669MOL0     C88217   1.246   9.889   4.421  0.1429 -0.5772 -0.6952
  669MOL0     C88218   1.258   9.882   4.575  0.2730 -0.6998 -0.1595
  669MOL0     C88219   1.117   9.865   4.635 -0.1209  0.6338 -0.0243
  669MOL0    Cl88220   1.019   9.739   4.544  0.5888 -0.0774  0.3529
  669MOL0     C88221   1.737   9.259   4.070  0.2075  0.7515 -0.3072
  669MOL0     C88222   1.851   9.201   4.022  0.0646 -0.4618 -0.2740
  669MOL0     O88223   1.926   8.880   4.049 -0.1055 -0.1710  0.1489
  669MOL0     C88224   2.257   8.943   3.946 -0.2168  0.3296  0.3410
  669MOL0     C88225   2.353   8.902   3.849 -0.5985 -0.1585 -0.5347
  669MOL0     N88226   2.988   8.960   3.614 -0.1568  0.8295 -0.4799
  669MOL0     N88227   3.113   8.935   3.617  0.1870 -0.5346 -0.3420
  669MOL0     C88228   4.193   9.055   3.842 -0.0383 -0.4780 -0.2149
  669MOL0     C88229   4.292   9.138   3.892 -0.9507 -0.5269 -0.4094
  669MOL0     C88230   4.661   9.427   3.881 -0.5495 -0.8811  0.0327
  669MOL0     C88231   4.723   9.546   3.849  0.7292  0.3483  0.3148
  669MOL0     C88232   4.828   9.602   3.918 -0.2440  0.2268  0.4287
  669MOL0     C88233   4.880   9.529   4.025 -0.4778 -0.2104 -0.6379
  669MOL0     O88234   4.972   9.580   4.112  0.1170  0.2037  1.2500
  669MOL0     C88235   5.107   9.537   4.101 -0.1564  0.8911 -0.3079
  669MOL0     C88236   5.189   9.631   4.196  1.0785 -0.0994 -0.3347
  669MOL0     C88237   5.338   9.624   4.209  0.1573 -0.5040  0.8213
  669MOL0     C88238   5.397   9.747   4.273  0.6959 -0.1393 -0.2034
  669MOL0     C88239   5.449   9.842   4.177  0.8561  0.1483 -0.0360
  669MOL0     C88240   5.495   9.927   4.106  0.5990  0.3977  0.5533
  669MOL0     C88241   4.821   9.411   4.059  0.1677  0.5045 -0.6489
  669MOL0     C88242   4.713   9.354   3.982  0.3568  0.5217 -0.0692
  669MOL0     H88243   4.464   9.188   3.605  0.2676 -1.9884 -0.8207
  669MOL0     H88244   4.317   9.050   3.521  1.9770  0.7900  0.9417
  669MOL0     H88245   4.207   8.800   3.569  0.8128  0.5099 -0.0083
  669MOL0     H88246   4.128   8.920   3.454  0.4699 -2.2822 -1.1290
  669MOL0     H88247   4.019   8.672   3.592 -2.2371  0.5151  2.3789
  669MOL0     H88248   3.988   8.716   3.435 -1.4429 -2.8314  1.1800
  669MOL0     H88249   3.863   8.928   3.551 -0.8704 -0.7827 -0.7623
  669MOL0     H88250   3.855   8.812   3.687  1.7965  0.3006  0.6308
  669MOL0     H88251   3.756   8.734   3.399  0.9705  2.0119  0.2417
  669MOL0     H88252   3.717   8.652   3.541 -0.6944  0.6945  0.7139
  669MOL0     H88253   3.613   8.945   3.537 -0.6251 -0.2182  1.3335
  669MOL0     H88254   3.597   8.813   3.647 -1.2865 -0.4510 -0.9394
  669MOL0     H88255   3.516   8.690   3.460  0.3331  0.2463  1.1144
  669MOL0     H88256   3.503   8.856   3.373  1.5408 -0.5477 -0.9234
  669MOL0     H88257   3.369   8.789   3.636  0.9707  1.7111  0.9298
  669MOL0     H88258   3.354   8.938   3.553 -1.9550 -0.0035  0.0937
  669MOL0     H88259   3.249   8.683   3.466  3.5841  0.3698 -1.3048
  669MOL0     H88260   3.261   8.813   3.350  0.2153 -2.1988 -0.9413
  669MOL0     H88261   2.984   8.741   3.386  1.8907 -1.6416  2.3330
  669MOL0     H88262   2.755   8.760   3.454  1.3243  0.8190 -0.9639
  669MOL0     H88263   2.706   8.926   3.497 -3.5548 -3.1092 -1.0037
  669MOL0     H88264   2.746   8.899   3.725  0.8367  0.0173 -0.3131
  669MOL0     H88265   2.821   8.749   3.714 -0.4324  0.1877  1.7747
  669MOL0     H88266   2.604   8.643   3.629  0.0182  1.8345 -2.3250
  669MOL0     H88267   2.572   8.737   3.788  0.5185  2.1102  0.6255
  669MOL0     H88268   2.515   8.814   3.504  0.2838  2.5714  0.1100
  669MOL0     H88269   2.517   8.923   3.647  1.8323 -0.3457  2.2653
  669MOL0     H88270   2.169   8.646   3.716 -1.0082 -0.9203  1.0101
  669MOL0     H88271   2.003   8.720   3.874 -0.5396  0.4587 -0.3572
  669MOL0     H88272   2.004   9.122   4.319  2.7150  1.0070 -1.8391
  669MOL0     H88273   1.808   9.223   4.409  3.7473 -3.2390  0.0972
  669MOL0     H88274   1.671   9.418   4.431  1.2030 -1.8426  0.4920
  669MOL0     H88275   1.585   9.265   4.430 -2.0312  0.0513  0.7389
  669MOL0     H88276   1.462   9.453   4.530  1.6363  3.3204  0.4818
  669MOL0     H88277   1.372   9.357   4.416  2.0255 -2.2438  0.1576
  669MOL0     H88278   1.414   9.528   4.226  0.0996  3.7846 -1.4289
  669MOL0     H88279   1.511   9.621   4.340 -1.2876  3.0446 -0.0122
  669MOL0     H88280   1.216   9.611   4.345 -0.7065 -0.9367  2.3492
  669MOL0     H88281   1.299   9.633   4.494  2.0461 -2.9573 -0.6244
  669MOL0     H88282   1.327   9.790   4.239  1.0181 -2.9776 -0.4014
  669MOL0     H88283   1.443   9.820   4.370 -0.4035  0.9937  2.9993
  669MOL0     H88284   1.143   9.876   4.386 -0.4735  1.3496  0.2658
  669MOL0     H88285   1.279   9.987   4.385 -2.2942  0.3997 -0.4699
  669MOL0     H88286   1.326   9.808   4.618  1.4124  1.0654  1.2316
  669MOL0     H88287   1.308   9.973   4.611 -0.0968 -0.6946  0.3529
  669MOL0     H88288   1.064   9.961   4.634  2.7043  2.3380  0.8508
  669MOL0     H88289   1.130   9.843   4.742  0.9808  0.3558 -0.2052
  669MOL0     H88290   1.664   9.303   4.003  1.6567 -0.9348 -3.1428
  669MOL0     H88291   1.870   9.191   3.916  0.1205  1.2258 -0.4416
  669MOL0     H88292   2.295   9.021   4.011 -0.5766  1.0026 -0.2385
  669MOL0     H88293   2.451   8.947   3.851 -1.6408  2.2958 -1.0096
  669MOL0     H88294   4.114   9.017   3.907 -1.8490  0.9857 -1.4334
  669MOL0     H88295   4.302   9.144   4.000  3.1044  1.0282 -0.6994
  669MOL0     H88296   4.682   9.601   3.765  2.5501  1.7479  0.2574
  669MOL0     H88297   4.878   9.698   3.906  0.8004 -0.1625  1.5129
  669MOL0     H88298   5.146   9.536   3.999  1.2759  2.9663  0.1497
  669MOL0     H88299   5.120   9.434   4.134 -1.2130  1.2635  1.3705
  669MOL0     H88300   5.155   9.731   4.168 -2.3115 -0.8152  0.7189
  669MOL0     H88301   5.154   9.610   4.298 -0.4217  0.7482 -0.6601
  669MOL0     H88302   5.370   9.614   4.105  0.6579  2.4058  0.5997
  669MOL0     H88303   5.360   9.532   4.264  0.9715 -1.6509 -1.3047
  669MOL0     H88304   5.326   9.798   4.339 -0.2950  1.1226 -2.1614
  669MOL0     H88305   5.481   9.712   4.335 -1.3032  0.1781  2.9395
  669MOL0     H88306   5.533  10.006   4.044 -1.1318  0.2802 -0.7336
  669MOL0     H88307   4.853   9.350   4.143 -4.0664 -1.6759 -0.3733
  669MOL0     H88308   4.681   9.256   4.015 -2.0164  2.3798  3.9003
  670MOL0     O88309   1.758   8.276   5.292  0.0480 -0.4207 -0.8161
  670MOL0     C88310   1.692   8.187   5.247 -0.7300  0.6831  0.3398
  670MOL0     O88311   1.743   8.088   5.175 -0.3555  0.7668 -0.6375
  670MOL0     C88312   1.878   8.073   5.173  0.2408 -0.2778 -0.4752
  670MOL0     C88313   1.940   8.050   5.055 -0.9897  0.1026 -0.6582
  670MOL0     C88314   2.076   8.029   5.046 -0.2344  0.4768 -0.8082
  670MOL0     C88315   2.146   8.008   5.168  0.3304 -0.0862 -0.4975
  670MOL0     O88316   2.278   7.983   5.153  1.0442  0.0622 -0.0775
  670MOL0     C88317   2.358   7.972   5.269 -0.4546 -0.1724 -0.4319
  670MOL0     C88318   2.502   7.963   5.224 -0.7045  0.4808 -0.1644
  670MOL0     C88319   2.598   8.034   5.326  0.3570 -0.2055  0.1899
  670MOL0     C88320   2.743   8.028   5.267  0.6222 -0.6931 -0.4889
  670MOL0     C88321   2.862   8.087   5.353  0.1051  0.1395  0.7284
  670MOL0     C88322   2.827   8.230   5.393  0.3216  0.6218  0.4250
  670MOL0     C88323   2.954   8.302   5.452 -0.4054 -0.2969  0.3361
  670MOL0     C88324   3.051   8.351   5.351 -0.6042 -0.0270  0.7378
  670MOL0     N88325   3.162   8.425   5.412  0.2242  1.3739  0.0246
  670MOL0     C88326   3.247   8.374   5.507 -0.0054  0.3310 -0.2328
  670MOL0     C88327   3.345   8.462   5.509  0.3914  0.5084  0.6350
  670MOL0     C88328   3.481   8.437   5.565  0.3349 -0.0587  0.1762
  670MOL0     C88329   3.539   8.562   5.644  0.3525 -0.0961 -0.2278
  670MOL0     C88330   3.494   8.582   5.793 -0.2539  0.3637  0.2811
  670MOL0     C88331   3.347   8.598   5.815  0.1008 -0.1904 -0.4838
  670MOL0     O88332   3.292   8.467   5.839  0.2656 -0.8265 -0.1086
  670MOL0     C88333   3.162   8.436   5.838 -0.4715  0.1685 -0.2332
  670MOL0     C88334   3.060   8.520   5.824 -0.1035 -0.6123  0.4628
  670MOL0     C88335   2.928   8.470   5.822  0.1529 -0.2572  0.0972
  670MOL0     C88336   2.902   8.337   5.820 -0.4687  0.3829 -0.1420
  670MOL0     C88337   2.775   8.276   5.775  0.1220 -0.6132  1.0676
  670MOL0     O88338   2.744   8.141   5.779  0.2530  0.1930 -0.2521
  670MOL0     C88339   2.618   8.091   5.743  0.8042 -0.3972  0.3234
  670MOL0     C88340   2.512   8.149   5.681 -0.9269  0.7590  0.2445
  670MOL0     C88341   2.400   8.070   5.647  0.5169  0.3616 -0.0409
  670MOL0     C88342   2.386   7.935   5.668  0.0778  0.2595 -0.1809
  670MOL0     O88343   2.288   7.875   5.597 -0.0104 -0.7260 -0.1368
  670MOL0     C88344   2.310   7.736   5.567  0.6259 -0.1651 -0.3076
  670MOL0     C88345   2.193   7.692   5.487  0.1124  0.6085  0.6924
  670MOL0     C88346   2.235   7.567   5.386  0.2227 -0.5911 -0.0985
  670MOL0     C88347   2.286   7.448   5.462 -0.7270 -0.2906 -0.1262
  670MOL0     C88348   2.363   7.350   5.368  0.9031  0.0248  0.6241
  670MOL0     C88349   2.416   7.243   5.453 -0.4280  0.2128 -0.1577
  670MOL0     C88350   2.470   7.121   5.390 -0.1001 -0.0816  0.3754
  670MOL0     C88351   2.375   7.062   5.275 -0.2025  0.0481 -0.4502
  670MOL0    Cl88352   2.207   7.042   5.354  0.3040 -0.5445  0.0680
  670MOL0     C88353   2.502   7.875   5.722  0.1310 -0.0121 -0.3127
  670MOL0     C88354   2.610   7.956   5.769  0.2780  0.0635 -1.0535
  670MOL0     O88355   2.699   8.359   5.724 -0.0634  0.1926 -0.2842
  670MOL0     C88356   3.012   8.249   5.840 -0.0280  0.3975 -0.8971
  670MOL0     C88357   3.141   8.301   5.855  0.6859  0.3004 -0.2590
  670MOL0     N88358   3.311   8.570   5.424  0.2953 -0.3484  0.1355
  670MOL0     N88359   3.204   8.539   5.359 -0.6540 -0.1034  0.5008
  670MOL0     C88360   2.083   8.025   5.292  0.4633  0.1654 -0.7557
  670MOL0     C88361   1.946   8.053   5.293  0.0065 -0.7191 -0.5787
  670MOL0     C88362   1.557   8.188   5.295  0.5470  0.1253  0.2582
  670MOL0     C88363   1.467   8.083   5.275 -0.4137 -0.1631 -0.4512
  670MOL0     C88364   1.327   8.097   5.295 -0.1776 -0.2539 -0.3578
  670MOL0     C88365   1.275   8.221   5.345 -0.7281 -0.0609 -1.4581
  670MOL0     O88366   1.139   8.212   5.360 -0.5241  0.0450 -0.1635
  670MOL0     C88367   1.073   8.324   5.414  0.2582  0.1287 -0.1917
  670MOL0     C88368   0.937   8.274   5.422  0.1215 -0.4505 -0.7297
  670MOL0     C88369   0.841   8.394   5.457  0.4889  0.3993 -1.3469
  670MOL0     C88370   0.704   8.351   5.524 -0.0854 -0.7001  0.0836
  670MOL0     C88371   0.738   8.302   5.653  0.9793 -0.4468 -0.1692
  670MOL0     C88372   0.761   8.267   5.774 -0.5097 -0.1546 -0.6077
  670MOL0     C88373   1.365   8.324   5.375 -0.3262  0.1535  0.6225
  670MOL0     C88374   1.502   8.310   5.349  0.5383  0.0628  0.2433
  670MOL0     H88375   1.885   8.067   4.963 -0.0048 -0.4346 -1.3806
  670MOL0     H88376   2.116   8.022   4.946  0.5557 -0.0020 -0.4757
  670MOL0     H88377   2.326   7.876   5.311 -1.5005  0.1284 -0.5131
  670MOL0     H88378   2.354   8.056   5.339  1.0012 -0.7792  0.4243
  670MOL0     H88379   2.517   8.011   5.127 -1.6416 -2.1190 -1.7070
  670MOL0     H88380   2.529   7.857   5.215 -0.9385  0.2992  1.0701
  670MOL0     H88381   2.591   7.984   5.423  1.8922 -2.2094 -0.6738
  670MOL0     H88382   2.569   8.139   5.341 -0.4263 -0.4682  0.5906
  670MOL0     H88383   2.760   7.922   5.249  0.2105 -0.9968  0.8043
  670MOL0     H88384   2.736   8.079   5.171 -1.3339 -0.8275 -0.4681
  670MOL0     H88385   2.949   8.084   5.288 -0.1716 -0.9090  0.3845
  670MOL0     H88386   2.870   8.025   5.443  1.6287  2.8039  2.5576
  670MOL0     H88387   2.741   8.237   5.460  0.5276  1.1027  0.6444
  670MOL0     H88388   2.800   8.288   5.304  1.0752 -0.4548 -0.5321
  670MOL0     H88389   2.917   8.384   5.514 -0.8885 -1.0650  1.0912
  670MOL0     H88390   3.014   8.234   5.512  1.3035  0.6474 -0.2427
  670MOL0     H88391   3.002   8.424   5.287  0.9403  0.3542 -0.0495
  670MOL0     H88392   3.093   8.272   5.287  2.0187  1.1517  0.8503
  670MOL0     H88393   3.240   8.277   5.554  0.5049  1.7092  2.9145
  670MOL0     H88394   3.554   8.417   5.487  0.3081  1.9672 -0.4392
  670MOL0     H88395   3.490   8.350   5.631 -0.8509  0.1685  0.6699
  670MOL0     H88396   3.512   8.650   5.585 -6.1418 -2.4983 -1.6591
  670MOL0     H88397   3.648   8.566   5.653  0.1834  1.1265  1.9938
  670MOL0     H88398   3.539   8.500   5.851  1.6369  0.3990 -1.0429
  670MOL0     H88399   3.541   8.671   5.836 -1.5637  0.3955  1.7452
  670MOL0     H88400   3.299   8.651   5.732 -2.0019 -2.3153 -0.7325
  670MOL0     H88401   3.337   8.655   5.908 -1.4821 -2.7511  1.0403
  670MOL0     H88402   3.084   8.625   5.812  2.2674 -1.2935 -1.5202
  670MOL0     H88403   2.850   8.543   5.802 -0.5654 -1.6223 -2.6010
  670MOL0     H88404   2.505   8.255   5.662  0.3210  0.8200  0.0393
  670MOL0     H88405   2.321   8.117   5.589  0.5197 -0.2345 -0.5380
  670MOL0     H88406   2.305   7.676   5.658 -2.0510 -0.2716 -0.4563
  670MOL0     H88407   2.408   7.727   5.518  0.2602  1.2021 -1.3449
  670MOL0     H88408   2.163   7.762   5.409 -0.8587  0.6813  1.1261
  670MOL0     H88409   2.105   7.674   5.549  0.4155 -3.0188  0.2643
  670MOL0     H88410   2.314   7.605   5.320 -0.5620 -0.0707 -0.7751
  670MOL0     H88411   2.150   7.536   5.324 -2.2698  0.4254  2.5973
  670MOL0     H88412   2.351   7.494   5.537 -1.0584 -0.1588  0.0837
  670MOL0     H88413   2.206   7.396   5.516  1.4577 -0.3631  3.3229
  670MOL0     H88414   2.442   7.398   5.309  0.4951  0.7462  0.6456
  670MOL0     H88415   2.296   7.315   5.290  1.8988  0.2366 -0.3548
  670MOL0     H88416   2.338   7.201   5.517 -0.6228  0.6199 -0.1254
  670MOL0     H88417   2.502   7.273   5.514  0.8291 -1.5377 -0.9833
  670MOL0     H88418   2.569   7.131   5.345  0.4270 -1.2770  1.2354
  670MOL0     H88419   2.474   7.048   5.471 -1.0282 -1.9284 -1.1349
  670MOL0     H88420   2.421   6.967   5.246  1.7815  1.4334 -2.1354
  670MOL0     H88421   2.377   7.125   5.186  0.5019 -0.5572 -0.8806
  670MOL0     H88422   2.525   7.769   5.724  0.2220 -0.0276 -1.4839
  670MOL0     H88423   2.702   7.916   5.812 -0.6351 -0.4045  0.5655
  670MOL0     H88424   2.998   8.142   5.838  1.4977  0.1518 -0.0487
  670MOL0     H88425   3.215   8.224   5.874 -2.1024 -2.7607 -0.9463
  670MOL0     H88426   2.128   8.023   5.391 -0.6584 -1.5748 -0.2292
  670MOL0     H88427   1.897   8.062   5.389  0.6772  1.6635 -0.3862
  670MOL0     H88428   1.498   7.989   5.231 -0.5404 -1.0535  1.2836
  670MOL0     H88429   1.254   8.023   5.265 -0.7223 -0.1119  0.5788
  670MOL0     H88430   1.085   8.413   5.352  1.7254  0.3652  0.3847
  670MOL0     H88431   1.117   8.363   5.507  1.6102 -1.1460 -0.2628
  670MOL0     H88432   0.904   8.222   5.331 -0.3618  0.1746 -0.9113
  670MOL0     H88433   0.949   8.210   5.510 -0.3119  1.0760  0.4735
  670MOL0     H88434   0.816   8.443   5.362  2.1394  0.1769 -1.9205
  670MOL0     H88435   0.891   8.470   5.517 -1.0394  0.2844  0.1553
  670MOL0     H88436   0.641   8.439   5.545 -2.2610 -2.1370 -0.1536
  670MOL0     H88437   0.644   8.278   5.470  2.0483 -1.3866 -1.4973
  670MOL0     H88438   0.759   8.240   5.878 -2.9922  2.5161  0.1915
  670MOL0     H88439   1.317   8.411   5.418  1.6467  1.6890 -0.1099
  670MOL0     H88440   1.571   8.393   5.362 -1.9720  2.0461  1.8223
  671MOL0     O88441   3.204   1.331   6.965 -0.8641  0.0505  0.1978
  671MOL0     C88442   3.165   1.233   7.022 -0.5826  0.8099  0.1980
  671MOL0     O88443   3.241   1.122   7.052  0.2068  0.0506  0.0481
  671MOL0     C88444   3.374   1.145   7.043 -0.4167 -0.3713  0.5088
  671MOL0     C88445   3.442   1.167   6.919  0.3717  0.2221 -0.3020
  671MOL0     C88446   3.581   1.171   6.901 -0.2342  0.2214 -0.0973
  671MOL0     C88447   3.663   1.153   7.015  0.5079  0.0701 -0.4181
  671MOL0     O88448   3.800   1.149   6.992  0.6985 -0.2444  0.0471
  671MOL0     C88449   3.883   1.141   7.111  0.0827 -0.6621  0.3908
  671MOL0     C88450   4.031   1.113   7.071  0.2188 -1.2591 -0.4039
  671MOL0     C88451   4.056   1.013   6.961  0.5759 -0.7124 -0.1018
  671MOL0     C88452   4.196   1.031   6.913 -0.5061 -0.1213 -0.0580
  671MOL0     C88453   4.252   0.901   6.845 -0.4805 -0.3927  0.2834
  671MOL0     C88454   4.298   0.790   6.934 -0.6385 -0.4795 -0.5819
  671MOL0     C88455   4.345   0.674   6.834 -0.1126 -0.4980 -0.4873
  671MOL0     C88456   4.393   0.557   6.917  0.1496  0.3376  0.0324
  671MOL0     N88457   4.439   0.441   6.839 -0.0853 -0.3975 -0.1899
  671MOL0     C88458   4.381   0.314   6.829  0.0264 -0.1290  0.8560
  671MOL0     C88459   4.469   0.239   6.757 -0.0562  0.3494 -0.7394
  671MOL0     C88460   4.444   0.098   6.710  0.3061  0.5667  0.8566
  671MOL0     C88461   4.381   0.014   6.813  0.2021 -0.0026  0.6845
  671MOL0     C88462   4.296  -0.096   6.756 -0.1768  0.2851  0.1468
  671MOL0     C88463   4.147  -0.090   6.798 -0.5337 -0.7150  0.1311
  671MOL0     O88464   4.089   0.034   6.755 -0.1761 -0.0036  0.4136
  671MOL0     C88465   3.998   0.094   6.833  0.6088 -0.3642 -0.2068
  671MOL0     C88466   3.990   0.236   6.825  0.5490 -0.3939 -0.3721
  671MOL0     C88467   3.899   0.306   6.908 -0.5492  0.0557  0.9006
  671MOL0     C88468   3.804   0.229   6.983  0.3138 -1.4047 -1.6472
  671MOL0     C88469   3.708   0.313   7.057  0.6725 -0.4761 -0.6862
  671MOL0     O88470   3.634   0.238   7.147 -0.4207 -0.7966  0.9606
  671MOL0     C88471   3.535   0.316   7.205 -0.3544  0.2196  0.0132
  671MOL0     C88472   3.548   0.396   7.317  0.6407 -0.0112  0.0172
  671MOL0     C88473   3.433   0.465   7.379 -1.5954 -0.5332  0.5890
  671MOL0     C88474   3.304   0.447   7.324  0.5814 -0.5789  0.2100
  671MOL0     O88475   3.184   0.501   7.373  0.2237 -0.4315 -0.9359
  671MOL0     C88476   3.185   0.579   7.502  0.1745  1.2970  0.2032
  671MOL0     C88477   3.045   0.619   7.542 -0.6092 -0.2206 -0.2793
  671MOL0     C88478   2.956   0.663   7.418  0.2680  1.2532 -0.9033
  671MOL0     C88479   2.811   0.689   7.460  0.0992 -0.2590 -0.4720
  671MOL0     C88480   2.736   0.763   7.349 -0.2849  0.2384  0.1971
  671MOL0     C88481   2.580   0.772   7.388 -0.9888  0.5255  0.6330
  671MOL0     C88482   2.513   0.881   7.315 -0.5658 -0.2631  0.4620
  671MOL0     C88483   2.365   0.899   7.373 -0.5886  0.3151  0.1771
  671MOL0    Cl88484   2.368   0.920   7.548 -0.0503 -0.0215  0.3938
  671MOL0     C88485   3.302   0.377   7.195  0.4074 -0.3387 -0.2197
  671MOL0     C88486   3.411   0.309   7.139  0.7783 -0.1784  0.6816
  671MOL0     O88487   3.695   0.434   7.032 -0.2726 -1.0284 -0.0216
  671MOL0     C88488   3.817   0.089   6.992  0.1983  0.7165 -0.3261
  671MOL0     C88489   3.907   0.018   6.917 -0.2358 -0.2021  0.8598
  671MOL0     N88490   4.579   0.319   6.732  0.5923 -0.3796 -0.3000
  671MOL0     N88491   4.565   0.436   6.781  0.8760  0.2027 -0.2412
  671MOL0     C88492   3.597   1.130   7.138  1.6391 -0.9610 -0.5786
  671MOL0     C88493   3.453   1.123   7.151  0.4762  0.1244 -1.8489
  671MOL0     C88494   3.024   1.242   7.061  0.9349  0.4959 -0.0297
  671MOL0     C88495   2.973   1.170   7.171  0.0766 -0.7441 -0.0645
  671MOL0     C88496   2.837   1.167   7.198 -0.2483  0.2794 -0.1611
  671MOL0     C88497   2.737   1.238   7.129  1.1450 -0.5190  0.7789
  671MOL0     O88498   2.603   1.225   7.158 -0.0308 -0.7094 -0.6748
  671MOL0     C88499   2.506   1.267   7.061 -0.9047  0.3957 -0.4827
  671MOL0     C88500   2.373   1.252   7.125 -0.0908  0.6998  0.3886
  671MOL0     C88501   2.289   1.370   7.078  0.1805  0.1190  0.5082
  671MOL0     C88502   2.136   1.352   7.084 -0.8234  0.7393 -0.4500
  671MOL0     C88503   2.081   1.296   7.208 -0.4186 -0.4534  0.0403
  671MOL0     C88504   2.022   1.237   7.298 -0.4038 -0.6102 -0.6496
  671MOL0     C88505   2.793   1.306   7.018  0.6638 -0.1001  0.5182
  671MOL0     C88506   2.932   1.317   6.984 -0.3144 -0.3204  0.3732
  671MOL0     H88507   3.384   1.182   6.828 -1.8561 -1.3407  0.7456
  671MOL0     H88508   3.628   1.194   6.806 -1.5098  0.8184 -0.6009
  671MOL0     H88509   3.847   1.058   7.172 -1.5218  0.9101  1.6804
  671MOL0     H88510   3.872   1.232   7.172 -1.8266 -1.4219  1.2653
  671MOL0     H88511   4.085   1.082   7.161  1.7656  0.7074 -0.5732
  671MOL0     H88512   4.064   1.212   7.038 -2.7968 -0.2575 -0.7321
  671MOL0     H88513   3.995   1.035   6.873  2.1466  0.8506 -0.8635
  671MOL0     H88514   4.036   0.915   7.006  2.5806 -1.7705 -1.3239
  671MOL0     H88515   4.209   1.125   6.859 -3.3760  0.3119 -0.1645
  671MOL0     H88516   4.267   1.030   6.995 -0.7753  0.0326  0.1762
  671MOL0     H88517   4.340   0.932   6.787 -0.0935 -1.1404  0.4619
  671MOL0     H88518   4.183   0.873   6.765 -0.9446  1.1705  0.0988
  671MOL0     H88519   4.216   0.763   7.000 -0.6702  1.4807  0.2349
  671MOL0     H88520   4.386   0.815   6.994 -1.2177 -3.4790  1.7604
  671MOL0     H88521   4.267   0.639   6.766  2.4642 -2.5739 -2.6038
  671MOL0     H88522   4.433   0.704   6.776  0.6971  0.9798  1.3868
  671MOL0     H88523   4.326   0.526   6.998  0.4568 -0.1157  0.1170
  671MOL0     H88524   4.472   0.603   6.977  0.1227  0.4666 -0.0303
  671MOL0     H88525   4.286   0.276   6.864  0.1625 -1.5544 -0.2420
  671MOL0     H88526   4.528   0.041   6.669  1.5240  2.0640  1.1798
  671MOL0     H88527   4.375   0.119   6.628 -0.5629  0.9678  1.6853
  671MOL0     H88528   4.312   0.068   6.878 -1.9693 -2.7168  0.8217
  671MOL0     H88529   4.468  -0.033   6.860 -0.3491 -0.1047  1.6155
  671MOL0     H88530   4.307  -0.096   6.648 -0.4862  0.1437  0.1157
  671MOL0     H88531   4.339  -0.190   6.790 -0.4667 -0.2539 -0.9422
  671MOL0     H88532   4.147  -0.093   6.908 -2.9584 -0.3901  0.1962
  671MOL0     H88533   4.107  -0.184   6.758  3.0421 -1.9487 -0.8691
  671MOL0     H88534   4.071   0.292   6.780  0.0040 -0.0729 -0.9588
  671MOL0     H88535   3.900   0.415   6.908 -0.4036  0.0702  1.8151
  671MOL0     H88536   3.648   0.407   7.358  0.3930 -1.1245  0.9516
  671MOL0     H88537   3.446   0.511   7.476  1.5310 -3.8831  1.9958
  671MOL0     H88538   3.244   0.670   7.486  1.2624  0.1431 -3.2159
  671MOL0     H88539   3.235   0.526   7.584 -1.2953 -0.1841  0.1848
  671MOL0     H88540   3.046   0.694   7.623  0.9500 -1.2020  0.6616
  671MOL0     H88541   2.998   0.531   7.587  1.1991 -1.6465 -1.0583
  671MOL0     H88542   2.963   0.590   7.338 -1.5317  0.3134 -0.2658
  671MOL0     H88543   3.003   0.753   7.377  2.6737 -0.6875 -2.6862
  671MOL0     H88544   2.769   0.596   7.500  1.2578 -0.3751  0.5326
  671MOL0     H88545   2.802   0.747   7.552 -0.4149  1.9216 -1.8347
  671MOL0     H88546   2.747   0.708   7.255  3.8866  0.5207  0.3199
  671MOL0     H88547   2.769   0.866   7.331 -0.4093  0.2600  0.0917
  671MOL0     H88548   2.579   0.789   7.497 -1.6358 -2.5955  1.1896
  671MOL0     H88549   2.534   0.678   7.359 -2.2957  1.9579 -2.2544
  671MOL0     H88550   2.563   0.977   7.322 -0.0477 -0.0278 -3.7796
  671MOL0     H88551   2.521   0.857   7.208  7.4991 -0.5666  0.5709
  671MOL0     H88552   2.293   0.822   7.345 -2.7680  2.3438 -0.0580
  671MOL0     H88553   2.337   0.988   7.317  0.2595 -0.6468 -1.8863
  671MOL0     H88554   3.212   0.357   7.138  0.4568 -2.0226  0.2361
  671MOL0     H88555   3.392   0.245   7.054  0.7303  1.5520 -0.6564
  671MOL0     H88556   3.745   0.032   7.050  0.1240  2.1251  1.0307
  671MOL0     H88557   3.915  -0.090   6.916  0.6095 -0.1594 -1.2324
  671MOL0     H88558   3.652   1.111   7.229  0.7246 -1.6836 -0.1600
  671MOL0     H88559   3.407   1.118   7.249  1.4014 -3.8407 -1.4280
  671MOL0     H88560   3.047   1.103   7.215  0.5740 -3.4671 -4.3475
  671MOL0     H88561   2.793   1.111   7.281 -4.0661  2.0382 -0.8003
  671MOL0     H88562   2.504   1.204   6.972 -0.0194 -1.9097  1.0447
  671MOL0     H88563   2.529   1.371   7.038  1.6847  0.4795  1.9565
  671MOL0     H88564   2.324   1.157   7.103  1.4490 -0.0634  0.0843
  671MOL0     H88565   2.388   1.262   7.233 -1.4023  1.5945  0.5132
  671MOL0     H88566   2.316   1.387   6.974  0.5392  1.7214  0.8444
  671MOL0     H88567   2.309   1.459   7.138  1.6181  0.9343 -1.1281
  671MOL0     H88568   2.085   1.443   7.053 -0.0824  0.1944 -3.6112
  671MOL0     H88569   2.094   1.280   7.014 -1.1238 -1.1274  1.5458
  671MOL0     H88570   1.964   1.181   7.369 -0.5839 -2.2858 -2.0434
  671MOL0     H88571   2.739   1.376   6.954  0.5213 -0.0935  0.6461
  671MOL0     H88572   2.966   1.365   6.893 -0.2881  0.4555  0.7858
  672MOL0     O88573   6.078   5.819   0.333 -0.1027  0.9849  0.1573
  672MOL0     C88574   6.095   5.858   0.213 -0.4432 -0.3340 -0.4598
  672MOL0     O88575   6.009   5.931   0.128  0.7545  0.5879  0.0217
  672MOL0     C88576   5.878   5.951   0.167 -0.1594  0.0342 -0.1077
  672MOL0     C88577   5.777   5.864   0.132 -0.2008 -0.1666 -0.4221
  672MOL0     C88578   5.654   5.883   0.196 -0.4469  0.1213 -0.1264
  672MOL0     C88579   5.627   5.992   0.280  0.3959  0.0445  0.8878
  672MOL0     O88580   5.500   6.004   0.330 -0.0747 -0.4394  0.4088
  672MOL0     C88581   5.491   5.944   0.463 -0.8442 -0.8092 -0.0048
  672MOL0     C88582   5.349   5.971   0.519 -0.5263  0.0072 -0.6750
  672MOL0     C88583   5.255   5.892   0.435 -0.7927 -0.4554  0.2378
  672MOL0     C88584   5.109   5.905   0.492  0.2319 -0.3759  0.6909
  672MOL0     C88585   5.053   6.044   0.519  0.0912 -0.0822  0.5849
  672MOL0     C88586   5.063   6.119   0.395  0.5004 -0.2027  0.6447
  672MOL0     C88587   4.997   6.250   0.415  0.2179  0.4583  0.6726
  672MOL0     C88588   5.033   6.344   0.293 -0.0377 -0.0884 -0.4888
  672MOL0     N88589   5.004   6.290   0.156 -0.2161  0.1741  0.1856
  672MOL0     C88590   4.885   6.230   0.129 -0.3202  0.5922 -0.1618
  672MOL0     C88591   4.890   6.200  -0.002 -0.3310  0.4682  0.2911
  672MOL0     C88592   4.792   6.129  -0.093  1.1357  0.5427 -0.3674
  672MOL0     C88593   4.684   6.063  -0.005  0.1048  0.0460  0.0676
  672MOL0     C88594   4.605   5.966  -0.092  0.2361  0.1937  0.5118
  672MOL0     C88595   4.470   5.913  -0.032 -0.2852 -0.0033  0.2770
  672MOL0     O88596   4.364   6.001  -0.075 -0.4902  0.1592  0.3920
  672MOL0     C88597   4.236   5.938  -0.089 -0.0754 -0.5914  0.2779
  672MOL0     C88598   4.187   5.827  -0.017 -0.5463 -0.8099  0.3219
  672MOL0     C88599   4.051   5.801  -0.013 -0.1196  0.3794  0.2715
  672MOL0     C88600   3.962   5.875  -0.089 -0.3337 -0.4489 -0.0483
  672MOL0     C88601   3.813   5.848  -0.097 -0.0399  0.0494 -0.3230
  672MOL0     O88602   3.733   5.942  -0.152  0.8389 -0.2531 -0.6818
  672MOL0     C88603   3.597   5.926  -0.157  0.3912  0.6613  0.1459
  672MOL0     C88604   3.531   5.935  -0.284 -0.1379  0.0943  0.1714
  672MOL0     C88605   3.386   5.942  -0.282  0.5499  0.0681 -0.0822
  672MOL0     C88606   3.304   5.940  -0.165 -0.4274  0.2512 -0.2499
  672MOL0     O88607   3.168   5.971  -0.182  0.1341  0.5944  0.5463
  672MOL0     C88608   3.089   5.854  -0.171  0.7503  0.3844 -0.5988
  672MOL0     C88609   2.951   5.863  -0.240 -0.4606 -0.3951  0.2134
  672MOL0     C88610   2.881   5.731  -0.233  0.5907  0.6728 -0.1351
  672MOL0     C88611   2.736   5.741  -0.291 -0.6822  0.6569  0.1308
  672MOL0     C88612   2.673   5.599  -0.294  0.3297  0.3439  0.8468
  672MOL0     C88613   2.531   5.597  -0.348 -0.1345  0.2306  0.4579
  672MOL0     C88614   2.435   5.678  -0.260 -0.2710 -1.1233 -1.0789
  672MOL0     C88615   2.295   5.673  -0.315 -0.1273 -0.4948  0.8238
  672MOL0    Cl88616   2.255   5.516  -0.394  0.1472 -0.2073  0.1352
  672MOL0     C88617   3.374   5.918  -0.043  0.1510  0.1063  0.6451
  672MOL0     C88618   3.517   5.924  -0.047 -0.1459  0.6666  0.1575
  672MOL0     O88619   3.767   5.741  -0.056  0.6382  0.1460 -0.3204
  672MOL0     C88620   4.010   5.992  -0.156  0.9423  0.3447  0.1335
  672MOL0     C88621   4.144   6.011  -0.165 -0.4633 -0.1795  0.1485
  672MOL0     N88622   5.017   6.238  -0.050  0.5858 -0.7206 -0.1571
  672MOL0     N88623   5.088   6.284   0.047 -0.0113  0.2084 -0.4058
  672MOL0     C88624   5.732   6.082   0.321  0.0724  1.4691  0.2362
  672MOL0     C88625   5.861   6.055   0.263 -0.2149 -0.3674 -0.3661
  672MOL0     C88626   6.227   5.837   0.158  0.0742  0.6503 -0.4420
  672MOL0     C88627   6.332   5.801   0.242 -0.0973  0.0202 -0.0677
  672MOL0     C88628   6.457   5.769   0.194 -0.1834 -0.3226 -0.7237
  672MOL0     C88629   6.484   5.786   0.067  0.0500  0.3926  0.1188
  672MOL0     O88630   6.606   5.733   0.030 -0.1407 -0.2186  0.1728
  672MOL0     C88631   6.637   5.749  -0.112  0.1570 -0.2570 -0.3452
  672MOL0     C88632   6.775   5.696  -0.130  0.4652  0.3865  0.0054
  672MOL0     C88633   6.806   5.719  -0.283  0.2981 -0.2964 -0.2167
  672MOL0     C88634   6.921   5.622  -0.336 -0.1539 -0.2973  0.5555
  672MOL0     C88635   7.049   5.651  -0.266 -0.1153  0.0433  0.4032
  672MOL0     C88636   7.154   5.664  -0.212 -0.8820 -0.5569  0.5865
  672MOL0     C88637   6.382   5.825  -0.026 -0.4498  0.3254  0.1066
  672MOL0     C88638   6.249   5.860   0.018  0.0201 -0.0537 -0.0361
  672MOL0     H88639   5.791   5.784   0.059 -0.7136  0.3733 -1.1294
  672MOL0     H88640   5.573   5.821   0.158 -2.2156  2.3042 -0.0979
  672MOL0     H88641   5.561   5.994   0.530  1.1147 -1.1053 -1.7335
  672MOL0     H88642   5.522   5.839   0.470  1.0288 -0.2751  0.1976
  672MOL0     H88643   5.335   6.079   0.523 -2.0831 -0.1835  2.7407
  672MOL0     H88644   5.341   5.931   0.621 -0.1923  2.4663  0.3897
  672MOL0     H88645   5.286   5.787   0.430  4.2533  0.7785 -0.3881
  672MOL0     H88646   5.248   5.942   0.337 -2.1025  0.6388  0.8548
  672MOL0     H88647   5.047   5.842   0.426  1.6390  2.3091 -3.6257
  672MOL0     H88648   5.112   5.860   0.591  0.2441 -2.9014 -0.3675
  672MOL0     H88649   5.111   6.084   0.603  1.7554 -2.1091  0.4781
  672MOL0     H88650   4.951   6.029   0.555  0.2442 -1.3522  0.5166
  672MOL0     H88651   5.015   6.076   0.307  1.7484  2.6046 -1.5681
  672MOL0     H88652   5.170   6.131   0.375  0.6488 -1.1195  0.8371
  672MOL0     H88653   4.888   6.243   0.421 -0.3093  0.2246 -4.6346
  672MOL0     H88654   5.029   6.306   0.504  1.5307 -0.6400  0.9192
  672MOL0     H88655   5.137   6.369   0.316 -1.5367  2.8434  4.5851
  672MOL0     H88656   4.974   6.435   0.303  0.2995 -0.0510  1.7462
  672MOL0     H88657   4.802   6.206   0.195  0.7648 -0.9195  0.7453
  672MOL0     H88658   4.854   6.057  -0.147 -1.7802 -1.5998 -1.1099
  672MOL0     H88659   4.747   6.195  -0.168 -3.0761 -2.0876 -0.4734
  672MOL0     H88660   4.614   6.139   0.032 -1.6108 -1.2331 -0.4205
  672MOL0     H88661   4.741   6.018   0.077  0.5016 -3.2988 -1.8450
  672MOL0     H88662   4.570   6.011  -0.186 -1.3403 -1.6155  0.1709
  672MOL0     H88663   4.670   5.884  -0.120  1.4486  0.8074  1.4258
  672MOL0     H88664   4.466   5.900   0.077 -2.6839 -0.4322  0.2062
  672MOL0     H88665   4.455   5.817  -0.083  0.8648  0.8565 -1.7910
  672MOL0     H88666   4.247   5.762   0.045  1.7769 -0.5421 -1.5198
  672MOL0     H88667   4.004   5.720   0.042 -0.1297  1.8341  2.5306
  672MOL0     H88668   3.594   5.944  -0.371 -1.3026  1.0158 -0.6021
  672MOL0     H88669   3.335   5.951  -0.378 -0.2260  1.3199  0.4278
  672MOL0     H88670   3.083   5.837  -0.063  1.2144  1.6325 -0.3552
  672MOL0     H88671   3.129   5.767  -0.223 -0.6620  1.2553 -3.3302
  672MOL0     H88672   2.971   5.887  -0.345  0.4856  0.3079  0.5445
  672MOL0     H88673   2.886   5.939  -0.195 -2.6515 -1.9934 -0.1055
  672MOL0     H88674   2.867   5.706  -0.128 -1.5953  0.7647 -0.3482
  672MOL0     H88675   2.939   5.654  -0.285 -2.4670  0.4373 -3.6570
  672MOL0     H88676   2.683   5.811  -0.225  0.5716  2.5033 -0.7439
  672MOL0     H88677   2.729   5.785  -0.391  2.9380  1.4650  0.0868
  672MOL0     H88678   2.674   5.546  -0.199  0.1152 -0.5921  0.3358
  672MOL0     H88679   2.741   5.550  -0.365  0.3366  2.3587 -0.6208
  672MOL0     H88680   2.510   5.490  -0.357 -2.8690  0.6578  1.1481
  672MOL0     H88681   2.528   5.641  -0.448 -0.9889  0.9240  0.7802
  672MOL0     H88682   2.432   5.634  -0.160 -0.0762  0.8769 -0.1576
  672MOL0     H88683   2.466   5.782  -0.255 -1.4904 -0.8030  1.9013
  672MOL0     H88684   2.289   5.761  -0.380  2.8152 -1.5063 -1.0305
  672MOL0     H88685   2.217   5.686  -0.239 -1.0549 -0.4048 -0.1080
  672MOL0     H88686   3.321   5.910   0.051 -1.3022  0.6866 -0.0867
  672MOL0     H88687   3.572   5.917   0.047  0.5713  0.7402 -0.2527
  672MOL0     H88688   3.936   6.064  -0.190 -1.2723 -1.8604 -0.0242
  672MOL0     H88689   4.187   6.094  -0.220  2.3983 -0.8556  1.2366
  672MOL0     H88690   5.716   6.164   0.390 -0.0873  0.5179  1.3755
  672MOL0     H88691   5.941   6.118   0.301 -2.0598  1.5041  0.6034
  672MOL0     H88692   6.320   5.808   0.349  1.0895  1.3641  0.0109
  672MOL0     H88693   6.540   5.740   0.259 -0.2518  0.9436 -0.0344
  672MOL0     H88694   6.629   5.853  -0.148  0.7505 -0.3229 -0.6852
  672MOL0     H88695   6.565   5.693  -0.172 -0.1974  1.0294 -1.1625
  672MOL0     H88696   6.840   5.749  -0.060  2.1287  0.7794 -1.7250
  672MOL0     H88697   6.779   5.592  -0.098  2.9766  0.0946 -0.9931
  672MOL0     H88698   6.834   5.824  -0.293 -0.1554 -0.1589 -0.0723
  672MOL0     H88699   6.720   5.705  -0.349 -0.0990 -0.3800  0.3095
  672MOL0     H88700   6.891   5.517  -0.325 -0.9950 -0.0397  0.7714
  672MOL0     H88701   6.934   5.644  -0.443 -2.8998  0.1798  0.2526
  672MOL0     H88702   7.240   5.687  -0.152 -0.0612  0.1342 -0.7942
  672MOL0     H88703   6.406   5.814  -0.131  1.0039  0.6461  0.3834
  672MOL0     H88704   6.170   5.903  -0.042  0.5324  2.1102  0.7641
  673MOL0     O88705   0.963   1.425   3.327 -0.7734  0.2949 -0.1831
  673MOL0     C88706   0.960   1.387   3.206  0.1349 -0.2400  0.3012
  673MOL0     O88707   0.839   1.367   3.133 -0.2411  1.0696 -0.5723
  673MOL0     C88708   0.716   1.396   3.189  0.1768 -0.7668 -0.4353
  673MOL0     C88709   0.667   1.370   3.324 -0.7249 -0.1098 -0.4041
  673MOL0     C88710   0.540   1.401   3.361 -1.3536 -0.0370 -0.1304
  673MOL0     C88711   0.446   1.452   3.271  0.3228 -1.2305 -0.0925
  673MOL0     O88712   0.323   1.488   3.315  0.8124 -0.0681  0.2217
  673MOL0     C88713   0.216   1.474   3.223  0.2684 -0.6439  0.3070
  673MOL0     C88714   0.074   1.454   3.284  0.4003 -0.2027 -1.0040
  673MOL0     C88715  -0.036   1.474   3.173  0.0454  0.2439  0.2723
  673MOL0     C88716  -0.177   1.515   3.229  0.1935 -0.0724 -0.3894
  673MOL0     C88717  -0.263   1.394   3.279  0.0196  0.1383 -0.8787
  673MOL0     C88718  -0.400   1.429   3.339 -0.1961  0.2446  0.3982
  673MOL0     C88719  -0.491   1.309   3.355 -0.3971  0.1917 -0.1636
  673MOL0     C88720  -0.631   1.357   3.389  0.2665  0.3971  0.5009
  673MOL0     N88721  -0.695   1.448   3.298  0.5380 -0.6088  0.2966
  673MOL0     C88722  -0.764   1.405   3.188  1.1549 -0.6594  0.8696
  673MOL0     C88723  -0.799   1.518   3.132  0.5618 -0.0558  0.8439
  673MOL0     C88724  -0.905   1.545   3.026 -0.1177  0.1206  0.9185
  673MOL0     C88725  -1.046   1.548   3.094  0.4684  0.5271 -0.7702
  673MOL0     C88726  -1.162   1.586   2.989 -1.0345  0.0395  0.0735
  673MOL0     C88727  -1.296   1.553   3.044  0.6574 -0.2733 -0.1388
  673MOL0     O88728  -1.398   1.629   2.980 -0.7209  0.0987  0.0461
  673MOL0     C88729  -1.523   1.617   3.027 -0.6436 -0.0872  0.5348
  673MOL0     C88730  -1.618   1.711   2.978  0.6847 -0.1034  0.0843
  673MOL0     C88731  -1.752   1.702   3.017  0.2174 -0.5070  0.3236
  673MOL0     C88732  -1.797   1.597   3.099 -0.1319  0.3017  1.2805
  673MOL0     C88733  -1.944   1.587   3.119 -0.3147  0.5905 -0.0885
  673MOL0     O88734  -2.020   1.693   3.071  0.5320  0.0221  0.1467
  673MOL0     C88735  -2.153   1.688   3.083 -0.2386  0.8645 -0.5445
  673MOL0     C88736  -2.210   1.812   3.086  0.3091 -0.4915  0.0079
  673MOL0     C88737  -2.350   1.828   3.084 -0.1353 -0.6304  1.0488
  673MOL0     C88738  -2.437   1.720   3.075 -0.7304  0.4924 -0.0569
  673MOL0     O88739  -2.572   1.719   3.077  0.3075 -0.1263 -0.6171
  673MOL0     C88740  -2.631   1.825   3.156 -0.2808  0.8215  0.5836
  673MOL0     C88741  -2.789   1.830   3.151  0.6048  0.6948  1.0364
  673MOL0     C88742  -2.838   1.865   3.009  0.2178 -0.2000 -0.5358
  673MOL0     C88743  -2.991   1.874   3.007  0.6107  0.5283  0.1911
  673MOL0     C88744  -3.034   1.872   2.855 -0.4031  0.1960  0.0659
  673MOL0     C88745  -3.183   1.876   2.840  1.0418  0.8796 -0.0617
  673MOL0     C88746  -3.227   1.868   2.694 -0.3478  0.5504 -0.9737
  673MOL0     C88747  -3.376   1.842   2.681 -0.0821 -0.2048  0.1346
  673MOL0    Cl88748  -3.479   1.991   2.713  0.0014 -0.1890  0.2476
  673MOL0     C88749  -2.383   1.593   3.071 -0.2791  0.0871  0.2606
  673MOL0     C88750  -2.241   1.572   3.065  0.8793 -0.2031 -0.3951
  673MOL0     O88751  -1.979   1.513   3.206  0.1998  0.6362 -0.5940
  673MOL0     C88752  -1.707   1.507   3.155 -0.2683  0.3263 -0.4113
  673MOL0     C88753  -1.568   1.529   3.130  0.0078  0.0704  0.0008
  673MOL0     N88754  -0.746   1.623   3.203 -0.1254 -0.4067 -0.6122
  673MOL0     N88755  -0.681   1.584   3.306  0.6147  0.2603 -0.3312
  673MOL0     C88756   0.487   1.469   3.138  0.6686  0.6765  0.1119
  673MOL0     C88757   0.616   1.439   3.096  0.3835  0.2350  0.2124
  673MOL0     C88758   1.088   1.364   3.135 -0.2365 -0.4134 -0.3044
  673MOL0     C88759   1.208   1.336   3.207 -0.3041  0.1979 -0.4427
  673MOL0     C88760   1.321   1.313   3.125 -0.5341 -0.3490  0.8055
  673MOL0     C88761   1.327   1.311   2.987  0.1845  1.1544  1.3603
  673MOL0     O88762   1.443   1.306   2.915 -0.2414  0.1550  0.0733
  673MOL0     C88763   1.576   1.319   2.966 -0.0528 -0.1363 -0.6771
  673MOL0     C88764   1.647   1.409   2.861  0.7607  0.0153 -0.0786
  673MOL0     C88765   1.793   1.442   2.900 -0.5897 -0.8486  0.3813
  673MOL0     C88766   1.858   1.527   2.787 -0.5648  0.4621  1.7489
  673MOL0     C88767   1.855   1.470   2.648 -0.6270 -0.7680 -0.1993
  673MOL0     C88768   1.829   1.437   2.533  0.1979 -1.3218 -0.2480
  673MOL0     C88769   1.203   1.330   2.924 -0.8607 -0.4837  0.7897
  673MOL0     C88770   1.090   1.345   2.993  0.1511 -0.2940  0.0319
  673MOL0     H88771   0.740   1.326   3.391  0.4309 -1.3089 -2.3528
  673MOL0     H88772   0.503   1.371   3.458  0.7468  2.4722  1.5736
  673MOL0     H88773   0.228   1.389   3.155 -3.6656 -2.4100  1.5001
  673MOL0     H88774   0.213   1.558   3.153  0.0650 -0.6768  0.2745
  673MOL0     H88775   0.065   1.523   3.369 -1.1853 -1.2120 -0.2883
  673MOL0     H88776   0.053   1.353   3.322  0.7502 -1.0029 -2.8312
  673MOL0     H88777  -0.052   1.384   3.114  2.7132  0.1520 -0.4038
  673MOL0     H88778  -0.010   1.556   3.106 -3.5209 -0.0563 -1.7709
  673MOL0     H88779  -0.166   1.582   3.315 -2.1587 -0.9378  0.6696
  673MOL0     H88780  -0.225   1.569   3.147  0.3263  0.2674 -0.2470
  673MOL0     H88781  -0.204   1.348   3.358 -1.4427 -0.8474 -0.3242
  673MOL0     H88782  -0.268   1.315   3.203  1.1687  0.5444 -1.4000
  673MOL0     H88783  -0.446   1.510   3.281 -1.4620 -2.6319 -3.0213
  673MOL0     H88784  -0.385   1.473   3.438 -0.9833  0.4986  0.4162
  673MOL0     H88785  -0.497   1.265   3.255  3.4241 -1.5519  0.1863
  673MOL0     H88786  -0.451   1.236   3.425  0.5777 -0.4659 -1.3647
  673MOL0     H88787  -0.630   1.409   3.485 -1.1919  1.6397 -0.1127
  673MOL0     H88788  -0.704   1.275   3.392  0.1451  0.4158 -1.3491
  673MOL0     H88789  -0.789   1.303   3.162  1.2632 -0.4202 -0.2052
  673MOL0     H88790  -0.901   1.477   2.941 -1.1277  2.0977 -0.8304
  673MOL0     H88791  -0.884   1.645   2.985  0.6399 -0.8145 -1.1179
  673MOL0     H88792  -1.046   1.613   3.182  1.3990 -1.0493  0.4651
  673MOL0     H88793  -1.068   1.446   3.129  0.1988  0.5068 -1.0014
  673MOL0     H88794  -1.161   1.691   2.959 -0.5758 -0.0134 -0.1073
  673MOL0     H88795  -1.138   1.529   2.899  2.3380  0.5436  0.5494
  673MOL0     H88796  -1.307   1.576   3.150 -1.3962 -0.1171 -0.3531
  673MOL0     H88797  -1.310   1.446   3.029  0.2051  0.0615 -2.5142
  673MOL0     H88798  -1.587   1.786   2.906  1.0999 -0.5589 -0.2225
  673MOL0     H88799  -1.817   1.782   2.983  2.0704  1.1838  0.6084
  673MOL0     H88800  -2.154   1.904   3.094 -0.1519 -0.2870  0.9676
  673MOL0     H88801  -2.383   1.931   3.083  2.1259  0.1474 -0.1032
  673MOL0     H88802  -2.600   1.928   3.137  1.4978  0.8536  3.1343
  673MOL0     H88803  -2.604   1.816   3.262  0.3864  2.0776  0.5440
  673MOL0     H88804  -2.834   1.896   3.227 -3.0851  3.5089 -3.0657
  673MOL0     H88805  -2.818   1.726   3.172 -0.9391  0.9206  0.1810
  673MOL0     H88806  -2.802   1.794   2.934  0.8212  0.7255 -1.1454
  673MOL0     H88807  -2.794   1.958   2.972 -2.4695  0.8719 -1.2849
  673MOL0     H88808  -3.040   1.790   3.058  1.9384 -1.4142 -1.5463
  673MOL0     H88809  -3.016   1.973   3.046  1.3179  1.8355 -2.4464
  673MOL0     H88810  -2.998   1.782   2.804 -0.2335  0.4146 -0.2072
  673MOL0     H88811  -2.993   1.962   2.807  0.4402  0.2980  0.9399
  673MOL0     H88812  -3.222   1.972   2.876 -0.9153  0.1477 -0.1395
  673MOL0     H88813  -3.223   1.791   2.895  1.3261 -0.3239 -1.6401
  673MOL0     H88814  -3.200   1.958   2.639  0.7271  0.5257 -0.5106
  673MOL0     H88815  -3.171   1.785   2.651  0.4039  0.2145  0.5903
  673MOL0     H88816  -3.413   1.758   2.742  1.0818  1.2630  3.0647
  673MOL0     H88817  -3.404   1.811   2.580 -4.0686 -1.1016  1.3406
  673MOL0     H88818  -2.444   1.504   3.079 -2.1740  1.2020 -0.8937
  673MOL0     H88819  -2.208   1.469   3.054 -1.8416 -1.0385 -1.6398
  673MOL0     H88820  -1.748   1.430   3.219 -2.3068  0.9006 -0.9801
  673MOL0     H88821  -1.503   1.464   3.188  2.4005  0.0175 -2.5334
  673MOL0     H88822   0.420   1.511   3.064  0.7006  0.6628  0.0757
  673MOL0     H88823   0.650   1.464   2.996  1.3224 -2.9554 -0.3679
  673MOL0     H88824   1.212   1.320   3.314  1.4167 -1.3825 -0.6872
  673MOL0     H88825   1.414   1.296   3.179  0.2248  2.6444  0.5906
  673MOL0     H88826   1.626   1.224   2.988 -0.3230  0.1019  1.1680
  673MOL0     H88827   1.570   1.377   3.059 -1.7965  1.2405 -1.5977
  673MOL0     H88828   1.657   1.346   2.772  2.0665 -2.3313  1.5960
  673MOL0     H88829   1.583   1.493   2.835 -0.6268 -0.7332  0.8550
  673MOL0     H88830   1.847   1.347   2.916 -1.1252 -1.1190  0.6103
  673MOL0     H88831   1.800   1.504   2.989 -1.2229 -1.8999  1.1832
  673MOL0     H88832   1.808   1.624   2.779  0.6191  1.1086  1.9797
  673MOL0     H88833   1.962   1.555   2.804  1.2457 -5.2585  2.2851
  673MOL0     H88834   1.834   1.419   2.428 -0.7052 -1.3629 -0.2917
  673MOL0     H88835   1.202   1.324   2.816 -0.4286 -2.9351  0.8869
  673MOL0     H88836   0.994   1.347   2.941  1.7428  0.1696 -3.1775
  674MOL0     O88837   9.321   6.318  10.475 -0.6078  0.5955  0.2845
  674MOL0     C88838   9.376   6.350  10.372 -0.1623  0.8443  0.7054
  674MOL0     O88839   9.315   6.380  10.253  0.0906 -0.6629  0.2175
  674MOL0     C88840   9.182   6.402  10.250  0.7779  0.0287 -0.0682
  674MOL0     C88841   9.100   6.436  10.358 -0.3214 -0.4894  0.3675
  674MOL0     C88842   8.963   6.454  10.347  0.5461  0.3440 -1.5245
  674MOL0     C88843   8.904   6.460  10.222  0.2978  0.1064  0.5725
  674MOL0     O88844   8.762   6.477  10.210 -0.1994  0.0250  0.1097
  674MOL0     C88845   8.711   6.545  10.086 -0.4720  0.4382 -0.7029
  674MOL0     C88846   8.565   6.569  10.108 -1.2866  0.5231 -1.7979
  674MOL0     C88847   8.533   6.639  10.237  0.9203  0.2142 -0.7689
  674MOL0     C88848   8.389   6.681  10.241  0.5036  0.2683  0.6369
  674MOL0     C88849   8.286   6.574  10.230 -0.2559 -0.0167  0.0137
  674MOL0     C88850   8.145   6.637  10.245  0.0957 -0.3714  0.0233
  674MOL0     C88851   8.103   6.662  10.391 -0.6234  0.2095 -0.1019
  674MOL0     C88852   7.951   6.659  10.408 -0.5403  0.0567 -0.0902
  674MOL0     N88853   7.872   6.776  10.359  0.4161  0.5679  0.2299
  674MOL0     C88854   7.780   6.850  10.436  0.7896 -0.1517 -0.3665
  674MOL0     C88855   7.731   6.936  10.338 -1.3387  0.6537 -0.3545
  674MOL0     C88856   7.611   7.023  10.354 -0.3679 -0.9412  0.4119
  674MOL0     C88857   7.505   6.964  10.439  0.4336  0.3083  0.3509
  674MOL0     C88858   7.457   6.833  10.391  0.0776  0.6763  0.7088
  674MOL0     C88859   7.333   6.786  10.462  0.6619 -0.0960 -0.4282
  674MOL0     O88860   7.222   6.864  10.416 -0.8722 -0.0487  0.1483
  674MOL0     C88861   7.136   6.909  10.512  0.7806 -0.4212  0.2340
  674MOL0     C88862   7.110   6.817  10.617 -0.1407 -0.5059 -0.7086
  674MOL0     C88863   7.007   6.850  10.705 -0.4540 -0.1739  0.4238
  674MOL0     C88864   6.932   6.965  10.688  1.1135  1.1909 -0.2217
  674MOL0     C88865   6.821   6.996  10.784 -0.9742  0.5307 -0.0689
  674MOL0     O88866   6.762   7.111  10.758 -0.1175  0.0042  0.3840
  674MOL0     C88867   6.652   7.148  10.827  0.7019  0.1017 -0.7758
  674MOL0     C88868   6.653   7.256  10.915 -0.3599  0.5146  0.6851
  674MOL0     C88869   6.538   7.288  10.991 -0.5608  0.3758 -0.1497
  674MOL0     C88870   6.425   7.207  10.998  1.0315  1.3684  0.3527
  674MOL0     O88871   6.313   7.236  11.079 -0.1075 -0.5820 -0.2904
  674MOL0     C88872   6.309   7.371  11.143  1.4445 -0.0061  0.1784
  674MOL0     C88873   6.165   7.390  11.208 -0.8165  0.1721  0.8263
  674MOL0     C88874   6.067   7.401  11.089  0.8923  0.7407  0.3979
  674MOL0     C88875   5.926   7.460  11.121  0.4949  0.0617  0.3347
  674MOL0     C88876   5.841   7.489  10.996  0.4196  0.4246 -1.3006
  674MOL0     C88877   5.700   7.541  11.021 -1.4488  0.9543 -0.0929
  674MOL0     C88878   5.644   7.571  10.883  0.0745  0.0381  0.9553
  674MOL0     C88879   5.516   7.651  10.888  0.6077  0.1961 -0.7909
  674MOL0    Cl88880   5.400   7.565  10.987 -0.2069 -0.4384 -0.0533
  674MOL0     C88881   6.435   7.090  10.923 -0.6206  0.2566 -0.6081
  674MOL0     C88882   6.534   7.065  10.835  0.0464 -0.3200  0.2528
  674MOL0     O88883   6.809   6.921  10.887  0.3649  0.1424  0.3520
  674MOL0     C88884   6.964   7.055  10.585  0.6502 -0.4528  0.4927
  674MOL0     C88885   7.066   7.026  10.490 -1.1158 -0.1315  0.0824
  674MOL0     N88886   7.800   6.915  10.218  0.0925  0.2429 -0.1121
  674MOL0     N88887   7.886   6.820  10.234  1.2899 -0.3263 -0.2529
  674MOL0     C88888   8.983   6.441  10.110 -0.5801  0.6432  0.9085
  674MOL0     C88889   9.122   6.412  10.123  0.5334 -1.1604 -0.2499
  674MOL0     C88890   9.530   6.362  10.381  0.3196  0.0863  0.4840
  674MOL0     C88891   9.612   6.343  10.272 -0.0216  0.4634  0.6495
  674MOL0     C88892   9.751   6.352  10.289 -0.7121 -0.2398 -0.1811
  674MOL0     C88893   9.811   6.393  10.405  0.7432 -0.4754 -0.3740
  674MOL0     O88894   9.943   6.430  10.433  0.0948  0.1704 -0.5081
  674MOL0     C88895  10.038   6.417  10.323  1.1436  0.1130 -0.5993
  674MOL0     C88896  10.184   6.417  10.365 -0.5303  0.6043 -0.5698
  674MOL0     C88897  10.217   6.536  10.462 -0.3312 -0.0658  0.8805
  674MOL0     C88898  10.355   6.525  10.537 -0.3882 -0.0681 -0.2686
  674MOL0     C88899  10.454   6.502  10.432 -1.1403  0.4234 -0.0609
  674MOL0     C88900  10.526   6.474  10.335  0.1662  0.1161  0.0856
  674MOL0     C88901   9.723   6.400  10.512 -1.0745  0.0341  0.0708
  674MOL0     C88902   9.587   6.381  10.509  0.2504 -0.9467 -0.0010
  674MOL0     H88903   9.138   6.457  10.457  2.6808 -2.9111 -0.1236
  674MOL0     H88904   8.900   6.471  10.434 -0.2153  1.4957 -2.2790
  674MOL0     H88905   8.729   6.484   9.997 -4.2149  1.6997 -2.5385
  674MOL0     H88906   8.768   6.638  10.072  2.2024 -0.5747  2.1913
  674MOL0     H88907   8.514   6.473  10.093  0.9802 -1.0662 -0.0286
  674MOL0     H88908   8.537   6.633  10.025 -1.2611 -0.8982 -2.9444
  674MOL0     H88909   8.593   6.728  10.256  2.1106 -1.1274  2.4401
  674MOL0     H88910   8.551   6.573  10.323  0.5138  2.4191  1.1047
  674MOL0     H88911   8.366   6.736  10.332 -1.2994  0.5888  0.0175
  674MOL0     H88912   8.371   6.754  10.162  0.4665  0.0074  0.4009
  674MOL0     H88913   8.304   6.490  10.297 -2.5937 -1.2301 -0.7482
  674MOL0     H88914   8.299   6.538  10.127 -1.0498 -2.0328  0.5712
  674MOL0     H88915   8.080   6.557  10.208 -0.3903  0.2169 -0.3924
  674MOL0     H88916   8.133   6.728  10.186  0.8071 -0.7558 -0.7409
  674MOL0     H88917   8.145   6.581  10.451 -0.9241  0.8576  1.0189
  674MOL0     H88918   8.136   6.763  10.418  1.3355  0.0386 -1.6439
  674MOL0     H88919   7.933   6.677  10.514  1.6308  1.0917  0.1714
  674MOL0     H88920   7.904   6.570  10.367  0.8042 -1.6181  1.8346
  674MOL0     H88921   7.748   6.842  10.539  0.1773  0.0589 -0.5354
  674MOL0     H88922   7.568   7.052  10.258  1.0846  0.5165  0.1638
  674MOL0     H88923   7.645   7.111  10.410  1.2899 -0.4682 -1.2346
  674MOL0     H88924   7.417   7.028  10.429 -0.6606 -1.2859 -0.7267
  674MOL0     H88925   7.539   6.945  10.541 -1.5930 -2.3361  0.6416
  674MOL0     H88926   7.431   6.844  10.285 -0.5874  2.1427  0.9885
  674MOL0     H88927   7.528   6.750  10.392 -3.3531 -2.5459 -0.0559
  674MOL0     H88928   7.351   6.792  10.569  0.1375  0.3101 -0.3567
  674MOL0     H88929   7.326   6.683  10.426  0.0813  0.1534 -1.0609
  674MOL0     H88930   7.167   6.728  10.640 -1.8978 -0.9077  2.7737
  674MOL0     H88931   6.979   6.770  10.772 -0.8611 -3.0988 -2.9435
  674MOL0     H88932   6.738   7.319  10.940  1.1459 -0.4238 -1.7485
  674MOL0     H88933   6.545   7.365  11.066 -0.1958 -2.8698  3.4389
  674MOL0     H88934   6.343   7.449  11.074  2.4389  0.4823  1.1978
  674MOL0     H88935   6.386   7.377  11.221  2.2972  1.9001 -0.7421
  674MOL0     H88936   6.167   7.478  11.273  2.3125  1.1971 -0.4575
  674MOL0     H88937   6.134   7.303  11.268 -0.5525 -1.2968 -1.0649
  674MOL0     H88938   6.044   7.301  11.051 -0.1862  0.6859  1.1380
  674MOL0     H88939   6.102   7.463  11.006 -0.0150  0.4068 -0.2530
  674MOL0     H88940   5.880   7.387  11.188  3.5749 -2.9740 -0.5254
  674MOL0     H88941   5.941   7.557  11.168  0.5007  0.0717  0.3121
  674MOL0     H88942   5.826   7.395  10.942  0.5101 -0.5715  0.3369
  674MOL0     H88943   5.890   7.566  10.936  0.8094 -1.8294 -4.1128
  674MOL0     H88944   5.699   7.636  11.076  2.2472 -0.9155  3.7694
  674MOL0     H88945   5.646   7.469  11.082  0.5715  0.2138  0.9136
  674MOL0     H88946   5.718   7.622  10.820 -0.6347 -0.8631 -0.6952
  674MOL0     H88947   5.628   7.467  10.850  3.7720 -0.9747  1.8611
  674MOL0     H88948   5.469   7.669  10.791 -0.2697 -1.8862 -0.8137
  674MOL0     H88949   5.535   7.751  10.927 -0.1194  0.5577 -1.3322
  674MOL0     H88950   6.352   7.020  10.927  0.7107 -1.3925  2.5059
  674MOL0     H88951   6.526   6.980  10.768  0.0730  0.8444 -1.3018
  674MOL0     H88952   6.907   7.145  10.568  0.7126 -0.5190 -0.1101
  674MOL0     H88953   7.105   7.092  10.414 -1.3918  1.7120  1.4626
  674MOL0     H88954   8.940   6.450  10.010 -1.1065 -0.7849  0.9812
  674MOL0     H88955   9.178   6.398  10.031  0.6218 -1.3925 -0.1623
  674MOL0     H88956   9.575   6.323  10.172 -1.7700 -0.7921  1.4982
  674MOL0     H88957   9.809   6.350  10.197  2.3533 -0.0644  1.5876
  674MOL0     H88958  10.029   6.508  10.262 -3.9685  1.8052  2.1064
  674MOL0     H88959  10.011   6.323  10.274  1.7080  1.0960 -2.9128
  674MOL0     H88960  10.212   6.321  10.410  0.5659  1.2130  0.0841
  674MOL0     H88961  10.250   6.416  10.277  2.9622 -2.6511  1.7648
  674MOL0     H88962  10.145   6.541  10.545  0.0804 -1.4647  1.3444
  674MOL0     H88963  10.216   6.632  10.410  0.0428  0.1206  1.2150
  674MOL0     H88964  10.381   6.621  10.582  0.0947 -0.1424 -0.3887
  674MOL0     H88965  10.357   6.444  10.611 -3.2567  1.5336  1.7709
  674MOL0     H88966  10.602   6.439  10.267  0.1104 -1.8790  0.9945
  674MOL0     H88967   9.772   6.432  10.604 -0.4444 -2.9913  0.8877
  674MOL0     H88968   9.528   6.401  10.598  1.7844 -1.6812  1.2424
  675MOL0     O88969   4.124   2.535   6.282  0.0898 -0.0053  0.0337
  675MOL0     C88970   4.158   2.429   6.232 -0.2757 -0.5408  0.8774
  675MOL0     O88971   4.065   2.339   6.192  0.7125  0.0314  0.1665
  675MOL0     C88972   3.930   2.384   6.182  0.1504  0.3874 -0.5653
  675MOL0     C88973   3.842   2.441   6.280 -0.4870  0.0031 -0.4089
  675MOL0     C88974   3.707   2.462   6.263  0.6970  0.0531  0.3492
  675MOL0     C88975   3.653   2.438   6.132  0.1843 -0.3735  0.5561
  675MOL0     O88976   3.518   2.448   6.096 -0.3115  0.4721  0.4391
  675MOL0     C88977   3.419   2.459   6.192  0.3285 -0.1207  0.3243
  675MOL0     C88978   3.282   2.404   6.125  0.2067  0.5518  0.9818
  675MOL0     C88979   3.154   2.381   6.197 -0.9853 -0.2215  0.5701
  675MOL0     C88980   3.037   2.319   6.115 -0.7120 -0.4832  0.8311
  675MOL0     C88981   2.906   2.327   6.204 -0.4454  0.0514  0.4883
  675MOL0     C88982   2.786   2.268   6.120  0.4826 -0.5406 -0.6246
  675MOL0     C88983   2.654   2.281   6.195 -0.0845  0.3830 -0.1131
  675MOL0     C88984   2.636   2.144   6.268 -0.3187  1.0289 -0.3163
  675MOL0     N88985   2.511   2.153   6.343  0.4458 -0.4705 -0.1744
  675MOL0     C88986   2.387   2.149   6.285 -0.2743  0.6139  0.2293
  675MOL0     C88987   2.296   2.168   6.381 -0.2628 -0.1138 -0.3794
  675MOL0     C88988   2.152   2.175   6.376  0.7128 -0.7310 -0.2045
  675MOL0     C88989   2.098   2.318   6.370  0.4605 -0.3423  0.6266
  675MOL0     C88990   1.946   2.348   6.393 -0.1650 -0.1286 -0.4329
  675MOL0     C88991   1.869   2.272   6.287  0.1131 -0.0894  0.3187
  675MOL0     O88992   1.816   2.380   6.200  0.4429 -0.1469 -0.4794
  675MOL0     C88993   1.681   2.374   6.187 -0.5160  0.6119  1.1637
  675MOL0     C88994   1.599   2.458   6.267 -1.2342  0.4711  0.3626
  675MOL0     C88995   1.464   2.455   6.277 -0.0332  0.3242  0.6140
  675MOL0     C88996   1.393   2.362   6.201  0.0533  0.3384  0.3744
  675MOL0     C88997   1.245   2.369   6.200 -0.1072  0.4593  0.1937
  675MOL0     O88998   1.185   2.252   6.146  0.2648 -0.5085  0.5614
  675MOL0     C88999   1.050   2.268   6.135 -0.2058  1.3955 -0.2969
  675MOL0     C89000   0.966   2.240   6.242  0.1809  0.2586 -0.3518
  675MOL0     C89001   0.827   2.240   6.231 -0.7881  0.4180  0.6538
  675MOL0     C89002   0.764   2.275   6.112 -0.3985  0.6314 -0.1710
  675MOL0     O89003   0.625   2.264   6.113 -0.0072  0.0010  0.6808
  675MOL0     C89004   0.555   2.342   6.013  0.1618 -0.4330  0.1592
  675MOL0     C89005   0.410   2.296   6.011 -0.6116 -0.0780 -0.2205
  675MOL0     C89006   0.402   2.144   6.002 -0.2648  0.0171 -1.6389
  675MOL0     C89007   0.274   2.097   5.955  0.5745  0.8277  0.5405
  675MOL0     C89008   0.157   2.116   6.048  0.2710  0.2567  0.0068
  675MOL0     C89009   0.019   2.079   5.982  0.4480 -0.3010 -0.4429
  675MOL0     C89010  -0.092   2.074   6.095 -0.3986  0.0853  0.3042
  675MOL0     C89011  -0.223   2.060   6.028  0.1903  0.2727  0.5457
  675MOL0    Cl89012  -0.333   2.029   6.162  0.0145  0.0825  0.1360
  675MOL0     C89013   0.850   2.311   5.999  0.0684 -0.1916  0.3123
  675MOL0     C89014   0.993   2.305   6.010  0.6607 -0.3856  0.2168
  675MOL0     O89015   1.191   2.463   6.252  0.1455 -0.4197  0.7538
  675MOL0     C89016   1.470   2.276   6.115  0.2581 -0.8360 -0.4645
  675MOL0     C89017   1.609   2.285   6.104 -0.8409 -0.2700 -0.0882
  675MOL0     N89018   2.366   2.181   6.505 -0.1243  0.0571  0.0437
  675MOL0     N89019   2.497   2.166   6.478  0.9773  0.7468 -0.3705
  675MOL0     C89020   3.734   2.373   6.039 -0.2100 -0.0086  1.2167
  675MOL0     C89021   3.871   2.355   6.060 -0.6886  0.8932 -0.1963
  675MOL0     C89022   4.305   2.390   6.228  0.3255  0.7104  0.3252
  675MOL0     C89023   4.406   2.493   6.246  0.2349  0.5605 -0.6524
  675MOL0     C89024   4.539   2.444   6.231 -0.1900  0.9374  0.1623
  675MOL0     C89025   4.578   2.307   6.212  0.6811 -0.5496 -1.5687
  675MOL0     O89026   4.702   2.263   6.216 -0.1571 -0.1825  0.4092
  675MOL0     C89027   4.810   2.360   6.213 -0.8884  0.3348  0.2345
  675MOL0     C89028   4.936   2.275   6.227  0.9199  0.5479  0.7312
  675MOL0     C89029   5.063   2.357   6.213 -1.4075 -0.0808 -0.2980
  675MOL0     C89030   5.155   2.336   6.087  0.4114  0.1670 -0.1319
  675MOL0     C89031   5.290   2.379   6.105  0.2506 -0.7041  0.0439
  675MOL0     C89032   5.402   2.422   6.113 -0.2267 -0.3347  0.3658
  675MOL0     C89033   4.481   2.209   6.210  0.1624  0.0401  0.5511
  675MOL0     C89034   4.350   2.251   6.211  1.3840 -0.2065 -0.5025
  675MOL0     H89035   3.884   2.465   6.377  2.4992 -0.6785 -1.4257
  675MOL0     H89036   3.645   2.516   6.334 -1.5269 -1.2775 -0.4616
  675MOL0     H89037   3.393   2.559   6.226  0.8554 -0.7047  2.6141
  675MOL0     H89038   3.442   2.401   6.282  0.6881 -3.0322 -1.5043
  675MOL0     H89039   3.305   2.310   6.074 -1.4918  0.4319  0.3853
  675MOL0     H89040   3.257   2.467   6.039 -0.5984 -0.3671  0.5257
  675MOL0     H89041   3.111   2.473   6.238 -0.2624 -1.2763  4.0495
  675MOL0     H89042   3.167   2.315   6.283 -0.6783 -2.2640 -0.9623
  675MOL0     H89043   3.017   2.373   6.022  0.5397 -0.7395  0.3924
  675MOL0     H89044   3.081   2.221   6.092 -0.4551 -0.2259  0.2093
  675MOL0     H89045   2.879   2.427   6.240 -2.1257 -1.0658  2.5507
  675MOL0     H89046   2.921   2.255   6.284 -0.4662  0.6342  1.0273
  675MOL0     H89047   2.797   2.164   6.087 -2.7158 -1.2653  0.2275
  675MOL0     H89048   2.769   2.325   6.028  2.7931  1.8981  0.3325
  675MOL0     H89049   2.658   2.370   6.259  0.5771 -0.2685  0.7797
  675MOL0     H89050   2.570   2.300   6.129  0.3901 -1.0385 -1.1889
  675MOL0     H89051   2.723   2.128   6.333  2.2518  2.1261 -3.2088
  675MOL0     H89052   2.633   2.062   6.196  1.7175 -0.3172  1.0354
  675MOL0     H89053   2.357   2.127   6.183 -2.8712 -3.8662  1.6855
  675MOL0     H89054   2.121   2.141   6.475  0.0698  1.3077  0.3349
  675MOL0     H89055   2.111   2.108   6.299 -2.5603  2.3148 -1.3701
  675MOL0     H89056   2.126   2.365   6.275 -0.4518 -0.2491  0.3933
  675MOL0     H89057   2.152   2.376   6.445  0.0810  0.7946  0.0589
  675MOL0     H89058   1.912   2.315   6.492 -1.7148 -0.2968 -0.9880
  675MOL0     H89059   1.935   2.457   6.389  2.0664  0.1347 -0.4523
  675MOL0     H89060   1.794   2.205   6.331 -1.0482  0.0431 -1.3847
  675MOL0     H89061   1.923   2.206   6.218  0.4967 -2.0416  2.3407
  675MOL0     H89062   1.654   2.535   6.320  2.2546  1.1328 -3.6561
  675MOL0     H89063   1.416   2.532   6.338 -2.4667  0.5085 -1.3954
  675MOL0     H89064   1.003   2.209   6.339 -1.8695  0.8054  0.6637
  675MOL0     H89065   0.777   2.224   6.326  0.1393  0.4647  1.1630
  675MOL0     H89066   0.600   2.330   5.914  0.1659  1.6642 -0.1302
  675MOL0     H89067   0.563   2.449   6.031 -0.7441 -0.3179 -0.0668
  675MOL0     H89068   0.355   2.348   5.932 -1.3913  0.0121  0.3700
  675MOL0     H89069   0.357   2.340   6.096 -0.0808  3.5772 -1.5990
  675MOL0     H89070   0.407   2.112   6.107 -0.6888  2.3965 -0.8281
  675MOL0     H89071   0.479   2.097   5.940 -0.9546 -1.6142 -1.3167
  675MOL0     H89072   0.252   2.144   5.859 -1.1799 -1.3482 -0.2266
  675MOL0     H89073   0.281   1.990   5.934 -2.4529  0.4637  0.8215
  675MOL0     H89074   0.158   2.220   6.083  0.2679 -0.4360  2.1726
  675MOL0     H89075   0.174   2.051   6.134  1.4622  1.6678  0.8819
  675MOL0     H89076   0.017   1.978   5.941  1.1312  0.4339 -2.4136
  675MOL0     H89077  -0.011   2.143   5.898  4.2428  2.3908 -0.0051
  675MOL0     H89078  -0.077   1.985   6.155 -2.8284 -0.7272 -0.1991
  675MOL0     H89079  -0.101   2.166   6.154 -1.4108 -1.4679  2.7251
  675MOL0     H89080  -0.227   1.969   5.968 -1.3604 -0.0588  1.0995
  675MOL0     H89081  -0.241   2.150   5.969  2.8490  1.8605  1.9498
  675MOL0     H89082   0.811   2.337   5.901  2.2434 -3.1100 -1.4538
  675MOL0     H89083   1.058   2.335   5.929  1.5035  2.4260  1.8034
  675MOL0     H89084   1.406   2.209   6.058  3.2151 -2.1983 -2.3883
  675MOL0     H89085   1.660   2.214   6.041 -2.3154 -1.0272 -0.4675
  675MOL0     H89086   3.701   2.350   5.939  1.2786 -0.7435  0.8706
  675MOL0     H89087   3.926   2.308   5.979  1.3799  2.1704  0.3743
  675MOL0     H89088   4.375   2.593   6.274 -1.4310 -0.8056  2.9945
  675MOL0     H89089   4.614   2.522   6.235  0.6869  0.1237  0.0862
  675MOL0     H89090   4.796   2.433   6.293 -3.2350 -0.0072  0.2137
  675MOL0     H89091   4.821   2.420   6.122  0.5667  2.5384  1.7759
  675MOL0     H89092   4.924   2.216   6.318 -1.3174  2.1202  1.5535
  675MOL0     H89093   4.941   2.193   6.154 -1.2745  1.4978 -0.6000
  675MOL0     H89094   5.125   2.344   6.302 -0.9935 -2.0887 -0.8483
  675MOL0     H89095   5.027   2.460   6.223 -1.9171 -0.3471  0.7898
  675MOL0     H89096   5.157   2.229   6.063 -0.6083 -0.3558  1.9132
  675MOL0     H89097   5.114   2.389   6.000  0.7788 -0.3256 -0.6143
  675MOL0     H89098   5.498   2.470   6.115  0.7177 -2.1707  0.7656
  675MOL0     H89099   4.515   2.108   6.190  0.9865  0.4235 -0.0425
  675MOL0     H89100   4.280   2.170   6.196  1.8784 -0.5563 -0.9306
  676MOL0     O89101   0.081   5.390   0.685  0.3488 -0.5258  0.1618
  676MOL0     C89102   0.133   5.370   0.573  0.5467  0.3759 -0.5005
  676MOL0     O89103   0.074   5.379   0.462 -0.2628  0.5979  0.4607
  676MOL0     C89104  -0.066   5.390   0.455 -0.4277 -0.4692 -0.5853
  676MOL0     C89105  -0.156   5.307   0.516 -0.3985 -0.1798 -0.2288
  676MOL0     C89106  -0.288   5.306   0.490  0.0382  0.1725  0.2389
  676MOL0     C89107  -0.340   5.390   0.390  0.0313 -0.4658 -0.6283
  676MOL0     O89108  -0.471   5.393   0.342 -0.1913 -0.4017 -0.1736
  676MOL0     C89109  -0.569   5.323   0.419  0.6656  0.4811  0.2430
  676MOL0     C89110  -0.703   5.356   0.345 -0.0632  0.7394 -0.4520
  676MOL0     C89111  -0.809   5.288   0.435 -0.1775  0.6460 -0.1947
  676MOL0     C89112  -0.949   5.336   0.396 -0.7174  0.5918  1.4163
  676MOL0     C89113  -1.043   5.342   0.514  0.0012  0.6753 -0.9513
  676MOL0     C89114  -1.062   5.208   0.584  0.7120 -0.3158  0.2937
  676MOL0     C89115  -1.188   5.201   0.664  0.0385 -0.4366 -0.5347
  676MOL0     C89116  -1.318   5.197   0.577  1.6088 -0.0531  1.2023
  676MOL0     N89117  -1.437   5.137   0.644 -0.3281 -1.1350 -0.2751
  676MOL0     C89118  -1.470   5.150   0.778  0.4116 -0.3122  0.2498
  676MOL0     C89119  -1.589   5.082   0.784 -1.1571 -0.2697 -0.2941
  676MOL0     C89120  -1.664   5.052   0.907 -0.1200 -0.1396  0.8854
  676MOL0     C89121  -1.785   5.135   0.917 -0.2440 -0.5759 -0.1042
  676MOL0     C89122  -1.881   5.088   1.033  0.5873  0.1903  0.5928
  676MOL0     C89123  -2.011   5.164   1.023 -0.9402  0.2220 -0.4653
  676MOL0     O89124  -2.111   5.100   0.945  0.8542  0.3154  0.0408
  676MOL0     C89125  -2.243   5.148   0.951 -0.1062 -0.4801 -0.3104
  676MOL0     C89126  -2.294   5.246   1.032  0.7819  0.3550 -0.2162
  676MOL0     C89127  -2.433   5.285   1.026 -0.4087  0.2566 -0.2852
  676MOL0     C89128  -2.521   5.216   0.943 -0.0756  0.3336 -0.6107
  676MOL0     C89129  -2.663   5.250   0.948  0.1014  0.6042 -0.6265
  676MOL0     O89130  -2.740   5.185   0.853 -0.1110  0.0322  0.5661
  676MOL0     C89131  -2.878   5.204   0.859 -0.0970  0.4601  0.8060
  676MOL0     C89132  -2.948   5.255   0.749  0.4880  0.8432  0.2940
  676MOL0     C89133  -3.086   5.271   0.763  0.0747  0.0916 -0.3361
  676MOL0     C89134  -3.154   5.257   0.886  0.1337 -0.0458 -0.6247
  676MOL0     O89135  -3.292   5.291   0.885  0.0924  0.0833 -0.0168
  676MOL0     C89136  -3.358   5.300   1.014 -0.2926 -0.0141  0.0125
  676MOL0     C89137  -3.473   5.405   1.015 -0.9999 -0.1010 -0.3246
  676MOL0     C89138  -3.572   5.405   0.895  0.6854  0.1731 -0.0002
  676MOL0     C89139  -3.661   5.277   0.902 -0.4883 -0.0925  0.0398
  676MOL0     C89140  -3.789   5.311   0.819  0.2080  0.3748 -0.4447
  676MOL0     C89141  -3.888   5.186   0.816 -0.0784 -1.1124 -0.2831
  676MOL0     C89142  -4.025   5.212   0.744 -0.4190 -0.3513 -0.1514
  676MOL0     C89143  -4.123   5.096   0.766  0.0238 -0.2735  0.2907
  676MOL0    Cl89144  -4.168   5.085   0.943 -0.3472 -0.2666  0.8085
  676MOL0     C89145  -3.081   5.214   1.001 -0.3385  0.0025  0.4549
  676MOL0     C89146  -2.948   5.180   0.983 -0.5913 -0.0119  0.8935
  676MOL0     O89147  -2.708   5.330   1.032 -0.1782 -0.4118  0.6104
  676MOL0     C89148  -2.466   5.105   0.869 -0.0287  0.2672 -0.4147
  676MOL0     C89149  -2.330   5.075   0.878  0.3046 -0.2279  0.6064
  676MOL0     N89150  -1.619   5.029   0.661 -0.0274 -0.6443  0.2203
  676MOL0     N89151  -1.527   5.067   0.571  0.1953 -0.4326 -0.3530
  676MOL0     C89152  -0.250   5.472   0.316  0.4702  0.3040  0.2458
  676MOL0     C89153  -0.116   5.462   0.349  0.5672 -0.3977  0.6199
  676MOL0     C89154   0.275   5.348   0.576 -0.5884  0.5421 -0.0839
  676MOL0     C89155   0.353   5.302   0.470 -1.0312 -0.0527 -0.7154
  676MOL0     C89156   0.496   5.282   0.483  0.5447  0.1774 -0.0095
  676MOL0     C89157   0.563   5.297   0.605  0.5798 -0.4509  0.1321
  676MOL0     O89158   0.704   5.279   0.615 -0.1703  0.0916 -0.5898
  676MOL0     C89159   0.760   5.242   0.742 -0.4471 -0.1196  0.4818
  676MOL0     C89160   0.907   5.201   0.729 -0.5320  0.7067  0.1168
  676MOL0     C89161   0.955   5.144   0.865  0.5217  0.5824  0.0739
  676MOL0     C89162   1.083   5.072   0.852 -0.4500  0.0683  0.0321
  676MOL0     C89163   1.172   5.163   0.787  0.1790  0.1104 -0.1280
  676MOL0     C89164   1.245   5.233   0.724 -0.2213 -0.6283 -0.8855
  676MOL0     C89165   0.475   5.338   0.708 -0.1187  0.2521 -0.4972
  676MOL0     C89166   0.343   5.367   0.697  1.0777  0.0503  0.1179
  676MOL0     H89167  -0.113   5.232   0.582  2.6715  2.6856  1.3795
  676MOL0     H89168  -0.355   5.237   0.540  1.2621  0.0207  1.7192
  676MOL0     H89169  -0.575   5.357   0.523 -0.2456  1.6561 -0.1693
  676MOL0     H89170  -0.557   5.214   0.416 -0.7588  0.3295 -1.0031
  676MOL0     H89171  -0.705   5.312   0.245 -0.0360  1.5078 -0.7948
  676MOL0     H89172  -0.723   5.463   0.333 -3.4605  0.4078  1.0881
  676MOL0     H89173  -0.795   5.326   0.537  2.3005  0.9983 -0.6101
  676MOL0     H89174  -0.791   5.180   0.440  1.4845  0.9413  1.0698
  676MOL0     H89175  -0.937   5.436   0.353 -3.0925 -0.3619 -1.9114
  676MOL0     H89176  -0.990   5.274   0.316  1.5611 -1.3621  1.6435
  676MOL0     H89177  -1.144   5.380   0.495 -0.7377 -0.9057 -0.4481
  676MOL0     H89178  -0.989   5.401   0.588  0.8600  1.3834 -2.1146
  676MOL0     H89179  -0.973   5.183   0.643  0.8233 -0.8816 -0.1033
  676MOL0     H89180  -1.072   5.135   0.503 -3.2711  2.0365 -1.6156
  676MOL0     H89181  -1.187   5.108   0.721  1.4120 -0.3330 -0.3585
  676MOL0     H89182  -1.194   5.287   0.731  2.8361 -2.0546  2.0684
  676MOL0     H89183  -1.306   5.142   0.483 -2.8703  0.1419  0.3047
  676MOL0     H89184  -1.341   5.301   0.552 -2.1685 -0.9016  0.5938
  676MOL0     H89185  -1.417   5.216   0.846 -0.7041  2.6835 -1.5681
  676MOL0     H89186  -1.607   5.072   0.998 -0.6011 -2.1601  1.6784
  676MOL0     H89187  -1.686   4.945   0.897  0.8950 -0.1395 -3.2598
  676MOL0     H89188  -1.839   5.137   0.822 -0.1521  0.9545 -0.1498
  676MOL0     H89189  -1.757   5.239   0.936 -0.8936 -0.2125 -1.0616
  676MOL0     H89190  -1.901   4.981   1.027  3.1983 -0.3866  1.0606
  676MOL0     H89191  -1.838   5.102   1.133  0.4799  2.1832  0.4108
  676MOL0     H89192  -2.008   5.265   0.981 -2.0631  0.3051 -0.3576
  676MOL0     H89193  -2.047   5.170   1.126  3.2775  3.2550  1.1289
  676MOL0     H89194  -2.213   5.293   1.087 -0.4748  1.7844  0.5138
  676MOL0     H89195  -2.459   5.361   1.099  0.8746  0.6756 -0.2288
  676MOL0     H89196  -2.897   5.264   0.653 -0.9551 -0.0038 -0.5894
  676MOL0     H89197  -3.152   5.296   0.681 -0.6792  0.3476  0.3374
  676MOL0     H89198  -3.284   5.329   1.089  0.6256 -4.3575  1.0512
  676MOL0     H89199  -3.395   5.206   1.055  2.0307 -1.2667 -0.5763
  676MOL0     H89200  -3.405   5.490   1.016  2.9261 -2.9483 -0.3468
  676MOL0     H89201  -3.520   5.401   1.114 -1.9848 -0.3646 -0.7930
  676MOL0     H89202  -3.512   5.415   0.804  0.9243  1.1041  0.2400
  676MOL0     H89203  -3.631   5.496   0.910 -0.1768 -0.5240  0.9812
  676MOL0     H89204  -3.619   5.191   0.849 -0.4648  0.7829 -1.4313
  676MOL0     H89205  -3.697   5.255   1.003 -2.2497  1.5576 -0.1538
  676MOL0     H89206  -3.777   5.345   0.716 -2.0451  0.8580 -0.5937
  676MOL0     H89207  -3.849   5.391   0.863 -0.2763 -0.1205 -0.1976
  676MOL0     H89208  -3.910   5.157   0.919 -2.0311 -2.9070 -1.1405
  676MOL0     H89209  -3.842   5.103   0.762 -2.4273 -3.3450  0.9389
  676MOL0     H89210  -4.083   5.302   0.767 -0.0301  0.7741 -3.1617
  676MOL0     H89211  -4.004   5.212   0.637  1.2297 -0.3168  0.1474
  676MOL0     H89212  -4.082   5.003   0.723 -1.8378 -0.9921 -0.0286
  676MOL0     H89213  -4.219   5.109   0.716 -1.0703  1.5320  2.7389
  676MOL0     H89214  -3.130   5.202   1.097  1.6386  0.1022  1.5235
  676MOL0     H89215  -2.899   5.147   1.074 -0.2466  1.5024  1.2827
  676MOL0     H89216  -2.522   5.038   0.805  4.1837 -4.6262  0.4332
  676MOL0     H89217  -2.281   5.001   0.815  0.0801  0.4349 -0.3615
  676MOL0     H89218  -0.288   5.539   0.240 -3.9914 -0.7101  1.2426
  676MOL0     H89219  -0.048   5.528   0.295 -0.3399  1.0749  1.2062
  676MOL0     H89220   0.314   5.293   0.369  0.9214 -0.6760 -1.4466
  676MOL0     H89221   0.555   5.255   0.396  2.3194  2.7488  0.2618
  676MOL0     H89222   0.696   5.170   0.793 -2.5385  2.6054  2.0006
  676MOL0     H89223   0.749   5.331   0.805 -1.6893 -0.1349  0.3118
  676MOL0     H89224   0.921   5.135   0.643  1.2320  0.4478  0.5725
  676MOL0     H89225   0.973   5.285   0.706  1.4717 -0.2044  2.1545
  676MOL0     H89226   0.882   5.074   0.906  0.4549  0.0497 -0.9103
  676MOL0     H89227   0.974   5.227   0.933  4.0787  0.8394 -1.0200
  676MOL0     H89228   1.131   5.040   0.945  0.4621 -1.6428 -0.9685
  676MOL0     H89229   1.074   4.980   0.794  0.1095  0.1003 -0.1114
  676MOL0     H89230   1.298   5.305   0.666 -0.5449  2.5026  2.3282
  676MOL0     H89231   0.517   5.344   0.808 -0.6768 -0.4697 -0.2105
  676MOL0     H89232   0.298   5.385   0.794  3.7403 -2.0985  1.8978
  677MOL0     O89233   4.844   7.790   6.357 -0.5293  0.1198 -0.3829
  677MOL0     C89234   4.815   7.864   6.260 -0.4733  0.3835  0.4172
  677MOL0     O89235   4.902   7.938   6.184  0.6929  0.2739  0.0287
  677MOL0     C89236   5.027   7.914   6.213 -0.3861  0.9818 -0.5484
  677MOL0     C89237   5.089   7.815   6.135 -0.0450  0.5255 -0.7947
  677MOL0     C89238   5.224   7.795   6.165  0.2528  0.2417 -0.2344
  677MOL0     C89239   5.291   7.868   6.266  0.9452  0.4148  0.0488
  677MOL0     O89240   5.428   7.839   6.277  0.0001 -0.0689 -0.0747
  677MOL0     C89241   5.514   7.924   6.352 -0.5663 -0.6399  0.1878
  677MOL0     C89242   5.662   7.886   6.350  0.1792 -0.5308 -0.1251
  677MOL0     C89243   5.747   7.996   6.416  0.4180 -1.3061  0.2539
  677MOL0     C89244   5.897   7.981   6.403 -0.8923  0.4058  0.3803
  677MOL0     C89245   5.950   7.856   6.479  0.0081 -0.1662  0.0499
  677MOL0     C89246   6.100   7.847   6.459  0.0297  0.1231 -0.3288
  677MOL0     C89247   6.204   7.923   6.539 -0.2459  0.2591  0.0916
  677MOL0     C89248   6.336   7.948   6.476 -0.1992  0.5158  0.0702
  677MOL0     N89249   6.337   8.002   6.335  0.1318 -0.3389 -0.0518
  677MOL0     C89250   6.259   8.095   6.266  0.2417 -0.0638 -0.0378
  677MOL0     C89251   6.301   8.085   6.136  0.7432 -1.1552 -0.0352
  677MOL0     C89252   6.257   8.185   6.034  0.0610 -0.6097  0.4734
  677MOL0     C89253   6.107   8.236   6.034  0.3650  0.7133 -0.0846
  677MOL0     C89254   6.014   8.109   6.026  0.4373  0.3108 -0.4181
  677MOL0     C89255   5.871   8.148   6.037  0.9573  0.1534  0.3044
  677MOL0     O89256   5.781   8.041   6.018 -0.0161  0.3648 -0.8077
  677MOL0     C89257   5.647   8.077   6.014  0.4593 -0.1007  0.0517
  677MOL0     C89258   5.593   8.202   6.046  0.3075 -0.7264  0.3837
  677MOL0     C89259   5.467   8.240   6.011 -0.7062  0.6577 -0.0463
  677MOL0     C89260   5.373   8.143   5.954  0.0751 -0.4697 -0.9230
  677MOL0     C89261   5.243   8.189   5.894  0.0144 -0.0123  0.2814
  677MOL0     O89262   5.149   8.096   5.853  0.2784 -0.1334 -0.5909
  677MOL0     C89263   5.017   8.120   5.819  0.2913 -0.3363 -0.1858
  677MOL0     C89264   4.955   8.008   5.777  0.0431  0.5085 -0.3359
  677MOL0     C89265   4.820   7.992   5.757 -0.4347 -0.4510  0.2401
  677MOL0     C89266   4.742   8.108   5.761 -0.6690 -0.2983 -0.1285
  677MOL0     O89267   4.610   8.095   5.726  0.0485 -0.0645  0.1343
  677MOL0     C89268   4.546   8.219   5.689  0.4660 -0.2550 -0.2328
  677MOL0     C89269   4.414   8.190   5.617  0.2918  0.4509  0.3524
  677MOL0     C89270   4.302   8.148   5.707  0.7898 -0.7241 -0.2634
  677MOL0     C89271   4.177   8.117   5.627  0.4101  0.7547 -1.0019
  677MOL0     C89272   4.072   8.039   5.718 -0.1589 -1.3654  0.2335
  677MOL0     C89273   3.931   8.056   5.671  0.0322  0.4324 -0.4974
  677MOL0     C89274   3.870   8.198   5.677  0.0122 -0.3998 -0.2231
  677MOL0     C89275   3.723   8.180   5.696  0.5985  0.0545 -0.2617
  677MOL0    Cl89276   3.642   8.093   5.553 -0.3739  0.2192  0.3924
  677MOL0     C89277   4.802   8.226   5.807 -0.3200 -0.5405  0.2917
  677MOL0     C89278   4.939   8.235   5.838  0.6457  0.2026  0.5852
  677MOL0     O89279   5.223   8.309   5.903  0.1044  0.5114  0.4078
  677MOL0     C89280   5.415   8.016   5.952 -0.0296  0.9702 -0.2158
  677MOL0     C89281   5.549   7.978   5.979  0.0643  0.2658  0.5791
  677MOL0     N89282   6.403   8.000   6.127 -0.1574  0.2380 -0.0176
  677MOL0     N89283   6.422   7.943   6.241  0.7124 -0.1833  0.5907
  677MOL0     C89284   5.219   7.963   6.342  0.8705  0.7681 -0.2362
  677MOL0     C89285   5.083   7.984   6.323  0.4974  0.3393  0.5283
  677MOL0     C89286   4.668   7.860   6.211 -0.7072 -0.6366 -0.1066
  677MOL0     C89287   4.635   7.884   6.078 -0.7569 -0.4337 -0.3034
  677MOL0     C89288   4.507   7.870   6.035 -0.4461  0.0661 -0.0353
  677MOL0     C89289   4.402   7.839   6.120  0.3005  0.2240  0.2139
  677MOL0     O89290   4.270   7.828   6.077  0.5564  0.3009  0.5164
  677MOL0     C89291   4.239   7.783   5.940  0.1462 -0.4195  0.0451
  677MOL0     C89292   4.095   7.734   5.926 -0.6627 -0.8166 -0.9030
  677MOL0     C89293   3.992   7.831   5.982 -0.1871 -1.4162 -0.4190
  677MOL0     C89294   3.855   7.764   5.986  0.0030  0.2676  0.0908
  677MOL0     C89295   3.745   7.865   6.012  0.4031  0.3088  0.2897
  677MOL0     C89296   3.655   7.940   6.010 -0.0983  0.8051  1.1078
  677MOL0     C89297   4.438   7.823   6.255  0.1824 -0.4594 -0.0123
  677MOL0     C89298   4.567   7.822   6.303  0.7482 -0.3955  1.0466
  677MOL0     H89299   5.031   7.758   6.063 -2.7020 -0.9502  2.2418
  677MOL0     H89300   5.291   7.741   6.099  0.5254  1.2452 -0.8011
  677MOL0     H89301   5.476   7.929   6.455 -0.8444  3.3369  0.0451
  677MOL0     H89302   5.500   8.024   6.312  2.6208 -0.5982 -1.1244
  677MOL0     H89303   5.690   7.866   6.246  1.1621 -0.8190  0.1854
  677MOL0     H89304   5.665   7.788   6.399 -3.0475 -1.2002 -1.0136
  677MOL0     H89305   5.727   8.008   6.522 -2.1756 -1.5647 -0.1364
  677MOL0     H89306   5.708   8.081   6.358 -1.1663 -2.7534 -0.9284
  677MOL0     H89307   5.924   7.973   6.298  0.2624 -0.8067  0.7385
  677MOL0     H89308   5.949   8.068   6.445 -0.6284 -0.4955  2.0202
  677MOL0     H89309   5.907   7.766   6.433 -0.3144  0.3696 -0.7234
  677MOL0     H89310   5.928   7.863   6.585  2.1020  1.7244  0.4284
  677MOL0     H89311   6.116   7.874   6.354 -0.7596 -0.5648 -0.6343
  677MOL0     H89312   6.120   7.740   6.467 -3.2316 -0.5322  0.5835
  677MOL0     H89313   6.163   8.022   6.560  0.5904  0.5961  0.1635
  677MOL0     H89314   6.221   7.874   6.635  1.5187  0.7443  0.0556
  677MOL0     H89315   6.382   7.850   6.463 -2.7660 -0.8861  0.9363
  677MOL0     H89316   6.391   8.008   6.549 -0.6323 -2.1291  2.7742
  677MOL0     H89317   6.187   8.159   6.315  1.7200  0.0301  2.2114
  677MOL0     H89318   6.276   8.147   5.933 -1.7601 -0.7299  0.1436
  677MOL0     H89319   6.309   8.281   6.040  0.5951 -0.7522 -1.3341
  677MOL0     H89320   6.089   8.294   5.943  0.9369  1.0334  0.0030
  677MOL0     H89321   6.086   8.286   6.129  0.3503 -1.8135  1.3258
  677MOL0     H89322   6.025   8.067   5.926 -2.4784  0.6003 -0.9480
  677MOL0     H89323   6.037   8.031   6.099  0.5175  0.3137 -0.4397
  677MOL0     H89324   5.852   8.230   5.966 -0.7196 -2.9722 -3.2305
  677MOL0     H89325   5.862   8.187   6.138 -2.4349  1.4133 -0.3673
  677MOL0     H89326   5.652   8.287   6.078  1.2953 -1.1579 -0.2348
  677MOL0     H89327   5.443   8.344   6.032  1.3224  0.8641  1.5072
  677MOL0     H89328   5.007   7.912   5.777 -2.8287 -1.1580  0.8856
  677MOL0     H89329   4.778   7.898   5.725  0.4656 -0.3507 -1.4106
  677MOL0     H89330   4.600   8.287   5.621  0.1614  2.1205  1.7679
  677MOL0     H89331   4.528   8.272   5.783 -4.8481 -1.4553 -0.2663
  677MOL0     H89332   4.454   8.116   5.547  0.0143  1.7349 -1.2380
  677MOL0     H89333   4.384   8.271   5.549  0.0790 -1.5377 -2.0431
  677MOL0     H89334   4.284   8.229   5.779  1.0213  0.6650 -1.7188
  677MOL0     H89335   4.342   8.061   5.760  0.5240 -0.9211 -0.3816
  677MOL0     H89336   4.143   8.211   5.583 -1.1957  1.4743  1.5822
  677MOL0     H89337   4.202   8.050   5.544  0.1325 -0.7951  0.1300
  677MOL0     H89338   4.078   8.089   5.815  0.7717  0.8741 -0.8875
  677MOL0     H89339   4.094   7.932   5.719  0.2597 -1.2948 -0.5275
  677MOL0     H89340   3.871   7.985   5.729 -0.2643  2.4349  1.8202
  677MOL0     H89341   3.937   8.022   5.567  2.4488  2.1436 -0.9995
  677MOL0     H89342   3.911   8.249   5.765 -0.2276  0.0525 -0.3698
  677MOL0     H89343   3.888   8.265   5.593 -0.1646 -1.3556 -1.0432
  677MOL0     H89344   3.669   8.269   5.730 -0.6875 -1.5623  2.2244
  677MOL0     H89345   3.719   8.107   5.777 -2.4290  0.2287 -0.1264
  677MOL0     H89346   4.750   8.322   5.814  1.4307  0.4430  0.4192
  677MOL0     H89347   4.990   8.328   5.865  4.0703 -0.9995 -1.0935
  677MOL0     H89348   5.341   7.942   5.923 -1.2796  2.0499  0.1622
  677MOL0     H89349   5.581   7.874   5.973  1.8703  0.6535  2.2631
  677MOL0     H89350   5.262   8.014   6.427 -3.0624  0.9144  1.9475
  677MOL0     H89351   5.030   8.061   6.378  2.5173  2.3814 -0.2587
  677MOL0     H89352   4.711   7.918   6.009  1.2025 -3.2987  0.2828
  677MOL0     H89353   4.496   7.885   5.928  1.4650 -1.3109 -0.4661
  677MOL0     H89354   4.303   7.701   5.908  1.7300  1.3496 -1.4886
  677MOL0     H89355   4.260   7.871   5.879 -0.0075  0.0369  0.6349
  677MOL0     H89356   4.069   7.702   5.825 -1.5744 -0.4937 -0.7792
  677MOL0     H89357   4.087   7.646   5.990 -0.4801  1.9466  3.3277
  677MOL0     H89358   3.992   7.921   5.920 -2.2783 -0.4589  0.8814
  677MOL0     H89359   4.024   7.860   6.083  0.6559 -0.1263 -1.0187
  677MOL0     H89360   3.842   7.724   5.885  0.7067  1.4362 -0.4897
  677MOL0     H89361   3.852   7.687   6.063  1.8637 -0.9176 -0.9450
  677MOL0     H89362   3.585   8.015   5.978 -0.9766  0.4054  2.0597
  677MOL0     H89363   4.365   7.816   6.336  1.1258 -3.6717  0.7380
  677MOL0     H89364   4.591   7.797   6.406  1.5917 -4.1467  0.0942
  678MOL0     O89365   0.038   0.875   3.843 -0.0924  0.6900  0.2120
  678MOL0     C89366   0.067   0.837   3.956 -0.4967 -0.3128  0.9325
  678MOL0     O89367  -0.014   0.779   4.046  0.7551 -0.0381  0.4554
  678MOL0     C89368  -0.138   0.733   3.997 -0.9675 -1.2963 -1.0886
  678MOL0     C89369  -0.243   0.806   3.945  0.1255 -0.1916 -0.1324
  678MOL0     C89370  -0.373   0.761   3.937 -0.6512  0.1724 -0.9509
  678MOL0     C89371  -0.400   0.637   3.997  1.1047 -0.1223 -0.1408
  678MOL0     O89372  -0.536   0.601   4.007 -0.2845 -0.2955  0.0190
  678MOL0     C89373  -0.570   0.484   4.085 -0.0158  1.3419 -0.6044
  678MOL0     C89374  -0.722   0.474   4.126  0.1003 -0.0504 -0.1392
  678MOL0     C89375  -0.828   0.452   4.015  0.0488  0.6358  0.2290
  678MOL0     C89376  -0.843   0.556   3.906 -1.3120 -0.1205  0.4880
  678MOL0     C89377  -0.967   0.535   3.821  0.5813 -0.0175  0.4063
  678MOL0     C89378  -0.995   0.665   3.743  0.2288  0.4810  0.9875
  678MOL0     C89379  -1.121   0.637   3.651 -0.1661  0.7841  0.0720
  678MOL0     C89380  -1.251   0.662   3.716 -0.7603  0.2423  0.0575
  678MOL0     N89381  -1.366   0.662   3.632  0.3407 -0.0365  0.3991
  678MOL0     C89382  -1.447   0.563   3.590 -0.1253  0.2841 -0.1144
  678MOL0     C89383  -1.563   0.612   3.541  1.0497 -0.1453  0.1242
  678MOL0     C89384  -1.688   0.538   3.482 -0.1531  0.3806  0.0213
  678MOL0     C89385  -1.821   0.605   3.494 -0.5356 -0.7256 -0.0284
  678MOL0     C89386  -1.931   0.502   3.468  0.8055 -0.3140  0.3286
  678MOL0     C89387  -2.075   0.552   3.421 -0.7752 -0.7150 -0.4974
  678MOL0     O89388  -2.124   0.646   3.530 -0.4356 -0.3708  0.9049
  678MOL0     C89389  -2.260   0.650   3.550  0.3348 -0.5787  0.4282
  678MOL0     C89390  -2.315   0.628   3.681  0.2790 -0.1121 -0.7034
  678MOL0     C89391  -2.455   0.618   3.701  0.0316 -0.2414 -0.7362
  678MOL0     C89392  -2.546   0.623   3.598 -0.3180 -0.9632  0.2069
  678MOL0     C89393  -2.690   0.597   3.623  0.7703 -0.4010  0.4739
  678MOL0     O89394  -2.771   0.683   3.570  0.0121 -0.1216  0.2137
  678MOL0     C89395  -2.906   0.667   3.555  0.2953  0.0861 -1.1856
  678MOL0     C89396  -2.999   0.576   3.615 -0.8296 -0.2286 -0.2621
  678MOL0     C89397  -3.132   0.575   3.589 -0.0232 -0.1358  0.0510
  678MOL0     C89398  -3.179   0.678   3.492 -0.0397 -0.4032 -0.0719
  678MOL0     O89399  -3.309   0.698   3.464  0.0345  0.9387 -0.3529
  678MOL0     C89400  -3.389   0.576   3.451 -0.1178 -0.3454 -0.0400
  678MOL0     C89401  -3.511   0.603   3.364  0.5263  0.6371  1.0641
  678MOL0     C89402  -3.502   0.708   3.260 -0.2220 -0.3253  0.9967
  678MOL0     C89403  -3.624   0.701   3.167 -0.5417  0.0013 -0.1088
  678MOL0     C89404  -3.654   0.815   3.071 -0.7462 -0.3021  0.0990
  678MOL0     C89405  -3.805   0.802   3.033  0.2489 -0.8227  0.1746
  678MOL0     C89406  -3.856   0.936   2.977  0.3429 -0.0258  0.2152
  678MOL0     C89407  -3.982   0.920   2.884 -0.0971 -0.4184 -0.6566
  678MOL0    Cl89408  -4.121   0.878   2.995  0.0188  0.2599 -0.2653
  678MOL0     C89409  -3.096   0.764   3.427 -0.6964 -0.2928  0.9992
  678MOL0     C89410  -2.964   0.760   3.460 -0.2218  0.2028 -1.2035
  678MOL0     O89411  -2.714   0.500   3.690  0.6273 -0.0041  0.8207
  678MOL0     C89412  -2.492   0.661   3.470  0.7360 -0.5340  0.7032
  678MOL0     C89413  -2.355   0.680   3.451 -0.2768  0.5555 -0.2454
  678MOL0     N89414  -1.540   0.748   3.549  0.3786 -0.6963  0.1268
  678MOL0     N89415  -1.428   0.776   3.616 -0.0157 -0.0733  0.1697
  678MOL0     C89416  -0.299   0.557   4.047  0.2056 -0.7672 -0.5449
  678MOL0     C89417  -0.167   0.603   4.044  0.4752  0.1225  0.2799
  678MOL0     C89418   0.198   0.871   4.001 -0.3327 -1.0522  0.2031
  678MOL0     C89419   0.231   0.841   4.134  0.2300  0.2293  0.3353
  678MOL0     C89420   0.354   0.889   4.189 -0.3831 -0.2612  0.5948
  678MOL0     C89421   0.448   0.953   4.112  0.4806  0.2462 -0.2598
  678MOL0     O89422   0.571   0.990   4.167  0.4857  0.2632 -0.1915
  678MOL0     C89423   0.691   0.996   4.088  0.2609 -0.3487  0.7123
  678MOL0     C89424   0.816   1.002   4.175  0.9625 -0.0148  0.0074
  678MOL0     C89425   0.948   1.022   4.097  0.1449 -0.2585  0.7621
  678MOL0     C89426   1.056   1.128   4.141 -0.6995  0.4127 -0.1190
  678MOL0     C89427   1.027   1.276   4.111  0.1186  0.6455  0.4821
  678MOL0     C89428   0.998   1.387   4.084  0.5691 -0.9127 -0.0559
  678MOL0     C89429   0.412   0.986   3.986 -0.5124  0.9201  0.0728
  678MOL0     C89430   0.292   0.942   3.929 -0.1177 -0.4171  0.6484
  678MOL0     H89431  -0.226   0.900   3.892 -1.5997  0.7081  0.8239
  678MOL0     H89432  -0.452   0.825   3.898  0.2422  2.2512  0.4903
  678MOL0     H89433  -0.514   0.484   4.179  1.6006  1.5619 -1.5231
  678MOL0     H89434  -0.533   0.408   4.016  0.9292  1.4376 -0.2208
  678MOL0     H89435  -0.750   0.565   4.180 -1.1285 -0.3352 -0.2598
  678MOL0     H89436  -0.748   0.399   4.201 -1.0422  1.1472  0.6995
  678MOL0     H89437  -0.924   0.454   4.067 -0.1567  0.6490 -0.1502
  678MOL0     H89438  -0.812   0.359   3.961 -0.8264 -0.2350  1.4274
  678MOL0     H89439  -0.844   0.652   3.959  1.5557 -1.2913  2.9347
  678MOL0     H89440  -0.752   0.555   3.846 -1.5372 -3.2650  0.0362
  678MOL0     H89441  -1.052   0.508   3.885 -0.3578  1.2207 -0.2630
  678MOL0     H89442  -0.951   0.455   3.748  3.6246 -4.0758  4.8905
  678MOL0     H89443  -0.904   0.695   3.689  0.1956 -3.9784 -2.1409
  678MOL0     H89444  -1.016   0.747   3.811  0.2577 -0.0737  1.6710
  678MOL0     H89445  -1.105   0.703   3.566 -0.6221  0.8210  0.0106
  678MOL0     H89446  -1.104   0.540   3.604  2.6348  1.8067 -1.2160
  678MOL0     H89447  -1.252   0.749   3.782 -0.0673 -0.7905  1.5075
  678MOL0     H89448  -1.264   0.578   3.785 -0.3791 -0.1100 -0.2908
  678MOL0     H89449  -1.424   0.458   3.606  4.0696  0.7425 -1.8497
  678MOL0     H89450  -1.688   0.446   3.541  1.3835  2.0611  2.8846
  678MOL0     H89451  -1.673   0.508   3.378 -0.2792  2.3613 -0.6175
  678MOL0     H89452  -1.823   0.677   3.412 -2.4929  2.3172  2.4431
  678MOL0     H89453  -1.825   0.654   3.592  0.3816 -4.1510  1.8903
  678MOL0     H89454  -1.899   0.428   3.394 -0.1140 -0.1202 -0.2839
  678MOL0     H89455  -1.951   0.449   3.561  0.4692 -1.1853 -0.2327
  678MOL0     H89456  -2.139   0.465   3.405 -2.9083  0.9615 -1.7516
  678MOL0     H89457  -2.077   0.609   3.327  2.2041 -0.7860 -0.6903
  678MOL0     H89458  -2.253   0.628   3.771 -0.4312  2.1516 -0.1529
  678MOL0     H89459  -2.480   0.595   3.804 -1.6061 -0.7326 -1.2152
  678MOL0     H89460  -2.969   0.489   3.673 -1.8244 -0.5866 -0.2770
  678MOL0     H89461  -3.192   0.503   3.642 -0.6625  1.8764  2.2379
  678MOL0     H89462  -3.414   0.544   3.552  2.2131  1.4396  1.1924
  678MOL0     H89463  -3.322   0.504   3.403  3.6654  1.2159  2.3920
  678MOL0     H89464  -3.599   0.622   3.426  0.6001 -0.4815  1.5354
  678MOL0     H89465  -3.540   0.509   3.317 -4.7921  0.4176  4.0696
  678MOL0     H89466  -3.413   0.694   3.198 -0.7316  1.2582 -0.1630
  678MOL0     H89467  -3.486   0.809   3.296 -1.9393  0.2882  0.1740
  678MOL0     H89468  -3.632   0.600   3.126  4.4324 -0.0593 -1.5446
  678MOL0     H89469  -3.708   0.703   3.238 -0.7071 -1.6722 -0.2151
  678MOL0     H89470  -3.594   0.817   2.979 -2.6270  0.6480 -1.1703
  678MOL0     H89471  -3.633   0.909   3.122  3.1089 -0.8117 -0.2198
  678MOL0     H89472  -3.868   0.790   3.122 -0.2035  1.5686  0.2290
  678MOL0     H89473  -3.824   0.714   2.970 -1.5788  0.0185 -0.5235
  678MOL0     H89474  -3.872   0.996   3.067  2.8264  0.3623  0.4844
  678MOL0     H89475  -3.777   0.985   2.920 -3.5841  4.4245 -2.1206
  678MOL0     H89476  -3.958   0.838   2.816 -0.0750 -0.7359 -0.2725
  678MOL0     H89477  -4.011   1.011   2.832  0.0998  0.2406  0.3678
  678MOL0     H89478  -3.141   0.818   3.344  0.0010  0.1323  0.8866
  678MOL0     H89479  -2.889   0.817   3.408  1.7077 -1.3848 -0.3054
  678MOL0     H89480  -2.559   0.688   3.389  0.9506 -0.6235  0.4919
  678MOL0     H89481  -2.302   0.709   3.361  1.7304 -0.0048  0.7004
  678MOL0     H89482  -0.310   0.457   4.086  2.6807  0.2355  3.2132
  678MOL0     H89483  -0.079   0.544   4.067  2.7228  2.0972 -2.5174
  678MOL0     H89484   0.159   0.794   4.200  1.3935 -6.1022 -2.1517
  678MOL0     H89485   0.384   0.870   4.291  2.2339 -2.0775 -0.3983
  678MOL0     H89486   0.691   1.081   4.019  0.0264 -0.4593  0.5735
  678MOL0     H89487   0.709   0.902   4.035  1.1638 -0.9170  1.9749
  678MOL0     H89488   0.808   1.088   4.241 -0.9268 -0.5741  0.5507
  678MOL0     H89489   0.815   0.911   4.236 -1.4138 -1.3350 -1.8475
  678MOL0     H89490   0.912   1.040   3.996 -2.2100  1.7855  1.8506
  678MOL0     H89491   1.004   0.928   4.088  1.3118  0.5322 -0.5065
  678MOL0     H89492   1.069   1.100   4.246 -2.1692 -0.7207 -0.2011
  678MOL0     H89493   1.154   1.106   4.098 -1.3075 -3.3666  0.0722
  678MOL0     H89494   0.965   1.477   4.035  1.0578 -1.4570 -1.4467
  678MOL0     H89495   0.480   1.045   3.924  1.7547 -1.5905  0.0012
  678MOL0     H89496   0.259   0.969   3.829 -0.9395 -2.5411  0.3071
  679MOL0     O89497   2.526   6.744   9.560  0.0098  0.8132 -0.2256
  679MOL0     C89498   2.607   6.676   9.500  0.0834 -0.6438  0.3978
  679MOL0     O89499   2.682   6.730   9.397  0.5767 -0.0301  1.3400
  679MOL0     C89500   2.662   6.860   9.366 -0.1907 -0.1948  0.1390
  679MOL0     C89501   2.551   6.894   9.286 -0.0623 -0.5168  0.1232
  679MOL0     C89502   2.544   7.022   9.231 -0.2960 -0.1588 -0.3337
  679MOL0     C89503   2.639   7.124   9.264 -0.5799  1.0176 -0.2560
  679MOL0     O89504   2.628   7.252   9.224 -0.6865 -0.7695  0.6488
  679MOL0     C89505   2.674   7.359   9.305  0.2934 -0.2668  0.1005
  679MOL0     C89506   2.642   7.493   9.231 -0.9660 -0.0158  0.4413
  679MOL0     C89507   2.517   7.563   9.291 -0.2611  0.0674  0.2545
  679MOL0     C89508   2.471   7.678   9.198 -0.1029  0.7954  0.1921
  679MOL0     C89509   2.323   7.713   9.218  0.1685  0.1751 -0.2801
  679MOL0     C89510   2.314   7.787   9.347  0.5021 -0.4369  0.0760
  679MOL0     C89511   2.170   7.811   9.399 -0.7559  0.0043 -0.3528
  679MOL0     C89512   2.101   7.913   9.312  0.4582  0.1389 -0.1002
  679MOL0     N89513   1.974   7.954   9.367 -0.5278  0.0983 -0.8213
  679MOL0     C89514   1.859   7.884   9.356  0.0701  0.2317 -0.6763
  679MOL0     C89515   1.789   7.907   9.465  1.9161 -0.7005 -0.1481
  679MOL0     C89516   1.657   7.843   9.501 -0.6328 -0.0923  0.0687
  679MOL0     C89517   1.526   7.926   9.477 -0.5089  0.1345 -0.0452
  679MOL0     C89518   1.408   7.834   9.476 -0.1943  0.0488 -0.2641
  679MOL0     C89519   1.288   7.894   9.409 -0.4261  0.5413  0.5507
  679MOL0     O89520   1.198   7.792   9.355 -0.2178 -0.2735 -1.0217
  679MOL0     C89521   1.068   7.842   9.328 -0.1899 -0.2303 -0.6538
  679MOL0     C89522   0.971   7.739   9.334  0.8707  0.9868  1.1979
  679MOL0     C89523   0.831   7.765   9.305 -0.3503  0.2011  0.4242
  679MOL0     C89524   0.790   7.900   9.283  0.3572  0.1733  0.7852
  679MOL0     C89525   0.646   7.932   9.269  0.5846 -0.7047  0.2519
  679MOL0     O89526   0.603   8.039   9.354 -0.3468  0.6086 -0.1313
  679MOL0     C89527   0.469   8.063   9.341  0.2805  0.3203  0.5239
  679MOL0     C89528   0.377   8.008   9.427  0.8671 -0.1305  0.0588
  679MOL0     C89529   0.249   8.047   9.436  0.6918  0.3272  0.0130
  679MOL0     C89530   0.204   8.138   9.343 -0.0589 -0.1838 -0.3251
  679MOL0     O89531   0.076   8.179   9.356  1.0605 -0.2957  0.1964
  679MOL0     C89532   0.020   8.253   9.245 -0.0148 -0.0186 -0.0477
  679MOL0     C89533  -0.132   8.256   9.279  0.1860  0.2866 -0.5096
  679MOL0     C89534  -0.212   8.348   9.180  0.2762  0.6117 -0.7765
  679MOL0     C89535  -0.365   8.352   9.193 -0.1077  0.9359  0.5603
  679MOL0     C89536  -0.422   8.213   9.178  0.9060 -0.4063  0.0428
  679MOL0     C89537  -0.577   8.207   9.166 -0.0638  0.7630 -0.1049
  679MOL0     C89538  -0.640   8.266   9.038  0.4583 -0.5728 -0.2959
  679MOL0     C89539  -0.786   8.231   9.027 -0.2342 -0.6587 -0.4045
  679MOL0    Cl89540  -0.812   8.058   8.985 -0.2062  0.4577 -0.3567
  679MOL0     C89541   0.290   8.194   9.245  0.2362 -0.4209 -0.6967
  679MOL0     C89542   0.424   8.157   9.251  0.5554 -0.3665  0.0966
  679MOL0     O89543   0.574   7.871   9.189 -0.5051  0.0205 -0.5271
  679MOL0     C89544   0.895   8.006   9.283  0.4432 -0.4304 -0.9073
  679MOL0     C89545   1.027   7.970   9.305 -1.1148  0.0011 -0.8222
  679MOL0     N89546   1.846   7.994   9.540  0.8776 -0.5451 -0.0977
  679MOL0     N89547   1.967   8.018   9.492  0.1381 -0.8677  0.2818
  679MOL0     C89548   2.743   7.083   9.338 -0.4219 -0.1524  1.0575
  679MOL0     C89549   2.758   6.953   9.393 -0.3785 -0.4646  0.0024
  679MOL0     C89550   2.626   6.533   9.535  0.3997  0.4533 -0.6058
  679MOL0     C89551   2.583   6.480   9.661  0.1647  0.0292  0.5183
  679MOL0     C89552   2.613   6.348   9.700 -0.2834  0.2752 -0.0421
  679MOL0     C89553   2.674   6.262   9.613  0.2802 -0.1274 -0.3759
  679MOL0     O89554   2.706   6.135   9.640 -0.0512  0.2322  0.4510
  679MOL0     C89555   2.663   6.075   9.771 -0.0279  0.0857  0.1706
  679MOL0     C89556   2.626   5.927   9.759  0.0020  0.5216  0.3163
  679MOL0     C89557   2.700   5.846   9.864  0.5295  0.4310 -0.3147
  679MOL0     C89558   2.639   5.713   9.874 -0.3245 -0.1487  0.1686
  679MOL0     C89559   2.677   5.637   9.997 -0.4116  0.7825 -0.0586
  679MOL0     C89560   2.737   5.568  10.078 -0.5851  0.9587 -0.2714
  679MOL0     C89561   2.711   6.305   9.489  1.1831  0.3594  0.5986
  679MOL0     C89562   2.691   6.438   9.452  0.0688 -0.7010  0.5038
  679MOL0     H89563   2.485   6.818   9.246 -1.6055  0.6632  0.3620
  679MOL0     H89564   2.460   7.050   9.168  0.3841  1.0051 -0.7655
  679MOL0     H89565   2.781   7.357   9.324  0.4657 -1.8420 -0.8102
  679MOL0     H89566   2.629   7.356   9.404 -2.0532  2.8079 -0.7004
  679MOL0     H89567   2.637   7.475   9.123 -1.7851  3.3466 -0.1946
  679MOL0     H89568   2.726   7.557   9.258 -1.0303 -0.5238  1.9597
  679MOL0     H89569   2.532   7.599   9.393 -2.7172  0.2341  0.6322
  679MOL0     H89570   2.449   7.478   9.298 -0.2312  0.0950  0.8818
  679MOL0     H89571   2.530   7.769   9.213 -1.1846  1.5290  0.0739
  679MOL0     H89572   2.491   7.649   9.094 -2.1174 -3.9662  0.8953
  679MOL0     H89573   2.259   7.624   9.212  0.6918 -0.2014 -0.2725
  679MOL0     H89574   2.291   7.783   9.140 -0.5520 -0.3692 -0.4814
  679MOL0     H89575   2.368   7.881   9.329  3.1056 -2.3073 -3.0882
  679MOL0     H89576   2.368   7.740   9.431  2.6303  0.0109 -0.9556
  679MOL0     H89577   2.110   7.720   9.401 -1.6986  0.6248 -0.0065
  679MOL0     H89578   2.171   7.861   9.496  0.8222  2.3259 -1.4767
  679MOL0     H89579   2.078   7.867   9.216 -0.5417 -0.2810  0.3227
  679MOL0     H89580   2.163   8.002   9.294  0.5543 -0.1085 -1.0511
  679MOL0     H89581   1.833   7.816   9.276 -1.5737  1.6748 -1.4161
  679MOL0     H89582   1.658   7.817   9.608 -0.8654 -1.1757 -0.1744
  679MOL0     H89583   1.655   7.748   9.446 -3.8364 -0.3435  0.4345
  679MOL0     H89584   1.527   7.967   9.375 -1.0127  0.9750  0.2790
  679MOL0     H89585   1.511   8.016   9.537  1.6485  0.7796 -0.3879
  679MOL0     H89586   1.446   7.737   9.442  2.0636  0.7563  0.0742
  679MOL0     H89587   1.395   7.812   9.582  2.1503 -0.8268 -0.1083
  679MOL0     H89588   1.322   7.957   9.326  1.8445 -0.3233  0.7691
  679MOL0     H89589   1.239   7.960   9.481 -3.2051  0.0106 -0.7173
  679MOL0     H89590   1.008   7.638   9.349 -1.7440 -0.1199  0.6798
  679MOL0     H89591   0.762   7.682   9.302  0.3910 -0.4255  0.4610
  679MOL0     H89592   0.411   7.949   9.511  2.0974  1.3807  0.6693
  679MOL0     H89593   0.167   8.011   9.497 -1.0649  0.9223 -1.8933
  679MOL0     H89594   0.031   8.210   9.146  0.8052 -1.1835  0.5334
  679MOL0     H89595   0.060   8.355   9.255  1.2418 -0.6023  1.3307
  679MOL0     H89596  -0.146   8.273   9.386 -0.6377  1.6636 -0.8138
  679MOL0     H89597  -0.177   8.156   9.275  0.4894  0.1198  0.1541
  679MOL0     H89598  -0.197   8.301   9.082  2.4579 -1.0197  0.2640
  679MOL0     H89599  -0.160   8.443   9.177 -0.5297  1.0994  0.0865
  679MOL0     H89600  -0.403   8.388   9.289 -1.6426  1.7900 -0.3225
  679MOL0     H89601  -0.404   8.413   9.111  2.7513  2.7626  0.4222
  679MOL0     H89602  -0.398   8.150   9.264 -1.9747 -0.1892  1.0873
  679MOL0     H89603  -0.385   8.178   9.081 -0.3335  0.5702 -0.8071
  679MOL0     H89604  -0.630   8.265   9.242  2.5045  2.5635  0.4418
  679MOL0     H89605  -0.616   8.106   9.184 -0.6829  1.2865  1.6663
  679MOL0     H89606  -0.619   8.372   9.050  1.7105 -0.9002  0.6096
  679MOL0     H89607  -0.585   8.223   8.954 -1.5893 -1.5250 -1.2286
  679MOL0     H89608  -0.823   8.289   8.942  0.8420 -1.8143 -1.7065
  679MOL0     H89609  -0.824   8.264   9.124  2.4619 -0.2664  0.5978
  679MOL0     H89610   0.274   8.263   9.163  4.0631 -0.7978 -1.9457
  679MOL0     H89611   0.491   8.195   9.175  1.1555 -1.8284 -0.1509
  679MOL0     H89612   0.871   8.107   9.252  2.5772  0.9925  1.7138
  679MOL0     H89613   1.095   8.053   9.291  1.4692 -2.0618 -1.2580
  679MOL0     H89614   2.829   7.149   9.336 -0.7784  0.3282 -0.5076
  679MOL0     H89615   2.839   6.934   9.462 -1.9255 -0.7075  1.8518
  679MOL0     H89616   2.532   6.545   9.732  0.1115 -0.5337  1.0026
  679MOL0     H89617   2.601   6.322   9.805 -0.8581 -2.1957 -0.6603
  679MOL0     H89618   2.587   6.123   9.833  1.0955 -0.0958  1.7465
  679MOL0     H89619   2.758   6.086   9.824  0.1838  1.5095 -0.4682
  679MOL0     H89620   2.517   5.919   9.762 -0.1486  2.4173  2.2920
  679MOL0     H89621   2.654   5.885   9.662 -2.6535 -0.6315 -0.0449
  679MOL0     H89622   2.705   5.894   9.962  0.5361  0.3035 -0.2514
  679MOL0     H89623   2.803   5.849   9.826  0.7749  0.0625  0.3125
  679MOL0     H89624   2.530   5.725   9.871 -0.2638  0.6797  0.9031
  679MOL0     H89625   2.676   5.656   9.788 -0.3105  1.3435 -0.8531
  679MOL0     H89626   2.793   5.505  10.144  0.0756  0.7704 -0.9886
  679MOL0     H89627   2.745   6.226   9.422 -1.3090 -0.3723  0.0818
  679MOL0     H89628   2.703   6.473   9.350  2.5342 -0.2203  0.9011
  680MOL0     O89629   8.699   9.607   0.749  0.2861 -0.3767  0.1500
  680MOL0     C89630   8.807   9.559   0.725  0.3626  0.8407  0.5860
  680MOL0     O89631   8.833   9.433   0.679  0.5529 -0.1845 -0.1784
  680MOL0     C89632   8.728   9.365   0.629 -0.5176  0.1693  0.1240
  680MOL0     C89633   8.729   9.227   0.664 -0.0049  0.1303 -0.4101
  680MOL0     C89634   8.645   9.139   0.602  0.2769 -0.1444  0.3974
  680MOL0     C89635   8.544   9.179   0.520 -0.3542  0.8667 -0.1130
  680MOL0     O89636   8.443   9.099   0.480 -0.3480  0.0937 -0.0763
  680MOL0     C89637   8.472   8.957   0.460  0.3186  0.1082 -0.8878
  680MOL0     C89638   8.343   8.897   0.396 -0.4978 -0.4461  0.9367
  680MOL0     C89639   8.379   8.740   0.379  0.1841 -0.6573  0.5125
  680MOL0     C89640   8.254   8.674   0.320  0.2040  0.3571  0.9617
  680MOL0     C89641   8.251   8.521   0.342 -0.0112 -0.0159 -0.3346
  680MOL0     C89642   8.172   8.499   0.463  0.6615 -0.6377  0.2916
  680MOL0     C89643   8.186   8.367   0.526  0.2270 -0.0642  0.4671
  680MOL0     C89644   8.107   8.264   0.444  0.1513  0.0271  0.1619
  680MOL0     N89645   8.085   8.139   0.518  0.1290 -0.5360  0.3881
  680MOL0     C89646   8.018   8.132   0.630 -0.0768  0.0169  0.5101
  680MOL0     C89647   8.000   7.997   0.649 -0.3917  0.0776 -0.3695
  680MOL0     C89648   7.940   7.940   0.778 -0.2211 -0.0085  0.5049
  680MOL0     C89649   7.947   7.789   0.783  0.2646  0.3765 -0.0501
  680MOL0     C89650   7.872   7.731   0.909  0.5016  0.0826  0.7037
  680MOL0     C89651   7.716   7.758   0.907  0.1528  0.7455  0.0198
  680MOL0     O89652   7.650   7.695   1.018  0.3754 -1.0035 -0.8258
  680MOL0     C89653   7.512   7.699   1.017 -0.1378 -0.1545  0.4294
  680MOL0     C89654   7.434   7.787   1.086  0.3452  0.4585  0.0208
  680MOL0     C89655   7.303   7.760   1.116  0.5499  0.2505 -0.5002
  680MOL0     C89656   7.238   7.661   1.041 -0.0408 -0.4710 -0.9573
  680MOL0     C89657   7.097   7.660   1.034  0.6706 -0.3098  1.1708
  680MOL0     O89658   7.031   7.566   0.960  0.5546  0.4372  0.2122
  680MOL0     C89659   6.890   7.553   0.976 -0.3415 -0.1486 -0.1652
  680MOL0     C89660   6.834   7.433   1.017 -0.2968 -0.2308 -0.5699
  680MOL0     C89661   6.694   7.422   1.036 -0.2003  0.3442  0.0683
  680MOL0     C89662   6.602   7.526   1.009  0.2515  0.2169  0.1170
  680MOL0     O89663   6.464   7.540   1.046 -0.3085 -0.1959 -0.5405
  680MOL0     C89664   6.408   7.427   1.113  0.6386 -0.0209 -0.0931
  680MOL0     C89665   6.275   7.482   1.131  0.5467 -0.1890  0.7585
  680MOL0     C89666   6.181   7.392   1.213  0.5626 -0.4580  0.1996
  680MOL0     C89667   6.062   7.453   1.264  1.3414  0.3744  0.5131
  680MOL0     C89668   5.956   7.350   1.325  0.5105 -0.9964 -0.6904
  680MOL0     C89669   5.843   7.427   1.397 -0.3750  1.1492  0.2929
  680MOL0     C89670   5.748   7.337   1.476  0.8454  0.3382 -0.1688
  680MOL0     C89671   5.646   7.275   1.378 -0.1323 -0.2144 -0.2054
  680MOL0    Cl89672   5.503   7.202   1.466  0.0942 -0.4247 -0.1441
  680MOL0     C89673   6.658   7.642   0.960  0.0170 -0.8674 -0.1091
  680MOL0     C89674   6.799   7.661   0.951  0.1348  0.1052  1.3820
  680MOL0     O89675   7.040   7.747   1.102 -0.1849 -0.4789  0.0715
  680MOL0     C89676   7.312   7.567   0.958  1.0625 -0.4578  0.3890
  680MOL0     C89677   7.446   7.581   0.955  0.0166 -0.5821 -0.1536
  680MOL0     N89678   8.080   7.929   0.554  0.8630  0.6538  0.5542
  680MOL0     N89679   8.130   8.015   0.472  0.6058 -0.5198 -0.0448
  680MOL0     C89680   8.532   9.318   0.492  0.1102  0.3421  0.7312
  680MOL0     C89681   8.624   9.408   0.540 -1.2314 -0.3869 -0.2824
  680MOL0     C89682   8.929   9.639   0.755 -0.0606  0.3600  0.7234
  680MOL0     C89683   9.059   9.593   0.737 -0.4017 -0.1792  0.9315
  680MOL0     C89684   9.178   9.674   0.760 -0.1853  0.3576  0.1655
  680MOL0     C89685   9.162   9.809   0.789 -0.1659  0.7419  0.4081
  680MOL0     O89686   9.268   9.884   0.836  0.4231 -0.9464 -0.2134
  680MOL0     C89687   9.330   9.862   0.963  0.4962 -0.0999  0.9115
  680MOL0     C89688   9.481   9.876   0.974 -0.1973  0.2700  0.6558
  680MOL0     C89689   9.525  10.012   0.917 -0.5045  0.1513 -0.3688
  680MOL0     C89690   9.675  10.042   0.926 -0.2577  0.2581  0.2883
  680MOL0     C89691   9.688  10.174   0.859 -0.4490  0.1660 -0.2165
  680MOL0     C89692   9.686  10.279   0.804 -0.2864  0.4442  0.1376
  680MOL0     C89693   9.036   9.855   0.807  0.8469  0.8458  0.1576
  680MOL0     C89694   8.919   9.774   0.804  0.3943  0.1376 -0.9375
  680MOL0     H89695   8.812   9.189   0.723 -0.1435  0.4931  0.0189
  680MOL0     H89696   8.647   9.033   0.623 -1.2173 -0.7555 -2.1843
  680MOL0     H89697   8.475   8.915   0.561  0.4266  0.0568 -0.9126
  680MOL0     H89698   8.570   8.940   0.415  1.5512  1.5768  1.0813
  680MOL0     H89699   8.313   8.946   0.303 -0.9482 -3.0103 -0.3713
  680MOL0     H89700   8.250   8.921   0.447 -0.9762 -0.5494  0.1314
  680MOL0     H89701   8.410   8.693   0.473  2.6269 -0.8294 -0.2882
  680MOL0     H89702   8.459   8.717   0.307  1.0566  2.4931  0.3238
  680MOL0     H89703   8.171   8.723   0.372  0.4276 -0.1402  1.8144
  680MOL0     H89704   8.254   8.693   0.213 -1.6219  2.3276  1.2513
  680MOL0     H89705   8.346   8.468   0.356 -0.8386 -0.9319  2.5730
  680MOL0     H89706   8.199   8.484   0.253  0.4573  0.7399 -0.9293
  680MOL0     H89707   8.068   8.519   0.438 -0.5788 -3.9207  2.0823
  680MOL0     H89708   8.205   8.563   0.546 -0.6179 -3.4272  3.1736
  680MOL0     H89709   8.294   8.349   0.533  1.0742  1.5506 -4.5904
  680MOL0     H89710   8.141   8.358   0.625 -1.4995 -2.4489 -0.4245
  680MOL0     H89711   8.164   8.229   0.358 -0.5514 -2.9416  0.8058
  680MOL0     H89712   8.011   8.307   0.412  0.4419  0.1061 -0.6165
  680MOL0     H89713   8.014   8.213   0.703  0.8425  1.2409 -0.7584
  680MOL0     H89714   7.837   7.976   0.788 -0.4940  0.8931 -3.6783
  680MOL0     H89715   7.995   7.980   0.863 -1.2931  0.6007  0.9328
  680MOL0     H89716   8.050   7.754   0.784  0.2277  0.2669  0.0154
  680MOL0     H89717   7.898   7.743   0.696 -3.2120  0.7146  1.5390
  680MOL0     H89718   7.877   7.622   0.908  0.5123  0.0838  0.5751
  680MOL0     H89719   7.930   7.768   0.993  0.5724 -0.1570  0.7600
  680MOL0     H89720   7.671   7.702   0.824  0.9112  0.5799 -0.2927
  680MOL0     H89721   7.684   7.862   0.896 -1.3840  0.2357 -0.6633
  680MOL0     H89722   7.477   7.868   1.145  1.1749 -0.0741  0.1530
  680MOL0     H89723   7.253   7.822   1.189  0.4470 -0.2110 -0.1712
  680MOL0     H89724   6.902   7.353   1.043  1.1402  0.0182 -3.1787
  680MOL0     H89725   6.644   7.334   1.076  1.6721 -1.4007 -1.1919
  680MOL0     H89726   6.457   7.400   1.207 -0.4819  0.2635  0.5839
  680MOL0     H89727   6.405   7.335   1.053  1.3819 -0.9429  1.2246
  680MOL0     H89728   6.233   7.507   1.034  0.6026 -2.2933  0.1326
  680MOL0     H89729   6.301   7.573   1.186  3.3905 -0.7389  0.4650
  680MOL0     H89730   6.237   7.359   1.302  4.0372  2.0788 -0.7965
  680MOL0     H89731   6.157   7.309   1.146 -3.2738 -0.1851  1.0389
  680MOL0     H89732   6.090   7.522   1.344 -0.9812  2.8922 -0.6896
  680MOL0     H89733   6.000   7.505   1.189  1.1487  0.3835  0.6773
  680MOL0     H89734   6.008   7.289   1.400 -0.7554  0.5165  1.5335
  680MOL0     H89735   5.938   7.281   1.242  0.4516  0.1807 -1.6717
  680MOL0     H89736   5.799   7.484   1.314  2.9923 -0.0524 -2.5824
  680MOL0     H89737   5.876   7.506   1.464 -1.8114  0.8832  1.3790
  680MOL0     H89738   5.808   7.260   1.527  0.8606  0.5332  0.1116
  680MOL0     H89739   5.701   7.405   1.547  1.2080  0.6379 -0.2117
  680MOL0     H89740   5.686   7.191   1.322  3.1597  1.0038  0.1330
  680MOL0     H89741   5.610   7.352   1.309  0.5787 -0.7626 -1.2051
  680MOL0     H89742   6.588   7.725   0.952  2.3800  1.5359  2.0287
  680MOL0     H89743   6.840   7.749   0.903 -0.2828 -1.0588 -1.3141
  680MOL0     H89744   7.258   7.497   0.894  0.9704  2.4321 -3.0019
  680MOL0     H89745   7.509   7.512   0.900  0.6158 -0.3508  0.2334
  680MOL0     H89746   8.443   9.346   0.436  1.3986  2.1950 -0.5190
  680MOL0     H89747   8.622   9.512   0.507 -0.5598 -0.2034  0.2215
  680MOL0     H89748   9.093   9.491   0.721 -2.3802 -1.2022  2.7689
  680MOL0     H89749   9.277   9.628   0.759 -0.6702 -0.7385  0.7136
  680MOL0     H89750   9.306   9.759   0.992 -0.6222 -0.5431 -1.3281
  680MOL0     H89751   9.279   9.936   1.025  2.3830  2.0103  0.0975
  680MOL0     H89752   9.501   9.868   1.082  3.6035 -0.2872  0.0532
  680MOL0     H89753   9.532   9.795   0.922  2.0482  2.7744 -1.4043
  680MOL0     H89754   9.464  10.088   0.968  2.2109  0.0244  3.5297
  680MOL0     H89755   9.504  10.015   0.810 -2.1041 -1.7140 -0.1674
  680MOL0     H89756   9.707  10.053   1.030  0.4434  0.0236  0.1009
  680MOL0     H89757   9.739   9.969   0.876  1.8652  1.9789  0.3958
  680MOL0     H89758   9.694  10.364   0.739 -1.7353  0.1248 -0.4941
  680MOL0     H89759   9.037   9.957   0.843  3.2776  0.2747  1.9505
  680MOL0     H89760   8.818   9.806   0.829  0.6742  1.0031 -0.8807
  681MOL0     O89761   7.547   2.561   6.108  0.8623 -0.2700 -0.9254
  681MOL0     C89762   7.560   2.506   6.219  0.1519 -1.1707  0.3317
  681MOL0     O89763   7.449   2.445   6.290 -0.2948 -0.0203 -0.5421
  681MOL0     C89764   7.322   2.448   6.237 -0.6167 -0.0274 -0.0045
  681MOL0     C89765   7.258   2.324   6.260 -0.3431  0.9561 -0.3916
  681MOL0     C89766   7.118   2.313   6.229 -1.2193 -0.2915  0.5764
  681MOL0     C89767   7.055   2.422   6.166 -0.4248 -0.7349  0.4730
  681MOL0     O89768   6.923   2.417   6.133 -0.6714  0.0382  1.1452
  681MOL0     C89769   6.904   2.315   6.033 -0.5433  0.3172 -0.4257
  681MOL0     C89770   6.792   2.351   5.940 -0.3295 -0.2746 -0.4437
  681MOL0     C89771   6.786   2.495   5.891  0.4327 -0.3182  0.4071
  681MOL0     C89772   6.696   2.572   5.996  0.1684  0.8074 -0.4097
  681MOL0     C89773   6.711   2.724   5.992 -0.8489  0.3176  0.4444
  681MOL0     C89774   6.605   2.806   6.060 -0.0232 -0.9351 -0.0245
  681MOL0     C89775   6.624   2.807   6.218  0.4233  0.0513  0.4598
  681MOL0     C89776   6.549   2.921   6.284 -0.4046  0.0690 -0.6379
  681MOL0     N89777   6.401   2.914   6.250  0.6224  0.4005 -0.1366
  681MOL0     C89778   6.303   2.819   6.291 -0.3629 -0.2910 -0.1973
  681MOL0     C89779   6.193   2.865   6.226  0.0797 -0.7138  1.0361
  681MOL0     C89780   6.063   2.783   6.221  0.0491  0.5844  0.2388
  681MOL0     C89781   5.956   2.843   6.121  0.2089 -0.2430 -0.4042
  681MOL0     C89782   5.833   2.756   6.127 -1.1161 -0.1964 -0.2902
  681MOL0     C89783   5.717   2.831   6.063 -0.5818  0.2817  0.1433
  681MOL0     O89784   5.684   2.945   6.138  0.0699 -0.4899 -0.0303
  681MOL0     C89785   5.559   2.997   6.121  0.2500 -0.0256 -0.2612
  681MOL0     C89786   5.517   3.079   6.223 -0.2595  0.3191  1.2247
  681MOL0     C89787   5.399   3.153   6.218 -0.2770 -1.0889 -0.3300
  681MOL0     C89788   5.307   3.134   6.117 -0.1172 -0.1517 -0.5165
  681MOL0     C89789   5.192   3.227   6.099  0.1316  0.3093  0.3084
  681MOL0     O89790   5.100   3.195   6.008  0.3000  0.2353  0.5718
  681MOL0     C89791   4.984   3.255   5.973  0.0250  0.5870 -0.4367
  681MOL0     C89792   4.927   3.204   5.859  0.1492 -0.1190  0.1137
  681MOL0     C89793   4.800   3.254   5.823  1.4042 -0.0573  0.5485
  681MOL0     C89794   4.730   3.356   5.896  0.0914 -0.7429  0.8090
  681MOL0     O89795   4.602   3.400   5.861  0.6236 -0.7326 -0.1603
  681MOL0     C89796   4.542   3.362   5.735  0.1092 -0.6072 -0.6167
  681MOL0     C89797   4.394   3.394   5.741  0.0877  0.4633 -0.4494
  681MOL0     C89798   4.328   3.345   5.617 -0.2775 -0.1638  0.0809
  681MOL0     C89799   4.176   3.363   5.608  0.1721  0.0724  0.2420
  681MOL0     C89800   4.110   3.335   5.470  0.8354 -0.1641 -0.1643
  681MOL0     C89801   3.955   3.344   5.482  0.3536  0.2449  0.5181
  681MOL0     C89802   3.902   3.314   5.338 -0.5819 -0.0735 -0.3347
  681MOL0     C89803   3.755   3.350   5.320  0.3608 -0.3467  0.0287
  681MOL0    Cl89804   3.661   3.228   5.386  0.1742  0.3933 -0.3227
  681MOL0     C89805   4.786   3.413   6.005  0.0952 -1.7033 -0.0281
  681MOL0     C89806   4.913   3.364   6.045  0.3073  0.2912 -0.5948
  681MOL0     O89807   5.169   3.302   6.193 -0.3688 -0.2137  0.8475
  681MOL0     C89808   5.341   3.031   6.027 -0.3248  0.4166 -0.1369
  681MOL0     C89809   5.465   2.966   6.018 -0.0264 -0.2231 -0.0887
  681MOL0     N89810   6.218   2.992   6.169  0.7439  0.0029  0.1219
  681MOL0     N89811   6.341   3.011   6.174 -0.3428 -0.4252 -0.7579
  681MOL0     C89812   7.121   2.541   6.145 -0.9931  0.4171  0.2320
  681MOL0     C89813   7.259   2.558   6.177 -0.0812  0.7356  0.4761
  681MOL0     C89814   7.691   2.502   6.282 -0.5816 -0.6145 -0.5137
  681MOL0     C89815   7.710   2.424   6.393 -0.1285 -0.2707  0.8542
  681MOL0     C89816   7.842   2.380   6.435  0.3945 -0.2795 -0.0374
  681MOL0     C89817   7.951   2.443   6.384  0.1589  0.5732  0.9568
  681MOL0     O89818   8.077   2.423   6.435  0.3587 -0.7257  0.3703
  681MOL0     C89819   8.095   2.484   6.564  0.4384 -0.0359  0.4417
  681MOL0     C89820   8.186   2.405   6.659 -0.2664 -0.2342  0.3894
  681MOL0     C89821   8.194   2.468   6.797 -0.5547 -0.5808  0.1654
  681MOL0     C89822   8.322   2.442   6.879  0.6289  1.1962  0.0470
  681MOL0     C89823   8.379   2.311   6.860  0.3929 -0.2198  0.4589
  681MOL0     C89824   8.431   2.203   6.830  0.1347  1.0147 -0.1601
  681MOL0     C89825   7.932   2.547   6.293 -0.8316  0.3316 -0.1516
  681MOL0     C89826   7.807   2.574   6.235 -0.2690  0.2518 -0.6401
  681MOL0     H89827   7.329   2.246   6.286 -2.1420 -1.2134 -1.6235
  681MOL0     H89828   7.066   2.220   6.246 -0.8137 -0.2870  2.0351
  681MOL0     H89829   6.877   2.217   6.075  1.6590 -0.7820 -1.4134
  681MOL0     H89830   6.994   2.299   5.973  0.7396  0.9792  1.2600
  681MOL0     H89831   6.694   2.327   5.983 -0.3669  3.7050  2.2153
  681MOL0     H89832   6.796   2.280   5.857  0.1025  0.3343 -0.9432
  681MOL0     H89833   6.731   2.492   5.797 -1.0729 -3.2257  1.2658
  681MOL0     H89834   6.883   2.544   5.878  0.4393  0.0644  1.7080
  681MOL0     H89835   6.592   2.545   5.975  0.4798 -1.6063  0.7521
  681MOL0     H89836   6.720   2.550   6.101  1.5267  0.9062 -0.6733
  681MOL0     H89837   6.706   2.747   5.886 -0.8887  1.0048  0.5915
  681MOL0     H89838   6.812   2.752   6.025 -0.5416 -0.0394 -0.1677
  681MOL0     H89839   6.506   2.770   6.031 -0.9780  1.3775  0.1151
  681MOL0     H89840   6.610   2.910   6.027 -0.0024  0.1961  3.1205
  681MOL0     H89841   6.586   2.712   6.259  0.2648 -0.6472 -1.2155
  681MOL0     H89842   6.728   2.830   6.241  1.1600 -0.0313 -2.3777
  681MOL0     H89843   6.600   3.013   6.257 -0.9789  0.7205  0.4276
  681MOL0     H89844   6.559   2.909   6.392 -1.1848 -1.3227 -0.6918
  681MOL0     H89845   6.320   2.737   6.359 -2.7521 -0.8553 -0.1990
  681MOL0     H89846   6.012   2.760   6.314 -0.4257  1.6376  0.2583
  681MOL0     H89847   6.096   2.696   6.164  0.5358  2.8627 -3.2779
  681MOL0     H89848   5.999   2.856   6.022 -0.4410  0.7802 -0.5695
  681MOL0     H89849   5.935   2.940   6.166 -0.9931 -1.3090  1.4987
  681MOL0     H89850   5.853   2.660   6.080 -0.4559  1.1198 -2.9179
  681MOL0     H89851   5.795   2.746   6.229 -2.1152  1.6577 -0.4322
  681MOL0     H89852   5.638   2.755   6.056  1.4269 -1.7223 -3.7335
  681MOL0     H89853   5.757   2.860   5.965 -2.3071  3.4152  0.2324
  681MOL0     H89854   5.596   3.082   6.297 -0.6238  1.4812  1.5884
  681MOL0     H89855   5.390   3.223   6.300  2.8317 -2.6866  1.6056
  681MOL0     H89856   4.974   3.132   5.793  0.4507 -1.2409  1.4932
  681MOL0     H89857   4.762   3.200   5.737  3.0994 -0.0199 -0.2770
  681MOL0     H89858   4.552   3.255   5.714 -0.7167 -0.7264 -0.4144
  681MOL0     H89859   4.590   3.411   5.649 -0.9185 -1.0432 -1.4537
  681MOL0     H89860   4.371   3.500   5.757 -0.5399  0.3177 -0.3615
  681MOL0     H89861   4.354   3.339   5.827  0.1490 -1.0693 -1.3598
  681MOL0     H89862   4.341   3.237   5.613 -0.2587 -0.1220 -1.1815
  681MOL0     H89863   4.373   3.390   5.528 -1.2283  0.3761 -0.1532
  681MOL0     H89864   4.125   3.304   5.684 -0.5083 -0.1229 -0.3466
  681MOL0     H89865   4.152   3.465   5.640 -1.8352 -0.2710 -0.0288
  681MOL0     H89866   4.132   3.236   5.430 -0.9031  0.4803 -2.9807
  681MOL0     H89867   4.153   3.409   5.402  2.8663 -0.0440  1.1565
  681MOL0     H89868   3.932   3.445   5.517 -0.0128  0.6593 -0.8620
  681MOL0     H89869   3.910   3.273   5.553 -1.2776  0.5869 -0.1339
  681MOL0     H89870   3.958   3.374   5.265 -0.0243  0.7952  0.7836
  681MOL0     H89871   3.919   3.208   5.319  0.9906 -0.1428  1.2403
  681MOL0     H89872   3.733   3.366   5.214 -2.9947  1.6274  0.8636
  681MOL0     H89873   3.736   3.444   5.373  0.2724 -0.5584  0.3725
  681MOL0     H89874   4.738   3.500   6.051  1.1680  1.3371 -4.0290
  681MOL0     H89875   4.963   3.405   6.132 -2.5792 -2.0547  2.4348
  681MOL0     H89876   5.271   3.013   5.945 -0.8232  1.6858 -0.0110
  681MOL0     H89877   5.488   2.900   5.936 -1.8915 -0.1016 -0.7548
  681MOL0     H89878   7.067   2.629   6.112 -0.4437  0.5228 -0.4059
  681MOL0     H89879   7.315   2.651   6.175 -0.2549  0.8223 -1.0381
  681MOL0     H89880   7.620   2.384   6.440 -1.5056 -0.3093 -1.6246
  681MOL0     H89881   7.851   2.306   6.514 -2.8468  0.3461  1.0655
  681MOL0     H89882   8.000   2.475   6.618 -0.1485  1.6448 -0.2229
  681MOL0     H89883   8.128   2.589   6.558 -1.0215  0.3758 -1.0056
  681MOL0     H89884   8.149   2.303   6.645  0.0163 -0.1101 -1.6835
  681MOL0     H89885   8.284   2.399   6.610 -0.0997  0.5040  0.6333
  681MOL0     H89886   8.108   2.430   6.853 -0.4253  0.8334  1.3812
  681MOL0     H89887   8.183   2.576   6.786  2.6087 -0.3854 -2.6328
  681MOL0     H89888   8.389   2.526   6.855  4.1578 -1.2798  0.4769
  681MOL0     H89889   8.290   2.440   6.984 -1.5595  0.7599 -0.5733
  681MOL0     H89890   8.475   2.116   6.786  1.5530  1.6270 -0.0199
  681MOL0     H89891   8.020   2.605   6.266  0.0042 -1.6461 -1.9913
  681MOL0     H89892   7.795   2.650   6.158  0.9743 -0.0865 -1.1938
  682MOL0     O89893   7.096   6.315   4.941  0.0868 -0.2992  0.2249
  682MOL0     C89894   7.085   6.420   4.875 -1.0506 -0.4449  0.0238
  682MOL0     O89895   6.976   6.506   4.870  0.2040  0.6838 -0.4540
  682MOL0     C89896   6.863   6.466   4.927  0.3527 -0.9637  0.3447
  682MOL0     C89897   6.806   6.342   4.917  0.0401  0.1322  0.8767
  682MOL0     C89898   6.686   6.308   4.973 -0.5161 -0.5353  0.3368
  682MOL0     C89899   6.612   6.402   5.049  0.3600  0.8354 -0.6047
  682MOL0     O89900   6.491   6.349   5.088  0.6242  0.1061  0.0503
  682MOL0     C89901   6.396   6.441   5.146 -1.0754  0.5453 -0.0350
  682MOL0     C89902   6.258   6.376   5.161  0.3147 -0.1196  0.8086
  682MOL0     C89903   6.142   6.453   5.213 -0.5932 -0.8074  0.8581
  682MOL0     C89904   6.023   6.369   5.237 -0.0714  1.2753 -0.3347
  682MOL0     C89905   5.905   6.446   5.274 -0.0805 -0.5819  0.5461
  682MOL0     C89906   5.779   6.353   5.274  0.5853 -0.2774 -0.3303
  682MOL0     C89907   5.670   6.426   5.351 -0.6750  0.9007  0.4873
  682MOL0     C89908   5.539   6.358   5.323  0.5997  0.2983  0.5492
  682MOL0     N89909   5.482   6.380   5.189 -0.2276 -0.0642  0.0462
  682MOL0     C89910   5.359   6.349   5.147 -0.3278  0.4024  0.1719
  682MOL0     C89911   5.335   6.403   5.027 -0.5966  0.1816  0.7610
  682MOL0     C89912   5.220   6.372   4.937 -0.4159  0.4592 -0.3706
  682MOL0     C89913   5.102   6.465   4.969  0.0671  0.0868  0.1302
  682MOL0     C89914   4.990   6.424   4.870  0.1953  0.0768 -0.6132
  682MOL0     C89915   4.849   6.473   4.908  0.2944 -0.2481  0.6011
  682MOL0     O89916   4.765   6.416   4.813  0.2615 -0.0275 -0.5979
  682MOL0     C89917   4.634   6.469   4.800  0.2600 -0.2531 -0.2896
  682MOL0     C89918   4.584   6.575   4.880  0.5274  0.8963 -0.3096
  682MOL0     C89919   4.455   6.625   4.862  0.4783 -0.6747  0.0396
  682MOL0     C89920   4.368   6.558   4.771 -0.2286  0.1012 -0.0737
  682MOL0     C89921   4.221   6.605   4.747  0.2088  0.3143 -0.6638
  682MOL0     O89922   4.158   6.560   4.639  0.2830  0.3825  0.0421
  682MOL0     C89923   4.041   6.615   4.596  0.1345 -0.2320  0.0249
  682MOL0     C89924   3.914   6.564   4.635  0.5273  0.5376  0.3578
  682MOL0     C89925   3.794   6.613   4.580  0.1849 -0.3287  0.6656
  682MOL0     C89926   3.801   6.734   4.502  1.1780  0.6736  0.5924
  682MOL0     O89927   3.676   6.780   4.467 -0.5645 -0.5657  0.1887
  682MOL0     C89928   3.674   6.890   4.376 -0.2460 -0.5873  0.4941
  682MOL0     C89929   3.528   6.915   4.328 -1.1861 -0.5313 -0.0281
  682MOL0     C89930   3.428   6.951   4.444 -0.0609  0.7239  0.3938
  682MOL0     C89931   3.460   7.094   4.504  0.2500 -0.3527  0.3666
  682MOL0     C89932   3.380   7.116   4.638 -0.1491  0.0615  0.2995
  682MOL0     C89933   3.462   7.063   4.759  0.2624 -0.0267 -0.1496
  682MOL0     C89934   3.369   7.065   4.882  0.5085 -0.3842 -0.6257
  682MOL0     C89935   3.409   7.170   4.993  0.1168 -0.3003  0.1775
  682MOL0    Cl89936   3.430   7.335   4.931  0.1808 -0.1239 -0.2312
  682MOL0     C89937   3.919   6.798   4.475 -0.2809 -0.8556 -0.3659
  682MOL0     C89938   4.036   6.740   4.527 -0.4269  0.5108  1.1007
  682MOL0     O89939   4.171   6.657   4.847  0.0554  0.4064  0.2671
  682MOL0     C89940   4.419   6.452   4.696  0.2252 -0.3878  0.3205
  682MOL0     C89941   4.553   6.410   4.706  0.5740  0.1196 -0.5222
  682MOL0     N89942   5.447   6.477   4.998 -1.0125  0.0600  0.2298
  682MOL0     N89943   5.528   6.465   5.098 -0.5391 -0.5414  0.0381
  682MOL0     C89944   6.671   6.534   5.064  0.0775 -0.0367 -0.2473
  682MOL0     C89945   6.794   6.563   5.004 -0.1643  0.7648  0.5070
  682MOL0     C89946   7.201   6.445   4.781  0.2136  0.5018 -0.7385
  682MOL0     C89947   7.193   6.539   4.680  0.9240 -1.0135 -0.4488
  682MOL0     C89948   7.295   6.559   4.583 -0.2066  0.6169 -0.0617
  682MOL0     C89949   7.413   6.482   4.586 -0.1326  0.5446  0.3398
  682MOL0     O89950   7.500   6.497   4.483 -0.8654 -0.1199  0.0222
  682MOL0     C89951   7.594   6.391   4.461  0.0654 -0.4427 -0.7378
  682MOL0     C89952   7.689   6.425   4.347  0.0793  0.1516 -0.1449
  682MOL0     C89953   7.781   6.534   4.393  0.3794 -0.4780 -0.3218
  682MOL0     C89954   7.740   6.670   4.328 -0.0747  0.4291 -1.2156
  682MOL0     C89955   7.846   6.771   4.349 -0.0497  0.3545  0.1863
  682MOL0     C89956   7.923   6.863   4.372 -0.1115 -0.3058 -0.2803
  682MOL0     C89957   7.419   6.388   4.694  0.8766  0.6035  0.1963
  682MOL0     C89958   7.319   6.371   4.787 -0.1466 -0.1914  0.0503
  682MOL0     H89959   6.857   6.269   4.854  0.7002  1.5418 -0.2909
  682MOL0     H89960   6.635   6.214   4.950 -1.4972  0.5629 -2.5365
  682MOL0     H89961   6.392   6.529   5.081  0.5111  0.5550 -0.1450
  682MOL0     H89962   6.443   6.465   5.242  2.5371  0.5401 -1.6662
  682MOL0     H89963   6.261   6.300   5.239 -2.7367  0.9369  2.1074
  682MOL0     H89964   6.237   6.334   5.063  2.4605  2.1212 -0.7543
  682MOL0     H89965   6.119   6.536   5.145 -3.5383  0.3887  3.0941
  682MOL0     H89966   6.167   6.506   5.306 -0.3089 -1.1967  1.0041
  682MOL0     H89967   6.004   6.313   5.145  1.0373 -1.2777  0.8991
  682MOL0     H89968   6.048   6.302   5.320 -0.8561  0.5667 -0.6635
  682MOL0     H89969   5.893   6.526   5.200  2.6719 -3.2066 -3.1344
  682MOL0     H89970   5.917   6.490   5.373 -1.0223 -2.0992  1.3770
  682MOL0     H89971   5.808   6.260   5.325  2.5518  0.5377  0.1405
  682MOL0     H89972   5.752   6.339   5.169 -0.3015  0.7059 -0.2574
  682MOL0     H89973   5.695   6.417   5.457 -4.3121  3.6352  1.8023
  682MOL0     H89974   5.679   6.529   5.313 -0.0802  0.5730 -0.3032
  682MOL0     H89975   5.464   6.388   5.396 -0.6087  1.3302 -1.0577
  682MOL0     H89976   5.547   6.249   5.334 -0.2336  0.2459  0.7107
  682MOL0     H89977   5.292   6.285   5.203  0.0044 -0.1599 -0.0587
  682MOL0     H89978   5.192   6.267   4.940  1.2672 -0.2782 -4.1991
  682MOL0     H89979   5.266   6.390   4.839  2.8351  0.5787  1.0446
  682MOL0     H89980   5.128   6.569   4.948 -2.0246  0.3620 -1.4174
  682MOL0     H89981   5.064   6.441   5.068 -0.5797  0.3543 -0.0507
  682MOL0     H89982   5.001   6.470   4.772 -2.1637 -0.5079 -1.2054
  682MOL0     H89983   4.995   6.315   4.875  4.9600  0.1188 -0.2210
  682MOL0     H89984   4.847   6.582   4.920  2.0186 -0.3216  1.8351
  682MOL0     H89985   4.805   6.439   5.002 -1.3544  0.3483  0.0768
  682MOL0     H89986   4.639   6.615   4.964 -0.5646  0.0292  0.8701
  682MOL0     H89987   4.440   6.715   4.921  3.0566  0.3820 -0.7650
  682MOL0     H89988   3.914   6.482   4.706  2.9273  0.3674  0.2379
  682MOL0     H89989   3.698   6.576   4.613  0.8480 -2.3805  0.4401
  682MOL0     H89990   3.734   6.862   4.289 -0.0326  0.9771  0.1062
  682MOL0     H89991   3.715   6.984   4.416  1.4057 -0.8740 -0.4551
  682MOL0     H89992   3.500   6.828   4.268  1.6001 -0.7952 -1.1100
  682MOL0     H89993   3.530   7.010   4.273 -0.2769  1.2242  2.7789
  682MOL0     H89994   3.444   6.878   4.524  0.1376  2.1647  1.7198
  682MOL0     H89995   3.325   6.955   4.407 -0.0494  0.2178  0.2886
  682MOL0     H89996   3.566   7.119   4.516 -0.5907  6.1434 -1.9263
  682MOL0     H89997   3.414   7.171   4.441 -0.6340 -1.3126 -0.2021
  682MOL0     H89998   3.291   7.054   4.622  1.7912 -2.4728 -1.4301
  682MOL0     H89999   3.380   7.225   4.652  2.4718  0.0599  0.7001
  682MOL0     H90000   3.554   7.121   4.775  0.5364 -0.5440  0.1831
  682MOL0     H90001   3.500   6.961   4.746  1.9304  0.3067  1.6149
  682MOL0     H90002   3.263   7.079   4.859  0.0849  1.3451  1.9031
  682MOL0     H90003   3.386   6.962   4.914 -1.5917 -0.2286  1.2302
  682MOL0     H90004   3.504   7.143   5.042 -0.0943 -1.1526  0.1243
  682MOL0     H90005   3.331   7.165   5.069  0.4207 -0.5119  0.4801
  682MOL0     H90006   3.916   6.884   4.410 -1.6776 -0.5830  0.0433
  682MOL0     H90007   4.135   6.775   4.499 -1.3630  1.3117 -1.4600
  682MOL0     H90008   4.359   6.405   4.619  1.2334  0.2031 -0.8605
  682MOL0     H90009   4.578   6.326   4.642  0.0766  1.6070 -2.7955
  682MOL0     H90010   6.623   6.609   5.126 -0.2794 -1.8634  1.7947
  682MOL0     H90011   6.838   6.662   5.008  0.9831  0.5348 -3.1052
  682MOL0     H90012   7.105   6.602   4.674 -1.0267 -3.3079  1.7954
  682MOL0     H90013   7.273   6.645   4.520 -1.2459 -0.5146 -1.3032
  682MOL0     H90014   7.530   6.305   4.437 -0.1355  0.0073 -1.8345
  682MOL0     H90015   7.653   6.371   4.551 -0.6790 -0.4010 -0.2191
  682MOL0     H90016   7.747   6.333   4.337  0.7983  0.2648  2.4269
  682MOL0     H90017   7.634   6.457   4.257  0.7499  3.9326  0.6087
  682MOL0     H90018   7.885   6.515   4.364  1.2632  2.2456  0.7842
  682MOL0     H90019   7.775   6.544   4.502 -0.1404 -0.9959 -0.2987
  682MOL0     H90020   7.711   6.666   4.223  0.0305 -3.1922 -1.2505
  682MOL0     H90021   7.660   6.717   4.386 -1.1161 -0.6610 -1.7242
  682MOL0     H90022   7.987   6.949   4.376  1.1927 -1.2367 -0.4802
  682MOL0     H90023   7.507   6.325   4.702  1.4602  0.8812 -2.7759
  682MOL0     H90024   7.337   6.291   4.858 -2.8576 -0.8478  0.1064
  683MOL0     O90025   9.127   5.158  10.102  0.2420  0.0599  0.7506
  683MOL0     C90026   9.169   5.040  10.079  0.0229 -0.3169  0.1869
  683MOL0     O90027   9.101   4.925  10.101  0.2997 -0.4268  0.9251
  683MOL0     C90028   8.978   4.938  10.148  0.1372  0.0557 -0.2369
  683MOL0     C90029   8.941   4.872  10.261  0.6554 -0.2172 -1.2340
  683MOL0     C90030   8.809   4.878  10.304  0.3795  0.1056 -0.1261
  683MOL0     C90031   8.712   4.959  10.238 -0.4815  0.6878  0.4543
  683MOL0     O90032   8.576   4.962  10.256 -0.2474 -0.4853  0.6280
  683MOL0     C90033   8.536   4.910  10.383 -0.5363  0.3536 -0.1650
  683MOL0     C90034   8.393   4.911  10.425  0.1628  0.3879 -0.5427
  683MOL0     C90035   8.342   5.055  10.454 -0.0761  0.4695  0.1176
  683MOL0     C90036   8.280   5.114  10.322 -0.3585 -0.6819 -0.5561
  683MOL0     C90037   8.209   5.246  10.344  0.1963 -0.4690 -0.1341
  683MOL0     C90038   8.157   5.317  10.219 -0.5441  0.2790  0.1411
  683MOL0     C90039   8.020   5.379  10.240  0.1770  0.7744  0.6707
  683MOL0     C90040   7.912   5.273  10.259  0.1977 -0.3178  0.2015
  683MOL0     N90041   7.892   5.205  10.131 -0.1162  0.4019  0.4029
  683MOL0     C90042   7.843   5.255  10.006 -0.0828 -0.4029 -0.6795
  683MOL0     C90043   7.883   5.165   9.915  0.0745 -0.3011  0.2901
  683MOL0     C90044   7.869   5.172   9.764  0.2679 -0.1683 -0.0486
  683MOL0     C90045   7.784   5.064   9.696  0.2975  0.4924 -0.0969
  683MOL0     C90046   7.632   5.062   9.750 -0.0534 -0.1668  0.3793
  683MOL0     C90047   7.546   5.159   9.677 -0.2485  0.0314 -0.5034
  683MOL0     O90048   7.414   5.138   9.719  0.1477  0.2043  0.1260
  683MOL0     C90049   7.318   5.217   9.657 -0.1375  0.5991  0.3148
  683MOL0     C90050   7.321   5.275   9.533  0.1222  0.1025  0.9784
  683MOL0     C90051   7.213   5.343   9.477  0.1162  0.2058 -1.1693
  683MOL0     C90052   7.096   5.348   9.557 -0.2179 -1.6474  0.1514
  683MOL0     C90053   6.983   5.412   9.508  0.2500  0.3172  0.5400
  683MOL0     O90054   7.006   5.508   9.405  0.2825  0.0145  0.0393
  683MOL0     C90055   6.891   5.577   9.376 -0.1094  0.6917  0.5011
  683MOL0     C90056   6.857   5.688   9.456 -0.4067 -0.0200 -0.2114
  683MOL0     C90057   6.748   5.768   9.430 -0.0802  0.7336 -0.5112
  683MOL0     C90058   6.660   5.728   9.329  0.2259  0.5037 -0.0162
  683MOL0     O90059   6.542   5.805   9.312  0.0172  0.7121 -0.2513
  683MOL0     C90060   6.544   5.944   9.358  0.4919  0.4231 -0.0845
  683MOL0     C90061   6.418   6.010   9.293 -0.3371  0.4361 -0.0873
  683MOL0     C90062   6.411   6.022   9.139  0.2770  0.2922  0.5892
  683MOL0     C90063   6.496   6.134   9.093  0.2015 -0.0972  0.8163
  683MOL0     C90064   6.433   6.214   8.977  1.0202 -0.1786  0.2757
  683MOL0     C90065   6.306   6.292   9.030 -0.2159  0.0129 -0.6191
  683MOL0     C90066   6.224   6.360   8.922 -0.0732  0.1482 -0.6905
  683MOL0     C90067   6.139   6.465   8.988 -0.3675  0.0056  0.1713
  683MOL0    Cl90068   6.022   6.534   8.867 -0.0260 -0.7262 -0.3776
  683MOL0     C90069   6.699   5.628   9.238  0.0257 -0.0506 -0.2907
  683MOL0     C90070   6.811   5.547   9.265  0.1743 -0.6462 -0.3703
  683MOL0     O90071   6.881   5.383   9.567  0.6028  0.5686  0.3534
  683MOL0     C90072   7.097   5.293   9.684  0.3809 -0.1457 -0.3592
  683MOL0     C90073   7.207   5.228   9.735 -0.2559  0.1924 -0.2958
  683MOL0     N90074   7.943   5.061   9.984 -0.4601  0.3836 -0.0432
  683MOL0     N90075   7.943   5.087  10.106  0.2878  0.1652 -0.0629
  683MOL0     C90076   8.753   5.018  10.120  0.3275 -0.0297 -1.0332
  683MOL0     C90077   8.884   5.013  10.079  0.5610 -0.3571 -0.2797
  683MOL0     C90078   9.320   5.037  10.044  1.1067 -0.1248  1.3872
  683MOL0     C90079   9.393   5.155  10.036  0.0675  0.1770  0.4079
  683MOL0     C90080   9.520   5.154   9.989 -0.7932 -0.9935 -0.3878
  683MOL0     C90081   9.589   5.032   9.960  0.2896  0.0032  0.1841
  683MOL0     O90082   9.721   5.027   9.923 -0.3108 -0.3388 -0.2573
  683MOL0     C90083   9.766   5.143   9.855 -0.6480  0.5351 -0.3881
  683MOL0     C90084   9.907   5.102   9.802  0.5075  0.1441 -0.2146
  683MOL0     C90085  10.009   5.043   9.914  0.2679 -0.2142  0.5819
  683MOL0     C90086  10.140   5.010   9.842 -0.3092 -0.1009 -0.3618
  683MOL0     C90087  10.215   5.117   9.773 -0.2801 -0.6093 -0.0855
  683MOL0     C90088  10.265   5.219   9.731 -0.1101 -0.2690 -0.3576
  683MOL0     C90089   9.521   4.915   9.977  0.0413 -0.3444 -0.6159
  683MOL0     C90090   9.382   4.908  10.015 -0.2131  0.6064  0.5210
  683MOL0     H90091   9.009   4.811  10.320  1.0806  0.1017 -1.3957
  683MOL0     H90092   8.789   4.812  10.387 -2.3240  1.4078  0.3769
  683MOL0     H90093   8.607   4.965  10.446  1.1034 -0.8144 -0.9454
  683MOL0     H90094   8.557   4.805  10.402  0.7515  0.4438 -1.0037
  683MOL0     H90095   8.375   4.856  10.518  3.9351  1.0866  0.7736
  683MOL0     H90096   8.327   4.872  10.347 -0.4799  2.1400 -0.9302
  683MOL0     H90097   8.419   5.124  10.490  1.1819 -0.2756 -1.0521
  683MOL0     H90098   8.261   5.058  10.527  1.3997 -0.9371  1.8983
  683MOL0     H90099   8.360   5.128  10.249 -2.2461  1.6471 -2.3635
  683MOL0     H90100   8.206   5.044  10.283 -0.9323 -0.1366 -0.4697
  683MOL0     H90101   8.282   5.322  10.375  0.2571 -1.3602  2.0779
  683MOL0     H90102   8.131   5.254  10.420  0.0785  1.0220 -0.3777
  683MOL0     H90103   8.164   5.250  10.133  1.0855  0.0406  0.4334
  683MOL0     H90104   8.228   5.397  10.197 -0.6926  0.2507 -0.4648
  683MOL0     H90105   8.022   5.441  10.329  3.5297  2.4157 -0.3532
  683MOL0     H90106   8.000   5.450  10.159 -1.1128 -0.2485  0.0396
  683MOL0     H90107   7.822   5.331  10.283  1.9102  2.4880  0.3092
  683MOL0     H90108   7.933   5.210  10.345 -1.3623  0.0402  0.8911
  683MOL0     H90109   7.796   5.350   9.982  1.2946  0.9729  1.7391
  683MOL0     H90110   7.970   5.175   9.721  0.9154  1.4198  1.4793
  683MOL0     H90111   7.829   5.271   9.742  0.6570 -0.2548 -1.2371
  683MOL0     H90112   7.820   4.966   9.728 -0.1599  0.1075 -0.7181
  683MOL0     H90113   7.781   5.069   9.587  1.0550 -0.2654 -0.1655
  683MOL0     H90114   7.597   4.961   9.729 -2.3565  0.1905  2.0592
  683MOL0     H90115   7.633   5.086   9.857 -2.5637  3.4676 -0.2051
  683MOL0     H90116   7.567   5.154   9.570  2.1757  0.2470 -0.1119
  683MOL0     H90117   7.574   5.259   9.710  2.9858 -1.0512  0.4208
  683MOL0     H90118   7.399   5.253   9.460 -0.5480  3.0001 -0.7659
  683MOL0     H90119   7.231   5.393   9.383  2.4347 -0.9631 -1.4107
  683MOL0     H90120   6.928   5.718   9.532  0.9942 -2.5461 -0.3960
  683MOL0     H90121   6.723   5.853   9.493 -2.2221 -1.0912  1.3035
  683MOL0     H90122   6.630   6.000   9.321 -1.1228  1.7836 -2.0075
  683MOL0     H90123   6.532   5.939   9.467 -0.2237  2.6709 -0.0134
  683MOL0     H90124   6.405   6.111   9.332 -0.9631 -0.2684  1.6365
  683MOL0     H90125   6.330   5.949   9.316 -2.3162  2.4128 -1.9267
  683MOL0     H90126   6.308   6.011   9.106  0.7748 -1.3908 -0.5267
  683MOL0     H90127   6.455   5.934   9.090 -1.5001  1.1572 -2.7895
  683MOL0     H90128   6.507   6.210   9.171 -1.8868  0.6235  0.4731
  683MOL0     H90129   6.589   6.099   9.046  0.6066  0.2035  1.3812
  683MOL0     H90130   6.410   6.138   8.902  2.4419 -3.3273  2.7720
  683MOL0     H90131   6.507   6.282   8.933 -1.2384  1.8566 -0.5855
  683MOL0     H90132   6.349   6.368   9.097 -1.2236  1.4669 -1.5624
  683MOL0     H90133   6.242   6.222   9.085 -0.8903  1.6845  0.8377
  683MOL0     H90134   6.290   6.414   8.854 -0.7733 -0.0618 -1.5534
  683MOL0     H90135   6.162   6.295   8.859 -2.4455  1.0615  0.5733
  683MOL0     H90136   6.205   6.533   9.042 -0.1806 -0.7531  0.9239
  683MOL0     H90137   6.091   6.408   9.069  2.9630  0.5820  2.7856
  683MOL0     H90138   6.649   5.614   9.143 -1.4921  0.9999  0.2997
  683MOL0     H90139   6.830   5.467   9.194  0.5139  0.1397 -1.1926
  683MOL0     H90140   7.013   5.293   9.753 -0.4124 -1.1460 -1.2778
  683MOL0     H90141   7.201   5.171   9.827  2.3818 -1.7592 -1.2101
  683MOL0     H90142   8.674   5.061  10.059 -1.1860 -1.5105 -0.2411
  683MOL0     H90143   8.903   5.072   9.990 -2.6758  0.4297 -0.5777
  683MOL0     H90144   9.357   5.252  10.070  0.2263 -0.2179  1.7521
  683MOL0     H90145   9.577   5.245   9.974  1.1740 -2.4037 -2.2544
  683MOL0     H90146   9.793   5.223   9.923  2.9028 -0.0834 -0.8537
  683MOL0     H90147   9.696   5.175   9.777 -1.2092  0.9170  0.2651
  683MOL0     H90148   9.886   5.020   9.733  0.7050 -2.5743  2.7316
  683MOL0     H90149   9.948   5.193   9.757 -2.2809  1.4898 -0.2601
  683MOL0     H90150   9.974   4.955   9.970 -1.8044  0.2762  0.1438
  683MOL0     H90151  10.019   5.124   9.987 -1.2428 -0.1878  0.7817
  683MOL0     H90152  10.201   4.967   9.923  1.3283  0.6667 -1.1279
  683MOL0     H90153  10.128   4.932   9.767  0.3875 -1.5229  0.9505
  683MOL0     H90154  10.311   5.313   9.708 -0.2997 -0.5178 -1.8400
  683MOL0     H90155   9.585   4.830   9.954 -0.1727 -0.2612 -1.5372
  683MOL0     H90156   9.332   4.812  10.016  3.6231 -1.5889 -0.0497
  684MOL0     O90157   8.047  10.442   8.425 -0.0065 -0.0164 -0.0247
  684MOL0     C90158   8.130  10.527   8.451 -0.5916 -0.0804 -0.9198
  684MOL0     O90159   8.105  10.658   8.445  0.0207 -0.2778  0.0340
  684MOL0     C90160   7.993  10.699   8.368 -0.2194 -0.2583  0.2165
  684MOL0     C90161   7.886  10.745   8.442  0.6821  0.8320 -0.0419
  684MOL0     C90162   7.759  10.762   8.381  0.0757  0.6373  0.1784
  684MOL0     C90163   7.750  10.741   8.240 -0.3295  0.1606 -0.1640
  684MOL0     O90164   7.649  10.788   8.158  0.1352  0.2247  0.8348
  684MOL0     C90165   7.530  10.824   8.221  0.1167  0.6559  0.5068
  684MOL0     C90166   7.415  10.819   8.118  0.2952 -0.2374 -0.2147
  684MOL0     C90167   7.269  10.864   8.160  0.4843  0.3714  0.7960
  684MOL0     C90168   7.163  10.805   8.060  0.5164  0.1404 -1.2217
  684MOL0     C90169   7.013  10.820   8.120 -0.1429 -0.7189 -1.2198
  684MOL0     C90170   6.904  10.751   8.038  0.4442  0.6838 -0.0741
  684MOL0     C90171   6.769  10.753   8.109 -0.2611  0.9635  0.0212
  684MOL0     C90172   6.718  10.898   8.128  0.0757  1.2370 -0.1479
  684MOL0     N90173   6.585  10.899   8.188  0.0733  0.5190  0.0913
  684MOL0     C90174   6.467  10.877   8.117 -0.8328  0.2665 -0.1523
  684MOL0     C90175   6.372  10.918   8.203 -0.6136  0.5447 -0.1261
  684MOL0     C90176   6.222  10.917   8.170 -0.9853 -0.5048  0.0405
  684MOL0     C90177   6.160  11.055   8.197  0.3227 -0.8541  0.8587
  684MOL0     C90178   6.005  11.047   8.201 -0.2090  0.1081  0.0241
  684MOL0     C90179   5.958  11.196   8.228  0.7907  0.1893  0.5640
  684MOL0     O90180   5.816  11.204   8.196 -0.4901  0.0976  0.0193
  684MOL0     C90181   5.727  11.153   8.284 -0.1587 -0.9475 -0.4108
  684MOL0     C90182   5.595  11.173   8.254 -0.7065 -0.1394  0.2665
  684MOL0     C90183   5.488  11.147   8.340 -0.0209  0.8103 -0.7925
  684MOL0     C90184   5.511  11.086   8.466 -0.4492  0.5311  0.1791
  684MOL0     C90185   5.389  11.051   8.542 -0.5214 -0.7348 -0.6505
  684MOL0     O90186   5.266  11.102   8.506  0.6324  0.0689 -0.1800
  684MOL0     C90187   5.155  11.053   8.569  0.6811  0.2167 -1.1382
  684MOL0     C90188   5.046  11.020   8.484 -0.1029 -0.3116 -0.2163
  684MOL0     C90189   4.929  10.960   8.538  0.2168  0.1386 -0.2029
  684MOL0     C90190   4.913  10.950   8.676 -0.4057  0.1974  0.2331
  684MOL0     O90191   4.804  10.884   8.725 -0.1937  0.3514 -0.2938
  684MOL0     C90192   4.820  10.742   8.717  0.0214  0.1421  0.5080
  684MOL0     C90193   4.687  10.679   8.748  0.2891  0.1754  0.6930
  684MOL0     C90194   4.667  10.532   8.716  0.1278 -0.2060 -1.1386
  684MOL0     C90195   4.602  10.530   8.574 -0.2699  0.1417 -0.0601
  684MOL0     C90196   4.599  10.393   8.508 -0.9483  0.5222  0.3514
  684MOL0     C90197   4.495  10.288   8.555 -0.2492  0.6121 -0.6374
  684MOL0     C90198   4.568  10.179   8.648  0.6125  0.1350 -0.7497
  684MOL0     C90199   4.476  10.067   8.690 -0.3877 -0.1434  0.3226
  684MOL0    Cl90200   4.338  10.129   8.781 -0.1264  0.1915  0.2439
  684MOL0     C90201   5.011  10.992   8.763  0.4199 -0.0188 -1.1533
  684MOL0     C90202   5.133  11.047   8.708 -0.2056 -0.1984 -0.2450
  684MOL0     O90203   5.408  10.973   8.633  0.4237 -0.1032  0.5484
  684MOL0     C90204   5.646  11.074   8.500 -0.1641 -0.9507 -0.2856
  684MOL0     C90205   5.755  11.112   8.410  0.0176  0.3538 -0.6875
  684MOL0     N90206   6.432  10.941   8.326 -0.4117  0.0834 -0.3612
  684MOL0     N90207   6.556  10.939   8.312 -1.0832 -0.2307 -0.0481
  684MOL0     C90208   7.862  10.699   8.166  0.3732  0.2558  0.4863
  684MOL0     C90209   7.982  10.677   8.238  0.1694  0.1358  0.6506
  684MOL0     C90210   8.267  10.487   8.491 -0.1734 -0.5670 -0.5049
  684MOL0     C90211   8.370  10.587   8.521  0.7965 -0.3730 -0.3081
  684MOL0     C90212   8.497  10.555   8.570  0.3291  0.1421  0.2214
  684MOL0     C90213   8.527  10.429   8.609  0.5362 -0.1430 -0.2405
  684MOL0     O90214   8.649  10.410   8.671  0.0583  0.1957 -0.0034
  684MOL0     C90215   8.697  10.267   8.688 -0.2022 -0.4364  0.8192
  684MOL0     C90216   8.856  10.266   8.683  0.2533  0.3188  0.2341
  684MOL0     C90217   8.910  10.373   8.586  0.3490 -0.4842  0.0952
  684MOL0     C90218   9.060  10.381   8.581 -0.1430 -0.4054 -0.3948
  684MOL0     C90219   9.122  10.260   8.546 -0.7478  0.2783 -0.1891
  684MOL0     C90220   9.181  10.158   8.520  0.1950 -0.4443 -0.2871
  684MOL0     C90221   8.423  10.328   8.607 -0.6911 -0.6299 -0.3324
  684MOL0     C90222   8.299  10.361   8.549  0.0918 -0.3313  0.3335
  684MOL0     H90223   7.893  10.750   8.550 -0.5085  0.0265  0.0878
  684MOL0     H90224   7.681  10.792   8.451  1.0394  0.8510  1.1824
  684MOL0     H90225   7.539  10.923   8.266 -0.6350  0.8493  0.2507
  684MOL0     H90226   7.514  10.757   8.306  1.1462  0.5070  0.5917
  684MOL0     H90227   7.404  10.717   8.080  3.0474 -0.5439 -0.3381
  684MOL0     H90228   7.446  10.877   8.030 -0.4181 -1.8912 -1.6353
  684MOL0     H90229   7.271  10.974   8.161 -0.7193  0.4043  0.4792
  684MOL0     H90230   7.229  10.825   8.253 -4.5745 -1.4946 -1.7771
  684MOL0     H90231   7.156  10.854   7.963 -2.2332  1.5107 -0.4590
  684MOL0     H90232   7.187  10.699   8.053  1.5768  0.2420  0.3328
  684MOL0     H90233   7.000  10.928   8.135  0.4033 -0.6997 -0.8230
  684MOL0     H90234   7.008  10.782   8.222  1.5908  1.7440 -0.0857
  684MOL0     H90235   6.932  10.646   8.021 -0.3332  0.6333 -1.1782
  684MOL0     H90236   6.901  10.798   7.939 -0.1817 -0.2658 -0.5254
  684MOL0     H90237   6.707  10.687   8.047  2.5032 -2.9668  1.1028
  684MOL0     H90238   6.777  10.700   8.204 -2.9084 -0.8555 -0.6237
  684MOL0     H90239   6.707  10.956   8.037 -1.9123  0.5403 -0.3960
  684MOL0     H90240   6.798  10.942   8.189  3.8161 -3.3266 -1.1043
  684MOL0     H90241   6.460  10.854   8.011  0.2374  1.3476 -0.4775
  684MOL0     H90242   6.179  10.850   8.245 -1.3404 -0.4948 -0.1541
  684MOL0     H90243   6.218  10.896   8.063  2.2367  3.4855 -1.1442
  684MOL0     H90244   6.194  11.123   8.118 -1.0257 -1.5588 -0.3639
  684MOL0     H90245   6.192  11.096   8.293  2.7373 -0.3742 -0.0863
  684MOL0     H90246   5.971  11.017   8.102  0.5746  0.8722 -0.4940
  684MOL0     H90247   5.977  10.985   8.287  0.6046 -0.4922 -0.1269
  684MOL0     H90248   6.014  11.262   8.161 -1.0291  1.7007  0.4408
  684MOL0     H90249   5.979  11.227   8.331 -1.4479  0.2434  1.0586
  684MOL0     H90250   5.580  11.220   8.157  0.6595  3.2229  1.5247
  684MOL0     H90251   5.394  11.172   8.291  1.0767  3.1098 -1.8738
  684MOL0     H90252   5.066  11.038   8.379  0.1548  1.0322  0.0415
  684MOL0     H90253   4.853  10.921   8.472  0.1692 -2.5773  1.3110
  684MOL0     H90254   4.897  10.714   8.790  1.4271  0.8118 -0.6555
  684MOL0     H90255   4.854  10.698   8.623  2.9386 -3.3173  2.9054
  684MOL0     H90256   4.602  10.733   8.704 -0.7756 -2.9819 -1.5182
  684MOL0     H90257   4.677  10.695   8.856  0.1069  0.8300  0.5842
  684MOL0     H90258   4.602  10.473   8.782 -0.3653  0.7772 -0.7209
  684MOL0     H90259   4.761  10.477   8.711  1.1198  1.4509 -1.5624
  684MOL0     H90260   4.502  10.572   8.567 -1.1521 -2.0384 -2.1918
  684MOL0     H90261   4.666  10.587   8.506 -1.7279  0.9133 -0.8141
  684MOL0     H90262   4.696  10.343   8.517 -2.3716 -2.3853  0.8861
  684MOL0     H90263   4.574  10.408   8.402 -3.7921 -2.1236  0.5074
  684MOL0     H90264   4.453  10.241   8.465 -0.1878 -1.8525  0.5476
  684MOL0     H90265   4.420  10.344   8.611  1.2677  1.0768  0.9916
  684MOL0     H90266   4.649  10.138   8.587 -0.4536 -1.3604 -1.2029
  684MOL0     H90267   4.607  10.229   8.737 -4.0013  0.2752  1.4671
  684MOL0     H90268   4.527   9.987   8.744  0.1113  0.9962  1.5724
  684MOL0     H90269   4.434  10.027   8.596 -3.1754  0.3791  1.2503
  684MOL0     H90270   4.991  10.980   8.869 -0.2749 -0.7807 -1.3587
  684MOL0     H90271   5.219  11.061   8.772  0.6326 -1.5285 -1.0219
  684MOL0     H90272   5.669  11.026   8.595 -1.5281  1.6435  1.4663
  684MOL0     H90273   5.859  11.097   8.437 -0.1180 -0.1660 -0.4392
  684MOL0     H90274   7.851  10.689   8.058 -0.0933 -0.1697  0.5705
  684MOL0     H90275   8.069  10.645   8.182  1.6279  1.2115  2.1819
  684MOL0     H90276   8.348  10.690   8.492  2.1251  0.3758  1.1908
  684MOL0     H90277   8.555  10.647   8.578 -1.0813  1.3417 -2.0222
  684MOL0     H90278   8.670  10.208   8.600  0.2210  0.5295  0.0169
  684MOL0     H90279   8.648  10.225   8.777  1.1872  1.1779  2.4452
  684MOL0     H90280   8.894  10.284   8.784  0.3929 -1.3348  0.5028
  684MOL0     H90281   8.899  10.169   8.658 -0.5850 -0.5358  1.9351
  684MOL0     H90282   8.871  10.472   8.609 -1.5295 -0.7366 -1.7136
  684MOL0     H90283   8.877  10.335   8.489  2.1000 -0.4858 -0.5382
  684MOL0     H90284   9.087  10.446   8.497 -2.2502  0.8796 -0.1251
  684MOL0     H90285   9.092  10.423   8.676 -0.1512 -1.3246  0.0294
  684MOL0     H90286   9.239  10.068   8.509  0.5064 -0.7922  3.0060
  684MOL0     H90287   8.454  10.229   8.636  1.5040  0.5357  1.6309
  684MOL0     H90288   8.220  10.286   8.548  1.5479 -1.9184  0.2927
  685MOL0     O90289   1.455   2.169   1.037 -0.2091 -0.0075  0.4243
  685MOL0     C90290   1.505   2.196   1.148 -0.0937  0.0436  0.5296
  685MOL0     O90291   1.470   2.156   1.271  0.5044 -0.2783 -1.1949
  685MOL0     C90292   1.357   2.078   1.275  0.0763 -0.2817 -1.0750
  685MOL0     C90293   1.366   1.933   1.285 -0.9352 -0.5746 -0.4270
  685MOL0     C90294   1.250   1.859   1.293  0.0034 -0.1660  0.7331
  685MOL0     C90295   1.125   1.918   1.292  0.2298  0.0536  0.7693
  685MOL0     O90296   1.000   1.848   1.286 -0.0142 -0.2973 -0.3604
  685MOL0     C90297   0.998   1.714   1.238 -0.3196  0.4436 -0.7560
  685MOL0     C90298   0.858   1.676   1.192  0.0920  0.6056  0.0697
  685MOL0     C90299   0.773   1.670   1.310 -0.1268  0.3895  0.0911
  685MOL0     C90300   0.637   1.646   1.247  0.2426  0.0324  0.4630
  685MOL0     C90301   0.523   1.645   1.362  0.5875  0.0256 -0.5294
  685MOL0     C90302   0.542   1.529   1.475 -0.6644  0.1306  0.0361
  685MOL0     C90303   0.437   1.561   1.576 -0.0337 -0.1587 -0.5154
  685MOL0     C90304   0.307   1.502   1.545  0.0427  0.0050 -0.7370
  685MOL0     N90305   0.216   1.519   1.658 -0.3836  0.1609 -0.0745
  685MOL0     C90306   0.096   1.581   1.647  0.0278  0.1720 -0.0582
  685MOL0     C90307   0.053   1.588   1.778  0.0112 -0.0840 -0.2563
  685MOL0     C90308  -0.076   1.644   1.833  0.2047 -0.3119  0.6985
  685MOL0     C90309  -0.187   1.534   1.805 -0.8461 -0.8331 -1.0543
  685MOL0     C90310  -0.327   1.582   1.855 -0.7763 -0.5453 -0.4945
  685MOL0     C90311  -0.434   1.474   1.861  0.9543 -0.8588  0.1218
  685MOL0     O90312  -0.555   1.510   1.937 -0.7357  0.8607 -0.2721
  685MOL0     C90313  -0.661   1.565   1.873  0.1162 -0.1029  0.2928
  685MOL0     C90314  -0.780   1.587   1.946 -0.0520 -1.5254 -0.0966
  685MOL0     C90315  -0.898   1.629   1.878  1.0700 -0.6299  0.0886
  685MOL0     C90316  -0.896   1.665   1.745 -0.4040 -0.2426 -0.4109
  685MOL0     C90317  -1.019   1.699   1.680 -0.0213 -0.5522  0.2801
  685MOL0     O90318  -1.131   1.646   1.734 -1.0604  0.1150  0.5181
  685MOL0     C90319  -1.251   1.700   1.685 -0.1944 -0.6214 -0.8712
  685MOL0     C90320  -1.355   1.607   1.687 -0.0702 -0.0058 -0.2377
  685MOL0     C90321  -1.480   1.647   1.694  0.5881 -0.2389 -0.3087
  685MOL0     C90322  -1.515   1.785   1.690  0.2608  0.3909 -0.2336
  685MOL0     O90323  -1.636   1.846   1.679  0.8803  0.2909 -0.0325
  685MOL0     C90324  -1.745   1.752   1.713 -0.2831 -0.4015 -0.2743
  685MOL0     C90325  -1.881   1.831   1.718  1.0574 -0.6071 -0.0625
  685MOL0     C90326  -1.869   1.950   1.807  1.1065  0.4987  0.8374
  685MOL0     C90327  -1.997   1.959   1.885  0.4634  0.0714 -0.0383
  685MOL0     C90328  -2.125   1.979   1.808  0.3321  0.2954 -0.4085
  685MOL0     C90329  -2.242   1.976   1.910  0.1058 -0.2423 -0.0776
  685MOL0     C90330  -2.371   1.975   1.841  0.3858 -0.3855 -0.1046
  685MOL0     C90331  -2.490   1.980   1.933 -0.3020  0.1049 -0.2857
  685MOL0    Cl90332  -2.633   1.939   1.831  0.1176 -0.7784 -0.2307
  685MOL0     C90333  -1.417   1.884   1.682 -0.4030  0.2665  0.7678
  685MOL0     C90334  -1.278   1.842   1.679 -0.0660 -0.6951 -0.5869
  685MOL0     O90335  -1.009   1.777   1.588 -0.2463  0.0648 -0.2793
  685MOL0     C90336  -0.776   1.648   1.670 -0.8343  0.4536  0.1808
  685MOL0     C90337  -0.660   1.603   1.734  0.0461 -0.2124 -0.5327
  685MOL0     N90338   0.152   1.532   1.861 -0.0276  0.2080  0.6207
  685MOL0     N90339   0.245   1.478   1.791  0.1094 -0.2232  0.8826
  685MOL0     C90340   1.112   2.058   1.273 -0.1320  1.1088 -0.1372
  685MOL0     C90341   1.228   2.135   1.265 -0.5194  0.3206 -0.7448
  685MOL0     C90342   1.633   2.259   1.141 -0.6390 -0.9980 -1.0652
  685MOL0     C90343   1.698   2.303   1.027  0.1279  0.6443 -0.5523
  685MOL0     C90344   1.819   2.373   1.033 -0.3284 -0.1983  1.0953
  685MOL0     C90345   1.880   2.393   1.146 -0.5444  0.4199  0.6831
  685MOL0     O90346   1.998   2.460   1.134 -0.2262  0.1103 -0.3659
  685MOL0     C90347   2.036   2.539   1.254  0.2918  0.4273  0.7838
  685MOL0     C90348   2.130   2.650   1.203 -0.1619  0.0603  0.3553
  685MOL0     C90349   2.045   2.768   1.156  0.7288 -0.1640 -0.1124
  685MOL0     C90350   2.119   2.885   1.092 -0.1649 -0.2251 -0.3175
  685MOL0     C90351   2.220   2.944   1.179  0.4929 -0.6666  0.4233
  685MOL0     C90352   2.300   2.980   1.253 -0.4531  0.3484  0.0476
  685MOL0     C90353   1.828   2.339   1.262 -0.6183  0.2436 -0.1696
  685MOL0     C90354   1.710   2.274   1.260  0.5076  0.4047 -0.5579
  685MOL0     H90355   1.461   1.888   1.312 -0.2709  1.8274  1.6437
  685MOL0     H90356   1.256   1.751   1.301 -0.1604 -0.3080 -0.7420
  685MOL0     H90357   1.034   1.640   1.310 -0.8386 -1.3888 -2.3039
  685MOL0     H90358   1.064   1.699   1.152 -0.6357 -1.7601 -0.6644
  685MOL0     H90359   0.864   1.577   1.147  0.0066  0.0812  1.1856
  685MOL0     H90360   0.816   1.754   1.129  0.8778  0.9661 -0.0230
  685MOL0     H90361   0.760   1.762   1.368  0.2333 -1.1436  2.7276
  685MOL0     H90362   0.802   1.597   1.386 -2.1605  1.2328  1.7629
  685MOL0     H90363   0.603   1.729   1.184  0.0780  0.4611  1.1117
  685MOL0     H90364   0.652   1.552   1.193  2.8863  1.4134 -1.4598
  685MOL0     H90365   0.425   1.633   1.315  0.5425 -0.7200 -0.2514
  685MOL0     H90366   0.516   1.740   1.416  0.2604 -0.5331  0.4422
  685MOL0     H90367   0.638   1.542   1.527 -0.7735  2.2568 -0.1895
  685MOL0     H90368   0.528   1.425   1.445 -0.6149  0.3679 -0.8439
  685MOL0     H90369   0.473   1.531   1.675  0.4393 -0.0911 -0.6648
  685MOL0     H90370   0.431   1.669   1.589  1.7619 -0.0732 -0.1966
  685MOL0     H90371   0.328   1.396   1.534  0.1573  0.0733 -1.1872
  685MOL0     H90372   0.269   1.544   1.451 -0.1080 -0.9413 -1.1097
  685MOL0     H90373   0.039   1.612   1.559 -0.5248  0.4824  0.3960
  685MOL0     H90374  -0.106   1.743   1.797 -0.2845 -0.7906 -0.2431
  685MOL0     H90375  -0.062   1.659   1.940  0.5720 -0.0151  0.6126
  685MOL0     H90376  -0.145   1.447   1.857  0.6204 -0.3205 -1.3300
  685MOL0     H90377  -0.197   1.501   1.701  0.7854 -2.4862 -0.7565
  685MOL0     H90378  -0.314   1.619   1.958  4.8627 -1.3577 -0.5633
  685MOL0     H90379  -0.363   1.650   1.778  0.0483 -1.2993 -1.5699
  685MOL0     H90380  -0.375   1.389   1.899 -0.0432 -0.9623  1.5236
  685MOL0     H90381  -0.457   1.443   1.759 -2.8512 -1.0531  0.8748
  685MOL0     H90382  -0.780   1.553   2.049 -2.5999  1.0426  0.9225
  685MOL0     H90383  -0.989   1.642   1.937  1.3673  1.5406  0.1740
  685MOL0     H90384  -1.336   1.500   1.686 -2.5025 -0.5077 -1.2998
  685MOL0     H90385  -1.548   1.564   1.676 -1.1942  1.7645 -3.8326
  685MOL0     H90386  -1.727   1.714   1.814 -0.4029 -1.1146 -0.5132
  685MOL0     H90387  -1.749   1.669   1.641 -1.9287 -1.3518  0.8352
  685MOL0     H90388  -1.946   1.751   1.753  0.0484  0.9641  1.7854
  685MOL0     H90389  -1.915   1.867   1.620  1.0498  1.9647  0.8256
  685MOL0     H90390  -1.864   2.036   1.740  0.2877 -1.0428 -1.2907
  685MOL0     H90391  -1.795   1.942   1.887  1.9303 -1.1758 -0.0605
  685MOL0     H90392  -2.005   1.860   1.931  0.9046  0.9809  2.0854
  685MOL0     H90393  -1.972   2.038   1.956 -0.5699  1.0396 -0.7260
  685MOL0     H90394  -2.127   1.895   1.737  0.2815 -0.7267  0.7795
  685MOL0     H90395  -2.124   2.074   1.753 -1.8419  0.1113 -0.8586
  685MOL0     H90396  -2.232   2.070   1.966  1.3302  0.1225 -0.8841
  685MOL0     H90397  -2.240   1.894   1.982 -2.6044  1.7439  2.5262
  685MOL0     H90398  -2.364   2.061   1.773  1.4295 -1.2134 -1.0923
  685MOL0     H90399  -2.387   1.888   1.777 -0.6609 -2.0073  2.2361
  685MOL0     H90400  -2.504   2.066   1.998 -4.9783  0.9116 -1.9954
  685MOL0     H90401  -2.482   1.903   2.010 -0.5892 -0.0756 -0.4342
  685MOL0     H90402  -1.444   1.989   1.688 -2.5001 -0.0581 -1.3389
  685MOL0     H90403  -1.198   1.915   1.681  0.6184 -1.4081 -1.2517
  685MOL0     H90404  -0.765   1.666   1.563 -0.8614 -2.2238 -0.3462
  685MOL0     H90405  -0.579   1.586   1.664  1.7515  0.7245  1.1179
  685MOL0     H90406   1.012   2.099   1.264 -1.2023 -0.7222  2.2986
  685MOL0     H90407   1.225   2.242   1.245  2.8344  1.7190  4.2272
  685MOL0     H90408   1.648   2.294   0.931 -2.0429  3.9015  0.0897
  685MOL0     H90409   1.871   2.407   0.944 -0.5941  0.8914  1.3386
  685MOL0     H90410   2.101   2.480   1.319  1.9455 -1.6894 -2.4996
  685MOL0     H90411   1.954   2.571   1.319 -1.5697  0.1706 -1.3204
  685MOL0     H90412   2.202   2.674   1.282  0.5921 -1.4929  0.1926
  685MOL0     H90413   2.197   2.618   1.122  2.6744  1.8983  1.8153
  685MOL0     H90414   1.982   2.814   1.232  1.6040  2.7314 -1.0164
  685MOL0     H90415   1.972   2.735   1.082  0.5396  0.1252 -0.0564
  685MOL0     H90416   2.172   2.848   1.004  2.0271  4.3469 -1.2020
  685MOL0     H90417   2.038   2.956   1.073 -0.3305  0.3585  2.1436
  685MOL0     H90418   2.374   2.997   1.328  0.2744 -2.3368  0.0492
  685MOL0     H90419   1.876   2.358   1.358 -1.4285 -0.2361  0.3409
  685MOL0     H90420   1.677   2.240   1.357  1.6433 -0.9820 -0.6124
  686MOL0     O90421   1.402   7.918   1.940  0.2886  0.3662  0.1895
  686MOL0     C90422   1.398   8.003   1.848 -0.3498  0.4461  0.0171
  686MOL0     O90423   1.285   8.073   1.803 -0.0916  0.4022  0.5221
  686MOL0     C90424   1.170   8.064   1.876  0.3081  0.9773  0.0659
  686MOL0     C90425   1.156   8.073   2.020 -0.1190  0.4959  0.9564
  686MOL0     C90426   1.037   8.093   2.082 -0.0728  1.2635 -0.6939
  686MOL0     C90427   0.925   8.115   2.006  0.3573 -0.8754  0.1010
  686MOL0     O90428   0.800   8.132   2.069 -0.6328 -0.0852  0.0396
  686MOL0     C90429   0.802   8.263   2.130 -0.5718  0.1813 -0.1072
  686MOL0     C90430   0.663   8.291   2.173 -0.7087  0.2324  0.4733
  686MOL0     C90431   0.563   8.336   2.067 -0.5155 -0.1408 -0.2674
  686MOL0     C90432   0.431   8.347   2.139  0.7241 -1.1314  0.5611
  686MOL0     C90433   0.343   8.449   2.071  1.5051 -1.4874 -0.2653
  686MOL0     C90434   0.196   8.430   2.116 -0.1313  0.4386 -0.6272
  686MOL0     C90435   0.116   8.549   2.074 -0.0539  0.1637  0.9590
  686MOL0     C90436  -0.023   8.509   2.038  0.0105 -0.1618  0.0529
  686MOL0     N90437  -0.113   8.623   2.036 -0.7128 -0.0310 -0.6117
  686MOL0     C90438  -0.190   8.669   2.139 -0.2135 -0.0223 -0.9801
  686MOL0     C90439  -0.252   8.773   2.074  0.9591  0.0326 -1.2471
  686MOL0     C90440  -0.347   8.859   2.137  0.2742 -0.8417 -0.5931
  686MOL0     C90441  -0.487   8.802   2.116  0.1351 -0.0039 -0.2520
  686MOL0     C90442  -0.541   8.788   1.975 -0.2817  0.7463  0.2042
  686MOL0     C90443  -0.586   8.926   1.931  0.3767  0.2765 -0.0898
  686MOL0     O90444  -0.688   8.927   1.829 -0.5426  0.1472  0.7304
  686MOL0     C90445  -0.812   8.892   1.855  0.9653 -0.0232 -0.5245
  686MOL0     C90446  -0.901   8.893   1.750  0.1892 -0.0841  1.0157
  686MOL0     C90447  -1.031   8.847   1.763  0.3425 -0.2038  1.0327
  686MOL0     C90448  -1.082   8.802   1.885  0.0744  0.3824  0.5282
  686MOL0     C90449  -1.222   8.744   1.892 -0.3322  0.7165  0.0613
  686MOL0     O90450  -1.249   8.638   1.975 -0.3856 -0.0235  0.2703
  686MOL0     C90451  -1.373   8.585   1.971  0.1330  0.5909  0.4016
  686MOL0     C90452  -1.493   8.658   1.994  0.6159  0.8676  0.6327
  686MOL0     C90453  -1.620   8.599   1.999  0.4565 -0.2170  0.5868
  686MOL0     C90454  -1.631   8.465   1.987 -0.1071 -0.3094  0.3091
  686MOL0     O90455  -1.756   8.415   2.010 -0.0526 -0.2492  0.0166
  686MOL0     C90456  -1.770   8.279   2.039  0.5159 -0.7596 -0.2099
  686MOL0     C90457  -1.912   8.239   2.082 -0.5219 -1.1813  0.7006
  686MOL0     C90458  -1.937   8.231   2.233 -0.1826  0.4252  0.1319
  686MOL0     C90459  -2.074   8.165   2.266 -0.4933 -0.2791  0.3358
  686MOL0     C90460  -2.091   8.153   2.417  0.3521  0.0535 -0.1470
  686MOL0     C90461  -2.239   8.114   2.428 -0.2732 -0.5530 -0.8182
  686MOL0     C90462  -2.282   8.112   2.569 -0.0052  0.2148 -0.2536
  686MOL0     C90463  -2.434   8.082   2.584  0.6776 -0.0537  0.4987
  686MOL0    Cl90464  -2.483   7.934   2.505 -0.1594 -0.0304 -0.1213
  686MOL0     C90465  -1.518   8.387   1.968 -0.5689 -0.0409 -0.2868
  686MOL0     C90466  -1.393   8.451   1.950 -0.8428  0.4380 -1.0480
  686MOL0     O90467  -1.304   8.793   1.813 -0.0919 -0.4045  0.4268
  686MOL0     C90468  -0.992   8.803   1.991  0.5029 -0.0827 -0.2482
  686MOL0     C90469  -0.864   8.842   1.980 -0.6380 -0.5088  0.1363
  686MOL0     N90470  -0.219   8.785   1.945 -0.1422 -0.3433  0.8580
  686MOL0     N90471  -0.137   8.693   1.919 -0.6024  0.3571 -0.3862
  686MOL0     C90472   0.930   8.106   1.866 -0.7858 -0.2361 -0.2655
  686MOL0     C90473   1.050   8.080   1.795  0.2907  0.4176  0.0130
  686MOL0     C90474   1.527   8.041   1.787 -0.8571 -0.0538 -0.5256
  686MOL0     C90475   1.546   8.144   1.691 -0.3848  0.2365 -0.5466
  686MOL0     C90476   1.674   8.155   1.624  0.2306  0.2064  0.4095
  686MOL0     C90477   1.781   8.074   1.658  0.3435 -0.1929 -1.0122
  686MOL0     O90478   1.905   8.086   1.602  0.2472  0.0907  0.3872
  686MOL0     C90479   2.014   8.011   1.665  0.0482  0.4493  0.1334
  686MOL0     C90480   2.134   8.061   1.580 -0.2844  0.6071 -0.3036
  686MOL0     C90481   2.238   7.949   1.567 -0.3945 -0.1018 -0.9316
  686MOL0     C90482   2.307   7.908   1.697 -0.2223 -0.0349 -0.7245
  686MOL0     C90483   2.355   8.035   1.747  0.5288 -0.1920  0.2298
  686MOL0     C90484   2.404   8.139   1.791 -0.0690 -0.3626  0.4981
  686MOL0     C90485   1.757   7.984   1.763  0.1996 -0.2676 -0.6128
  686MOL0     C90486   1.635   7.960   1.817 -0.1494 -0.3587  0.0127
  686MOL0     H90487   1.252   8.072   2.071  0.1954 -2.9547  0.5432
  686MOL0     H90488   1.020   8.092   2.190 -0.2689 -0.3150 -0.7170
  686MOL0     H90489   0.836   8.341   2.061  2.0176 -0.0491  0.7914
  686MOL0     H90490   0.866   8.274   2.219  0.2089 -0.9656 -0.5045
  686MOL0     H90491   0.667   8.375   2.243  0.7666  0.7478 -0.1947
  686MOL0     H90492   0.615   8.210   2.228 -0.6380  0.9680  1.6636
  686MOL0     H90493   0.554   8.272   1.979  2.8485 -1.3630  0.1370
  686MOL0     H90494   0.593   8.436   2.033 -1.3506  0.2341  0.0769
  686MOL0     H90495   0.379   8.250   2.140 -2.4418  0.4228  0.5654
  686MOL0     H90496   0.454   8.389   2.237 -0.2022  2.1467 -0.5120
  686MOL0     H90497   0.348   8.444   1.962 -4.1981  3.3849 -1.2303
  686MOL0     H90498   0.377   8.551   2.090 -0.7279 -0.9794  1.3600
  686MOL0     H90499   0.201   8.421   2.225  0.1940 -0.1922 -0.6870
  686MOL0     H90500   0.168   8.334   2.071 -0.1563  0.8814 -1.5624
  686MOL0     H90501   0.123   8.624   2.153 -0.2004 -0.3661  1.4824
  686MOL0     H90502   0.166   8.595   1.987  0.7845 -2.8926 -0.3027
  686MOL0     H90503  -0.064   8.433   2.105 -1.7584  0.9314  0.2758
  686MOL0     H90504  -0.016   8.463   1.939  1.7785 -0.3767  0.2350
  686MOL0     H90505  -0.186   8.638   2.243  0.7796  3.0954  0.0476
  686MOL0     H90506  -0.350   8.959   2.092  1.5458 -1.1107 -1.3032
  686MOL0     H90507  -0.314   8.868   2.241  2.2524 -1.4083 -1.1264
  686MOL0     H90508  -0.569   8.838   2.180 -1.3424 -2.7998 -0.3917
  686MOL0     H90509  -0.480   8.700   2.155 -0.4075  0.4247  1.0311
  686MOL0     H90510  -0.460   8.750   1.912  1.4516 -0.9550  3.2585
  686MOL0     H90511  -0.621   8.716   1.958  1.6950 -1.3584 -0.7110
  686MOL0     H90512  -0.493   8.978   1.905  0.4565  0.1443 -0.0705
  686MOL0     H90513  -0.631   8.985   2.011  1.7507 -0.6637  1.4347
  686MOL0     H90514  -0.861   8.916   1.652 -2.0725 -0.9596 -0.1809
  686MOL0     H90515  -1.095   8.853   1.675 -0.2136 -2.8441  1.1969
  686MOL0     H90516  -1.484   8.766   1.997 -0.4617  0.9511  1.7765
  686MOL0     H90517  -1.700   8.671   2.008  1.7770  1.4564 -0.3909
  686MOL0     H90518  -1.700   8.254   2.119  0.2970 -0.5101  0.0608
  686MOL0     H90519  -1.741   8.217   1.954  0.3209 -1.1649  0.0157
  686MOL0     H90520  -1.916   8.134   2.052  0.6010 -0.0737 -4.1344
  686MOL0     H90521  -1.988   8.304   2.037  1.0978 -0.7270 -1.5766
  686MOL0     H90522  -1.923   8.329   2.281 -0.2715 -0.0935  1.2611
  686MOL0     H90523  -1.851   8.173   2.269 -0.7561 -0.5887 -0.1160
  686MOL0     H90524  -2.148   8.235   2.225  0.0778  0.3505  0.3810
  686MOL0     H90525  -2.076   8.065   2.221 -0.6529 -1.7366  3.3344
  686MOL0     H90526  -2.075   8.255   2.453 -2.8415  0.6313 -0.0265
  686MOL0     H90527  -2.014   8.084   2.453  0.5799  1.3984  2.1304
  686MOL0     H90528  -2.258   8.022   2.373 -3.5494 -0.3247 -0.3102
  686MOL0     H90529  -2.296   8.196   2.384 -0.9174 -1.0520 -0.9333
  686MOL0     H90530  -2.221   8.047   2.634 -0.5338  0.4871  0.5323
  686MOL0     H90531  -2.263   8.212   2.607  2.2715  0.1092 -0.9557
  686MOL0     H90532  -2.490   8.163   2.535 -0.7727 -0.9637  0.5994
  686MOL0     H90533  -2.460   8.087   2.690 -1.0917  2.2713  0.0364
  686MOL0     H90534  -1.527   8.280   1.952  1.7223 -0.4901  0.9644
  686MOL0     H90535  -1.306   8.391   1.929  1.1833  2.7158  0.2607
  686MOL0     H90536  -1.021   8.774   2.092 -2.4108  0.3040 -0.8992
  686MOL0     H90537  -0.804   8.842   2.070  3.2280  1.2437 -2.1887
  686MOL0     H90538   0.834   8.106   1.815 -0.2549 -0.9634 -1.3109
  686MOL0     H90539   1.058   8.083   1.686  0.4804 -0.0579  0.0104
  686MOL0     H90540   1.469   8.216   1.664 -1.3932 -1.6031 -3.0442
  686MOL0     H90541   1.685   8.228   1.544 -0.5584 -1.9764 -1.8105
  686MOL0     H90542   2.008   7.902   1.659  1.4510  0.3969 -0.9001
  686MOL0     H90543   2.018   8.040   1.770 -1.8019  1.9568 -0.1583
  686MOL0     H90544   2.098   8.070   1.477  1.5209  0.5833 -0.9714
  686MOL0     H90545   2.170   8.157   1.617 -1.3844  0.6519  0.7172
  686MOL0     H90546   2.313   7.979   1.494 -0.5332 -0.7981 -1.3759
  686MOL0     H90547   2.199   7.857   1.522  0.9741 -0.7594 -0.8182
  686MOL0     H90548   2.237   7.858   1.764  0.4524  0.4173  0.3519
  686MOL0     H90549   2.396   7.848   1.678 -0.0292 -0.4413  1.2328
  686MOL0     H90550   2.441   8.230   1.835  0.3324  0.2284 -0.9966
  686MOL0     H90551   1.834   7.916   1.796 -1.5047 -0.8397  2.5211
  686MOL0     H90552   1.637   7.881   1.891  0.3914 -0.0037  0.3880
  687MOL0     O90553   2.388  10.351  10.977 -0.4016  0.0144  0.0808
  687MOL0     C90554   2.455  10.259  10.936 -0.6407  1.1562 -0.1004
  687MOL0     O90555   2.414  10.155  10.856 -0.0496  0.1149  0.9461
  687MOL0     C90556   2.285  10.125  10.812  0.3233 -0.3917 -0.3357
  687MOL0     C90557   2.256   9.997  10.765 -0.6799  0.0655  0.9805
  687MOL0     C90558   2.136   9.975  10.701  0.2600 -0.3414 -0.4109
  687MOL0     C90559   2.034  10.076  10.693 -0.5056 -0.0169 -0.7191
  687MOL0     O90560   1.910  10.040  10.654  0.4235  0.2476  0.7011
  687MOL0     C90561   1.869  10.115  10.539 -0.8983 -0.3906 -0.4869
  687MOL0     C90562   1.791  10.021  10.448 -0.4447  0.1763 -0.1683
  687MOL0     C90563   1.690  10.086  10.352 -0.1406 -0.0573 -0.0472
  687MOL0     C90564   1.564  10.126  10.422 -0.0305 -0.4118 -0.2092
  687MOL0     C90565   1.464  10.012  10.462 -0.6861 -0.7716 -0.4750
  687MOL0     C90566   1.342  10.068  10.534 -0.0117  0.4003  0.1607
  687MOL0     C90567   1.250  10.156  10.442 -0.2980  0.5298  0.9993
  687MOL0     C90568   1.109  10.180  10.487  0.3928 -0.2118  0.0321
  687MOL0     N90569   1.026  10.205  10.369 -0.2913  0.5529  0.2098
  687MOL0     C90570   0.906  10.144  10.336 -0.5506  0.0358  0.5215
  687MOL0     C90571   0.858  10.208  10.222 -0.1628 -0.6467 -0.1857
  687MOL0     C90572   0.742  10.196  10.132 -0.5560 -0.2924  0.4982
  687MOL0     C90573   0.622  10.276  10.192  0.1990  0.3128  0.2270
  687MOL0     C90574   0.579  10.229  10.330  0.5276 -0.5472 -0.6880
  687MOL0     C90575   0.452  10.315  10.377 -1.4270 -0.1760 -1.2808
  687MOL0     O90576   0.335  10.277  10.305  0.2926  0.2842  0.4093
  687MOL0     C90577   0.218  10.332  10.352 -0.6384 -0.5079 -0.1959
  687MOL0     C90578   0.204  10.421  10.458  0.0139  0.8467 -0.0574
  687MOL0     C90579   0.080  10.464  10.502 -0.0077 -0.0660  0.2069
  687MOL0     C90580  -0.034  10.421  10.441  0.6870 -0.0333  0.5667
  687MOL0     C90581  -0.174  10.453  10.492 -1.0059 -0.0508  0.6557
  687MOL0     O90582  -0.193  10.571  10.555 -0.2305  0.0607 -0.0409
  687MOL0     C90583  -0.295  10.640  10.495  0.0458 -0.2155 -0.4546
  687MOL0     C90584  -0.285  10.706  10.375 -0.2031 -0.3531 -0.5183
  687MOL0     C90585  -0.394  10.778  10.328 -0.4106 -0.5419  0.7500
  687MOL0     C90586  -0.507  10.807  10.393  0.0707 -0.2984 -0.1062
  687MOL0     O90587  -0.612  10.877  10.332 -0.2180  0.0534 -0.3231
  687MOL0     C90588  -0.572  11.000  10.264 -0.8168 -0.3219 -1.0117
  687MOL0     C90589  -0.685  11.098  10.281 -0.2257 -0.0933 -0.4582
  687MOL0     C90590  -0.673  11.180  10.409 -0.1314 -0.5823  0.3555
  687MOL0     C90591  -0.799  11.263  10.442  0.2863  0.5522 -0.5250
  687MOL0     C90592  -0.793  11.328  10.576  0.0815 -0.5998 -1.0562
  687MOL0     C90593  -0.926  11.394  10.622  0.0729  0.3949 -0.9854
  687MOL0     C90594  -0.918  11.443  10.761  0.3815  0.7952 -0.3506
  687MOL0     C90595  -1.042  11.525  10.813  0.0962 -0.1732 -0.6786
  687MOL0    Cl90596  -1.203  11.451  10.772  0.5256  0.1859  0.4246
  687MOL0     C90597  -0.517  10.745  10.519  0.0085 -0.1596 -0.2536
  687MOL0     C90598  -0.413  10.659  10.570 -0.1981  0.3560 -0.5766
  687MOL0     O90599  -0.261  10.370  10.476  0.2984 -0.5336  0.0436
  687MOL0     C90600  -0.020  10.337  10.330  0.4084  0.0144  0.9531
  687MOL0     C90601   0.097  10.297  10.278  0.0098  0.1612 -0.3519
  687MOL0     N90602   0.953  10.307  10.193 -1.0206 -0.5513  0.4046
  687MOL0     N90603   1.046  10.304  10.280 -0.1344  0.6178 -0.5157
  687MOL0     C90604   2.061  10.199  10.751 -0.3643  0.1172  0.0641
  687MOL0     C90605   2.183  10.229  10.813  0.3034 -0.1442  0.3628
  687MOL0     C90606   2.601  10.275  10.952 -0.2280  0.8571  0.1418
  687MOL0     C90607   2.685  10.164  10.956  0.5954  0.0849 -0.0443
  687MOL0     C90608   2.824  10.184  10.978 -0.0072 -0.0719 -0.1572
  687MOL0     C90609   2.876  10.312  10.990 -0.5775 -0.4135 -0.4519
  687MOL0     O90610   3.013  10.326  10.999  0.1740 -0.0364  0.4706
  687MOL0     C90611   3.078  10.434  10.935 -0.0818  0.3122  0.0006
  687MOL0     C90612   3.209  10.381  10.887 -0.2650 -0.7640  0.2582
  687MOL0     C90613   3.308  10.335  10.993  0.2603 -0.5077  0.0899
  687MOL0     C90614   3.454  10.388  10.971  0.6042  0.0215 -1.2512
  687MOL0     C90615   3.542  10.292  11.029 -0.1832  0.9387  0.3393
  687MOL0     C90616   3.631  10.213  11.056  0.2923 -0.0313  0.1252
  687MOL0     C90617   2.789  10.422  10.996  0.1379  0.0718 -0.0212
  687MOL0     C90618   2.651  10.400  10.979 -0.2090 -0.6795 -0.0266
  687MOL0     H90619   2.340   9.928  10.771  0.6470  1.5295  0.0283
  687MOL0     H90620   2.094   9.880  10.671 -0.9370  0.2111 -0.5453
  687MOL0     H90621   1.958  10.154  10.490 -1.2107  2.2252  0.8490
  687MOL0     H90622   1.808  10.197  10.579  1.4814  2.9117 -3.0609
  687MOL0     H90623   1.733   9.944  10.501  0.3295 -1.3551 -1.4782
  687MOL0     H90624   1.873   9.969  10.398 -1.1348 -0.5805 -0.5374
  687MOL0     H90625   1.668  10.010  10.276 -0.8513 -0.2716  0.3650
  687MOL0     H90626   1.739  10.172  10.306  0.0075  0.5669  1.2342
  687MOL0     H90627   1.590  10.184  10.511 -2.0922 -1.2608  1.0200
  687MOL0     H90628   1.515  10.199  10.357 -0.9691  0.4571  1.3799
  687MOL0     H90629   1.523   9.944  10.524  3.4978  0.4182 -2.7423
  687MOL0     H90630   1.438   9.966  10.367  0.6713 -0.9009 -0.8133
  687MOL0     H90631   1.378  10.120  10.623  1.8154 -1.6088  0.6679
  687MOL0     H90632   1.292   9.978  10.571  2.7786 -1.2247  0.2770
  687MOL0     H90633   1.294  10.256  10.431 -1.0978  0.6034 -2.6179
  687MOL0     H90634   1.250  10.114  10.341  1.2051  1.1388  0.7108
  687MOL0     H90635   1.101  10.256  10.565  0.2911 -0.3045  0.1117
  687MOL0     H90636   1.074  10.091  10.539  0.0117  0.0763  0.2773
  687MOL0     H90637   0.849  10.069  10.390 -2.0757  0.8352  0.0845
  687MOL0     H90638   0.700  10.095  10.130  1.6835 -1.3773  2.7236
  687MOL0     H90639   0.771  10.216  10.029 -2.0474 -1.8947 -0.2772
  687MOL0     H90640   0.529  10.265  10.135  1.7068  1.5955 -2.7091
  687MOL0     H90641   0.653  10.381  10.187  2.2116 -0.2646 -0.2445
  687MOL0     H90642   0.554  10.123  10.335 -0.1143 -0.3620  0.4270
  687MOL0     H90643   0.657  10.259  10.400  0.8740 -0.3351 -1.1547
  687MOL0     H90644   0.464  10.423  10.368  0.0778 -0.0660  1.1677
  687MOL0     H90645   0.423  10.287  10.479 -1.3684 -4.8435 -2.3136
  687MOL0     H90646   0.289  10.464  10.509  0.8236 -0.0340 -0.6242
  687MOL0     H90647   0.072  10.525  10.592 -1.3449 -1.2083  0.9121
  687MOL0     H90648  -0.198  10.692  10.312 -0.6576  0.4658 -1.3591
  687MOL0     H90649  -0.393  10.808  10.224  0.6039  2.8049  1.5799
  687MOL0     H90650  -0.561  10.989  10.155 -1.1348  4.0549 -1.6480
  687MOL0     H90651  -0.480  11.032  10.314 -0.9447 -1.1418 -0.2264
  687MOL0     H90652  -0.785  11.052  10.277 -0.6061  0.8096 -2.7437
  687MOL0     H90653  -0.680  11.170  10.199  1.6556 -0.1271 -0.4124
  687MOL0     H90654  -0.591  11.249  10.389 -1.8275  0.8112 -2.4390
  687MOL0     H90655  -0.655  11.118  10.497 -0.0669 -1.2373 -0.1163
  687MOL0     H90656  -0.806  11.340  10.364 -0.0413  1.4908  0.3951
  687MOL0     H90657  -0.882  11.194  10.425  0.5984 -0.1175  0.6026
  687MOL0     H90658  -0.716  11.406  10.576  5.1305 -5.0055  0.4238
  687MOL0     H90659  -0.757  11.263  10.656 -1.3868  0.8265  0.8614
  687MOL0     H90660  -0.990  11.306  10.627  1.9311 -0.9797 -0.1219
  687MOL0     H90661  -0.964  11.476  10.560  1.5224  1.9430  0.0589
  687MOL0     H90662  -0.922  11.359  10.831  0.4967  1.9522  1.0887
  687MOL0     H90663  -0.824  11.497  10.775 -0.8652  2.7214  1.1304
  687MOL0     H90664  -1.043  11.628  10.777  0.2564  0.1172  0.1228
  687MOL0     H90665  -1.046  11.547  10.920 -4.1284  2.4796 -1.1342
  687MOL0     H90666  -0.609  10.762  10.574  0.9388  3.6601  0.4209
  687MOL0     H90667  -0.422  10.605  10.664  1.9836 -0.5727 -0.8315
  687MOL0     H90668  -0.110  10.290  10.291 -0.1333  1.3386  0.5360
  687MOL0     H90669   0.092  10.227  10.196 -0.6246 -1.0686  0.7046
  687MOL0     H90670   1.981  10.272  10.741 -1.2062 -0.5740  1.3904
  687MOL0     H90671   2.209  10.331  10.840 -0.7058  1.2077 -3.2727
  687MOL0     H90672   2.656  10.060  10.948  2.6995 -0.7364  1.9135
  687MOL0     H90673   2.900  10.107  10.985  1.0328  1.0089  0.8604
  687MOL0     H90674   3.091  10.514  11.009  1.4683 -1.3565  1.6216
  687MOL0     H90675   3.009  10.454  10.853  0.3516 -0.7370 -0.6296
  687MOL0     H90676   3.178  10.301  10.819 -3.3805  1.0472 -0.6755
  687MOL0     H90677   3.256  10.466  10.836 -2.9548  0.3066 -0.6122
  687MOL0     H90678   3.297  10.226  10.997 -3.0173 -0.2713  0.8010
  687MOL0     H90679   3.274  10.373  11.090 -1.7818  3.2520 -1.8681
  687MOL0     H90680   3.464  10.405  10.864 -2.1269  1.3466 -1.3758
  687MOL0     H90681   3.466  10.484  11.022  0.2147 -1.0030  0.9064
  687MOL0     H90682   3.701  10.137  11.085 -0.8571 -1.5281 -0.8528
  687MOL0     H90683   2.814  10.522  11.029 -3.1055  1.0972 -0.2415
  687MOL0     H90684   2.590  10.488  10.994 -2.0118 -1.6795 -1.2061
  688MOL0     O90685   6.037   0.617   1.603 -0.0838 -0.4092  0.7007
  688MOL0     C90686   6.078   0.556   1.503  0.5118  0.4007  0.0702
  688MOL0     O90687   6.000   0.504   1.399  0.6041 -0.1383  0.8403
  688MOL0     C90688   5.866   0.528   1.400 -0.1080 -0.7338 -0.6048
  688MOL0     C90689   5.811   0.599   1.293  0.4878  0.0521 -1.2668
  688MOL0     C90690   5.676   0.643   1.303 -0.4030 -0.0125  1.0873
  688MOL0     C90691   5.591   0.611   1.413 -0.1395  0.2099 -0.4491
  688MOL0     O90692   5.461   0.660   1.404 -0.0438  0.1296 -0.2944
  688MOL0     C90693   5.370   0.597   1.505  0.0368 -0.5722  0.7937
  688MOL0     C90694   5.246   0.678   1.489  0.6094  0.3224 -0.9209
  688MOL0     C90695   5.140   0.629   1.586  0.1639  0.3095 -0.4149
  688MOL0     C90696   4.999   0.685   1.560 -0.3200  0.8997  0.6516
  688MOL0     C90697   4.908   0.649   1.678 -0.2063 -0.6064  0.4984
  688MOL0     C90698   4.766   0.709   1.671  0.3093  0.6008 -0.5264
  688MOL0     C90699   4.681   0.633   1.781  0.2997 -0.6081  0.1587
  688MOL0     C90700   4.540   0.704   1.807 -0.9271  0.0719 -0.3857
  688MOL0     N90701   4.465   0.692   1.681  0.5660 -0.0953  0.2133
  688MOL0     C90702   4.469   0.796   1.593  1.1177  0.4559  0.4702
  688MOL0     C90703   4.384   0.752   1.494  0.2499 -0.3992 -0.0127
  688MOL0     C90704   4.348   0.825   1.373 -1.0723  0.0285  0.3782
  688MOL0     C90705   4.227   0.913   1.388 -0.1532  0.2888 -0.9276
  688MOL0     C90706   4.103   0.840   1.448  0.1173  0.7104 -0.7733
  688MOL0     C90707   3.968   0.920   1.451 -0.2007 -0.0105 -0.9040
  688MOL0     O90708   3.939   1.003   1.335 -0.5695  0.5936 -0.0823
  688MOL0     C90709   3.810   1.055   1.306  0.3438  1.0446 -0.1649
  688MOL0     C90710   3.703   1.079   1.400  0.6047 -0.3341  0.0505
  688MOL0     C90711   3.570   1.118   1.366  0.2393 -0.5981  0.1635
  688MOL0     C90712   3.541   1.149   1.233  0.1883  0.1576 -0.3398
  688MOL0     C90713   3.408   1.189   1.190 -0.4583  0.1866 -0.6204
  688MOL0     O90714   3.387   1.229   1.064 -0.3262 -0.4145 -0.1696
  688MOL0     C90715   3.281   1.297   1.033  0.1734  0.4770  0.0010
  688MOL0     C90716   3.187   1.251   0.943 -0.4848  0.1075  0.6036
  688MOL0     C90717   3.071   1.320   0.919 -0.3233  0.2963 -0.0602
  688MOL0     C90718   3.028   1.431   0.999 -0.0743  0.8304 -0.6927
  688MOL0     O90719   2.911   1.491   0.974  1.0876 -0.0574 -0.1757
  688MOL0     C90720   2.849   1.601   1.056 -0.3159  0.5340  0.3184
  688MOL0     C90721   2.714   1.634   1.015 -0.9205 -0.4467  0.2526
  688MOL0     C90722   2.693   1.684   0.871 -0.3244  0.0758  0.1058
  688MOL0     C90723   2.744   1.827   0.866  0.0646 -0.1332 -0.9194
  688MOL0     C90724   2.741   1.905   0.732 -0.9967  0.8237 -0.1204
  688MOL0     C90725   2.614   1.889   0.641  0.1595  0.1152 -0.3717
  688MOL0     C90726   2.497   1.929   0.729 -0.0189 -0.1309 -0.1352
  688MOL0     C90727   2.390   1.989   0.630 -0.3012  0.0447  0.1189
  688MOL0    Cl90728   2.245   2.014   0.737  0.3264  0.1593  0.0622
  688MOL0     C90729   3.125   1.473   1.091  0.6631  0.3432  0.6973
  688MOL0     C90730   3.249   1.412   1.105 -0.2508  0.8457  0.4040
  688MOL0     O90731   3.321   1.165   1.269  0.2827 -0.7587  0.1474
  688MOL0     C90732   3.648   1.138   1.135  0.0273  0.5135  0.1277
  688MOL0     C90733   3.775   1.081   1.173 -0.0016  0.2928  0.1795
  688MOL0     N90734   4.348   0.620   1.527  0.1854 -0.2101 -0.3899
  688MOL0     N90735   4.394   0.584   1.636  0.4658 -0.1769 -0.6104
  688MOL0     C90736   5.651   0.545   1.521  0.3793  0.3898  0.3064
  688MOL0     C90737   5.785   0.512   1.508  0.7050 -0.8893 -0.0877
  688MOL0     C90738   6.214   0.501   1.507 -0.6809  0.2909  0.9176
  688MOL0     C90739   6.305   0.559   1.592  0.3113  0.2565 -0.1935
  688MOL0     C90740   6.437   0.507   1.604 -0.2861  0.7648  0.6756
  688MOL0     C90741   6.474   0.394   1.526  0.0111  0.5806 -0.2281
  688MOL0     O90742   6.603   0.358   1.527  0.0481  0.4415  0.5438
  688MOL0     C90743   6.635   0.224   1.485  0.4235  0.4704 -0.3077
  688MOL0     C90744   6.765   0.167   1.559 -0.0231 -0.4174 -0.8733
  688MOL0     C90745   6.748   0.176   1.714  0.7914  0.3749 -0.1653
  688MOL0     C90746   6.670   0.069   1.780  0.6491 -0.0781  0.1660
  688MOL0     C90747   6.673   0.107   1.922 -0.3233  0.3410  0.2064
  688MOL0     C90748   6.689   0.132   2.035 -0.7612  0.1059  0.6673
  688MOL0     C90749   6.383   0.346   1.433 -0.1561 -0.6533 -0.1215
  688MOL0     C90750   6.253   0.399   1.423 -0.4965 -0.5696 -0.0011
  688MOL0     H90751   5.866   0.635   1.207  1.0065  0.6288 -0.7018
  688MOL0     H90752   5.635   0.709   1.227  0.8830 -0.1879  0.2097
  688MOL0     H90753   5.415   0.601   1.605  4.2144 -1.0556 -0.8887
  688MOL0     H90754   5.354   0.490   1.490  2.4344 -1.1035  1.5947
  688MOL0     H90755   5.206   0.662   1.388 -2.7347 -2.1944  0.5918
  688MOL0     H90756   5.260   0.782   1.519 -0.1160 -1.0056  5.4050
  688MOL0     H90757   5.156   0.678   1.682  0.6071  0.4554 -0.5620
  688MOL0     H90758   5.143   0.520   1.580  2.9560  0.3796 -3.2665
  688MOL0     H90759   4.993   0.793   1.540 -1.9692  1.0602  1.7970
  688MOL0     H90760   4.973   0.643   1.462  0.1280  1.6819  0.1846
  688MOL0     H90761   4.958   0.689   1.767 -0.8440 -0.1703  0.6626
  688MOL0     H90762   4.906   0.542   1.701  0.5139 -0.9581 -0.9504
  688MOL0     H90763   4.718   0.694   1.574 -1.1281 -2.0763  0.4951
  688MOL0     H90764   4.776   0.817   1.688  1.2691  0.4464 -0.0484
  688MOL0     H90765   4.677   0.524   1.772 -2.4513 -0.5447 -0.3173
  688MOL0     H90766   4.735   0.645   1.875 -1.0024  0.9731  0.7655
  688MOL0     H90767   4.550   0.809   1.833 -2.6713  0.6174 -1.7018
  688MOL0     H90768   4.487   0.659   1.892 -0.8411 -2.0861 -1.4084
  688MOL0     H90769   4.522   0.891   1.597  4.3000 -1.2144  0.5671
  688MOL0     H90770   4.326   0.751   1.296 -1.1608  2.2766 -1.8865
  688MOL0     H90771   4.435   0.880   1.334 -1.6799 -1.1285 -2.9362
  688MOL0     H90772   4.199   0.952   1.290 -1.2432 -1.6679 -1.4499
  688MOL0     H90773   4.252   0.989   1.462  0.6634 -0.8875  0.0568
  688MOL0     H90774   4.092   0.737   1.413 -0.5177  0.0785  1.1796
  688MOL0     H90775   4.137   0.834   1.552 -0.2523 -0.9190 -0.7249
  688MOL0     H90776   3.965   0.980   1.543 -0.7218  1.3702 -1.7998
  688MOL0     H90777   3.888   0.847   1.468 -0.8777  1.1949  1.6074
  688MOL0     H90778   3.716   1.067   1.507  1.6720 -0.6050 -0.0981
  688MOL0     H90779   3.509   1.145   1.452  0.8000 -1.1623  0.7526
  688MOL0     H90780   3.214   1.167   0.880 -1.4687 -1.2969  2.0096
  688MOL0     H90781   3.014   1.292   0.831  1.3233  1.9102 -1.7295
  688MOL0     H90782   2.907   1.692   1.039  2.0851 -0.7746  1.0332
  688MOL0     H90783   2.845   1.581   1.163  0.5232  0.6512  0.3827
  688MOL0     H90784   2.661   1.705   1.079 -0.5159  1.1224 -1.0575
  688MOL0     H90785   2.648   1.547   1.025 -4.3468  1.9691  0.5832
  688MOL0     H90786   2.592   1.677   0.832 -0.8221 -3.7419  1.6604
  688MOL0     H90787   2.756   1.622   0.806  2.6111  1.7924  1.0827
  688MOL0     H90788   2.680   1.889   0.929  1.5516  0.2706  0.2421
  688MOL0     H90789   2.846   1.836   0.902 -0.1947 -1.3335  0.1910
  688MOL0     H90790   2.825   1.859   0.679 -3.1371 -2.3920 -1.0015
  688MOL0     H90791   2.753   2.012   0.748 -2.4649  1.2399 -1.5024
  688MOL0     H90792   2.589   1.791   0.599  1.2179  0.2324 -1.3207
  688MOL0     H90793   2.624   1.957   0.556  4.0658  0.7299  0.3826
  688MOL0     H90794   2.446   1.841   0.770  0.8100 -0.8050 -0.5233
  688MOL0     H90795   2.529   1.999   0.807 -0.5769  0.1882 -0.1867
  688MOL0     H90796   2.371   1.916   0.551 -1.1321  1.2292 -0.8025
  688MOL0     H90797   2.426   2.080   0.582 -0.6004 -0.3421 -0.8573
  688MOL0     H90798   3.094   1.559   1.151 -1.9284  0.2722 -0.4026
  688MOL0     H90799   3.320   1.464   1.169 -0.9984  2.5756 -0.1116
  688MOL0     H90800   3.632   1.162   1.030  1.3564  0.6909 -0.0420
  688MOL0     H90801   3.853   1.067   1.098  0.6155 -0.2152  0.9044
  688MOL0     H90802   5.591   0.517   1.607 -2.4662 -0.3677 -1.7531
  688MOL0     H90803   5.850   0.467   1.582  3.4408  2.9446  0.1101
  688MOL0     H90804   6.291   0.651   1.648  1.0984  0.1730  0.1541
  688MOL0     H90805   6.502   0.560   1.673 -0.6040  0.7396  0.9930
  688MOL0     H90806   6.644   0.235   1.376 -0.4534  1.2767 -0.3044
  688MOL0     H90807   6.556   0.149   1.487 -0.1965  1.1217 -0.0643
  688MOL0     H90808   6.783   0.065   1.524  2.3787 -0.7389  1.0409
  688MOL0     H90809   6.846   0.235   1.532 -0.9925  0.4641 -1.6654
  688MOL0     H90810   6.702   0.271   1.743 -0.2668 -0.2118  0.1363
  688MOL0     H90811   6.847   0.169   1.760  0.4929 -2.9518  0.2250
  688MOL0     H90812   6.571   0.074   1.735  0.6246  0.2240  0.2562
  688MOL0     H90813   6.713  -0.031   1.764 -2.1584 -0.9431 -3.0182
  688MOL0     H90814   6.717   0.166   2.132  1.0923 -0.3150  0.3292
  688MOL0     H90815   6.411   0.267   1.364  0.8476 -1.6969  1.4063
  688MOL0     H90816   6.191   0.370   1.339  0.7192  0.2108 -1.1993
  689MOL0     O90817   7.919   6.781   2.947 -0.1556 -0.7500 -0.0962
  689MOL0     C90818   7.860   6.821   3.051 -0.1094  0.6702  0.3277
  689MOL0     O90819   7.760   6.757   3.114  0.1233  0.0395  0.2025
  689MOL0     C90820   7.720   6.633   3.069 -0.2797 -0.1143  0.2109
  689MOL0     C90821   7.712   6.582   2.944 -0.3707  0.7475  0.3806
  689MOL0     C90822   7.684   6.443   2.935 -0.1876  0.6240  0.5090
  689MOL0     C90823   7.669   6.353   3.038 -0.1601 -0.2460 -0.0325
  689MOL0     O90824   7.646   6.220   3.022 -0.4538 -0.4196  0.6376
  689MOL0     C90825   7.584   6.172   2.905  0.3232 -0.0957  0.2107
  689MOL0     C90826   7.531   6.024   2.927  0.0618  0.0291  0.4478
  689MOL0     C90827   7.447   6.011   3.052  0.2048 -1.1343  0.4479
  689MOL0     C90828   7.373   5.881   3.042  0.3543  0.5127  0.5580
  689MOL0     C90829   7.256   5.880   3.142  0.9643  0.1914  0.0733
  689MOL0     C90830   7.188   5.750   3.170 -0.5042  0.0092 -0.2218
  689MOL0     C90831   7.137   5.674   3.048 -0.5230  0.0721  0.1620
  689MOL0     C90832   7.012   5.739   2.978 -0.8113 -0.4027 -0.1580
  689MOL0     N90833   6.928   5.630   2.935 -0.0427  0.5009 -0.4699
  689MOL0     C90834   6.799   5.595   2.988  0.0642 -0.4893  0.3516
  689MOL0     C90835   6.751   5.514   2.890 -0.4202 -0.8502  0.0717
  689MOL0     C90836   6.616   5.450   2.908 -0.0770 -0.1430  0.0410
  689MOL0     C90837   6.642   5.330   2.995  0.1903  0.3358  0.2635
  689MOL0     C90838   6.533   5.225   2.987  0.8944  0.5246  1.0750
  689MOL0     C90839   6.398   5.265   3.044 -0.2657 -0.1286  0.0374
  689MOL0     O90840   6.312   5.150   3.049 -0.0606 -0.6309 -0.8787
  689MOL0     C90841   6.190   5.178   3.002 -0.2252  0.2538 -0.0916
  689MOL0     C90842   6.103   5.255   3.083 -0.2305  0.4791 -0.1560
  689MOL0     C90843   5.977   5.277   3.042 -0.6160 -0.3803  0.0893
  689MOL0     C90844   5.923   5.209   2.933  0.0703  0.3390  0.7367
  689MOL0     C90845   5.786   5.229   2.881  0.6427 -0.0714  0.6350
  689MOL0     O90846   5.707   5.318   2.959  0.6811 -0.1470 -0.0062
  689MOL0     C90847   5.571   5.308   2.935 -0.6651 -0.3335  0.3550
  689MOL0     C90848   5.511   5.334   2.807 -0.5637 -0.1347 -0.7385
  689MOL0     C90849   5.372   5.349   2.790  0.2672  0.6440 -0.4571
  689MOL0     C90850   5.293   5.342   2.897 -0.1864 -0.8098 -0.2195
  689MOL0     O90851   5.162   5.351   2.867 -0.1172 -0.0952 -0.2116
  689MOL0     C90852   5.062   5.377   2.978 -0.4375 -0.4359  0.2308
  689MOL0     C90853   4.931   5.398   2.907  0.4117 -0.6767  0.1542
  689MOL0     C90854   4.939   5.530   2.816 -0.0681 -0.8303  0.6575
  689MOL0     C90855   4.805   5.568   2.762  0.7200  0.3043 -0.3798
  689MOL0     C90856   4.809   5.702   2.677 -0.2075 -0.3398  0.3305
  689MOL0     C90857   4.673   5.758   2.617  0.5799  0.3235  0.3786
  689MOL0     C90858   4.576   5.769   2.738  0.0845  0.2142  0.2554
  689MOL0     C90859   4.458   5.875   2.723 -0.8205  0.6677 -0.1379
  689MOL0    Cl90860   4.367   5.868   2.576 -0.3154 -0.1396 -0.1113
  689MOL0     C90861   5.348   5.321   3.026 -0.4611 -0.1301 -0.5526
  689MOL0     C90862   5.485   5.302   3.039 -0.0111 -0.8671 -0.2308
  689MOL0     O90863   5.751   5.165   2.774  0.3668 -0.6126 -0.6604
  689MOL0     C90864   6.002   5.118   2.865  0.4167  0.4011 -0.2340
  689MOL0     C90865   6.133   5.097   2.902 -0.0338 -0.7772 -0.0039
  689MOL0     N90866   6.843   5.496   2.788 -0.2315  0.4539 -0.8431
  689MOL0     N90867   6.942   5.575   2.813  0.0323  1.2640 -0.3585
  689MOL0     C90868   7.678   6.415   3.159 -0.1930  0.4073 -0.2334
  689MOL0     C90869   7.704   6.552   3.181  0.1031 -0.0917  0.4140
  689MOL0     C90870   7.917   6.938   3.118 -0.5827 -0.2255  0.7946
  689MOL0     C90871   8.040   6.996   3.077  0.8786  0.4010 -0.0444
  689MOL0     C90872   8.071   7.118   3.131  1.1126 -0.4940 -0.2595
  689MOL0     C90873   7.991   7.183   3.227 -0.5792 -0.0160  0.7406
  689MOL0     O90874   8.042   7.297   3.286  0.2103 -0.1107  0.6230
  689MOL0     C90875   7.944   7.396   3.325  0.7567  0.3135 -0.4253
  689MOL0     C90876   7.853   7.449   3.210  0.1154  0.2270 -0.1514
  689MOL0     C90877   7.931   7.535   3.109  0.1685  0.6913  0.8154
  689MOL0     C90878   7.851   7.599   2.997 -0.6476  0.1570  0.3774
  689MOL0     C90879   7.794   7.722   3.057 -0.6036 -0.2593 -0.1425
  689MOL0     C90880   7.762   7.829   3.108 -0.0148 -1.0632  0.6600
  689MOL0     C90881   7.874   7.122   3.270 -0.2430  0.0837 -1.2930
  689MOL0     C90882   7.840   6.996   3.213  0.6151 -0.2500  0.0912
  689MOL0     H90883   7.728   6.632   2.849 -2.8929 -0.3071 -0.6909
  689MOL0     H90884   7.688   6.400   2.835  1.8206 -2.2706  1.7046
  689MOL0     H90885   7.651   6.184   2.819 -1.8580  4.1907 -1.2146
  689MOL0     H90886   7.496   6.233   2.881  0.7558  0.2897 -0.4520
  689MOL0     H90887   7.611   5.950   2.934  0.1303  0.1482  0.9342
  689MOL0     H90888   7.477   6.001   2.834 -1.4119 -1.0153  1.5280
  689MOL0     H90889   7.372   6.090   3.042  1.6103  0.2557  0.5982
  689MOL0     H90890   7.501   6.032   3.145 -2.5470  1.3503  1.6531
  689MOL0     H90891   7.333   5.861   2.942  0.7962 -1.6679  0.7805
  689MOL0     H90892   7.441   5.797   3.059  0.6001  0.1503 -1.8543
  689MOL0     H90893   7.180   5.943   3.096 -0.6901 -3.2175 -2.3399
  689MOL0     H90894   7.295   5.913   3.239  3.0269 -1.7398 -0.0129
  689MOL0     H90895   7.099   5.785   3.222  0.4891  1.4255  0.6001
  689MOL0     H90896   7.253   5.683   3.227 -0.3235 -0.1393 -0.6029
  689MOL0     H90897   7.222   5.670   2.980  1.1190  2.2038  1.9295
  689MOL0     H90898   7.117   5.569   3.069  1.8765 -0.7432 -1.3553
  689MOL0     H90899   7.037   5.804   2.894  0.3998  0.1565  0.5979
  689MOL0     H90900   6.958   5.811   3.040 -0.9289  0.2793 -1.0263
  689MOL0     H90901   6.752   5.631   3.079 -0.4452  0.6695 -0.3419
  689MOL0     H90902   6.584   5.425   2.807 -1.5917  2.2827 -0.1385
  689MOL0     H90903   6.536   5.508   2.955  0.0043  0.4096 -0.4965
  689MOL0     H90904   6.663   5.359   3.098  1.9158 -0.4174  0.1497
  689MOL0     H90905   6.730   5.279   2.956  0.1801  0.9853 -0.6422
  689MOL0     H90906   6.509   5.206   2.882 -3.0208  4.1751  1.0311
  689MOL0     H90907   6.559   5.133   3.039  0.1848  0.3514  1.1386
  689MOL0     H90908   6.359   5.350   2.988  1.7104  1.0158  0.2830
  689MOL0     H90909   6.416   5.296   3.148 -2.5135 -0.1683  0.4951
  689MOL0     H90910   6.160   5.310   3.157  0.3040  1.6343 -1.3672
  689MOL0     H90911   5.917   5.355   3.089  1.2364  2.6765 -2.2361
  689MOL0     H90912   5.570   5.352   2.718  2.2377  0.5855  1.1246
  689MOL0     H90913   5.335   5.362   2.688  2.2587 -2.3163 -1.6758
  689MOL0     H90914   5.090   5.469   3.030  0.7107 -0.4888 -0.2624
  689MOL0     H90915   5.053   5.294   3.049 -2.3556 -0.9087 -0.4925
  689MOL0     H90916   4.867   5.394   2.995  2.2886 -3.6911  1.5533
  689MOL0     H90917   4.906   5.318   2.837 -0.4469 -2.2323  2.1403
  689MOL0     H90918   5.002   5.515   2.728 -0.8219  1.5401 -0.3503
  689MOL0     H90919   4.980   5.615   2.871 -0.3945 -0.2625  0.0283
  689MOL0     H90920   4.766   5.482   2.706 -0.8117 -0.8380  2.2602
  689MOL0     H90921   4.725   5.579   2.835  1.0272  3.6305 -0.4205
  689MOL0     H90922   4.883   5.701   2.596 -1.0985  0.3071 -0.5138
  689MOL0     H90923   4.839   5.774   2.754 -2.3617  0.1962  0.7215
  689MOL0     H90924   4.626   5.691   2.545  1.6620  0.4956 -0.5069
  689MOL0     H90925   4.694   5.853   2.568  1.0293  0.8432  1.5287
  689MOL0     H90926   4.527   5.672   2.752  0.3638  0.0015 -0.1868
  689MOL0     H90927   4.629   5.792   2.830 -0.9353  3.2516  0.2018
  689MOL0     H90928   4.509   5.972   2.718  1.2197 -0.3050  0.8659
  689MOL0     H90929   4.384   5.857   2.802  1.2816 -3.6959  1.0901
  689MOL0     H90930   5.278   5.320   3.108 -0.1457  3.1582 -0.1394
  689MOL0     H90931   5.530   5.301   3.138  0.9050 -2.8941 -0.6218
  689MOL0     H90932   5.962   5.048   2.793 -1.9639 -1.0584  2.3112
  689MOL0     H90933   6.201   5.024   2.858  2.0133  1.6316 -1.0567
  689MOL0     H90934   7.668   6.360   3.252 -3.8807  1.4115  0.1489
  689MOL0     H90935   7.717   6.586   3.283 -0.2510  1.5367 -0.0535
  689MOL0     H90936   8.100   6.955   2.996 -0.8282 -1.3227 -0.5052
  689MOL0     H90937   8.168   7.164   3.115  1.6643 -0.2136  3.0820
  689MOL0     H90938   7.998   7.480   3.368 -0.3093  2.4263 -2.9370
  689MOL0     H90939   7.892   7.355   3.412  0.1741 -1.8093 -1.6769
  689MOL0     H90940   7.793   7.371   3.161 -0.2701  0.2485  0.2805
  689MOL0     H90941   7.781   7.513   3.260  1.2198  0.2686  1.4788
  689MOL0     H90942   8.001   7.475   3.052 -0.9229 -1.7029  1.8650
  689MOL0     H90943   7.987   7.613   3.163 -0.0611  2.0559 -0.8294
  689MOL0     H90944   7.933   7.634   2.934 -0.9741  0.9951  0.4095
  689MOL0     H90945   7.774   7.537   2.951  1.2863 -1.1598 -1.2298
  689MOL0     H90946   7.745   7.932   3.133  0.9605 -0.4184 -1.1190
  689MOL0     H90947   7.816   7.169   3.349  0.1476  2.1858 -2.2161
  689MOL0     H90948   7.750   6.957   3.261  0.3755  1.3483  0.9942
  690MOL0     O90949  10.092   3.624  11.022  0.3188 -0.4503 -0.3482
  690MOL0     C90950  10.098   3.746  11.006  0.6418  0.8260 -0.0379
  690MOL0     O90951   9.996   3.825  10.962 -0.4808 -0.4019  0.4605
  690MOL0     C90952   9.880   3.769  10.920  0.3522 -0.0033  0.6786
  690MOL0     C90953   9.828   3.828  10.800  0.1677  0.4348 -0.0147
  690MOL0     C90954   9.692   3.804  10.773 -0.3030  0.1297 -0.0295
  690MOL0     C90955   9.607   3.713  10.844  0.4826  0.2296 -0.3025
  690MOL0     O90956   9.470   3.715  10.825 -0.0036 -0.0534 -0.5944
  690MOL0     C90957   9.417   3.763  10.702  0.1863 -0.7028  0.7684
  690MOL0     C90958   9.265   3.719  10.701 -0.1727 -0.1173 -0.1553
  690MOL0     C90959   9.178   3.783  10.812 -0.4335  0.2752  0.2467
  690MOL0     C90960   9.040   3.709  10.819  0.2984 -0.0484 -0.1375
  690MOL0     C90961   8.956   3.736  10.946 -0.7990  0.5582  0.3691
  690MOL0     C90962   8.873   3.862  10.933 -0.1402  0.2222 -0.1681
  690MOL0     C90963   8.766   3.853  11.051 -0.0585 -0.1203  0.5406
  690MOL0     C90964   8.667   3.969  11.053  0.0342 -0.5543 -0.9282
  690MOL0     N90965   8.580   3.945  11.165  1.3422  0.1188 -1.0185
  690MOL0     C90966   8.548   3.819  11.222  0.5536  0.6360  0.9000
  690MOL0     C90967   8.471   3.842  11.333  0.0202 -1.2472  0.3270
  690MOL0     C90968   8.409   3.741  11.418  0.0115  0.4247 -0.1682
  690MOL0     C90969   8.281   3.790  11.495  0.4867 -0.3413  0.6157
  690MOL0     C90970   8.307   3.868  11.627 -0.3785  0.5966 -0.0639
  690MOL0     C90971   8.191   3.929  11.703 -0.1934 -1.0586  0.3202
  690MOL0     O90972   8.077   3.852  11.712  0.7124  0.3353 -0.5908
  690MOL0     C90973   7.992   3.881  11.815 -0.0677 -0.8794  0.4344
  690MOL0     C90974   7.901   3.783  11.843 -0.5294  0.0734 -0.3216
  690MOL0     C90975   7.803   3.804  11.940  0.8014  0.3601  0.0238
  690MOL0     C90976   7.808   3.917  12.027 -0.7194  1.0095 -0.1158
  690MOL0     C90977   7.707   3.917  12.134 -0.4785  0.4998 -0.5216
  690MOL0     O90978   7.598   3.833  12.122 -0.2201 -0.2766 -0.4438
  690MOL0     C90979   7.498   3.849  12.206  0.0019  0.3006 -0.1725
  690MOL0     C90980   7.504   3.787  12.337  0.3896 -0.4894  0.2540
  690MOL0     C90981   7.387   3.775  12.410 -1.1537 -0.2899 -0.0569
  690MOL0     C90982   7.275   3.850  12.380  0.2661  0.6946  0.6267
  690MOL0     O90983   7.172   3.836  12.474  0.4334  0.0260  0.3910
  690MOL0     C90984   7.044   3.890  12.444  0.0020 -0.5561 -0.5823
  690MOL0     C90985   6.957   3.873  12.572  0.2786 -0.6095 -0.5371
  690MOL0     C90986   6.823   3.941  12.564 -0.1364 -0.7810  1.0465
  690MOL0     C90987   6.745   3.982  12.684  0.2611 -0.3341 -0.5926
  690MOL0     C90988   6.598   3.933  12.685 -0.5156 -0.2362 -0.0713
  690MOL0     C90989   6.507   4.012  12.779 -0.2982  0.1885  0.3391
  690MOL0     C90990   6.369   3.950  12.740 -0.3295 -0.0815  0.0257
  690MOL0     C90991   6.275   3.982  12.858  1.0939 -0.4163  0.6969
  690MOL0    Cl90992   6.142   3.865  12.858 -0.2316  0.0334  0.3573
  690MOL0     C90993   7.264   3.918  12.260 -0.6922  0.3023  1.2313
  690MOL0     C90994   7.387   3.919  12.181 -0.7651  0.2722 -0.5467
  690MOL0     O90995   7.724   4.005  12.218 -0.1413  0.4895  0.8582
  690MOL0     C90996   7.915   4.005  12.012  0.4294 -0.2807  0.9772
  690MOL0     C90997   8.004   3.987  11.898  0.4047  0.2680 -1.0037
  690MOL0     N90998   8.458   3.979  11.344  1.2937 -0.2415  0.3290
  690MOL0     N90999   8.524   4.038  11.245  0.1070 -0.2337 -0.0295
  690MOL0     C91000   9.661   3.657  10.962 -0.0648  0.0975 -0.4273
  690MOL0     C91001   9.797   3.682  10.996  1.3068  0.5018 -0.2533
  690MOL0     C91002  10.224   3.820  11.034  0.1353 -0.1648 -0.5240
  690MOL0     C91003  10.230   3.950  11.074 -0.0529 -0.3531  0.5913
  690MOL0     C91004  10.346   4.016  11.091 -0.2243 -0.5514 -0.4424
  690MOL0     C91005  10.465   3.948  11.097 -0.3147  0.3115  0.0920
  690MOL0     O91006  10.572   4.026  11.134  0.2284 -0.3977  0.0388
  690MOL0     C91007  10.701   3.958  11.149  0.7472  0.7931 -0.5230
  690MOL0     C91008  10.804   4.051  11.218 -0.5574  0.0457 -0.3894
  690MOL0     C91009  10.944   4.000  11.172  0.4461 -0.4663 -0.8464
  690MOL0     C91010  11.039   4.107  11.229 -0.0843 -0.8591 -0.3292
  690MOL0     C91011  11.173   4.100  11.167 -0.2812 -0.5931 -0.3698
  690MOL0     C91012  11.288   4.085  11.133  0.5472 -0.6694 -0.3465
  690MOL0     C91013  10.468   3.811  11.060 -0.0984 -0.1279  0.1480
  690MOL0     C91014  10.345   3.750  11.023 -0.4834  0.5693 -0.4466
  690MOL0     H91015   9.874   3.902  10.735 -0.2521  0.6838 -0.0276
  690MOL0     H91016   9.658   3.869  10.692 -2.1316 -0.3084  0.3474
  690MOL0     H91017   9.474   3.734  10.613  3.3821  1.6098  1.8707
  690MOL0     H91018   9.429   3.872  10.699  2.3807 -0.9006  0.8114
  690MOL0     H91019   9.259   3.610  10.693 -0.6753 -0.0937 -0.1523
  690MOL0     H91020   9.227   3.750  10.603 -0.7695  1.4733  0.5406
  690MOL0     H91021   9.164   3.889  10.793 -0.1623  0.2548 -0.0821
  690MOL0     H91022   9.222   3.767  10.911 -0.3914 -1.4983 -0.0127
  690MOL0     H91023   8.979   3.732  10.731  0.1584  1.0187  0.2230
  690MOL0     H91024   9.058   3.601  10.822 -0.9354 -0.2621 -0.0287
  690MOL0     H91025   9.019   3.743  11.035  1.3541  2.7584 -1.1670
  690MOL0     H91026   8.889   3.650  10.948  0.0364 -0.0927  2.5146
  690MOL0     H91027   8.824   3.857  10.835  1.0730  0.0587 -0.7879
  690MOL0     H91028   8.943   3.946  10.936  0.1345  0.0813 -1.5846
  690MOL0     H91029   8.713   3.758  11.042  0.6179 -0.3373 -1.8021
  690MOL0     H91030   8.825   3.840  11.143  1.5975  0.4338 -0.3917
  690MOL0     H91031   8.633   3.970  10.949  1.3677 -1.7698 -1.4084
  690MOL0     H91032   8.732   4.056  11.072  1.2202 -1.5788 -0.1013
  690MOL0     H91033   8.581   3.723  11.186 -1.3816  0.2025  0.1818
  690MOL0     H91034   8.475   3.716  11.502 -0.2856 -1.3493 -0.4161
  690MOL0     H91035   8.386   3.647  11.366  2.0633 -0.4324  0.3802
  690MOL0     H91036   8.214   3.706  11.515  0.4269 -0.8903 -1.6481
  690MOL0     H91037   8.224   3.858  11.432  2.1680  0.7655  0.2269
  690MOL0     H91038   8.361   3.798  11.692 -1.3142 -2.3375 -2.2180
  690MOL0     H91039   8.370   3.955  11.604 -1.6609  1.2302 -1.3126
  690MOL0     H91040   8.157   4.023  11.659 -1.4828 -1.7384 -0.1972
  690MOL0     H91041   8.230   3.956  11.801 -1.0030  1.7409 -0.0277
  690MOL0     H91042   7.895   3.694  11.781  1.1167 -1.3794  1.4786
  690MOL0     H91043   7.742   3.717  11.964  1.4087  0.0429  0.4523
  690MOL0     H91044   7.583   3.725  12.377  0.2652 -0.0470  1.2173
  690MOL0     H91045   7.396   3.708  12.495 -3.2140  0.0878  0.4967
  690MOL0     H91046   6.997   3.839  12.359 -0.0048  1.1837 -1.6614
  690MOL0     H91047   7.042   3.998  12.425 -2.5130 -0.2931  0.7104
  690MOL0     H91048   7.011   3.915  12.658 -0.4596 -0.4544 -0.1437
  690MOL0     H91049   6.940   3.767  12.592  1.0577 -0.9973 -1.8167
  690MOL0     H91050   6.766   3.870  12.504  0.3370 -0.6328  0.4132
  690MOL0     H91051   6.834   4.026  12.496  1.1043 -1.8432 -0.1455
  690MOL0     H91052   6.801   3.925  12.760 -1.2877  0.9189  1.6217
  690MOL0     H91053   6.744   4.088  12.708 -4.8151 -0.6180  1.8157
  690MOL0     H91054   6.608   3.825  12.700 -0.4293 -0.5232 -2.0322
  690MOL0     H91055   6.569   3.950  12.581  1.2311  0.9605 -0.4128
  690MOL0     H91056   6.514   4.118  12.752  3.4563 -0.0130  0.0072
  690MOL0     H91057   6.534   4.005  12.885  1.9979  0.1909 -0.2027
  690MOL0     H91058   6.336   3.994  12.646 -4.2899  2.9574  2.4829
  690MOL0     H91059   6.373   3.842  12.723 -3.5162 -0.3587  0.4253
  690MOL0     H91060   6.243   4.086  12.842  2.4258 -0.0375  0.3327
  690MOL0     H91061   6.332   3.975  12.951  0.7218 -0.7711  0.8987
  690MOL0     H91062   7.170   3.967  12.234 -1.2884 -0.6272  1.5646
  690MOL0     H91063   7.394   3.968  12.084  1.0704 -3.2835 -2.3745
  690MOL0     H91064   7.935   4.087  12.079  3.0874 -1.5188  1.8455
  690MOL0     H91065   8.071   4.064  11.862 -0.5578  1.0486 -1.1493
  690MOL0     H91066   9.599   3.589  11.021 -0.9198  0.6073 -0.7306
  690MOL0     H91067   9.839   3.635  11.084 -0.5107 -1.4922 -0.3732
  690MOL0     H91068  10.134   3.998  11.092 -0.7812 -0.8595 -1.5830
  690MOL0     H91069  10.355   4.124  11.103 -0.3542 -0.5133 -0.6798
  690MOL0     H91070  10.739   3.913  11.057 -0.5779  0.0747 -0.7406
  690MOL0     H91071  10.696   3.872  11.217  2.7905  2.0444  1.3839
  690MOL0     H91072  10.787   4.152  11.180  2.3429  1.8526  2.5611
  690MOL0     H91073  10.796   4.043  11.327 -0.0039 -5.3338 -0.4933
  690MOL0     H91074  10.955   3.987  11.064  0.6253 -3.1462 -0.5515
  690MOL0     H91075  10.974   3.907  11.221 -1.1058  0.1123  1.3531
  690MOL0     H91076  10.991   4.204  11.212 -2.0465 -1.8250 -0.6886
  690MOL0     H91077  11.046   4.095  11.337  0.1539  0.7241 -0.1550
  690MOL0     H91078  11.387   4.072  11.097  1.8974  2.4237  1.8349
  690MOL0     H91079  10.549   3.739  11.066 -0.4864 -0.5018  1.2774
  690MOL0     H91080  10.343   3.646  10.991  0.2332  0.6675 -0.8390
  691MOL0     O91081   5.773   3.083   2.350 -0.0087  0.9607  0.8523
  691MOL0     C91082   5.784   3.107   2.231  0.5260 -0.5677 -0.0396
  691MOL0     O91083   5.681   3.128   2.142  0.3818  0.3238  0.3517
  691MOL0     C91084   5.550   3.126   2.176  0.0422  0.3293  0.5322
  691MOL0     C91085   5.464   3.124   2.060 -0.8038  0.2258 -0.1951
  691MOL0     C91086   5.331   3.115   2.076  0.2532 -0.1197 -0.3512
  691MOL0     C91087   5.273   3.118   2.210 -0.3427 -0.3687  0.1650
  691MOL0     O91088   5.140   3.113   2.239 -0.0534 -0.5169  0.8516
  691MOL0     C91089   5.046   3.102   2.139  0.2871 -0.2450  0.4175
  691MOL0     C91090   4.917   3.047   2.199 -0.1221  0.8145 -0.0697
  691MOL0     C91091   4.812   3.027   2.085  0.5877 -0.3046 -0.3963
  691MOL0     C91092   4.679   2.965   2.134  0.2532 -0.4037  0.0068
  691MOL0     C91093   4.703   2.818   2.162  0.3764  0.4452  0.4636
  691MOL0     C91094   4.575   2.775   2.233 -0.1430 -0.1195  0.0572
  691MOL0     C91095   4.583   2.632   2.295 -0.5930  0.2430 -0.3547
  691MOL0     C91096   4.613   2.525   2.185  0.6776  0.6975  0.4916
  691MOL0     N91097   4.551   2.399   2.232 -1.5767 -0.0794 -0.3558
  691MOL0     C91098   4.420   2.384   2.238 -0.1815 -0.6799  1.0527
  691MOL0     C91099   4.399   2.256   2.276 -0.3880 -0.8027 -0.2143
  691MOL0     C91100   4.274   2.173   2.287 -0.1486 -0.2684 -0.5660
  691MOL0     C91101   4.239   2.117   2.159 -0.7139 -0.2101 -0.1117
  691MOL0     C91102   4.141   2.004   2.169  0.4410  0.0439 -0.7208
  691MOL0     C91103   4.013   2.067   2.211  0.3474  0.0336 -0.8942
  691MOL0     O91104   3.913   2.010   2.124 -0.5215 -0.1589  0.2241
  691MOL0     C91105   3.788   2.007   2.173 -0.3426  0.2102 -0.7226
  691MOL0     C91106   3.739   2.063   2.285  0.2210  0.9349 -0.0923
  691MOL0     C91107   3.605   2.045   2.324  0.1952 -0.2200 -0.6660
  691MOL0     C91108   3.522   1.952   2.262 -0.3888  0.3004 -0.2998
  691MOL0     C91109   3.386   1.916   2.313  0.4272  0.9763  1.5719
  691MOL0     O91110   3.314   1.827   2.238 -0.0139  0.1198  0.2224
  691MOL0     C91111   3.188   1.806   2.278 -0.3304 -0.5362  0.4126
  691MOL0     C91112   3.165   1.686   2.338  0.4022  0.4910 -0.7327
  691MOL0     C91113   3.043   1.669   2.405 -0.7444  0.3826  0.7561
  691MOL0     C91114   2.938   1.768   2.391 -0.1559  0.0497 -0.1210
  691MOL0     O91115   2.815   1.749   2.454  0.5358  0.4598  0.4729
  691MOL0     C91116   2.706   1.838   2.412 -0.2889 -0.0307  0.1106
  691MOL0     C91117   2.586   1.788   2.487 -0.0639 -0.3492  0.5798
  691MOL0     C91118   2.534   1.654   2.440 -0.7526 -0.4279  0.4381
  691MOL0     C91119   2.396   1.625   2.513 -0.1803  0.8065  0.1709
  691MOL0     C91120   2.356   1.488   2.473 -0.4414  0.2497  0.3156
  691MOL0     C91121   2.238   1.436   2.565 -0.6492 -0.3464 -0.0575
  691MOL0     C91122   2.194   1.292   2.542  0.0126 -0.6648  1.1133
  691MOL0     C91123   2.295   1.175   2.578 -0.0261 -0.4775 -0.8195
  691MOL0    Cl91124   2.367   1.196   2.739  0.2271  0.1672 -0.3097
  691MOL0     C91125   2.962   1.883   2.320  0.5159 -0.4211 -0.0304
  691MOL0     C91126   3.089   1.900   2.259  0.1313  0.4891  1.4790
  691MOL0     O91127   3.353   1.966   2.419 -0.1983 -0.3089 -0.0661
  691MOL0     C91128   3.575   1.890   2.150 -0.0180 -0.0906 -0.7519
  691MOL0     C91129   3.705   1.919   2.104  0.0038 -0.2966  0.3800
  691MOL0     N91130   4.520   2.197   2.292  0.2917  0.2411 -0.7603
  691MOL0     N91131   4.614   2.284   2.268 -0.2334  0.4407 -0.4825
  691MOL0     C91132   5.356   3.127   2.321  0.1979  1.2729  0.3406
  691MOL0     C91133   5.494   3.126   2.306 -0.7042 -0.5737 -0.2033
  691MOL0     C91134   5.917   3.128   2.178 -0.0840  0.1313  0.7690
  691MOL0     C91135   5.939   3.170   2.047  0.7976 -0.3277  0.2672
  691MOL0     C91136   6.067   3.187   1.992  0.8998 -1.1705  0.1257
  691MOL0     C91137   6.179   3.175   2.071 -0.3144  0.0757  0.0029
  691MOL0     O91138   6.299   3.207   2.000  0.1686  0.3520 -0.2901
  691MOL0     C91139   6.427   3.154   2.063 -0.1024 -0.1416 -0.5181
  691MOL0     C91140   6.523   3.135   1.941  0.5760 -1.0660 -0.6207
  691MOL0     C91141   6.556   3.280   1.883  0.1381  1.0408 -0.5059
  691MOL0     C91142   6.662   3.342   1.968  0.0494 -0.1639 -0.0100
  691MOL0     C91143   6.802   3.295   1.931 -0.8669 -0.3268  0.7953
  691MOL0     C91144   6.921   3.271   1.902  0.1745 -0.2878  0.5129
  691MOL0     C91145   6.161   3.135   2.213  0.0384  0.8717  0.3245
  691MOL0     C91146   6.033   3.101   2.262  0.6743  0.0824  0.2247
  691MOL0     H91147   5.508   3.128   1.961 -1.0969 -2.3599 -0.5157
  691MOL0     H91148   5.266   3.119   1.988 -1.9692  4.1131  1.1977
  691MOL0     H91149   5.069   3.032   2.057 -2.8855  0.9394 -1.6851
  691MOL0     H91150   5.033   3.196   2.085  2.7474 -1.1295 -1.9657
  691MOL0     H91151   4.875   3.129   2.258 -0.4231  0.7209 -0.1531
  691MOL0     H91152   4.944   2.952   2.247 -1.4547 -0.9514 -2.5865
  691MOL0     H91153   4.859   2.963   2.010  0.9570  0.2172 -0.6169
  691MOL0     H91154   4.789   3.128   2.049  2.0661  0.3456  0.3941
  691MOL0     H91155   4.641   3.017   2.222 -3.7340 -2.4029 -0.2687
  691MOL0     H91156   4.599   2.966   2.059  0.6773 -0.0761 -0.4448
  691MOL0     H91157   4.795   2.802   2.218 -0.1146  0.8508  1.4155
  691MOL0     H91158   4.715   2.762   2.069 -1.4525  0.9647 -0.1398
  691MOL0     H91159   4.493   2.784   2.160  1.1740 -0.7155 -1.5435
  691MOL0     H91160   4.558   2.847   2.314  0.4675  0.4129 -0.2813
  691MOL0     H91161   4.648   2.632   2.383  0.9570  0.8682 -1.4523
  691MOL0     H91162   4.489   2.607   2.344  0.2966 -0.6036  0.9846
  691MOL0     H91163   4.717   2.507   2.156  0.5643 -1.0453  1.0291
  691MOL0     H91164   4.564   2.560   2.094  0.3405  0.5384  0.6122
  691MOL0     H91165   4.348   2.461   2.210 -1.1998 -0.7329  3.2868
  691MOL0     H91166   4.199   2.237   2.334  0.6624 -0.7263  1.4752
  691MOL0     H91167   4.296   2.088   2.353 -3.0819 -0.5500  0.1657
  691MOL0     H91168   4.328   2.086   2.105 -1.0485  0.8004 -1.2928
  691MOL0     H91169   4.199   2.189   2.087  1.8897  1.1153 -0.3583
  691MOL0     H91170   4.131   1.954   2.072  1.5842 -0.9388 -0.3469
  691MOL0     H91171   4.166   1.930   2.245  0.6590  0.0256 -0.8105
  691MOL0     H91172   4.017   2.173   2.187  2.2802 -0.1006 -1.3087
  691MOL0     H91173   3.997   2.051   2.318  2.9177  2.0061 -0.1344
  691MOL0     H91174   3.799   2.133   2.342 -0.5010  3.1114 -1.8152
  691MOL0     H91175   3.556   2.109   2.397 -1.4941 -0.8826 -1.1930
  691MOL0     H91176   3.238   1.606   2.342 -0.3246 -0.1786 -0.4155
  691MOL0     H91177   3.019   1.572   2.448  2.1513 -1.0940 -0.6691
  691MOL0     H91178   2.696   1.845   2.303  0.2975 -1.2416 -0.0420
  691MOL0     H91179   2.729   1.937   2.453  0.9061  0.9743 -2.7615
  691MOL0     H91180   2.503   1.856   2.466  0.7814 -0.2413 -3.0060
  691MOL0     H91181   2.597   1.793   2.596  0.5654  3.3954  0.4891
  691MOL0     H91182   2.608   1.575   2.462 -0.3723 -0.1111  0.3048
  691MOL0     H91183   2.514   1.668   2.334 -1.0432  1.7343  0.7430
  691MOL0     H91184   2.417   1.628   2.620  1.7425 -0.8207 -0.0998
  691MOL0     H91185   2.312   1.693   2.496 -1.4210 -0.6414  0.3231
  691MOL0     H91186   2.435   1.413   2.481 -0.6154  0.1424  1.1191
  691MOL0     H91187   2.329   1.484   2.367  2.0154 -1.5261 -0.3086
  691MOL0     H91188   2.152   1.502   2.558 -1.1299 -1.1449 -4.3917
  691MOL0     H91189   2.269   1.444   2.669  1.3105 -0.4809 -0.5953
  691MOL0     H91190   2.111   1.286   2.612 -1.3980 -1.0025 -0.5111
  691MOL0     H91191   2.140   1.284   2.447 -2.1363  2.2022  1.9758
  691MOL0     H91192   2.369   1.175   2.497 -1.5170  0.9713 -2.2690
  691MOL0     H91193   2.249   1.076   2.576 -2.9874  0.7829 -1.2208
  691MOL0     H91194   2.891   1.966   2.320  0.9480  0.0943 -3.5904
  691MOL0     H91195   3.111   1.989   2.202 -0.5668 -0.0980  0.2375
  691MOL0     H91196   3.507   1.831   2.090  0.7225 -1.7403 -0.0471
  691MOL0     H91197   3.741   1.890   2.006  0.8354  0.3462  0.4807
  691MOL0     H91198   5.312   3.124   2.420 -1.0399 -2.2343 -0.1752
  691MOL0     H91199   5.558   3.152   2.389 -2.9251 -1.1056  1.7875
  691MOL0     H91200   5.854   3.202   1.987 -0.5965 -3.8111  0.1382
  691MOL0     H91201   6.060   3.227   1.891 -3.6619  1.2261  1.1197
  691MOL0     H91202   6.421   3.059   2.116  2.0234 -1.4309 -2.3912
  691MOL0     H91203   6.462   3.232   2.131 -1.1976  0.8034 -0.9989
  691MOL0     H91204   6.608   3.072   1.968 -0.4351 -2.3798 -0.4316
  691MOL0     H91205   6.466   3.073   1.872 -0.9249  1.0609 -1.4012
  691MOL0     H91206   6.473   3.348   1.905 -1.2760 -0.6030 -0.5610
  691MOL0     H91207   6.581   3.267   1.778  0.2907 -0.8750 -0.2804
  691MOL0     H91208   6.658   3.449   1.949  1.6983  0.6224  3.3437
  691MOL0     H91209   6.644   3.319   2.074 -4.1655 -0.7656 -0.6657
  691MOL0     H91210   7.024   3.248   1.879 -0.4031 -2.7927  0.1278
  691MOL0     H91211   6.244   3.149   2.281 -1.1549  0.4293  1.9442
  691MOL0     H91212   6.037   3.067   2.365  2.3014 -0.9995 -0.1564
  692MOL0     O91213   0.890   0.789   1.506  0.0096  0.4557  0.4397
  692MOL0     C91214   0.976   0.835   1.581 -0.4934 -0.1617  0.7865
  692MOL0     O91215   0.959   0.941   1.663  0.8006 -0.2821  0.4906
  692MOL0     C91216   0.832   0.992   1.662  0.4836 -0.2968  0.6175
  692MOL0     C91217   0.714   0.920   1.688  0.4734  0.0243 -0.5910
  692MOL0     C91218   0.578   0.968   1.700 -0.1961 -0.1928 -0.5531
  692MOL0     C91219   0.564   1.105   1.692 -0.0837 -0.0046 -0.6945
  692MOL0     O91220   0.444   1.169   1.717  0.0546 -0.9789  0.0440
  692MOL0     C91221   0.338   1.078   1.752  0.2464 -0.4316  0.6388
  692MOL0     C91222   0.211   1.165   1.779  0.8173  0.0969  0.5593
  692MOL0     C91223   0.097   1.078   1.820  0.2195  0.3119 -0.1563
  692MOL0     C91224  -0.033   1.156   1.827  0.3652 -0.8871 -0.1531
  692MOL0     C91225  -0.144   1.049   1.868  0.2564 -1.3437  0.3604
  692MOL0     C91226  -0.288   1.109   1.862 -0.4698  0.6135  0.4200
  692MOL0     C91227  -0.396   1.000   1.852  0.4074 -0.0101  0.0697
  692MOL0     C91228  -0.540   1.051   1.854  0.2534  0.2322  0.3020
  692MOL0     N91229  -0.637   0.943   1.854 -0.1243  0.3942 -0.3655
  692MOL0     C91230  -0.672   0.858   1.752 -0.3846 -0.3914 -0.2514
  692MOL0     C91231  -0.752   0.767   1.809  0.4200  0.0362  0.4671
  692MOL0     C91232  -0.813   0.643   1.742 -0.3540  0.5605  0.3852
  692MOL0     C91233  -0.962   0.662   1.710  0.0619 -0.3124 -0.0729
  692MOL0     C91234  -0.988   0.756   1.590 -0.4751 -0.7450 -0.2587
  692MOL0     C91235  -1.134   0.743   1.529 -0.5686  0.5593 -0.9580
  692MOL0     O91236  -1.220   0.814   1.612 -0.1890 -0.6720 -0.5094
  692MOL0     C91237  -1.349   0.807   1.600 -0.0513 -0.2565  0.5276
  692MOL0     C91238  -1.424   0.725   1.516 -1.5735  0.8172  0.0018
  692MOL0     C91239  -1.561   0.734   1.488  0.1080 -0.6101 -1.2742
  692MOL0     C91240  -1.638   0.828   1.555  0.6190  0.9321 -0.0169
  692MOL0     C91241  -1.783   0.828   1.533  0.6739 -0.0385 -0.2472
  692MOL0     O91242  -1.839   0.736   1.445  0.2487 -0.4583  0.5964
  692MOL0     C91243  -1.974   0.754   1.413 -0.1145 -0.3576 -0.1977
  692MOL0     C91244  -2.077   0.737   1.514  0.2845 -0.2112 -1.0011
  692MOL0     C91245  -2.212   0.764   1.478  0.1197  0.5485 -0.3637
  692MOL0     C91246  -2.244   0.800   1.351  0.4497  0.0715  0.2433
  692MOL0     O91247  -2.367   0.848   1.331  0.2362  0.4447  0.1191
  692MOL0     C91248  -2.426   0.819   1.203 -0.5892  0.5995  0.7663
  692MOL0     C91249  -2.471   0.669   1.164  0.5470 -0.4852  0.0813
  692MOL0     C91250  -2.576   0.616   1.258  0.1442 -0.4080 -0.2553
  692MOL0     C91251  -2.609   0.466   1.222 -0.6029 -0.9300  0.1727
  692MOL0     C91252  -2.703   0.399   1.336 -0.1933  0.6336 -0.5682
  692MOL0     C91253  -2.760   0.258   1.320  0.0840  0.6695  0.4303
  692MOL0     C91254  -2.661   0.144   1.351 -0.2139 -0.1506  0.0673
  692MOL0     C91255  -2.701   0.017   1.282  0.6358 -0.6025  0.3047
  692MOL0    Cl91256  -2.662  -0.122   1.381  0.1151 -0.4520  0.2694
  692MOL0     C91257  -2.143   0.801   1.254 -0.0166 -0.3106  0.1459
  692MOL0     C91258  -2.017   0.775   1.283 -0.0593 -0.0101 -0.0684
  692MOL0     O91259  -1.853   0.909   1.595 -0.1110  0.0343 -0.4009
  692MOL0     C91260  -1.565   0.912   1.643 -0.5797 -0.1758 -0.2825
  692MOL0     C91261  -1.429   0.894   1.670  0.1783  0.1190 -0.3697
  692MOL0     N91262  -0.762   0.794   1.945 -0.1366 -0.8530 -0.3092
  692MOL0     N91263  -0.703   0.907   1.971  0.5165  0.1402 -0.1044
  692MOL0     C91264   0.669   1.190   1.661  1.0377  0.0762 -0.1707
  692MOL0     C91265   0.806   1.139   1.658  0.1801  0.0633 -0.3963
  692MOL0     C91266   1.113   0.770   1.580 -0.1445  0.1883 -0.9303
  692MOL0     C91267   1.197   0.782   1.697  0.7749  0.9511  0.2819
  692MOL0     C91268   1.325   0.730   1.697  0.5900 -0.2320  0.2872
  692MOL0     C91269   1.374   0.660   1.583 -0.4511  0.7605 -0.0967
  692MOL0     O91270   1.510   0.627   1.583 -0.5914  0.8500 -0.0072
  692MOL0     C91271   1.565   0.594   1.454 -0.1697 -1.2442  0.0036
  692MOL0     C91272   1.707   0.611   1.479  0.0196 -0.0652  0.2515
  692MOL0     C91273   1.779   0.563   1.355 -0.4035  0.4536  0.4798
  692MOL0     C91274   1.929   0.551   1.369 -0.1946 -0.0785 -0.2141
  692MOL0     C91275   1.990   0.535   1.237  0.6692 -0.0315 -0.6050
  692MOL0     C91276   2.066   0.524   1.143 -0.4519 -0.1517  0.4786
  692MOL0     C91277   1.287   0.647   1.477  0.6516  0.6924  0.3947
  692MOL0     C91278   1.159   0.699   1.476 -0.3433 -0.4654  1.2615
  692MOL0     H91279   0.722   0.815   1.715 -1.5740  0.1906  0.9062
  692MOL0     H91280   0.500   0.899   1.730 -0.7510  1.5014  2.3198
  692MOL0     H91281   0.368   1.020   1.840  0.4283  0.7741  1.3836
  692MOL0     H91282   0.298   1.011   1.675 -0.6980 -0.7107  1.3383
  692MOL0     H91283   0.187   1.218   1.686 -0.5493 -0.3753  0.6151
  692MOL0     H91284   0.223   1.234   1.863 -2.2108  1.9399 -0.3539
  692MOL0     H91285   0.131   1.038   1.916  0.9222 -1.6320 -1.1630
  692MOL0     H91286   0.076   0.996   1.752  1.9003  0.4074 -0.8291
  692MOL0     H91287  -0.028   1.237   1.901 -1.2634  1.3699 -2.3399
  692MOL0     H91288  -0.065   1.183   1.727 -0.1889 -2.0427 -0.2916
  692MOL0     H91289  -0.125   1.016   1.970 -0.2958 -1.0632  0.5538
  692MOL0     H91290  -0.138   0.966   1.797  0.1483  0.8150 -2.3352
  692MOL0     H91291  -0.293   1.168   1.770  0.8526  2.4450  1.4486
  692MOL0     H91292  -0.311   1.177   1.944 -2.7029 -0.8979  1.1382
  692MOL0     H91293  -0.379   0.938   1.763  2.0869 -1.9515  1.6441
  692MOL0     H91294  -0.380   0.940   1.942 -0.2835 -1.3411 -0.6526
  692MOL0     H91295  -0.577   1.102   1.764 -1.6928 -0.5011  0.6364
  692MOL0     H91296  -0.565   1.119   1.936 -0.3927 -2.5443  2.5455
  692MOL0     H91297  -0.653   0.866   1.646  0.5885  1.2620  0.0248
  692MOL0     H91298  -0.792   0.557   1.807 -2.0698  0.1893  0.4888
  692MOL0     H91299  -0.755   0.610   1.655  0.5938 -0.1551  1.2527
  692MOL0     H91300  -1.011   0.693   1.802  0.3660 -1.2815  0.4304
  692MOL0     H91301  -1.008   0.566   1.686 -0.4088 -0.9614  3.0312
  692MOL0     H91302  -0.963   0.861   1.608 -0.9926 -0.6402 -0.1362
  692MOL0     H91303  -0.919   0.731   1.508 -0.5139  1.7882 -1.1545
  692MOL0     H91304  -1.162   0.637   1.527  0.5078  0.1283  1.8730
  692MOL0     H91305  -1.134   0.784   1.428 -1.9953  1.1304 -0.7466
  692MOL0     H91306  -1.376   0.657   1.446 -1.7292  1.6912 -0.9812
  692MOL0     H91307  -1.611   0.658   1.430 -0.2947 -1.3249 -0.0373
  692MOL0     H91308  -2.048   0.717   1.616 -3.2813  2.1642  0.6533
  692MOL0     H91309  -2.299   0.765   1.542 -2.0898  1.1077 -3.2019
  692MOL0     H91310  -2.370   0.865   1.121 -0.7202  0.4011  0.5653
  692MOL0     H91311  -2.520   0.876   1.206 -0.0213  1.6626 -0.4138
  692MOL0     H91312  -2.387   0.602   1.182 -0.3251 -1.9130 -0.9698
  692MOL0     H91313  -2.496   0.652   1.059  0.8673 -1.2778  0.1307
  692MOL0     H91314  -2.658   0.688   1.253  2.0954  1.9961  0.0414
  692MOL0     H91315  -2.537   0.618   1.361 -1.1980 -0.0456  0.2692
  692MOL0     H91316  -2.656   0.458   1.124 -2.2507 -2.8209  1.0327
  692MOL0     H91317  -2.512   0.417   1.216  1.3297  2.1780  2.8323
  692MOL0     H91318  -2.791   0.463   1.340  0.5379  1.8417 -2.3135
  692MOL0     H91319  -2.650   0.400   1.431 -0.6477 -3.0686 -0.1230
  692MOL0     H91320  -2.794   0.233   1.219  0.2306 -0.8793  0.7406
  692MOL0     H91321  -2.843   0.242   1.388  0.9838 -0.8192  1.2252
  692MOL0     H91322  -2.558   0.170   1.327 -0.7992  3.7894  1.1922
  692MOL0     H91323  -2.667   0.123   1.458 -1.8736 -2.6710 -0.4063
  692MOL0     H91324  -2.648   0.005   1.187  1.2777  1.5571  0.3438
  692MOL0     H91325  -2.809   0.024   1.266  0.1213 -2.8859  2.1684
  692MOL0     H91326  -2.155   0.844   1.156  0.3719  0.2427  0.3338
  692MOL0     H91327  -1.943   0.784   1.205 -0.5812 -0.9866 -0.7017
  692MOL0     H91328  -1.617   0.982   1.708 -0.5114  0.7724 -1.2156
  692MOL0     H91329  -1.384   0.958   1.745  1.4954 -0.4866 -0.6118
  692MOL0     H91330   0.658   1.298   1.655  1.0942  0.0199 -1.6500
  692MOL0     H91331   0.882   1.208   1.624  0.4864 -1.1860 -2.4127
  692MOL0     H91332   1.162   0.841   1.781 -0.0724  1.7541 -0.6113
  692MOL0     H91333   1.396   0.750   1.777 -0.1382 -0.0991  0.9054
  692MOL0     H91334   1.538   0.661   1.372  1.8276  2.0223  1.8065
  692MOL0     H91335   1.528   0.494   1.432 -0.0184 -1.0418 -1.2381
  692MOL0     H91336   1.739   0.712   1.505  0.9767 -0.4926  0.7758
  692MOL0     H91337   1.729   0.537   1.556 -0.2388  0.8060  1.1873
  692MOL0     H91338   1.763   0.633   1.272  1.5689  0.9540  0.4692
  692MOL0     H91339   1.742   0.462   1.333  0.4175  0.3639 -0.6070
  692MOL0     H91340   1.965   0.641   1.420 -1.7564  0.5330 -0.1371
  692MOL0     H91341   1.940   0.463   1.434  0.1889 -0.0254 -0.2044
  692MOL0     H91342   2.121   0.509   1.053  1.6166  1.5514  1.3848
  692MOL0     H91343   1.310   0.593   1.385 -0.6670 -1.8806  1.4542
  692MOL0     H91344   1.088   0.675   1.396 -0.7324 -0.0145  1.4676
  693MOL0     O91345   1.556   7.317  10.103  0.0960 -0.7955 -0.2835
  693MOL0     C91346   1.513   7.217  10.162 -0.5045 -0.6932  0.0521
  693MOL0     O91347   1.554   7.091  10.148 -0.4581  0.4108  0.2409
  693MOL0     C91348   1.654   7.061  10.057  1.0735 -0.2562 -0.4257
  693MOL0     C91349   1.634   6.936   9.993 -0.3846 -0.2362 -0.0012
  693MOL0     C91350   1.734   6.888   9.912  0.0942  0.2216  0.0072
  693MOL0     C91351   1.853   6.963   9.884 -0.1923 -0.3159  0.3799
  693MOL0     O91352   1.950   6.918   9.797 -0.7860 -0.3505  0.4644
  693MOL0     C91353   1.904   6.932   9.660 -0.0485  0.4610 -0.1754
  693MOL0     C91354   1.905   7.075   9.604 -0.0654  1.0035 -0.1952
  693MOL0     C91355   1.762   7.134   9.608  0.1874  0.1784 -0.6552
  693MOL0     C91356   1.759   7.263   9.527  0.6470  0.8579 -0.3457
  693MOL0     C91357   1.656   7.375   9.567 -0.5098  0.9974  0.7353
  693MOL0     C91358   1.514   7.327   9.557 -0.5669 -0.1282  1.1586
  693MOL0     C91359   1.402   7.421   9.592 -0.2063 -0.8056 -0.3373
  693MOL0     C91360   1.411   7.463   9.744  0.3504 -0.1693  0.5389
  693MOL0     N91361   1.286   7.536   9.782 -0.0202  0.2883  0.5973
  693MOL0     C91362   1.174   7.560   9.707 -0.2148 -0.0525  0.0485
  693MOL0     C91363   1.112   7.660   9.773  0.2938  0.7615  0.1412
  693MOL0     C91364   0.993   7.744   9.718  0.2575  0.3754 -0.7817
  693MOL0     C91365   0.878   7.655   9.675  0.7847 -0.4680  0.4843
  693MOL0     C91366   0.748   7.736   9.672 -0.2527 -0.5492 -0.2600
  693MOL0     C91367   0.682   7.748   9.804 -0.1485  1.0510  0.1014
  693MOL0     O91368   0.577   7.848   9.808  0.2885 -0.0240  0.2936
  693MOL0     C91369   0.453   7.812   9.770 -0.0382  0.0296  0.3140
  693MOL0     C91370   0.356   7.894   9.822  0.6027 -0.4642 -0.6425
  693MOL0     C91371   0.220   7.876   9.795 -0.4086 -0.8832  0.3695
  693MOL0     C91372   0.177   7.769   9.713 -0.5585  0.3567  0.8484
  693MOL0     C91373   0.043   7.741   9.683  0.0845 -0.2261 -0.3707
  693MOL0     O91374  -0.041   7.832   9.741 -0.0351 -0.2754 -0.0483
  693MOL0     C91375  -0.167   7.836   9.685 -0.6677 -0.1902  0.6109
  693MOL0     C91376  -0.276   7.769   9.746 -0.8605 -0.0293  0.3246
  693MOL0     C91377  -0.398   7.795   9.706  0.8201 -0.1582 -0.5851
  693MOL0     C91378  -0.431   7.873   9.589 -0.2853 -0.3115 -0.5682
  693MOL0     O91379  -0.566   7.878   9.549 -0.5043  0.2068 -0.0491
  693MOL0     C91380  -0.616   7.989   9.476  0.0048 -0.5828  0.5395
  693MOL0     C91381  -0.771   7.995   9.513 -1.0948 -0.4176 -0.2028
  693MOL0     C91382  -0.841   7.886   9.432  0.8856  0.6859 -0.2975
  693MOL0     C91383  -0.984   7.863   9.499 -0.9126  0.8299  0.0554
  693MOL0     C91384  -1.077   7.978   9.457  0.2117  0.0558 -0.5855
  693MOL0     C91385  -1.220   7.967   9.523  0.1194  0.6823 -0.1301
  693MOL0     C91386  -1.311   8.078   9.486 -0.8675 -0.5649 -0.4501
  693MOL0     C91387  -1.408   8.025   9.381 -0.0542 -0.7143 -0.1881
  693MOL0    Cl91388  -1.500   8.173   9.330  0.5172 -0.0737  0.1783
  693MOL0     C91389  -0.326   7.952   9.535 -0.6329 -0.5078  0.4220
  693MOL0     C91390  -0.188   7.925   9.573 -0.1793  0.1922  0.3154
  693MOL0     O91391   0.008   7.648   9.607  0.6569 -0.4214  0.3417
  693MOL0     C91392   0.281   7.681   9.668  0.4649  0.4352  0.0418
  693MOL0     C91393   0.416   7.700   9.693 -0.0379  0.7783  0.0564
  693MOL0     N91394   1.186   7.691   9.886 -0.2023 -0.1909  0.3368
  693MOL0     N91395   1.286   7.616   9.889 -0.0970 -0.7301 -0.9298
  693MOL0     C91396   1.867   7.087   9.950 -0.7458 -0.4831  0.8422
  693MOL0     C91397   1.765   7.146  10.028 -0.9709 -0.0822  0.2961
  693MOL0     C91398   1.390   7.227  10.251  0.2985 -0.6346  0.5425
  693MOL0     C91399   1.334   7.355  10.283 -0.5098 -0.7121  0.3309
  693MOL0     C91400   1.220   7.359  10.362  0.2625  0.1541  0.5690
  693MOL0     C91401   1.169   7.237  10.408 -0.8345 -0.0828  0.3781
  693MOL0     O91402   1.056   7.225  10.485 -0.1537 -0.0438 -0.2306
  693MOL0     C91403   0.966   7.336  10.483  0.3680 -0.9216 -0.0578
  693MOL0     C91404   0.849   7.292  10.554  0.2186 -0.0496 -0.5974
  693MOL0     C91405   0.789   7.168  10.489  0.2968  0.4182  0.6503
  693MOL0     C91406   0.774   7.158  10.334 -0.4480 -0.6603 -0.3292
  693MOL0     C91407   0.668   7.250  10.283 -0.1024 -0.1917 -0.0552
  693MOL0     C91408   0.581   7.326  10.245 -0.1590 -0.0737 -0.3142
  693MOL0     C91409   1.222   7.113  10.368 -0.6361 -1.1470 -0.6525
  693MOL0     C91410   1.336   7.104  10.298 -0.1597 -0.2405  0.6780
  693MOL0     H91411   1.541   6.884  10.008  0.2232 -1.8583 -1.4684
  693MOL0     H91412   1.715   6.797   9.856  2.0444 -1.5765  2.0879
  693MOL0     H91413   1.810   6.878   9.645  2.0569 -3.0719 -1.7189
  693MOL0     H91414   1.980   6.883   9.599 -0.5198  0.0346 -0.4293
  693MOL0     H91415   1.941   7.072   9.501  0.8534 -4.1999  0.0130
  693MOL0     H91416   1.980   7.131   9.661 -1.4077  2.0044  0.6631
  693MOL0     H91417   1.739   7.161   9.712 -1.1985  1.0141 -1.1641
  693MOL0     H91418   1.685   7.059   9.587  0.2815 -0.8487  2.1678
  693MOL0     H91419   1.855   7.314   9.544  1.7836 -0.5619 -2.1285
  693MOL0     H91420   1.753   7.237   9.421 -1.1780 -0.9400  0.1455
  693MOL0     H91421   1.680   7.461   9.504 -0.1245  0.5530  0.2700
  693MOL0     H91422   1.676   7.417   9.666  1.0967  0.4567  0.6682
  693MOL0     H91423   1.508   7.236   9.617  1.7182  0.0155  1.7160
  693MOL0     H91424   1.495   7.282   9.459 -0.6896 -0.7774  1.4766
  693MOL0     H91425   1.416   7.511   9.531  3.4205 -1.5572 -0.8321
  693MOL0     H91426   1.304   7.374   9.582  0.3497 -1.8904 -0.8588
  693MOL0     H91427   1.493   7.531   9.767 -1.6686  2.7073 -0.1793
  693MOL0     H91428   1.432   7.377   9.808  1.5805 -0.8878 -0.7834
  693MOL0     H91429   1.134   7.518   9.615 -2.0057  1.4096  0.1152
  693MOL0     H91430   1.025   7.797   9.628  0.9587  2.3090  0.5367
  693MOL0     H91431   0.966   7.812   9.799  2.2349 -0.2088  0.4535
  693MOL0     H91432   0.854   7.574   9.745 -3.3476  0.5576  0.5521
  693MOL0     H91433   0.904   7.608   9.579 -0.5809  0.0116 -0.1485
  693MOL0     H91434   0.766   7.836   9.630 -1.1588  0.0047  0.6303
  693MOL0     H91435   0.683   7.684   9.601  0.0853 -1.1089 -0.1654
  693MOL0     H91436   0.749   7.775   9.886  0.0045 -0.6913  0.5868
  693MOL0     H91437   0.637   7.650   9.821  2.0877 -0.4768 -2.0536
  693MOL0     H91438   0.401   7.974   9.881  0.9606  0.1517 -1.7066
  693MOL0     H91439   0.153   7.945   9.846  0.8796  1.4866 -0.9703
  693MOL0     H91440  -0.263   7.708   9.834  2.1028  1.6866  1.1821
  693MOL0     H91441  -0.479   7.740   9.753  2.4647 -2.6241 -0.4189
  693MOL0     H91442  -0.607   7.977   9.367 -2.9013  0.4328  0.1000
  693MOL0     H91443  -0.572   8.084   9.507 -0.3629  0.2625 -1.3394
  693MOL0     H91444  -0.810   8.096   9.497  1.8738  0.8509 -0.0713
  693MOL0     H91445  -0.782   7.968   9.619  1.1276  0.9415  0.4573
  693MOL0     H91446  -0.788   7.791   9.445  2.4543  1.5476 -0.1005
  693MOL0     H91447  -0.836   7.913   9.327  1.4591  0.4743 -0.3306
  693MOL0     H91448  -1.020   7.766   9.464 -1.2017 -0.0767  2.6052
  693MOL0     H91449  -0.978   7.862   9.608  0.8666  0.3817 -0.0104
  693MOL0     H91450  -1.099   7.982   9.350  3.9005  0.2222 -1.4880
  693MOL0     H91451  -1.038   8.070   9.500 -1.3153 -0.2640  1.6534
  693MOL0     H91452  -1.198   7.979   9.630  5.9396  0.1644 -0.9082
  693MOL0     H91453  -1.264   7.868   9.515  2.3822 -0.7932  3.2069
  693MOL0     H91454  -1.371   8.110   9.573 -1.5185 -2.2002 -0.2668
  693MOL0     H91455  -1.257   8.161   9.441  0.3411 -1.0770  0.0043
  693MOL0     H91456  -1.471   7.954   9.436  1.2967 -2.1207 -0.3865
  693MOL0     H91457  -1.347   7.975   9.306  1.9044  1.3985 -0.1100
  693MOL0     H91458  -0.350   8.029   9.461 -0.0265 -0.3895  0.3465
  693MOL0     H91459  -0.105   7.988   9.542 -1.4831  1.5406 -0.5558
  693MOL0     H91460   0.246   7.595   9.612 -0.7395  1.3359 -0.6426
  693MOL0     H91461   0.483   7.624   9.656 -3.0882 -0.8644 -2.5547
  693MOL0     H91462   1.957   7.147   9.954 -0.1893 -1.3239  1.2739
  693MOL0     H91463   1.786   7.234  10.087 -1.8507  0.8179 -0.6888
  693MOL0     H91464   1.386   7.445  10.251 -1.2636 -0.4883 -0.2587
  693MOL0     H91465   1.179   7.454  10.395 -1.5882  0.0659 -1.3477
  693MOL0     H91466   0.949   7.368  10.379  0.5960 -0.4603  0.0461
  693MOL0     H91467   1.009   7.419  10.540 -1.9383 -0.0072  0.4583
  693MOL0     H91468   0.873   7.269  10.658 -0.0909 -0.4923 -0.6230
  693MOL0     H91469   0.778   7.376  10.558  2.0224  1.5010  0.8490
  693MOL0     H91470   0.691   7.144  10.531 -0.3569 -1.1612 -1.5521
  693MOL0     H91471   0.862   7.089  10.509 -0.8206 -0.1027  3.0690
  693MOL0     H91472   0.866   7.185  10.281 -0.4442 -0.9139 -0.4551
  693MOL0     H91473   0.760   7.052  10.312  1.8247 -1.7402  2.6918
  693MOL0     H91474   0.519   7.410  10.222  1.6396  2.0785  2.0731
  693MOL0     H91475   1.185   7.023  10.418 -0.3423 -1.2558 -0.6313
  693MOL0     H91476   1.379   7.006  10.278 -1.6231 -0.7161 -0.3369
  694MOL0     O91477   4.352  10.601   6.215  0.5529  0.2800 -0.0887
  694MOL0     C91478   4.390  10.522   6.132 -0.3661  0.3039 -0.3240
  694MOL0     O91479   4.310  10.431   6.060  0.3048 -0.1734 -0.5786
  694MOL0     C91480   4.176  10.462   6.083 -0.2622  0.3367  1.1336
  694MOL0     C91481   4.111  10.561   6.013  0.4677 -0.8420 -0.4008
  694MOL0     C91482   3.970  10.581   6.010 -0.5763  0.0281  0.2643
  694MOL0     C91483   3.891  10.497   6.093 -0.2670 -0.1482  0.4606
  694MOL0     O91484   3.752  10.496   6.088 -0.5358  0.4463  0.7559
  694MOL0     C91485   3.685  10.565   5.981 -0.2720  0.3490 -0.1976
  694MOL0     C91486   3.532  10.548   5.999  0.1365 -1.1134  0.0412
  694MOL0     C91487   3.493  10.608   6.137 -0.1958 -0.0142 -0.2503
  694MOL0     C91488   3.340  10.645   6.145  0.4847 -0.6528 -0.0279
  694MOL0     C91489   3.319  10.794   6.117  0.6412 -0.6327  0.3437
  694MOL0     C91490   3.173  10.848   6.150 -0.6833  0.8838 -0.3555
  694MOL0     C91491   3.057  10.760   6.089  0.4365  0.3756 -0.4139
  694MOL0     C91492   2.922  10.836   6.103  0.1919  0.1619  0.3108
  694MOL0     N91493   2.809  10.752   6.049 -0.5774  0.1280 -1.1290
  694MOL0     C91494   2.769  10.711   5.931  0.3694  1.0436 -0.4304
  694MOL0     C91495   2.659  10.634   5.945  0.0033 -0.0051 -0.4799
  694MOL0     C91496   2.586  10.561   5.839 -0.6261  0.0834  1.1132
  694MOL0     C91497   2.435  10.539   5.859 -0.1815  0.3478  0.2046
  694MOL0     C91498   2.372  10.487   5.733 -0.2298  0.3647 -0.3447
  694MOL0     C91499   2.221  10.491   5.760  0.9868 -0.5321  0.1337
  694MOL0     O91500   2.145  10.417   5.650  0.9690  0.0823 -0.0886
  694MOL0     C91501   2.010  10.442   5.648 -0.2420 -0.1965  0.5724
  694MOL0     C91502   1.940  10.494   5.760 -0.0832  0.4986 -1.0761
  694MOL0     C91503   1.808  10.541   5.751  0.2801 -0.4810  0.6887
  694MOL0     C91504   1.747  10.542   5.625 -0.0342 -0.2628  0.0357
  694MOL0     C91505   1.608  10.582   5.602 -0.0295  0.4200  0.0280
  694MOL0     O91506   1.542  10.565   5.485  0.1703  0.0663  0.2771
  694MOL0     C91507   1.406  10.597   5.465 -0.3066  0.1385 -0.3987
  694MOL0     C91508   1.299  10.576   5.558  0.0333  0.2979 -0.1831
  694MOL0     C91509   1.163  10.604   5.536 -0.1313  0.1018  0.1260
  694MOL0     C91510   1.130  10.650   5.407 -0.6608  1.2300  0.0569
  694MOL0     O91511   1.003  10.687   5.365 -0.4850  0.6202  0.5020
  694MOL0     C91512   0.884  10.655   5.439  0.2495 -0.3625  0.7925
  694MOL0     C91513   0.768  10.733   5.385 -0.9124 -1.0062  0.2980
  694MOL0     C91514   0.640  10.688   5.458 -0.5179  0.0673  0.0984
  694MOL0     C91515   0.513  10.759   5.393  0.4998  0.6931 -0.0368
  694MOL0     C91516   0.398  10.741   5.480 -0.0991  0.7809  0.1686
  694MOL0     C91517   0.270  10.789   5.414  0.1437 -0.4894  0.6879
  694MOL0     C91518   0.152  10.775   5.508 -0.1272  0.0036 -0.7533
  694MOL0     C91519   0.021  10.824   5.436  0.3478  0.2616  0.1635
  694MOL0    Cl91520  -0.103  10.757   5.540  0.1560 -0.0250  0.1198
  694MOL0     C91521   1.233  10.668   5.308 -0.2272 -0.3656 -0.0926
  694MOL0     C91522   1.370  10.642   5.335  0.6212 -0.2498  0.1957
  694MOL0     O91523   1.555  10.633   5.700  0.4866 -0.2997 -1.2251
  694MOL0     C91524   1.818  10.497   5.507  0.7638  0.2145 -0.5367
  694MOL0     C91525   1.950  10.436   5.526 -0.4299  0.0456 -0.3600
  694MOL0     N91526   2.635  10.627   6.081  0.3133 -0.3417 -0.3491
  694MOL0     N91527   2.716  10.700   6.137 -0.1113 -0.3034 -0.7485
  694MOL0     C91528   3.961  10.404   6.170  0.2840 -0.0150 -0.1951
  694MOL0     C91529   4.103  10.385   6.163 -0.4230 -0.2635 -0.1485
  694MOL0     C91530   4.538  10.513   6.119 -0.1766 -0.5368 -0.0905
  694MOL0     C91531   4.585  10.409   6.044 -0.4864  0.2317 -0.9231
  694MOL0     C91532   4.729  10.405   6.029  0.4933  0.5205  0.7849
  694MOL0     C91533   4.815  10.493   6.109  0.1155  0.7080 -0.1518
  694MOL0     O91534   4.944  10.470   6.102 -0.0435 -0.0755 -0.4539
  694MOL0     C91535   5.033  10.564   6.160  0.4609  0.0772  0.3273
  694MOL0     C91536   5.173  10.545   6.090 -0.2572 -0.0032 -0.3884
  694MOL0     C91537   5.282  10.631   6.153  0.4179 -0.5312  0.1191
  694MOL0     C91538   5.412  10.593   6.087 -0.7974 -0.6713  1.1338
  694MOL0     C91539   5.523  10.681   6.104  0.6658  0.3925 -0.7242
  694MOL0     C91540   5.613  10.759   6.125  0.0808 -0.4614  0.1360
  694MOL0     C91541   4.748  10.592   6.181 -0.0293  0.2166  0.4096
  694MOL0     C91542   4.611  10.612   6.186 -0.2663 -0.1215  0.2257
  694MOL0     H91543   4.176  10.612   5.942 -2.6089  2.2863 -1.2394
  694MOL0     H91544   3.917  10.654   5.950 -2.5203  0.0814  1.9106
  694MOL0     H91545   3.701  10.519   5.883  0.9762  2.4281 -1.0527
  694MOL0     H91546   3.721  10.669   5.979  2.9317 -0.5730  1.9241
  694MOL0     H91547   3.493  10.447   5.988 -0.6457 -0.7079 -1.1643
  694MOL0     H91548   3.480  10.603   5.920 -0.3172 -0.7193  0.6057
  694MOL0     H91549   3.552  10.699   6.148  0.6427 -0.4262 -1.1406
  694MOL0     H91550   3.511  10.534   6.215 -2.6542 -1.8262 -1.2552
  694MOL0     H91551   3.292  10.580   6.071  2.0334 -2.7290  0.6686
  694MOL0     H91552   3.295  10.616   6.240  0.8964 -0.2492  0.2935
  694MOL0     H91553   3.345  10.810   6.012  0.6708  0.9887  0.5779
  694MOL0     H91554   3.389  10.850   6.180  0.5452 -2.1789  1.9096
  694MOL0     H91555   3.172  10.953   6.119 -1.0007  1.0765  0.2826
  694MOL0     H91556   3.159  10.851   6.258 -0.4068 -1.5439 -0.2008
  694MOL0     H91557   3.083  10.747   5.984  0.2426  3.4367 -0.9395
  694MOL0     H91558   3.054  10.664   6.143  3.5417 -0.3855 -1.3473
  694MOL0     H91559   2.928  10.928   6.044  0.5337 -1.0800 -1.7154
  694MOL0     H91560   2.903  10.853   6.209  0.2208  0.6289  0.2398
  694MOL0     H91561   2.815  10.731   5.835 -1.1810 -0.5699 -1.5495
  694MOL0     H91562   2.635  10.463   5.843 -0.8093 -0.2124 -1.6808
  694MOL0     H91563   2.609  10.612   5.745  1.3429 -1.9704  0.3630
  694MOL0     H91564   2.381  10.632   5.880  0.3557  1.5713 -3.2095
  694MOL0     H91565   2.425  10.462   5.936 -1.5802  1.8075  1.5776
  694MOL0     H91566   2.402  10.557   5.655  0.1528  0.6661  0.0712
  694MOL0     H91567   2.401  10.384   5.711  1.2837  0.7835 -0.3952
  694MOL0     H91568   2.193  10.597   5.767  0.5585 -0.7033  1.3896
  694MOL0     H91569   2.197  10.445   5.856  2.5505 -0.7557  0.4446
  694MOL0     H91570   1.995  10.504   5.853  0.2356  0.3094 -1.2429
  694MOL0     H91571   1.758  10.566   5.844 -0.4239  0.0785  0.1733
  694MOL0     H91572   1.321  10.540   5.659 -3.2001  1.5702  1.0954
  694MOL0     H91573   1.088  10.589   5.613  0.1376  1.6452  0.7263
  694MOL0     H91574   0.898  10.682   5.544 -1.0550 -0.6609  1.0593
  694MOL0     H91575   0.872  10.546   5.443 -2.2520 -0.1719 -0.1445
  694MOL0     H91576   0.758  10.710   5.279 -1.1148  3.6055 -0.9241
  694MOL0     H91577   0.783  10.840   5.405 -0.5242 -0.8304 -0.8524
  694MOL0     H91578   0.649  10.714   5.563  1.4573  0.6202 -0.1672
  694MOL0     H91579   0.614  10.582   5.454  3.6688 -1.2724  2.3248
  694MOL0     H91580   0.516  10.868   5.388 -0.1399  0.7511  0.5439
  694MOL0     H91581   0.486  10.722   5.294 -3.8037  0.8089  0.8601
  694MOL0     H91582   0.396  10.802   5.571 -4.2064  2.2030 -0.6740
  694MOL0     H91583   0.387  10.637   5.509 -1.3109  1.0267  0.6705
  694MOL0     H91584   0.259  10.737   5.318  0.6756  1.1784 -0.3123
  694MOL0     H91585   0.279  10.896   5.393  2.6613 -1.0531 -1.5594
  694MOL0     H91586   0.137  10.672   5.543 -0.7951 -0.0754 -1.2553
  694MOL0     H91587   0.162  10.832   5.601 -2.7998 -1.6161  0.6694
  694MOL0     H91588   0.014  10.788   5.333 -1.6294  2.0928 -0.4127
  694MOL0     H91589   0.008  10.933   5.440  1.1900  0.4237 -0.7832
  694MOL0     H91590   1.191  10.705   5.215  1.3807  2.6524  0.2728
  694MOL0     H91591   1.454  10.662   5.269 -1.3978  1.7999 -1.9568
  694MOL0     H91592   1.777  10.508   5.407  1.2537  1.9263 -0.5818
  694MOL0     H91593   1.997  10.402   5.434 -3.0289 -0.3282 -1.6454
  694MOL0     H91594   3.913  10.336   6.240  2.7983 -0.8987  0.7907
  694MOL0     H91595   4.148  10.309   6.226  0.9679  2.8348  2.8859
  694MOL0     H91596   4.529  10.332   5.993  0.0548 -1.6505  1.1609
  694MOL0     H91597   4.762  10.323   5.966 -1.0183 -0.6679  1.4857
  694MOL0     H91598   5.051  10.558   6.268  3.1408  1.5442  0.0548
  694MOL0     H91599   4.996  10.666   6.148 -0.2417 -0.1959  0.1315
  694MOL0     H91600   5.205  10.441   6.094 -2.2324 -0.6188  1.8583
  694MOL0     H91601   5.169  10.578   5.986 -0.9264  0.6043 -0.1797
  694MOL0     H91602   5.288  10.616   6.261  0.6654  0.2199  0.2174
  694MOL0     H91603   5.260  10.738   6.145 -1.4215 -1.0250 -3.0367
  694MOL0     H91604   5.443  10.491   6.108  2.8360  0.4145  1.7001
  694MOL0     H91605   5.391  10.599   5.980  3.8314  2.7678  0.1173
  694MOL0     H91606   5.702  10.818   6.121 -0.2913  0.2834  2.0531
  694MOL0     H91607   4.806  10.636   6.262  1.0971 -4.6291  2.5491
  694MOL0     H91608   4.565  10.692   6.244 -1.0490  0.2246 -0.8336
  695MOL0     O91609   0.468   4.276  10.233  0.4192 -0.9084  0.0353
  695MOL0     C91610   0.436   4.365  10.158  1.0171 -0.1547  0.3604
  695MOL0     O91611   0.332   4.353  10.066 -0.0751 -0.2692 -0.9713
  695MOL0     C91612   0.260   4.238  10.073 -0.1843 -0.6085  0.0169
  695MOL0     C91613   0.303   4.111  10.049  0.1151  0.6508 -0.8693
  695MOL0     C91614   0.216   4.004  10.079 -0.8316 -0.2418 -0.0702
  695MOL0     C91615   0.083   4.027  10.118  0.2095  0.0657 -0.5858
  695MOL0     O91616   0.003   3.911  10.132 -0.3667 -0.9179  0.1736
  695MOL0     C91617  -0.132   3.926  10.107  1.1258 -0.5269 -0.0041
  695MOL0     C91618  -0.209   3.878  10.236  0.7610  0.7841  1.3595
  695MOL0     C91619  -0.362   3.899  10.216 -0.1128  0.2721 -1.1973
  695MOL0     C91620  -0.456   3.827  10.314 -0.0845  0.8533 -0.2002
  695MOL0     C91621  -0.605   3.847  10.278  0.3155  0.0980  0.2394
  695MOL0     C91622  -0.646   3.793  10.143  0.2637 -0.7104 -0.5836
  695MOL0     C91623  -0.792   3.812  10.092 -0.4650 -0.3276  0.2192
  695MOL0     C91624  -0.907   3.817  10.186 -0.9973 -0.2459  0.1057
  695MOL0     N91625  -1.033   3.831  10.114  0.4390 -0.3842  0.3152
  695MOL0     C91626  -1.118   3.936  10.109  0.2804  0.3823 -0.8358
  695MOL0     C91627  -1.221   3.905  10.022 -0.1484  0.5989 -0.2907
  695MOL0     C91628  -1.340   3.983   9.982 -0.9829  0.4782 -0.5646
  695MOL0     C91629  -1.458   3.956  10.080 -0.3962 -1.0044  1.1857
  695MOL0     C91630  -1.572   4.046  10.031  0.3791  0.3375  0.3389
  695MOL0     C91631  -1.709   3.996  10.083 -0.5223  0.4896 -0.2471
  695MOL0     O91632  -1.813   4.063  10.015 -0.0998  0.1271 -0.6056
  695MOL0     C91633  -1.928   4.063  10.086 -0.3028 -0.8046  0.6127
  695MOL0     C91634  -2.029   4.152  10.057 -0.0227 -0.0814  0.3899
  695MOL0     C91635  -2.149   4.177  10.142  0.1983 -0.1554  0.6404
  695MOL0     C91636  -2.155   4.101  10.258  0.6399 -0.4861 -0.1834
  695MOL0     C91637  -2.273   4.106  10.348  0.3331  0.2940  0.7335
  695MOL0     O91638  -2.292   4.010  10.435  0.1136  0.4305  0.1455
  695MOL0     C91639  -2.410   4.022  10.502 -0.3873  0.1782 -0.5814
  695MOL0     C91640  -2.402   4.085  10.629  0.6072  0.2702 -0.3744
  695MOL0     C91641  -2.523   4.121  10.691 -0.1730 -0.8463  0.6164
  695MOL0     C91642  -2.646   4.089  10.639  0.0247 -0.0723 -0.5273
  695MOL0     O91643  -2.766   4.125  10.704  0.1577 -0.1045  0.3011
  695MOL0     C91644  -2.892   4.081  10.654  0.0410  0.7225  0.1474
  695MOL0     C91645  -2.994   4.100  10.765 -0.0307 -0.8078  0.7069
  695MOL0     C91646  -3.119   4.027  10.729  0.3953 -0.2823  0.1071
  695MOL0     C91647  -3.222   4.051  10.838  0.4824  0.3628 -0.7431
  695MOL0     C91648  -3.354   3.977  10.804 -0.1013 -0.6304 -0.1080
  695MOL0     C91649  -3.484   4.063  10.836 -0.6738 -1.0013 -0.1903
  695MOL0     C91650  -3.594   3.966  10.886 -0.1018 -0.0391 -0.5250
  695MOL0     C91651  -3.648   3.870  10.776 -0.7327 -0.6495 -0.3218
  695MOL0    Cl91652  -3.738   3.966  10.659 -0.3032 -0.0780  0.1117
  695MOL0     C91653  -2.648   4.031  10.511  0.9529  0.7711  0.6075
  695MOL0     C91654  -2.534   3.993  10.450 -0.2821  0.0117 -0.5342
  695MOL0     O91655  -2.341   4.207  10.335  0.4900 -0.3165 -0.1931
  695MOL0     C91656  -2.052   4.015  10.291 -0.0191 -0.3322  0.5215
  695MOL0     C91657  -1.940   3.998  10.211  0.5193 -0.5189 -0.1103
  695MOL0     N91658  -1.198   3.769   9.983  0.6954 -0.9464 -0.1332
  695MOL0     N91659  -1.092   3.728  10.050 -0.2602  0.4185  0.2721
  695MOL0     C91660   0.042   4.159  10.137  0.0064  0.0717  0.1639
  695MOL0     C91661   0.128   4.263  10.112  0.9378  0.0261  0.4474
  695MOL0     C91662   0.506   4.490  10.154 -0.0254  0.2812  0.2424
  695MOL0     C91663   0.649   4.488  10.184  0.7081 -0.3260 -0.0727
  695MOL0     C91664   0.717   4.606  10.188 -0.0434  0.8573  0.4416
  695MOL0     C91665   0.654   4.730  10.142 -0.7449  0.1088 -0.8608
  695MOL0     O91666   0.730   4.845  10.132  0.6957 -0.1912  0.6747
  695MOL0     C91667   0.833   4.858  10.031  0.3469  0.5799  0.3377
  695MOL0     C91668   0.869   5.008  10.022  0.5845 -0.3038 -0.5498
  695MOL0     C91669   0.996   5.030   9.944  0.6117 -0.2465  0.3349
  695MOL0     C91670   1.023   5.182   9.912  0.5573  0.3779 -0.5720
  695MOL0     C91671   0.923   5.237   9.826 -1.1361 -0.1363 -0.3202
  695MOL0     C91672   0.851   5.299   9.761  0.0516 -0.9536  0.9121
  695MOL0     C91673   0.529   4.726  10.100 -0.2525  0.8274 -0.9656
  695MOL0     C91674   0.445   4.611  10.107 -0.2961  0.5450  0.3108
  695MOL0     H91675   0.406   4.083  10.030 -0.7346 -2.3071 -1.6219
  695MOL0     H91676   0.253   3.905  10.055 -3.4115 -0.9901 -1.3957
  695MOL0     H91677  -0.164   3.864  10.023  2.1048 -2.0500  0.7170
  695MOL0     H91678  -0.159   4.030  10.085 -0.6050 -1.4827 -3.1601
  695MOL0     H91679  -0.173   3.935  10.323  0.2902  1.0758  1.3686
  695MOL0     H91680  -0.185   3.772  10.248 -0.6878  0.2199 -0.2478
  695MOL0     H91681  -0.376   3.872  10.111 -1.7888  2.3485 -1.5794
  695MOL0     H91682  -0.380   4.007  10.216  0.0393  0.3107 -2.5563
  695MOL0     H91683  -0.433   3.720  10.325 -0.0196  0.9349  0.4871
  695MOL0     H91684  -0.434   3.862  10.415 -1.0767  1.5274 -0.2099
  695MOL0     H91685  -0.624   3.955  10.276 -0.9076 -0.0968  0.0240
  695MOL0     H91686  -0.668   3.824  10.364  0.8228 -1.1047  0.3086
  695MOL0     H91687  -0.615   3.688  10.135  0.4248 -0.6172 -1.1780
  695MOL0     H91688  -0.595   3.848  10.064 -0.4063  1.4118  0.3787
  695MOL0     H91689  -0.792   3.903  10.032 -0.4879 -0.3368  0.2045
  695MOL0     H91690  -0.799   3.732  10.018  1.1401 -0.3228  0.0251
  695MOL0     H91691  -0.902   3.904  10.251  0.9955 -1.0977  1.2041
  695MOL0     H91692  -0.922   3.728  10.248 -1.9719 -2.5315 -3.0768
  695MOL0     H91693  -1.101   4.033  10.155  0.0481  0.4199 -0.8290
  695MOL0     H91694  -1.374   3.951   9.883  3.3335  0.7308 -2.3443
  695MOL0     H91695  -1.317   4.090   9.982 -2.1837  0.8041  2.2190
  695MOL0     H91696  -1.434   3.984  10.183  0.7786 -0.6410  0.8325
  695MOL0     H91697  -1.485   3.850  10.079 -1.2072 -0.9243 -3.0939
  695MOL0     H91698  -1.559   4.149  10.066  2.0951 -0.4083  2.1459
  695MOL0     H91699  -1.572   4.045   9.922  1.5095  2.1291  0.2751
  695MOL0     H91700  -1.707   4.024  10.189  0.9169  0.9104 -0.3669
  695MOL0     H91701  -1.715   3.888  10.068 -0.5128  0.3652  0.6161
  695MOL0     H91702  -2.026   4.216   9.969 -2.6584  3.1300  2.3704
  695MOL0     H91703  -2.230   4.241  10.108  0.2287 -1.3958 -2.0317
  695MOL0     H91704  -2.309   4.120  10.671 -0.2851  2.7089 -0.2490
  695MOL0     H91705  -2.510   4.181  10.780 -0.1757  1.8860 -1.1155
  695MOL0     H91706  -2.889   3.976  10.626  0.7257  0.7575  0.0731
  695MOL0     H91707  -2.931   4.140  10.570 -3.2308 -0.1611  0.8933
  695MOL0     H91708  -3.016   4.207  10.770 -0.5348 -0.8915  0.4235
  695MOL0     H91709  -2.942   4.063  10.854  0.9538 -1.0937  0.0281
  695MOL0     H91710  -3.093   3.921  10.735 -1.0219 -0.6446  0.0676
  695MOL0     H91711  -3.165   4.049  10.632  0.3516  1.4057  0.4835
  695MOL0     H91712  -3.189   4.024  10.938  0.1863  0.2858 -0.6653
  695MOL0     H91713  -3.245   4.157  10.847 -2.6804 -0.3000  0.2320
  695MOL0     H91714  -3.343   3.880  10.853  0.8779 -0.6029 -0.2605
  695MOL0     H91715  -3.357   3.949  10.698 -0.2720 -2.9089  0.4393
  695MOL0     H91716  -3.520   4.125  10.754 -0.9614 -1.9505 -0.7884
  695MOL0     H91717  -3.457   4.127  10.921 -3.0516  1.0879 -0.9119
  695MOL0     H91718  -3.568   3.903  10.972  1.0366 -1.2715 -1.7119
  695MOL0     H91719  -3.680   4.026  10.914 -1.6264 -2.0948 -0.5678
  695MOL0     H91720  -3.724   3.812  10.830  1.0246 -0.2033  2.9053
  695MOL0     H91721  -3.568   3.809  10.732 -0.9037 -0.1466 -1.3602
  695MOL0     H91722  -2.742   4.005  10.463  0.8124  0.8259  0.8522
  695MOL0     H91723  -2.538   3.954  10.348 -0.2299 -1.2703 -0.0620
  695MOL0     H91724  -2.057   3.958  10.384  1.8671 -1.4344 -0.0043
  695MOL0     H91725  -1.869   3.927  10.253 -1.3002 -2.3296  0.0162
  695MOL0     H91726  -0.053   4.177  10.186 -0.2572  2.6175 -1.0929
  695MOL0     H91727   0.094   4.364  10.136  1.6241 -0.0234  1.7112
  695MOL0     H91728   0.703   4.400  10.219  1.3954 -0.4553 -1.4039
  695MOL0     H91729   0.816   4.616  10.231 -0.1400  2.5667  0.3341
  695MOL0     H91730   0.788   4.833   9.934 -1.6621 -0.0804  1.3879
  695MOL0     H91731   0.918   4.791  10.046  1.1344  0.1275 -4.5350
  695MOL0     H91732   0.789   5.074   9.985  1.0897  1.5332  1.3794
  695MOL0     H91733   0.879   5.044  10.126  0.4238  0.3351 -0.7473
  695MOL0     H91734   0.989   4.970   9.853 -4.3523 -0.4739  0.5528
  695MOL0     H91735   1.079   4.998  10.007 -1.5367 -0.0150  3.5039
  695MOL0     H91736   1.024   5.245  10.002 -1.0530 -0.2595 -0.0763
  695MOL0     H91737   1.122   5.197   9.868  1.1388 -1.2516  0.1135
  695MOL0     H91738   0.769   5.339   9.704 -1.2232 -1.4819  2.2898
  695MOL0     H91739   0.480   4.817  10.067  0.2279  0.4211 -2.9086
  695MOL0     H91740   0.342   4.625  10.077 -0.9304 -1.0812  1.5411
  696MOL0     O91741   7.808   0.040   8.856 -0.2132  0.3532  0.0901
  696MOL0     C91742   7.896   0.122   8.844 -0.0745 -0.7428  0.0977
  696MOL0     O91743   7.894   0.215   8.752  0.7375  0.2878 -0.7079
  696MOL0     C91744   7.786   0.230   8.670  0.1101 -0.3188  0.1531
  696MOL0     C91745   7.650   0.213   8.707 -0.2798  0.2538  0.6470
  696MOL0     C91746   7.542   0.238   8.615 -0.0741  0.1455  0.2631
  696MOL0     C91747   7.569   0.281   8.480  0.1131 -0.0895 -0.3533
  696MOL0     O91748   7.476   0.309   8.377  1.1362 -0.1126  0.1410
  696MOL0     C91749   7.331   0.303   8.400  0.0678 -0.2449 -0.5394
  696MOL0     C91750   7.280   0.420   8.492  0.0506  0.4751  0.1048
  696MOL0     C91751   7.137   0.404   8.520 -1.0085 -0.3119 -0.2393
  696MOL0     C91752   7.086   0.519   8.600  0.7896  0.0400  0.1188
  696MOL0     C91753   6.938   0.530   8.608 -0.6214  0.0398  0.4534
  696MOL0     C91754   6.887   0.679   8.620 -0.6651  0.1702 -1.3579
  696MOL0     C91755   6.732   0.669   8.653 -0.1203  0.3234 -0.7964
  696MOL0     C91756   6.679   0.807   8.666 -0.2009 -0.3816 -0.6700
  696MOL0     N91757   6.533   0.798   8.691  0.0735  0.4833  0.0521
  696MOL0     C91758   6.446   0.791   8.591  0.1650  0.8124  0.2302
  696MOL0     C91759   6.327   0.767   8.644 -0.5257 -1.2764  0.1602
  696MOL0     C91760   6.191   0.778   8.580 -1.1588 -0.3394 -0.3197
  696MOL0     C91761   6.086   0.686   8.625  0.1033  0.0688 -0.5376
  696MOL0     C91762   5.965   0.689   8.523 -0.3359 -0.8350  0.4963
  696MOL0     C91763   5.878   0.566   8.540  0.3786 -0.7520  0.2667
  696MOL0     O91764   5.784   0.587   8.437 -0.2367 -0.0904  0.5804
  696MOL0     C91765   5.649   0.606   8.453 -0.7288 -0.1020  0.1432
  696MOL0     C91766   5.573   0.669   8.352 -0.2956  0.4336  0.2281
  696MOL0     C91767   5.442   0.692   8.371  0.6566  0.5938 -0.1777
  696MOL0     C91768   5.373   0.637   8.484  0.2581 -0.4249 -0.3799
  696MOL0     C91769   5.222   0.638   8.490 -0.8529  0.4356  0.2870
  696MOL0     O91770   5.155   0.574   8.589  0.7418  0.1459 -0.0979
  696MOL0     C91771   5.018   0.583   8.592  0.7440 -0.1888  0.3333
  696MOL0     C91772   4.945   0.504   8.503 -0.6983 -0.1431  0.3379
  696MOL0     C91773   4.800   0.499   8.512 -0.3199  0.1570  0.1052
  696MOL0     C91774   4.733   0.577   8.602 -0.4577  1.4704 -1.2447
  696MOL0     O91775   4.602   0.574   8.623 -0.2956  0.1683  0.2063
  696MOL0     C91776   4.522   0.461   8.570 -0.3324  0.1477  0.6581
  696MOL0     C91777   4.376   0.485   8.610  0.2229 -0.1884 -0.3714
  696MOL0     C91778   4.331   0.615   8.536 -0.1795 -0.0410  0.5808
  696MOL0     C91779   4.180   0.656   8.554 -0.6069  1.4198 -0.0921
  696MOL0     C91780   4.135   0.764   8.467  0.0640 -1.4920  1.0476
  696MOL0     C91781   3.979   0.785   8.482  0.0958  0.9938 -0.4126
  696MOL0     C91782   3.927   0.915   8.424  0.2801 -0.0576 -0.3661
  696MOL0     C91783   3.972   0.919   8.279  0.0016 -0.4354  0.3252
  696MOL0    Cl91784   3.853   1.031   8.206 -0.2687 -0.1445  0.2641
  696MOL0     C91785   4.811   0.656   8.688 -0.5094 -0.4210  0.3293
  696MOL0     C91786   4.947   0.665   8.679 -0.8097  0.1954  0.6074
  696MOL0     O91787   5.171   0.685   8.389 -0.7611 -0.3642 -0.3947
  696MOL0     C91788   5.449   0.571   8.587 -0.2410 -0.8509 -0.2598
  696MOL0     C91789   5.585   0.557   8.572  0.5640 -0.6795  0.7900
  696MOL0     N91790   6.344   0.766   8.780  0.8168 -0.5241 -0.1701
  696MOL0     N91791   6.469   0.776   8.807  0.1994 -0.2864 -0.2394
  696MOL0     C91792   7.697   0.298   8.443  0.3881  1.0443 -0.3628
  696MOL0     C91793   7.806   0.278   8.533  1.2252  0.1441  0.0071
  696MOL0     C91794   8.021   0.094   8.906  0.0124  0.7049  0.1131
  696MOL0     C91795   8.036  -0.016   8.999 -0.5214 -0.0116  0.2476
  696MOL0     C91796   8.162  -0.040   9.059 -0.2658  0.4391 -0.0805
  696MOL0     C91797   8.272   0.042   9.035  0.9956  0.4710  0.3443
  696MOL0     O91798   8.377   0.009   9.110  0.1446  1.3265  0.1760
  696MOL0     C91799   8.502   0.081   9.096 -0.1375 -0.5832  0.1279
  696MOL0     C91800   8.596   0.031   9.204 -0.1247 -0.6358 -0.4577
  696MOL0     C91801   8.670  -0.096   9.178  0.5133 -0.8897 -0.8675
  696MOL0     C91802   8.784  -0.101   9.070  0.0283  0.1456  0.2532
  696MOL0     C91803   8.883   0.006   9.098 -0.4988  0.0104  0.4664
  696MOL0     C91804   8.953   0.089   9.146  0.1938  0.9462  0.3280
  696MOL0     C91805   8.260   0.144   8.947 -0.0756 -0.3955  0.5738
  696MOL0     C91806   8.137   0.180   8.888  0.5154  1.1186 -0.5015
  696MOL0     H91807   7.620   0.195   8.810 -1.9977 -0.9078 -0.0010
  696MOL0     H91808   7.437   0.231   8.642 -1.0968  0.3887 -3.2068
  696MOL0     H91809   7.306   0.203   8.437 -1.3678 -0.9083 -3.0529
  696MOL0     H91810   7.280   0.316   8.304 -0.4794 -4.0973 -0.9115
  696MOL0     H91811   7.283   0.510   8.431 -0.5179  0.7085  0.4119
  696MOL0     H91812   7.334   0.422   8.587  2.0522 -1.0389 -0.9295
  696MOL0     H91813   7.101   0.309   8.561 -0.4959 -0.3584  0.1031
  696MOL0     H91814   7.085   0.410   8.424 -0.6107  0.7382 -0.4048
  696MOL0     H91815   7.129   0.523   8.700  0.6492 -0.6301  0.2101
  696MOL0     H91816   7.117   0.608   8.545  2.1964 -0.8483 -0.5913
  696MOL0     H91817   6.909   0.461   8.688  0.4596 -0.8611  0.0959
  696MOL0     H91818   6.885   0.494   8.519 -1.5686 -1.9669  1.7752
  696MOL0     H91819   6.907   0.736   8.528  0.4811  1.0077 -0.6282
  696MOL0     H91820   6.937   0.722   8.708 -1.4917 -1.9717  0.2369
  696MOL0     H91821   6.680   0.622   8.570 -1.3870  3.4168 -1.8994
  696MOL0     H91822   6.716   0.617   8.748  1.5693  1.4839  0.1669
  696MOL0     H91823   6.698   0.867   8.577  1.7159  0.5012  0.2840
  696MOL0     H91824   6.724   0.860   8.750 -0.5721  0.9713 -1.2894
  696MOL0     H91825   6.459   0.808   8.484 -1.0614  1.6228  0.1953
  696MOL0     H91826   6.199   0.761   8.472 -2.3921 -0.8554 -0.3486
  696MOL0     H91827   6.151   0.878   8.594  0.0615  0.2522 -0.9191
  696MOL0     H91828   6.049   0.723   8.721  3.0413  0.6102  0.4984
  696MOL0     H91829   6.125   0.585   8.637  0.5722  0.1146 -1.5622
  696MOL0     H91830   5.900   0.777   8.517  1.7163  0.7106  0.1060
  696MOL0     H91831   6.016   0.689   8.427  1.3625 -1.3082  1.3680
  696MOL0     H91832   5.830   0.562   8.638  3.0468  1.4454  1.7686
  696MOL0     H91833   5.925   0.469   8.518 -0.0709 -1.0526  0.6003
  696MOL0     H91834   5.634   0.713   8.274 -0.9748  0.7227 -0.1384
  696MOL0     H91835   5.388   0.749   8.296 -1.9794 -0.8452  0.4746
  696MOL0     H91836   4.990   0.437   8.430 -0.0553  1.4172 -0.7430
  696MOL0     H91837   4.760   0.432   8.436 -1.3493  0.5545  0.2744
  696MOL0     H91838   4.561   0.369   8.615 -0.6547  0.0798  0.7997
  696MOL0     H91839   4.536   0.459   8.461  1.8601 -1.9427  0.9019
  696MOL0     H91840   4.375   0.511   8.716  2.4083  1.4911 -0.6898
  696MOL0     H91841   4.300   0.407   8.601  0.5456 -0.6747  1.0108
  696MOL0     H91842   4.359   0.600   8.431 -2.0176  1.9761 -0.2630
  696MOL0     H91843   4.397   0.696   8.570 -1.7315  1.7627 -0.5198
  696MOL0     H91844   4.122   0.563   8.556  1.7235 -0.1021  1.0933
  696MOL0     H91845   4.175   0.688   8.659 -1.6188  0.7356  0.0840
  696MOL0     H91846   4.163   0.738   8.365 -2.5699 -1.8337  0.3237
  696MOL0     H91847   4.184   0.855   8.503  2.8713 -2.0190 -1.1781
  696MOL0     H91848   3.943   0.770   8.584  0.4033  1.1178 -0.2853
  696MOL0     H91849   3.937   0.700   8.426  2.3326  1.6762 -3.3465
  696MOL0     H91850   3.817   0.914   8.425  0.2247 -0.0473 -2.2828
  696MOL0     H91851   3.955   1.004   8.481 -2.5521 -0.1747  1.4064
  696MOL0     H91852   3.951   0.825   8.227  0.7839 -0.6150  0.3303
  696MOL0     H91853   4.065   0.971   8.259 -1.4302  1.3122 -2.3343
  696MOL0     H91854   4.758   0.714   8.763 -1.0616 -0.2788 -0.1627
  696MOL0     H91855   4.998   0.741   8.737 -1.8805  2.7941 -1.6417
  696MOL0     H91856   5.395   0.522   8.667 -0.4287  1.3738  1.0671
  696MOL0     H91857   5.625   0.501   8.656  1.8994 -1.1617 -0.1352
  696MOL0     H91858   7.714   0.327   8.339 -0.9347 -2.8565 -1.8507
  696MOL0     H91859   7.902   0.316   8.501  0.2975  2.6556 -0.0129
  696MOL0     H91860   7.951  -0.072   9.035 -1.1557  0.3276 -0.6680
  696MOL0     H91861   8.178  -0.124   9.125  0.7008  0.7820  0.1373
  696MOL0     H91862   8.490   0.188   9.114  3.5611  0.1236 -0.6830
  696MOL0     H91863   8.550   0.073   8.997  0.0352 -0.9241  0.2386
  696MOL0     H91864   8.674   0.106   9.216 -0.8147  0.3088 -1.6435
  696MOL0     H91865   8.538   0.018   9.296  2.5801 -0.8579  1.3372
  696MOL0     H91866   8.598  -0.178   9.168  0.3218 -0.8550  0.1249
  696MOL0     H91867   8.722  -0.124   9.270  1.0655 -1.7168 -1.4199
  696MOL0     H91868   8.830  -0.200   9.078 -1.5852 -0.5013  4.4109
  696MOL0     H91869   8.743  -0.087   8.970  3.8305 -0.3264 -1.5708
  696MOL0     H91870   9.010   0.166   9.194 -1.6826  2.2743  0.5396
  696MOL0     H91871   8.337   0.220   8.948 -0.8003  0.3450  1.6761
  696MOL0     H91872   8.127   0.265   8.822  1.1396 -0.5465 -2.8941
  697MOL0     O91873   9.380   4.296   1.011 -0.0547 -0.1878  0.3985
  697MOL0     C91874   9.449   4.190   1.019  0.4504  0.6547  0.3610
  697MOL0     O91875   9.412   4.078   1.084 -0.4463 -0.1909 -0.2323
  697MOL0     C91876   9.286   4.081   1.136 -0.2661  0.3012 -0.2377
  697MOL0     C91877   9.173   4.046   1.060  0.3785  0.2412 -0.2881
  697MOL0     C91878   9.045   4.054   1.125 -0.4384  0.1942  0.3078
  697MOL0     C91879   9.037   4.098   1.256  0.5884  0.0735 -0.0241
  697MOL0     O91880   8.917   4.125   1.315  0.2205 -0.0071 -0.2036
  697MOL0     C91881   8.788   4.101   1.258  0.3110 -0.5338 -0.0384
  697MOL0     C91882   8.695   4.154   1.365 -0.2351 -0.2622  1.0594
  697MOL0     C91883   8.544   4.134   1.336 -0.7692  0.6258 -0.5261
  697MOL0     C91884   8.509   3.985   1.318 -0.9184 -0.0862 -0.3746
  697MOL0     C91885   8.378   3.936   1.270  1.7216 -0.1129  0.2894
  697MOL0     C91886   8.277   3.972   1.386  0.3952 -0.7441  0.3894
  697MOL0     C91887   8.128   3.980   1.344  0.2185 -0.8913  0.4112
  697MOL0     C91888   8.047   3.850   1.342  0.7843  0.6438 -0.3294
  697MOL0     N91889   7.907   3.866   1.403  0.2793 -0.2692  0.4684
  697MOL0     C91890   7.796   3.933   1.349 -0.3521  1.3375 -0.0210
  697MOL0     C91891   7.704   3.925   1.453  0.1576 -0.7401  0.3332
  697MOL0     C91892   7.563   3.970   1.435 -0.5128 -0.8532  0.1168
  697MOL0     C91893   7.560   4.118   1.402  0.1558  0.1632 -0.6949
  697MOL0     C91894   7.417   4.182   1.409 -0.7700 -0.3874  0.3119
  697MOL0     C91895   7.321   4.121   1.301  0.7108 -0.1005 -0.4760
  697MOL0     O91896   7.211   4.214   1.274 -0.2928 -0.2281  0.7209
  697MOL0     C91897   7.120   4.242   1.371  0.5311 -0.2377 -0.1819
  697MOL0     C91898   7.026   4.342   1.342  0.1084  0.3618  0.4410
  697MOL0     C91899   6.910   4.370   1.423  0.1375  0.3043 -0.7658
  697MOL0     C91900   6.894   4.299   1.544 -0.4650  0.1657 -0.0929
  697MOL0     C91901   6.773   4.327   1.622  0.5480 -0.6312 -0.3397
  697MOL0     O91902   6.670   4.383   1.556 -0.9389  0.2278 -0.3188
  697MOL0     C91903   6.538   4.400   1.603  0.4739  0.5116 -0.4553
  697MOL0     C91904   6.454   4.461   1.507  0.5619  0.4744 -0.1873
  697MOL0     C91905   6.313   4.468   1.523  0.2686  0.1932  0.3471
  697MOL0     C91906   6.257   4.394   1.623  0.9058  0.3029 -0.7562
  697MOL0     O91907   6.124   4.371   1.637 -0.1380  0.1885 -0.5084
  697MOL0     C91908   6.035   4.453   1.561 -1.0876  0.4732 -0.5706
  697MOL0     C91909   5.894   4.399   1.596 -0.8268  0.0256  0.2495
  697MOL0     C91910   5.859   4.266   1.515 -0.6268 -0.7049 -0.5816
  697MOL0     C91911   5.972   4.195   1.429  0.8909  0.3738  0.4008
  697MOL0     C91912   5.927   4.056   1.370 -0.0904 -1.0400 -0.5468
  697MOL0     C91913   5.805   4.072   1.282  0.7832  0.7712 -0.4626
  697MOL0     C91914   5.821   4.159   1.157  0.1913  0.2276  0.4945
  697MOL0     C91915   5.689   4.147   1.074  0.5493  0.3345  0.2808
  697MOL0    Cl91916   5.532   4.183   1.168 -0.2865 -0.5116  0.1834
  697MOL0     C91917   6.340   4.338   1.725 -0.0793  0.8848 -0.2234
  697MOL0     C91918   6.479   4.345   1.722 -0.2262  0.5795 -0.1721
  697MOL0     O91919   6.768   4.282   1.735 -0.2607 -0.6660 -0.1950
  697MOL0     C91920   6.996   4.205   1.579 -0.1542  0.8605  0.8879
  697MOL0     C91921   7.105   4.167   1.494  0.6128  1.2148 -0.4017
  697MOL0     N91922   7.755   3.853   1.554 -0.3193  0.6016  0.1193
  697MOL0     N91923   7.879   3.821   1.531  0.2284 -0.3211 -0.8578
  697MOL0     C91924   9.152   4.135   1.326  0.6208 -0.0554  0.3628
  697MOL0     C91925   9.283   4.136   1.268 -0.2206  1.0620 -0.0088
  697MOL0     C91926   9.583   4.186   0.951 -0.0947 -0.5154  0.5883
  697MOL0     C91927   9.622   4.305   0.900  0.9248  0.1152  0.9337
  697MOL0     C91928   9.744   4.314   0.840  0.6770  0.2832  0.2294
  697MOL0     C91929   9.831   4.206   0.828 -0.6795  0.2580  0.1559
  697MOL0     O91930   9.947   4.203   0.752  0.1831  1.1194 -0.1307
  697MOL0     C91931   9.936   4.274   0.629 -0.6582  1.2757  0.0516
  697MOL0     C91932  10.065   4.250   0.548 -0.3359  0.2375  0.0011
  697MOL0     C91933  10.102   4.104   0.528  0.2621 -0.8617  0.2019
  697MOL0     C91934  10.220   4.062   0.610 -0.6516  0.2776 -0.0909
  697MOL0     C91935  10.266   3.927   0.573  0.3774 -0.1350  0.1041
  697MOL0     C91936  10.312   3.823   0.541 -0.7545  0.0956 -0.6675
  697MOL0     C91937   9.785   4.080   0.874 -0.5900  0.1297 -0.5032
  697MOL0     C91938   9.663   4.069   0.943  0.4492 -0.2592 -0.7462
  697MOL0     H91939   9.178   4.016   0.956 -0.8187  2.6257 -1.1014
  697MOL0     H91940   8.961   4.019   1.067  1.9439  0.0244 -3.3579
  697MOL0     H91941   8.759   4.000   1.229  1.1443 -0.4751 -1.1223
  697MOL0     H91942   8.781   4.167   1.171 -1.9308  2.2791  2.0630
  697MOL0     H91943   8.715   4.261   1.366  1.3409 -0.5126 -0.0766
  697MOL0     H91944   8.709   4.105   1.462  0.9223 -2.8181 -0.2793
  697MOL0     H91945   8.509   4.195   1.252  0.3305  1.7236 -0.2232
  697MOL0     H91946   8.480   4.171   1.416 -3.8080  0.2184 -2.6170
  697MOL0     H91947   8.574   3.941   1.243  1.0147 -0.3480  1.3780
  697MOL0     H91948   8.525   3.939   1.416 -3.7947 -3.4140 -1.2469
  697MOL0     H91949   8.377   3.831   1.240 -0.9378 -0.0045 -0.2717
  697MOL0     H91950   8.356   3.993   1.179  3.9091 -4.0913 -3.0787
  697MOL0     H91951   8.314   4.067   1.426 -0.4789  0.0225 -0.5749
  697MOL0     H91952   8.301   3.889   1.453  0.8859 -1.7401 -0.9600
  697MOL0     H91953   8.077   4.039   1.421 -0.6586  0.8899 -1.4493
  697MOL0     H91954   8.117   4.032   1.248  0.7925 -0.0425  0.7923
  697MOL0     H91955   8.097   3.768   1.394  0.4791 -0.0379 -1.0833
  697MOL0     H91956   8.037   3.823   1.236  0.6617 -0.5465 -0.0267
  697MOL0     H91957   7.772   3.968   1.249 -0.5353  0.3801 -0.3220
  697MOL0     H91958   7.501   3.948   1.523 -1.1647 -2.7123 -0.7465
  697MOL0     H91959   7.525   3.915   1.348  1.3421 -0.2031 -1.1606
  697MOL0     H91960   7.612   4.118   1.306 -0.5613 -2.1550 -1.1444
  697MOL0     H91961   7.623   4.179   1.468  2.1089 -0.1495 -2.1883
  697MOL0     H91962   7.373   4.178   1.509  1.0292 -0.6308  1.1213
  697MOL0     H91963   7.429   4.285   1.375 -3.6799 -1.3696 -4.7309
  697MOL0     H91964   7.281   4.027   1.339 -1.2630  0.2237 -1.6354
  697MOL0     H91965   7.377   4.095   1.211  1.7358  0.3073  0.0220
  697MOL0     H91966   7.028   4.387   1.243 -1.6248 -0.4725 -0.0290
  697MOL0     H91967   6.846   4.452   1.391  3.0619  2.5235 -1.4021
  697MOL0     H91968   6.493   4.505   1.415 -2.5939  1.4531 -1.1858
  697MOL0     H91969   6.261   4.519   1.442  0.2517  1.6568  1.2499
  697MOL0     H91970   6.053   4.441   1.454  1.0562 -3.6764  0.0587
  697MOL0     H91971   6.039   4.554   1.604  1.5099  2.0584 -4.0562
  697MOL0     H91972   5.820   4.478   1.581 -4.0630 -2.4664  1.7692
  697MOL0     H91973   5.900   4.370   1.702  1.6219 -1.1615 -0.1387
  697MOL0     H91974   5.775   4.288   1.449  0.2679 -0.6872 -1.7427
  697MOL0     H91975   5.823   4.195   1.590 -1.2001 -0.2395 -0.4115
  697MOL0     H91976   6.002   4.255   1.343  0.8535 -1.7473 -1.1863
  697MOL0     H91977   6.061   4.167   1.486  0.8242 -5.5794 -1.7396
  697MOL0     H91978   5.890   3.993   1.451 -4.1828  0.4571 -0.9992
  697MOL0     H91979   6.012   4.009   1.319  0.3680 -2.6544  1.5668
  697MOL0     H91980   5.721   4.115   1.336  1.5195  3.6720 -1.4296
  697MOL0     H91981   5.772   3.969   1.266  0.3631  0.2263  3.2443
  697MOL0     H91982   5.837   4.266   1.177  0.3414  0.3689 -0.3673
  697MOL0     H91983   5.904   4.131   1.092  1.0664  0.1869  1.5923
  697MOL0     H91984   5.688   4.049   1.025  2.0123  0.1722  0.5175
  697MOL0     H91985   5.700   4.215   0.989  1.5844 -0.0697  0.0806
  697MOL0     H91986   6.314   4.271   1.806  1.1340 -0.6076 -1.0113
  697MOL0     H91987   6.541   4.295   1.796  1.6788  0.2259 -1.9032
  697MOL0     H91988   6.977   4.162   1.677  1.7422  0.3815  1.0963
  697MOL0     H91989   7.168   4.084   1.525 -1.2331  0.3418  1.2254
  697MOL0     H91990   9.132   4.167   1.428  1.4188  0.7101  0.2933
  697MOL0     H91991   9.370   4.161   1.327 -0.5916  3.0346 -0.2146
  697MOL0     H91992   9.567   4.398   0.912 -0.1394 -0.7365  3.2728
  697MOL0     H91993   9.789   4.401   0.791 -0.6813  0.5698 -0.5556
  697MOL0     H91994   9.931   4.382   0.641  0.6468  1.2816  0.7305
  697MOL0     H91995   9.851   4.235   0.573  0.6218 -0.4754 -0.7706
  697MOL0     H91996  10.034   4.303   0.457  0.1120  2.2444  0.9759
  697MOL0     H91997  10.153   4.304   0.584  0.5340 -0.2079 -1.3745
  697MOL0     H91998  10.114   4.088   0.420  1.3004  0.7777  0.0367
  697MOL0     H91999  10.016   4.045   0.558  0.1979 -1.1566 -0.5445
  697MOL0     H92000  10.308   4.128   0.611 -1.3894  1.2905 -0.6145
  697MOL0     H92001  10.183   4.066   0.713 -0.3262 -3.0517  0.2560
  697MOL0     H92002  10.356   3.735   0.498  2.1493  1.7435 -1.3360
  697MOL0     H92003   9.855   3.998   0.867 -0.3804  0.3674 -1.1950
  697MOL0     H92004   9.626   3.975   0.982 -0.1907  0.3362  0.1144
  698MOL0     O92005   1.298   0.134   2.471  0.8332  0.5515  0.5565
  698MOL0     C92006   1.341   0.154   2.584 -0.0317  0.2572 -0.1740
  698MOL0     O92007   1.268   0.203   2.697  0.3491  0.4328 -0.1391
  698MOL0     C92008   1.133   0.178   2.690  0.0383 -0.9932 -0.3485
  698MOL0     C92009   1.078   0.084   2.776  0.0843 -0.4915  0.0673
  698MOL0     C92010   0.942   0.054   2.765 -0.4517  0.1275  0.1398
  698MOL0     C92011   0.854   0.128   2.687  0.5739 -0.0577 -0.5306
  698MOL0     O92012   0.720   0.093   2.682  0.3559  0.7039  0.4881
  698MOL0     C92013   0.634   0.188   2.633  0.6881  0.3098  0.4025
  698MOL0     C92014   0.501   0.127   2.641 -0.0858  0.5560  0.3156
  698MOL0     C92015   0.393   0.212   2.574 -0.2262 -0.7054 -0.5978
  698MOL0     C92016   0.263   0.146   2.593 -0.5061  0.1160 -0.1443
  698MOL0     C92017   0.141   0.231   2.556 -0.6394 -0.1145 -0.2166
  698MOL0     C92018   0.013   0.167   2.605  0.8637  0.0214 -0.2593
  698MOL0     C92019  -0.109   0.194   2.516  0.2722 -0.0550 -0.2625
  698MOL0     C92020  -0.244   0.147   2.588  0.7877  0.4215  0.0946
  698MOL0     N92021  -0.370   0.166   2.512 -0.2693  0.8495  0.3359
  698MOL0     C92022  -0.420   0.070   2.425  0.1957 -0.6858 -0.9516
  698MOL0     C92023  -0.523   0.128   2.366 -0.5159  0.4118 -0.1157
  698MOL0     C92024  -0.614   0.065   2.262 -0.4951 -0.2436  0.3204
  698MOL0     C92025  -0.765   0.088   2.273  0.3633 -0.4848 -0.0713
  698MOL0     C92026  -0.838   0.011   2.162  0.1056 -0.1321 -0.4733
  698MOL0     C92027  -0.989   0.040   2.169 -0.4689 -1.2885  0.2146
  698MOL0     O92028  -1.055  -0.012   2.053  0.9404 -0.0199 -0.2083
  698MOL0     C92029  -1.194  -0.022   2.051 -0.3487  0.2886 -1.1286
  698MOL0     C92030  -1.284   0.016   2.160  0.0235  0.1204  0.1062
  698MOL0     C92031  -1.426  -0.008   2.149  0.1903  0.1925  0.0932
  698MOL0     C92032  -1.480  -0.070   2.039 -0.0840 -0.3607 -0.6462
  698MOL0     C92033  -1.624  -0.082   2.035  0.2569  0.5455 -0.0477
  698MOL0     O92034  -1.695  -0.077   2.149 -0.1105 -0.0326 -0.0549
  698MOL0     C92035  -1.833  -0.087   2.161 -0.8496 -0.1256 -0.6325
  698MOL0     C92036  -1.925  -0.138   2.068  0.2121  0.5621  0.1195
  698MOL0     C92037  -2.066  -0.148   2.085  0.0944  0.6409 -0.1363
  698MOL0     C92038  -2.121  -0.104   2.208 -0.0502 -0.3432 -0.9047
  698MOL0     O92039  -2.262  -0.121   2.237  0.8119  0.3685  0.7102
  698MOL0     C92040  -2.316  -0.105   2.373  0.7215  0.0784  0.3981
  698MOL0     C92041  -2.427  -0.208   2.417 -0.6844 -0.5002  0.8196
  698MOL0     C92042  -2.458  -0.200   2.573 -0.3430  0.4346  0.8439
  698MOL0     C92043  -2.353  -0.269   2.664 -0.7750  0.2877 -0.3568
  698MOL0     C92044  -2.357  -0.208   2.806 -0.3753  0.0512 -0.7074
  698MOL0     C92045  -2.233  -0.271   2.889  0.0792  0.2533 -0.2925
  698MOL0     C92046  -2.244  -0.238   3.034  0.3049  0.6616 -0.1867
  698MOL0     C92047  -2.141  -0.311   3.119 -0.7139  0.2537 -0.3412
  698MOL0    Cl92048  -1.988  -0.256   3.050 -0.3133 -0.6336 -0.0210
  698MOL0     C92049  -2.029  -0.045   2.295 -0.1002 -0.4525 -0.1252
  698MOL0     C92050  -1.890  -0.038   2.276 -0.1057 -0.2731  0.0756
  698MOL0     O92051  -1.670  -0.103   1.922  0.5218 -0.2126  0.2673
  698MOL0     C92052  -1.391  -0.105   1.929  0.5913 -0.3292  0.7976
  698MOL0     C92053  -1.247  -0.082   1.938  0.4963  0.8376  0.8376
  698MOL0     N92054  -0.530   0.261   2.410  0.0058  0.5221  0.3351
  698MOL0     N92055  -0.453   0.276   2.509 -0.1573 -1.2893  0.0772
  698MOL0     C92056   0.906   0.244   2.627 -0.6983  0.1543 -0.2387
  698MOL0     C92057   1.040   0.259   2.618  0.1983  0.4220  0.2866
  698MOL0     C92058   1.479   0.154   2.608  0.1161 -0.6921 -0.0518
  698MOL0     C92059   1.545   0.225   2.709 -0.6639 -0.6923  0.7994
  698MOL0     C92060   1.687   0.217   2.719 -0.0486  0.7950 -1.2666
  698MOL0     C92061   1.764   0.137   2.632 -0.2883  0.0781  0.3720
  698MOL0     O92062   1.900   0.144   2.645  0.6253 -0.2972 -0.1642
  698MOL0     C92063   1.982   0.051   2.572 -0.1067 -0.9740  0.7584
  698MOL0     C92064   2.115   0.030   2.645 -0.4655  0.2128  0.3402
  698MOL0     C92065   2.190  -0.090   2.577 -0.2899  0.2314  0.8403
  698MOL0     C92066   2.348  -0.066   2.561 -0.7906  0.9990  0.4993
  698MOL0     C92067   2.389   0.028   2.453 -0.0353 -0.1740  0.3376
  698MOL0     C92068   2.438   0.087   2.358  0.4246  1.4377 -0.1048
  698MOL0     C92069   1.690   0.065   2.532 -0.3427 -0.4155  0.2027
  698MOL0     C92070   1.560   0.081   2.522 -0.1270  0.0504 -0.1039
  698MOL0     H92071   1.145   0.044   2.852 -1.5748  0.3700  2.0744
  698MOL0     H92072   0.900  -0.023   2.830  3.0281 -1.7979  0.3210
  698MOL0     H92073   0.662   0.215   2.531  1.2526 -2.7123 -0.3298
  698MOL0     H92074   0.631   0.276   2.698 -3.3684  0.6144  0.0392
  698MOL0     H92075   0.476   0.110   2.746  0.8495  1.8135  0.7744
  698MOL0     H92076   0.506   0.031   2.588  0.5271  1.4720 -1.3845
  698MOL0     H92077   0.425   0.211   2.469 -1.3314 -1.2885 -0.9362
  698MOL0     H92078   0.396   0.313   2.616 -1.7703 -1.8084  2.4174
  698MOL0     H92079   0.261   0.058   2.528  1.8568  0.5533 -0.9083
  698MOL0     H92080   0.254   0.109   2.696 -0.0022  0.1519 -0.0856
  698MOL0     H92081   0.140   0.239   2.447 -0.9239 -2.4519 -0.4191
  698MOL0     H92082   0.159   0.334   2.591 -0.0898 -0.0623 -0.6320
  698MOL0     H92083   0.001   0.214   2.703 -1.8841  0.3626 -0.6820
  698MOL0     H92084   0.019   0.060   2.624 -0.6595  0.3206  2.2988
  698MOL0     H92085  -0.121   0.302   2.501 -1.0728 -0.2601 -0.7686
  698MOL0     H92086  -0.101   0.141   2.421 -3.3397 -1.3264 -0.0154
  698MOL0     H92087  -0.253   0.200   2.684 -0.7115 -0.4265  0.4553
  698MOL0     H92088  -0.242   0.039   2.607 -3.7303  0.0372 -0.4897
  698MOL0     H92089  -0.392  -0.033   2.403  1.0321 -0.6713 -0.0344
  698MOL0     H92090  -0.590  -0.041   2.264  2.9253  0.4016 -0.4555
  698MOL0     H92091  -0.583   0.098   2.162 -3.5872  0.2833 -0.5813
  698MOL0     H92092  -0.783   0.194   2.252  0.2712 -0.3881  0.4697
  698MOL0     H92093  -0.803   0.061   2.372  0.3035  2.7890  0.9163
  698MOL0     H92094  -0.811   0.051   2.064 -3.0823 -0.2946 -1.5342
  698MOL0     H92095  -0.804  -0.093   2.164  0.5053 -0.0317 -1.4204
  698MOL0     H92096  -1.015   0.146   2.172 -0.2861 -1.2675  1.8025
  698MOL0     H92097  -1.026  -0.006   2.261  0.4132 -0.6038  0.9281
  698MOL0     H92098  -1.245   0.073   2.244  1.8052  3.7513 -2.9084
  698MOL0     H92099  -1.484   0.033   2.231  0.9424  1.7203 -0.1076
  698MOL0     H92100  -1.889  -0.194   1.982  2.0429  0.2660  1.0271
  698MOL0     H92101  -2.125  -0.201   2.012 -1.7610  0.1295  1.6282
  698MOL0     H92102  -2.360  -0.006   2.382 -0.0312 -0.2095  0.0025
  698MOL0     H92103  -2.233  -0.111   2.444  1.0873 -0.5367 -0.0716
  698MOL0     H92104  -2.392  -0.306   2.382  1.7993  1.0702 -1.3955
  698MOL0     H92105  -2.523  -0.190   2.366 -0.4393  3.1631  1.3887
  698MOL0     H92106  -2.551  -0.247   2.606 -0.1948 -0.6096 -0.1685
  698MOL0     H92107  -2.467  -0.094   2.600 -0.5888 -0.0308  2.6913
  698MOL0     H92108  -2.370  -0.375   2.683  1.0699  0.3663  2.3498
  698MOL0     H92109  -2.251  -0.258   2.627 -0.4030 -0.5977  0.3664
  698MOL0     H92110  -2.455  -0.228   2.852 -0.3953 -0.8578 -1.1291
  698MOL0     H92111  -2.352  -0.099   2.801  5.5708  0.0591 -1.3042
  698MOL0     H92112  -2.141  -0.223   2.853  0.5046  0.2113  0.7165
  698MOL0     H92113  -2.241  -0.378   2.870  4.4789 -0.2647 -0.1348
  698MOL0     H92114  -2.229  -0.131   3.048  2.3860  0.2280  1.5431
  698MOL0     H92115  -2.347  -0.261   3.063  1.3936  2.0570  6.3860
  698MOL0     H92116  -2.155  -0.419   3.104  1.9823 -0.1246 -0.7333
  698MOL0     H92117  -2.140  -0.292   3.226  1.0610  1.9608 -0.6074
  698MOL0     H92118  -2.054  -0.016   2.397  3.9341 -1.6658  1.3823
  698MOL0     H92119  -1.838   0.017   2.354 -0.3611  0.0059  0.0520
  698MOL0     H92120  -1.435  -0.148   1.840  0.3052  3.6942 -1.2555
  698MOL0     H92121  -1.170  -0.115   1.870 -0.6589  1.2842 -0.7408
  698MOL0     H92122   0.846   0.320   2.577 -1.3122  1.4809  2.3302
  698MOL0     H92123   1.085   0.341   2.563 -1.6183  1.9104  0.9211
  698MOL0     H92124   1.487   0.282   2.781  3.2485  0.2576  3.5283
  698MOL0     H92125   1.746   0.266   2.797  3.7045 -1.9338 -2.1300
  698MOL0     H92126   1.987   0.089   2.469  0.0087 -2.0181  0.3631
  698MOL0     H92127   1.925  -0.040   2.552  1.7775 -2.2357  0.9275
  698MOL0     H92128   2.175   0.118   2.622 -0.7712  0.3313 -0.0191
  698MOL0     H92129   2.109   0.030   2.754  1.1373 -0.3542  0.4485
  698MOL0     H92130   2.136  -0.104   2.483 -0.6850  3.3726  0.4943
  698MOL0     H92131   2.164  -0.179   2.633 -0.2266  0.0842  0.6375
  698MOL0     H92132   2.390  -0.029   2.655  1.6501  0.8789 -0.4763
  698MOL0     H92133   2.400  -0.160   2.542 -0.1193  1.4179  0.2393
  698MOL0     H92134   2.463   0.160   2.284 -1.1521  2.2479  0.1072
  698MOL0     H92135   1.753   0.010   2.463 -1.4707  0.6805 -1.7969
  698MOL0     H92136   1.510   0.034   2.439  2.2124  0.7264 -2.0144
  699MOL0     O92137   6.022   9.145  10.284 -0.1859 -0.1051  0.4074
  699MOL0     C92138   6.075   9.168  10.399  0.4922  0.6398  0.7994
  699MOL0     O92139   6.024   9.230  10.507  0.3654 -0.1357 -0.2223
  699MOL0     C92140   5.887   9.237  10.504  0.1403 -0.5383  0.1290
  699MOL0     C92141   5.821   9.132  10.567  0.0606 -1.0957  0.3547
  699MOL0     C92142   5.685   9.110  10.548 -0.0464  1.0595  0.4364
  699MOL0     C92143   5.604   9.202  10.482  0.5474  0.9999  0.6635
  699MOL0     O92144   5.470   9.171  10.467 -0.1581  0.0307 -0.5248
  699MOL0     C92145   5.368   9.278  10.471 -0.6528  0.3334  0.0035
  699MOL0     C92146   5.237   9.206  10.422 -0.0070 -0.3690  0.2244
  699MOL0     C92147   5.253   9.173  10.277  0.7361 -0.0869  0.0128
  699MOL0     C92148   5.131   9.100  10.211  0.9948  0.3915 -0.0165
  699MOL0     C92149   5.154   9.075  10.061  1.2076  1.0005  0.8195
  699MOL0     C92150   5.028   9.017   9.990 -0.3826  0.4482 -0.3334
  699MOL0     C92151   5.006   8.875  10.047  1.4049  0.1364 -0.2769
  699MOL0     C92152   4.928   8.787   9.950 -0.3612  0.6146 -0.3162
  699MOL0     N92153   4.929   8.645   9.985 -0.1888  0.0093  0.1549
  699MOL0     C92154   4.834   8.572  10.052 -0.3699  0.3096  0.1183
  699MOL0     C92155   4.879   8.447  10.038  0.1497 -0.7124 -0.3312
  699MOL0     C92156   4.829   8.329  10.117 -0.8536 -0.4989 -0.1847
  699MOL0     C92157   4.732   8.235  10.047  0.3903  0.2754  0.4382
  699MOL0     C92158   4.794   8.178   9.918  0.0997 -0.0110  0.1058
  699MOL0     C92159   4.711   8.089   9.823  0.1278 -0.1180 -0.7425
  699MOL0     O92160   4.686   7.978   9.910 -0.3014  0.2204 -0.0140
  699MOL0     C92161   4.567   7.918   9.894 -0.2532  0.3953 -0.1486
  699MOL0     C92162   4.475   7.925   9.788  0.7827 -0.4563 -0.0603
  699MOL0     C92163   4.354   7.861   9.790 -0.6617 -0.8200  0.9083
  699MOL0     C92164   4.310   7.790   9.904  0.6959  0.3481  0.3829
  699MOL0     C92165   4.181   7.724   9.915 -0.2490 -0.8176 -0.6673
  699MOL0     O92166   4.179   7.618  10.003 -0.3600 -0.2278 -0.3119
  699MOL0     C92167   4.075   7.526  10.004 -1.2751 -0.3264  0.5203
  699MOL0     C92168   4.102   7.390   9.953 -0.6926  0.1058 -0.8784
  699MOL0     C92169   4.001   7.297   9.960 -0.2220  0.3655  0.0890
  699MOL0     C92170   3.879   7.329  10.024 -0.2862 -0.0435 -0.2729
  699MOL0     O92171   3.790   7.219  10.044  0.0176 -0.0616  0.1909
  699MOL0     C92172   3.691   7.223  10.147  0.2809 -0.9766  0.4320
  699MOL0     C92173   3.651   7.081  10.189 -0.0768 -0.1138 -0.0565
  699MOL0     C92174   3.520   7.080  10.276 -0.0232  0.7556 -0.2743
  699MOL0     C92175   3.496   6.945  10.327 -0.3894 -0.2524  0.4806
  699MOL0     C92176   3.360   6.934  10.391  0.8574 -0.3378 -0.0004
  699MOL0     C92177   3.328   6.801  10.457  0.4781  0.6194  0.1115
  699MOL0     C92178   3.207   6.809  10.548  0.6046  0.9134 -0.2215
  699MOL0     C92179   3.210   6.687  10.646  0.5782 -0.3285  0.0110
  699MOL0    Cl92180   3.076   6.669  10.770 -0.2056 -0.0684 -0.2072
  699MOL0     C92181   3.858   7.456  10.062  0.2497  0.4590 -0.5306
  699MOL0     C92182   3.954   7.560  10.048  1.0614  0.7762 -1.0284
  699MOL0     O92183   4.082   7.775   9.858 -0.6437 -0.9697 -0.1667
  699MOL0     C92184   4.395   7.783  10.016 -0.5726  0.6295  0.5494
  699MOL0     C92185   4.524   7.842  10.007  0.7295 -0.5492 -0.0113
  699MOL0     N92186   4.994   8.447   9.967 -0.5302  0.5682  0.1390
  699MOL0     N92187   5.029   8.566   9.935 -0.3970  0.0100  0.0621
  699MOL0     C92188   5.664   9.320  10.439 -1.2447 -0.2790 -0.2052
  699MOL0     C92189   5.807   9.337  10.440  0.0622 -0.7472  0.3187
  699MOL0     C92190   6.208   9.109  10.417 -0.5136  0.3259 -0.0183
  699MOL0     C92191   6.303   9.089  10.316  0.8418 -0.3964 -0.3233
  699MOL0     C92192   6.434   9.037  10.331  0.4422 -0.2177 -0.5590
  699MOL0     C92193   6.475   9.007  10.454 -0.8823 -0.2247  0.8257
  699MOL0     O92194   6.605   8.963  10.470  0.2687  0.2296 -0.0147
  699MOL0     C92195   6.666   8.945  10.594 -0.1614  0.3480 -1.1552
  699MOL0     C92196   6.792   8.877  10.578 -0.6479  0.0383  0.4524
  699MOL0     C92197   6.869   8.859  10.703 -0.4683  0.0222  0.2050
  699MOL0     C92198   7.000   8.783  10.687  0.3481  0.9595 -0.1855
  699MOL0     C92199   7.064   8.765  10.810 -0.5727 -1.0133  0.0156
  699MOL0     C92200   7.125   8.742  10.909 -0.7655 -0.1275  0.2685
  699MOL0     C92201   6.393   9.035  10.561  0.7226  0.0667  0.0780
  699MOL0     C92202   6.259   9.075  10.544  0.7332 -0.3399 -0.1183
  699MOL0     H92203   5.883   9.060  10.618  0.5106 -0.7454  0.3057
  699MOL0     H92204   5.631   9.023  10.585  0.0717  0.8514  0.1277
  699MOL0     H92205   5.393   9.362  10.405 -0.6471  0.4904  0.2069
  699MOL0     H92206   5.369   9.305  10.577  1.0801 -0.0602  0.1028
  699MOL0     H92207   5.151   9.272  10.429 -1.1259 -1.4405 -2.1492
  699MOL0     H92208   5.219   9.120  10.487 -1.9815  1.3072  2.0302
  699MOL0     H92209   5.343   9.114  10.257  0.7872  0.3534 -1.1915
  699MOL0     H92210   5.266   9.269  10.226  0.9100 -0.3264 -0.4011
  699MOL0     H92211   5.119   9.005  10.264 -0.6383 -0.0496 -1.1147
  699MOL0     H92212   5.037   9.155  10.222  0.1119 -0.6610 -1.7517
  699MOL0     H92213   5.244   9.015  10.048  0.8435  0.8946 -2.0228
  699MOL0     H92214   5.168   9.167  10.003 -1.3473  1.1889  0.3789
  699MOL0     H92215   5.039   9.005   9.881 -3.6636 -0.5135 -0.6776
  699MOL0     H92216   4.945   9.086  10.006  0.1164  1.5978 -2.3500
  699MOL0     H92217   5.104   8.840  10.078 -0.0086 -1.7863  2.4574
  699MOL0     H92218   4.965   8.882  10.148  2.3021  1.5886  0.0185
  699MOL0     H92219   4.978   8.790   9.853  0.3498  0.7306  0.0484
  699MOL0     H92220   4.823   8.813   9.932 -0.0458  0.9645 -1.7775
  699MOL0     H92221   4.744   8.606  10.103 -1.8393 -1.2911 -1.3008
  699MOL0     H92222   4.777   8.381  10.199  0.0598  0.5420 -0.2410
  699MOL0     H92223   4.922   8.286  10.153 -0.5151 -1.1005 -1.7194
  699MOL0     H92224   4.636   8.284  10.026 -1.3438 -2.7714  0.5773
  699MOL0     H92225   4.723   8.152  10.119  0.4144  0.5328  0.7398
  699MOL0     H92226   4.828   8.265   9.861  1.7718 -1.0264 -0.5185
  699MOL0     H92227   4.887   8.130   9.948  2.1883  2.2886 -2.1297
  699MOL0     H92228   4.770   8.061   9.736  0.3833 -0.8646 -0.3336
  699MOL0     H92229   4.622   8.140   9.783  0.2048  0.4391 -0.2349
  699MOL0     H92230   4.513   7.978   9.701  2.3971 -2.6236 -0.7758
  699MOL0     H92231   4.297   7.872   9.699  1.9361 -1.9621 -1.0138
  699MOL0     H92232   4.196   7.376   9.902  1.3416  1.5277  2.2199
  699MOL0     H92233   4.019   7.198   9.920  4.6044  0.2018  1.9704
  699MOL0     H92234   3.601   7.281  10.125 -0.4613 -1.9908  0.7564
  699MOL0     H92235   3.743   7.273  10.230 -3.2164  0.3067  2.0673
  699MOL0     H92236   3.724   7.034  10.255 -1.1140  0.5175  1.6351
  699MOL0     H92237   3.636   7.015  10.103  2.7858  1.4962 -1.9489
  699MOL0     H92238   3.436   7.096  10.208 -0.5521 -0.2500  0.1327
  699MOL0     H92239   3.518   7.153  10.357  1.0155 -1.1510  1.5539
  699MOL0     H92240   3.507   6.873  10.245 -0.3125 -0.0132  0.2788
  699MOL0     H92241   3.568   6.929  10.407 -0.3419  1.9534  0.9451
  699MOL0     H92242   3.285   6.953  10.315  1.0071 -0.5286 -0.1976
  699MOL0     H92243   3.356   7.002  10.477  0.8104  0.8637 -0.9367
  699MOL0     H92244   3.418   6.776  10.513 -1.1390 -1.2675  2.0487
  699MOL0     H92245   3.306   6.722  10.385 -0.2735  0.9449 -0.0243
  699MOL0     H92246   3.200   6.903  10.603 -1.2639  0.8994 -0.3621
  699MOL0     H92247   3.121   6.801  10.480 -0.3269  0.7748  0.9470
  699MOL0     H92248   3.304   6.687  10.702  0.8482 -0.0962 -0.4330
  699MOL0     H92249   3.206   6.598  10.583 -2.6127 -2.3154  2.6868
  699MOL0     H92250   3.770   7.485  10.118  2.6659  3.4544  2.0586
  699MOL0     H92251   3.929   7.654  10.096  0.5906  0.0900  0.1228
  699MOL0     H92252   4.382   7.725  10.107 -1.6249 -0.2628 -0.1542
  699MOL0     H92253   4.601   7.831  10.083  1.1683  2.1496  0.0318
  699MOL0     H92254   5.607   9.394  10.383 -1.3957 -2.1381 -2.6533
  699MOL0     H92255   5.856   9.420  10.391 -0.8585 -0.8295 -0.7810
  699MOL0     H92256   6.267   9.093  10.213 -1.2120 -1.4811  0.3009
  699MOL0     H92257   6.504   9.023  10.249 -1.0781 -0.0145 -1.9364
  699MOL0     H92258   6.597   8.886  10.656  3.3156 -3.0779 -0.1791
  699MOL0     H92259   6.675   9.042  10.644  2.5085  0.2815 -1.4001
  699MOL0     H92260   6.777   8.775  10.542  2.7989  0.2082 -1.9530
  699MOL0     H92261   6.845   8.939  10.505 -2.2633 -0.6060 -1.3541
  699MOL0     H92262   6.818   8.810  10.787  1.9296 -1.0736  1.1092
  699MOL0     H92263   6.891   8.963  10.727  1.0626  0.5946 -3.0487
  699MOL0     H92264   6.970   8.689  10.640 -0.4528  0.4691  1.2493
  699MOL0     H92265   7.057   8.840  10.613 -0.0813  1.5001 -0.1038
  699MOL0     H92266   7.180   8.725  10.999  2.5936  1.8704 -1.2318
  699MOL0     H92267   6.427   9.014  10.662  0.2004  0.9241  0.4422
  699MOL0     H92268   6.203   9.095  10.635  1.3460  1.7826 -0.1583
  700MOL0     O92269   1.946   4.161   2.976 -0.8200  0.4432 -0.4944
  700MOL0     C92270   1.947   4.171   3.098  0.5525  0.5106 -0.0165
  700MOL0     O92271   1.835   4.212   3.175  0.3755 -0.5544 -0.9655
  700MOL0     C92272   1.731   4.252   3.105  0.0457 -0.1558 -0.4100
  700MOL0     C92273   1.655   4.162   3.034  0.9420  0.8812  0.7853
  700MOL0     C92274   1.534   4.190   2.969  0.2850 -0.0334 -0.0937
  700MOL0     C92275   1.496   4.318   2.967  0.3762 -0.2265 -0.1361
  700MOL0     O92276   1.381   4.361   2.909  0.3461  0.5647  0.2101
  700MOL0     C92277   1.282   4.426   2.990  0.0214  0.1587 -0.1437
  700MOL0     C92278   1.138   4.413   2.920  0.4203 -0.0343  0.2542
  700MOL0     C92279   1.028   4.516   2.975 -0.3305  0.6530 -1.0575
  700MOL0     C92280   0.905   4.511   2.894 -0.2940  0.1598  0.3523
  700MOL0     C92281   0.797   4.614   2.932  0.1051  0.2495  0.3630
  700MOL0     C92282   0.674   4.610   2.836 -0.1605 -0.1058  0.3939
  700MOL0     C92283   0.572   4.713   2.888 -0.6065 -0.3835  0.3300
  700MOL0     C92284   0.437   4.692   2.814 -0.0821 -0.7000  0.3173
  700MOL0     N92285   0.335   4.797   2.816  0.0610  0.7766 -0.2690
  700MOL0     C92286   0.357   4.932   2.816 -0.0896  0.2666 -0.1927
  700MOL0     C92287   0.240   4.989   2.850  0.0154 -0.3152  0.9829
  700MOL0     C92288   0.236   5.122   2.897  0.5530 -0.3348 -0.2291
  700MOL0     C92289   0.096   5.177   2.934  0.9540  0.0267  0.2070
  700MOL0     C92290  -0.001   5.202   2.815 -0.4878  0.0828 -0.2173
  700MOL0     C92291  -0.135   5.254   2.863  0.3773 -0.0121  0.1329
  700MOL0     O92292  -0.121   5.393   2.896  0.0288  0.1954  0.3237
  700MOL0     C92293  -0.235   5.474   2.907 -0.2481 -0.5981 -1.0404
  700MOL0     C92294  -0.351   5.422   2.946  0.1025  0.2733 -0.1249
  700MOL0     C92295  -0.471   5.502   2.958 -0.2704  0.2657  0.6144
  700MOL0     C92296  -0.472   5.634   2.924 -0.6342 -1.2872  0.5134
  700MOL0     C92297  -0.598   5.707   2.931 -0.4858  0.0928 -0.6436
  700MOL0     O92298  -0.719   5.638   2.929 -0.0384  0.6898 -0.1556
  700MOL0     C92299  -0.834   5.707   2.965  0.0562 -0.3162 -0.2979
  700MOL0     C92300  -0.926   5.743   2.875 -0.6144 -0.3669  0.1861
  700MOL0     C92301  -1.038   5.815   2.920 -0.4513 -0.1109 -0.6177
  700MOL0     C92302  -1.069   5.836   3.055 -0.5707  0.1533  0.2817
  700MOL0     O92303  -1.186   5.890   3.098  0.6324  0.3698  1.3306
  700MOL0     C92304  -1.274   5.969   3.009 -0.0190  0.2415 -0.2729
  700MOL0     C92305  -1.228   6.112   3.003 -0.7582 -0.9771  0.0782
  700MOL0     C92306  -1.102   6.147   2.920  0.5819  0.4502 -0.0213
  700MOL0     C92307  -1.126   6.137   2.773  0.6891 -1.1218 -0.7199
  700MOL0     C92308  -0.992   6.176   2.702 -0.0659 -0.2905  0.4714
  700MOL0     C92309  -1.004   6.170   2.551 -0.4245  0.4383  0.8070
  700MOL0     C92310  -0.882   6.205   2.467 -0.4487 -0.7491 -0.0631
  700MOL0     C92311  -0.774   6.103   2.490  0.7843 -0.0096  0.9956
  700MOL0    Cl92312  -0.640   6.137   2.363  0.1128 -0.0752 -0.3646
  700MOL0     C92313  -0.965   5.807   3.145  0.0140  0.4256 -0.8866
  700MOL0     C92314  -0.844   5.746   3.103  0.4885 -0.1535  0.3051
  700MOL0     O92315  -0.590   5.830   2.936 -0.3219  0.5573  0.0968
  700MOL0     C92316  -0.350   5.690   2.875  0.3798 -0.0502  0.3382
  700MOL0     C92317  -0.234   5.611   2.872 -0.0416  0.0277 -0.0333
  700MOL0     N92318   0.142   4.890   2.851  0.0076  0.2765 -0.1104
  700MOL0     N92319   0.201   4.776   2.835 -0.0999  0.1311  0.1800
  700MOL0     C92320   1.573   4.419   3.024 -0.2431  0.3140 -0.9575
  700MOL0     C92321   1.684   4.386   3.105 -0.0862  0.2553  0.1735
  700MOL0     C92322   2.074   4.139   3.175  0.9780  0.2087  0.3476
  700MOL0     C92323   2.180   4.084   3.110  0.0345  0.1271  0.4311
  700MOL0     C92324   2.306   4.066   3.167  0.9380 -0.0762  0.0379
  700MOL0     C92325   2.321   4.089   3.305 -0.1919  0.0193  0.8269
  700MOL0     O92326   2.437   4.071   3.378 -0.3764  0.8412  0.1994
  700MOL0     C92327   2.558   4.074   3.317 -0.0535 -0.2234 -0.1122
  700MOL0     C92328   2.681   4.082   3.411  0.3979 -0.8287 -0.2123
  700MOL0     C92329   2.810   4.070   3.331  0.0524 -0.0628 -0.4324
  700MOL0     C92330   2.936   4.056   3.415  0.3869 -0.2457  0.0589
  700MOL0     C92331   3.058   4.039   3.341 -0.0195  0.1547 -0.1726
  700MOL0     C92332   3.169   4.029   3.285 -0.4925  0.6611  1.0190
  700MOL0     C92333   2.206   4.133   3.375  0.1386  0.4765  0.5183
  700MOL0     C92334   2.090   4.163   3.306 -0.4689 -0.8846  0.1568
  700MOL0     H92335   1.689   4.059   3.020 -1.8595  0.0659 -0.9371
  700MOL0     H92336   1.473   4.118   2.914 -0.7866  2.3110 -2.1515
  700MOL0     H92337   1.303   4.533   3.002 -0.8501  0.4635 -1.1252
  700MOL0     H92338   1.273   4.385   3.091  3.7903  3.0629  1.6220
  700MOL0     H92339   1.101   4.311   2.932 -0.6116  0.2773 -0.1616
  700MOL0     H92340   1.151   4.426   2.813 -0.3965 -2.4457 -0.2123
  700MOL0     H92341   1.067   4.617   2.990 -0.7115  0.5838  0.5623
  700MOL0     H92342   0.996   4.489   3.076 -0.6528 -1.3370 -1.6423
  700MOL0     H92343   0.932   4.522   2.789  1.1169  2.4296  0.8770
  700MOL0     H92344   0.854   4.416   2.912 -2.4993  1.3274  0.6412
  700MOL0     H92345   0.840   4.714   2.937 -1.6912  1.1540 -1.1569
  700MOL0     H92346   0.769   4.586   3.034 -0.0788 -3.2259 -0.4855
  700MOL0     H92347   0.626   4.513   2.850 -0.6364  0.1682  0.7057
  700MOL0     H92348   0.710   4.636   2.736 -0.3486 -0.6558  0.1758
  700MOL0     H92349   0.548   4.710   2.995 -1.3100  0.7141  0.2162
  700MOL0     H92350   0.617   4.810   2.867  1.6730 -1.9864 -3.1250
  700MOL0     H92351   0.391   4.603   2.857 -1.5645  0.3391  0.9883
  700MOL0     H92352   0.451   4.668   2.708  3.5250  0.0950  0.4816
  700MOL0     H92353   0.454   4.980   2.819 -0.7958  1.7032  1.7962
  700MOL0     H92354   0.294   5.189   2.833  1.7834  1.4396  2.5236
  700MOL0     H92355   0.290   5.119   2.992  0.6323  0.6173 -0.2367
  700MOL0     H92356   0.102   5.270   2.992  0.7885  1.1772 -1.5418
  700MOL0     H92357   0.051   5.102   2.999  2.4123  0.1121  1.3889
  700MOL0     H92358   0.046   5.270   2.745 -2.3234  1.6255 -0.0175
  700MOL0     H92359  -0.025   5.107   2.766 -1.4283  0.0688  0.2368
  700MOL0     H92360  -0.157   5.194   2.953 -0.4166 -1.6773 -1.1098
  700MOL0     H92361  -0.215   5.252   2.789  1.8472  2.0575 -1.6208
  700MOL0     H92362  -0.359   5.314   2.962 -0.9108  0.1168 -1.5283
  700MOL0     H92363  -0.562   5.456   2.995 -0.3997 -0.4211 -0.5085
  700MOL0     H92364  -0.908   5.717   2.771  1.3259  2.1410 -0.1927
  700MOL0     H92365  -1.112   5.837   2.843 -0.3268  0.8037 -0.4810
  700MOL0     H92366  -1.374   5.975   3.052  0.9596 -0.6756  2.2920
  700MOL0     H92367  -1.285   5.926   2.909  1.4109  0.9732 -0.7753
  700MOL0     H92368  -1.206   6.138   3.107 -0.1615  1.4198 -0.5828
  700MOL0     H92369  -1.313   6.175   2.974  0.7140  0.7484 -0.6810
  700MOL0     H92370  -1.019   6.078   2.939  0.1960 -0.2016 -0.6516
  700MOL0     H92371  -1.081   6.252   2.941 -2.2249  0.8945  0.9151
  700MOL0     H92372  -1.142   6.031   2.752 -1.8367 -0.6493 -1.5904
  700MOL0     H92373  -1.207   6.199   2.731  0.2905 -1.9950 -1.2755
  700MOL0     H92374  -0.915   6.118   2.753 -0.2500 -0.0529  1.0307
  700MOL0     H92375  -0.963   6.276   2.734 -2.6199  1.4038 -2.0269
  700MOL0     H92376  -1.083   6.235   2.512 -0.4768 -0.6374 -1.0416
  700MOL0     H92377  -1.045   6.074   2.516 -0.9555  0.8886  0.1641
  700MOL0     H92378  -0.904   6.209   2.360 -0.2857 -1.1065 -0.1110
  700MOL0     H92379  -0.858   6.306   2.503  1.4553 -0.0999 -2.8582
  700MOL0     H92380  -0.815   6.006   2.462 -1.2065  0.8585  0.7281
  700MOL0     H92381  -0.736   6.090   2.591 -0.7927 -1.9811  1.3784
  700MOL0     H92382  -0.987   5.821   3.250 -1.0955  0.8662 -1.1634
  700MOL0     H92383  -0.765   5.704   3.164  0.6979 -0.2562 -0.0312
  700MOL0     H92384  -0.335   5.795   2.855  0.0598 -0.5046 -2.7952
  700MOL0     H92385  -0.136   5.648   2.841  1.6959 -2.4177  2.0769
  700MOL0     H92386   1.546   4.523   3.037 -0.7456 -0.0798  1.9329
  700MOL0     H92387   1.754   4.448   3.159  3.2986 -2.4977 -0.6705
  700MOL0     H92388   2.172   4.061   3.004 -2.0118  0.4531  0.4828
  700MOL0     H92389   2.388   4.022   3.110 -1.0366 -2.2678 -1.2961
  700MOL0     H92390   2.561   4.164   3.255 -0.5571  0.5506  0.9559
  700MOL0     H92391   2.566   3.988   3.249 -0.0845 -1.0780  0.9428
  700MOL0     H92392   2.680   4.174   3.469  2.1647 -0.3084 -0.9381
  700MOL0     H92393   2.671   4.013   3.495  0.9039  1.7316  2.0752
  700MOL0     H92394   2.809   4.165   3.277 -0.4517 -0.9902 -2.1504
  700MOL0     H92395   2.797   3.983   3.265  1.1348 -2.3654  2.1962
  700MOL0     H92396   2.934   4.140   3.485 -1.4015  0.2232 -0.4929
  700MOL0     H92397   2.929   3.964   3.473 -1.5057 -0.9901 -1.2287
  700MOL0     H92398   3.266   4.039   3.242 -1.5811  1.8580 -1.3162
  700MOL0     H92399   2.214   4.153   3.482 -1.2864 -0.0335  0.7539
  700MOL0     H92400   2.009   4.213   3.358  1.9100 -0.1085  3.4247
  701MOL0     O92401   3.149   0.055   7.347 -0.3471 -0.2632 -0.6478
  701MOL0     C92402   3.132  -0.003   7.240 -0.2673  0.2662  0.6746
  701MOL0     O92403   3.017  -0.010   7.169  0.4411 -0.6982 -0.2515
  701MOL0     C92404   2.932   0.097   7.160  0.3031  0.4530 -0.0872
  701MOL0     C92405   2.809   0.080   7.080 -0.4363 -0.0301 -0.1507
  701MOL0     C92406   2.714   0.178   7.087 -0.2892 -0.4478  0.5152
  701MOL0     C92407   2.733   0.300   7.142  0.4118 -1.1272 -0.9124
  701MOL0     O92408   2.648   0.406   7.158  0.4059  0.1632 -1.0739
  701MOL0     C92409   2.515   0.402   7.101  0.0265 -0.5723  0.2249
  701MOL0     C92410   2.440   0.518   7.131 -0.6175 -0.3510  0.0111
  701MOL0     C92411   2.297   0.506   7.073 -1.0462 -0.3589 -1.0274
  701MOL0     C92412   2.220   0.624   7.138 -0.3266 -0.9072  0.4397
  701MOL0     C92413   2.074   0.654   7.088 -0.1111 -0.0715  0.2096
  701MOL0     C92414   1.994   0.772   7.161 -0.1332  0.0778  0.0926
  701MOL0     C92415   1.848   0.774   7.109 -0.5793  0.1690  0.2645
  701MOL0     C92416   1.756   0.832   7.215  0.1208  0.2792 -0.5445
  701MOL0     N92417   1.681   0.937   7.142 -0.9925 -0.1069 -0.9592
  701MOL0     C92418   1.563   0.916   7.076 -0.0169  0.0120  0.4614
  701MOL0     C92419   1.539   1.031   7.009  0.0130  0.2862  0.0598
  701MOL0     C92420   1.403   1.068   6.956 -0.3803  0.2196  0.3288
  701MOL0     C92421   1.344   1.201   7.017  0.1105  0.3137 -0.0294
  701MOL0     C92422   1.307   1.179   7.160 -0.3083  0.0307 -0.2826
  701MOL0     C92423   1.182   1.095   7.184 -0.0872 -0.1063 -1.2607
  701MOL0     O92424   1.055   1.154   7.147 -0.4371 -0.1888 -0.1294
  701MOL0     C92425   0.940   1.079   7.169 -0.6755 -0.8790 -0.7656
  701MOL0     C92426   0.821   1.125   7.125  0.1767  0.7143 -0.2136
  701MOL0     C92427   0.695   1.051   7.141  0.4113  0.2410 -0.1224
  701MOL0     C92428   0.694   0.926   7.209 -0.3838 -0.1428  0.0564
  701MOL0     C92429   0.575   0.842   7.227  0.3419  0.8773  0.4852
  701MOL0     O92430   0.454   0.891   7.221  0.3575 -0.2979 -0.0618
  701MOL0     C92431   0.339   0.808   7.229 -0.6895  0.1991 -0.1808
  701MOL0     C92432   0.254   0.826   7.342 -0.1126 -0.7882  0.2060
  701MOL0     C92433   0.143   0.743   7.360  0.4258  1.1842  0.0411
  701MOL0     C92434   0.114   0.637   7.266 -0.7908 -1.1681 -0.3246
  701MOL0     O92435   0.006   0.557   7.279  0.1369 -0.3244  0.2984
  701MOL0     C92436  -0.058   0.503   7.167  0.3538 -0.3826 -0.3700
  701MOL0     C92437  -0.195   0.438   7.206 -0.0799  0.3439 -0.9128
  701MOL0     C92438  -0.294   0.522   7.285 -0.6632 -0.4178  1.0518
  701MOL0     C92439  -0.311   0.676   7.233 -0.7061 -0.1140  0.1725
  701MOL0     C92440  -0.347   0.711   7.095  0.1842 -0.6113  0.2401
  701MOL0     C92441  -0.486   0.652   7.053  0.8279 -0.2034 -0.2410
  701MOL0     C92442  -0.608   0.704   7.139 -0.1550  0.5567  0.0002
  701MOL0     C92443  -0.738   0.646   7.073 -0.5343  0.5001 -1.6458
  701MOL0    Cl92444  -0.890   0.731   7.116  0.4534  0.0127 -0.0241
  701MOL0     C92445   0.215   0.621   7.165  0.5350  0.4445 -0.0075
  701MOL0     C92446   0.320   0.700   7.134  0.0546 -0.4520 -0.0499
  701MOL0     O92447   0.603   0.729   7.266  0.3194  0.2938 -0.4539
  701MOL0     C92448   0.821   0.887   7.259 -0.4876 -0.7960  0.1694
  701MOL0     C92449   0.936   0.949   7.230  0.1179 -1.3494  0.2367
  701MOL0     N92450   1.636   1.120   7.044  0.1592 -0.6262 -0.2087
  701MOL0     N92451   1.724   1.068   7.125 -0.2857  0.5961 -0.1817
  701MOL0     C92452   2.848   0.312   7.217  0.2077 -0.0555  0.3292
  701MOL0     C92453   2.947   0.214   7.226  0.7936  0.3213 -0.4716
  701MOL0     C92454   3.234  -0.101   7.209 -0.5257  1.0491 -0.8011
  701MOL0     C92455   3.203  -0.236   7.191  0.0487 -0.9709 -0.1582
  701MOL0     C92456   3.306  -0.334   7.166  0.3036 -0.0199  0.4553
  701MOL0     C92457   3.437  -0.295   7.168 -0.1385  0.8677  0.4083
  701MOL0     O92458   3.525  -0.402   7.150 -0.4785 -0.3231 -0.2805
  701MOL0     C92459   3.660  -0.375   7.178  0.5274 -0.2043  0.3952
  701MOL0     C92460   3.727  -0.512   7.180  0.4333  0.8067  0.4556
  701MOL0     C92461   3.697  -0.608   7.293  0.6876 -0.1254  1.1451
  701MOL0     C92462   3.764  -0.741   7.288 -0.3201  0.0902 -0.5974
  701MOL0     C92463   3.743  -0.808   7.419 -0.7387  0.4880 -0.6319
  701MOL0     C92464   3.725  -0.863   7.531  0.4978  0.1370 -0.0076
  701MOL0     C92465   3.469  -0.168   7.203 -0.2997  0.1119 -0.2826
  701MOL0     C92466   3.371  -0.075   7.227 -0.6620 -0.3284 -0.2817
  701MOL0     H92467   2.802  -0.014   7.025  2.3248  0.8246 -2.1980
  701MOL0     H92468   2.614   0.159   7.049 -1.1092  1.4339  1.5678
  701MOL0     H92469   2.456   0.314   7.126 -0.7396  0.4458  2.2775
  701MOL0     H92470   2.538   0.417   6.995  2.9704  2.8180  1.1282
  701MOL0     H92471   2.485   0.614   7.106 -1.5832  1.7014  4.9819
  701MOL0     H92472   2.422   0.525   7.239 -2.3603  1.5261 -0.3307
  701MOL0     H92473   2.244   0.413   7.099 -1.2894 -0.4682 -1.8634
  701MOL0     H92474   2.307   0.514   6.965  0.7312 -2.8559 -1.1303
  701MOL0     H92475   2.207   0.603   7.245  1.7542  0.9671  1.1364
  701MOL0     H92476   2.274   0.719   7.139  0.4207 -1.3197  0.4412
  701MOL0     H92477   2.008   0.566   7.085 -0.2231  0.0422 -1.4018
  701MOL0     H92478   2.096   0.694   6.989 -0.7842  1.7200  0.7401
  701MOL0     H92479   2.047   0.866   7.139  2.0027 -0.7421  1.4114
  701MOL0     H92480   2.004   0.771   7.270  1.6695  3.3263  0.0906
  701MOL0     H92481   1.839   0.822   7.011  1.2291  1.0618  0.4929
  701MOL0     H92482   1.806   0.676   7.083 -0.9038  0.8318 -1.8921
  701MOL0     H92483   1.818   0.882   7.290 -0.2433  1.4083 -0.9767
  701MOL0     H92484   1.690   0.759   7.264  0.7518  0.4219  0.5464
  701MOL0     H92485   1.505   0.826   7.059  2.0671 -1.0135 -1.8525
  701MOL0     H92486   1.334   0.983   6.969  0.3767 -0.1422  2.3398
  701MOL0     H92487   1.413   1.081   6.848  3.7216  0.9431  0.6216
  701MOL0     H92488   1.255   1.217   6.956  0.0660 -2.7886 -0.9723
  701MOL0     H92489   1.411   1.287   7.015  0.3895  0.1182 -2.9871
  701MOL0     H92490   1.394   1.136   7.211 -0.4946  1.3162  1.1913
  701MOL0     H92491   1.292   1.272   7.215 -1.2251  0.0060 -0.4634
  701MOL0     H92492   1.188   1.055   7.286 -0.3643 -0.8223 -1.5183
  701MOL0     H92493   1.192   0.994   7.145  1.1243 -0.7039  0.4414
  701MOL0     H92494   0.816   1.224   7.083  1.1992  1.4187  1.2593
  701MOL0     H92495   0.607   1.099   7.101 -0.5878 -0.6635  0.9150
  701MOL0     H92496   0.288   0.904   7.409  0.8812 -0.9957 -0.0382
  701MOL0     H92497   0.067   0.740   7.437 -0.4008 -3.0201 -0.6742
  701MOL0     H92498   0.003   0.419   7.133  0.3340  0.1578 -1.7937
  701MOL0     H92499  -0.077   0.578   7.090 -2.8808 -1.4275 -0.7310
  701MOL0     H92500  -0.187   0.348   7.267  0.4598 -0.0161 -1.5072
  701MOL0     H92501  -0.233   0.408   7.108 -0.0292 -1.2733 -0.4605
  701MOL0     H92502  -0.262   0.538   7.388  0.4199  2.3274  0.3856
  701MOL0     H92503  -0.388   0.467   7.295 -1.7600  0.6368 -2.1761
  701MOL0     H92504  -0.382   0.723   7.302  0.7088 -0.1548  1.7150
  701MOL0     H92505  -0.218   0.733   7.245  0.7732 -1.6829 -2.7017
  701MOL0     H92506  -0.288   0.674   7.010 -0.7581 -0.0714 -0.6646
  701MOL0     H92507  -0.347   0.820   7.091  0.2760 -0.5360  1.7603
  701MOL0     H92508  -0.478   0.545   7.069  0.4201 -0.2447 -0.2963
  701MOL0     H92509  -0.498   0.655   6.945  0.2989 -1.3959 -0.2314
  701MOL0     H92510  -0.592   0.668   7.241  1.6678  2.1222  0.3273
  701MOL0     H92511  -0.597   0.812   7.135  1.9605  0.3762 -0.6551
  701MOL0     H92512  -0.749   0.541   7.100  1.9144  1.0382  2.2401
  701MOL0     H92513  -0.726   0.663   6.966  1.1351  4.2899 -1.0437
  701MOL0     H92514   0.204   0.536   7.098 -0.2052  0.6160 -0.1095
  701MOL0     H92515   0.374   0.673   7.043  1.5449 -0.4053  0.7870
  701MOL0     H92516   0.829   0.798   7.321  1.1655 -0.0581  1.0766
  701MOL0     H92517   1.024   0.895   7.264 -0.8704 -2.3723  1.2642
  701MOL0     H92518   2.854   0.404   7.274  2.1033  1.1064 -1.5990
  701MOL0     H92519   3.029   0.249   7.287  0.9637  4.1314 -2.5483
  701MOL0     H92520   3.098  -0.260   7.202 -0.3837  0.3255 -1.0959
  701MOL0     H92521   3.297  -0.441   7.146  1.0631 -0.2863  1.4827
  701MOL0     H92522   3.682  -0.327   7.273  0.7866 -0.0241  0.2466
  701MOL0     H92523   3.689  -0.299   7.105  0.9649  0.5701  1.3589
  701MOL0     H92524   3.712  -0.560   7.083 -0.7172  2.9986 -0.5300
  701MOL0     H92525   3.832  -0.483   7.197  0.6353 -1.5265  4.6152
  701MOL0     H92526   3.591  -0.634   7.286  1.2282 -2.0680 -0.5502
  701MOL0     H92527   3.715  -0.554   7.387 -1.6854 -0.2585  1.7555
  701MOL0     H92528   3.722  -0.784   7.196 -1.2288  1.3628 -0.8045
  701MOL0     H92529   3.872  -0.733   7.273 -0.0656 -0.8032  0.5907
  701MOL0     H92530   3.708  -0.903   7.629 -0.4770  0.0773 -0.1922
  701MOL0     H92531   3.569  -0.129   7.219 -1.4482  2.7619  1.3470
  701MOL0     H92532   3.400   0.026   7.256 -0.7006  0.7923 -3.6905
  702MOL0     O92533   9.492  10.000   4.765 -0.6569  0.9397 -0.7441
  702MOL0     C92534   9.570  10.082   4.711 -0.3949 -0.6711  0.1302
  702MOL0     O92535   9.573  10.114   4.579 -0.4273 -0.1510 -0.1096
  702MOL0     C92536   9.465  10.076   4.505 -0.1992  0.5441 -0.2406
  702MOL0     C92537   9.342  10.151   4.519 -0.8476  0.1816 -0.2401
  702MOL0     C92538   9.234  10.108   4.437 -0.2118 -0.4865 -0.1252
  702MOL0     C92539   9.252  10.022   4.332 -0.3320  0.4492  0.2432
  702MOL0     O92540   9.143   9.988   4.250 -0.6750 -0.3753  0.0765
  702MOL0     C92541   9.173   9.914   4.137  0.4814  0.1267 -0.5630
  702MOL0     C92542   9.040   9.919   4.054 -0.1469  0.0710 -0.4415
  702MOL0     C92543   8.992  10.067   4.025  0.1882 -0.0167 -0.5548
  702MOL0     C92544   8.856  10.072   3.960 -0.0919  0.2617 -0.3353
  702MOL0     C92545   8.810  10.225   3.946 -0.0760 -0.2728  0.0442
  702MOL0     C92546   8.891  10.299   3.842 -0.8590 -0.2497  0.3068
  702MOL0     C92547   8.825  10.433   3.814 -0.2291 -0.6770 -0.2892
  702MOL0     C92548   8.908  10.553   3.778 -0.3883 -0.1160 -0.8258
  702MOL0     N92549   8.989  10.524   3.663  0.1928 -0.2620 -1.0157
  702MOL0     C92550   8.939  10.500   3.535  0.3570 -0.1499  0.4257
  702MOL0     C92551   9.040  10.525   3.446 -0.5992 -0.2728  0.8167
  702MOL0     C92552   9.023  10.523   3.301 -0.4181 -0.2075  0.3878
  702MOL0     C92553   9.000  10.380   3.246 -0.4084 -0.0016  0.2613
  702MOL0     C92554   9.031  10.371   3.092  0.1365  0.1190  0.0822
  702MOL0     C92555   8.903  10.383   3.002  0.6346 -0.2632  0.7920
  702MOL0     O92556   8.853  10.518   3.015 -0.4581  0.8521  0.0704
  702MOL0     C92557   8.746  10.560   2.933 -0.5038 -0.0975 -0.5217
  702MOL0     C92558   8.678  10.481   2.841 -0.5083  0.0148  0.0737
  702MOL0     C92559   8.580  10.547   2.762  0.6489  0.4427 -0.3264
  702MOL0     C92560   8.534  10.679   2.788  0.5047 -0.0195  0.0107
  702MOL0     C92561   8.418  10.746   2.707 -0.0769 -0.0749 -1.2084
  702MOL0     O92562   8.367  10.670   2.604  0.3700  0.0873  0.4107
  702MOL0     C92563   8.276  10.724   2.519 -1.0685 -0.0951  0.7105
  702MOL0     C92564   8.318  10.753   2.389 -0.1045  0.3965  0.3838
  702MOL0     C92565   8.234  10.790   2.286 -0.2103  0.7083  0.5571
  702MOL0     C92566   8.093  10.806   2.322 -0.8804  0.0598  0.8516
  702MOL0     O92567   8.007  10.835   2.227  0.1761 -0.7109 -0.1623
  702MOL0     C92568   7.864  10.849   2.253 -0.3324  0.3697 -0.9392
  702MOL0     C92569   7.815  10.934   2.144  0.1328  0.0936  0.0224
  702MOL0     C92570   7.688  11.011   2.190 -0.4321  0.3678  0.2478
  702MOL0     C92571   7.621  11.077   2.070 -0.4946  0.0696 -0.6929
  702MOL0     C92572   7.485  11.135   2.107 -0.3335  0.0443 -0.4888
  702MOL0     C92573   7.438  11.239   2.000  0.0924  0.0975 -0.4359
  702MOL0     C92574   7.293  11.268   2.017 -0.1622 -0.3611  0.0582
  702MOL0     C92575   7.239  11.392   1.954  0.1932  0.7676  0.1888
  702MOL0    Cl92576   7.061  11.413   1.984 -0.0052 -0.0467 -0.6386
  702MOL0     C92577   8.048  10.795   2.456  0.6206 -0.7497  0.1061
  702MOL0     C92578   8.144  10.751   2.555 -0.0876 -0.5186  0.0678
  702MOL0     O92579   8.388  10.864   2.732  0.2656  0.1251  0.6593
  702MOL0     C92580   8.600  10.749   2.886 -0.3416 -0.1424  0.5614
  702MOL0     C92581   8.707  10.688   2.959  0.4457  0.0111 -0.9341
  702MOL0     N92582   9.146  10.562   3.516 -0.1291 -0.0815 -1.5102
  702MOL0     N92583   9.114  10.566   3.646  0.6749 -0.1998 -0.1663
  702MOL0     C92584   9.374   9.960   4.319  0.7839 -0.1813 -0.0076
  702MOL0     C92585   9.478   9.989   4.398 -0.1192 -0.3295 -0.8781
  702MOL0     C92586   9.696  10.135   4.776  0.0177 -0.8376 -0.4652
  702MOL0     C92587   9.724  10.071   4.900 -0.4410 -0.7067  0.0550
  702MOL0     C92588   9.848  10.107   4.971 -0.1688 -0.4046  0.2370
  702MOL0     C92589   9.935  10.199   4.915  0.8624 -0.0017  1.6185
  702MOL0     O92590  10.058  10.208   4.985  0.0660 -0.0741  0.1487
  702MOL0     C92591  10.164  10.297   4.942  0.4073 -0.6391  0.2852
  702MOL0     C92592  10.296  10.257   5.000  0.1817  0.2687 -0.4516
  702MOL0     C92593  10.320  10.269   5.155  0.0925 -0.2361  0.5569
  702MOL0     C92594  10.465  10.234   5.191  0.2547 -0.1796 -1.1629
  702MOL0     C92595  10.543  10.151   5.102 -0.4879  0.3506  0.2324
  702MOL0     C92596  10.617  10.096   5.019 -0.1770 -0.5248  0.1760
  702MOL0     C92597   9.906  10.265   4.792 -0.2321  0.5288  0.5582
  702MOL0     C92598   9.790  10.231   4.728  0.3506  0.0588 -0.2281
  702MOL0     H92599   9.330  10.219   4.603  0.4250 -1.7899  1.6393
  702MOL0     H92600   9.137  10.150   4.461  0.2826 -0.6900  2.4701
  702MOL0     H92601   9.175   9.806   4.149  0.1221  0.1548 -0.2446
  702MOL0     H92602   9.265   9.940   4.084  0.9182  1.3720  0.7485
  702MOL0     H92603   8.958   9.886   4.118 -0.8596  0.2283 -1.2575
  702MOL0     H92604   9.047   9.845   3.974 -0.0527 -0.1708 -0.2139
  702MOL0     H92605   9.064  10.115   3.958 -0.9607 -0.5182 -2.2099
  702MOL0     H92606   8.985  10.126   4.117 -2.0545  1.3375 -1.5232
  702MOL0     H92607   8.850  10.017   3.866 -2.1133  2.6025 -1.7077
  702MOL0     H92608   8.781  10.025   4.024 -1.9897 -0.2819 -2.7913
  702MOL0     H92609   8.812  10.282   4.039 -1.0565 -0.6461  0.2983
  702MOL0     H92610   8.707  10.238   3.912  0.2622 -1.0919 -1.4114
  702MOL0     H92611   8.899  10.245   3.747  0.8336  0.6974 -0.1264
  702MOL0     H92612   8.992  10.321   3.878  0.5351 -2.7933 -1.7718
  702MOL0     H92613   8.753  10.410   3.735 -0.0150  2.5106 -1.5643
  702MOL0     H92614   8.771  10.464   3.904  0.3301  0.0300 -0.1881
  702MOL0     H92615   8.978  10.569   3.860 -0.0343 -1.3821 -0.8489
  702MOL0     H92616   8.843  10.639   3.763 -0.8917  0.1441  2.1743
  702MOL0     H92617   8.835  10.480   3.510  0.6226  1.3711 -2.3340
  702MOL0     H92618   9.118  10.564   3.267 -0.2111  0.0456  1.2404
  702MOL0     H92619   8.940  10.592   3.278 -0.3733 -0.3364 -0.1829
  702MOL0     H92620   8.894  10.353   3.249 -0.1353 -1.8724 -2.7137
  702MOL0     H92621   9.057  10.313   3.311  0.9494 -0.1945 -1.0780
  702MOL0     H92622   9.100  10.450   3.062  0.8562  1.0639  3.6808
  702MOL0     H92623   9.083  10.274   3.085  3.1151  1.4160  2.0559
  702MOL0     H92624   8.826  10.307   3.020  0.8782 -0.9380 -0.8412
  702MOL0     H92625   8.916  10.371   2.894 -2.2713  1.4830  0.1422
  702MOL0     H92626   8.708  10.378   2.823 -1.3521 -0.0178 -1.3423
  702MOL0     H92627   8.526  10.484   2.692  0.2974 -0.7355  0.9540
  702MOL0     H92628   8.421  10.735   2.359  0.9697  2.6390  2.3821
  702MOL0     H92629   8.269  10.806   2.184  2.2983 -2.0390  0.8551
  702MOL0     H92630   7.855  10.907   2.345  1.6037 -1.7825  0.7284
  702MOL0     H92631   7.825  10.748   2.273 -2.4393  1.3816  0.4513
  702MOL0     H92632   7.805  10.868   2.058  1.5140 -0.9322  0.6279
  702MOL0     H92633   7.881  11.016   2.115 -1.7337  3.0505  3.3283
  702MOL0     H92634   7.718  11.087   2.263 -0.4290 -1.8736  2.7505
  702MOL0     H92635   7.629  10.933   2.239  1.0358 -0.6413  0.4902
  702MOL0     H92636   7.682  11.161   2.034  1.5719 -2.5884 -3.9504
  702MOL0     H92637   7.600  11.004   1.992 -0.0333  0.0110 -0.7649
  702MOL0     H92638   7.497  11.184   2.204 -0.8644  1.7145 -1.2275
  702MOL0     H92639   7.421  11.047   2.122  0.3663 -0.1458  1.7673
  702MOL0     H92640   7.456  11.204   1.898  1.2369  2.8150 -1.2494
  702MOL0     H92641   7.501  11.328   1.996 -1.0289  0.9291 -0.0401
  702MOL0     H92642   7.233  11.181   1.987 -1.0015  0.1322  0.2671
  702MOL0     H92643   7.261  11.286   2.120 -0.3978 -0.9961  0.0993
  702MOL0     H92644   7.267  11.385   1.849  1.3092 -0.5927  0.5393
  702MOL0     H92645   7.283  11.485   1.989 -0.5610  2.1954 -2.3787
  702MOL0     H92646   7.947  10.817   2.489  0.8624  0.6174 -0.0343
  702MOL0     H92647   8.112  10.736   2.658  0.5676  2.2929  0.7776
  702MOL0     H92648   8.566  10.849   2.913  1.1023  0.0619  1.7113
  702MOL0     H92649   8.734  10.738   3.052 -2.2228  1.2657 -0.7555
  702MOL0     H92650   9.396   9.873   4.258 -1.8690  0.5754 -2.2400
  702MOL0     H92651   9.573   9.946   4.367 -0.3891  0.9082 -3.7808
  702MOL0     H92652   9.654  10.008   4.954 -1.6045  0.9578  0.5887
  702MOL0     H92653   9.882  10.050   5.057  1.0119 -1.5880 -0.9569
  702MOL0     H92654  10.133  10.397   4.972  0.3403 -0.7384  0.5476
  702MOL0     H92655  10.172  10.301   4.833 -1.9836 -1.0719  0.0480
  702MOL0     H92656  10.298  10.149   4.981  0.3677 -0.3877  2.7556
  702MOL0     H92657  10.378  10.304   4.946  0.3496 -1.0357 -1.3965
  702MOL0     H92658  10.248  10.203   5.205 -2.8684 -1.1089 -4.1852
  702MOL0     H92659  10.305  10.373   5.187 -2.8283 -1.1432  2.6222
  702MOL0     H92660  10.521  10.327   5.200 -0.8033  0.3153  1.0584
  702MOL0     H92661  10.464  10.192   5.293 -0.0595  2.4464 -0.0054
  702MOL0     H92662  10.683  10.040   4.956  0.8446 -0.5842  1.2576
  702MOL0     H92663   9.975  10.320   4.729 -0.0860 -0.5081 -0.1957
  702MOL0     H92664   9.780  10.269   4.627  0.6048  1.2018  0.1651
  703MOL0     O92665   3.033   8.341   7.089 -0.3862  0.4534  1.1886
  703MOL0     C92666   3.045   8.308   7.203 -0.3568 -0.5128 -0.3653
  703MOL0     O92667   2.947   8.239   7.272  0.1589  0.0301 -0.2581
  703MOL0     C92668   2.831   8.212   7.205  0.4341 -0.8603  0.3600
  703MOL0     C92669   2.708   8.280   7.236  0.6199  0.1992  0.3736
  703MOL0     C92670   2.589   8.233   7.178 -0.2547  0.4516 -0.2714
  703MOL0     C92671   2.585   8.143   7.074  0.3820  0.1558 -0.1297
  703MOL0     O92672   2.476   8.120   6.992 -0.6062 -0.5862 -0.3511
  703MOL0     C92673   2.350   8.197   7.006 -0.2291  0.7317 -0.4781
  703MOL0     C92674   2.251   8.171   6.902  0.3306 -0.0026  1.0838
  703MOL0     C92675   2.112   8.245   6.916 -0.1658 -0.6293 -0.1819
  703MOL0     C92676   2.022   8.237   6.793 -0.7527  0.5816 -0.3371
  703MOL0     C92677   1.879   8.289   6.810  0.5020  0.8635 -0.0957
  703MOL0     C92678   1.798   8.205   6.921 -0.0064 -0.1968 -0.1979
  703MOL0     C92679   1.652   8.247   6.909  0.1767 -0.4413 -0.0791
  703MOL0     C92680   1.587   8.181   6.788 -0.1555  0.3143  0.0592
  703MOL0     N92681   1.439   8.168   6.825 -0.5565  0.2980 -0.1355
  703MOL0     C92682   1.385   8.061   6.894  1.2171 -0.3719  0.4984
  703MOL0     C92683   1.255   8.099   6.932 -0.3430 -0.1555  0.7192
  703MOL0     C92684   1.171   8.019   7.032  0.0200 -0.3969 -0.2455
  703MOL0     C92685   1.193   8.052   7.181 -0.3584  0.6179  0.1873
  703MOL0     C92686   1.096   7.976   7.277  0.2822  0.3574 -0.0414
  703MOL0     C92687   0.958   8.037   7.270  0.4756  0.1257 -0.2083
  703MOL0     O92688   0.870   7.963   7.364  0.8109 -0.3880 -0.3743
  703MOL0     C92689   0.742   8.007   7.379  0.2081  0.0517  0.0734
  703MOL0     C92690   0.690   8.126   7.318 -0.1747 -0.3855 -0.9717
  703MOL0     C92691   0.563   8.172   7.348  0.1262 -0.6747  0.5913
  703MOL0     C92692   0.484   8.113   7.446  0.3865 -0.4910 -0.1319
  703MOL0     C92693   0.347   8.168   7.482 -0.7325  0.4823 -0.6950
  703MOL0     O92694   0.303   8.268   7.410 -0.7282  0.2595  0.2271
  703MOL0     C92695   0.170   8.290   7.409 -0.5157 -0.9407 -0.2605
  703MOL0     C92696   0.095   8.195   7.355 -0.3362  0.4715  1.0632
  703MOL0     C92697  -0.043   8.201   7.355  0.5057  0.2502  0.1325
  703MOL0     C92698  -0.109   8.310   7.403 -0.4318  0.4243  0.0005
  703MOL0     O92699  -0.241   8.309   7.410 -0.4576  0.2185  0.0352
  703MOL0     C92700  -0.299   8.375   7.519  0.1802 -0.2468  0.0992
  703MOL0     C92701  -0.445   8.338   7.530 -0.0867 -0.8891  0.1696
  703MOL0     C92702  -0.507   8.413   7.644 -0.9097  0.3328  0.5899
  703MOL0     C92703  -0.650   8.365   7.669 -0.1187  0.2449  0.3505
  703MOL0     C92704  -0.705   8.440   7.797  0.0801 -0.3553  0.0400
  703MOL0     C92705  -0.839   8.382   7.843 -0.1430 -0.4060  0.0042
  703MOL0     C92706  -0.951   8.413   7.745  0.1167  0.0046 -0.3321
  703MOL0     C92707  -1.082   8.374   7.796  0.1012 -1.0808  0.0980
  703MOL0    Cl92708  -1.152   8.481   7.913 -0.4649 -0.0027  0.2876
  703MOL0     C92709  -0.034   8.419   7.443  0.3040  0.2901 -0.2230
  703MOL0     C92710   0.103   8.411   7.442 -0.8412  0.4989  0.5170
  703MOL0     O92711   0.287   8.117   7.583 -0.6360 -1.1711  0.3912
  703MOL0     C92712   0.533   8.003   7.515  1.1013  0.1106 -0.5577
  703MOL0     C92713   0.662   7.947   7.480 -0.9225 -0.1197 -0.3676
  703MOL0     N92714   1.237   8.217   6.873 -0.0520 -0.4060  0.4494
  703MOL0     N92715   1.348   8.263   6.820 -0.2562 -0.9072 -0.6333
  703MOL0     C92716   2.696   8.074   7.047  0.3042 -0.3048 -0.1955
  703MOL0     C92717   2.814   8.102   7.120  0.2559  0.1465  0.1925
  703MOL0     C92718   3.182   8.333   7.257  0.7109 -0.6259 -0.1191
  703MOL0     C92719   3.278   8.409   7.182  0.4262 -0.1765 -0.6208
  703MOL0     C92720   3.404   8.420   7.237 -0.3277 -0.5254 -0.1789
  703MOL0     C92721   3.438   8.351   7.355  0.3171  1.0100 -0.6915
  703MOL0     O92722   3.569   8.340   7.389 -0.3620 -0.2330 -0.2344
  703MOL0     C92723   3.626   8.204   7.388 -0.2650 -0.3344  0.2494
  703MOL0     C92724   3.758   8.184   7.461 -0.0392  0.9348  0.5858
  703MOL0     C92725   3.868   8.163   7.355  1.1492 -0.7439 -0.4444
  703MOL0     C92726   3.992   8.125   7.425 -0.2902  0.8042 -0.2798
  703MOL0     C92727   4.105   8.116   7.335 -0.7521  0.3538  0.2434
  703MOL0     C92728   4.205   8.105   7.265  0.5117  0.6940  0.6376
  703MOL0     C92729   3.340   8.283   7.428  0.4845 -0.0289 -0.5103
  703MOL0     C92730   3.210   8.292   7.387 -0.1301 -0.5069 -0.2981
  703MOL0     H92731   2.714   8.372   7.292 -0.0010  1.4200 -1.4728
  703MOL0     H92732   2.505   8.293   7.210 -0.1575  0.3231  0.2274
  703MOL0     H92733   2.371   8.304   7.008  0.5753  0.5666  0.5245
  703MOL0     H92734   2.296   8.173   7.098  1.0997  0.1219  0.1668
  703MOL0     H92735   2.236   8.063   6.891 -3.2212  0.4687 -0.2897
  703MOL0     H92736   2.284   8.205   6.804 -1.8555 -3.1242 -0.9438
  703MOL0     H92737   2.123   8.348   6.949 -1.4149 -1.0777  1.8359
  703MOL0     H92738   2.060   8.211   7.006 -1.0605  3.2685  0.9611
  703MOL0     H92739   2.059   8.305   6.715 -0.6239  2.5049  1.2952
  703MOL0     H92740   2.016   8.130   6.772  2.3580 -0.9689  4.8591
  703MOL0     H92741   1.825   8.275   6.717 -1.7609 -0.8165  1.3619
  703MOL0     H92742   1.886   8.396   6.833 -1.1192  0.9296  0.1544
  703MOL0     H92743   1.835   8.223   7.022  1.0094  0.9375 -0.7545
  703MOL0     H92744   1.786   8.097   6.905  0.3088 -0.3368  0.4726
  703MOL0     H92745   1.591   8.214   6.994  1.6734 -1.5705  0.5809
  703MOL0     H92746   1.629   8.354   6.904 -1.8241 -0.8809 -2.3430
  703MOL0     H92747   1.627   8.084   6.758 -0.5103  0.2674 -0.2742
  703MOL0     H92748   1.602   8.237   6.696 -0.0615 -0.8318 -0.6434
  703MOL0     H92749   1.438   7.976   6.935 -1.5097 -1.6887  1.5525
  703MOL0     H92750   1.201   7.917   7.008 -1.4389 -1.4520  2.0893
  703MOL0     H92751   1.067   8.027   7.000 -0.1174  0.6626  0.4126
  703MOL0     H92752   1.173   8.156   7.207  1.0554  1.6549 -2.4885
  703MOL0     H92753   1.295   8.029   7.212 -0.4676 -0.5911 -0.2881
  703MOL0     H92754   1.087   7.868   7.264 -1.5697  0.6826 -1.9561
  703MOL0     H92755   1.139   7.992   7.377  0.5947  0.1165 -0.1343
  703MOL0     H92756   0.926   8.018   7.167  0.2813  3.1853 -0.8344
  703MOL0     H92757   0.963   8.145   7.290  1.7231  1.3095 -5.2141
  703MOL0     H92758   0.740   8.180   7.239  0.2217  2.8646  1.3269
  703MOL0     H92759   0.522   8.258   7.295  0.8269 -1.4996 -1.3880
  703MOL0     H92760   0.139   8.101   7.323 -1.4094  0.2891  0.0218
  703MOL0     H92761  -0.100   8.116   7.320 -1.6850  1.4044  0.7311
  703MOL0     H92762  -0.286   8.482   7.501  0.4075 -0.5545 -1.7143
  703MOL0     H92763  -0.256   8.342   7.614  0.3664 -0.8754 -0.2026
  703MOL0     H92764  -0.455   8.230   7.547 -1.1178 -0.6458  1.2959
  703MOL0     H92765  -0.488   8.353   7.431  0.6755 -1.0553 -0.1865
  703MOL0     H92766  -0.496   8.520   7.623  0.7423  0.4506  1.8587
  703MOL0     H92767  -0.443   8.393   7.730  2.7615  2.0651 -1.4988
  703MOL0     H92768  -0.711   8.393   7.583  0.6517 -0.7117 -0.5414
  703MOL0     H92769  -0.648   8.255   7.670 -0.1882  0.1967 -1.7098
  703MOL0     H92770  -0.706   8.546   7.769  1.9995  0.0962  1.4635
  703MOL0     H92771  -0.632   8.440   7.878  3.5534  0.0636 -2.8380
  703MOL0     H92772  -0.866   8.434   7.935  3.1828  1.6972 -0.0386
  703MOL0     H92773  -0.831   8.275   7.861  1.3425 -0.3711 -0.3405
  703MOL0     H92774  -0.951   8.522   7.730  1.6439  0.2468  1.1468
  703MOL0     H92775  -0.939   8.363   7.649 -2.6377  1.0748 -1.3328
  703MOL0     H92776  -1.080   8.271   7.834 -0.0032 -1.4736 -0.9379
  703MOL0     H92777  -1.149   8.372   7.710  0.7567 -2.8248 -0.4206
  703MOL0     H92778  -0.077   8.511   7.482 -0.7599 -0.2546 -0.0653
  703MOL0     H92779   0.156   8.495   7.485 -1.9928 -0.2945  3.7700
  703MOL0     H92780   0.476   7.953   7.593 -0.0297  0.9807 -0.8077
  703MOL0     H92781   0.686   7.866   7.549  2.2905  0.5542 -0.5619
  703MOL0     H92782   2.685   7.997   6.972 -2.1744 -1.4477  1.2091
  703MOL0     H92783   2.909   8.055   7.097  1.5134  2.1226  1.0186
  703MOL0     H92784   3.260   8.450   7.084 -0.1193 -0.1313 -0.5004
  703MOL0     H92785   3.477   8.467   7.173 -3.2023 -0.7452 -3.9446
  703MOL0     H92786   3.630   8.169   7.285 -1.0256  0.0440  0.0809
  703MOL0     H92787   3.550   8.141   7.437 -0.1674 -2.3500 -1.9883
  703MOL0     H92788   3.786   8.275   7.515  1.6421 -0.9900  3.2228
  703MOL0     H92789   3.761   8.095   7.525  3.4640  1.0632  0.8227
  703MOL0     H92790   3.887   8.258   7.305 -0.4543  0.5364  1.2500
  703MOL0     H92791   3.831   8.086   7.287 -0.8520 -0.5252  0.3346
  703MOL0     H92792   3.997   8.190   7.513  0.6006 -0.7514  0.8667
  703MOL0     H92793   3.965   8.028   7.468 -0.4628  1.2476  0.6101
  703MOL0     H92794   4.295   8.099   7.207  0.3318 -0.2828  0.4406
  703MOL0     H92795   3.360   8.225   7.518 -1.2888 -1.2448 -0.8534
  703MOL0     H92796   3.137   8.247   7.454  1.2806 -1.8757  0.3747
  704MOL0     O92797  11.040   2.279   6.811  0.1145 -0.1013  0.6814
  704MOL0     C92798  11.130   2.324   6.734  0.5972 -0.4766 -0.0405
  704MOL0     O92799  11.112   2.360   6.605  0.1740  0.2407  0.1641
  704MOL0     C92800  10.982   2.344   6.554 -0.3643  0.0129  0.0698
  704MOL0     C92801  10.891   2.446   6.561  0.0488 -0.1038 -0.2766
  704MOL0     C92802  10.763   2.443   6.512 -0.0975  0.7114 -0.5684
  704MOL0     C92803  10.721   2.320   6.459 -0.6073  0.2584  0.2622
  704MOL0     O92804  10.596   2.300   6.402 -0.1195  0.1361 -0.0295
  704MOL0     C92805  10.501   2.404   6.420  0.3704 -0.0664 -0.6212
  704MOL0     C92806  10.365   2.373   6.342  0.3383  0.0676  0.1316
  704MOL0     C92807  10.302   2.236   6.374 -0.9401  0.3785  0.7163
  704MOL0     C92808  10.164   2.227   6.314  0.1439 -0.0483  0.1677
  704MOL0     C92809  10.109   2.082   6.308 -0.0690 -0.4033 -1.0420
  704MOL0     C92810   9.973   2.083   6.247 -0.6851  0.1509  0.6425
  704MOL0     C92811   9.870   2.148   6.330  0.9571  0.5797 -0.2363
  704MOL0     C92812   9.742   2.159   6.250  0.3974 -0.7740 -0.3661
  704MOL0     N92813   9.625   2.230   6.309 -0.0216 -0.1192 -0.1498
  704MOL0     C92814   9.504   2.172   6.308 -0.7047 -0.0878 -0.2853
  704MOL0     C92815   9.411   2.267   6.324  0.3155  0.1088  0.5119
  704MOL0     C92816   9.262   2.245   6.339  0.1724  0.1488 -0.3882
  704MOL0     C92817   9.174   2.359   6.290  0.3415 -0.8229 -0.2298
  704MOL0     C92818   9.027   2.358   6.305  0.1389  1.0016 -0.0618
  704MOL0     C92819   8.948   2.229   6.265 -0.4324  1.2682  0.0258
  704MOL0     O92820   8.807   2.253   6.241  0.4011 -0.0680 -0.2354
  704MOL0     C92821   8.739   2.149   6.173 -0.1407 -0.0645 -0.3676
  704MOL0     C92822   8.784   2.024   6.140  0.3888 -0.5748 -0.1481
  704MOL0     C92823   8.701   1.936   6.066 -0.2613  0.1387 -0.0911
  704MOL0     C92824   8.565   1.973   6.038  0.0522 -0.7790 -0.5974
  704MOL0     C92825   8.469   1.891   5.955 -0.0579  0.6399  0.3590
  704MOL0     O92826   8.357   1.949   5.899  0.3725  0.3376 -0.3548
  704MOL0     C92827   8.258   1.879   5.836 -0.0140 -0.1971 -0.6608
  704MOL0     C92828   8.176   1.956   5.754  0.1698 -0.1583  0.5671
  704MOL0     C92829   8.071   1.889   5.686 -0.8628 -0.0734  0.5947
  704MOL0     C92830   8.051   1.751   5.697 -0.3472 -0.3333 -0.1506
  704MOL0     O92831   7.953   1.686   5.623  0.4290 -0.1835 -0.1716
  704MOL0     C92832   7.958   1.718   5.485 -0.4494  0.0037  0.8380
  704MOL0     C92833   7.874   1.610   5.411 -0.6141 -0.4216  0.5217
  704MOL0     C92834   7.731   1.601   5.472  0.3081 -0.6702 -0.2704
  704MOL0     C92835   7.653   1.499   5.375  0.3504 -0.3662  0.1470
  704MOL0     C92836   7.561   1.547   5.263  0.6577 -0.6742  0.4294
  704MOL0     C92837   7.449   1.632   5.317 -0.3294 -0.0118 -0.0119
  704MOL0     C92838   7.320   1.606   5.231 -0.5750  0.2187  0.0419
  704MOL0     C92839   7.271   1.465   5.258  0.1546 -1.1429 -0.2716
  704MOL0    Cl92840   7.093   1.458   5.200  0.3836  0.0140 -0.2192
  704MOL0     C92841   8.124   1.686   5.797 -0.5105  0.2897  0.1630
  704MOL0     C92842   8.230   1.741   5.863  0.1412 -0.5021  0.2309
  704MOL0     O92843   8.506   1.779   5.929 -0.2161  1.2360  0.4458
  704MOL0     C92844   8.521   2.093   6.091 -0.3150  0.6031  0.1198
  704MOL0     C92845   8.605   2.183   6.159  0.1222  0.3937 -0.0173
  704MOL0     N92846   9.475   2.385   6.342  0.5480  0.1248 -0.1381
  704MOL0     N92847   9.602   2.363   6.335 -0.1415  0.0457 -0.2095
  704MOL0     C92848  10.812   2.211   6.451  0.2688  0.7386  0.2436
  704MOL0     C92849  10.940   2.227   6.499 -0.9326  0.3015 -0.3728
  704MOL0     C92850  11.262   2.345   6.791  1.2554 -0.1941 -0.5760
  704MOL0     C92851  11.371   2.405   6.729 -0.6928 -0.3255 -0.2903
  704MOL0     C92852  11.494   2.423   6.801 -0.0905  0.4332  0.7456
  704MOL0     C92853  11.511   2.373   6.931  0.4296  0.0618  0.4066
  704MOL0     O92854  11.622   2.364   7.010 -0.2020  0.4579 -0.7611
  704MOL0     C92855  11.753   2.410   6.954  0.7882 -0.3076 -0.3679
  704MOL0     C92856  11.778   2.555   7.007  0.1372 -0.3218  0.6466
  704MOL0     C92857  11.820   2.559   7.156  0.4313  0.0532 -0.1491
  704MOL0     C92858  11.972   2.561   7.177 -0.4635 -0.2964  0.2303
  704MOL0     C92859  12.037   2.440   7.131  0.2374 -0.6201 -0.0625
  704MOL0     C92860  12.095   2.343   7.090 -0.7302  0.0727  0.2327
  704MOL0     C92861  11.407   2.305   6.990  1.2326 -0.1227  0.0613
  704MOL0     C92862  11.283   2.307   6.929 -0.3516  0.4551  0.3149
  704MOL0     H92863  10.932   2.537   6.604  0.8900  0.2940 -1.8385
  704MOL0     H92864  10.708   2.535   6.528  1.0058  1.1969  0.5308
  704MOL0     H92865  10.544   2.497   6.383 -0.4805  1.2746  1.5968
  704MOL0     H92866  10.479   2.411   6.527 -1.5922  1.3562 -1.0839
  704MOL0     H92867  10.390   2.369   6.235  1.1929  1.5787  0.2548
  704MOL0     H92868  10.287   2.448   6.356  0.5425  0.4824 -0.8417
  704MOL0     H92869  10.319   2.225   6.482  2.9204  1.4292  0.3609
  704MOL0     H92870  10.369   2.160   6.335 -0.4413  0.0671  2.1274
  704MOL0     H92871  10.099   2.287   6.379  0.3775 -0.3304  0.6646
  704MOL0     H92872  10.150   2.266   6.213 -2.2942  1.3042  0.9522
  704MOL0     H92873  10.102   2.058   6.415  1.4770 -0.8201 -1.0095
  704MOL0     H92874  10.182   2.019   6.256  2.1560  0.0639  1.3004
  704MOL0     H92875   9.946   1.979   6.225 -0.4028 -0.0981  1.4117
  704MOL0     H92876   9.985   2.119   6.145  2.9795 -3.0035 -0.3002
  704MOL0     H92877   9.849   2.084   6.416  2.1712 -0.0255 -0.3723
  704MOL0     H92878   9.906   2.242   6.371  0.0957  1.2436 -0.9646
  704MOL0     H92879   9.710   2.064   6.208 -0.3895 -1.8590  2.4837
  704MOL0     H92880   9.775   2.213   6.161 -0.2955  0.2371 -0.0329
  704MOL0     H92881   9.480   2.067   6.299  0.7789 -0.6588  1.5834
  704MOL0     H92882   9.229   2.229   6.442 -2.7723 -0.0298 -1.2665
  704MOL0     H92883   9.235   2.153   6.286  1.0131 -0.6648  0.5524
  704MOL0     H92884   9.193   2.388   6.186  0.3568  0.0915  0.0188
  704MOL0     H92885   9.198   2.444   6.354  1.2529 -1.9395  0.9949
  704MOL0     H92886   9.007   2.356   6.413  2.5052  1.9939  0.4599
  704MOL0     H92887   8.979   2.445   6.261 -0.6872 -0.1535 -1.5147
  704MOL0     H92888   8.953   2.162   6.351  1.3080  3.1155  1.4351
  704MOL0     H92889   8.992   2.188   6.173  0.9213  1.7348  0.4473
  704MOL0     H92890   8.880   1.980   6.167  0.7415  0.3919  0.2221
  704MOL0     H92891   8.747   1.846   6.027  0.5875 -0.4026  2.0280
  704MOL0     H92892   8.191   2.063   5.740 -1.3554 -0.2040 -1.9867
  704MOL0     H92893   8.012   1.946   5.615 -0.6955 -0.4051  0.1869
  704MOL0     H92894   8.061   1.727   5.448 -0.2387  0.6122  1.5423
  704MOL0     H92895   7.919   1.816   5.456 -1.3652 -1.1952 -2.4421
  704MOL0     H92896   7.931   1.516   5.413  0.5976  0.2959  0.4641
  704MOL0     H92897   7.857   1.636   5.306 -0.5323 -0.1527  0.5755
  704MOL0     H92898   7.681   1.698   5.477 -0.7860 -1.2830  1.6216
  704MOL0     H92899   7.725   1.566   5.575 -2.1560 -0.0021 -0.1262
  704MOL0     H92900   7.732   1.439   5.329 -0.0261 -0.6132 -0.1733
  704MOL0     H92901   7.598   1.437   5.447  1.5263  0.4518  1.8410
  704MOL0     H92902   7.520   1.454   5.222 -0.8660 -0.2929  0.9972
  704MOL0     H92903   7.614   1.604   5.186  1.5117 -1.3078  0.5380
  704MOL0     H92904   7.482   1.736   5.310  0.2091 -0.1521  0.3810
  704MOL0     H92905   7.438   1.605   5.422  2.3174  0.8796  0.5770
  704MOL0     H92906   7.243   1.675   5.267  0.7297  2.4334 -1.2069
  704MOL0     H92907   7.338   1.619   5.124 -1.5093  2.2559  0.0870
  704MOL0     H92908   7.268   1.442   5.365 -1.0199 -0.8494 -0.2288
  704MOL0     H92909   7.335   1.390   5.211  2.2513  0.6586 -0.5053
  704MOL0     H92910   8.103   1.581   5.812 -4.4222  0.7696 -0.9150
  704MOL0     H92911   8.269   1.674   5.938  0.2019 -1.0440 -0.2750
  704MOL0     H92912   8.415   2.116   6.090 -0.5390 -0.4199 -0.5788
  704MOL0     H92913   8.557   2.275   6.192  2.0400  0.5544  2.6824
  704MOL0     H92914  10.786   2.111   6.417  1.4333  1.0878 -1.9123
  704MOL0     H92915  11.009   2.143   6.490 -0.4977  0.3082  2.1344
  704MOL0     H92916  11.379   2.433   6.624 -0.2773  1.4613  0.1827
  704MOL0     H92917  11.567   2.489   6.754 -0.0987 -1.1191 -1.5933
  704MOL0     H92918  11.751   2.399   6.845 -2.1285  1.1461 -0.5598
  704MOL0     H92919  11.832   2.340   6.984  3.6584  2.4390 -0.9470
  704MOL0     H92920  11.846   2.610   6.941  0.0870 -1.8620 -0.7186
  704MOL0     H92921  11.680   2.602   7.003  1.2902  2.1478 -2.4050
  704MOL0     H92922  11.775   2.476   7.212 -0.3929  0.4064 -0.2730
  704MOL0     H92923  11.780   2.653   7.196 -5.0079 -1.8345 -0.2811
  704MOL0     H92924  12.001   2.655   7.130 -0.6055  0.4449  1.5565
  704MOL0     H92925  11.990   2.584   7.283 -0.4144  0.1913  0.1171
  704MOL0     H92926  12.157   2.263   7.056 -1.9615 -0.2488 -1.3643
  704MOL0     H92927  11.425   2.246   7.080  1.5402 -0.5766 -0.2929
  704MOL0     H92928  11.200   2.268   6.987  0.3231  0.4613  1.3285
  705MOL0     O92929   4.736   0.431   5.796  0.0533 -0.3270  0.3265
  705MOL0     C92930   4.836   0.360   5.829 -0.0093  0.8302 -0.0171
  705MOL0     O92931   4.840   0.294   5.942  0.3364  0.0075  0.1084
  705MOL0     C92932   4.724   0.271   6.016 -0.1543  0.5761  0.0794
  705MOL0     C92933   4.590   0.262   5.972  0.6378  0.4403  0.3647
  705MOL0     C92934   4.486   0.224   6.048  0.2222  0.3522 -0.2854
  705MOL0     C92935   4.503   0.203   6.190 -0.1115  0.0720  0.5996
  705MOL0     O92936   4.407   0.162   6.278  0.0513  0.3286 -0.0469
  705MOL0     C92937   4.270   0.176   6.244  0.4328 -0.1222 -0.9754
  705MOL0     C92938   4.187   0.102   6.346 -0.5180 -0.0566  0.1724
  705MOL0     C92939   4.044   0.100   6.296  0.3286  0.0135 -0.9025
  705MOL0     C92940   3.949   0.046   6.402 -0.0576  0.2433 -0.1099
  705MOL0     C92941   3.810   0.049   6.327 -0.8372 -0.2537 -0.9302
  705MOL0     C92942   3.700   0.011   6.417  0.9980  0.1050  0.0485
  705MOL0     C92943   3.566   0.026   6.349 -0.2929 -0.4095 -0.3081
  705MOL0     C92944   3.454   0.042   6.457  0.2153  0.5925  0.4002
  705MOL0     N92945   3.328  -0.021   6.419 -0.1945  0.1974 -0.4746
  705MOL0     C92946   3.222   0.036   6.347  0.8063 -0.5567 -1.0414
  705MOL0     C92947   3.131  -0.062   6.342  0.6776  0.4345  0.0968
  705MOL0     C92948   3.008  -0.052   6.264 -0.6574 -0.2711 -0.0642
  705MOL0     C92949   2.901   0.039   6.328  0.5080  0.6518 -0.7754
  705MOL0     C92950   2.925   0.184   6.289 -0.3447  0.4626 -0.2292
  705MOL0     C92951   2.822   0.288   6.339 -0.4275  0.2386  0.3044
  705MOL0     O92952   2.784   0.374   6.231 -0.4090 -0.3693 -0.0544
  705MOL0     C92953   2.657   0.345   6.180  0.3990  0.0803  0.4957
  705MOL0     C92954   2.579   0.450   6.151  0.4852  0.1300 -0.0484
  705MOL0     C92955   2.449   0.425   6.093 -0.4684  0.1045  0.1179
  705MOL0     C92956   2.390   0.302   6.073  0.0620  0.0464  0.0240
  705MOL0     C92957   2.241   0.276   6.041 -0.6996 -0.4986  0.3086
  705MOL0     O92958   2.168   0.389   6.031 -0.2968 -0.1038 -0.0845
  705MOL0     C92959   2.038   0.393   5.974 -1.1561  1.1889  0.5895
  705MOL0     C92960   1.970   0.514   5.982 -1.2482 -0.1292  0.0364
  705MOL0     C92961   1.844   0.526   5.939  0.6523 -0.7283  0.2643
  705MOL0     C92962   1.776   0.417   5.880  0.6277  0.1915  0.1712
  705MOL0     O92963   1.653   0.441   5.828 -0.4208 -0.3434 -0.2936
  705MOL0     C92964   1.559   0.335   5.808  0.0203  0.0953  0.2210
  705MOL0     C92965   1.511   0.244   5.928  0.4977 -0.2508 -0.6939
  705MOL0     C92966   1.504   0.094   5.895  0.1128 -0.7195  0.4168
  705MOL0     C92967   1.462   0.014   6.010  0.3186 -0.1488 -0.4546
  705MOL0     C92968   1.458  -0.136   5.973  0.2317 -0.2739 -0.7621
  705MOL0     C92969   1.364  -0.165   5.855  0.8585  1.0155  0.1848
  705MOL0     C92970   1.329  -0.311   5.835  0.3960  0.0934 -0.3202
  705MOL0     C92971   1.212  -0.321   5.733 -0.0298  0.0295 -0.1524
  705MOL0    Cl92972   1.273  -0.261   5.566  0.3025  0.1228 -0.2397
  705MOL0     C92973   1.843   0.297   5.861 -0.8915  0.4259  1.2468
  705MOL0     C92974   1.976   0.284   5.905  0.5346 -0.2694 -0.4713
  705MOL0     O92975   2.208   0.160   6.029 -0.1307  0.2650 -0.3956
  705MOL0     C92976   2.474   0.185   6.110 -0.3129  0.0926 -0.6127
  705MOL0     C92977   2.608   0.213   6.159 -0.2938 -0.0945 -0.6007
  705MOL0     N92978   3.184  -0.168   6.407 -0.3863 -0.9001 -0.6934
  705MOL0     N92979   3.302  -0.147   6.456 -0.2477  0.4293  0.3998
  705MOL0     C92980   4.638   0.216   6.236  0.1806  0.0736 -0.1802
  705MOL0     C92981   4.742   0.246   6.150 -0.6758  0.7760 -0.2820
  705MOL0     C92982   4.951   0.337   5.737  0.6599 -0.1974 -0.6513
  705MOL0     C92983   4.956   0.388   5.607  0.7547  1.4416 -0.1870
  705MOL0     C92984   5.069   0.362   5.526  0.1995 -1.1044 -0.5360
  705MOL0     C92985   5.178   0.294   5.577  0.4561 -0.8455  0.2383
  705MOL0     O92986   5.295   0.266   5.506  0.3638 -1.0789 -0.3307
  705MOL0     C92987   5.346   0.375   5.431 -0.5193 -0.1656 -0.6780
  705MOL0     C92988   5.418   0.461   5.535 -0.6904  0.9224  0.5590
  705MOL0     C92989   5.504   0.383   5.628 -0.1849 -0.2477 -0.7961
  705MOL0     C92990   5.609   0.465   5.700 -0.6975  0.0389  0.8315
  705MOL0     C92991   5.707   0.528   5.597 -0.1772  0.0138 -0.1654
  705MOL0     C92992   5.788   0.577   5.523  0.3537  0.5333  1.2682
  705MOL0     C92993   5.173   0.240   5.699 -0.1771  1.1345  0.4772
  705MOL0     C92994   5.065   0.257   5.778 -0.0401 -0.2780 -1.0701
  705MOL0     H92995   4.572   0.282   5.867 -0.9842 -1.4668  0.2061
  705MOL0     H92996   4.392   0.198   6.001 -0.0991 -0.4321  0.7390
  705MOL0     H92997   4.267   0.119   6.151  3.5641  1.4239 -2.1857
  705MOL0     H92998   4.237   0.280   6.237  0.3336 -0.0530  0.2616
  705MOL0     H92999   4.189   0.160   6.439 -1.6881  0.4054 -0.0778
  705MOL0     H93000   4.216  -0.003   6.356  2.0845  0.5895  0.1163
  705MOL0     H93001   4.034   0.035   6.208 -0.5547 -2.0583  0.6518
  705MOL0     H93002   4.020   0.200   6.260  0.8149  0.1814 -0.7639
  705MOL0     H93003   3.968  -0.056   6.435 -2.3550  0.0105  0.6546
  705MOL0     H93004   3.949   0.111   6.490 -0.1353  0.8918 -0.5741
  705MOL0     H93005   3.812  -0.016   6.239  0.5568  1.2240 -2.0600
  705MOL0     H93006   3.786   0.150   6.292 -3.3638 -0.0576  1.0195
  705MOL0     H93007   3.705   0.085   6.497 -0.3824  1.2110 -0.8189
  705MOL0     H93008   3.711  -0.088   6.462 -0.3251  1.0565  2.6779
  705MOL0     H93009   3.565   0.123   6.298 -0.5638  0.1248  0.6796
  705MOL0     H93010   3.542  -0.060   6.286  0.5491  0.2289 -1.5183
  705MOL0     H93011   3.433   0.148   6.471  0.1463  0.7112 -0.5492
  705MOL0     H93012   3.476  -0.000   6.555 -1.4221  1.0230  0.9893
  705MOL0     H93013   3.213   0.133   6.299 -0.5779 -0.3467 -0.4220
  705MOL0     H93014   2.974  -0.155   6.250 -0.2700 -0.4163  0.0402
  705MOL0     H93015   3.025  -0.008   6.166 -1.3695  0.5857  0.1886
  705MOL0     H93016   2.890   0.042   6.437  1.0320 -3.7741 -0.3900
  705MOL0     H93017   2.803   0.010   6.290  0.0502  1.1658  0.0016
  705MOL0     H93018   3.017   0.224   6.333 -2.1215  4.9487  0.0205
  705MOL0     H93019   2.924   0.188   6.180 -2.6858 -2.4031 -0.4169
  705MOL0     H93020   2.857   0.359   6.414 -1.4899  1.3731 -0.2326
  705MOL0     H93021   2.728   0.241   6.371  0.0195 -0.2529  0.9260
  705MOL0     H93022   2.613   0.551   6.168 -0.9393  1.2050 -2.8367
  705MOL0     H93023   2.384   0.508   6.067  0.9850  1.3357  0.2684
  705MOL0     H93024   2.031   0.590   6.030  0.3886 -1.7569  0.6833
  705MOL0     H93025   1.789   0.614   5.970  1.0424 -1.2620  2.6493
  705MOL0     H93026   1.582   0.263   5.729  0.1919 -2.6078  2.5595
  705MOL0     H93027   1.471   0.384   5.767  1.9600  2.7349 -1.0900
  705MOL0     H93028   1.416   0.281   5.966  1.3791 -0.0082  1.4162
  705MOL0     H93029   1.574   0.262   6.016 -2.2480 -1.3695  1.6453
  705MOL0     H93030   1.603   0.058   5.867  0.8387  0.2125  1.6841
  705MOL0     H93031   1.438   0.085   5.808  0.5179 -0.6721  0.1025
  705MOL0     H93032   1.523   0.027   6.100  0.5568 -0.4481 -0.5736
  705MOL0     H93033   1.363   0.050   6.041  0.5539  1.2989 -1.2783
  705MOL0     H93034   1.414  -0.188   6.058 -3.6016  2.0565 -1.0758
  705MOL0     H93035   1.559  -0.171   5.946 -0.5858 -2.1855 -1.5370
  705MOL0     H93036   1.409  -0.129   5.763 -1.9647 -0.3919 -1.9249
  705MOL0     H93037   1.269  -0.112   5.864  0.1089 -0.1919 -0.2900
  705MOL0     H93038   1.413  -0.370   5.799 -0.8000 -1.7522 -0.2390
  705MOL0     H93039   1.307  -0.339   5.939  1.4978  2.3615  0.5822
  705MOL0     H93040   1.121  -0.265   5.757 -1.5907 -1.6986 -1.6598
  705MOL0     H93041   1.190  -0.428   5.718  2.2451 -0.4608 -0.3087
  705MOL0     H93042   1.814   0.208   5.805 -0.5280  1.1064 -0.0628
  705MOL0     H93043   2.021   0.187   5.887 -1.2386 -1.2376  0.1005
  705MOL0     H93044   2.441   0.081   6.114  0.5762 -0.2181 -1.0797
  705MOL0     H93045   2.675   0.133   6.190  2.1526  1.6038 -1.1941
  705MOL0     H93046   4.659   0.199   6.341  1.3504 -0.1911 -0.4448
  705MOL0     H93047   4.842   0.243   6.192 -0.9179 -0.9375  0.2384
  705MOL0     H93048   4.863   0.435   5.577 -0.5398 -0.7367  0.2156
  705MOL0     H93049   5.061   0.394   5.423 -0.1262  2.4415  0.4615
  705MOL0     H93050   5.275   0.439   5.378 -1.2677 -0.8483 -0.5111
  705MOL0     H93051   5.433   0.343   5.372  1.1887  2.4717  0.2239
  705MOL0     H93052   5.475   0.538   5.481  0.6013 -0.1118  0.4037
  705MOL0     H93053   5.346   0.520   5.592 -2.1903  1.6538 -1.9351
  705MOL0     H93054   5.556   0.305   5.572 -2.7294 -2.5532 -0.1613
  705MOL0     H93055   5.449   0.329   5.706  2.3491 -0.8573  0.6777
  705MOL0     H93056   5.552   0.535   5.763 -0.9698  0.8122 -0.2474
  705MOL0     H93057   5.667   0.403   5.769 -0.9543 -1.3997 -0.1995
  705MOL0     H93058   5.859   0.612   5.452 -0.6072 -0.3015 -0.1604
  705MOL0     H93059   5.257   0.180   5.732 -1.0065 -1.3929 -1.6218
  705MOL0     H93060   5.062   0.204   5.872  0.7281 -0.0213 -0.8914
  706MOL0     O93061   0.998   5.888   1.191  0.0192 -0.0478 -0.2104
  706MOL0     C93062   1.028   5.987   1.255 -0.4121  0.1034  0.1236
  706MOL0     O93063   0.942   6.062   1.321 -0.4387 -0.8276 -0.5249
  706MOL0     C93064   0.817   6.013   1.327 -0.1185  0.6213  0.6993
  706MOL0     C93065   0.776   5.914   1.417 -1.1019 -0.9089 -0.3934
  706MOL0     C93066   0.654   5.857   1.419 -0.4858 -0.4526 -0.4359
  706MOL0     C93067   0.562   5.896   1.321  0.6538 -0.0741  0.7520
  706MOL0     O93068   0.436   5.836   1.313  0.0019  0.2230  0.7587
  706MOL0     C93069   0.338   5.933   1.334  0.4867 -0.4290 -0.0415
  706MOL0     C93070   0.203   5.863   1.318 -0.6600 -0.4710  1.0270
  706MOL0     C93071   0.084   5.955   1.352  0.7846 -1.2410 -0.2141
  706MOL0     C93072  -0.051   5.886   1.362  0.4073  0.7351  0.4593
  706MOL0     C93073  -0.167   5.969   1.422  0.8224 -0.6836  0.8428
  706MOL0     C93074  -0.304   5.913   1.384 -0.1827  0.2114  0.5719
  706MOL0     C93075  -0.419   5.998   1.434  0.7457 -0.5396 -0.2562
  706MOL0     C93076  -0.540   5.918   1.387 -0.4241  0.3409 -0.2726
  706MOL0     N93077  -0.648   5.957   1.475 -0.0470  0.7197  0.4223
  706MOL0     C93078  -0.763   6.024   1.429 -0.1100  0.8169  0.0111
  706MOL0     C93079  -0.853   6.019   1.531  0.6332 -0.2895  0.6910
  706MOL0     C93080  -0.997   6.057   1.544 -0.0980 -0.0286 -0.1038
  706MOL0     C93081  -1.015   6.157   1.653 -0.0400 -0.6824  0.3811
  706MOL0     C93082  -1.161   6.199   1.688 -0.6065  1.1957  0.1511
  706MOL0     C93083  -1.162   6.317   1.778  0.1578 -0.9499  0.1185
  706MOL0     O93084  -1.104   6.296   1.900  0.1083  1.0919 -0.0690
  706MOL0     C93085  -1.181   6.233   1.993 -0.3227  0.1251 -0.2078
  706MOL0     C93086  -1.305   6.175   1.971 -0.3806 -0.3682  0.3799
  706MOL0     C93087  -1.379   6.108   2.067  0.5572 -0.3447 -0.0517
  706MOL0     C93088  -1.319   6.093   2.193 -0.6221 -0.0546 -0.3047
  706MOL0     C93089  -1.375   6.007   2.302  0.6684 -0.2567 -0.0284
  706MOL0     O93090  -1.292   5.985   2.409 -0.7152  0.5457 -0.3679
  706MOL0     C93091  -1.345   5.930   2.520  0.5480  0.3510  0.4516
  706MOL0     C93092  -1.302   5.803   2.566 -0.3738 -0.6566  0.5330
  706MOL0     C93093  -1.351   5.745   2.682  0.1253 -0.7921  0.2476
  706MOL0     C93094  -1.449   5.815   2.762 -0.3086  0.1939 -0.7551
  706MOL0     O93095  -1.499   5.746   2.863  0.4174 -0.2463  0.2070
  706MOL0     C93096  -1.629   5.793   2.914 -0.0640  0.1992 -0.4980
  706MOL0     C93097  -1.659   5.708   3.034 -0.1912 -0.3910 -0.7713
  706MOL0     C93098  -1.795   5.736   3.113 -0.5180 -0.2594 -0.7547
  706MOL0     C93099  -1.772   5.685   3.262 -0.3414 -0.4379 -0.1800
  706MOL0     C93100  -1.903   5.708   3.334 -0.4776  0.7348 -0.7092
  706MOL0     C93101  -1.906   5.657   3.485 -1.0865  0.3993  0.4518
  706MOL0     C93102  -2.032   5.683   3.560 -1.2575  0.4885 -0.0079
  706MOL0     C93103  -2.167   5.626   3.523  0.3229 -0.3104 -0.1532
  706MOL0    Cl93104  -2.280   5.678   3.647 -0.2842 -0.4417  0.0311
  706MOL0     C93105  -1.488   5.947   2.718  0.2396 -1.1787 -0.2987
  706MOL0     C93106  -1.440   5.995   2.594  0.6044  0.3696  0.3739
  706MOL0     O93107  -1.499   5.979   2.293  0.4202 -0.0702  0.3173
  706MOL0     C93108  -1.191   6.148   2.213 -0.0065  0.1975 -0.0969
  706MOL0     C93109  -1.129   6.226   2.116 -0.1811  0.4694  0.2341
  706MOL0     N93110  -0.794   5.945   1.625  0.1276  0.6005  0.0943
  706MOL0     N93111  -0.676   5.902   1.594 -1.0098 -0.2925  0.2362
  706MOL0     C93112   0.592   6.003   1.235 -0.4047 -0.6902 -0.3839
  706MOL0     C93113   0.715   6.064   1.249 -0.0734 -0.0682 -0.0604
  706MOL0     C93114   1.168   6.015   1.256 -0.4754 -0.0089  0.4058
  706MOL0     C93115   1.263   5.941   1.176  0.3455  0.2206  0.9461
  706MOL0     C93116   1.402   5.955   1.192 -0.4663  0.3433  0.3927
  706MOL0     C93117   1.451   6.051   1.277 -0.4790 -0.1805 -1.1539
  706MOL0     O93118   1.593   6.056   1.305  0.3360 -0.4530  0.1207
  706MOL0     C93119   1.631   6.076   1.444  0.3601 -0.4589  0.2563
  706MOL0     C93120   1.662   6.225   1.462 -0.5515 -0.6741  0.0444
  706MOL0     C93121   1.804   6.273   1.408 -0.2342 -0.2752 -0.2435
  706MOL0     C93122   1.856   6.421   1.434 -0.0714  0.0901 -0.1108
  706MOL0     C93123   1.754   6.524   1.409 -1.1195 -0.2352 -0.6308
  706MOL0     C93124   1.674   6.611   1.381  0.2083 -0.3848  0.3756
  706MOL0     C93125   1.358   6.141   1.344  0.1352  0.1854 -0.0796
  706MOL0     C93126   1.217   6.126   1.323 -0.2016  0.2172 -1.4960
  706MOL0     H93127   0.855   5.873   1.478 -0.0809  1.5181  0.0416
  706MOL0     H93128   0.634   5.774   1.487  1.2482 -0.4369  0.1333
  706MOL0     H93129   0.330   6.015   1.261 -2.1011 -2.1007 -1.8168
  706MOL0     H93130   0.358   5.981   1.430 -2.0092 -1.8032  1.2925
  706MOL0     H93131   0.182   5.771   1.373  0.7562 -1.9091 -0.7138
  706MOL0     H93132   0.197   5.829   1.214 -0.1860  0.6136  0.6252
  706MOL0     H93133   0.082   6.042   1.287 -0.0913 -2.1192 -1.4058
  706MOL0     H93134   0.106   5.995   1.452  1.4443  0.6907 -1.0920
  706MOL0     H93135  -0.071   5.855   1.260  1.3340 -0.7391  0.6976
  706MOL0     H93136  -0.040   5.785   1.401  3.4061  0.7204 -0.2278
  706MOL0     H93137  -0.164   6.074   1.389 -1.1291 -0.4645  1.2524
  706MOL0     H93138  -0.162   5.962   1.531 -1.9869 -2.1968  0.9610
  706MOL0     H93139  -0.316   5.808   1.412  1.4617  0.1084  1.0032
  706MOL0     H93140  -0.317   5.920   1.276  0.2889  0.2774  0.5144
  706MOL0     H93141  -0.417   6.001   1.544 -0.6049 -2.2044 -0.1572
  706MOL0     H93142  -0.419   6.103   1.404 -0.5398 -0.2435  0.7025
  706MOL0     H93143  -0.526   5.810   1.401 -0.6949 -0.5362 -5.0357
  706MOL0     H93144  -0.556   5.934   1.280  1.5482  0.3729 -0.6099
  706MOL0     H93145  -0.785   6.063   1.330  0.5368  1.7752  0.2318
  706MOL0     H93146  -1.061   5.970   1.559 -2.2836  1.4463 -0.3773
  706MOL0     H93147  -1.030   6.098   1.448 -2.0590  1.5404  1.1725
  706MOL0     H93148  -0.968   6.251   1.623 -1.0134  0.0504  1.1046
  706MOL0     H93149  -0.957   6.132   1.742 -1.2520  1.3786  1.8279
  706MOL0     H93150  -1.217   6.218   1.596  2.1326  2.1490 -1.4553
  706MOL0     H93151  -1.212   6.115   1.735  1.9107  0.2807  1.4500
  706MOL0     H93152  -1.267   6.348   1.779 -0.5095 -3.0698  0.3907
  706MOL0     H93153  -1.104   6.393   1.725  1.2285 -1.4405  0.5557
  706MOL0     H93154  -1.363   6.188   1.880  0.4785 -1.9120 -0.4262
  706MOL0     H93155  -1.480   6.072   2.051  0.0470  0.9180  0.1353
  706MOL0     H93156  -1.227   5.752   2.506 -1.5913  0.1358 -1.7955
  706MOL0     H93157  -1.316   5.649   2.719 -1.2152 -2.1739 -1.8789
  706MOL0     H93158  -1.698   5.786   2.829 -0.8439  3.5950 -0.2781
  706MOL0     H93159  -1.606   5.896   2.943  2.5125 -0.6392  0.6871
  706MOL0     H93160  -1.573   5.725   3.100 -0.2938  1.7803 -1.1435
  706MOL0     H93161  -1.654   5.600   3.017  0.1648 -0.6067  0.5545
  706MOL0     H93162  -1.878   5.679   3.070 -2.3608  0.2802  1.8411
  706MOL0     H93163  -1.830   5.839   3.121  1.0392  0.1638  2.6041
  706MOL0     H93164  -1.746   5.578   3.261  1.9793  0.0696 -0.6082
  706MOL0     H93165  -1.686   5.737   3.304  0.2390  0.4690 -2.3276
  706MOL0     H93166  -1.977   5.642   3.287 -1.3040  1.2366 -0.1503
  706MOL0     H93167  -1.938   5.812   3.335 -0.7171  0.7284  2.3079
  706MOL0     H93168  -1.823   5.698   3.544  2.2985 -3.3686 -1.2361
  706MOL0     H93169  -1.876   5.552   3.486 -1.3372  0.1684 -3.2855
  706MOL0     H93170  -2.019   5.651   3.664 -1.8858  0.5816  0.1039
  706MOL0     H93171  -2.045   5.791   3.568 -0.8830  0.5359 -0.0297
  706MOL0     H93172  -2.156   5.517   3.518 -0.1873 -0.3175 -2.1402
  706MOL0     H93173  -2.190   5.666   3.424 -2.7782 -1.6264 -0.0613
  706MOL0     H93174  -1.572   5.999   2.763 -0.2275  0.0873 -2.4992
  706MOL0     H93175  -1.477   6.083   2.543  1.8368  1.0262  0.5775
  706MOL0     H93176  -1.135   6.117   2.300 -0.1406 -1.0345 -0.4258
  706MOL0     H93177  -1.034   6.277   2.121  0.3441 -0.5380  0.7283
  706MOL0     H93178   0.517   6.032   1.162 -0.8684 -2.0429 -0.4761
  706MOL0     H93179   0.726   6.151   1.185 -3.4879  0.6353  0.1327
  706MOL0     H93180   1.227   5.873   1.099  1.0928 -0.4929  1.2165
  706MOL0     H93181   1.478   5.900   1.136  0.1009  1.2733  0.2293
  706MOL0     H93182   1.719   6.018   1.476 -0.2213 -2.5854 -1.7035
  706MOL0     H93183   1.550   6.049   1.513 -1.0290 -0.8092 -1.4407
  706MOL0     H93184   1.584   6.277   1.406  0.0457 -1.4363 -1.5508
  706MOL0     H93185   1.662   6.246   1.570  2.0946 -1.3345  0.2470
  706MOL0     H93186   1.808   6.247   1.301  0.9269 -1.3152  0.0233
  706MOL0     H93187   1.894   6.222   1.444  2.6098  1.7179 -3.7991
  706MOL0     H93188   1.882   6.415   1.540  0.6765 -2.8404 -0.3791
  706MOL0     H93189   1.949   6.441   1.381  1.7701 -3.0805  1.6659
  706MOL0     H93190   1.601   6.685   1.355  0.7532  0.6691  1.7563
  706MOL0     H93191   1.393   6.214   1.416 -0.2014  0.5198 -0.2521
  706MOL0     H93192   1.151   6.193   1.379  0.1368 -1.2834  0.8191
  707MOL0     O93193  10.769   5.823  10.245  0.1761  0.6323  0.1416
  707MOL0     C93194  10.800   5.938  10.249  0.2036  0.0774  0.0824
  707MOL0     O93195  10.720   6.046  10.269 -1.1731 -1.2588  0.2474
  707MOL0     C93196  10.590   6.033  10.304  0.4139 -0.0382  0.8070
  707MOL0     C93197  10.544   5.958  10.414 -0.3248  0.9882  0.5911
  707MOL0     C93198  10.419   5.987  10.461  0.2400 -0.1788  0.0073
  707MOL0     C93199  10.334   6.065  10.387 -0.3621 -0.0525  0.0557
  707MOL0     O93200  10.210   6.075  10.447  0.3941 -0.4761  0.1790
  707MOL0     C93201  10.097   6.025  10.370  0.0454  0.0872  0.2722
  707MOL0     C93202   9.973   6.038  10.461  0.1305  0.3368 -0.1475
  707MOL0     C93203   9.854   5.969  10.399  0.1285  0.7528 -0.2040
  707MOL0     C93204   9.730   5.999  10.474  0.0428 -0.4232 -0.3842
  707MOL0     C93205   9.608   5.912  10.428  0.8345 -0.5979  0.3081
  707MOL0     C93206   9.479   5.980  10.485  1.4245  0.9239 -0.5790
  707MOL0     C93207   9.361   5.885  10.499 -0.4978 -0.1639 -0.2198
  707MOL0     C93208   9.236   5.951  10.575  0.3879  0.0448 -0.6756
  707MOL0     N93209   9.277   5.997  10.709  0.1535  0.7866 -0.4404
  707MOL0     C93210   9.300   6.123  10.747 -0.4012 -0.0325 -0.4015
  707MOL0     C93211   9.369   6.113  10.865  0.0269  0.1331 -0.3536
  707MOL0     C93212   9.435   6.220  10.943  0.8956 -0.4371  0.0458
  707MOL0     C93213   9.571   6.257  10.878  0.6734 -0.3603  0.4707
  707MOL0     C93214   9.674   6.141  10.862 -0.0184 -0.4704  0.0775
  707MOL0     C93215   9.799   6.179  10.790 -0.2644 -0.0833  0.2933
  707MOL0     O93216   9.891   6.260  10.875  0.6963  0.3013 -0.1563
  707MOL0     C93217  10.023   6.222  10.863  0.9880 -0.3268  0.4988
  707MOL0     C93218  10.094   6.213  10.978 -0.1032  0.1699 -0.8293
  707MOL0     C93219  10.228   6.192  10.971  0.1963 -0.2245 -0.1129
  707MOL0     C93220  10.296   6.198  10.847  0.0423 -0.6756  0.5375
  707MOL0     C93221  10.443   6.188  10.845  0.3512  0.2498  0.3432
  707MOL0     O93222  10.501   6.197  10.724 -0.5872  0.7899  0.3801
  707MOL0     C93223  10.638   6.173  10.708  0.1110  0.0127 -0.4203
  707MOL0     C93224  10.717   6.084  10.783 -0.1360 -0.3499 -0.3281
  707MOL0     C93225  10.850   6.072  10.763 -0.2948  0.0413  0.1176
  707MOL0     C93226  10.914   6.142  10.656 -0.7410 -0.2974 -0.2186
  707MOL0     O93227  11.047   6.128  10.626 -0.4456  0.2123 -0.1001
  707MOL0     C93228  11.143   6.074  10.723  0.7593  0.6607 -0.0337
  707MOL0     C93229  11.283   6.115  10.678  0.3333 -0.1471  0.3885
  707MOL0     C93230  11.387   6.064  10.784  0.1281  0.2895 -0.3824
  707MOL0     C93231  11.372   6.113  10.934  0.7616 -0.3588 -0.1921
  707MOL0     C93232  11.478   6.066  11.028 -0.3223 -0.1149  0.2313
  707MOL0     C93233  11.477   5.922  11.049 -0.2075 -0.0978  0.0913
  707MOL0     C93234  11.611   5.868  11.109  0.4196  0.3461  0.0840
  707MOL0     C93235  11.730   5.907  11.023 -0.2045  0.1151 -0.3313
  707MOL0    Cl93236  11.870   5.822  11.095  0.6696 -0.0183  0.0082
  707MOL0     C93237  10.834   6.216  10.572 -0.7686  0.2318 -0.3495
  707MOL0     C93238  10.697   6.229  10.601 -0.5306  0.2056 -0.3208
  707MOL0     O93239  10.499   6.188  10.955  0.3246 -0.4743 -0.1127
  707MOL0     C93240  10.224   6.228  10.727  0.9430 -0.5204  0.0987
  707MOL0     C93241  10.087   6.228  10.736 -0.3357 -0.4399  0.3450
  707MOL0     N93242   9.378   5.986  10.898  0.0828  0.2070 -0.6008
  707MOL0     N93243   9.315   5.918  10.811 -0.6567  0.7223  0.3040
  707MOL0     C93244  10.368   6.129  10.269  0.1039 -0.0239  0.0859
  707MOL0     C93245  10.500   6.118  10.240 -0.1199  0.4297 -0.1880
  707MOL0     C93246  10.943   5.971  10.235 -0.4862  0.3819 -0.6363
  707MOL0     C93247  11.041   5.868  10.236  0.1525  0.1142 -0.2104
  707MOL0     C93248  11.176   5.887  10.250  0.0908 -0.1214 -0.0183
  707MOL0     C93249  11.236   6.017  10.272  0.3984  0.7455  0.8105
  707MOL0     O93250  11.370   6.037  10.283  0.2797 -0.1711 -0.2598
  707MOL0     C93251  11.461   5.930  10.284  0.2525 -0.0285  0.3576
  707MOL0     C93252  11.597   5.999  10.284  0.5476 -0.5728  0.2639
  707MOL0     C93253  11.709   5.898  10.254 -0.2108 -0.0527  0.6958
  707MOL0     C93254  11.838   5.971  10.296  1.1032 -1.1884  0.1880
  707MOL0     C93255  11.866   6.085  10.212 -0.1951  0.8975 -0.3540
  707MOL0     C93256  11.878   6.170  10.131 -1.3065 -0.7923  0.1609
  707MOL0     C93257  11.133   6.114  10.282 -0.5982 -0.0343  0.8462
  707MOL0     C93258  11.001   6.099  10.258  0.8752  0.6229  0.5424
  707MOL0     H93259  10.618   5.911  10.477  2.2547  4.2385  0.2573
  707MOL0     H93260  10.388   5.937  10.552 -0.6722 -0.3855 -0.4062
  707MOL0     H93261  10.116   5.919  10.351  0.7731 -0.2462  2.4994
  707MOL0     H93262  10.072   6.061  10.270 -0.4160 -3.6592 -1.1170
  707MOL0     H93263   9.958   6.144  10.483  2.2323  0.2444  2.2786
  707MOL0     H93264   9.994   5.997  10.560  0.7701  4.2449  1.4953
  707MOL0     H93265   9.880   5.864  10.418  2.7235  1.4899  0.6937
  707MOL0     H93266   9.849   5.985  10.291  0.5202  0.3562 -0.2861
  707MOL0     H93267   9.741   5.979  10.581 -0.5788 -1.5368 -0.5158
  707MOL0     H93268   9.716   6.107  10.458  1.6715 -0.3979 -2.0788
  707MOL0     H93269   9.615   5.811  10.469 -1.1859  0.2725  3.1508
  707MOL0     H93270   9.608   5.894  10.320  0.3525  0.3745  0.1322
  707MOL0     H93271   9.447   6.065  10.425 -1.3798 -1.2747 -2.4576
  707MOL0     H93272   9.498   6.016  10.587  0.7574 -0.6796  0.1621
  707MOL0     H93273   9.329   5.865  10.396 -2.0048  0.0162  0.1963
  707MOL0     H93274   9.388   5.788  10.541  0.3755 -1.1115 -2.7542
  707MOL0     H93275   9.158   5.875  10.582 -0.7520  1.1922 -0.6254
  707MOL0     H93276   9.208   6.040  10.518 -0.5822  0.2691  0.1239
  707MOL0     H93277   9.265   6.216  10.703 -0.0651 -0.2862 -1.2229
  707MOL0     H93278   9.459   6.200  11.048  2.7558  2.9856  0.4228
  707MOL0     H93279   9.354   6.294  10.934 -0.8065 -2.0921  0.8789
  707MOL0     H93280   9.630   6.332  10.932  1.0293 -1.6212  1.9044
  707MOL0     H93281   9.547   6.296  10.779  2.7473 -0.8043 -0.2582
  707MOL0     H93282   9.706   6.106  10.961  0.7014  2.5538  1.0202
  707MOL0     H93283   9.629   6.060  10.803 -2.1664  1.2583 -0.8010
  707MOL0     H93284   9.768   6.227  10.696 -1.2215 -2.0431 -0.4435
  707MOL0     H93285   9.853   6.092  10.753  1.1598  1.0276 -0.3598
  707MOL0     H93286  10.048   6.225  11.075  0.2843  0.3237 -0.6607
  707MOL0     H93287  10.281   6.173  11.064 -0.8203 -0.7793  0.3729
  707MOL0     H93288  10.669   6.034  10.867  1.8774  0.9484  1.6979
  707MOL0     H93289  10.907   5.994  10.813 -1.4084  0.2043  1.7101
  707MOL0     H93290  11.137   5.965  10.723 -0.0313  0.6967 -0.3495
  707MOL0     H93291  11.115   6.109  10.823  0.7525  1.9866 -0.4816
  707MOL0     H93292  11.293   6.223  10.675 -0.7243  0.0119 -3.7115
  707MOL0     H93293  11.310   6.070  10.582  1.7378  0.4548  0.4816
  707MOL0     H93294  11.489   6.090  10.754  1.1828 -1.5261  1.3858
  707MOL0     H93295  11.372   5.956  10.773 -0.8616  0.5849 -2.3175
  707MOL0     H93296  11.379   6.222  10.930  0.8416 -0.2502  1.8869
  707MOL0     H93297  11.274   6.103  10.981  1.1689  0.9078  0.9967
  707MOL0     H93298  11.455   6.118  11.121 -0.3577  2.5833 -1.2025
  707MOL0     H93299  11.568   6.109  10.982  0.6574 -2.4548 -0.1944
  707MOL0     H93300  11.466   5.864  10.956 -0.2411 -1.6288  1.0202
  707MOL0     H93301  11.397   5.894  11.117  1.6926  0.4036  2.6844
  707MOL0     H93302  11.632   5.911  11.207 -0.5326  2.8914 -0.7340
  707MOL0     H93303  11.596   5.760  11.112 -2.2108  0.4583 -2.8842
  707MOL0     H93304  11.741   6.015  11.022 -1.7265  0.3019 -0.0566
  707MOL0     H93305  11.709   5.856  10.928 -0.4093 -0.7912  0.1900
  707MOL0     H93306  10.866   6.280  10.490 -3.0131  3.2028  0.8621
  707MOL0     H93307  10.632   6.295  10.544 -0.8292 -1.0248 -1.4356
  707MOL0     H93308  10.281   6.252  10.638 -0.7257 -1.0950 -1.1751
  707MOL0     H93309  10.035   6.241  10.641 -0.0473  2.0927  0.4485
  707MOL0     H93310  10.306   6.192  10.207  0.2836 -0.6225 -0.7237
  707MOL0     H93311  10.550   6.178  10.164  1.5714  1.3768  1.5680
  707MOL0     H93312  11.003   5.767  10.240 -1.1374  0.6232  0.7645
  707MOL0     H93313  11.241   5.800  10.255  2.2758  1.4408  0.1889
  707MOL0     H93314  11.443   5.867  10.197 -0.4612 -0.3534  0.7350
  707MOL0     H93315  11.444   5.854  10.360  0.0388  0.7585  1.1207
  707MOL0     H93316  11.596   6.088  10.220 -1.6441  0.4714  1.6337
  707MOL0     H93317  11.615   6.034  10.386  2.3005  1.4267 -0.6589
  707MOL0     H93318  11.713   5.872  10.148  0.2191  0.8453  0.4876
  707MOL0     H93319  11.700   5.810  10.319  1.3386 -0.4925  0.3445
  707MOL0     H93320  11.829   6.006  10.399 -2.0368  1.1600 -0.7112
  707MOL0     H93321  11.925   5.906  10.302  0.8307 -1.6147 -0.3755
  707MOL0     H93322  11.869   6.253  10.064 -0.2484 -1.3220 -0.6641
  707MOL0     H93323  11.164   6.210  10.323  2.4696 -0.8652  0.7472
  707MOL0     H93324  10.932   6.183  10.260 -0.7879 -0.6592 -0.5158
  708MOL0     O93325   6.613  10.616   8.908  0.0024  0.1361  0.5662
  708MOL0     C93326   6.539  10.619   8.814  0.0958 -0.9696  0.4892
  708MOL0     O93327   6.571  10.640   8.686  0.0030  0.2325  0.2304
  708MOL0     C93328   6.706  10.622   8.654  0.1212  0.3778 -0.3218
  708MOL0     C93329   6.735  10.693   8.546 -0.0966  0.4812  0.2722
  708MOL0     C93330   6.861  10.681   8.487  0.4630 -0.7424 -0.5822
  708MOL0     C93331   6.962  10.605   8.542  0.3042  0.3530  0.3341
  708MOL0     O93332   7.079  10.620   8.474 -0.1616  0.3966 -0.6066
  708MOL0     C93333   7.167  10.498   8.480 -0.3149 -0.5569 -0.2212
  708MOL0     C93334   7.279  10.533   8.385 -0.0394  1.0287 -0.1374
  708MOL0     C93335   7.394  10.437   8.405  0.4700 -0.2231  0.0115
  708MOL0     C93336   7.524  10.493   8.352  0.3181 -0.7862  0.0865
  708MOL0     C93337   7.640  10.398   8.371 -0.0122 -0.0709 -0.1942
  708MOL0     C93338   7.637  10.256   8.308 -0.4895 -0.1750 -0.2400
  708MOL0     C93339   7.593  10.249   8.163  0.0853  0.6346  0.0049
  708MOL0     C93340   7.561  10.105   8.118  0.3806  0.4384  0.3927
  708MOL0     N93341   7.439  10.058   8.186  0.2202  1.0236 -0.1290
  708MOL0     C93342   7.429   9.942   8.257  0.1311  0.7727 -0.3546
  708MOL0     C93343   7.293   9.925   8.270  0.3585  0.2535 -0.5549
  708MOL0     C93344   7.220   9.809   8.338 -0.0567  0.0671  0.6092
  708MOL0     C93345   7.093   9.759   8.266 -0.8537  0.3609  0.3986
  708MOL0     C93346   6.975   9.837   8.286  0.6864 -0.5340 -0.1928
  708MOL0     C93347   6.842   9.786   8.233 -0.0957 -0.0778  0.8872
  708MOL0     O93348   6.743   9.884   8.199  0.7306  0.3920 -0.8945
  708MOL0     C93349   6.656   9.923   8.299  0.3480  1.0032 -0.5136
  708MOL0     C93350   6.552  10.001   8.249  0.3420  0.7824 -0.3927
  708MOL0     C93351   6.442  10.044   8.328 -0.9743  0.4025 -0.5775
  708MOL0     C93352   6.434  10.008   8.464 -0.3549  0.2402 -0.2043
  708MOL0     C93353   6.303  10.027   8.530  0.5464  0.0233  0.1019
  708MOL0     O93354   6.216  10.121   8.487 -0.3196  0.6922 -0.0752
  708MOL0     C93355   6.081  10.098   8.492 -0.5797  0.4314 -0.7615
  708MOL0     C93356   6.004  10.202   8.537  0.1165  0.5086 -0.3972
  708MOL0     C93357   5.862  10.186   8.557  0.4200  0.3588 -0.4761
  708MOL0     C93358   5.795  10.071   8.530 -0.0715  1.0104  0.2385
  708MOL0     O93359   5.662  10.058   8.546  0.5272 -0.3401  0.2892
  708MOL0     C93360   5.603  10.143   8.650  0.2117  1.0965 -0.2021
  708MOL0     C93361   5.481  10.064   8.697 -0.5579  0.2314 -0.8276
  708MOL0     C93362   5.373  10.067   8.588  0.5482 -0.1333  0.2768
  708MOL0     C93363   5.248  10.020   8.656  1.1149 -0.3368 -0.0141
  708MOL0     C93364   5.124  10.049   8.566  0.5287  0.2257 -1.6244
  708MOL0     C93365   5.083   9.953   8.460 -0.1988  0.2456 -0.3074
  708MOL0     C93366   4.936   9.943   8.441 -0.1795 -0.5699 -0.9557
  708MOL0     C93367   4.859   9.836   8.528 -0.6441 -0.6704 -0.7311
  708MOL0    Cl93368   4.679   9.850   8.501 -0.3372  0.6086 -0.1622
  708MOL0     C93369   5.870   9.966   8.463 -0.1122 -0.3762  0.2987
  708MOL0     C93370   6.017   9.982   8.447  0.7927  0.4974 -0.6862
  708MOL0     O93371   6.280   9.956   8.629  0.0378 -0.2956  0.3370
  708MOL0     C93372   6.541   9.928   8.512  0.2658 -0.6766  0.5866
  708MOL0     C93373   6.648   9.890   8.439 -0.7333  1.0547  1.0504
  708MOL0     N93374   7.226  10.033   8.213  0.1380  0.5392 -0.6164
  708MOL0     N93375   7.313  10.114   8.165  0.1664  0.3882  0.0893
  708MOL0     C93376   6.936  10.526   8.656 -0.2320  0.3533 -0.6380
  708MOL0     C93377   6.804  10.539   8.709 -0.1372 -0.4930  1.1837
  708MOL0     C93378   6.395  10.628   8.860 -0.8532  0.0364  0.8426
  708MOL0     C93379   6.364  10.627   8.995  0.3159  0.1816  0.5094
  708MOL0     C93380   6.232  10.634   9.029 -1.0476 -0.5145  0.0838
  708MOL0     C93381   6.131  10.656   8.934  1.1562  0.7534 -0.7006
  708MOL0     O93382   6.005  10.641   8.978 -0.8590 -0.1989  0.3849
  708MOL0     C93383   5.968  10.525   9.056  0.1697  0.3526  0.1537
  708MOL0     C93384   5.947  10.406   8.952  0.2728 -0.1450  0.3502
  708MOL0     C93385   5.846  10.429   8.829 -0.2951  0.4980  0.5954
  708MOL0     C93386   5.717  10.487   8.865  0.4958 -0.0989 -0.5058
  708MOL0     C93387   5.639  10.402   8.963 -0.2097  0.6309  0.3420
  708MOL0     C93388   5.574  10.338   9.044  0.2592  0.7494  0.1685
  708MOL0     C93389   6.161  10.645   8.797 -0.0349 -0.0924 -0.8857
  708MOL0     C93390   6.295  10.629   8.759  0.6567  0.3869  0.2114
  708MOL0     H93391   6.655  10.743   8.492 -2.1866 -0.6278  2.1610
  708MOL0     H93392   6.885  10.745   8.402 -1.8432  0.0103 -0.7242
  708MOL0     H93393   7.111  10.406   8.459 -0.4925 -0.2413 -1.2103
  708MOL0     H93394   7.195  10.493   8.585 -0.8598  1.2023  0.0465
  708MOL0     H93395   7.319  10.631   8.411  3.4334 -0.2477 -0.1375
  708MOL0     H93396   7.240  10.525   8.283  2.0402 -0.0022 -0.9155
  708MOL0     H93397   7.361  10.353   8.342 -0.3952  1.7621 -2.3566
  708MOL0     H93398   7.402  10.407   8.510  0.6012  0.7062  0.2740
  708MOL0     H93399   7.515  10.521   8.247  1.6690  1.5648  0.5234
  708MOL0     H93400   7.546  10.587   8.404  2.2524 -1.4613  0.5830
  708MOL0     H93401   7.647  10.374   8.478 -0.4039 -0.8580 -0.3411
  708MOL0     H93402   7.734  10.443   8.338  0.0978  2.0209  2.6243
  708MOL0     H93403   7.553  10.212   8.363 -0.2825 -2.5673 -1.6938
  708MOL0     H93404   7.728  10.197   8.319  0.2700  0.9743 -0.0948
  708MOL0     H93405   7.504  10.311   8.149  0.2109  0.9036  0.3840
  708MOL0     H93406   7.674  10.290   8.101  0.6600  2.5564  1.8936
  708MOL0     H93407   7.647  10.041   8.139  0.1345 -0.2800 -0.7200
  708MOL0     H93408   7.550  10.109   8.010  1.9683 -0.1434  0.1825
  708MOL0     H93409   7.518   9.890   8.290  0.0333  1.9925  2.0516
  708MOL0     H93410   7.195   9.828   8.442 -1.0922 -0.0854  0.4011
  708MOL0     H93411   7.295   9.729   8.344 -1.6368 -1.6826 -1.0873
  708MOL0     H93412   7.070   9.659   8.304  0.5959  0.0321  0.4971
  708MOL0     H93413   7.105   9.747   8.157 -0.8618 -1.7852  0.5864
  708MOL0     H93414   6.969   9.855   8.394  2.3386  2.3706 -0.4749
  708MOL0     H93415   6.994   9.934   8.238 -0.4620  0.1273  0.6368
  708MOL0     H93416   6.796   9.712   8.299 -0.5527 -1.9973 -1.4654
  708MOL0     H93417   6.874   9.734   8.142  1.5582  0.0086  1.3855
  708MOL0     H93418   6.557  10.014   8.141  0.2242 -1.1406 -0.6578
  708MOL0     H93419   6.368  10.102   8.274 -1.9007  0.8642  1.1189
  708MOL0     H93420   6.047  10.293   8.578  1.4814 -1.1569  2.0928
  708MOL0     H93421   5.798  10.271   8.576 -0.2774 -0.3334  0.3391
  708MOL0     H93422   5.566  10.242   8.622 -0.1720  1.3607  1.1592
  708MOL0     H93423   5.675  10.155   8.732  1.0699  2.4243 -1.1044
  708MOL0     H93424   5.440  10.112   8.786 -3.8588 -1.9574 -0.9792
  708MOL0     H93425   5.504   9.961   8.729  0.1184  0.7616  0.4738
  708MOL0     H93426   5.402   9.988   8.518 -0.5464 -1.6831  1.4924
  708MOL0     H93427   5.367  10.166   8.543  1.2495 -0.2119 -0.0020
  708MOL0     H93428   5.260   9.913   8.675 -0.1576 -0.3942  0.5993
  708MOL0     H93429   5.233  10.081   8.745  2.0486  3.7726 -2.3809
  708MOL0     H93430   5.153  10.146   8.524 -1.2000  0.3891 -2.5357
  708MOL0     H93431   5.039  10.067   8.631  2.5818  1.3485  0.9409
  708MOL0     H93432   5.116   9.853   8.492 -0.6371  0.3151  0.3938
  708MOL0     H93433   5.140   9.982   8.371 -0.6745 -1.7609 -1.3124
  708MOL0     H93434   4.887  10.035   8.474  2.2692  0.1253  1.1024
  708MOL0     H93435   4.913   9.926   8.336  1.5097  1.8053 -1.8001
  708MOL0     H93436   4.884   9.867   8.630  0.3775  2.8512 -1.8970
  708MOL0     H93437   4.889   9.734   8.505 -3.6910 -1.6257 -0.7559
  708MOL0     H93438   5.801   9.886   8.439 -2.3457  0.7439  2.5761
  708MOL0     H93439   6.076   9.899   8.411  2.0751  0.2805  1.6951
  708MOL0     H93440   6.522   9.893   8.613  0.0194  0.7247  1.0475
  708MOL0     H93441   6.730   9.835   8.484  0.6836  1.9203 -0.3758
  708MOL0     H93442   7.008  10.457   8.700 -1.0510 -1.0740 -1.4405
  708MOL0     H93443   6.772  10.474   8.790  2.8132 -0.9083  2.1308
  708MOL0     H93444   6.431  10.593   9.073  0.2332  0.6417  0.7825
  708MOL0     H93445   6.211  10.614   9.134 -1.3646 -2.0500 -0.2370
  708MOL0     H93446   5.876  10.537   9.114  0.8389  2.3468  0.9133
  708MOL0     H93447   6.044  10.502   9.131  0.3020  0.5474  0.0794
  708MOL0     H93448   6.039  10.378   8.900  0.0715 -2.6084  1.1793
  708MOL0     H93449   5.929  10.313   9.007  1.3401 -1.6771 -1.7503
  708MOL0     H93450   5.837  10.323   8.805  1.7035 -0.3604  3.1398
  708MOL0     H93451   5.912  10.469   8.751 -0.8705 -2.4586 -1.6013
  708MOL0     H93452   5.715  10.589   8.905 -1.8147 -0.8853  1.6239
  708MOL0     H93453   5.653  10.499   8.777  0.8737 -1.7969 -1.0470
  708MOL0     H93454   5.516  10.284   9.116 -1.6254  0.7421 -1.2811
  708MOL0     H93455   6.089  10.639   8.717  0.8860 -1.5394 -1.6555
  708MOL0     H93456   6.327  10.633   8.655  1.7380  1.1892  0.5579
  709MOL0     O93457   7.226   5.589   4.865 -0.3518 -0.6275 -0.0696
  709MOL0     C93458   7.212   5.592   4.742 -0.0894  0.5712  1.4747
  709MOL0     O93459   7.095   5.582   4.665 -0.3415 -0.2325 -0.0430
  709MOL0     C93460   6.971   5.603   4.729 -0.4116 -0.1349  0.0186
  709MOL0     C93461   6.879   5.675   4.655  0.0420 -0.5684 -0.1122
  709MOL0     C93462   6.749   5.704   4.695  0.0654 -0.2482 -0.1363
  709MOL0     C93463   6.703   5.655   4.819 -0.7130  0.6173 -0.2611
  709MOL0     O93464   6.575   5.676   4.859 -0.0451  1.1186  0.3496
  709MOL0     C93465   6.520   5.579   4.952 -0.9433 -0.6644  0.0638
  709MOL0     C93466   6.369   5.577   4.945  0.4417 -0.4114  0.0801
  709MOL0     C93467   6.315   5.502   5.076  0.2095 -0.3459 -0.0962
  709MOL0     C93468   6.168   5.473   5.049 -0.5788  0.1119 -0.3852
  709MOL0     C93469   6.082   5.425   5.170 -0.0704 -0.7710 -0.1044
  709MOL0     C93470   5.938   5.384   5.136  0.9437  0.3633  0.4190
  709MOL0     C93471   5.872   5.481   5.039  0.7307  0.0959  0.8537
  709MOL0     C93472   5.724   5.435   5.022 -0.0947  0.3118 -0.4520
  709MOL0     N93473   5.642   5.478   5.144 -0.7742 -0.2179  0.6392
  709MOL0     C93474   5.599   5.609   5.164  0.3897  0.8389 -0.2141
  709MOL0     C93475   5.507   5.595   5.260 -0.4963  0.5122 -0.4692
  709MOL0     C93476   5.434   5.710   5.325 -1.4532 -0.4785 -0.7041
  709MOL0     C93477   5.332   5.765   5.236  0.1950  0.3808 -0.7324
  709MOL0     C93478   5.274   5.885   5.304  1.5222 -1.0915  0.0746
  709MOL0     C93479   5.184   5.967   5.212  0.8514  0.3358  0.2908
  709MOL0     O93480   5.181   6.093   5.275 -0.3919 -0.7625 -0.2324
  709MOL0     C93481   5.068   6.168   5.281 -0.8831  0.7987 -0.1655
  709MOL0     C93482   4.952   6.155   5.200 -0.6827 -0.4054 -0.0551
  709MOL0     C93483   4.836   6.234   5.222  0.7095  0.2406 -0.0748
  709MOL0     C93484   4.837   6.329   5.326  0.4610 -0.2970  0.7189
  709MOL0     C93485   4.732   6.426   5.345  0.8719 -0.7353  0.4613
  709MOL0     O93486   4.645   6.442   5.244  0.5657  0.7028 -0.1752
  709MOL0     C93487   4.538   6.524   5.253  0.3010 -1.0840 -0.0881
  709MOL0     C93488   4.533   6.649   5.327  0.4654 -0.6687  0.8102
  709MOL0     C93489   4.421   6.734   5.323  0.2060 -0.7847 -0.0607
  709MOL0     C93490   4.314   6.695   5.252  1.1329  0.5236 -0.0457
  709MOL0     O93491   4.201   6.772   5.262 -0.3431  0.2635 -1.0188
  709MOL0     C93492   4.089   6.762   5.179 -0.3857  0.4148  0.4508
  709MOL0     C93493   3.963   6.846   5.221  0.3432 -0.3951 -1.0843
  709MOL0     C93494   3.847   6.834   5.124 -0.2948 -0.1315 -0.2741
  709MOL0     C93495   3.721   6.906   5.166 -0.6673  0.8633  0.1397
  709MOL0     C93496   3.627   6.804   5.234 -1.2015 -0.2902  0.6712
  709MOL0     C93497   3.508   6.865   5.304  0.3033 -0.2720 -0.3234
  709MOL0     C93498   3.441   6.760   5.396 -0.3870 -0.0109 -0.0027
  709MOL0     C93499   3.296   6.798   5.430  0.4437 -0.5057 -0.5429
  709MOL0    Cl93500   3.192   6.830   5.282 -0.8376 -0.2584 -0.0951
  709MOL0     C93501   4.316   6.574   5.175 -0.3750 -0.0605 -0.1410
  709MOL0     C93502   4.426   6.488   5.176  0.1126 -0.0979 -0.3522
  709MOL0     O93503   4.722   6.489   5.457 -0.0309  0.3386 -0.2396
  709MOL0     C93504   4.949   6.332   5.409  0.1566 -0.3050 -0.2493
  709MOL0     C93505   5.066   6.258   5.388  1.0836 -0.5925  0.4351
  709MOL0     N93506   5.486   5.464   5.294  0.3145  0.1566 -0.6556
  709MOL0     N93507   5.572   5.393   5.227  0.2724 -0.3662  0.0792
  709MOL0     C93508   6.788   5.578   4.899  0.6118 -0.0186  0.2339
  709MOL0     C93509   6.920   5.548   4.847  0.2466  1.4398 -0.4301
  709MOL0     C93510   7.329   5.598   4.647 -0.3936 -0.2062  0.0617
  709MOL0     C93511   7.308   5.588   4.509 -0.5081  0.2989  0.6429
  709MOL0     C93512   7.420   5.593   4.424  0.9558 -0.9951 -0.4945
  709MOL0     C93513   7.548   5.621   4.476 -0.7716  0.5066 -0.2326
  709MOL0     O93514   7.649   5.624   4.386 -0.4018  0.2103  0.7479
  709MOL0     C93515   7.771   5.694   4.415 -0.1244 -0.4310  0.2363
  709MOL0     C93516   7.775   5.837   4.376 -0.3115  0.0042  0.8553
  709MOL0     C93517   7.782   5.864   4.223  0.2399 -0.2258  0.2966
  709MOL0     C93518   7.748   6.001   4.174  0.1094 -0.0141  0.0489
  709MOL0     C93519   7.614   6.051   4.222 -0.1031 -0.3222 -0.0995
  709MOL0     C93520   7.515   6.097   4.261  0.7428 -0.1660 -0.1923
  709MOL0     C93521   7.564   5.640   4.612 -0.4945 -0.4819 -0.0148
  709MOL0     C93522   7.459   5.630   4.703  0.3947  0.0720 -0.2271
  709MOL0     H93523   6.923   5.719   4.567 -2.2066  0.6406 -0.7190
  709MOL0     H93524   6.694   5.772   4.630  0.4552  1.5975  1.3703
  709MOL0     H93525   6.540   5.608   5.056  0.0817 -0.4903 -0.1728
  709MOL0     H93526   6.561   5.478   4.943  2.2351  0.2411  2.5568
  709MOL0     H93527   6.334   5.525   4.855  2.1997 -1.4657 -0.0483
  709MOL0     H93528   6.330   5.679   4.943 -2.1369 -1.1346  3.6629
  709MOL0     H93529   6.343   5.553   5.168 -1.0471  2.7812 -1.3081
  709MOL0     H93530   6.362   5.403   5.078 -1.6352 -1.2573  2.4593
  709MOL0     H93531   6.124   5.570   5.022 -5.4649 -1.8793 -0.5617
  709MOL0     H93532   6.154   5.403   4.966 -1.8308  1.4436 -1.3483
  709MOL0     H93533   6.088   5.505   5.245  1.3709  0.3199 -1.3230
  709MOL0     H93534   6.133   5.339   5.213 -1.3722 -2.8563 -2.4921
  709MOL0     H93535   5.881   5.382   5.229  0.9564  3.9737  0.6348
  709MOL0     H93536   5.933   5.286   5.087  1.8083  1.2481 -1.5255
  709MOL0     H93537   5.860   5.580   5.085 -1.6192  0.7345 -0.9554
  709MOL0     H93538   5.915   5.507   4.942 -2.8645  2.8653 -0.2229
  709MOL0     H93539   5.715   5.327   5.012  2.0954 -0.0132  0.5596
  709MOL0     H93540   5.686   5.480   4.930 -1.4598  1.4221  0.6000
  709MOL0     H93541   5.623   5.698   5.107  0.3627  0.5339 -0.7089
  709MOL0     H93542   5.511   5.780   5.359 -0.8583 -1.1298 -0.6776
  709MOL0     H93543   5.390   5.681   5.421  1.5857 -0.5949  0.7952
  709MOL0     H93544   5.246   5.698   5.223 -1.7185  2.3109  1.0724
  709MOL0     H93545   5.376   5.788   5.138  1.1728  2.4793  0.1288
  709MOL0     H93546   5.219   5.854   5.393  0.6301 -0.7622 -0.3502
  709MOL0     H93547   5.349   5.956   5.338  0.0049  0.2253  0.8165
  709MOL0     H93548   5.088   5.914   5.212  2.0998 -2.1178  2.8888
  709MOL0     H93549   5.214   5.971   5.107  0.5388 -3.0438 -0.0187
  709MOL0     H93550   4.942   6.078   5.125 -0.0985  0.0019 -0.5625
  709MOL0     H93551   4.752   6.223   5.154 -2.6825  0.1977  3.7537
  709MOL0     H93552   4.626   6.694   5.362  0.5579  0.1784 -0.4420
  709MOL0     H93553   4.437   6.837   5.353  0.9034 -0.1047 -2.5531
  709MOL0     H93554   4.064   6.658   5.156  1.1912 -0.8786  3.8706
  709MOL0     H93555   4.132   6.808   5.090 -0.9967  0.4294  0.1611
  709MOL0     H93556   3.993   6.951   5.232 -1.0966 -0.1119  0.6282
  709MOL0     H93557   3.927   6.814   5.319  2.9146  0.3395  0.1622
  709MOL0     H93558   3.829   6.728   5.108  0.2535 -0.5322  1.5584
  709MOL0     H93559   3.881   6.881   5.031  0.0436 -0.3166 -0.2450
  709MOL0     H93560   3.748   6.988   5.233 -1.1638  1.9147 -0.9113
  709MOL0     H93561   3.665   6.951   5.083  1.4386  1.1195 -1.2142
  709MOL0     H93562   3.688   6.759   5.313 -1.6126  1.6325  2.1577
  709MOL0     H93563   3.597   6.731   5.159 -1.0802  0.2228  0.1114
  709MOL0     H93564   3.439   6.906   5.229  1.7395  2.5007 -0.2391
  709MOL0     H93565   3.543   6.954   5.357  0.0390 -0.9888  1.0829
  709MOL0     H93566   3.440   6.663   5.344 -0.4978  1.2935 -2.5854
  709MOL0     H93567   3.511   6.756   5.480 -1.3200 -1.9490  0.7395
  709MOL0     H93568   3.305   6.886   5.495 -0.8314 -2.0292  1.8357
  709MOL0     H93569   3.238   6.728   5.491 -0.4113  0.5571 -0.1110
  709MOL0     H93570   4.231   6.546   5.113  0.3315 -0.3403 -1.0057
  709MOL0     H93571   4.427   6.396   5.119  0.6655 -0.7897  0.7439
  709MOL0     H93572   4.956   6.398   5.495  1.3536 -0.0309 -0.5389
  709MOL0     H93573   5.148   6.264   5.459  1.6662  0.5087 -0.2895
  709MOL0     H93574   6.768   5.526   4.992  0.2889 -0.4643 -0.0830
  709MOL0     H93575   6.992   5.491   4.904 -0.0353  2.7785  1.3510
  709MOL0     H93576   7.214   5.559   4.462  1.0698 -0.2314 -2.4661
  709MOL0     H93577   7.427   5.583   4.316  0.9439  1.6789 -0.8036
  709MOL0     H93578   7.854   5.637   4.373 -0.1430  0.4682 -1.1151
  709MOL0     H93579   7.779   5.692   4.524 -5.6066 -0.7691  0.9059
  709MOL0     H93580   7.684   5.882   4.416 -0.8167 -0.0267 -0.2320
  709MOL0     H93581   7.868   5.884   4.411  0.1257 -0.2535  0.0588
  709MOL0     H93582   7.715   5.792   4.175  1.7644  0.0502 -2.4154
  709MOL0     H93583   7.883   5.833   4.195 -0.2756 -2.0187  0.2338
  709MOL0     H93584   7.829   6.071   4.198  0.0512 -0.7400  2.6147
  709MOL0     H93585   7.731   5.986   4.067 -1.8038 -1.9252  0.5499
  709MOL0     H93586   7.421   6.143   4.285  0.1920  0.3030 -2.9314
  709MOL0     H93587   7.659   5.666   4.657 -1.5266  2.5363  0.6735
  709MOL0     H93588   7.477   5.631   4.810  3.3201  0.5689 -0.6467
  710MOL0     O93589   1.577   0.416   9.512 -0.0398 -0.3843  0.3783
  710MOL0     C93590   1.529   0.319   9.449  0.2129 -0.8851  0.0542
  710MOL0     O93591   1.399   0.275   9.447 -0.2977  0.1691 -1.0316
  710MOL0     C93592   1.287   0.340   9.499  0.0776  0.1565  0.0581
  710MOL0     C93593   1.295   0.459   9.568 -0.2246  0.7425 -0.0531
  710MOL0     C93594   1.184   0.518   9.622  0.2937 -0.0274  0.0243
  710MOL0     C93595   1.060   0.453   9.616  0.0575  0.7390  0.0373
  710MOL0     O93596   0.968   0.518   9.696  0.6996  0.2650 -0.3999
  710MOL0     C93597   0.832   0.466   9.691  0.2569  0.4297 -0.1005
  710MOL0     C93598   0.761   0.526   9.560 -0.5534  0.2154  0.0762
  710MOL0     C93599   0.612   0.529   9.582  0.5100 -0.3980  0.5771
  710MOL0     C93600   0.554   0.390   9.583  0.1342  0.6776  0.0403
  710MOL0     C93601   0.401   0.396   9.624 -0.0909 -0.0785 -0.1600
  710MOL0     C93602   0.319   0.470   9.510 -1.5674  0.3727 -0.8894
  710MOL0     C93603   0.162   0.464   9.527  0.5701 -0.1642 -0.3779
  710MOL0     C93604   0.135   0.540   9.657 -0.4652 -0.4680  0.1895
  710MOL0     N93605  -0.008   0.556   9.678 -0.7842  0.0791 -0.0410
  710MOL0     C93606  -0.084   0.614   9.579 -0.4377 -0.9085 -0.7510
  710MOL0     C93607  -0.209   0.606   9.619 -0.1021  0.3903 -0.2108
  710MOL0     C93608  -0.333   0.637   9.542 -0.1311  0.0790  0.0493
  710MOL0     C93609  -0.393   0.772   9.570 -0.2282  0.1532  0.7999
  710MOL0     C93610  -0.491   0.813   9.465  0.0369 -0.1735  0.1881
  710MOL0     C93611  -0.617   0.730   9.473  0.0094  1.4267  0.0096
  710MOL0     O93612  -0.705   0.787   9.375  0.2430  0.9537 -0.4386
  710MOL0     C93613  -0.828   0.734   9.357  0.8746  0.0159 -0.0213
  710MOL0     C93614  -0.884   0.636   9.438 -0.1820  0.1592 -0.0267
  710MOL0     C93615  -1.017   0.588   9.421  0.3386  0.5487  0.5400
  710MOL0     C93616  -1.106   0.652   9.331 -0.1361 -0.3382 -0.5755
  710MOL0     C93617  -1.240   0.602   9.314  1.0709 -0.3669  0.5473
  710MOL0     O93618  -1.316   0.677   9.221  0.1810  0.5873 -0.1914
  710MOL0     C93619  -1.434   0.623   9.171 -0.0157  1.0229  0.1466
  710MOL0     C93620  -1.556   0.707   9.166 -0.1274  0.2316 -1.3748
  710MOL0     C93621  -1.677   0.658   9.124 -0.1842 -0.0121  0.8230
  710MOL0     C93622  -1.681   0.525   9.077 -0.8280 -0.4640  0.8658
  710MOL0     O93623  -1.802   0.467   9.050 -0.3811 -0.1868 -0.0080
  710MOL0     C93624  -1.855   0.491   8.915 -0.9885  0.0591  0.6636
  710MOL0     C93625  -1.945   0.363   8.885  0.0306 -0.3184  0.1260
  710MOL0     C93626  -2.021   0.392   8.757  0.2369 -0.3232 -0.3632
  710MOL0     C93627  -2.051   0.263   8.683 -0.1466 -0.3908 -0.6205
  710MOL0     C93628  -2.138   0.157   8.765 -0.6569 -0.6117  0.3671
  710MOL0     C93629  -2.281   0.186   8.782 -0.2206 -0.3507  0.9575
  710MOL0     C93630  -2.366   0.179   8.650  0.3103 -0.3702 -0.1884
  710MOL0     C93631  -2.488   0.093   8.649 -0.5024  0.9391  0.9066
  710MOL0    Cl93632  -2.596   0.143   8.777 -0.2234  0.1691  0.0009
  710MOL0     C93633  -1.563   0.444   9.072  0.5541 -0.3269  0.9783
  710MOL0     C93634  -1.444   0.496   9.112 -0.6686  0.3964 -0.5787
  710MOL0     O93635  -1.283   0.504   9.380 -0.2635  0.0515  0.0838
  710MOL0     C93636  -1.052   0.743   9.240 -0.5659 -0.8519 -0.6058
  710MOL0     C93637  -0.915   0.783   9.258 -0.3914 -0.6375 -0.7720
  710MOL0     N93638  -0.207   0.562   9.749 -1.0134  0.2160 -0.6162
  710MOL0     N93639  -0.087   0.529   9.783  0.0687 -0.4890 -0.4011
  710MOL0     C93640   1.046   0.337   9.537  0.3825  0.0318 -0.2193
  710MOL0     C93641   1.163   0.282   9.486  0.1622 -0.5785  0.1865
  710MOL0     C93642   1.620   0.238   9.371  0.0109  0.2659 -0.1867
  710MOL0     C93643   1.575   0.128   9.296  0.0688 -0.4946 -0.2190
  710MOL0     C93644   1.658   0.072   9.211 -0.2909  0.0299 -0.6896
  710MOL0     C93645   1.798   0.087   9.209  0.8878 -0.2860  0.2105
  710MOL0     O93646   1.874   0.021   9.110  0.6316  0.2517  0.0092
  710MOL0     C93647   1.983   0.088   9.042 -0.2415  0.3099 -1.0034
  710MOL0     C93648   1.941   0.195   8.949  0.1909 -0.3465  0.5583
  710MOL0     C93649   2.058   0.254   8.869 -0.3407  0.0641 -0.0355
  710MOL0     C93650   2.094   0.168   8.748 -0.1027 -0.0037  0.3973
  710MOL0     C93651   2.165   0.255   8.662  0.1388 -0.3882 -1.1439
  710MOL0     C93652   2.236   0.314   8.586 -0.3062 -0.2642 -0.1896
  710MOL0     C93653   1.849   0.191   9.298 -0.1152  0.2644  0.3906
  710MOL0     C93654   1.759   0.270   9.364  0.1500  0.0726 -1.0394
  710MOL0     H93655   1.388   0.514   9.584 -0.2266  0.8682 -0.4707
  710MOL0     H93656   1.193   0.614   9.672  2.1945  0.7448 -1.6458
  710MOL0     H93657   0.786   0.498   9.785  2.0418 -0.7848  1.2396
  710MOL0     H93658   0.834   0.357   9.694 -0.9021  0.3603 -1.0067
  710MOL0     H93659   0.792   0.474   9.469 -0.4698 -1.8650  1.2278
  710MOL0     H93660   0.796   0.629   9.548  0.7581 -0.5111 -3.6500
  710MOL0     H93661   0.571   0.589   9.500  1.3991 -0.1553  0.2933
  710MOL0     H93662   0.581   0.577   9.675  0.8882  2.5116 -0.7002
  710MOL0     H93663   0.571   0.351   9.482  1.5895  0.0862  0.4834
  710MOL0     H93664   0.606   0.324   9.653 -1.7602 -0.1581  0.7118
  710MOL0     H93665   0.386   0.436   9.725 -0.9010 -0.1407 -0.2487
  710MOL0     H93666   0.370   0.291   9.624  1.7624 -0.6651 -1.2949
  710MOL0     H93667   0.346   0.418   9.418  1.4402  2.7318 -1.5005
  710MOL0     H93668   0.361   0.571   9.504  2.6453 -1.1677  0.0415
  710MOL0     H93669   0.100   0.508   9.447 -1.5279 -0.9552  0.7278
  710MOL0     H93670   0.131   0.360   9.541  1.4013 -0.2401  1.1050
  710MOL0     H93671   0.196   0.631   9.664  1.1280 -1.3462 -1.4691
  710MOL0     H93672   0.170   0.473   9.736  0.2861 -0.7279 -0.3583
  710MOL0     H93673  -0.040   0.661   9.492  1.5015 -1.6243 -0.2207
  710MOL0     H93674  -0.417   0.570   9.565 -2.6959  1.8216 -3.3470
  710MOL0     H93675  -0.298   0.628   9.438 -3.1549 -2.5147 -0.9022
  710MOL0     H93676  -0.313   0.847   9.572  1.4982 -1.5769 -0.2731
  710MOL0     H93677  -0.441   0.762   9.668  1.9435  0.2654  1.9440
  710MOL0     H93678  -0.509   0.919   9.485 -0.3815 -0.2898  0.4325
  710MOL0     H93679  -0.439   0.807   9.369 -2.2397  0.5848 -1.1761
  710MOL0     H93680  -0.660   0.744   9.572  2.2050  1.1129  1.0761
  710MOL0     H93681  -0.598   0.625   9.451  0.6221  1.6268 -0.4749
  710MOL0     H93682  -0.829   0.579   9.512 -1.5836  0.1841  1.0726
  710MOL0     H93683  -1.052   0.501   9.477  1.5808  0.5248  1.3302
  710MOL0     H93684  -1.543   0.802   9.218 -2.6500  0.9619 -1.9632
  710MOL0     H93685  -1.763   0.722   9.106  0.2753  0.0048 -1.7176
  710MOL0     H93686  -1.784   0.503   8.832 -0.5385  5.2109  1.4675
  710MOL0     H93687  -1.917   0.582   8.913 -0.9725  0.0687  0.5556
  710MOL0     H93688  -2.014   0.343   8.967  0.6072 -0.1942  0.6513
  710MOL0     H93689  -1.887   0.271   8.869 -0.1042 -0.0908 -1.9156
  710MOL0     H93690  -1.959   0.443   8.682  0.9596  0.4301  0.7246
  710MOL0     H93691  -2.115   0.442   8.781  0.4505 -0.4302  0.7523
  710MOL0     H93692  -2.097   0.284   8.586  0.2921  1.0174 -0.5439
  710MOL0     H93693  -1.956   0.214   8.658 -0.9267 -1.6185 -1.3492
  710MOL0     H93694  -2.090   0.123   8.857  0.6577 -3.2899 -1.2182
  710MOL0     H93695  -2.124   0.073   8.697  0.2869 -0.2354  0.0779
  710MOL0     H93696  -2.302   0.283   8.829  1.3307 -0.5545  2.1346
  710MOL0     H93697  -2.317   0.107   8.849  1.3823 -0.7720  1.3671
  710MOL0     H93698  -2.396   0.281   8.623 -0.7102 -1.2854 -2.9191
  710MOL0     H93699  -2.301   0.143   8.570 -0.0754  0.7771 -1.0588
  710MOL0     H93700  -2.461  -0.011   8.668  0.6833  1.4246  2.0760
  710MOL0     H93701  -2.536   0.096   8.551  1.5074 -1.7446 -0.2780
  710MOL0     H93702  -1.570   0.341   9.041 -0.2234 -0.0511  0.1839
  710MOL0     H93703  -1.353   0.437   9.107 -1.0416 -0.3823  0.9994
  710MOL0     H93704  -1.108   0.783   9.156  0.2940  2.4788  0.2692
  710MOL0     H93705  -0.864   0.849   9.188 -2.3213  2.5926  0.6710
  710MOL0     H93706   0.958   0.273   9.532  1.7995 -1.8652 -2.5586
  710MOL0     H93707   1.147   0.183   9.444 -0.9597 -0.2147 -0.2879
  710MOL0     H93708   1.469   0.103   9.291 -1.1394  3.7090 -0.4404
  710MOL0     H93709   1.617  -0.012   9.156  2.3654 -1.7273 -0.2107
  710MOL0     H93710   2.037   0.009   8.988  1.1737  0.2628  0.4283
  710MOL0     H93711   2.062   0.126   9.107 -1.2376 -0.0014  0.4183
  710MOL0     H93712   1.867   0.155   8.879  1.1368  0.1667 -0.7691
  710MOL0     H93713   1.896   0.279   9.003  0.5089  0.6534 -0.7137
  710MOL0     H93714   2.146   0.258   8.934  0.0380  2.1481 -0.6049
  710MOL0     H93715   2.034   0.355   8.835  0.1832 -0.6188 -2.6453
  710MOL0     H93716   2.154   0.077   8.760 -1.9717 -1.4496 -0.6401
  710MOL0     H93717   1.999   0.132   8.707  0.0209  0.0536  0.0586
  710MOL0     H93718   2.300   0.375   8.525  2.3714  0.4368  3.0462
  710MOL0     H93719   1.957   0.206   9.304 -0.1017  0.1023  0.5652
  710MOL0     H93720   1.788   0.364   9.411 -1.1796  0.4869 -1.0023
  711MOL0     O93721   1.561   9.363   8.828 -0.4478 -0.8925  0.1033
  711MOL0     C93722   1.580   9.266   8.903 -0.6764 -0.0297 -0.3978
  711MOL0     O93723   1.494   9.169   8.940  0.2053 -0.6821 -0.4621
  711MOL0     C93724   1.356   9.168   8.905 -0.2470  0.1832 -0.4911
  711MOL0     C93725   1.288   9.278   8.851 -0.3327 -0.8147  0.2121
  711MOL0     C93726   1.147   9.289   8.853  0.0218 -1.1704 -0.3821
  711MOL0     C93727   1.073   9.181   8.901 -0.0857 -0.1207 -0.7769
  711MOL0     O93728   0.934   9.177   8.897  0.2484 -0.3418  0.1473
  711MOL0     C93729   0.861   9.300   8.935 -0.3801 -0.0586  0.9687
  711MOL0     C93730   0.711   9.297   8.913  0.2975 -0.4699 -0.2443
  711MOL0     C93731   0.640   9.434   8.914  0.6434 -0.0618  0.5303
  711MOL0     C93732   0.619   9.492   9.050  0.0285 -0.7467 -0.1226
  711MOL0     C93733   0.509   9.604   9.063 -0.1623 -0.1713  0.0702
  711MOL0     C93734   0.533   9.734   8.975 -0.0682  1.1267  0.5319
  711MOL0     C93735   0.428   9.842   8.992  0.2237 -0.2603 -0.2982
  711MOL0     C93736   0.418   9.909   9.137 -0.3346 -0.1282  0.0500
  711MOL0     N93737   0.548   9.947   9.187 -0.4800  0.2139 -0.8245
  711MOL0     C93738   0.618  10.055   9.151  0.2151 -0.1718  0.5943
  711MOL0     C93739   0.707  10.075   9.248  0.0189 -0.9459  0.3574
  711MOL0     C93740   0.798  10.196   9.245 -0.5966  0.1868 -0.2029
  711MOL0     C93741   0.928  10.177   9.165  0.1616 -1.0984  0.3271
  711MOL0     C93742   1.024  10.297   9.194  0.4934 -0.0191 -0.1651
  711MOL0     C93743   1.153  10.301   9.113  0.7007  0.1673 -0.2319
  711MOL0     O93744   1.233  10.202   9.166 -0.2708  0.6375  1.1476
  711MOL0     C93745   1.345  10.175   9.089 -0.0391  0.3002 -0.3041
  711MOL0     C93746   1.468  10.249   9.105  0.5632 -0.2747  0.2087
  711MOL0     C93747   1.573  10.231   9.015 -0.3931 -0.1339  0.7290
  711MOL0     C93748   1.567  10.144   8.903  0.2422 -0.1983  0.2268
  711MOL0     C93749   1.677  10.132   8.806  0.0091  0.1151 -0.6039
  711MOL0     O93750   1.784  10.205   8.831 -0.1302  0.3161 -0.1157
  711MOL0     C93751   1.900  10.176   8.759 -0.2634  0.1080  0.6476
  711MOL0     C93752   1.986  10.076   8.800  0.8468 -0.4190  0.3318
  711MOL0     C93753   2.106  10.057   8.735 -0.5210 -0.1884  0.2929
  711MOL0     C93754   2.147  10.140   8.626  0.4987 -0.3702 -0.4592
  711MOL0     O93755   2.278  10.154   8.577  0.1570 -0.2935 -0.5806
  711MOL0     C93756   2.380  10.073   8.634  0.4780 -0.2319  0.4296
  711MOL0     C93757   2.529  10.131   8.617 -0.5468 -0.5936  0.6462
  711MOL0     C93758   2.546  10.272   8.679  0.0453  0.7612 -0.5336
  711MOL0     C93759   2.698  10.295   8.676 -0.4009 -1.0140  0.2493
  711MOL0     C93760   2.729  10.396   8.787  0.6086 -1.1030 -0.7101
  711MOL0     C93761   2.880  10.438   8.780 -0.2972 -0.3219 -0.0338
  711MOL0     C93762   2.902  10.564   8.858 -0.3301  0.3832  0.3430
  711MOL0     C93763   3.045  10.611   8.860 -0.0482 -0.5801 -0.2225
  711MOL0    Cl93764   3.152  10.480   8.915  0.0122 -0.2057  0.0073
  711MOL0     C93765   2.055  10.222   8.567  0.1319  0.1161  0.5498
  711MOL0     C93766   1.931  10.253   8.637 -0.4930  0.3367  0.3910
  711MOL0     O93767   1.667  10.055   8.716 -0.2777  0.3454 -0.0025
  711MOL0     C93768   1.449  10.080   8.884  0.2493  0.0487 -0.9423
  711MOL0     C93769   1.335  10.093   8.972 -0.8184 -0.2239 -0.7993
  711MOL0     N93770   0.694   9.968   9.334  0.5107 -0.4000  0.5491
  711MOL0     N93771   0.597   9.900   9.305  0.3090  0.7136  0.6067
  711MOL0     C93772   1.141   9.064   8.942 -0.5496 -0.2795  0.2119
  711MOL0     C93773   1.281   9.056   8.940  0.2799  0.9648  0.0166
  711MOL0     C93774   1.724   9.256   8.938 -0.4718  0.1615  0.0872
  711MOL0     C93775   1.819   9.362   8.913  0.0048 -0.4005 -0.6387
  711MOL0     C93776   1.953   9.337   8.928 -0.7280 -0.0074  0.6165
  711MOL0     C93777   2.005   9.217   8.970 -0.0373 -0.0689  0.8911
  711MOL0     O93778   2.135   9.189   8.988  0.5654 -0.3209  0.8346
  711MOL0     C93779   2.233   9.282   8.966  0.0324  0.0805 -1.0775
  711MOL0     C93780   2.371   9.216   8.999 -0.7033 -0.5424  0.1214
  711MOL0     C93781   2.488   9.300   8.948  1.4522 -0.1051 -0.4172
  711MOL0     C93782   2.618   9.246   9.006 -0.0957  0.0998 -0.6906
  711MOL0     C93783   2.742   9.321   8.967  0.7639 -1.0410  0.7763
  711MOL0     C93784   2.834   9.382   8.912 -0.6282 -0.6549 -0.2083
  711MOL0     C93785   1.911   9.124   9.025 -0.8217  0.7340  0.1376
  711MOL0     C93786   1.773   9.137   9.001 -0.0094 -0.6288 -0.0080
  711MOL0     H93787   1.331   9.371   8.817 -1.4821  0.2720  1.5761
  711MOL0     H93788   1.109   9.383   8.813  2.5756  0.4598  0.7368
  711MOL0     H93789   0.897   9.380   8.869 -0.0620 -0.8434  0.1580
  711MOL0     H93790   0.877   9.323   9.040 -0.3886 -1.5568  1.3163
  711MOL0     H93791   0.668   9.231   8.988  1.1850  0.2245  0.8974
  711MOL0     H93792   0.702   9.254   8.812  0.0661 -1.2071  0.0884
  711MOL0     H93793   0.540   9.429   8.871  0.8291 -1.9482  0.2562
  711MOL0     H93794   0.689   9.491   8.835 -1.1312 -0.9992 -1.3474
  711MOL0     H93795   0.580   9.414   9.116 -3.2878  3.0197  2.8774
  711MOL0     H93796   0.716   9.518   9.094  0.4769 -1.2039 -0.8141
  711MOL0     H93797   0.500   9.639   9.166 -0.1404 -1.2000  0.4358
  711MOL0     H93798   0.410   9.570   9.033 -0.2304  0.5532 -0.5595
  711MOL0     H93799   0.534   9.696   8.872  0.7022  0.1719  0.8771
  711MOL0     H93800   0.632   9.778   8.993  0.5936  1.2787 -2.8035
  711MOL0     H93801   0.443   9.912   8.909 -0.1777 -0.0708 -0.2163
  711MOL0     H93802   0.336   9.792   8.958  1.6643 -2.4505 -1.1883
  711MOL0     H93803   0.366   9.841   9.204  1.4519 -2.3852 -0.7398
  711MOL0     H93804   0.368  10.004   9.113  2.5775  1.6134  0.4338
  711MOL0     H93805   0.603  10.117   9.064 -0.2503  0.1244  0.8814
  711MOL0     H93806   0.826  10.211   9.350 -0.1856 -0.6271 -0.1851
  711MOL0     H93807   0.744  10.286   9.214 -0.2867  0.1775 -0.7851
  711MOL0     H93808   0.902  10.161   9.059  0.1415  0.9115 -0.0072
  711MOL0     H93809   0.969  10.086   9.209 -2.0866 -1.7785  1.1610
  711MOL0     H93810   0.958  10.377   9.160  1.5780  0.8547 -0.2841
  711MOL0     H93811   1.046  10.317   9.300  1.5313  2.3442 -0.7576
  711MOL0     H93812   1.199  10.400   9.110  2.2223 -0.4876  0.1430
  711MOL0     H93813   1.138  10.281   9.007  2.1563  1.2149 -0.6730
  711MOL0     H93814   1.494  10.319   9.184  1.2817 -1.6961  1.2701
  711MOL0     H93815   1.662  10.293   9.026 -1.2798  2.7025 -4.5139
  711MOL0     H93816   1.958  10.029   8.894 -1.3001  3.4175  1.8454
  711MOL0     H93817   2.174   9.985   8.780 -1.7394  0.4129  3.3491
  711MOL0     H93818   2.369   9.971   8.596 -0.0737 -0.6581  1.7063
  711MOL0     H93819   2.377  10.058   8.742 -0.7883 -2.1195  0.1876
  711MOL0     H93820   2.552  10.149   8.511  1.3064  1.9247  1.3803
  711MOL0     H93821   2.601  10.064   8.663  0.5671 -1.4993 -2.1969
  711MOL0     H93822   2.508  10.272   8.781  0.9727  2.8034 -0.1176
  711MOL0     H93823   2.487  10.347   8.626  0.7489 -0.1065 -2.6939
  711MOL0     H93824   2.757  10.205   8.698  1.4622  0.1100  0.0749
  711MOL0     H93825   2.725  10.330   8.576  0.0607  1.5235  1.1947
  711MOL0     H93826   2.712  10.345   8.882  1.8447 -1.0200 -0.4272
  711MOL0     H93827   2.668  10.485   8.766  1.4000 -0.2095  0.6368
  711MOL0     H93828   2.909  10.442   8.674  2.2759  3.0736  0.6284
  711MOL0     H93829   2.933  10.355   8.828  0.1830 -0.4848 -0.8242
  711MOL0     H93830   2.846  10.638   8.798  1.6723  1.5802 -0.1391
  711MOL0     H93831   2.867  10.545   8.960 -0.1500 -1.8007  0.0437
  711MOL0     H93832   3.050  10.694   8.932 -2.4587  1.2729 -2.0016
  711MOL0     H93833   3.068  10.655   8.762 -1.2865 -0.3783 -0.4356
  711MOL0     H93834   2.085  10.282   8.482  0.7074 -2.4979 -1.2074
  711MOL0     H93835   1.864  10.326   8.594  1.7942  1.3233 -1.7646
  711MOL0     H93836   1.429  10.011   8.802  1.2257  0.0744 -1.2191
  711MOL0     H93837   1.241  10.045   8.947 -0.9122 -0.3225 -0.2665
  711MOL0     H93838   1.086   8.974   8.968  1.3013 -1.1136  1.5385
  711MOL0     H93839   1.345   8.974   8.971  2.8196  2.4544 -0.9217
  711MOL0     H93840   1.781   9.454   8.871  2.6965  0.5943 -1.0578
  711MOL0     H93841   2.030   9.408   8.901  0.0690 -1.5563 -1.5381
  711MOL0     H93842   2.231   9.372   9.029 -0.9723  0.0517 -1.0532
  711MOL0     H93843   2.223   9.334   8.871  0.0565  2.8249  0.3311
  711MOL0     H93844   2.384   9.194   9.105  3.1948  2.9292  0.6388
  711MOL0     H93845   2.372   9.123   8.942 -0.5193 -0.0142 -0.7623
  711MOL0     H93846   2.466   9.393   9.000 -4.0056 -0.9181 -0.6412
  711MOL0     H93847   2.491   9.314   8.840  0.2272  0.9805 -0.3360
  711MOL0     H93848   2.619   9.239   9.115  1.1084  0.8643 -0.6402
  711MOL0     H93849   2.641   9.144   8.972 -0.4542 -0.1094 -0.3186
  711MOL0     H93850   2.903   9.441   8.855  0.6686  0.9926  2.8279
  711MOL0     H93851   1.950   9.030   9.062  1.6849  2.2375  1.5981
  711MOL0     H93852   1.711   9.051   9.025  1.5710 -1.6496  0.6210
  712MOL0     O93853   2.809  10.305   4.520 -0.2154  0.0433 -0.4180
  712MOL0     C93854   2.886  10.214   4.553  0.9008 -0.5637  0.0212
  712MOL0     O93855   2.854  10.083   4.581  0.1358 -0.5867  0.1767
  712MOL0     C93856   2.725  10.042   4.570  0.2105 -0.1991 -0.5666
  712MOL0     C93857   2.634  10.105   4.655  0.7232  0.6108  0.3686
  712MOL0     C93858   2.502  10.075   4.634  0.3248  0.2196  0.6932
  712MOL0     C93859   2.451   9.994   4.533 -1.1316  0.2965 -0.2213
  712MOL0     O93860   2.322   9.955   4.511 -0.1183 -0.0379 -0.0654
  712MOL0     C93861   2.210  10.015   4.582  0.2343 -0.3914 -0.7931
  712MOL0     C93862   2.103   9.908   4.541 -1.2888  0.3429 -0.1066
  712MOL0     C93863   1.967   9.949   4.592 -1.0618 -0.8904  0.0050
  712MOL0     C93864   1.852   9.859   4.527 -0.7991 -0.6629  0.6504
  712MOL0     C93865   1.725   9.872   4.606  0.0263  0.2766 -0.4657
  712MOL0     C93866   1.741   9.777   4.730 -0.3307  0.4208  0.5209
  712MOL0     C93867   1.608   9.789   4.812  0.2431 -0.1177  0.8798
  712MOL0     C93868   1.566   9.922   4.847 -0.1015 -0.4444  0.5130
  712MOL0     N93869   1.444   9.915   4.926  0.2504 -0.1433 -0.5973
  712MOL0     C93870   1.397  10.006   5.013  0.3910  0.1624  0.1697
  712MOL0     C93871   1.273   9.966   5.039 -0.2355 -0.2864 -0.4692
  712MOL0     C93872   1.175  10.047   5.123  0.5684 -0.0812  0.0436
  712MOL0     C93873   1.054  10.086   5.030  0.5269 -0.3547 -0.4194
  712MOL0     C93874   0.963   9.975   4.980 -1.2925  0.1400 -0.9619
  712MOL0     C93875   0.838  10.026   4.910 -0.4759  0.1323  0.3155
  712MOL0     O93876   0.868  10.130   4.814 -0.3650  1.2482 -0.1867
  712MOL0     C93877   0.754  10.194   4.753  0.4272  0.3538 -1.0194
  712MOL0     C93878   0.769  10.285   4.648  0.5958  0.3325 -0.2511
  712MOL0     C93879   0.661  10.340   4.589 -0.3424 -0.6974 -0.2782
  712MOL0     C93880   0.526  10.324   4.625 -0.5458  0.1168  0.1074
  712MOL0     C93881   0.416  10.386   4.551  0.6139  0.3287 -0.8148
  712MOL0     O93882   0.281  10.364   4.598 -0.6402 -0.1626  0.3109
  712MOL0     C93883   0.177  10.407   4.524  0.0987 -0.5290  0.7261
  712MOL0     C93884   0.173  10.387   4.383  0.2046  0.3873 -0.1941
  712MOL0     C93885   0.062  10.433   4.305  0.2202 -0.7149 -0.3974
  712MOL0     C93886  -0.046  10.501   4.368 -0.3833 -0.2059  0.4924
  712MOL0     O93887  -0.150  10.540   4.285  0.4507 -0.1877  0.1711
  712MOL0     C93888  -0.278  10.555   4.338  0.8445 -0.6509 -0.6461
  712MOL0     C93889  -0.386  10.583   4.234  0.5670  0.6007  0.0566
  712MOL0     C93890  -0.521  10.602   4.307 -0.1337 -0.9303  0.0686
  712MOL0     C93891  -0.647  10.622   4.215 -0.1978  0.8416  0.0179
  712MOL0     C93892  -0.767  10.661   4.299 -0.4099  0.2153 -0.7766
  712MOL0     C93893  -0.874  10.750   4.244 -0.5465 -0.7388  0.1108
  712MOL0     C93894  -0.990  10.752   4.337 -0.3029 -0.0148  0.2457
  712MOL0     C93895  -1.111  10.821   4.273  0.4115  1.0131 -0.0880
  712MOL0    Cl93896  -1.168  10.750   4.123  0.1178  0.3015 -0.4422
  712MOL0     C93897  -0.035  10.515   4.504  0.9859  0.1196  0.3859
  712MOL0     C93898   0.066  10.465   4.586 -0.9606 -0.1618 -0.7170
  712MOL0     O93899   0.449  10.445   4.452  0.3173  0.4605  0.7489
  712MOL0     C93900   0.509  10.237   4.734  0.7571 -0.5560  0.1147
  712MOL0     C93901   0.618  10.178   4.805  0.7527 -0.4735  0.2347
  712MOL0     N93902   1.245   9.847   4.990  0.7869 -0.0804 -0.0417
  712MOL0     N93903   1.348   9.818   4.918 -0.9168  0.1240 -0.2730
  712MOL0     C93904   2.545   9.928   4.457  0.0387  0.0172 -0.1137
  712MOL0     C93905   2.689   9.949   4.478 -0.3869  0.5656 -0.3739
  712MOL0     C93906   3.029  10.249   4.562 -0.0998  0.7946  1.3071
  712MOL0     C93907   3.077  10.385   4.565  0.5472 -0.1324  1.5623
  712MOL0     C93908   3.209  10.414   4.549 -0.0425 -0.4679 -0.7520
  712MOL0     C93909   3.311  10.309   4.544  0.6660  0.7034  0.5224
  712MOL0     O93910   3.447  10.330   4.554 -0.3267  0.0741  0.7293
  712MOL0     C93911   3.497  10.449   4.490 -0.7235  0.2673  1.1114
  712MOL0     C93912   3.634  10.462   4.541 -0.3801 -0.0719  0.3250
  712MOL0     C93913   3.694  10.600   4.493 -0.2716  0.5051 -0.3766
  712MOL0     C93914   3.804  10.650   4.584 -0.1322  0.3402 -0.0032
  712MOL0     C93915   3.895  10.546   4.625  1.0173 -0.1956 -0.4565
  712MOL0     C93916   3.965  10.451   4.667 -0.1149 -1.2345  0.4153
  712MOL0     C93917   3.268  10.181   4.532  0.2098 -0.4927  0.1221
  712MOL0     C93918   3.130  10.147   4.542 -0.0534 -0.7415 -0.5303
  712MOL0     H93919   2.658  10.170   4.739 -1.3174  1.5917  0.2562
  712MOL0     H93920   2.421  10.124   4.688 -1.8526 -2.3830  0.0599
  712MOL0     H93921   2.191  10.116   4.545  3.6528  0.4070 -0.6683
  712MOL0     H93922   2.214  10.018   4.691 -2.6766  1.1775 -0.6107
  712MOL0     H93923   2.140   9.813   4.580  1.1039  1.7018  1.1376
  712MOL0     H93924   2.099   9.915   4.432 -0.5730 -1.6508 -0.3135
  712MOL0     H93925   1.953  10.056   4.577  1.6724 -0.0823  2.3992
  712MOL0     H93926   1.961   9.937   4.700 -1.8385 -2.4539 -0.1756
  712MOL0     H93927   1.829   9.892   4.425  1.2005 -0.0649  0.3381
  712MOL0     H93928   1.880   9.754   4.519  0.5483 -0.3288  0.6775
  712MOL0     H93929   1.644   9.845   4.539 -0.6987 -0.8672  0.8162
  712MOL0     H93930   1.705   9.970   4.650 -3.0947  0.7141 -2.5877
  712MOL0     H93931   1.828   9.804   4.790  0.5857 -0.6227 -0.3102
  712MOL0     H93932   1.767   9.676   4.697  2.2293  1.3700 -0.5677
  712MOL0     H93933   1.523   9.759   4.750  1.7617  1.0624 -1.9752
  712MOL0     H93934   1.627   9.724   4.898  1.5885 -1.4915 -0.3733
  712MOL0     H93935   1.538   9.986   4.762 -0.1343 -1.2346 -0.0828
  712MOL0     H93936   1.635   9.983   4.906 -2.6681  2.0406  1.1905
  712MOL0     H93937   1.442  10.102   5.034 -3.4826  2.0157  0.8556
  712MOL0     H93938   1.221  10.139   5.159 -0.9413  2.3642 -3.5996
  712MOL0     H93939   1.140   9.979   5.201 -0.5122 -1.4181 -1.5140
  712MOL0     H93940   1.110  10.129   4.946  0.1009  1.5277  0.2121
  712MOL0     H93941   0.994  10.160   5.084 -1.7649 -3.3056  1.4031
  712MOL0     H93942   1.019   9.924   4.902 -2.1720  1.1138 -2.2859
  712MOL0     H93943   0.939   9.919   5.070  3.3855 -0.0426  0.4203
  712MOL0     H93944   0.763  10.052   4.985  0.8399 -0.8615  2.0529
  712MOL0     H93945   0.796   9.945   4.850 -0.6093  0.4664 -0.0435
  712MOL0     H93946   0.873  10.299   4.623  0.9566 -2.3219 -0.5323
  712MOL0     H93947   0.681  10.411   4.510 -2.2454  1.4515  1.0659
  712MOL0     H93948   0.261  10.344   4.336  0.2347  1.4836 -1.2000
  712MOL0     H93949   0.056  10.409   4.199  3.1136 -0.2944 -0.7455
  712MOL0     H93950  -0.279  10.647   4.397 -2.6948 -0.8197 -0.2079
  712MOL0     H93951  -0.307  10.474   4.405 -2.9218  0.9520 -0.0830
  712MOL0     H93952  -0.392  10.500   4.162 -0.0827  0.0220  0.7581
  712MOL0     H93953  -0.363  10.675   4.179  2.1062 -0.0881 -0.5156
  712MOL0     H93954  -0.527  10.696   4.363 -3.2440  0.1412 -1.7616
  712MOL0     H93955  -0.542  10.516   4.372 -2.0532 -0.2418  0.4543
  712MOL0     H93956  -0.636  10.689   4.130 -2.4951 -0.2119 -1.1844
  712MOL0     H93957  -0.661  10.524   4.168  0.2704  1.0476 -0.5555
  712MOL0     H93958  -0.733  10.708   4.391  2.4173  0.6949 -1.9763
  712MOL0     H93959  -0.817  10.571   4.334 -1.2794  1.4817  1.4585
  712MOL0     H93960  -0.901  10.707   4.147  0.1085  2.3374 -1.5905
  712MOL0     H93961  -0.842  10.851   4.217 -1.1324 -0.2105  1.3236
  712MOL0     H93962  -1.015  10.650   4.369 -2.0215  0.7444  1.4411
  712MOL0     H93963  -0.954  10.816   4.418 -0.8832  2.9980 -1.7241
  712MOL0     H93964  -1.100  10.930   4.273  0.5718  0.9957 -0.3864
  712MOL0     H93965  -1.196  10.814   4.342 -1.3241  0.9812 -2.1106
  712MOL0     H93966  -0.126  10.550   4.551  1.8845  1.7311  0.9855
  712MOL0     H93967   0.073  10.474   4.694 -3.3039 -0.4198 -0.4812
  712MOL0     H93968   0.414  10.214   4.782 -0.2012 -0.6943 -1.7483
  712MOL0     H93969   0.587  10.111   4.884 -0.2077  0.1425  0.4027
  712MOL0     H93970   2.500   9.868   4.379 -0.1449  1.4085 -1.1120
  712MOL0     H93971   2.765   9.897   4.420 -1.7889 -0.1706 -1.6148
  712MOL0     H93972   3.006  10.466   4.577 -0.1049 -0.7026  1.5654
  712MOL0     H93973   3.237  10.519   4.552  3.5606 -1.3481  1.0166
  712MOL0     H93974   3.440  10.537   4.520 -2.1013  0.7027 -2.2957
  712MOL0     H93975   3.495  10.430   4.382 -0.9360 -4.5403  1.7444
  712MOL0     H93976   3.641  10.449   4.649  1.2679 -2.3107  0.0304
  712MOL0     H93977   3.687  10.374   4.502 -0.0991 -0.2317  1.0654
  712MOL0     H93978   3.618  10.679   4.485  0.4780  1.2739 -0.0109
  712MOL0     H93979   3.742  10.586   4.396 -0.7265 -0.3483 -0.4845
  712MOL0     H93980   3.853  10.731   4.529  0.7607  1.6955  2.5857
  712MOL0     H93981   3.761  10.699   4.672 -1.8035  2.3639 -1.8019
  712MOL0     H93982   4.027  10.371   4.704  3.0642  1.8225  2.2607
  712MOL0     H93983   3.338  10.097   4.526  0.1304 -0.6068  0.7787
  712MOL0     H93984   3.088  10.047   4.538  1.6538 -1.5674  0.9264
  713MOL0     O93985   0.451   7.271   4.986  0.2189 -0.2065 -0.0510
  713MOL0     C93986   0.423   7.191   5.082 -1.2773 -0.1808 -0.2783
  713MOL0     O93987   0.521   7.119   5.151  0.5452 -0.3618  0.0461
  713MOL0     C93988   0.657   7.135   5.127 -0.0053 -0.4815 -0.7774
  713MOL0     C93989   0.722   7.259   5.103  0.1998  0.5605 -0.2341
  713MOL0     C93990   0.858   7.269   5.078 -1.0624 -0.4213 -0.1916
  713MOL0     C93991   0.929   7.150   5.092 -0.1739 -0.0505  0.1803
  713MOL0     O93992   1.067   7.146   5.083 -0.3655  0.0203 -0.2528
  713MOL0     C93993   1.153   7.261   5.050 -0.0280  0.5080 -0.0729
  713MOL0     C93994   1.304   7.222   5.027  1.1689  0.0790 -0.1660
  713MOL0     C93995   1.347   7.130   5.136  0.0191  0.9426 -0.0890
  713MOL0     C93996   1.494   7.103   5.147  0.0502  1.0211 -0.1934
  713MOL0     C93997   1.543   6.998   5.245  0.5615  0.2017 -0.5534
  713MOL0     C93998   1.517   7.050   5.385 -0.1502  0.2840  0.0651
  713MOL0     C93999   1.571   6.972   5.502 -0.2641  0.2062 -0.8274
  713MOL0     C94000   1.719   6.980   5.525  0.3195 -0.4841  1.0666
  713MOL0     N94001   1.764   6.879   5.616  0.3210 -0.3572  0.2817
  713MOL0     C94002   1.852   6.892   5.715 -0.4677 -0.2681 -0.4297
  713MOL0     C94003   1.864   6.774   5.776 -0.2191  0.6893 -1.3285
  713MOL0     C94004   1.958   6.756   5.893  0.4654 -0.5429 -0.1974
  713MOL0     C94005   1.926   6.643   5.995  0.2018  0.5877 -0.9920
  713MOL0     C94006   1.819   6.685   6.105 -0.3211 -0.0756 -0.4048
  713MOL0     C94007   1.694   6.759   6.059  0.3667  0.2386 -0.5716
  713MOL0     O94008   1.617   6.670   5.974  0.0516 -0.2192 -0.0321
  713MOL0     C94009   1.492   6.718   5.943  0.1721  0.0982 -0.4614
  713MOL0     C94010   1.458   6.766   5.820  0.0911  0.3650  0.7914
  713MOL0     C94011   1.329   6.821   5.791 -0.4415  0.1779  0.5971
  713MOL0     C94012   1.234   6.833   5.890  0.2057 -0.3645 -0.4064
  713MOL0     C94013   1.101   6.878   5.858 -0.5591 -0.4345  0.6978
  713MOL0     O94014   1.033   6.947   5.962 -0.2364 -0.3420  0.6376
  713MOL0     C94015   0.912   7.003   5.947 -0.3042 -0.2863  0.1918
  713MOL0     C94016   0.809   6.917   5.901 -0.2071  0.5437 -0.6311
  713MOL0     C94017   0.687   6.959   5.882  0.0577  0.1264 -0.7445
  713MOL0     C94018   0.648   7.095   5.899  0.7479  0.4267  0.8425
  713MOL0     O94019   0.525   7.149   5.873 -0.0069  0.3140  0.3261
  713MOL0     C94020   0.427   7.076   5.795  0.1844  0.7849  0.6535
  713MOL0     C94021   0.292   7.143   5.778 -0.3055 -0.0899  0.5470
  713MOL0     C94022   0.215   7.048   5.689 -0.0475 -0.2706 -1.2460
  713MOL0     C94023   0.069   7.098   5.693 -0.0089  0.0337 -0.6365
  713MOL0     C94024  -0.020   6.999   5.609 -0.9053  0.0992  0.5674
  713MOL0     C94025  -0.157   6.957   5.662 -0.2075  0.7657 -0.0752
  713MOL0     C94026  -0.248   7.072   5.696 -0.6786 -0.1387  0.1560
  713MOL0     C94027  -0.380   7.013   5.762  0.1650 -1.2945 -0.2604
  713MOL0    Cl94028  -0.497   6.975   5.635 -0.1691 -0.2769 -0.4221
  713MOL0     C94029   0.744   7.178   5.952 -0.4778 -0.5403 -0.1191
  713MOL0     C94030   0.872   7.137   5.970 -0.1140 -0.3656 -0.0647
  713MOL0     O94031   1.056   6.844   5.750  0.5211  0.4037  0.0344
  713MOL0     C94032   1.269   6.794   6.021  0.3120 -0.4126 -0.4531
  713MOL0     C94033   1.399   6.736   6.045  0.7832  0.6933  0.1346
  713MOL0     N94034   1.795   6.680   5.704 -0.1997 -0.2375  0.2029
  713MOL0     N94035   1.734   6.752   5.613 -0.3116 -0.5989  0.9104
  713MOL0     C94036   0.870   7.027   5.121  0.0335 -1.0522 -0.7248
  713MOL0     C94037   0.732   7.016   5.136  0.4791 -0.6261  0.7532
  713MOL0     C94038   0.285   7.162   5.124  0.5404 -0.9572  0.7606
  713MOL0     C94039   0.262   7.058   5.220 -0.1805 -0.0874  0.2104
  713MOL0     C94040   0.131   7.031   5.263 -0.2610 -0.6287  0.1124
  713MOL0     C94041   0.019   7.077   5.188 -1.2371  0.1627  0.2153
  713MOL0     O94042  -0.102   7.017   5.217 -0.6008 -0.7864  0.0656
  713MOL0     C94043  -0.216   7.042   5.132  0.1897  0.0108  0.1985
  713MOL0     C94044  -0.346   6.985   5.192 -0.5171  0.5602 -0.1097
  713MOL0     C94045  -0.349   6.830   5.214  0.3988 -0.8233 -0.2056
  713MOL0     C94046  -0.466   6.786   5.307  0.6231 -0.5896  0.1599
  713MOL0     C94047  -0.598   6.835   5.257  0.1233 -0.3397  0.0021
  713MOL0     C94048  -0.697   6.886   5.206 -0.8823  0.3639 -0.0139
  713MOL0     C94049   0.036   7.167   5.080  0.4090 -0.8359 -1.1519
  713MOL0     C94050   0.168   7.217   5.055  0.3115  0.0995 -0.5559
  713MOL0     H94051   0.663   7.349   5.113 -1.0951 -0.3556  0.7773
  713MOL0     H94052   0.917   7.360   5.070 -0.3251 -1.0460 -2.7856
  713MOL0     H94053   1.150   7.340   5.126  1.3881  0.2545  0.2892
  713MOL0     H94054   1.122   7.309   4.957  0.2108  2.8900  1.0122
  713MOL0     H94055   1.359   7.315   5.045  0.1096  0.4874  1.2022
  713MOL0     H94056   1.333   7.183   4.930  2.5952  2.0691 -0.6098
  713MOL0     H94057   1.290   7.037   5.147  0.7725  0.6554  1.8365
  713MOL0     H94058   1.321   7.190   5.224 -1.1876  0.9927 -0.4613
  713MOL0     H94059   1.541   7.087   5.049  1.9897  1.5850  0.5931
  713MOL0     H94060   1.526   7.201   5.183  0.3037  1.7514 -2.2496
  713MOL0     H94061   1.649   6.978   5.229  0.2465 -1.6552 -0.5486
  713MOL0     H94062   1.490   6.904   5.224 -0.0952 -0.3450  2.9956
  713MOL0     H94063   1.409   7.052   5.406  0.0366  2.4874  1.1185
  713MOL0     H94064   1.558   7.151   5.391 -2.3820  1.2423  0.3522
  713MOL0     H94065   1.520   7.014   5.589 -1.8613 -0.8430 -1.2111
  713MOL0     H94066   1.551   6.866   5.488  1.7735 -0.4828  0.9382
  713MOL0     H94067   1.743   7.074   5.575  0.8488  0.3658 -0.6842
  713MOL0     H94068   1.768   6.968   5.428 -3.4191  0.2388 -1.1356
  713MOL0     H94069   1.911   6.976   5.749 -3.0163  2.4419 -2.2753
  713MOL0     H94070   1.967   6.849   5.950 -0.3196 -1.0668  0.7927
  713MOL0     H94071   2.059   6.741   5.852  1.7487  5.4347 -0.1897
  713MOL0     H94072   2.019   6.610   6.043 -0.6669  1.5794  1.5419
  713MOL0     H94073   1.882   6.553   5.952 -0.2412 -0.3534  1.2603
  713MOL0     H94074   1.781   6.598   6.160 -0.9689  1.8114  2.3599
  713MOL0     H94075   1.859   6.737   6.192  1.4297 -3.6432  1.1008
  713MOL0     H94076   1.709   6.858   6.015 -0.7492  0.6494 -0.0684
  713MOL0     H94077   1.641   6.780   6.152 -0.4521 -2.7586 -0.2591
  713MOL0     H94078   1.528   6.754   5.738 -1.4567  0.4071 -0.6029
  713MOL0     H94079   1.313   6.846   5.687  0.1986 -2.7949 -0.3134
  713MOL0     H94080   0.820   6.811   5.880 -0.1944  0.6465 -1.1472
  713MOL0     H94081   0.622   6.891   5.826  0.3695 -0.2507 -0.6550
  713MOL0     H94082   0.408   6.979   5.843 -0.7801  0.5994 -0.0711
  713MOL0     H94083   0.456   7.071   5.689 -1.0504  0.4542  0.3167
  713MOL0     H94084   0.305   7.245   5.742 -0.4945 -0.3479 -0.2965
  713MOL0     H94085   0.251   7.159   5.878  1.6860 -0.0962  1.4101
  713MOL0     H94086   0.219   6.943   5.717 -2.0075 -0.0863 -0.0857
  713MOL0     H94087   0.258   7.043   5.588  1.7711  0.4098 -0.5548
  713MOL0     H94088   0.038   7.111   5.797 -0.4921 -1.2463 -0.6044
  713MOL0     H94089   0.066   7.200   5.653 -0.7823  1.2443  2.2620
  713MOL0     H94090   0.038   6.910   5.583 -2.2967 -0.9901  1.0603
  713MOL0     H94091  -0.039   7.046   5.512 -2.3712 -2.4584 -0.4949
  713MOL0     H94092  -0.144   6.893   5.750  2.0021  1.1616 -0.0679
  713MOL0     H94093  -0.194   6.901   5.576 -0.7600  1.7332 -0.4891
  713MOL0     H94094  -0.205   7.143   5.767 -0.3795  0.0276 -0.1830
  713MOL0     H94095  -0.282   7.121   5.604 -0.4296  0.4290  0.3637
  713MOL0     H94096  -0.433   7.081   5.829  0.6584  0.9785 -2.0627
  713MOL0     H94097  -0.358   6.920   5.816  2.5529 -1.3166 -1.1370
  713MOL0     H94098   0.712   7.279   5.979 -1.2495 -1.3331  2.2428
  713MOL0     H94099   0.940   7.215   6.000  0.0212 -0.1072 -1.0075
  713MOL0     H94100   1.198   6.795   6.102  0.3503  4.3992 -0.1403
  713MOL0     H94101   1.440   6.705   6.141 -1.5451 -1.3859  0.5538
  713MOL0     H94102   0.940   6.944   5.131  0.9900 -0.3709 -1.4980
  713MOL0     H94103   0.682   6.923   5.161  1.3798 -1.0680  0.9373
  713MOL0     H94104   0.350   7.013   5.264  1.6280  2.6149 -0.4257
  713MOL0     H94105   0.117   6.966   5.349  2.2009 -2.4773 -0.7711
  713MOL0     H94106  -0.217   7.005   5.028 -3.7363  0.8384 -0.1984
  713MOL0     H94107  -0.245   7.147   5.122  0.9807  0.1947 -0.2681
  713MOL0     H94108  -0.369   7.034   5.287  0.5634 -2.1756  1.6819
  713MOL0     H94109  -0.424   7.014   5.120 -1.4984 -1.5683 -0.0039
  713MOL0     H94110  -0.255   6.810   5.265 -0.0905  1.0328  1.5649
  713MOL0     H94111  -0.351   6.776   5.119 -1.9991 -0.4034 -0.4775
  713MOL0     H94112  -0.464   6.680   5.333  1.7737 -0.3759  1.0087
  713MOL0     H94113  -0.453   6.848   5.396  1.0534 -0.3097 -0.0973
  713MOL0     H94114  -0.772   6.937   5.148 -1.0041 -0.8175 -0.9174
  713MOL0     H94115  -0.047   7.200   5.018  0.3136  2.6480  0.5926
  713MOL0     H94116   0.187   7.285   4.972 -0.3068  0.5914 -0.3107
  714MOL0     O94117   8.432   5.223   3.038  0.4277 -0.2929  0.3032
  714MOL0     C94118   8.461   5.239   2.915 -0.5316 -0.1137  0.3360
  714MOL0     O94119   8.383   5.285   2.817 -0.0146 -0.7666 -0.0900
  714MOL0     C94120   8.256   5.332   2.845  0.2262 -0.2741 -0.5233
  714MOL0     C94121   8.155   5.252   2.905 -0.2036  0.1813  0.5415
  714MOL0     C94122   8.033   5.318   2.932 -0.4594  0.4577  0.0444
  714MOL0     C94123   8.002   5.449   2.899  0.2728  0.4985  0.6509
  714MOL0     O94124   7.881   5.503   2.928  0.8076 -0.5698  0.3294
  714MOL0     C94125   7.810   5.563   2.817  0.5761 -0.6365  0.1416
  714MOL0     C94126   7.658   5.556   2.851  0.4607  0.2445  0.3050
  714MOL0     C94127   7.577   5.625   2.739 -0.0762 -0.7829  0.5431
  714MOL0     C94128   7.428   5.590   2.755 -0.1233 -0.4108 -0.4514
  714MOL0     C94129   7.322   5.673   2.681  0.7432  0.1856 -0.2478
  714MOL0     C94130   7.366   5.706   2.538  0.6378 -0.7063  0.1523
  714MOL0     C94131   7.278   5.812   2.471  0.4091 -0.2601 -0.9219
  714MOL0     C94132   7.332   5.844   2.328  0.2077  0.0265 -0.5478
  714MOL0     N94133   7.248   5.927   2.242 -0.4986 -0.6949 -0.0809
  714MOL0     C94134   7.147   5.888   2.154 -0.2648 -0.3417  0.9027
  714MOL0     C94135   7.086   6.009   2.118 -0.1289 -0.0640  0.2830
  714MOL0     C94136   6.969   6.029   2.028 -0.7047  0.5272  0.4141
  714MOL0     C94137   6.826   6.049   2.095 -0.5194 -0.1642  0.9578
  714MOL0     C94138   6.821   6.118   2.228 -0.6766  0.2819  0.1871
  714MOL0     C94139   6.677   6.150   2.281 -0.0023 -0.2844 -0.0292
  714MOL0     O94140   6.578   6.048   2.276  0.3301  0.2709  0.1903
  714MOL0     C94141   6.454   6.072   2.332  0.8737 -0.9114 -0.2774
  714MOL0     C94142   6.425   6.184   2.412 -0.7282 -0.0801 -0.9857
  714MOL0     C94143   6.297   6.196   2.473  0.3861 -0.3475 -1.0138
  714MOL0     C94144   6.192   6.101   2.457 -0.0276 -0.3109 -0.2476
  714MOL0     C94145   6.052   6.136   2.492  0.7272 -0.5650 -0.0913
  714MOL0     O94146   6.027   6.251   2.564 -0.5077  0.1072  1.1276
  714MOL0     C94147   5.901   6.293   2.566  1.2024  0.0275  0.1460
  714MOL0     C94148   5.847   6.313   2.691 -0.6889 -0.0001 -0.0216
  714MOL0     C94149   5.715   6.349   2.697  0.0813 -0.0633 -0.3650
  714MOL0     C94150   5.631   6.364   2.588  0.2533 -0.3137  0.1507
  714MOL0     O94151   5.497   6.392   2.613  0.0434  0.5067 -0.9046
  714MOL0     C94152   5.409   6.414   2.500 -0.9090 -0.0469 -0.0925
  714MOL0     C94153   5.266   6.442   2.548 -0.1560 -0.4938 -0.6716
  714MOL0     C94154   5.262   6.571   2.647 -0.0337  0.6450  0.2431
  714MOL0     C94155   5.129   6.586   2.722  0.1460 -0.5475  0.2950
  714MOL0     C94156   5.141   6.711   2.810 -0.4377 -0.4864  0.0152
  714MOL0     C94157   5.012   6.743   2.895 -0.9505  0.5891 -0.0828
  714MOL0     C94158   5.044   6.868   2.980  0.5452  0.3377  0.0107
  714MOL0     C94159   4.943   6.876   3.091 -0.6339 -0.5322  0.2654
  714MOL0    Cl94160   4.994   6.772   3.225  0.0698  0.0503  0.4198
  714MOL0     C94161   5.687   6.346   2.459 -0.9667 -0.4966  0.0158
  714MOL0     C94162   5.828   6.308   2.445  0.1412 -0.8997 -0.3968
  714MOL0     O94163   5.964   6.055   2.458  0.3138 -0.5689  0.5138
  714MOL0     C94164   6.225   5.988   2.380 -0.0300 -0.2550  0.8782
  714MOL0     C94165   6.355   5.970   2.329 -0.6067 -0.7823  0.1161
  714MOL0     N94166   7.153   6.113   2.178  0.0155  0.2174 -0.2431
  714MOL0     N94167   7.254   6.066   2.249 -0.3136  0.3540  0.0594
  714MOL0     C94168   8.105   5.524   2.836  0.2201 -0.1004 -0.5711
  714MOL0     C94169   8.231   5.466   2.807  0.3027  0.0600  1.3544
  714MOL0     C94170   8.606   5.193   2.889 -0.3550 -0.7787  0.4000
  714MOL0     C94171   8.699   5.176   2.998 -0.1003 -0.5954  0.0738
  714MOL0     C94172   8.832   5.141   2.970 -0.9339  0.4436  0.4208
  714MOL0     C94173   8.881   5.125   2.840  0.2328  0.8737  0.0679
  714MOL0     O94174   9.014   5.088   2.830  0.2286 -0.3684  0.0672
  714MOL0     C94175   9.064   5.044   2.705 -0.4332  0.5609 -0.3597
  714MOL0     C94176   9.211   5.093   2.709  0.7533 -0.5063 -0.2275
  714MOL0     C94177   9.285   5.051   2.589 -0.0918  0.6107 -0.2964
  714MOL0     C94178   9.408   5.139   2.562  0.8175  0.3556 -0.3361
  714MOL0     C94179   9.473   5.118   2.433 -0.5403 -0.8109  0.4550
  714MOL0     C94180   9.522   5.101   2.323 -1.3073  0.1005  0.7860
  714MOL0     C94181   8.783   5.137   2.736 -0.3888  0.3818  0.2567
  714MOL0     C94182   8.658   5.181   2.758 -0.4345  0.4553  0.3098
  714MOL0     H94183   8.161   5.149   2.937  0.9364  0.3941  1.0506
  714MOL0     H94184   7.959   5.251   2.973  0.2251 -0.3063  0.0666
  714MOL0     H94185   7.831   5.517   2.720  5.1136  1.8763 -0.3657
  714MOL0     H94186   7.847   5.666   2.810  1.2367 -0.9401 -0.9387
  714MOL0     H94187   7.649   5.585   2.956  0.9634 -0.1236  0.4542
  714MOL0     H94188   7.633   5.450   2.840  2.0236 -0.0626 -0.5760
  714MOL0     H94189   7.613   5.598   2.640  0.9832  1.5576  0.2236
  714MOL0     H94190   7.594   5.733   2.744  1.2732 -0.8866 -1.0051
  714MOL0     H94191   7.412   5.489   2.716 -1.0050 -0.6414  0.4664
  714MOL0     H94192   7.399   5.583   2.861  1.6972  1.0827  0.2157
  714MOL0     H94193   7.322   5.772   2.728 -1.2917 -0.3311  0.9950
  714MOL0     H94194   7.224   5.624   2.683  0.7319 -0.0268 -2.9493
  714MOL0     H94195   7.369   5.612   2.482 -0.6507  0.2292 -1.6024
  714MOL0     H94196   7.466   5.749   2.534  0.2863  0.3658  1.8288
  714MOL0     H94197   7.175   5.777   2.476  0.4396 -0.3585 -0.9861
  714MOL0     H94198   7.293   5.902   2.531 -1.6348 -2.0410  2.5424
  714MOL0     H94199   7.353   5.752   2.273 -1.9312 -1.1948  0.5425
  714MOL0     H94200   7.425   5.898   2.349  0.2506 -0.5289  0.7911
  714MOL0     H94201   7.116   5.786   2.132 -1.6393  0.4278 -1.0385
  714MOL0     H94202   6.965   5.948   1.954 -1.3616  2.6173 -1.9844
  714MOL0     H94203   6.994   6.120   1.973 -0.6668  0.4851  0.3614
  714MOL0     H94204   6.800   5.944   2.115  1.9425 -0.5618  2.3689
  714MOL0     H94205   6.768   6.103   2.020  0.5460 -2.0119 -1.3507
  714MOL0     H94206   6.863   6.043   2.295  1.1496 -0.9791 -2.2081
  714MOL0     H94207   6.873   6.214   2.222 -0.2511  0.1788  1.9191
  714MOL0     H94208   6.637   6.243   2.240 -1.7156 -0.4369  1.1861
  714MOL0     H94209   6.693   6.166   2.388 -0.8790 -1.1397  0.2471
  714MOL0     H94210   6.493   6.266   2.428 -0.7370  0.5453 -3.7116
  714MOL0     H94211   6.265   6.289   2.518 -2.6814 -0.2200 -3.1673
  714MOL0     H94212   5.904   6.302   2.782  0.5157  1.5551 -0.5522
  714MOL0     H94213   5.666   6.359   2.794  0.1340  0.5934 -0.4030
  714MOL0     H94214   5.397   6.322   2.441 -0.9380  1.4052 -2.4904
  714MOL0     H94215   5.449   6.497   2.440 -1.2638  0.7819  0.7986
  714MOL0     H94216   5.236   6.350   2.599  0.8877 -0.6461 -0.3067
  714MOL0     H94217   5.196   6.472   2.470  2.8072  1.8424 -2.6396
  714MOL0     H94218   5.278   6.657   2.582 -2.1418  3.1958  2.8244
  714MOL0     H94219   5.350   6.568   2.712 -0.2752 -1.4063  0.5252
  714MOL0     H94220   5.050   6.587   2.646 -0.2219 -2.1484  0.6400
  714MOL0     H94221   5.114   6.496   2.781 -2.9187 -0.3352 -0.0208
  714MOL0     H94222   5.155   6.798   2.745  0.8106 -0.5003  0.2397
  714MOL0     H94223   5.211   6.693   2.892 -1.0039 -2.0323  0.1908
  714MOL0     H94224   4.989   6.660   2.961  1.0632 -1.1919 -1.4535
  714MOL0     H94225   4.923   6.760   2.834 -2.8692 -0.4142  2.3106
  714MOL0     H94226   5.144   6.856   3.025  0.6281  2.7522  0.6341
  714MOL0     H94227   5.041   6.957   2.916  1.1263 -0.6934 -1.4947
  714MOL0     H94228   4.844   6.848   3.054  0.4406  0.3377 -3.7812
  714MOL0     H94229   4.955   6.977   3.132  3.5424 -0.8487  0.2157
  714MOL0     H94230   5.623   6.361   2.373 -0.7912  2.6284  0.3245
  714MOL0     H94231   5.874   6.295   2.348 -0.2284 -2.3016 -0.4185
  714MOL0     H94232   6.158   5.906   2.355  2.3462 -1.5587 -1.7693
  714MOL0     H94233   6.371   5.899   2.248  0.6055  0.7476 -1.0665
  714MOL0     H94234   8.105   5.631   2.818  0.1316  0.2950  1.4671
  714MOL0     H94235   8.316   5.522   2.767 -0.6542 -0.6967 -2.0530
  714MOL0     H94236   8.662   5.192   3.099  1.2032 -0.2302  0.5196
  714MOL0     H94237   8.905   5.138   3.050  2.0834  0.2920 -2.1530
  714MOL0     H94238   9.027   5.112   2.627  3.4054  1.0626 -1.9607
  714MOL0     H94239   9.049   4.938   2.682 -1.9627  1.0597 -1.8588
  714MOL0     H94240   9.214   5.202   2.724  1.7781 -0.6272  0.4854
  714MOL0     H94241   9.263   5.052   2.796  0.3139 -0.3714  0.1026
  714MOL0     H94242   9.222   5.073   2.502  0.6210 -0.1079 -1.0181
  714MOL0     H94243   9.298   4.942   2.597 -1.2567  0.4404 -0.5170
  714MOL0     H94244   9.375   5.242   2.581 -0.0764  0.0466 -0.1629
  714MOL0     H94245   9.485   5.107   2.632  1.4228  2.9474  0.2813
  714MOL0     H94246   9.568   5.094   2.227 -0.7814 -1.4922  1.1255
  714MOL0     H94247   8.807   5.115   2.632 -0.8844 -0.2421  0.2693
  714MOL0     H94248   8.588   5.194   2.677 -1.6777 -0.0954  1.2733
  715MOL0     O94249   9.331   8.103   2.785  0.2608 -0.3976 -0.2822
  715MOL0     C94250   9.305   7.983   2.795 -0.0760 -0.5359 -0.2547
  715MOL0     O94251   9.391   7.886   2.763  0.0687 -0.5245  0.2817
  715MOL0     C94252   9.502   7.913   2.690 -0.3664 -0.1560 -0.3335
  715MOL0     C94253   9.632   7.885   2.752 -0.4458 -0.1353  0.7917
  715MOL0     C94254   9.755   7.900   2.685  0.0602 -0.4151  0.2012
  715MOL0     C94255   9.745   7.955   2.555 -0.9816  1.0640 -0.0578
  715MOL0     O94256   9.854   7.962   2.470 -0.5304 -0.1915 -0.0214
  715MOL0     C94257   9.980   7.909   2.514  0.2180 -0.1217  0.1756
  715MOL0     C94258  10.082   7.942   2.406 -0.0465  0.0177 -0.4078
  715MOL0     C94259  10.211   7.987   2.465 -0.0813 -0.5112 -0.2478
  715MOL0     C94260  10.306   8.047   2.353  0.0526  0.1921 -0.3942
  715MOL0     C94261  10.409   8.130   2.435 -0.7051 -0.2772 -0.2236
  715MOL0     C94262  10.515   8.176   2.343 -0.2866 -0.3040  0.4768
  715MOL0     C94263  10.621   8.245   2.426 -1.2697 -0.5717 -0.0905
  715MOL0     C94264  10.725   8.328   2.347  0.5943  0.4587  0.2562
  715MOL0     N94265  10.790   8.429   2.425 -0.6040 -0.4957 -0.7813
  715MOL0     C94266  10.903   8.405   2.509 -1.0355  0.5097  0.0501
  715MOL0     C94267  10.951   8.530   2.540  0.5387  0.0960  0.6686
  715MOL0     C94268  11.078   8.569   2.613  0.3355 -0.1533 -0.8700
  715MOL0     C94269  11.200   8.489   2.560  0.0356  0.1314 -0.0861
  715MOL0     C94270  11.332   8.527   2.624  0.9609 -0.0031 -0.7352
  715MOL0     C94271  11.403   8.653   2.563  0.5309 -0.0398 -0.0424
  715MOL0     O94272  11.455   8.627   2.435 -0.1467 -0.8240 -0.3301
  715MOL0     C94273  11.595   8.633   2.434  1.0328  0.5282  0.3727
  715MOL0     C94274  11.637   8.706   2.326  0.6241  0.1045 -0.4578
  715MOL0     C94275  11.765   8.711   2.290 -0.5280 -0.7529  0.2491
  715MOL0     C94276  11.866   8.648   2.376 -0.0344 -0.0840  0.7384
  715MOL0     C94277  12.019   8.646   2.342 -0.4434 -0.4806  0.2574
  715MOL0     O94278  12.090   8.589   2.436  0.6481  0.2363  0.0091
  715MOL0     C94279  12.227   8.571   2.421 -0.6029 -0.2912 -0.4140
  715MOL0     C94280  12.293   8.533   2.308 -0.1186  0.6309  0.7558
  715MOL0     C94281  12.429   8.510   2.314  0.6043  0.6723 -0.5814
  715MOL0     C94282  12.507   8.506   2.433  0.6874 -0.1032  0.6175
  715MOL0     O94283  12.637   8.465   2.430  0.2564 -0.0497  0.6469
  715MOL0     C94284  12.719   8.486   2.544  0.0978  0.0081  0.4167
  715MOL0     C94285  12.869   8.454   2.509  0.6206 -0.0318  0.2451
  715MOL0     C94286  12.967   8.540   2.589  0.5946 -0.3790  0.4912
  715MOL0     C94287  12.962   8.479   2.733  1.1516  0.3301 -0.7519
  715MOL0     C94288  13.071   8.531   2.825 -0.2441 -0.2641  0.4711
  715MOL0     C94289  13.210   8.506   2.781  0.3697 -0.1212 -0.6594
  715MOL0     C94290  13.310   8.595   2.854  0.3200 -0.5808  0.5358
  715MOL0     C94291  13.448   8.565   2.810  0.1990 -0.5532 -0.6612
  715MOL0    Cl94292  13.544   8.438   2.893 -0.0305  0.1589  0.3670
  715MOL0     C94293  12.434   8.533   2.549 -0.1459 -1.0020 -0.3768
  715MOL0     C94294  12.299   8.567   2.545  0.3964  0.1138 -0.3653
  715MOL0     O94295  12.062   8.697   2.238 -0.6266  0.5086  0.6481
  715MOL0     C94296  11.818   8.574   2.487 -0.0222 -0.9112  0.7591
  715MOL0     C94297  11.685   8.568   2.520  0.6972  0.0911 -0.3331
  715MOL0     N94298  10.880   8.628   2.484  0.5805 -0.9603  0.0574
  715MOL0     N94299  10.795   8.571   2.405  0.0354  0.2379  0.1081
  715MOL0     C94300   9.626   8.000   2.500  1.1441 -0.8121 -0.1807
  715MOL0     C94301   9.502   7.973   2.564 -0.0642 -0.2640  0.0751
  715MOL0     C94302   9.173   7.947   2.839  1.1982 -0.0145 -0.2741
  715MOL0     C94303   9.087   8.024   2.924  0.1297  0.2572  0.2567
  715MOL0     C94304   8.965   7.971   2.972  0.6820  1.0834 -0.5155
  715MOL0     C94305   8.920   7.849   2.914 -0.2382 -0.2341 -0.3597
  715MOL0     O94306   8.797   7.795   2.949 -0.1445  0.4832  0.7610
  715MOL0     C94307   8.692   7.884   2.926  0.6650 -0.8622 -0.6300
  715MOL0     C94308   8.562   7.809   2.892  0.4260 -1.1871  0.2702
  715MOL0     C94309   8.527   7.696   2.984  0.1861  0.1417  0.4516
  715MOL0     C94310   8.401   7.622   2.945 -0.4166  0.2213  0.6721
  715MOL0     C94311   8.348   7.539   3.052  0.3248  0.0297 -0.0114
  715MOL0     C94312   8.314   7.456   3.130 -0.0121 -0.1088 -0.0638
  715MOL0     C94313   9.006   7.780   2.830 -0.6279  0.1761 -1.0067
  715MOL0     C94314   9.127   7.824   2.791  0.4383 -0.1729 -0.0064
  715MOL0     H94315   9.639   7.845   2.852  3.2523 -2.3756 -0.1469
  715MOL0     H94316   9.843   7.861   2.735 -0.5206 -1.2717  0.5818
  715MOL0     H94317   9.971   7.801   2.529  2.7599 -0.5841 -0.9681
  715MOL0     H94318  10.011   7.948   2.611  0.6891 -0.0902  0.0139
  715MOL0     H94319  10.040   8.019   2.340 -0.9220 -0.1880 -0.1073
  715MOL0     H94320  10.091   7.858   2.337 -2.4122  0.0718 -0.8463
  715MOL0     H94321  10.267   7.906   2.513  1.6038  0.0510 -1.1486
  715MOL0     H94322  10.189   8.066   2.537 -0.5683  1.1644 -2.1381
  715MOL0     H94323  10.356   7.963   2.304  4.6341  2.1057  0.4304
  715MOL0     H94324  10.260   8.118   2.283  2.4703  2.3347  0.0308
  715MOL0     H94325  10.455   8.072   2.516 -0.2081 -0.2979 -0.5102
  715MOL0     H94326  10.366   8.221   2.478  1.1222  1.2232 -1.3989
  715MOL0     H94327  10.465   8.243   2.272 -1.2455 -0.6474  0.8163
  715MOL0     H94328  10.558   8.090   2.292  1.5395  0.2111  1.0665
  715MOL0     H94329  10.564   8.297   2.504 -1.1147  0.5370 -0.6986
  715MOL0     H94330  10.676   8.182   2.497  0.0042  0.8879  0.2706
  715MOL0     H94331  10.683   8.368   2.254  0.9186 -2.8174 -1.4602
  715MOL0     H94332  10.800   8.254   2.320  0.0020 -1.6373  3.6914
  715MOL0     H94333  10.949   8.313   2.545  1.9508  1.2035 -1.6062
  715MOL0     H94334  11.051   8.557   2.719 -1.4913  2.4924 -0.9125
  715MOL0     H94335  11.095   8.677   2.607 -2.5578  0.5224  0.6578
  715MOL0     H94336  11.220   8.502   2.454  3.6965  0.1743  0.4984
  715MOL0     H94337  11.183   8.383   2.582  0.1059 -0.0535 -0.9128
  715MOL0     H94338  11.309   8.553   2.728 -0.2813  2.5208 -1.5531
  715MOL0     H94339  11.392   8.436   2.616  0.3619 -0.2509 -3.1336
  715MOL0     H94340  11.474   8.677   2.643  1.4951 -0.6947 -0.6746
  715MOL0     H94341  11.326   8.730   2.567 -0.9392 -1.5281  1.4970
  715MOL0     H94342  11.568   8.757   2.260 -0.6345 -0.4541  0.3947
  715MOL0     H94343  11.798   8.773   2.207  0.8021 -0.6664  0.8241
  715MOL0     H94344  12.244   8.544   2.211  1.1533  0.3477  0.0541
  715MOL0     H94345  12.471   8.486   2.217 -1.4205 -0.8004 -1.1478
  715MOL0     H94346  12.684   8.415   2.620 -0.9527 -2.5639 -2.2762
  715MOL0     H94347  12.712   8.592   2.570  0.3319  0.5151 -1.4270
  715MOL0     H94348  12.890   8.470   2.402  1.7668  0.4573  0.5291
  715MOL0     H94349  12.889   8.348   2.524 -0.5771 -0.0796  1.6902
  715MOL0     H94350  12.947   8.647   2.590 -0.3897 -0.5434 -0.3019
  715MOL0     H94351  13.070   8.534   2.554  1.6481  3.0747  2.4949
  715MOL0     H94352  12.868   8.493   2.787  0.4019  1.1357 -2.2118
  715MOL0     H94353  12.979   8.371   2.736 -1.9747 -0.3436  3.6900
  715MOL0     H94354  13.064   8.483   2.923 -1.5291  0.6576  0.8580
  715MOL0     H94355  13.053   8.638   2.838 -2.7161 -0.6957  1.0133
  715MOL0     H94356  13.217   8.539   2.676  3.2187  0.9571 -0.2276
  715MOL0     H94357  13.250   8.404   2.783  1.4404  0.2550  2.2773
  715MOL0     H94358  13.287   8.692   2.810 -0.2208 -0.8431  0.2303
  715MOL0     H94359  13.297   8.585   2.963 -2.2836 -2.3573  0.1542
  715MOL0     H94360  13.507   8.656   2.825  1.1141 -1.1293 -0.6629
  715MOL0     H94361  13.447   8.536   2.704 -1.0180 -1.8640 -0.3201
  715MOL0     H94362  12.487   8.526   2.644  2.4406 -0.7688 -1.7162
  715MOL0     H94363  12.248   8.593   2.638  1.6354  0.2963  0.2861
  715MOL0     H94364  11.883   8.516   2.552  3.0560 -0.5178 -1.7137
  715MOL0     H94365  11.649   8.491   2.588 -2.9847  0.0749 -2.0967
  715MOL0     H94366   9.629   8.046   2.402 -0.0970 -0.9871 -0.3142
  715MOL0     H94367   9.401   7.997   2.531  0.1388  0.9992  0.3022
  715MOL0     H94368   9.131   8.120   2.950 -1.2433  0.3480  2.5601
  715MOL0     H94369   8.914   8.024   3.051  0.0609 -1.5725  0.9579
  715MOL0     H94370   8.719   7.965   2.857 -1.4311 -0.0914 -0.6177
  715MOL0     H94371   8.671   7.936   3.020 -0.0854  3.0073 -2.7216
  715MOL0     H94372   8.487   7.888   2.898  0.7226 -0.7459 -1.5021
  715MOL0     H94373   8.581   7.774   2.790 -1.5983  0.7122 -0.8468
  715MOL0     H94374   8.516   7.736   3.085  0.5847  2.1321 -0.2437
  715MOL0     H94375   8.604   7.618   2.986 -0.0786 -0.1143  0.7197
  715MOL0     H94376   8.314   7.684   2.921 -0.3134  0.3042  0.5119
  715MOL0     H94377   8.420   7.556   2.859  1.2292 -0.1890  1.3130
  715MOL0     H94378   8.296   7.382   3.205  0.1278  0.4519  0.5239
  715MOL0     H94379   8.966   7.685   2.795  2.0987  0.0318 -4.2464
  715MOL0     H94380   9.192   7.770   2.723  1.5937  0.9242  0.1747
  716MOL0     O94381  10.151   8.487   8.316 -0.6863 -0.3732  0.1241
  716MOL0     C94382  10.187   8.571   8.239 -0.2456 -0.8668  0.1216
  716MOL0     O94383  10.115   8.669   8.180  0.1478  0.5395  0.2593
  716MOL0     C94384   9.998   8.695   8.241 -0.0460 -0.1621  0.7203
  716MOL0     C94385   9.884   8.622   8.229  0.1630 -0.1345 -0.0843
  716MOL0     C94386   9.769   8.667   8.300  0.1245 -0.1356  0.9068
  716MOL0     C94387   9.771   8.794   8.365 -0.1847  0.3287  0.2668
  716MOL0     O94388   9.661   8.834   8.442  0.7752  0.2971  0.3985
  716MOL0     C94389   9.650   8.960   8.514 -0.3313  0.4535  0.3665
  716MOL0     C94390   9.505   8.981   8.551  0.2619 -0.0298  0.3835
  716MOL0     C94391   9.407   8.870   8.546  0.0003  0.5279 -0.2021
  716MOL0     C94392   9.267   8.908   8.585  0.1783 -0.5020  0.1510
  716MOL0     C94393   9.169   8.788   8.554  0.7116 -0.0343  0.4515
  716MOL0     C94394   9.183   8.680   8.657  0.3564 -0.2754  0.2134
  716MOL0     C94395   9.081   8.574   8.626  0.4494  0.8796  0.1121
  716MOL0     C94396   9.072   8.472   8.736  0.3014 -0.2752 -0.1155
  716MOL0     N94397   8.974   8.514   8.844 -0.4649  0.6156  1.0983
  716MOL0     C94398   9.009   8.608   8.932 -0.0165 -0.3291 -0.1732
  716MOL0     C94399   8.891   8.666   8.967 -0.3035 -0.2819 -0.9636
  716MOL0     C94400   8.872   8.787   9.060  0.0863  0.2659  0.4096
  716MOL0     C94401   8.765   8.889   9.005 -0.1456 -0.1822  1.0376
  716MOL0     C94402   8.757   9.024   9.069 -0.1127  0.2306  0.9810
  716MOL0     C94403   8.632   9.098   9.029  0.4192 -0.6997 -0.9751
  716MOL0     O94404   8.504   9.035   9.077  0.6440  0.3211 -0.0713
  716MOL0     C94405   8.388   9.083   9.023 -1.1280 -0.3433  0.2442
  716MOL0     C94406   8.372   9.213   8.970  0.3655  0.1251  0.0917
  716MOL0     C94407   8.244   9.260   8.934 -0.1433 -0.2395 -0.3580
  716MOL0     C94408   8.133   9.178   8.941 -0.3292  0.6839 -0.0173
  716MOL0     C94409   8.005   9.225   8.904 -0.0291  0.1263  0.4040
  716MOL0     O94410   7.901   9.151   8.942  0.0358  0.5176  0.1065
  716MOL0     C94411   7.784   9.215   8.978  0.1441  0.7506  0.9308
  716MOL0     C94412   7.790   9.325   9.061  0.2285 -0.4372 -0.6559
  716MOL0     C94413   7.665   9.384   9.089 -0.5237  0.4303 -0.1016
  716MOL0     C94414   7.549   9.335   9.033 -0.1231 -0.3274 -0.4333
  716MOL0     O94415   7.423   9.380   9.070 -0.3762  0.1828  0.2106
  716MOL0     C94416   7.407   9.501   9.150 -0.1987  0.1721  0.1819
  716MOL0     C94417   7.265   9.553   9.134  0.1972 -0.2199 -1.1812
  716MOL0     C94418   7.175   9.445   9.182 -0.4001  0.1402  0.4717
  716MOL0     C94419   7.031   9.485   9.160  0.1951  0.0415 -0.2394
  716MOL0     C94420   6.936   9.361   9.167 -0.0096  0.2592 -0.1878
  716MOL0     C94421   6.781   9.371   9.203 -0.2273 -0.4158 -0.6238
  716MOL0     C94422   6.699   9.434   9.086 -0.2481  0.6828  0.2373
  716MOL0     C94423   6.549   9.441   9.122 -0.0223  0.2144  0.4663
  716MOL0    Cl94424   6.488   9.278   9.096  0.1408  0.2963 -0.2792
  716MOL0     C94425   7.551   9.222   8.949 -0.2004  0.2460  0.3577
  716MOL0     C94426   7.668   9.165   8.920  0.1802  0.6217  0.0764
  716MOL0     O94427   7.994   9.342   8.870 -0.2964  0.2837  0.2497
  716MOL0     C94428   8.156   9.045   8.985  0.1082 -0.2175 -1.3665
  716MOL0     C94429   8.277   8.999   9.025 -0.1614 -0.0745  0.1731
  716MOL0     N94430   8.788   8.594   8.897 -1.0571 -0.1172 -0.2676
  716MOL0     N94431   8.837   8.502   8.820  0.6065 -0.8286 -0.2496
  716MOL0     C94432   9.894   8.864   8.372  0.1725 -0.6514  0.7579
  716MOL0     C94433  10.006   8.823   8.304  0.1858  0.3962  0.5125
  716MOL0     C94434  10.335   8.603   8.224  0.2858  0.0000 -0.1184
  716MOL0     C94435  10.432   8.517   8.274  1.0094  0.3200  0.4564
  716MOL0     C94436  10.572   8.546   8.262  0.7371 -0.3571  0.4690
  716MOL0     C94437  10.607   8.665   8.200  0.4637 -0.2645  0.2639
  716MOL0     O94438  10.739   8.703   8.198  0.1947  0.1328 -0.3552
  716MOL0     C94439  10.813   8.645   8.094 -0.3231  0.8154  0.4150
  716MOL0     C94440  10.870   8.505   8.121 -0.6831 -0.1533 -0.1366
  716MOL0     C94441  10.970   8.478   8.005 -0.5956  0.7800 -0.2740
  716MOL0     C94442  11.044   8.341   8.008  0.3957  0.4198 -0.4062
  716MOL0     C94443  11.150   8.338   7.906  0.0536  0.1570  0.2097
  716MOL0     C94444  11.236   8.344   7.822 -0.7177  0.4378  0.9030
  716MOL0     C94445  10.512   8.751   8.151 -0.3437 -0.0950 -0.1968
  716MOL0     C94446  10.379   8.728   8.165 -0.0706 -0.2903 -1.0264
  716MOL0     H94447   9.895   8.526   8.180  3.1163 -0.9760  1.9117
  716MOL0     H94448   9.683   8.602   8.308  0.7706 -0.8643  2.3521
  716MOL0     H94449   9.689   9.042   8.454  0.1982 -2.0214 -2.9504
  716MOL0     H94450   9.708   8.946   8.605  0.0885  3.3057  0.6116
  716MOL0     H94451   9.474   9.054   8.475  1.5696 -1.0607 -1.2032
  716MOL0     H94452   9.498   9.025   8.651 -0.0022 -1.4085  0.9920
  716MOL0     H94453   9.439   8.783   8.603 -0.9626 -0.0198 -0.4735
  716MOL0     H94454   9.410   8.836   8.442 -2.9575  0.0127 -0.2040
  716MOL0     H94455   9.266   8.945   8.688  4.9334 -1.0915  0.6282
  716MOL0     H94456   9.233   8.986   8.515 -0.8232  0.1618  1.3323
  716MOL0     H94457   9.188   8.743   8.456  3.4795  2.8089 -0.4461
  716MOL0     H94458   9.070   8.832   8.569 -0.1889 -1.8362  0.1209
  716MOL0     H94459   9.161   8.728   8.753  2.7612  0.2481  0.5745
  716MOL0     H94460   9.286   8.642   8.663  0.4031 -0.0046  1.5859
  716MOL0     H94461   8.980   8.611   8.607 -0.8228 -2.1530  0.3107
  716MOL0     H94462   9.117   8.525   8.535 -1.3869  1.8065 -1.1802
  716MOL0     H94463   9.168   8.468   8.788  0.4282 -0.3218 -0.3575
  716MOL0     H94464   9.054   8.375   8.687 -0.4427  1.2360 -3.0618
  716MOL0     H94465   9.110   8.627   8.966  0.4137 -3.5671  0.6825
  716MOL0     H94466   8.970   8.836   9.066 -0.1831  0.8003  0.4798
  716MOL0     H94467   8.842   8.751   9.158 -0.2408 -0.6902 -0.0340
  716MOL0     H94468   8.674   8.843   9.045 -0.3172  0.0434  0.9073
  716MOL0     H94469   8.767   8.904   8.896  2.9832 -1.2045  0.8385
  716MOL0     H94470   8.747   9.030   9.178  2.6717  1.2775  1.2742
  716MOL0     H94471   8.851   9.079   9.053  1.6606 -1.5371  4.3282
  716MOL0     H94472   8.629   9.101   8.919  2.2928 -2.9953 -1.1782
  716MOL0     H94473   8.633   9.201   9.067  3.4921 -0.3634 -1.7011
  716MOL0     H94474   8.450   9.287   8.974 -0.5239  1.2453 -1.6834
  716MOL0     H94475   8.246   9.362   8.897 -2.4897 -1.3719 -4.2407
  716MOL0     H94476   7.875   9.371   9.111 -0.2105  0.9399 -1.1128
  716MOL0     H94477   7.673   9.459   9.167 -0.4279 -1.5088  1.8350
  716MOL0     H94478   7.469   9.581   9.107 -1.4603  1.1770  0.1637
  716MOL0     H94479   7.433   9.473   9.252 -1.2068 -1.2508  0.0836
  716MOL0     H94480   7.236   9.589   9.035 -3.2544 -0.8915 -0.5663
  716MOL0     H94481   7.243   9.641   9.194  0.8882 -2.1399  2.1214
  716MOL0     H94482   7.195   9.424   9.288 -1.0499  0.1458  0.5998
  716MOL0     H94483   7.196   9.357   9.121  0.3330  0.9673 -0.4879
  716MOL0     H94484   7.008   9.552   9.243 -0.3034 -3.8549  3.1018
  716MOL0     H94485   7.012   9.519   9.057 -6.5954 -2.2290 -0.2661
  716MOL0     H94486   6.964   9.304   9.256 -2.6534 -0.1502  0.4590
  716MOL0     H94487   6.964   9.307   9.076 -0.0211 -0.5065  0.2552
  716MOL0     H94488   6.766   9.421   9.299 -2.5203  0.5546 -1.4129
  716MOL0     H94489   6.743   9.270   9.220 -1.1326 -0.1169 -0.8339
  716MOL0     H94490   6.728   9.539   9.078 -0.7483  0.8428  0.4394
  716MOL0     H94491   6.717   9.376   8.996  0.6197 -1.2939  1.6171
  716MOL0     H94492   6.498   9.509   9.053 -0.8410  0.8705  1.6656
  716MOL0     H94493   6.523   9.471   9.224  0.0429  1.0295  0.2494
  716MOL0     H94494   7.453   9.193   8.913 -0.6662 -1.0139  2.4919
  716MOL0     H94495   7.679   9.089   8.843  1.8463  1.5963 -0.7084
  716MOL0     H94496   8.070   8.981   9.003 -1.4798  2.4765  1.7233
  716MOL0     H94497   8.283   8.899   9.065  2.0836  0.4843  1.4195
  716MOL0     H94498   9.903   8.963   8.416 -0.2507  1.2849 -3.0809
  716MOL0     H94499  10.099   8.877   8.289  0.4899 -0.5059 -1.1307
  716MOL0     H94500  10.395   8.424   8.316  2.0419 -2.6940 -4.4432
  716MOL0     H94501  10.644   8.474   8.299 -1.7090 -1.2531  3.9342
  716MOL0     H94502  10.899   8.712   8.085 -1.0399  1.5228 -1.7413
  716MOL0     H94503  10.766   8.651   7.996  3.7290  0.5269 -1.7664
  716MOL0     H94504  10.912   8.504   8.223 -0.0472  1.0321 -0.3641
  716MOL0     H94505  10.789   8.433   8.112 -0.1784 -0.5154 -2.2075
  716MOL0     H94506  11.041   8.561   7.998 -0.8443  0.9867 -0.3696
  716MOL0     H94507  10.907   8.472   7.916 -3.1314 -0.0831  1.4767
  716MOL0     H94508  11.091   8.323   8.105  0.6687 -2.6673 -1.0046
  716MOL0     H94509  10.979   8.254   7.994  2.4979 -1.9650  2.9740
  716MOL0     H94510  11.319   8.351   7.755 -0.5169 -2.9294  0.6167
  716MOL0     H94511  10.547   8.841   8.101  2.8598 -0.8841  0.3853
  716MOL0     H94512  10.301   8.791   8.124  0.2971  2.3282  1.9345
  717MOL0     O94513   1.101   6.623   3.698 -0.5452  0.1042 -0.5566
  717MOL0     C94514   1.120   6.521   3.767 -0.5851  0.3097  0.0097
  717MOL0     O94515   1.034   6.416   3.795  0.3379 -0.0256  0.2481
  717MOL0     C94516   0.902   6.416   3.762  0.7183  0.6169 -0.4118
  717MOL0     C94517   0.849   6.470   3.639 -0.2681  0.0975 -0.8694
  717MOL0     C94518   0.715   6.475   3.607  0.2624 -0.1509 -0.6649
  717MOL0     C94519   0.617   6.429   3.700 -0.5003  0.0029 -0.9658
  717MOL0     O94520   0.491   6.448   3.666  0.5620 -0.6549 -1.1410
  717MOL0     C94521   0.391   6.445   3.773  0.6602  0.8089 -0.2248
  717MOL0     C94522   0.258   6.457   3.710 -0.1093 -0.1454  0.8819
  717MOL0     C94523   0.139   6.473   3.802 -0.0113  0.1681 -0.2043
  717MOL0     C94524   0.004   6.502   3.738  0.2714  0.5565 -0.1194
  717MOL0     C94525  -0.109   6.506   3.848 -0.3349 -0.2157  0.5401
  717MOL0     C94526  -0.243   6.550   3.775 -0.0189  0.3446  1.0177
  717MOL0     C94527  -0.359   6.574   3.869  0.2087  0.4590  0.1046
  717MOL0     C94528  -0.413   6.436   3.922 -0.7865  0.9759  0.2538
  717MOL0     N94529  -0.532   6.473   4.002  0.0187 -0.3495 -0.0230
  717MOL0     C94530  -0.657   6.510   3.960 -0.0432 -0.2610 -0.7925
  717MOL0     C94531  -0.730   6.520   4.079 -0.0119  0.4817 -0.7731
  717MOL0     C94532  -0.881   6.573   4.099 -1.3407 -0.1363  0.6438
  717MOL0     C94533  -0.987   6.490   4.159  0.1915 -0.5320 -0.3949
  717MOL0     C94534  -1.010   6.514   4.309  0.7647  0.3459 -0.5657
  717MOL0     C94535  -1.105   6.416   4.372  0.0214 -0.5184 -0.4853
  717MOL0     O94536  -1.234   6.417   4.298  0.1039  0.4675  0.0774
  717MOL0     C94537  -1.337   6.346   4.344  0.6515 -0.9049  0.0581
  717MOL0     C94538  -1.455   6.361   4.283  0.2436  1.0249 -0.0397
  717MOL0     C94539  -1.571   6.295   4.329 -0.1968  1.3591 -0.4400
  717MOL0     C94540  -1.570   6.225   4.447 -0.2049  0.3324 -0.2039
  717MOL0     C94541  -1.702   6.177   4.495 -0.2443 -0.1598 -0.3352
  717MOL0     O94542  -1.804   6.206   4.412  0.6559 -0.1652 -0.7633
  717MOL0     C94543  -1.910   6.113   4.393  0.1034 -0.4236 -0.1013
  717MOL0     C94544  -2.040   6.153   4.338 -0.1745  0.0504  0.1622
  717MOL0     C94545  -2.140   6.063   4.297 -0.2252  0.2100  0.6346
  717MOL0     C94546  -2.123   5.926   4.330  0.1316 -0.3542 -0.2439
  717MOL0     O94547  -2.218   5.841   4.300 -0.0794  0.1090 -0.1544
  717MOL0     C94548  -2.221   5.702   4.359  0.8214 -0.1848 -0.4713
  717MOL0     C94549  -2.356   5.644   4.317 -0.3849 -0.4606  0.0081
  717MOL0     C94550  -2.469   5.652   4.421 -0.9557 -0.8007 -0.2685
  717MOL0     C94551  -2.596   5.590   4.365  0.2253  0.1055  0.0406
  717MOL0     C94552  -2.694   5.572   4.473  0.1318 -0.0817  0.3821
  717MOL0     C94553  -2.683   5.432   4.544  0.7097 -0.4057 -0.1403
  717MOL0     C94554  -2.801   5.422   4.642  0.5127 -0.6331 -0.5972
  717MOL0     C94555  -2.809   5.290   4.713 -0.8650 -0.0660 -0.2799
  717MOL0    Cl94556  -2.828   5.148   4.612 -0.1161  0.4809 -0.1021
  717MOL0     C94557  -2.002   5.882   4.383 -0.2995  0.2025 -0.6383
  717MOL0     C94558  -1.892   5.970   4.412 -0.4413  0.3573  0.0199
  717MOL0     O94559  -1.709   6.122   4.606  0.9223  0.3844 -0.7094
  717MOL0     C94560  -1.448   6.200   4.511 -0.0425  0.0090 -0.0552
  717MOL0     C94561  -1.335   6.269   4.461 -0.3280  0.1417  0.3711
  717MOL0     N94562  -0.639   6.493   4.183  0.7242 -0.3601 -0.3536
  717MOL0     N94563  -0.528   6.470   4.138 -0.6191 -0.5738 -0.5799
  717MOL0     C94564   0.670   6.365   3.821  0.3385  0.2165  0.0735
  717MOL0     C94565   0.804   6.363   3.850  0.0992  0.1415  0.4566
  717MOL0     C94566   1.258   6.510   3.814 -1.0582  0.5050 -0.2128
  717MOL0     C94567   1.290   6.427   3.919 -0.6765  0.1460  0.2466
  717MOL0     C94568   1.427   6.410   3.962  0.6210  0.2291 -0.0414
  717MOL0     C94569   1.527   6.487   3.912 -0.1643 -0.7189  0.4524
  717MOL0     O94570   1.650   6.478   3.972  0.0772  0.7473 -0.0964
  717MOL0     C94571   1.772   6.520   3.904 -0.7963  0.6466  0.4967
  717MOL0     C94572   1.888   6.528   4.000  0.7098 -0.3199  0.0957
  717MOL0     C94573   1.862   6.618   4.116 -0.6861  0.0170 -0.7791
  717MOL0     C94574   1.969   6.629   4.223  0.3180  0.3070  0.2326
  717MOL0     C94575   1.938   6.719   4.331 -0.5252 -0.4863  0.4380
  717MOL0     C94576   1.914   6.810   4.404 -0.1811  0.0855  0.2713
  717MOL0     C94577   1.496   6.574   3.809  0.2865 -0.0472 -0.4174
  717MOL0     C94578   1.363   6.573   3.755 -1.8222 -0.1349  0.1087
  717MOL0     H94579   0.920   6.504   3.565 -1.1298  0.9251 -1.3396
  717MOL0     H94580   0.668   6.508   3.515 -1.6736 -0.5946  0.1170
  717MOL0     H94581   0.415   6.525   3.844 -1.7781  1.6186 -0.2221
  717MOL0     H94582   0.397   6.347   3.822  1.6087  0.8215 -0.2896
  717MOL0     H94583   0.257   6.365   3.650 -0.7922  0.1330  0.4583
  717MOL0     H94584   0.263   6.552   3.656 -1.6833  0.1957  1.2857
  717MOL0     H94585   0.168   6.559   3.863  1.2109 -1.6253  1.8952
  717MOL0     H94586   0.129   6.386   3.867  2.8268 -1.6956 -2.0081
  717MOL0     H94587   0.020   6.600   3.692  2.6239  0.8362  1.1341
  717MOL0     H94588  -0.016   6.422   3.665 -0.6035  0.4437  0.2332
  717MOL0     H94589  -0.071   6.568   3.929  2.7576  1.7998 -2.2287
  717MOL0     H94590  -0.127   6.403   3.883  0.2237 -0.5271 -0.0768
  717MOL0     H94591  -0.269   6.488   3.688 -0.0906  0.0794  1.2261
  717MOL0     H94592  -0.222   6.643   3.722 -0.4947 -0.4663 -0.6855
  717MOL0     H94593  -0.321   6.638   3.949  0.1784  0.9080 -0.2359
  717MOL0     H94594  -0.440   6.621   3.813 -0.6433  1.1718  1.8833
  717MOL0     H94595  -0.349   6.386   3.994 -3.5908 -0.6431  1.8011
  717MOL0     H94596  -0.425   6.362   3.842 -1.3013 -1.0857  2.1645
  717MOL0     H94597  -0.680   6.538   3.858 -1.5962 -0.7745 -0.5973
  717MOL0     H94598  -0.910   6.603   3.998  0.6648  1.9623  0.5938
  717MOL0     H94599  -0.878   6.669   4.152  2.7507  0.6388 -0.6357
  717MOL0     H94600  -0.965   6.386   4.131 -3.0477 -2.0421  1.9847
  717MOL0     H94601  -1.078   6.504   4.099  0.2127 -2.1529 -0.8615
  717MOL0     H94602  -0.915   6.507   4.363  0.1886  0.1698  0.4575
  717MOL0     H94603  -1.046   6.615   4.328 -2.0678 -0.9111  1.4565
  717MOL0     H94604  -1.124   6.450   4.474  1.8582  0.2668 -0.3624
  717MOL0     H94605  -1.064   6.315   4.379 -1.0737 -0.9183  0.4987
  717MOL0     H94606  -1.466   6.410   4.187 -1.6949  1.6787  0.4672
  717MOL0     H94607  -1.661   6.304   4.269 -0.5146  0.1793 -0.1807
  717MOL0     H94608  -2.062   6.259   4.326 -0.3385  0.0207  0.1963
  717MOL0     H94609  -2.223   6.100   4.237 -1.5707 -3.5741 -0.1029
  717MOL0     H94610  -2.211   5.700   4.468 -1.7040  2.2557 -0.0783
  717MOL0     H94611  -2.142   5.636   4.323  2.4294  0.9506  0.7929
  717MOL0     H94612  -2.345   5.541   4.283 -1.0667 -0.5565  0.0733
  717MOL0     H94613  -2.390   5.694   4.226 -1.5644 -2.6241 -0.8025
  717MOL0     H94614  -2.474   5.760   4.438  4.7800  0.2754 -3.0106
  717MOL0     H94615  -2.454   5.609   4.521  2.4214  0.1915 -0.2220
  717MOL0     H94616  -2.638   5.653   4.286 -2.1734 -2.0043 -0.4877
  717MOL0     H94617  -2.575   5.493   4.319  0.5529  1.5532 -3.1790
  717MOL0     H94618  -2.784   5.577   4.411  0.8669 -1.1328 -0.8148
  717MOL0     H94619  -2.678   5.651   4.547  2.9319 -0.6431  0.4633
  717MOL0     H94620  -2.583   5.427   4.588  0.2754  2.5988  1.4799
  717MOL0     H94621  -2.700   5.355   4.468 -2.7934 -0.3782  0.4664
  717MOL0     H94622  -2.774   5.492   4.722 -3.1185 -1.4028  1.5387
  717MOL0     H94623  -2.900   5.452   4.607  0.3371 -0.5293 -0.0286
  717MOL0     H94624  -2.870   5.293   4.804  1.1230  0.4569  1.1057
  717MOL0     H94625  -2.705   5.279   4.745 -0.7424  1.6922  0.0093
  717MOL0     H94626  -1.990   5.778   4.412  2.4563  0.5684 -0.1850
  717MOL0     H94627  -1.807   5.925   4.462  1.1066  1.3175 -1.6272
  717MOL0     H94628  -1.461   6.156   4.609  0.3393 -0.4119 -0.1958
  717MOL0     H94629  -1.244   6.256   4.520  0.2323 -1.3769 -0.7686
  717MOL0     H94630   0.600   6.325   3.895 -0.6851 -0.7593 -1.3613
  717MOL0     H94631   0.839   6.330   3.947 -0.3037 -0.6925  0.3272
  717MOL0     H94632   1.214   6.373   3.975 -1.9619  0.2472 -1.3404
  717MOL0     H94633   1.455   6.342   4.041 -0.7286 -2.5593 -1.7912
  717MOL0     H94634   1.762   6.612   3.847  1.1939 -0.5945 -2.0773
  717MOL0     H94635   1.801   6.451   3.824  1.1754  2.8148 -0.7790
  717MOL0     H94636   1.908   6.435   4.054 -1.3275 -0.8137  0.0824
  717MOL0     H94637   1.977   6.562   3.947 -0.0930  1.7853  0.0025
  717MOL0     H94638   1.767   6.584   4.159 -2.2309 -0.0982 -3.9729
  717MOL0     H94639   1.846   6.717   4.071  0.8842  0.3906 -0.5598
  717MOL0     H94640   1.982   6.526   4.259 -0.9668 -0.1016 -0.3952
  717MOL0     H94641   2.066   6.658   4.180  2.8304  2.4197  6.2876
  717MOL0     H94642   1.901   6.896   4.466 -0.5934 -0.6405  1.2208
  717MOL0     H94643   1.570   6.640   3.764 -2.8215  3.6960 -0.5210
  717MOL0     H94644   1.353   6.653   3.681  1.9047 -0.1256 -0.5649
  718MOL0     O94645   7.271   6.406   0.821 -0.2436 -1.1647  0.0497
  718MOL0     C94646   7.308   6.296   0.856  0.9180  0.7981 -0.1056
  718MOL0     O94647   7.226   6.197   0.895 -0.8307 -0.0546  0.1069
  718MOL0     C94648   7.089   6.199   0.891 -0.2498 -0.5100 -1.6276
  718MOL0     C94649   7.015   6.312   0.934 -0.2878 -0.0613  0.5070
  718MOL0     C94650   6.873   6.316   0.921  0.2970  0.0937 -0.4505
  718MOL0     C94651   6.807   6.202   0.876  0.0209 -0.8019 -0.1628
  718MOL0     O94652   6.676   6.229   0.856  0.6074  0.1636  0.1410
  718MOL0     C94653   6.600   6.129   0.781  0.2295  0.7107  0.8644
  718MOL0     C94654   6.462   6.167   0.763 -0.2535 -0.2205 -0.3437
  718MOL0     C94655   6.385   6.061   0.674 -1.7210  0.9700 -0.1337
  718MOL0     C94656   6.239   6.104   0.686  0.2823 -0.2740  0.3136
  718MOL0     C94657   6.146   5.994   0.625  0.3517  0.4881 -0.1028
  718MOL0     C94658   5.998   6.028   0.659 -0.3010  1.2170  0.3884
  718MOL0     C94659   5.905   5.924   0.602 -0.2745 -0.1910 -0.5023
  718MOL0     C94660   5.914   5.781   0.659 -0.0531  0.1473  0.3481
  718MOL0     N94661   5.796   5.702   0.622  0.3644  0.4938  0.5951
  718MOL0     C94662   5.771   5.650   0.494  0.3432  0.4915 -0.1104
  718MOL0     C94663   5.644   5.596   0.509  0.2403  0.3614 -0.2321
  718MOL0     C94664   5.569   5.541   0.390  0.6344  0.3893 -0.0106
  718MOL0     C94665   5.424   5.502   0.433 -0.1761  0.7105  0.3401
  718MOL0     C94666   5.347   5.468   0.314  0.4181  0.5388  0.1617
  718MOL0     C94667   5.202   5.449   0.365 -1.1197 -0.5122  0.1987
  718MOL0     O94668   5.162   5.307   0.390 -0.6447 -0.3113 -0.0656
  718MOL0     C94669   5.042   5.269   0.427 -0.2468 -0.5979  0.0478
  718MOL0     C94670   4.931   5.347   0.388 -0.0364  0.0076  0.1852
  718MOL0     C94671   4.801   5.310   0.420  0.7200 -0.6304  0.1627
  718MOL0     C94672   4.783   5.204   0.511 -0.4005 -0.2705  0.5784
  718MOL0     C94673   4.657   5.170   0.567 -0.0649 -0.1403 -0.2247
  718MOL0     O94674   4.654   5.081   0.666 -0.3824  0.5385  0.2960
  718MOL0     C94675   4.535   5.053   0.731  0.0036 -0.2016 -0.1834
  718MOL0     C94676   4.523   5.091   0.864  0.4088  0.1392  0.1115
  718MOL0     C94677   4.400   5.093   0.927 -0.1704  0.2040  0.1320
  718MOL0     C94678   4.288   5.036   0.869 -0.1530  0.2499 -0.6503
  718MOL0     O94679   4.166   5.019   0.924 -0.0022 -0.7529  0.0200
  718MOL0     C94680   4.148   5.115   1.036 -0.1383  0.1648  0.0318
  718MOL0     C94681   4.008   5.087   1.088  0.5656  0.6779 -0.4028
  718MOL0     C94682   3.919   5.205   1.127 -0.1741  0.7717  0.2436
  718MOL0     C94683   3.781   5.154   1.149  0.2211 -0.3475  0.1261
  718MOL0     C94684   3.661   5.248   1.119 -0.7745 -0.0035 -0.3308
  718MOL0     C94685   3.540   5.174   1.082 -0.7438 -0.2135  1.4579
  718MOL0     C94686   3.498   5.057   1.181 -0.0341  0.8229  0.0213
  718MOL0     C94687   3.410   4.961   1.098  0.2098 -0.8233  0.4103
  718MOL0    Cl94688   3.271   5.055   1.015  0.0934  0.0033 -0.4486
  718MOL0     C94689   4.305   4.980   0.740  0.1852  0.3063  0.4009
  718MOL0     C94690   4.422   4.996   0.671 -0.0032 -0.2076 -0.0702
  718MOL0     O94691   4.567   5.254   0.547  0.2315 -0.4021  0.2354
  718MOL0     C94692   4.901   5.140   0.563  0.1488  0.6181  0.3229
  718MOL0     C94693   5.024   5.168   0.507  0.2165  0.9750 -0.0006
  718MOL0     N94694   5.603   5.627   0.641  0.0771 -0.0713 -0.1690
  718MOL0     N94695   5.690   5.694   0.704  0.0488  0.1345 -0.5827
  718MOL0     C94696   6.878   6.084   0.842  0.1359  0.0064 -0.8851
  718MOL0     C94697   7.021   6.081   0.858  0.4765 -1.0766  0.0322
  718MOL0     C94698   7.446   6.262   0.831 -0.3114  0.0019  0.1285
  718MOL0     C94699   7.534   6.355   0.775 -0.6539  0.5609 -0.3321
  718MOL0     C94700   7.668   6.322   0.765 -0.4964 -0.3709 -0.5562
  718MOL0     C94701   7.724   6.202   0.805  0.8749 -0.0220  0.1450
  718MOL0     O94702   7.858   6.181   0.791  0.3538  0.3779 -0.6297
  718MOL0     C94703   7.910   6.066   0.845 -0.8383  0.6562 -0.2902
  718MOL0     C94704   8.059   6.070   0.806 -0.4409  0.0963 -0.1159
  718MOL0     C94705   8.142   5.956   0.865 -0.1710  0.0992 -0.4650
  718MOL0     C94706   8.287   5.950   0.828 -0.9813  0.2398  0.3047
  718MOL0     C94707   8.354   6.081   0.836  1.0164  0.9296 -0.3302
  718MOL0     C94708   8.430   6.172   0.818 -0.9844 -0.1460  0.3465
  718MOL0     C94709   7.632   6.107   0.851 -0.2669  0.1607 -0.8101
  718MOL0     C94710   7.496   6.136   0.860 -0.6194  0.7697 -0.9892
  718MOL0     H94711   7.061   6.402   0.973 -0.6775  0.0685  0.6682
  718MOL0     H94712   6.821   6.409   0.943 -0.4368  0.1947 -2.4007
  718MOL0     H94713   6.601   6.043   0.849  0.3191  0.4960  0.5983
  718MOL0     H94714   6.637   6.103   0.681  0.0284  1.5981  0.5582
  718MOL0     H94715   6.468   6.266   0.717  1.4169 -0.5530 -0.9342
  718MOL0     H94716   6.409   6.173   0.858 -0.7287  2.1788 -0.6884
  718MOL0     H94717   6.393   5.959   0.712  0.6245  0.9441 -0.5613
  718MOL0     H94718   6.414   6.063   0.568 -0.5657 -0.0166  0.1386
  718MOL0     H94719   6.212   6.122   0.791  2.2556  1.3298  0.5848
  718MOL0     H94720   6.214   6.201   0.644  0.9334 -0.7778 -1.3015
  718MOL0     H94721   6.173   5.897   0.669 -0.8587 -0.5907 -1.5965
  718MOL0     H94722   6.157   5.993   0.516 -2.5334  0.0706 -0.4872
  718MOL0     H94723   5.976   6.119   0.603  0.5566 -0.7867 -3.5250
  718MOL0     H94724   5.981   6.046   0.766 -3.0828  1.2658  0.0098
  718MOL0     H94725   5.800   5.953   0.613 -0.5170 -1.6336  1.6007
  718MOL0     H94726   5.922   5.915   0.494  1.4624  2.0639 -0.4980
  718MOL0     H94727   5.913   5.794   0.767  1.2469  3.3679  0.0901
  718MOL0     H94728   6.016   5.746   0.637  0.7460  1.0581  2.3377
  718MOL0     H94729   5.833   5.650   0.405  0.6090  1.4915  0.0523
  718MOL0     H94730   5.616   5.453   0.344  0.3148  0.1687  0.0802
  718MOL0     H94731   5.564   5.625   0.321 -0.5706 -0.1630 -0.6234
  718MOL0     H94732   5.385   5.595   0.476 -2.9075 -1.0104  1.8341
  718MOL0     H94733   5.439   5.424   0.508  0.1082 -0.0958 -0.5375
  718MOL0     H94734   5.350   5.550   0.243  0.1620 -0.6398 -1.2581
  718MOL0     H94735   5.375   5.370   0.273  1.3630  0.2473  1.4484
  718MOL0     H94736   5.142   5.483   0.280 -0.2611  0.9472  0.1411
  718MOL0     H94737   5.184   5.519   0.447  0.5226 -3.1043  2.9525
  718MOL0     H94738   4.938   5.436   0.325 -1.0419 -0.7531 -1.0611
  718MOL0     H94739   4.716   5.372   0.393  0.5288 -0.5651  0.8891
  718MOL0     H94740   4.617   5.117   0.914 -0.1486 -1.0743  1.8824
  718MOL0     H94741   4.407   5.136   1.027 -0.6116  1.0617 -0.1889
  718MOL0     H94742   4.158   5.221   1.011 -0.3499 -0.1761 -1.6290
  718MOL0     H94743   4.211   5.089   1.121  0.2841  1.9197  0.2960
  718MOL0     H94744   4.014   5.018   1.173  2.4585 -1.0009 -1.8035
  718MOL0     H94745   3.955   5.045   1.002  0.3158  1.6628 -0.7448
  718MOL0     H94746   3.929   5.272   1.041  1.4487 -0.9990 -1.0401
  718MOL0     H94747   3.958   5.246   1.220  0.1202 -0.5215  0.7210
  718MOL0     H94748   3.769   5.061   1.093  1.3220 -0.5144  0.1616
  718MOL0     H94749   3.771   5.134   1.256 -2.2006  1.0318  0.2504
  718MOL0     H94750   3.677   5.321   1.039 -2.0614  1.0912  0.3737
  718MOL0     H94751   3.632   5.309   1.204 -0.2912  0.9764 -0.8558
  718MOL0     H94752   3.570   5.136   0.985  1.9588  0.6211  1.8714
  718MOL0     H94753   3.456   5.243   1.070  0.5762  1.1657 -0.5824
  718MOL0     H94754   3.571   4.989   1.225 -1.0590 -0.7077 -0.5784
  718MOL0     H94755   3.439   5.103   1.261 -2.0605 -0.3538 -0.7240
  718MOL0     H94756   3.356   4.892   1.164 -1.2199  0.2567  0.4144
  718MOL0     H94757   3.473   4.905   1.028 -0.9503 -0.6118 -0.8351
  718MOL0     H94758   4.219   4.929   0.697  2.2966 -1.1121 -2.4365
  718MOL0     H94759   4.423   4.946   0.575  0.7096  1.4734 -0.9636
  718MOL0     H94760   4.891   5.057   0.633  1.8892 -0.7841 -0.9971
  718MOL0     H94761   5.111   5.105   0.525 -0.2226  0.6053  0.8808
  718MOL0     H94762   6.815   6.001   0.812 -0.0053 -0.7049  1.1980
  718MOL0     H94763   7.070   5.989   0.829  0.4126 -0.4158 -2.3958
  718MOL0     H94764   7.495   6.451   0.742 -2.3585  0.1078  0.2666
  718MOL0     H94765   7.741   6.396   0.733  1.5034 -3.0603 -2.6528
  718MOL0     H94766   7.876   5.974   0.794  0.7639  1.0934 -2.2847
  718MOL0     H94767   7.897   6.062   0.953 -0.9158 -0.1907 -0.3204
  718MOL0     H94768   8.063   6.060   0.697  0.3671  1.3503 -0.2250
  718MOL0     H94769   8.098   6.167   0.841  0.6955 -0.7193  0.9506
  718MOL0     H94770   8.094   5.860   0.841  2.0386 -1.6828  1.7208
  718MOL0     H94771   8.149   5.970   0.973 -1.7750  4.8119 -0.7584
  718MOL0     H94772   8.342   5.884   0.896 -0.9776 -1.0797 -0.9183
  718MOL0     H94773   8.306   5.907   0.729  0.7041  0.8987  0.3130
  718MOL0     H94774   8.481   6.259   0.783 -2.1708 -0.0296 -1.1741
  718MOL0     H94775   7.659   6.011   0.895  0.0934  0.4866 -0.3170
  718MOL0     H94776   7.424   6.062   0.891 -0.4149 -0.3741 -3.0716
  719MOL0     O94777   0.091   6.909   7.865  0.0486  0.0289 -0.4974
  719MOL0     C94778   0.141   6.815   7.792  0.8147 -0.8250 -0.9152
  719MOL0     O94779   0.063   6.714   7.736  0.2208  0.0396  0.3912
  719MOL0     C94780  -0.073   6.716   7.749  0.0494  0.0076  0.5477
  719MOL0     C94781  -0.138   6.724   7.625  1.0094 -0.2334 -0.4801
  719MOL0     C94782  -0.276   6.734   7.626  0.2509  0.9596 -0.5391
  719MOL0     C94783  -0.353   6.737   7.745  0.1840  0.0733  0.5298
  719MOL0     O94784  -0.485   6.770   7.732 -0.1569 -0.2828  0.0475
  719MOL0     C94785  -0.587   6.701   7.816 -0.2942 -0.1832  1.0331
  719MOL0     C94786  -0.585   6.553   7.820  0.7847 -0.2121 -0.3685
  719MOL0     C94787  -0.729   6.497   7.848 -0.1387 -0.3028  0.0054
  719MOL0     C94788  -0.738   6.339   7.842  0.2538  0.1478 -0.6922
  719MOL0     C94789  -0.886   6.307   7.879 -0.0368 -0.3908  0.0784
  719MOL0     C94790  -0.994   6.308   7.777 -0.0996 -0.1980 -0.1343
  719MOL0     C94791  -1.138   6.315   7.828  0.5715  0.0116 -0.4010
  719MOL0     C94792  -1.186   6.173   7.848  0.1104  0.1056  0.4312
  719MOL0     N94793  -1.334   6.172   7.840 -0.3055  0.3188 -0.3777
  719MOL0     C94794  -1.411   6.060   7.808  0.5601 -0.0039 -0.3379
  719MOL0     C94795  -1.543   6.101   7.825 -0.7105  0.2415 -0.8222
  719MOL0     C94796  -1.655   6.009   7.796 -0.0052  0.0880 -0.1851
  719MOL0     C94797  -1.785   6.052   7.867  0.0423  0.8638  0.3359
  719MOL0     C94798  -1.885   5.939   7.884 -0.5188 -0.5094 -0.2763
  719MOL0     C94799  -1.988   5.960   7.983 -0.3091  0.2870  0.4330
  719MOL0     O94800  -2.086   5.858   8.004 -0.4450  0.0684 -0.3492
  719MOL0     C94801  -2.196   5.901   8.075 -0.1598  0.6158  0.2124
  719MOL0     C94802  -2.306   5.820   8.047  0.8063  0.2734 -0.7347
  719MOL0     C94803  -2.426   5.833   8.113 -0.4204  0.2735  0.2226
  719MOL0     C94804  -2.434   5.930   8.215 -0.1190 -0.9418 -0.3229
  719MOL0     C94805  -2.562   5.952   8.293  0.0254  0.5695  0.6696
  719MOL0     O94806  -2.675   5.888   8.242  0.9088  0.1370  1.1038
  719MOL0     C94807  -2.803   5.914   8.293  0.3654  0.4769 -0.9191
  719MOL0     C94808  -2.913   5.891   8.214  0.2174  1.4625  0.6039
  719MOL0     C94809  -3.036   5.883   8.269 -0.7289 -0.0388 -0.4958
  719MOL0     C94810  -3.063   5.914   8.403  0.3310 -0.6241  0.2333
  719MOL0     O94811  -3.188   5.882   8.444  0.8494  0.3681 -0.5653
  719MOL0     C94812  -3.272   5.996   8.487  0.3123  0.2668  0.1620
  719MOL0     C94813  -3.272   6.002   8.642 -0.8961  0.4412 -0.3846
  719MOL0     C94814  -3.407   6.055   8.694 -0.2067 -0.6732  0.6812
  719MOL0     C94815  -3.450   5.990   8.827 -0.4718  0.3029  0.2679
  719MOL0     C94816  -3.562   6.074   8.899 -0.5454  0.1579 -0.2437
  719MOL0     C94817  -3.639   5.990   9.000 -0.0333  0.0307 -0.5306
  719MOL0     C94818  -3.714   6.081   9.092  0.2246 -0.7775  1.0483
  719MOL0     C94819  -3.753   6.010   9.221 -0.0666  0.0741 -0.3204
  719MOL0    Cl94820  -3.875   5.871   9.191  0.3708  0.0118  0.1470
  719MOL0     C94821  -2.962   5.964   8.479  0.3879 -0.2233 -0.1440
  719MOL0     C94822  -2.833   5.963   8.429  0.5319  0.0458 -0.2040
  719MOL0     O94823  -2.564   6.029   8.393 -0.1871  1.0550 -0.1353
  719MOL0     C94824  -2.320   6.010   8.241  0.2099  0.4593 -0.3273
  719MOL0     C94825  -2.204   5.996   8.170  0.3643 -0.0853 -0.0652
  719MOL0     N94826  -1.539   6.237   7.846  0.8637  0.1642  0.0721
  719MOL0     N94827  -1.419   6.272   7.843  0.4740  0.2771 -0.1516
  719MOL0     C94828  -0.286   6.715   7.871 -0.2881  0.8910 -0.3835
  719MOL0     C94829  -0.148   6.703   7.865  0.1525  0.3138 -0.0900
  719MOL0     C94830   0.280   6.801   7.768 -0.8640 -0.1014  0.8067
  719MOL0     C94831   0.330   6.725   7.650 -0.1797 -0.3139 -0.2283
  719MOL0     C94832   0.467   6.723   7.621 -0.2669 -0.5909  1.4777
  719MOL0     C94833   0.560   6.784   7.709 -0.0591  0.2422  0.2471
  719MOL0     O94834   0.691   6.780   7.694 -0.0163  0.2618 -0.4139
  719MOL0     C94835   0.740   6.704   7.584  0.2289  1.1781  0.3645
  719MOL0     C94836   0.891   6.719   7.578 -0.0354 -0.3289  0.2249
  719MOL0     C94837   0.945   6.679   7.444  0.3614 -1.0046  0.8160
  719MOL0     C94838   1.089   6.629   7.442  0.1312  0.8510  0.2378
  719MOL0     C94839   1.172   6.743   7.481 -0.6492  0.4347  0.5707
  719MOL0     C94840   1.242   6.838   7.518  0.1711  0.1124 -0.9593
  719MOL0     C94841   0.515   6.848   7.829 -0.3788  0.0110  0.7122
  719MOL0     C94842   0.376   6.869   7.849 -0.0931 -0.4615  0.6530
  719MOL0     H94843  -0.081   6.717   7.533  2.4293 -0.6963  0.3929
  719MOL0     H94844  -0.330   6.746   7.532 -2.1336 -2.5998  0.1730
  719MOL0     H94845  -0.687   6.734   7.786 -0.3201  1.8439  3.1376
  719MOL0     H94846  -0.572   6.737   7.918 -0.3700 -2.9284  2.1015
  719MOL0     H94847  -0.513   6.526   7.898 -0.1837  0.8952  0.9334
  719MOL0     H94848  -0.560   6.510   7.722 -0.0349  0.0421 -0.6946
  719MOL0     H94849  -0.805   6.535   7.779  0.9048  2.5267  0.3032
  719MOL0     H94850  -0.763   6.536   7.945 -1.9032 -0.8658 -0.3522
  719MOL0     H94851  -0.715   6.301   7.742  0.4298 -0.2975 -0.4844
  719MOL0     H94852  -0.669   6.295   7.913  0.0736 -2.1038 -1.8151
  719MOL0     H94853  -0.918   6.368   7.964  0.9420  1.3162 -0.7283
  719MOL0     H94854  -0.899   6.207   7.922 -3.8864  0.0585  0.3021
  719MOL0     H94855  -0.987   6.224   7.707 -0.6675  0.0723 -0.5322
  719MOL0     H94856  -0.979   6.393   7.710  3.4356  0.8022  1.7309
  719MOL0     H94857  -1.149   6.375   7.918  0.7413  1.8901 -1.5938
  719MOL0     H94858  -1.191   6.363   7.745  0.8269  1.3917  0.2126
  719MOL0     H94859  -1.148   6.137   7.945  1.1266 -0.6214 -0.2091
  719MOL0     H94860  -1.151   6.107   7.768  0.6574 -0.1826  0.8995
  719MOL0     H94861  -1.382   5.958   7.783  3.2310  0.9524 -1.5221
  719MOL0     H94862  -1.636   5.907   7.830  0.3897  0.5942  1.1784
  719MOL0     H94863  -1.677   6.008   7.689 -2.0219  1.5744  0.1581
  719MOL0     H94864  -1.842   6.138   7.829  0.2174  0.8022 -0.0683
  719MOL0     H94865  -1.761   6.079   7.970  0.7970 -1.3845  0.8013
  719MOL0     H94866  -1.943   5.916   7.794 -1.3658 -1.2488  0.4349
  719MOL0     H94867  -1.830   5.848   7.911  1.6855  0.8253 -0.0218
  719MOL0     H94868  -2.040   6.053   7.958 -3.0142 -1.2798 -0.1925
  719MOL0     H94869  -1.937   5.978   8.078 -0.8322  1.3637  0.5270
  719MOL0     H94870  -2.290   5.738   7.978  0.4279  2.1241 -3.1199
  719MOL0     H94871  -2.502   5.757   8.102  1.2797 -1.5145  0.3685
  719MOL0     H94872  -2.901   5.852   8.114 -1.3226 -0.0747  0.9596
  719MOL0     H94873  -3.107   5.828   8.208  1.0617 -1.7178 -1.1969
  719MOL0     H94874  -3.378   5.989   8.465  0.3103  1.3871 -0.2391
  719MOL0     H94875  -3.230   6.088   8.447 -2.7544  0.5512 -2.8470
  719MOL0     H94876  -3.195   6.067   8.684 -1.3357  1.8991 -1.7265
  719MOL0     H94877  -3.251   5.903   8.683  0.6931  0.9669  0.1597
  719MOL0     H94878  -3.496   6.033   8.634 -0.2136  1.2392 -0.0794
  719MOL0     H94879  -3.399   6.162   8.711 -1.5596 -0.4268 -0.1147
  719MOL0     H94880  -3.484   5.887   8.817 -0.3906  0.3495 -0.5687
  719MOL0     H94881  -3.363   5.974   8.893 -1.2883  0.0837  1.3182
  719MOL0     H94882  -3.635   6.118   8.829 -1.0322  0.2030  0.2847
  719MOL0     H94883  -3.507   6.156   8.945  1.2908 -0.2927 -1.5429
  719MOL0     H94884  -3.578   5.929   9.067 -0.6471  2.0219  2.0221
  719MOL0     H94885  -3.701   5.919   8.945 -1.3585  0.1442  0.7333
  719MOL0     H94886  -3.655   6.170   9.116 -0.3799  0.1171 -0.6631
  719MOL0     H94887  -3.807   6.097   9.037  0.4570 -0.9766  0.5916
  719MOL0     H94888  -3.795   6.086   9.288 -0.7268  0.9495 -1.6850
  719MOL0     H94889  -3.668   5.956   9.265  0.1620  0.5268 -0.1976
  719MOL0     H94890  -2.983   5.994   8.581 -0.6141  1.5088 -0.8038
  719MOL0     H94891  -2.754   5.979   8.502 -0.5102  1.3789  0.6958
  719MOL0     H94892  -2.324   6.096   8.307 -1.1313  0.7359 -0.7310
  719MOL0     H94893  -2.118   6.058   8.196 -0.4834 -0.1583  3.4701
  719MOL0     H94894  -0.332   6.696   7.967  1.7917  0.2615  0.5544
  719MOL0     H94895  -0.087   6.697   7.954  1.7243  2.2312 -0.9411
  719MOL0     H94896   0.270   6.680   7.571 -0.9382 -0.0470  0.1876
  719MOL0     H94897   0.498   6.667   7.534 -2.5652  1.2132 -0.6723
  719MOL0     H94898   0.694   6.737   7.490  2.4819  2.3329 -0.4010
  719MOL0     H94899   0.721   6.599   7.610 -0.8525  1.8518  2.5296
  719MOL0     H94900   0.934   6.817   7.601  1.9321 -1.1825  0.4841
  719MOL0     H94901   0.926   6.651   7.657 -0.6559  0.8934  1.5923
  719MOL0     H94902   0.934   6.763   7.375  0.4644 -1.3913  0.3264
  719MOL0     H94903   0.875   6.607   7.400 -0.7923 -0.4204  1.6093
  719MOL0     H94904   1.102   6.539   7.503  0.7181 -0.6178 -1.9744
  719MOL0     H94905   1.112   6.604   7.338  0.7730  3.0577 -0.2089
  719MOL0     H94906   1.276   6.916   7.583 -0.7226 -1.0143  0.9657
  719MOL0     H94907   0.592   6.881   7.898  0.9839  0.0783 -0.7746
  719MOL0     H94908   0.344   6.938   7.927 -0.7841  0.9569 -0.8349
  720MOL0     O94909   4.668   2.948   6.003 -0.0641  0.1424 -0.3012
  720MOL0     C94910   4.661   2.909   6.116 -0.0537  0.3638  0.4124
  720MOL0     O94911   4.552   2.892   6.189  0.0733  0.4615 -0.0934
  720MOL0     C94912   4.430   2.957   6.167  0.6276 -0.2727  0.9294
  720MOL0     C94913   4.322   2.911   6.238  0.0311 -0.7391 -0.4860
  720MOL0     C94914   4.208   2.977   6.239  0.6312  0.2203  0.4614
  720MOL0     C94915   4.182   3.093   6.173 -1.3429  0.0671 -0.4720
  720MOL0     O94916   4.066   3.155   6.177  0.0776 -0.1004 -0.0694
  720MOL0     C94917   4.064   3.308   6.172  0.8372 -0.6963 -0.0529
  720MOL0     C94918   4.020   3.370   6.040 -0.4891 -0.2629 -0.3001
  720MOL0     C94919   3.878   3.325   6.009  0.3604  0.4458 -0.8569
  720MOL0     C94920   3.811   3.395   5.888 -0.3002 -0.1134  0.9719
  720MOL0     C94921   3.681   3.327   5.872  0.5915 -0.0460  0.5634
  720MOL0     C94922   3.603   3.388   5.750  0.4604  0.2176  0.2581
  720MOL0     C94923   3.454   3.356   5.761 -0.1235  0.2086  0.1192
  720MOL0     C94924   3.423   3.211   5.745  0.8237 -0.2461  0.1341
  720MOL0     N94925   3.279   3.182   5.759  0.2311  0.8640  0.3693
  720MOL0     C94926   3.173   3.187   5.666 -0.1457  0.4613  0.0547
  720MOL0     C94927   3.071   3.123   5.726 -0.7241  0.1862  0.4387
  720MOL0     C94928   2.933   3.094   5.667 -0.9239  0.1439  0.0246
  720MOL0     C94929   2.921   3.016   5.536 -0.7153 -0.2520 -0.0152
  720MOL0     C94930   2.790   3.042   5.456 -0.3214 -0.1029  0.5049
  720MOL0     C94931   2.667   3.024   5.541  0.1782 -0.2213  0.2283
  720MOL0     O94932   2.550   2.993   5.463  0.1603  0.4198 -0.6654
  720MOL0     C94933   2.429   2.990   5.521 -0.3224  0.3638  0.6510
  720MOL0     C94934   2.326   2.989   5.427 -0.3289 -0.0741 -0.4317
  720MOL0     C94935   2.194   2.998   5.468 -0.8170  0.0208 -0.2211
  720MOL0     C94936   2.162   3.000   5.607  0.7628  0.3514 -0.0252
  720MOL0     C94937   2.021   3.018   5.653 -0.4986 -0.5532  0.9623
  720MOL0     O94938   1.991   3.063   5.777  0.3924 -0.5030  0.5960
  720MOL0     C94939   1.853   3.076   5.810 -0.4213 -0.2773  0.5719
  720MOL0     C94940   1.821   3.187   5.891 -0.0846 -0.5892 -0.0161
  720MOL0     C94941   1.689   3.198   5.952 -0.0623 -0.0814  0.3298
  720MOL0     C94942   1.586   3.110   5.917 -0.3666  0.1456 -0.4185
  720MOL0     O94943   1.464   3.135   5.978 -0.3261  0.5489  0.4039
  720MOL0     C94944   1.352   3.074   5.916  0.4060 -0.2650  0.2001
  720MOL0     C94945   1.225   3.152   5.955 -0.1945 -0.2131  0.9579
  720MOL0     C94946   1.213   3.283   5.869 -0.0029 -0.1481 -0.0852
  720MOL0     C94947   1.111   3.382   5.915  0.0002 -0.3027  0.1774
  720MOL0     C94948   0.967   3.319   5.897  0.6071 -1.1774  0.9258
  720MOL0     C94949   0.858   3.420   5.866 -0.7672  0.1932 -0.0199
  720MOL0     C94950   0.838   3.530   5.973  0.1882 -0.2345 -1.1511
  720MOL0     C94951   0.706   3.607   5.948  0.6051  0.9761 -0.3890
  720MOL0    Cl94952   0.567   3.495   5.963  0.4309  0.3964  0.4056
  720MOL0     C94953   1.618   2.997   5.834 -0.6098 -0.2828 -0.2004
  720MOL0     C94954   1.753   2.989   5.783  0.3626 -0.1903 -0.2722
  720MOL0     O94955   1.932   2.985   5.563  0.7407  0.2470 -0.0519
  720MOL0     C94956   2.262   3.000   5.698  1.1932 -0.2584  0.4854
  720MOL0     C94957   2.397   2.997   5.659 -0.1934  0.3356 -0.7958
  720MOL0     N94958   3.111   3.073   5.842 -0.4675  0.1172 -0.5902
  720MOL0     N94959   3.239   3.104   5.860  0.3250 -0.1519  0.1327
  720MOL0     C94960   4.285   3.134   6.084  0.4003 -0.1662  0.4878
  720MOL0     C94961   4.407   3.070   6.092 -0.8341 -0.1121 -0.1025
  720MOL0     C94962   4.787   2.865   6.179  0.5321  0.4702  0.1125
  720MOL0     C94963   4.907   2.897   6.116 -0.4063  0.0512 -0.1951
  720MOL0     C94964   5.027   2.849   6.164 -0.0558 -0.5637 -0.2525
  720MOL0     C94965   5.033   2.771   6.281 -0.6902  0.2439  0.1418
  720MOL0     O94966   5.164   2.748   6.315  0.7221 -1.0356 -0.3146
  720MOL0     C94967   5.176   2.665   6.429  1.1197  0.6970  0.3765
  720MOL0     C94968   5.320   2.635   6.453 -0.1239 -0.8384  0.2626
  720MOL0     C94969   5.401   2.764   6.442 -0.5216 -0.2725  0.5455
  720MOL0     C94970   5.541   2.754   6.505 -0.2653 -0.0954 -0.0373
  720MOL0     C94971   5.616   2.650   6.439  0.1470 -0.0491 -0.5684
  720MOL0     C94972   5.681   2.556   6.407 -0.2672  0.7065 -0.2783
  720MOL0     C94973   4.912   2.741   6.354 -0.5429  0.5037 -0.7995
  720MOL0     C94974   4.790   2.787   6.296  0.4214 -0.4616  0.5951
  720MOL0     H94975   4.344   2.822   6.296  0.4182 -0.9908 -1.0017
  720MOL0     H94976   4.130   2.940   6.304 -0.4142  1.8496  0.2021
  720MOL0     H94977   4.166   3.346   6.186  0.7084  0.1150 -1.2171
  720MOL0     H94978   4.005   3.351   6.253 -2.1224 -1.9217 -1.4072
  720MOL0     H94979   4.093   3.337   5.965  2.2498  1.4873  1.4223
  720MOL0     H94980   4.017   3.479   6.038  0.8704 -0.2162 -1.1530
  720MOL0     H94981   3.820   3.354   6.097 -0.7203  1.3906 -1.8501
  720MOL0     H94982   3.878   3.216   6.003  1.8945  0.4653 -1.9966
  720MOL0     H94983   3.817   3.503   5.899  2.6354 -0.2078  1.0472
  720MOL0     H94984   3.876   3.369   5.804  1.0891 -2.6220  2.6950
  720MOL0     H94985   3.624   3.334   5.965  1.1992 -3.7872  1.3939
  720MOL0     H94986   3.694   3.222   5.844 -2.3771 -0.0037 -1.5501
  720MOL0     H94987   3.642   3.358   5.652 -2.0798  0.1977 -0.8168
  720MOL0     H94988   3.617   3.497   5.753 -0.8991  0.3870  1.2155
  720MOL0     H94989   3.421   3.384   5.862  0.3287 -0.7987  0.5561
  720MOL0     H94990   3.407   3.407   5.676  1.0153 -2.3900 -2.2031
  720MOL0     H94991   3.474   3.153   5.822 -2.7746 -0.1059  2.8437
  720MOL0     H94992   3.459   3.176   5.648 -1.7537 -0.1861 -0.9275
  720MOL0     H94993   3.183   3.223   5.564 -1.7390  1.2885  0.1647
  720MOL0     H94994   2.886   3.192   5.658  1.5208  1.7320  2.8598
  720MOL0     H94995   2.879   3.036   5.742  1.4240 -0.4924  1.3071
  720MOL0     H94996   2.947   2.909   5.538 -0.7495 -0.3350 -1.7807
  720MOL0     H94997   2.998   3.056   5.469 -1.5544  0.2397 -0.7004
  720MOL0     H94998   2.790   3.128   5.387 -0.0831 -1.3673 -1.1495
  720MOL0     H94999   2.779   2.962   5.382 -0.9268 -0.3959  0.9033
  720MOL0     H95000   2.649   3.111   5.605 -0.9557 -0.7150  0.6134
  720MOL0     H95001   2.689   2.942   5.610  2.9218  0.9321  0.8562
  720MOL0     H95002   2.341   2.983   5.319 -0.8847  0.5829 -0.5573
  720MOL0     H95003   2.130   3.001   5.381 -0.8565  1.4052 -0.1750
  720MOL0     H95004   1.899   3.254   5.925 -0.0058  0.4811 -2.1231
  720MOL0     H95005   1.665   3.270   6.029 -1.6515  0.1964 -0.3938
  720MOL0     H95006   1.345   2.971   5.951 -1.4347 -0.1845  0.1968
  720MOL0     H95007   1.363   3.078   5.807  1.1779  1.3072  0.3012
  720MOL0     H95008   1.230   3.174   6.063  2.8476  0.0055  0.8589
  720MOL0     H95009   1.134   3.096   5.934 -0.2209  0.5040 -1.0514
  720MOL0     H95010   1.207   3.264   5.762 -1.6172 -0.7229  0.0816
  720MOL0     H95011   1.304   3.343   5.882 -0.7245  0.5048  2.6697
  720MOL0     H95012   1.128   3.408   6.020  2.9365 -0.8956 -0.0684
  720MOL0     H95013   1.117   3.476   5.859  0.4412  1.2818  2.7352
  720MOL0     H95014   0.940   3.270   5.991 -0.4870 -0.5235  0.9726
  720MOL0     H95015   0.975   3.245   5.816 -2.4020 -1.3717  0.6784
  720MOL0     H95016   0.769   3.356   5.859 -1.0561  0.3550  1.7516
  720MOL0     H95017   0.872   3.462   5.766 -0.7495  0.8152  0.2405
  720MOL0     H95018   0.832   3.490   6.075 -1.3593 -0.5705 -1.3407
  720MOL0     H95019   0.921   3.601   5.963  3.1497 -3.3954 -0.7256
  720MOL0     H95020   0.702   3.665   5.855 -2.3833 -0.6850 -1.4356
  720MOL0     H95021   0.696   3.683   6.026  3.5536 -0.8269  1.9272
  720MOL0     H95022   1.547   2.917   5.818  1.9290 -3.4360  2.7532
  720MOL0     H95023   1.766   2.906   5.714  1.3141  0.3573 -0.7655
  720MOL0     H95024   2.236   3.005   5.803 -1.2782 -1.6089  0.0369
  720MOL0     H95025   2.480   3.006   5.728  0.1085  2.8003 -1.4036
  720MOL0     H95026   4.270   3.231   6.038  0.4867  0.5089  1.8147
  720MOL0     H95027   4.495   3.109   6.043  0.5177 -0.5604  1.8493
  720MOL0     H95028   4.905   2.956   6.025 -2.8389  1.3610  0.6366
  720MOL0     H95029   5.117   2.881   6.112 -0.4278 -2.0598 -1.8851
  720MOL0     H95030   5.131   2.568   6.406 -0.6005  1.8602 -1.6272
  720MOL0     H95031   5.122   2.704   6.516 -0.5049 -0.7016  0.0524
  720MOL0     H95032   5.332   2.592   6.554  2.1327  1.2200  0.9628
  720MOL0     H95033   5.352   2.560   6.380 -1.4721  0.2231 -1.4817
  720MOL0     H95034   5.353   2.841   6.502  1.1707  0.1824  1.3749
  720MOL0     H95035   5.401   2.796   6.337  2.0795  1.4006  0.9821
  720MOL0     H95036   5.606   2.841   6.489 -0.3009  0.7676  3.5853
  720MOL0     H95037   5.531   2.732   6.612 -0.3528  0.2748  0.0323
  720MOL0     H95038   5.733   2.486   6.345 -0.4923  3.8160 -4.4244
  720MOL0     H95039   4.907   2.681   6.445  0.3066 -0.3600 -1.3064
  720MOL0     H95040   4.695   2.764   6.343  0.2337 -0.6398  0.1408
  721MOL0     O95041   0.666   2.514   7.907 -0.0368 -0.1326  0.6901
  721MOL0     C95042   0.724   2.401   7.901  0.7823 -0.4068 -0.7151
  721MOL0     O95043   0.665   2.287   7.890 -0.3261 -0.0875 -0.5295
  721MOL0     C95044   0.528   2.286   7.888  0.8845 -0.0081  0.1739
  721MOL0     C95045   0.451   2.329   8.000  0.5234  0.2608 -0.5758
  721MOL0     C95046   0.315   2.315   7.999 -0.4397 -0.0928 -0.6283
  721MOL0     C95047   0.245   2.281   7.884 -0.1079 -0.0473 -0.0978
  721MOL0     O95048   0.102   2.285   7.890  0.4201  0.6652  0.3645
  721MOL0     C95049   0.026   2.206   7.803  0.1161  0.9141  0.2761
  721MOL0     C95050  -0.108   2.154   7.855  0.1378  0.6086  0.6832
  721MOL0     C95051  -0.187   2.101   7.734  0.0028  0.3000  0.4322
  721MOL0     C95052  -0.320   2.048   7.762 -0.1284 -0.6935  0.0987
  721MOL0     C95053  -0.426   2.163   7.748 -0.0155 -0.0985  0.0991
  721MOL0     C95054  -0.570   2.117   7.759  0.9293  0.3999 -0.4049
  721MOL0     C95055  -0.667   2.224   7.712  0.9193  0.2061  0.6741
  721MOL0     C95056  -0.821   2.188   7.721 -0.5529  0.2081  0.3344
  721MOL0     N95057  -0.885   2.214   7.855  0.7124  0.0841 -0.0070
  721MOL0     C95058  -0.821   2.220   7.980 -0.4304 -0.5573 -0.4855
  721MOL0     C95059  -0.918   2.229   8.076  0.0166  1.1762  0.7999
  721MOL0     C95060  -0.898   2.240   8.218 -0.1154  0.0766 -0.2799
  721MOL0     C95061  -1.012   2.314   8.273 -0.0840 -0.3678 -0.3537
  721MOL0     C95062  -0.983   2.349   8.417 -0.0501 -0.3480 -0.0096
  721MOL0     C95063  -1.120   2.388   8.488 -0.0421 -0.2028  0.0489
  721MOL0     O95064  -1.232   2.308   8.462  0.1662  0.3203  0.4224
  721MOL0     C95065  -1.363   2.349   8.505  0.2312 -0.1152  0.6257
  721MOL0     C95066  -1.471   2.262   8.500 -0.3987  0.7736  0.2722
  721MOL0     C95067  -1.596   2.297   8.535  0.2211 -0.3485 -0.5936
  721MOL0     C95068  -1.630   2.418   8.594  0.2887 -0.3527  0.9076
  721MOL0     C95069  -1.764   2.450   8.625  0.3530  0.1201  0.3780
  721MOL0     O95070  -1.781   2.558   8.703  0.5618 -0.3006  0.1523
  721MOL0     C95071  -1.910   2.604   8.709 -0.4019  0.4387 -0.0061
  721MOL0     C95072  -2.025   2.522   8.735  0.4229 -1.3798  0.2764
  721MOL0     C95073  -2.154   2.585   8.731 -0.2990  0.5762 -0.4429
  721MOL0     C95074  -2.169   2.719   8.680 -0.8845 -0.1067  0.7666
  721MOL0     O95075  -2.287   2.788   8.667 -0.0352 -0.3282 -0.1364
  721MOL0     C95076  -2.392   2.741   8.747  0.2804 -0.8429  0.4400
  721MOL0     C95077  -2.499   2.854   8.739 -0.2320 -0.1212  0.0165
  721MOL0     C95078  -2.595   2.838   8.858  0.5851 -0.0470  0.7034
  721MOL0     C95079  -2.685   2.712   8.847  0.0198 -1.0721 -0.3435
  721MOL0     C95080  -2.796   2.713   8.961  0.0994  0.1815 -0.3099
  721MOL0     C95081  -2.869   2.578   8.964 -0.2900  0.7559  0.5336
  721MOL0     C95082  -3.000   2.579   9.044  0.3335  0.0136  0.0394
  721MOL0     C95083  -3.117   2.568   8.954  0.7640 -0.7192 -0.0300
  721MOL0    Cl95084  -3.249   2.631   9.049 -0.4423 -0.5029 -0.4720
  721MOL0     C95085  -2.054   2.791   8.643 -0.0719  0.1315  0.0122
  721MOL0     C95086  -1.924   2.735   8.658  0.0919 -0.1604 -0.4053
  721MOL0     O95087  -1.856   2.381   8.572  0.4166 -0.0423  0.4222
  721MOL0     C95088  -1.530   2.512   8.605 -0.1706 -0.3565 -0.0348
  721MOL0     C95089  -1.401   2.476   8.558 -0.1125  0.2283  0.3314
  721MOL0     N95090  -1.040   2.224   8.007  0.1566  0.1529 -0.4258
  721MOL0     N95091  -1.019   2.209   7.880  0.4075 -0.6775 -0.0485
  721MOL0     C95092   0.316   2.263   7.765 -0.3111  0.5654  0.2195
  721MOL0     C95093   0.458   2.250   7.777 -0.1405  0.1861  0.4923
  721MOL0     C95094   0.870   2.403   7.905 -0.2800 -0.1273  0.2551
  721MOL0     C95095   0.954   2.515   7.897  0.6172 -0.2823 -0.7267
  721MOL0     C95096   1.094   2.504   7.915  0.2858  0.9427  0.3890
  721MOL0     C95097   1.152   2.382   7.943  0.2411  0.4122  0.2781
  721MOL0     O95098   1.287   2.380   7.959 -0.3630 -0.5371 -0.8940
  721MOL0     C95099   1.362   2.261   7.962 -0.4815 -0.0319  0.2813
  721MOL0     C95100   1.506   2.295   7.933  0.3831  0.0391  0.7273
  721MOL0     C95101   1.521   2.343   7.797  0.8059 -0.1211  0.1475
  721MOL0     C95102   1.663   2.358   7.742 -0.6258  1.6063 -0.2294
  721MOL0     C95103   1.739   2.235   7.743  1.0757 -0.4332  0.2073
  721MOL0     C95104   1.796   2.136   7.727  0.6918 -0.6020  0.5948
  721MOL0     C95105   1.070   2.269   7.945 -0.2700  0.1519  0.1868
  721MOL0     C95106   0.931   2.275   7.927 -0.5811 -0.9710  0.7176
  721MOL0     H95107   0.499   2.353   8.094 -0.3271 -5.2755  1.6214
  721MOL0     H95108   0.260   2.320   8.092  2.8248 -1.1297  1.5268
  721MOL0     H95109   0.087   2.117   7.786 -1.9208  0.0712 -4.0839
  721MOL0     H95110   0.007   2.266   7.713  0.2415  0.6304  0.0579
  721MOL0     H95111  -0.153   2.241   7.904 -1.3111 -0.5857  1.5370
  721MOL0     H95112  -0.093   2.083   7.937  2.6363 -0.8786 -0.9192
  721MOL0     H95113  -0.131   2.024   7.680  0.0021  1.2315 -0.9556
  721MOL0     H95114  -0.189   2.191   7.671  2.3021  0.5192  0.5944
  721MOL0     H95115  -0.348   1.968   7.693  1.1504 -0.9671 -0.1379
  721MOL0     H95116  -0.323   2.011   7.865 -2.2045 -0.0733  0.3031
  721MOL0     H95117  -0.410   2.211   7.651 -2.1824  0.1641 -0.1711
  721MOL0     H95118  -0.412   2.236   7.828 -2.0253  0.9516 -0.4479
  721MOL0     H95119  -0.588   2.098   7.866  3.1030  3.0998  0.5551
  721MOL0     H95120  -0.593   2.026   7.703 -0.0848  1.1816 -1.3049
  721MOL0     H95121  -0.657   2.306   7.783 -0.3188 -0.3175  1.5001
  721MOL0     H95122  -0.646   2.255   7.609  0.4602 -0.6759  0.3025
  721MOL0     H95123  -0.838   2.087   7.681 -1.0231 -0.2416  1.6075
  721MOL0     H95124  -0.885   2.245   7.654  0.0588  1.6193  0.9083
  721MOL0     H95125  -0.713   2.214   7.995 -0.5248  1.4866  1.6446
  721MOL0     H95126  -0.805   2.286   8.252  1.5222 -2.1904 -1.4900
  721MOL0     H95127  -0.895   2.138   8.256 -0.8709 -1.3207 -3.6696
  721MOL0     H95128  -1.102   2.251   8.275  1.2557 -2.4228  2.1436
  721MOL0     H95129  -1.028   2.407   8.219 -0.5921 -0.5548 -0.5371
  721MOL0     H95130  -0.936   2.267   8.471 -1.8636 -1.2640  0.2591
  721MOL0     H95131  -0.914   2.434   8.408 -1.7671  1.0100 -1.1485
  721MOL0     H95132  -1.149   2.483   8.441  0.5017 -0.4538 -0.8290
  721MOL0     H95133  -1.113   2.412   8.594 -0.8745  0.9527 -0.1404
  721MOL0     H95134  -1.449   2.167   8.453  1.8593  1.9284 -1.2051
  721MOL0     H95135  -1.676   2.225   8.524 -0.2726 -0.3195  2.1160
  721MOL0     H95136  -2.025   2.419   8.771 -0.9135 -1.0711  1.2171
  721MOL0     H95137  -2.244   2.541   8.773 -2.4424  2.2587 -2.9910
  721MOL0     H95138  -2.354   2.722   8.848 -1.9633  2.5056  2.0989
  721MOL0     H95139  -2.434   2.649   8.707 -0.5459 -1.2402  2.1332
  721MOL0     H95140  -2.560   2.851   8.649 -1.1576  3.0306  0.4343
  721MOL0     H95141  -2.459   2.955   8.745 -0.6182  0.2269 -2.3508
  721MOL0     H95142  -2.671   2.917   8.865 -0.7519 -1.2602  0.3768
  721MOL0     H95143  -2.539   2.848   8.952  1.3601  0.7486  0.1727
  721MOL0     H95144  -2.737   2.708   8.751  1.7656 -0.3126 -1.3545
  721MOL0     H95145  -2.621   2.629   8.879  1.4170  0.2507  0.3972
  721MOL0     H95146  -2.860   2.799   8.938  1.5697  1.3087 -0.4241
  721MOL0     H95147  -2.746   2.727   9.058  3.4201 -1.2591 -1.6371
  721MOL0     H95148  -2.802   2.499   8.998 -1.6215  0.2908  2.2389
  721MOL0     H95149  -2.900   2.545   8.865  0.8187 -0.4392  0.5497
  721MOL0     H95150  -3.012   2.501   9.120  0.2372  1.8295  1.9849
  721MOL0     H95151  -3.008   2.675   9.095  0.1000 -0.0097  0.0505
  721MOL0     H95152  -3.136   2.465   8.924  0.6809 -0.8533  0.4678
  721MOL0     H95153  -3.114   2.617   8.856  1.7069 -2.3781 -0.8822
  721MOL0     H95154  -2.064   2.893   8.605 -2.0352  0.0841  0.2523
  721MOL0     H95155  -1.834   2.788   8.626 -0.6421 -0.7570 -3.8628
  721MOL0     H95156  -1.540   2.607   8.657  2.0880 -0.7241  1.1985
  721MOL0     H95157  -1.319   2.544   8.577  1.1882 -0.0715 -3.3135
  721MOL0     H95158   0.265   2.241   7.672 -0.9052 -1.1316  0.9081
  721MOL0     H95159   0.517   2.221   7.691  0.0927 -2.5707  1.4799
  721MOL0     H95160   0.909   2.614   7.890 -0.6948 -1.0026 -3.6483
  721MOL0     H95161   1.157   2.592   7.905  0.7290  0.4816 -1.0493
  721MOL0     H95162   1.314   2.194   7.890 -2.8146  0.5718  1.1974
  721MOL0     H95163   1.352   2.221   8.063  0.3170 -0.9586  0.0184
  721MOL0     H95164   1.548   2.362   8.008  0.5325 -0.7009  1.3148
  721MOL0     H95165   1.574   2.209   7.935 -0.5040 -0.6865  0.1948
  721MOL0     H95166   1.470   2.438   7.780  2.2325  0.4047 -1.5228
  721MOL0     H95167   1.479   2.272   7.725  1.8099 -3.0703  2.2439
  721MOL0     H95168   1.661   2.405   7.643 -1.7952 -1.3690 -1.7529
  721MOL0     H95169   1.709   2.437   7.801  0.0549  1.6381 -0.7922
  721MOL0     H95170   1.846   2.041   7.726  0.7095 -0.5883 -0.0287
  721MOL0     H95171   1.116   2.176   7.977  0.9804  1.1962  1.5785
  721MOL0     H95172   0.891   2.175   7.917  0.7371 -1.4938  0.4550
  722MOL0     O95173   0.654   8.698   8.003  0.1831 -0.6360  0.4468
  722MOL0     C95174   0.716   8.803   7.975  0.1208 -0.1926  0.3172
  722MOL0     O95175   0.653   8.923   7.973  0.3007 -0.6795 -0.1751
  722MOL0     C95176   0.518   8.926   8.005 -0.0106  0.5583  0.7671
  722MOL0     C95177   0.439   8.972   7.905  0.5878 -0.4606 -0.6362
  722MOL0     C95178   0.301   8.979   7.931  0.0808  0.2275 -0.4293
  722MOL0     C95179   0.249   8.938   8.054  0.0622  0.0773 -0.3874
  722MOL0     O95180   0.113   8.927   8.086 -0.0562 -0.5571  0.0746
  722MOL0     C95181   0.026   8.993   7.990  0.9389  0.2122 -0.3617
  722MOL0     C95182  -0.123   8.968   8.019 -0.2017 -0.1301  0.1504
  722MOL0     C95183  -0.189   9.054   8.133 -0.0977 -0.2449 -0.4742
  722MOL0     C95184  -0.339   9.054   8.153  0.0083  0.4582 -0.2463
  722MOL0     C95185  -0.391   9.149   8.262  0.5457 -0.4070  0.1861
  722MOL0     C95186  -0.536   9.140   8.281 -1.5454 -0.0242  0.4745
  722MOL0     C95187  -0.573   9.222   8.404  0.6590  0.7717 -0.2526
  722MOL0     C95188  -0.719   9.184   8.447  0.6625  0.3004 -0.5391
  722MOL0     N95189  -0.814   9.190   8.339 -0.5050 -0.3966  0.7513
  722MOL0     C95190  -0.888   9.297   8.295  0.8014 -0.3959 -0.3843
  722MOL0     C95191  -0.981   9.240   8.209 -0.4885 -0.4169  0.9337
  722MOL0     C95192  -1.090   9.313   8.141  0.1836 -0.3015  0.2520
  722MOL0     C95193  -1.208   9.334   8.229 -0.5945 -0.3957  0.0261
  722MOL0     C95194  -1.302   9.215   8.238  0.3816 -0.2713  0.3024
  722MOL0     C95195  -1.400   9.194   8.127  0.2603  0.5709  0.3008
  722MOL0     O95196  -1.481   9.310   8.120  0.5223 -0.0636  0.7336
  722MOL0     C95197  -1.577   9.325   8.025  1.2488 -0.5477 -0.3074
  722MOL0     C95198  -1.599   9.244   7.912  0.3595 -0.2257  0.7891
  722MOL0     C95199  -1.704   9.283   7.820 -0.7043  0.1082 -0.4438
  722MOL0     C95200  -1.787   9.393   7.843  0.5804  0.0510 -0.3969
  722MOL0     C95201  -1.884   9.429   7.743 -0.3805 -0.8044 -0.2235
  722MOL0     O95202  -1.971   9.522   7.781 -0.5802  0.1668 -1.1318
  722MOL0     C95203  -2.035   9.604   7.696 -0.3908  0.6529  0.4023
  722MOL0     C95204  -2.222   9.676   7.755 -0.0488 -0.2153  0.6071
  722MOL0     C95205  -2.340   9.780   7.618 -0.2243 -0.0914  0.7271
  722MOL0     C95206  -2.271   9.820   7.422  0.1239 -0.4004  0.9517
  722MOL0     O95207  -2.345   9.883   7.326  0.8132  1.2633  0.4462
  722MOL0     C95208  -2.483   9.887   7.351  0.3658 -0.6593 -0.3300
  722MOL0     C95209  -2.557   9.759   7.308 -0.0864  0.5792 -0.8943
  722MOL0     C95210  -2.706   9.757   7.352 -0.1391  0.1145  0.1375
  722MOL0     C95211  -2.798   9.868   7.297 -0.1967 -0.4533 -0.1115
  722MOL0     C95212  -2.812   9.854   7.143  0.6339 -0.1797 -0.4693
  722MOL0     C95213  -2.868   9.722   7.098  0.2813  0.2692  0.7516
  722MOL0     C95214  -2.990   9.679   7.181 -0.2024  0.9834 -0.8049
  722MOL0     C95215  -3.115   9.769   7.177 -0.1852  0.1713  0.4490
  722MOL0    Cl95216  -3.238   9.711   7.294 -0.2352 -0.2613 -0.0037
  722MOL0     C95217  -2.082   9.745   7.359 -0.6793  0.5681  0.4405
  722MOL0     C95218  -1.960   9.639   7.501 -0.1447  0.7377  0.4122
  722MOL0     O95219  -1.866   9.391   7.630  0.2004 -0.2027 -0.6173
  722MOL0     C95220  -1.763   9.462   7.964 -0.6402 -0.9428 -0.8068
  722MOL0     C95221  -1.650   9.436   8.047 -0.0811 -0.3951  0.1352
  722MOL0     N95222  -0.946   9.104   8.190  0.5012 -0.2666 -0.1539
  722MOL0     N95223  -0.861   9.074   8.280 -0.6218  0.3972  0.4346
  722MOL0     C95224   0.337   8.900   8.157  0.2864 -0.2447  0.0048
  722MOL0     C95225   0.471   8.902   8.133  0.0188  1.0377 -0.8094
  722MOL0     C95226   0.859   8.796   7.931 -0.8301 -0.2653  0.5617
  722MOL0     C95227   0.950   8.695   7.965  0.5342  0.7554 -0.8789
  722MOL0     C95228   1.079   8.697   7.917  0.3421 -0.2801 -0.0032
  722MOL0     C95229   1.128   8.793   7.825  0.5059  0.2928 -0.2532
  722MOL0     O95230   1.259   8.787   7.775 -0.7396  0.6543 -0.8996
  722MOL0     C95231   1.340   8.909   7.780  0.5814  0.1728  0.6636
  722MOL0     C95232   1.483   8.872   7.818  0.5433  0.1725 -0.2659
  722MOL0     C95233   1.481   8.817   7.964  0.5252  0.1725 -0.1942
  722MOL0     C95234   1.616   8.828   8.034  0.2707 -0.6306  0.3714
  722MOL0     C95235   1.731   8.779   7.974 -0.1425 -0.3729 -0.2757
  722MOL0     C95236   1.839   8.735   7.934 -0.4642  0.3523  0.0121
  722MOL0     C95237   1.037   8.898   7.797  0.0770  0.2453 -0.5480
  722MOL0     C95238   0.906   8.899   7.845  0.0597  0.1731 -0.6815
  722MOL0     H95239   0.481   8.989   7.807  0.7345 -3.0965 -1.1197
  722MOL0     H95240   0.234   9.011   7.852  0.6583 -1.7750 -1.8003
  722MOL0     H95241   0.033   8.951   7.890  2.4316 -3.8444  1.2350
  722MOL0     H95242   0.034   9.102   7.998 -1.3058  0.3134  1.9271
  722MOL0     H95243  -0.120   8.860   8.038 -0.8677 -0.3623 -0.9903
  722MOL0     H95244  -0.187   8.972   7.930  2.5228 -0.4998 -1.9804
  722MOL0     H95245  -0.165   9.158   8.109  1.4714  0.0052  1.8791
  722MOL0     H95246  -0.150   9.027   8.231 -1.3585  0.2762  0.1892
  722MOL0     H95247  -0.397   9.066   8.061 -1.9143  2.2489  1.1029
  722MOL0     H95248  -0.362   8.952   8.185 -0.2418 -0.4294 -2.9558
  722MOL0     H95249  -0.366   9.253   8.239  0.4186  0.1071  2.1987
  722MOL0     H95250  -0.336   9.134   8.356  0.9188  2.0006  0.4241
  722MOL0     H95251  -0.554   9.034   8.302  0.7572 -0.7067 -0.6761
  722MOL0     H95252  -0.585   9.180   8.192  0.5256 -1.8664 -1.6078
  722MOL0     H95253  -0.517   9.179   8.487 -1.3029 -0.0724  0.7001
  722MOL0     H95254  -0.577   9.329   8.383  0.9387  0.4706 -2.0215
  722MOL0     H95255  -0.755   9.243   8.532 -1.1697 -1.0042 -0.3307
  722MOL0     H95256  -0.716   9.077   8.473 -1.4255 -0.3243 -2.5375
  722MOL0     H95257  -0.882   9.401   8.327  0.5852  0.1636 -2.0784
  722MOL0     H95258  -1.124   9.277   8.043 -4.2624  5.6164 -0.9347
  722MOL0     H95259  -1.057   9.413   8.111  1.0822 -1.7884 -4.6977
  722MOL0     H95260  -1.267   9.413   8.181  0.8674  0.7276  0.0267
  722MOL0     H95261  -1.180   9.375   8.326 -2.3283  2.3602 -0.5306
  722MOL0     H95262  -1.250   9.119   8.249  2.7725  0.9419  0.3836
  722MOL0     H95263  -1.362   9.232   8.327  1.5857 -0.3182  1.1569
  722MOL0     H95264  -1.464   9.106   8.135 -0.0770  0.3797 -3.2346
  722MOL0     H95265  -1.346   9.177   8.034 -0.5754 -2.8460  0.3096
  722MOL0     H95266  -1.531   9.161   7.894  0.9066  0.1732  1.0063
  722MOL0     H95267  -1.734   9.217   7.739 -1.8017 -1.8678  1.4359
  722MOL0     H95268  -2.259   9.665   7.856 -0.6847 -2.8452  0.1750
  722MOL0     H95269  -2.431   9.831   7.650  0.6118  1.4194  0.8060
  722MOL0     H95270  -2.524   9.973   7.298  2.0076  1.5575  1.8011
  722MOL0     H95271  -2.496   9.901   7.459  0.8285  0.6002 -0.4307
  722MOL0     H95272  -2.505   9.676   7.357  0.3141  1.4785  0.2867
  722MOL0     H95273  -2.551   9.735   7.202 -0.0568  2.5155 -1.3659
  722MOL0     H95274  -2.714   9.764   7.461  1.6891  1.4627  0.2290
  722MOL0     H95275  -2.738   9.657   7.321  2.7042 -1.4569  1.8756
  722MOL0     H95276  -2.894   9.857   7.348 -0.0662 -1.0977 -0.0021
  722MOL0     H95277  -2.754   9.966   7.319 -0.4954 -0.0311 -1.3099
  722MOL0     H95278  -2.717   9.864   7.091  0.6447 -0.2095 -0.4554
  722MOL0     H95279  -2.879   9.934   7.109 -0.1690  0.3054  2.0178
  722MOL0     H95280  -2.790   9.645   7.097 -0.7720 -0.8464  1.5486
  722MOL0     H95281  -2.907   9.727   6.996 -1.4350  2.3832  1.4391
  722MOL0     H95282  -3.028   9.595   7.122  0.2063  0.8398 -0.8671
  722MOL0     H95283  -2.974   9.639   7.282 -1.4015 -0.6248 -1.2097
  722MOL0     H95284  -3.162   9.768   7.079  0.5436  2.4720  0.0227
  722MOL0     H95285  -3.079   9.871   7.195  2.1504 -0.7466  1.4598
  722MOL0     H95286  -2.044   9.772   7.261 -1.2744 -0.2673 -0.0328
  722MOL0     H95287  -1.862   9.599   7.478 -0.6835 -0.5602  0.2356
  722MOL0     H95288  -1.827   9.546   7.988  1.3452  0.1287  1.1667
  722MOL0     H95289  -1.636   9.499   8.134 -1.0357  0.1799 -0.1105
  722MOL0     H95290   0.300   8.859   8.250 -2.5170 -1.3643 -1.4800
  722MOL0     H95291   0.543   8.861   8.203  0.2652 -0.1681 -1.7321
  722MOL0     H95292   0.925   8.614   8.032  2.7983  1.7971  1.4326
  722MOL0     H95293   1.140   8.611   7.943 -1.7983 -2.0135 -0.4071
  722MOL0     H95294   1.305   8.978   7.858  0.9598 -0.7661  1.6808
  722MOL0     H95295   1.348   8.955   7.681 -0.9041 -1.7480 -0.4097
  722MOL0     H95296   1.528   8.803   7.746  2.7695  1.1343  0.1282
  722MOL0     H95297   1.538   8.966   7.809 -0.4163  0.6267 -1.8660
  722MOL0     H95298   1.454   8.710   7.963 -0.5626  0.3991  1.2086
  722MOL0     H95299   1.407   8.875   8.020  0.0090  0.4665 -1.1515
  722MOL0     H95300   1.632   8.934   8.056  0.7946 -0.6123 -0.1052
  722MOL0     H95301   1.602   8.785   8.134 -3.7116  0.6354  0.5623
  722MOL0     H95302   1.941   8.719   7.906 -1.1388 -2.2402 -1.2653
  722MOL0     H95303   1.074   8.972   7.727 -1.2792  2.8176  1.3145
  722MOL0     H95304   0.840   8.978   7.811 -2.2087 -1.2796  0.1044
  723MOL0     O95305   0.666   7.147   7.907  0.4708 -0.1237 -0.4377
  723MOL0     C95306   0.713   7.239   7.839 -1.0620  0.1140 -0.7272
  723MOL0     O95307   0.648   7.344   7.788 -0.4195 -0.9535  0.1070
  723MOL0     C95308   0.511   7.362   7.806  0.5600  0.6849 -0.3783
  723MOL0     C95309   0.467   7.487   7.801  0.1942  0.0055  0.3968
  723MOL0     C95310   0.336   7.523   7.806  0.3004 -0.7757  0.2365
  723MOL0     C95311   0.238   7.417   7.808 -0.3216 -0.2375  0.1553
  723MOL0     O95312   0.102   7.444   7.782  0.1306 -0.3599 -0.2568
  723MOL0     C95313   0.052   7.573   7.740  0.3997  0.1316  0.3026
  723MOL0     C95314  -0.001   7.644   7.867  0.0038  0.3572 -0.2668
  723MOL0     C95315  -0.141   7.581   7.903 -0.0050 -0.2910  0.1926
  723MOL0     C95316  -0.197   7.639   8.033  0.1994 -0.1604 -0.1634
  723MOL0     C95317  -0.351   7.642   8.047  0.9068  0.5256 -0.7560
  723MOL0     C95318  -0.417   7.501   8.064 -0.7355 -0.4536  1.1134
  723MOL0     C95319  -0.573   7.494   8.070  0.1796 -0.1974  0.3144
  723MOL0     C95320  -0.646   7.624   8.103 -0.5854  0.1151 -0.2055
  723MOL0     N95321  -0.793   7.615   8.115  0.1096 -0.6073 -0.3162
  723MOL0     C95322  -0.878   7.589   8.006 -0.1970  0.7851 -0.0333
  723MOL0     C95323  -1.000   7.570   8.067 -0.0029 -0.8130 -0.2268
  723MOL0     C95324  -1.114   7.531   7.987  0.2844 -0.4522  0.3386
  723MOL0     C95325  -1.243   7.548   8.070 -0.3395 -0.8574  0.1330
  723MOL0     C95326  -1.381   7.511   8.004  0.1813  0.0885 -0.5214
  723MOL0     C95327  -1.504   7.539   8.099  0.6441  0.8098 -0.0867
  723MOL0     O95328  -1.554   7.670   8.060 -0.0044  0.8001  0.1771
  723MOL0     C95329  -1.681   7.678   8.007 -0.1097 -0.3301 -0.5200
  723MOL0     C95330  -1.791   7.649   8.087 -0.0562  0.0200  0.0482
  723MOL0     C95331  -1.920   7.660   8.038  0.3641 -0.4200  0.6640
  723MOL0     C95332  -1.937   7.698   7.903 -0.2122 -0.1869 -0.3016
  723MOL0     C95333  -2.071   7.739   7.860 -0.2237  0.5933  0.0733
  723MOL0     O95334  -2.170   7.662   7.918  0.5786 -0.1426  0.0370
  723MOL0     C95335  -2.300   7.672   7.859  0.2201 -0.5319  0.0164
  723MOL0     C95336  -2.334   7.571   7.769  0.1098 -0.4103  0.5249
  723MOL0     C95337  -2.446   7.576   7.699 -0.1079 -0.4415 -0.0878
  723MOL0     C95338  -2.536   7.682   7.725 -0.0478 -0.6277 -0.6142
  723MOL0     O95339  -2.653   7.659   7.658 -0.4984 -0.6119  0.4824
  723MOL0     C95340  -2.773   7.703   7.720  0.2801  0.3928 -0.6452
  723MOL0     C95341  -2.874   7.725   7.615 -0.0332  0.7715 -0.3998
  723MOL0     C95342  -3.000   7.781   7.676  0.2492 -0.4477  0.0814
  723MOL0     C95343  -3.118   7.768   7.588  0.3597  0.1962  0.2170
  723MOL0     C95344  -3.145   7.865   7.477  0.2771  0.5547  0.3257
  723MOL0     C95345  -3.285   7.826   7.422 -0.2362 -0.1529 -0.2397
  723MOL0     C95346  -3.296   7.903   7.285  0.2092 -0.5354  0.0427
  723MOL0     C95347  -3.405   7.849   7.199  0.5042 -0.5171  0.7406
  723MOL0    Cl95348  -3.408   7.665   7.183  0.1999  0.1669  0.2396
  723MOL0     C95349  -2.511   7.789   7.817 -0.3007  0.5476  1.0578
  723MOL0     C95350  -2.389   7.786   7.883  0.3208  1.1666 -0.9216
  723MOL0     O95351  -2.087   7.833   7.783  0.3265  0.0191 -0.5483
  723MOL0     C95352  -1.827   7.722   7.820  0.2583 -0.0769  0.1932
  723MOL0     C95353  -1.704   7.716   7.876 -0.2452  0.0487 -0.6211
  723MOL0     N95354  -0.987   7.572   8.204  0.1603  0.3411 -0.1083
  723MOL0     N95355  -0.867   7.604   8.228 -0.3377  0.7744 -0.1255
  723MOL0     C95356   0.281   7.289   7.816  0.4569 -0.2089  0.1703
  723MOL0     C95357   0.417   7.254   7.819 -0.0643 -0.3625 -0.5230
  723MOL0     C95358   0.865   7.225   7.826  1.0854 -0.5828  0.0742
  723MOL0     C95359   0.937   7.145   7.908 -0.7545  0.1340  0.5126
  723MOL0     C95360   1.078   7.132   7.894  0.1745  0.5830  0.3593
  723MOL0     C95361   1.144   7.169   7.779  0.3765 -0.1220  0.3612
  723MOL0     O95362   1.278   7.145   7.737  0.1161  0.0228 -0.2737
  723MOL0     C95363   1.359   7.085   7.837 -0.4535 -0.2730 -0.1677
  723MOL0     C95364   1.495   7.061   7.777  0.0598 -0.3129 -0.1479
  723MOL0     C95365   1.605   7.009   7.869  0.0186 -0.7104 -0.1347
  723MOL0     C95366   1.737   6.983   7.799  0.0350 -0.1481  0.0747
  723MOL0     C95367   1.729   6.920   7.670  0.2569 -0.0168 -0.4513
  723MOL0     C95368   1.715   6.868   7.563 -0.3788  0.8726  0.3101
  723MOL0     C95369   1.068   7.253   7.694  0.6175  0.6010 -0.1678
  723MOL0     C95370   0.928   7.275   7.712 -0.1121  0.7489 -0.3746
  723MOL0     H95371   0.543   7.565   7.803  1.8084 -1.5316  2.0699
  723MOL0     H95372   0.308   7.626   7.787 -1.4444 -0.5517  3.4029
  723MOL0     H95373  -0.024   7.558   7.663  1.7032 -0.1594 -0.9520
  723MOL0     H95374   0.128   7.633   7.690 -1.8906  1.6534 -1.6073
  723MOL0     H95375   0.001   7.751   7.846 -0.0704  0.4976  0.4040
  723MOL0     H95376   0.068   7.620   7.948  0.4965  0.3649 -0.6772
  723MOL0     H95377  -0.129   7.475   7.925  0.2807 -0.1511  0.7374
  723MOL0     H95378  -0.210   7.602   7.820 -0.8512  1.0970  1.2000
  723MOL0     H95379  -0.148   7.587   8.116  1.1278  1.1384  0.1342
  723MOL0     H95380  -0.164   7.743   8.038 -1.1177  0.2447  1.1900
  723MOL0     H95381  -0.384   7.682   7.950  4.4084 -0.5656 -2.5666
  723MOL0     H95382  -0.369   7.704   8.135  0.9748  0.1447 -0.4714
  723MOL0     H95383  -0.368   7.462   8.154  0.7109 -1.9063 -0.2373
  723MOL0     H95384  -0.388   7.432   7.984  0.0796 -0.1476  1.1364
  723MOL0     H95385  -0.598   7.472   7.966 -0.7858  1.4315  0.1599
  723MOL0     H95386  -0.607   7.412   8.133  0.3562 -0.5796 -0.0870
  723MOL0     H95387  -0.611   7.710   8.046 -0.7280  0.5147  0.3113
  723MOL0     H95388  -0.603   7.641   8.202 -0.7899 -1.3807  0.1667
  723MOL0     H95389  -0.869   7.595   7.898 -2.7253  0.5415 -0.3093
  723MOL0     H95390  -1.111   7.428   7.951 -0.9310  0.2929 -2.1060
  723MOL0     H95391  -1.115   7.587   7.893  1.9456 -2.4885 -0.9878
  723MOL0     H95392  -1.259   7.650   8.106  1.7635 -0.6189  0.5090
  723MOL0     H95393  -1.242   7.471   8.147 -2.6158  0.2602  1.3903
  723MOL0     H95394  -1.407   7.564   7.912  3.7672  2.1328 -0.5417
  723MOL0     H95395  -1.375   7.404   7.984 -0.2298 -0.2931  1.2054
  723MOL0     H95396  -1.483   7.533   8.207 -1.6111 -1.8440  0.3034
  723MOL0     H95397  -1.580   7.462   8.085 -0.2350  1.5894  0.2059
  723MOL0     H95398  -1.773   7.636   8.194  1.1683  3.1183  0.3254
  723MOL0     H95399  -2.013   7.639   8.091 -1.5802 -0.1132 -2.4028
  723MOL0     H95400  -2.261   7.491   7.763  1.7852  1.1763 -1.7807
  723MOL0     H95401  -2.470   7.509   7.616 -1.4235 -0.0056 -0.0778
  723MOL0     H95402  -2.761   7.800   7.770  1.9893  0.1894 -0.6078
  723MOL0     H95403  -2.807   7.624   7.788  0.4794  2.8383  2.5680
  723MOL0     H95404  -2.897   7.626   7.574  0.5576 -0.4190  1.9302
  723MOL0     H95405  -2.840   7.787   7.532 -0.3827 -0.4375 -1.4758
  723MOL0     H95406  -3.002   7.881   7.719 -0.3953  0.2570 -1.5153
  723MOL0     H95407  -3.018   7.715   7.762  0.0115 -2.8998 -1.7137
  723MOL0     H95408  -3.128   7.668   7.545  0.2052  0.1038  0.4593
  723MOL0     H95409  -3.209   7.769   7.650  0.4414  0.2209  0.3358
  723MOL0     H95410  -3.071   7.855   7.397 -0.6457 -0.5853 -0.4085
  723MOL0     H95411  -3.161   7.964   7.523 -0.9967  0.0723  0.9719
  723MOL0     H95412  -3.373   7.846   7.483 -0.1743  0.1590 -0.2503
  723MOL0     H95413  -3.290   7.718   7.404  3.0851 -0.5768  0.6684
  723MOL0     H95414  -3.302   8.012   7.288 -0.5425 -0.1864 -5.0986
  723MOL0     H95415  -3.201   7.872   7.240  0.0673  0.2032 -0.8058
  723MOL0     H95416  -3.400   7.882   7.095  1.3189 -0.4360  0.8014
  723MOL0     H95417  -3.500   7.879   7.245  1.5450  1.1449  1.9639
  723MOL0     H95418  -2.577   7.875   7.824 -2.6155 -0.9400 -0.9999
  723MOL0     H95419  -2.350   7.867   7.943  0.7426  0.4945 -0.2732
  723MOL0     H95420  -1.850   7.757   7.721  0.1334 -0.5052  0.0681
  723MOL0     H95421  -1.618   7.740   7.815  0.0119 -0.6019 -0.5296
  723MOL0     H95422   0.201   7.216   7.813  1.2266 -1.1024  0.8904
  723MOL0     H95423   0.442   7.150   7.833  0.9144  0.1886  2.5885
  723MOL0     H95424   0.896   7.092   7.994 -0.7973 -0.2540  0.2558
  723MOL0     H95425   1.125   7.067   7.967 -2.2071  0.3560  1.7915
  723MOL0     H95426   1.318   6.988   7.868  1.2064 -1.3987 -1.3770
  723MOL0     H95427   1.376   7.147   7.926 -0.2026 -0.7511  0.1172
  723MOL0     H95428   1.481   6.998   7.689 -2.7770  1.3708 -1.0177
  723MOL0     H95429   1.528   7.158   7.738 -1.7044 -0.0889 -1.1921
  723MOL0     H95430   1.575   6.922   7.929  1.0429 -0.9702  0.0192
  723MOL0     H95431   1.618   7.089   7.942  0.7664  0.9389 -2.0025
  723MOL0     H95432   1.793   7.076   7.787 -1.4172  0.7313 -0.1894
  723MOL0     H95433   1.804   6.929   7.866 -0.0601  2.1625  2.1709
  723MOL0     H95434   1.696   6.820   7.469 -0.4244  0.8595  0.3261
  723MOL0     H95435   1.122   7.286   7.606  0.3371 -0.2340 -0.6579
  723MOL0     H95436   0.877   7.331   7.635  0.6173  0.8619 -0.7842
  724MOL0     O95437   0.707   2.124   2.602 -0.4468  0.3362 -0.2152
  724MOL0     C95438   0.679   2.032   2.522  0.0898  0.4067 -0.7705
  724MOL0     O95439   0.558   1.959   2.506 -0.1698  0.0763 -0.3716
  724MOL0     C95440   0.443   2.002   2.572  0.3215  0.2507 -0.7604
  724MOL0     C95441   0.405   2.133   2.603  0.0833 -0.4367  0.6027
  724MOL0     C95442   0.279   2.164   2.646 -0.6898 -0.2248 -0.2843
  724MOL0     C95443   0.187   2.074   2.662 -0.0236  0.7778  0.1355
  724MOL0     O95444   0.058   2.104   2.699 -0.2086  0.0043 -0.2445
  724MOL0     C95445  -0.028   2.160   2.605 -0.4852 -0.7571 -0.5096
  724MOL0     C95446  -0.151   2.079   2.612  0.9596 -0.3834 -0.6322
  724MOL0     C95447  -0.254   2.101   2.499 -0.4661 -0.1732  0.4850
  724MOL0     C95448  -0.353   1.987   2.509 -0.4586  0.3306 -0.1527
  724MOL0     C95449  -0.441   1.980   2.389  0.1073  0.0650  0.1758
  724MOL0     C95450  -0.375   1.907   2.277  0.1204 -0.1614 -0.5468
  724MOL0     C95451  -0.463   1.896   2.161  0.0127 -0.0164 -0.5498
  724MOL0     C95452  -0.530   1.760   2.153 -1.1552 -0.1687 -0.4871
  724MOL0     N95453  -0.645   1.756   2.246  0.9209 -1.2452 -0.0029
  724MOL0     C95454  -0.650   1.689   2.367 -0.6050 -0.1775 -0.5637
  724MOL0     C95455  -0.757   1.734   2.437  0.6697  0.2985 -0.0344
  724MOL0     C95456  -0.783   1.680   2.576  1.0422 -0.1137  0.6413
  724MOL0     C95457  -0.922   1.648   2.611  0.5281  0.1532 -0.8491
  724MOL0     C95458  -0.975   1.517   2.552  0.0329  1.2076  0.0189
  724MOL0     C95459  -1.130   1.482   2.593 -0.7089  1.0147  0.5257
  724MOL0     O95460  -1.198   1.604   2.636  0.0220  0.1301 -0.1052
  724MOL0     C95461  -1.333   1.611   2.632  0.2488 -0.0863 -0.1254
  724MOL0     C95462  -1.426   1.498   2.611  0.2208  0.0472  0.3736
  724MOL0     C95463  -1.563   1.514   2.618 -0.1421 -0.8291 -0.3742
  724MOL0     C95464  -1.618   1.644   2.612 -0.0686 -0.5567 -0.4583
  724MOL0     C95465  -1.761   1.666   2.605 -0.2649 -0.7097  0.1787
  724MOL0     O95466  -1.832   1.571   2.662 -0.2657  0.5552  0.2104
  724MOL0     C95467  -1.970   1.571   2.647  0.5042 -0.4670 -0.2719
  724MOL0     C95468  -2.053   1.626   2.745  0.0689 -0.4484 -0.7339
  724MOL0     C95469  -2.199   1.594   2.741 -0.6733  0.3287  0.2622
  724MOL0     C95470  -2.250   1.527   2.632 -0.0287  0.6901  0.8726
  724MOL0     O95471  -2.382   1.494   2.615 -0.1509  0.0133 -0.6606
  724MOL0     C95472  -2.478   1.527   2.717 -0.4511 -1.1049 -0.7547
  724MOL0     C95473  -2.622   1.517   2.677 -0.3777 -0.0007  0.2407
  724MOL0     C95474  -2.711   1.526   2.801 -0.3387  1.0524  0.9207
  724MOL0     C95475  -2.854   1.551   2.766  0.3989 -0.4154  0.3936
  724MOL0     C95476  -2.941   1.436   2.697  0.2650 -0.4097 -0.3455
  724MOL0     C95477  -3.083   1.485   2.673 -0.1963  0.8359  0.1696
  724MOL0     C95478  -3.180   1.359   2.651  0.5402 -0.0763 -0.6399
  724MOL0     C95479  -3.324   1.413   2.626  0.2807  0.2544 -0.1148
  724MOL0    Cl95480  -3.403   1.454   2.785 -0.3484 -0.1337  0.1121
  724MOL0     C95481  -2.153   1.492   2.531 -0.3218  0.3009 -0.2947
  724MOL0     C95482  -2.017   1.502   2.540  0.0952 -0.3160 -0.4436
  724MOL0     O95483  -1.801   1.758   2.530  0.6781  0.5492  0.3323
  724MOL0     C95484  -1.534   1.754   2.625  0.0353 -0.4022  0.1433
  724MOL0     C95485  -1.397   1.738   2.632  0.3359 -0.5923 -0.0684
  724MOL0     N95486  -0.828   1.814   2.350  0.0512  0.1451  0.2648
  724MOL0     N95487  -0.755   1.837   2.248 -0.3781 -0.8639 -0.8112
  724MOL0     C95488   0.226   1.942   2.649  0.2022  0.6746 -0.0667
  724MOL0     C95489   0.352   1.908   2.598  0.6593 -0.0557  0.0601
  724MOL0     C95490   0.798   1.979   2.449  1.6243  0.5966  1.2850
  724MOL0     C95491   0.927   2.010   2.488  1.0077  0.7296 -0.0316
  724MOL0     C95492   1.042   1.967   2.426  0.3753  0.3263 -0.3883
  724MOL0     C95493   1.027   1.879   2.325 -0.1616  0.9932  0.0743
  724MOL0     O95494   1.142   1.823   2.268  0.6707 -0.0904 -0.4427
  724MOL0     C95495   1.129   1.802   2.129  0.1195 -0.2376 -0.4836
  724MOL0     C95496   1.276   1.772   2.082  0.2005 -0.2109 -0.5225
  724MOL0     C95497   1.286   1.693   1.954 -0.6646  0.3950 -0.2827
  724MOL0     C95498   1.424   1.663   1.905 -0.5121  0.0401  0.0154
  724MOL0     C95499   1.497   1.544   1.951  0.4199 -0.1675  0.0630
  724MOL0     C95500   1.579   1.464   1.998 -0.1984  0.4806  0.2698
  724MOL0     C95501   0.896   1.832   2.283  0.9939 -0.1936  0.6978
  724MOL0     C95502   0.787   1.888   2.345 -0.4577  0.7417 -0.8918
  724MOL0     H95503   0.477   2.214   2.591  0.3989 -0.6104  1.2776
  724MOL0     H95504   0.250   2.264   2.679  0.2515 -0.7565  2.3950
  724MOL0     H95505   0.018   2.172   2.507  0.3208  2.4424  0.1384
  724MOL0     H95506  -0.053   2.258   2.648 -0.8650 -2.1490  2.7351
  724MOL0     H95507  -0.205   2.095   2.706  1.2232 -0.0133 -0.5432
  724MOL0     H95508  -0.117   1.975   2.614  0.2094 -0.7050  2.9319
  724MOL0     H95509  -0.208   2.092   2.400 -2.8489 -1.2681 -0.6144
  724MOL0     H95510  -0.311   2.193   2.515  1.4938  1.3111 -0.6820
  724MOL0     H95511  -0.304   1.890   2.517 -1.4781 -0.1301  0.7597
  724MOL0     H95512  -0.410   1.990   2.602 -2.1685 -3.1105 -0.9435
  724MOL0     H95513  -0.469   2.082   2.361  1.3876  0.7707  1.2870
  724MOL0     H95514  -0.536   1.936   2.419 -0.0148 -0.8182 -1.4335
  724MOL0     H95515  -0.349   1.809   2.318  1.6805 -0.0016 -1.1093
  724MOL0     H95516  -0.277   1.944   2.244 -0.1388  0.8357 -0.2403
  724MOL0     H95517  -0.539   1.975   2.156  2.4632  2.6687  1.4183
  724MOL0     H95518  -0.394   1.901   2.076  0.7073 -3.2127 -0.3214
  724MOL0     H95519  -0.452   1.685   2.166  0.8726  1.7230 -1.2769
  724MOL0     H95520  -0.568   1.752   2.051 -0.0360  1.5050 -1.0669
  724MOL0     H95521  -0.576   1.618   2.402 -0.1903  0.8649  0.7632
  724MOL0     H95522  -0.738   1.753   2.644  1.3446  0.4635 -0.1615
  724MOL0     H95523  -0.729   1.585   2.580  0.7195 -0.5480 -2.3339
  724MOL0     H95524  -0.990   1.730   2.588  0.0654  0.2831  0.8686
  724MOL0     H95525  -0.922   1.630   2.719  0.0698 -3.1096 -1.2893
  724MOL0     H95526  -0.957   1.525   2.444 -3.2312  2.6037 -0.5310
  724MOL0     H95527  -0.914   1.439   2.598 -0.6711  1.6885  1.8548
  724MOL0     H95528  -1.134   1.418   2.682  0.0657  0.0648 -0.1074
  724MOL0     H95529  -1.184   1.451   2.504  1.7331 -0.8730 -0.4190
  724MOL0     H95530  -1.400   1.393   2.605 -3.3504 -0.9515 -0.2926
  724MOL0     H95531  -1.629   1.429   2.629 -1.2909  0.2999  2.3394
  724MOL0     H95532  -2.003   1.694   2.813 -2.7602 -0.9425  2.0283
  724MOL0     H95533  -2.265   1.618   2.824 -1.2369 -0.0227 -0.0780
  724MOL0     H95534  -2.461   1.630   2.750 -0.2923 -1.2564 -0.3590
  724MOL0     H95535  -2.463   1.463   2.804  0.3150 -0.9696 -0.7775
  724MOL0     H95536  -2.615   1.417   2.632  4.2109  0.1378  0.1057
  724MOL0     H95537  -2.647   1.595   2.605 -2.2324 -0.8716 -0.1164
  724MOL0     H95538  -2.682   1.610   2.865 -0.9725  2.0568 -0.0743
  724MOL0     H95539  -2.713   1.433   2.858 -0.5027  0.1978 -0.4584
  724MOL0     H95540  -2.912   1.567   2.858  2.2674  0.6468  1.4420
  724MOL0     H95541  -2.862   1.641   2.705 -0.8797 -2.7913 -3.3200
  724MOL0     H95542  -2.952   1.351   2.765  0.8175 -0.1437  0.0883
  724MOL0     H95543  -2.896   1.402   2.603 -0.1867  2.0911 -1.5435
  724MOL0     H95544  -3.081   1.552   2.587  0.9772 -0.1561 -0.6164
  724MOL0     H95545  -3.125   1.532   2.762 -1.9266 -0.9927  0.4048
  724MOL0     H95546  -3.151   1.310   2.557  0.4548  0.2607 -0.8442
  724MOL0     H95547  -3.186   1.292   2.737 -3.0568  0.2981 -0.4579
  724MOL0     H95548  -3.378   1.323   2.596  0.0606 -0.6446  2.6685
  724MOL0     H95549  -3.327   1.492   2.550 -4.8838  0.5477  0.0802
  724MOL0     H95550  -2.190   1.455   2.436  3.7796 -1.1841 -1.5477
  724MOL0     H95551  -1.955   1.456   2.465 -1.3118 -0.6147 -1.4721
  724MOL0     H95552  -1.562   1.858   2.638  1.2963 -0.0666  0.3884
  724MOL0     H95553  -1.333   1.824   2.648 -2.0084  1.3135 -0.3400
  724MOL0     H95554   0.162   1.862   2.685 -0.2772  1.8048  1.7533
  724MOL0     H95555   0.376   1.803   2.592 -2.8251 -0.9919  0.3653
  724MOL0     H95556   0.952   2.073   2.573  4.3610 -0.8487  0.3431
  724MOL0     H95557   1.139   1.997   2.465 -0.1108  0.8286  0.4604
  724MOL0     H95558   1.087   1.891   2.083  2.2817  0.6857 -0.7937
  724MOL0     H95559   1.065   1.715   2.114 -0.4327  0.1822 -0.5959
  724MOL0     H95560   1.344   1.858   2.082  0.4435 -0.3891  0.3570
  724MOL0     H95561   1.314   1.702   2.157 -1.2526 -0.7123 -0.2123
  724MOL0     H95562   1.235   1.751   1.876 -0.1714  0.8290 -0.2914
  724MOL0     H95563   1.234   1.598   1.971 -0.4276  0.5141  1.2483
  724MOL0     H95564   1.416   1.667   1.796  1.1178 -2.8487 -0.3102
  724MOL0     H95565   1.487   1.747   1.934  1.3963 -0.5730 -2.0889
  724MOL0     H95566   1.648   1.405   2.055  1.0076 -0.5461 -2.1365
  724MOL0     H95567   0.878   1.767   2.197  0.2580  2.0889 -0.9701
  724MOL0     H95568   0.688   1.855   2.314 -0.7844 -1.0000  1.7096
  725MOL0     O95569   4.255  10.616   7.970  0.1514 -0.8219  0.1055
  725MOL0     C95570   4.318  10.669   7.880  0.1317  0.3607 -0.9463
  725MOL0     O95571   4.291  10.786   7.823  0.2274  0.1600  0.5939
  725MOL0     C95572   4.172  10.861   7.851  0.2992 -0.9648 -0.3337
  725MOL0     C95573   4.054  10.812   7.915  0.0288  0.6503  0.5985
  725MOL0     C95574   3.949  10.894   7.936  0.4966  0.1244  0.9360
  725MOL0     C95575   3.961  11.031   7.895 -0.2914  0.1847 -0.3503
  725MOL0     O95576   3.871  11.113   7.944  0.1044 -0.6504  0.0081
  725MOL0     C95577   3.900  11.257   7.955 -0.1351  0.4555 -0.3799
  725MOL0     C95578   3.805  11.306   8.056  0.7680 -0.8605 -0.1618
  725MOL0     C95579   3.656  11.296   8.006 -0.7780  0.7019 -0.1312
  725MOL0     C95580   3.555  11.358   8.105  0.2155  1.0469  1.0890
  725MOL0     C95581   3.404  11.345   8.062  0.6995 -0.1226 -1.0781
  725MOL0     C95582   3.327  11.235   8.127 -0.6961  0.6455  0.5977
  725MOL0     C95583   3.385  11.094   8.112  0.2811 -0.0171 -0.2297
  725MOL0     C95584   3.386  11.047   7.966 -0.1450  0.2687 -0.4098
  725MOL0     N95585   3.252  11.018   7.926  0.5337  0.3421 -0.4028
  725MOL0     C95586   3.164  11.107   7.859 -0.3223  0.2839  0.6503
  725MOL0     C95587   3.064  11.021   7.825  0.2851 -0.6777 -0.7436
  725MOL0     C95588   2.957  11.061   7.729  0.0332  0.2724  0.4144
  725MOL0     C95589   2.833  11.090   7.796  0.0324 -0.4595  0.5577
  725MOL0     C95590   2.732  11.154   7.704 -0.5618  0.4435 -0.6407
  725MOL0     C95591   2.583  11.129   7.745 -0.6302  0.4863 -0.0192
  725MOL0     O95592   2.576  11.143   7.888 -0.2782 -0.2798  0.4020
  725MOL0     C95593   2.462  11.203   7.925 -0.2267  0.6426 -0.2206
  725MOL0     C95594   2.355  11.126   7.960 -0.0182 -0.4584  0.4151
  725MOL0     C95595   2.228  11.192   7.972  0.5233 -1.0594  0.2938
  725MOL0     C95596   2.208  11.328   7.943  0.9596  0.2071  0.2425
  725MOL0     C95597   2.075  11.397   7.961  0.2228 -0.0066 -0.4362
  725MOL0     O95598   2.036  11.471   7.853  0.2751 -0.3874 -0.1254
  725MOL0     C95599   1.913  11.535   7.862  0.1941  0.6403 -0.0956
  725MOL0     C95600   1.818  11.520   7.762 -0.3044 -0.2623  0.4600
  725MOL0     C95601   1.684  11.566   7.775  0.0563  0.0291 -0.2018
  725MOL0     C95602   1.646  11.635   7.893  0.1380  1.0103  0.0430
  725MOL0     O95603   1.516  11.676   7.892 -0.0251  0.2120 -0.5613
  725MOL0     C95604   1.467  11.759   8.003  0.2078  1.1089 -0.0933
  725MOL0     C95605   1.325  11.818   7.967 -0.2964 -0.3523  0.8055
  725MOL0     C95606   1.213  11.710   7.956 -0.6402  0.6510  0.4997
  725MOL0     C95607   1.081  11.783   7.963 -0.1464 -0.2669 -0.5093
  725MOL0     C95608   0.958  11.716   7.896 -0.8329  0.0729  1.0226
  725MOL0     C95609   0.924  11.573   7.943 -0.9205  0.7068  0.3702
  725MOL0     C95610   0.778  11.533   7.944 -0.2768  0.0130 -0.4247
  725MOL0     C95611   0.733  11.448   7.823  0.5339  0.0943 -0.8941
  725MOL0    Cl95612   0.800  11.520   7.676  0.0740 -0.1181  0.0010
  725MOL0     C95613   1.743  11.655   7.993  0.5646 -0.5297 -0.0906
  725MOL0     C95614   1.869  11.602   7.983  0.0251 -0.4812  0.1268
  725MOL0     O95615   2.011  11.378   8.065  0.1062 -0.0340  0.2850
  725MOL0     C95616   2.320  11.394   7.896  0.1721 -0.0766 -0.0754
  725MOL0     C95617   2.447  11.342   7.891  0.2683  0.3828 -0.2498
  725MOL0     N95618   3.085  10.898   7.876 -0.5399 -0.6932 -0.4034
  725MOL0     N95619   3.198  10.898   7.931  0.3542 -0.5585  0.9413
  725MOL0     C95620   4.077  11.083   7.839 -1.0286 -0.2033  1.0095
  725MOL0     C95621   4.179  10.999   7.805 -0.4451 -0.6858  0.0270
  725MOL0     C95622   4.451  10.611   7.858 -1.0241  0.3756  0.5971
  725MOL0     C95623   4.561  10.679   7.796  0.4394 -0.3927  0.4387
  725MOL0     C95624   4.686  10.620   7.791  0.3101 -0.3844  0.7066
  725MOL0     C95625   4.705  10.487   7.839  0.2047  0.1298  0.3374
  725MOL0     O95626   4.816  10.409   7.835 -0.4149  0.0618 -0.0913
  725MOL0     C95627   4.940  10.477   7.812  0.5063  0.0194  0.5722
  725MOL0     C95628   4.986  10.556   7.938 -0.3719  0.0359  0.1726
  725MOL0     C95629   5.114  10.638   7.902  0.7527 -0.5965  0.3765
  725MOL0     C95630   5.238  10.549   7.894  0.1514 -0.4018 -0.3789
  725MOL0     C95631   5.357  10.630   7.872 -0.2113 -0.6326 -0.1868
  725MOL0     C95632   5.453  10.706   7.844  0.4988 -0.2571  0.1308
  725MOL0     C95633   4.603  10.413   7.900  0.4474 -1.1908  0.7730
  725MOL0     C95634   4.478  10.480   7.907  0.1624  0.4303  0.0228
  725MOL0     H95635   4.037  10.708   7.940  0.1123  0.1421 -1.3057
  725MOL0     H95636   3.857  10.867   7.986 -1.0257 -1.1152 -2.2420
  725MOL0     H95637   3.897  11.302   7.856 -0.9216 -2.1574 -1.6244
  725MOL0     H95638   3.998  11.276   8.002 -1.8743 -0.8760  4.4675
  725MOL0     H95639   3.823  11.412   8.078 -0.7774 -0.4575 -0.7259
  725MOL0     H95640   3.811  11.250   8.150 -0.4302 -1.4320 -0.4113
  725MOL0     H95641   3.629  11.192   7.987 -0.5678  1.1097 -3.0069
  725MOL0     H95642   3.655  11.338   7.905  1.0925 -1.5647 -1.1785
  725MOL0     H95643   3.589  11.317   8.200  3.4749  0.2310 -0.2885
  725MOL0     H95644   3.573  11.466   8.093 -0.3922  0.9141 -1.7460
  725MOL0     H95645   3.397  11.342   7.953  0.4501  3.6400 -1.3091
  725MOL0     H95646   3.361  11.440   8.095 -0.3188 -2.3066  5.1320
  725MOL0     H95647   3.229  11.221   8.080  1.1906 -3.7167 -2.7993
  725MOL0     H95648   3.319  11.260   8.233 -0.1339  2.7711  0.1826
  725MOL0     H95649   3.484  11.078   8.154  0.1441 -2.8520 -0.7799
  725MOL0     H95650   3.324  11.025   8.171  0.9480  0.1522  0.6753
  725MOL0     H95651   3.444  10.954   7.966 -1.4541 -0.5890 -1.1293
  725MOL0     H95652   3.435  11.109   7.891 -0.8769  1.6334  0.2095
  725MOL0     H95653   3.175  11.213   7.839 -1.4286  0.5477  1.3287
  725MOL0     H95654   2.942  10.971   7.669  1.2900  0.4651 -0.2253
  725MOL0     H95655   2.984  11.149   7.670 -0.6914  0.7326  0.7492
  725MOL0     H95656   2.850  11.171   7.868 -0.3843  3.4337 -3.3391
  725MOL0     H95657   2.791  10.998   7.840 -1.2199  0.5834  1.6532
  725MOL0     H95658   2.744  11.263   7.709 -1.3194  0.5445 -0.7963
  725MOL0     H95659   2.743  11.109   7.605 -0.5370 -0.3995 -0.2610
  725MOL0     H95660   2.557  11.027   7.717 -1.4342  0.7851 -0.4020
  725MOL0     H95661   2.530  11.198   7.680 -0.1131  0.8490 -0.0641
  725MOL0     H95662   2.361  11.023   7.991 -0.3291  0.0207  2.1417
  725MOL0     H95663   2.137  11.134   7.984 -0.2999 -0.1993 -1.3687
  725MOL0     H95664   1.853  11.460   7.678 -2.0963  0.9149 -1.2053
  725MOL0     H95665   1.619  11.551   7.690  1.0426  0.2310 -1.0181
  725MOL0     H95666   1.536  11.841   8.025  0.4841  0.6663  0.7228
  725MOL0     H95667   1.462  11.700   8.095 -0.6466  1.1198 -0.1259
  725MOL0     H95668   1.332  11.884   7.881  0.1094 -2.2445 -0.6850
  725MOL0     H95669   1.301  11.884   8.051 -0.2298  0.1696  0.4177
  725MOL0     H95670   1.225  11.637   8.036 -0.6653  1.0509  0.8695
  725MOL0     H95671   1.217  11.659   7.859 -0.7157 -0.5493  1.1099
  725MOL0     H95672   1.047  11.797   8.066 -2.5860 -0.7987 -1.1844
  725MOL0     H95673   1.099  11.874   7.905  0.8232 -0.2027 -0.1234
  725MOL0     H95674   0.973  11.703   7.788  0.5619 -2.2304  1.4430
  725MOL0     H95675   0.879  11.789   7.915  2.1991  5.1251 -3.0160
  725MOL0     H95676   0.962  11.560   8.045 -0.1676  0.0723  0.0106
  725MOL0     H95677   0.965  11.499   7.875 -3.9569 -1.2999  0.5441
  725MOL0     H95678   0.757  11.482   8.037 -2.0056 -0.0012 -0.7961
  725MOL0     H95679   0.720  11.626   7.949 -1.7660 -0.9666  2.0303
  725MOL0     H95680   0.624  11.443   7.818  0.6085 -0.9284 -1.6427
  725MOL0     H95681   0.775  11.348   7.836 -0.9643 -0.6180 -1.2883
  725MOL0     H95682   1.719  11.717   8.079  2.8312  0.3454 -0.0095
  725MOL0     H95683   1.947  11.619   8.055  1.7403 -2.1763 -1.2170
  725MOL0     H95684   2.308  11.497   7.865 -1.8097 -1.0433 -2.9560
  725MOL0     H95685   2.534  11.397   7.854 -1.7028  2.2642 -2.4144
  725MOL0     H95686   4.097  11.186   7.811 -0.8747 -0.5789 -0.3310
  725MOL0     H95687   4.262  11.031   7.744  1.8630 -3.6526  1.3450
  725MOL0     H95688   4.547  10.783   7.768 -2.3713 -1.1279 -1.2874
  725MOL0     H95689   4.768  10.670   7.739 -1.2611  0.4999 -1.0314
  725MOL0     H95690   4.929  10.539   7.723  0.7940 -1.6720 -0.6892
  725MOL0     H95691   5.025  10.410   7.792 -1.4286 -2.5888  0.5596
  725MOL0     H95692   4.906  10.622   7.971  1.4858  1.9712  1.0945
  725MOL0     H95693   5.012  10.492   8.022  3.8155  2.9906  1.4727
  725MOL0     H95694   5.129  10.718   7.975 -1.0211 -0.9879  1.2082
  725MOL0     H95695   5.094  10.687   7.807 -1.3448  0.5002  1.3373
  725MOL0     H95696   5.243  10.490   7.985  3.6740 -0.6728 -0.6410
  725MOL0     H95697   5.237  10.478   7.810 -1.8858  1.2630 -1.8908
  725MOL0     H95698   5.538  10.768   7.825  0.7222  0.2847  2.5308
  725MOL0     H95699   4.603  10.311   7.936  1.1201 -2.2600 -1.9851
  725MOL0     H95700   4.399  10.420   7.950  1.6054 -1.4354  0.1958
  726MOL0     O95701   1.358   4.852   8.960 -0.0962 -0.0913  1.2926
  726MOL0     C95702   1.376   4.805   9.071  0.6657 -0.0336 -1.0195
  726MOL0     O95703   1.273   4.775   9.159 -0.0684 -0.3896 -0.3762
  726MOL0     C95704   1.136   4.787   9.144 -0.0898  0.1334 -0.2464
  726MOL0     C95705   1.057   4.737   9.246  0.0010  0.4534  1.5230
  726MOL0     C95706   0.911   4.726   9.227  0.4360 -0.0934  0.3878
  726MOL0     C95707   0.847   4.784   9.120  0.5243  0.0806 -0.2386
  726MOL0     O95708   0.709   4.775   9.106 -0.3143  0.4820 -0.5571
  726MOL0     C95709   0.625   4.861   9.028  0.4122  0.5009  0.3590
  726MOL0     C95710   0.477   4.821   9.067  0.6014  0.0630 -0.1909
  726MOL0     C95711   0.445   4.844   9.219  0.2950  0.3876 -0.3049
  726MOL0     C95712   0.292   4.872   9.231 -0.5651 -0.3842 -0.5725
  726MOL0     C95713   0.251   4.866   9.385 -0.4064 -0.9459  0.1161
  726MOL0     C95714   0.116   4.934   9.406 -0.2576 -0.3828  0.6600
  726MOL0     C95715   0.053   4.881   9.539 -0.4288 -0.4003 -0.0764
  726MOL0     C95716  -0.084   4.947   9.573 -0.2520 -0.3047 -0.8613
  726MOL0     N95717  -0.062   5.079   9.624  0.0016 -0.7466  0.6167
  726MOL0     C95718  -0.094   5.195   9.557 -0.3486 -0.7164 -1.2366
  726MOL0     C95719  -0.084   5.295   9.652  0.5707 -0.4283  0.2714
  726MOL0     C95720  -0.115   5.444   9.646  0.0573 -0.0341 -0.7129
  726MOL0     C95721  -0.262   5.465   9.662 -0.3081  0.0138 -0.1497
  726MOL0     C95722  -0.312   5.479   9.807  0.0363  0.3155 -0.7684
  726MOL0     C95723  -0.452   5.539   9.803  1.1814  0.2926  0.9921
  726MOL0     O95724  -0.521   5.551   9.929 -1.2192  0.1289  0.9699
  726MOL0     C95725  -0.655   5.544   9.935 -1.0219 -0.2171  0.6406
  726MOL0     C95726  -0.740   5.625   9.852 -0.6926 -0.0541 -1.0764
  726MOL0     C95727  -0.877   5.612   9.861  1.3680 -0.8858 -0.5102
  726MOL0     C95728  -0.946   5.518   9.939 -0.0969  0.5724 -0.3684
  726MOL0     C95729  -1.096   5.519   9.942 -0.3587  0.0510  0.0921
  726MOL0     O95730  -1.171   5.440  10.028 -0.3370 -0.7944 -0.2224
  726MOL0     C95731  -1.304   5.456  10.064  0.2707  0.2148  0.0134
  726MOL0     C95732  -1.374   5.358  10.130 -1.2879  0.2445 -1.0047
  726MOL0     C95733  -1.510   5.373  10.164 -0.0631 -0.9245 -0.3311
  726MOL0     C95734  -1.576   5.485  10.128  0.0049 -0.7587  0.5367
  726MOL0     O95735  -1.705   5.494  10.178 -0.7131 -0.1790  0.9601
  726MOL0     C95736  -1.773   5.616  10.158  0.2856  0.1254  0.0726
  726MOL0     C95737  -1.906   5.602  10.225  0.0052  0.3920 -0.7220
  726MOL0     C95738  -1.999   5.509  10.145  0.2267 -0.2914  0.4276
  726MOL0     C95739  -2.141   5.512  10.207  0.2986 -0.2609 -0.1839
  726MOL0     C95740  -2.256   5.462  10.116  0.5478  0.3252 -0.0292
  726MOL0     C95741  -2.363   5.389  10.204 -0.9549 -0.8719  0.3928
  726MOL0     C95742  -2.475   5.352  10.108  1.0443  0.4344 -0.0170
  726MOL0     C95743  -2.610   5.326  10.185 -1.1648 -0.0476  0.8486
  726MOL0    Cl95744  -2.681   5.459  10.272  0.0833  0.1674 -0.1792
  726MOL0     C95745  -1.501   5.594  10.082  0.0277  0.4133  0.1147
  726MOL0     C95746  -1.369   5.583  10.049  0.2373  0.5635 -0.2744
  726MOL0     O95747  -1.143   5.588   9.856  0.0842  0.0121 -0.2412
  726MOL0     C95748  -0.859   5.428  10.001 -0.6223  0.4629 -0.4477
  726MOL0     C95749  -0.720   5.434   9.997 -0.8366 -0.0376  0.6381
  726MOL0     N95750  -0.048   5.237   9.770 -0.1417 -0.5478 -0.2461
  726MOL0     N95751  -0.048   5.113   9.757 -0.0541  0.3457 -0.2120
  726MOL0     C95752   0.920   4.837   9.019 -0.2018  0.4748 -0.7704
  726MOL0     C95753   1.062   4.841   9.036 -0.6042 -0.1489  0.2414
  726MOL0     C95754   1.512   4.782   9.104 -0.1616 -0.3929  0.4340
  726MOL0     C95755   1.619   4.827   9.026  0.5772 -0.5832  0.1634
  726MOL0     C95756   1.750   4.809   9.067 -0.2202  0.2402  0.7577
  726MOL0     C95757   1.788   4.753   9.184  0.3068 -0.1845 -0.0976
  726MOL0     O95758   1.914   4.759   9.240 -0.3681 -0.3473 -0.0562
  726MOL0     C95759   2.024   4.777   9.149 -0.6127 -0.0237 -0.6112
  726MOL0     C95760   2.148   4.742   9.236 -0.2338 -0.2480  0.2367
  726MOL0     C95761   2.202   4.855   9.331  0.3702 -0.1893  0.0701
  726MOL0     C95762   2.348   4.817   9.383 -0.3416  0.2317  0.6980
  726MOL0     C95763   2.400   4.926   9.463 -0.2948 -1.5657 -0.9083
  726MOL0     C95764   2.455   5.018   9.527 -0.0630  0.0234 -0.1635
  726MOL0     C95765   1.676   4.711   9.262 -0.8437  0.0998  0.2792
  726MOL0     C95766   1.546   4.714   9.220 -0.6315  0.3726  0.0402
  726MOL0     H95767   1.092   4.704   9.343  0.0895  2.5485  2.2445
  726MOL0     H95768   0.853   4.674   9.302 -2.0720 -1.9046 -2.5399
  726MOL0     H95769   0.645   4.842   8.922 -2.2338  0.3097 -0.1959
  726MOL0     H95770   0.635   4.968   9.047 -0.7807  0.8349 -0.7516
  726MOL0     H95771   0.461   4.714   9.049 -1.7696 -0.0013  1.7703
  726MOL0     H95772   0.405   4.871   9.001  0.9650 -0.9257 -1.3864
  726MOL0     H95773   0.504   4.929   9.254 -0.5446  0.2567  1.5433
  726MOL0     H95774   0.479   4.757   9.276  0.2167 -0.4575 -1.5246
  726MOL0     H95775   0.275   4.968   9.182  0.8060 -0.0812 -0.4947
  726MOL0     H95776   0.242   4.793   9.174  2.8508 -3.0394 -0.2634
  726MOL0     H95777   0.326   4.911   9.451 -0.7245 -1.0750  0.5680
  726MOL0     H95778   0.248   4.764   9.426  0.8848 -1.3153 -0.6628
  726MOL0     H95779   0.053   4.904   9.322 -1.2100  1.1345  0.8024
  726MOL0     H95780   0.133   5.042   9.403 -0.9270 -0.2979 -0.6402
  726MOL0     H95781   0.062   4.773   9.531  2.8532 -0.2823  0.5529
  726MOL0     H95782   0.112   4.908   9.627  0.2676 -0.0812 -0.6252
  726MOL0     H95783  -0.111   4.887   9.661  0.7736  0.6803  0.1621
  726MOL0     H95784  -0.166   4.940   9.501 -4.2702  0.8161  3.1517
  726MOL0     H95785  -0.146   5.205   9.462  0.5379 -2.5000 -1.9368
  726MOL0     H95786  -0.074   5.479   9.551  4.4219 -1.2392  0.4967
  726MOL0     H95787  -0.057   5.499   9.721 -0.4143 -0.0280 -0.3498
  726MOL0     H95788  -0.325   5.396   9.605 -1.3881  0.5134  0.3984
  726MOL0     H95789  -0.276   5.558   9.605 -0.1799 -1.1577 -2.1836
  726MOL0     H95790  -0.325   5.377   9.846  1.3675 -0.3866 -2.0700
  726MOL0     H95791  -0.244   5.536   9.870 -1.0567 -0.2777  1.0562
  726MOL0     H95792  -0.489   5.468   9.729  2.3362 -0.1623  0.8233
  726MOL0     H95793  -0.455   5.638   9.757 -1.7728  0.7201  1.9066
  726MOL0     H95794  -0.715   5.701   9.779  0.7030 -0.3096 -0.8908
  726MOL0     H95795  -0.929   5.678   9.792  1.6723 -2.4757 -2.3642
  726MOL0     H95796  -1.316   5.271  10.157  0.1876  1.9443  1.8204
  726MOL0     H95797  -1.575   5.299  10.210 -1.3079  0.8185  0.8285
  726MOL0     H95798  -1.779   5.636  10.051  2.3860  0.9398  0.0644
  726MOL0     H95799  -1.728   5.704  10.205 -1.0060 -0.9900  3.7581
  726MOL0     H95800  -1.960   5.697  10.235 -0.4733  0.0577 -0.0692
  726MOL0     H95801  -1.887   5.585  10.331  0.3556 -0.2281 -0.8822
  726MOL0     H95802  -1.967   5.406  10.161 -2.0243 -1.2520 -0.8392
  726MOL0     H95803  -2.009   5.535  10.039 -0.3014 -1.3853  0.1985
  726MOL0     H95804  -2.145   5.453  10.299 -1.8670 -2.1519 -1.3782
  726MOL0     H95805  -2.169   5.614  10.235  0.4994  0.5747 -2.6962
  726MOL0     H95806  -2.212   5.392  10.045 -1.1263 -1.0256  0.2101
  726MOL0     H95807  -2.305   5.537  10.053  1.9481  1.0605 -0.2900
  726MOL0     H95808  -2.399   5.455  10.283  0.4073  0.7193 -0.2743
  726MOL0     H95809  -2.332   5.297  10.254 -1.4954  0.3715  3.2227
  726MOL0     H95810  -2.503   5.430  10.037  3.3097 -0.4079 -1.9670
  726MOL0     H95811  -2.448   5.258  10.058 -0.3167  0.9708 -1.8776
  726MOL0     H95812  -2.588   5.254  10.264  0.1585 -1.2677 -0.5630
  726MOL0     H95813  -2.697   5.296  10.127 -0.9080  1.6693 -0.5188
  726MOL0     H95814  -1.531   5.696  10.060  2.6972  0.9621 -1.2955
  726MOL0     H95815  -1.313   5.671  10.019  2.4190 -1.2638 -1.8931
  726MOL0     H95816  -0.908   5.348  10.054 -1.2022  0.1049 -1.4973
  726MOL0     H95817  -0.652   5.370  10.052 -1.4475  1.7797  3.7329
  726MOL0     H95818   0.868   4.882   8.936  0.8336  1.3028 -0.9918
  726MOL0     H95819   1.112   4.884   8.949 -1.3245 -1.0448 -0.6378
  726MOL0     H95820   1.591   4.884   8.938  1.0019  0.4332  0.6655
  726MOL0     H95821   1.834   4.851   9.013  0.3015 -2.7532 -0.9974
  726MOL0     H95822   2.022   4.885   9.137 -2.3040  0.3046  1.8695
  726MOL0     H95823   2.021   4.727   9.051  1.4187  3.0920 -2.4406
  726MOL0     H95824   2.129   4.651   9.294  1.2593 -0.6893  0.0727
  726MOL0     H95825   2.230   4.708   9.173  0.8753  1.2248  0.8318
  726MOL0     H95826   2.131   4.880   9.409 -0.8619  2.2029 -1.6774
  726MOL0     H95827   2.211   4.947   9.273  0.0536 -1.7987 -2.7833
  726MOL0     H95828   2.356   4.723   9.438  0.8371 -1.3688 -2.0297
  726MOL0     H95829   2.419   4.798   9.302  0.3551 -2.0816  1.7748
  726MOL0     H95830   2.497   5.091   9.593 -0.6606  0.6308 -0.4505
  726MOL0     H95831   1.679   4.668   9.361 -2.5770 -0.6779  0.0303
  726MOL0     H95832   1.472   4.663   9.281 -0.0698 -1.1624 -0.5144
  727MOL0     O95833   7.383   2.198  11.171  0.5308 -0.2204 -0.3772
  727MOL0     C95834   7.469   2.267  11.223  0.3699  0.1261 -0.1933
  727MOL0     O95835   7.468   2.408  11.241  0.3362  0.1309  0.5406
  727MOL0     C95836   7.357   2.477  11.202 -1.2043 -1.0880  0.1807
  727MOL0     C95837   7.298   2.465  11.072  0.6297  0.2318  0.0113
  727MOL0     C95838   7.197   2.561  11.037 -0.2252 -0.0033 -0.7006
  727MOL0     C95839   7.155   2.653  11.135  0.5008  0.3373  0.6178
  727MOL0     O95840   7.050   2.732  11.086 -0.4330 -0.3415  0.2192
  727MOL0     C95841   7.003   2.846  11.156 -0.3014 -0.0588  0.4743
  727MOL0     C95842   6.884   2.900  11.074 -0.3237 -0.2373  0.6332
  727MOL0     C95843   6.752   2.821  11.073  0.6310 -0.8082  0.5416
  727MOL0     C95844   6.633   2.888  11.007 -0.0223 -0.3594  0.5692
  727MOL0     C95845   6.506   2.793  11.000 -0.5406 -0.2232  0.1166
  727MOL0     C95846   6.391   2.874  10.952 -0.3431 -1.4055  0.6569
  727MOL0     C95847   6.262   2.804  10.979  0.8206  0.3366  0.1836
  727MOL0     C95848   6.144   2.887  10.921  0.6026 -0.0130  0.0309
  727MOL0     N95849   6.014   2.859  10.979 -1.1611  0.5710  0.1825
  727MOL0     C95850   5.904   2.931  10.968  0.7046 -0.2112 -0.1300
  727MOL0     C95851   5.804   2.857  11.029  0.0157 -0.7773 -0.4816
  727MOL0     C95852   5.664   2.891  11.052 -0.1024 -0.7959 -0.3201
  727MOL0     C95853   5.592   2.833  10.930 -0.0173  0.0255  0.1664
  727MOL0     C95854   5.445   2.871  10.932  0.2629 -0.1740  0.1744
  727MOL0     C95855   5.367   2.843  11.059 -0.1773 -0.3019  0.0157
  727MOL0     O95856   5.230   2.840  11.014  0.0844 -0.0802 -0.4222
  727MOL0     C95857   5.129   2.821  11.102 -0.2073  0.1631  0.6117
  727MOL0     C95858   5.140   2.823  11.241 -0.8388 -0.4584  0.0630
  727MOL0     C95859   5.025   2.807  11.311  0.3793 -0.5845 -0.5339
  727MOL0     C95860   4.896   2.801  11.263  1.2546 -0.7406 -0.3917
  727MOL0     C95861   4.778   2.803  11.344  0.2339 -0.9147  0.7377
  727MOL0     O95862   4.664   2.824  11.276  0.4203 -0.8613  0.0770
  727MOL0     C95863   4.560   2.899  11.324 -0.4232  0.2434 -0.4470
  727MOL0     C95864   4.448   2.906  11.241 -0.7190 -0.3384 -0.7755
  727MOL0     C95865   4.332   2.971  11.287  0.6365 -0.2954 -0.3423
  727MOL0     C95866   4.329   3.050  11.402 -0.0169  0.6711 -0.1651
  727MOL0     O95867   4.212   3.105  11.439  0.0596  0.0512  0.0099
  727MOL0     C95868   4.212   3.249  11.420  0.1097 -0.2355  0.3020
  727MOL0     C95869   4.142   3.314  11.538  0.4839  0.4541  0.0283
  727MOL0     C95870   4.133   3.466  11.541 -0.0946 -0.8880  0.0127
  727MOL0     C95871   4.061   3.515  11.415 -0.8734 -0.6696  0.1143
  727MOL0     C95872   4.028   3.662  11.432 -0.1643  0.0338  0.4554
  727MOL0     C95873   3.936   3.699  11.316 -0.7852 -0.2554 -0.2654
  727MOL0     C95874   3.942   3.843  11.308 -0.3855  0.3857  0.5857
  727MOL0     C95875   3.844   3.902  11.221  0.3733  1.0064  0.2946
  727MOL0    Cl95876   3.837   4.081  11.236  0.2439 -0.3048  0.0880
  727MOL0     C95877   4.445   3.062  11.479  0.6058 -0.0418 -0.7938
  727MOL0     C95878   4.553   2.974  11.447  0.2297 -0.5948 -0.3557
  727MOL0     O95879   4.789   2.781  11.465 -0.0574  0.3085 -0.4883
  727MOL0     C95880   4.889   2.817  11.124  0.8489 -0.6670 -0.6117
  727MOL0     C95881   5.008   2.812  11.042  0.0245 -0.5534 -0.3643
  727MOL0     N95882   5.859   2.740  11.080 -0.0515 -0.0567  0.1833
  727MOL0     N95883   5.986   2.740  11.046  0.5467 -0.6107 -0.2059
  727MOL0     C95884   7.195   2.651  11.264 -0.2859  0.7471  0.6630
  727MOL0     C95885   7.302   2.568  11.301  0.0893  1.1171  1.3267
  727MOL0     C95886   7.599   2.202  11.243 -0.6163  0.5188 -0.1360
  727MOL0     C95887   7.631   2.082  11.182 -0.2876 -0.3250 -0.2580
  727MOL0     C95888   7.768   2.035  11.189  0.8153 -0.2697 -0.1276
  727MOL0     C95889   7.863   2.104  11.260  0.0323  0.0169  0.7909
  727MOL0     O95890   7.990   2.064  11.250  0.4248 -0.2335 -0.4253
  727MOL0     C95891   8.068   2.153  11.163 -0.0862  0.0449  0.1645
  727MOL0     C95892   8.157   2.238  11.255  0.1065 -0.7080  0.0349
  727MOL0     C95893   8.235   2.146  11.352  0.2507  0.3129 -0.0874
  727MOL0     C95894   8.374   2.194  11.385 -0.4929 -0.2432  1.4440
  727MOL0     C95895   8.459   2.222  11.269  0.1200  1.0910 -0.2171
  727MOL0     C95896   8.522   2.235  11.167 -0.1078  0.5025 -0.4896
  727MOL0     C95897   7.829   2.225  11.322 -0.8733 -0.0266  1.2483
  727MOL0     C95898   7.698   2.266  11.315 -0.5911 -1.4388 -0.2490
  727MOL0     H95899   7.325   2.393  10.996  0.3705 -0.6321  0.7270
  727MOL0     H95900   7.146   2.556  10.941  0.2306 -0.9819 -0.9154
  727MOL0     H95901   7.078   2.925  11.166  2.0664 -2.2159  0.8184
  727MOL0     H95902   6.979   2.801  11.253 -0.8985  0.0867  0.3961
  727MOL0     H95903   6.918   2.915  10.971 -0.7699 -0.5794  0.4351
  727MOL0     H95904   6.851   2.999  11.107 -0.4101 -0.1460  0.2814
  727MOL0     H95905   6.724   2.812  11.178  1.2755  1.1197  0.9134
  727MOL0     H95906   6.768   2.721  11.031 -2.2511 -1.8094  1.5783
  727MOL0     H95907   6.609   2.977  11.065  2.9766 -0.8407  2.7745
  727MOL0     H95908   6.667   2.931  10.912 -0.7622 -0.1867  0.3781
  727MOL0     H95909   6.487   2.745  11.096 -0.0494  0.8973  0.7946
  727MOL0     H95910   6.524   2.713  10.928 -0.8949 -1.5933  1.4993
  727MOL0     H95911   6.403   2.892  10.844  0.8792 -1.1517  0.8195
  727MOL0     H95912   6.386   2.977  10.988 -0.8009 -0.4052 -2.0269
  727MOL0     H95913   6.268   2.701  10.944 -1.7135 -0.0398  0.6825
  727MOL0     H95914   6.255   2.807  11.088  1.3442  1.5033  0.1992
  727MOL0     H95915   6.147   2.874  10.813  0.6333 -0.0857  0.0398
  727MOL0     H95916   6.169   2.992  10.939 -1.7552  0.4782  0.6967
  727MOL0     H95917   5.895   3.030  10.925  2.2822 -0.2627 -0.6681
  727MOL0     H95918   5.655   2.999  11.057  2.1682 -0.4551 -1.8626
  727MOL0     H95919   5.635   2.837  11.143 -2.8693  1.3817  0.1962
  727MOL0     H95920   5.605   2.725  10.923  1.0866  0.2282 -1.8362
  727MOL0     H95921   5.645   2.877  10.844  2.7711 -0.2532  1.6123
  727MOL0     H95922   5.438   2.974  10.896 -3.1865  0.7223  2.9358
  727MOL0     H95923   5.400   2.809  10.853 -2.1433 -0.3793  1.6037
  727MOL0     H95924   5.399   2.923  11.126  0.8477 -0.9910  0.3776
  727MOL0     H95925   5.405   2.744  11.088 -1.6225 -1.5211 -2.0024
  727MOL0     H95926   5.237   2.823  11.289 -0.2964 -1.4036 -0.9733
  727MOL0     H95927   5.037   2.796  11.418  3.1437 -0.5598 -0.7496
  727MOL0     H95928   4.438   2.865  11.141  0.1953  1.5431 -1.6901
  727MOL0     H95929   4.248   2.965  11.219  0.2092 -2.5300  0.2953
  727MOL0     H95930   4.168   3.265  11.321  0.4733 -2.1817 -0.2142
  727MOL0     H95931   4.313   3.290  11.413 -1.3246  3.3469 -2.2479
  727MOL0     H95932   4.190   3.283  11.631 -0.6814 -2.2381 -0.1795
  727MOL0     H95933   4.043   3.269  11.547  0.7437 -1.1320 -3.5305
  727MOL0     H95934   4.238   3.497  11.551 -0.8405  1.5456  1.0194
  727MOL0     H95935   4.071   3.501  11.624  0.8178  2.1746 -0.4872
  727MOL0     H95936   4.121   3.505  11.324  0.2013  2.8510  0.2746
  727MOL0     H95937   3.975   3.448  11.408 -1.0310 -0.4815  0.2292
  727MOL0     H95938   4.124   3.714  11.426  0.0209 -0.2759  0.7082
  727MOL0     H95939   3.972   3.694  11.521 -0.1678  1.3545 -0.0007
  727MOL0     H95940   3.837   3.656  11.338 -1.6079  2.1515  1.0849
  727MOL0     H95941   3.966   3.645  11.225  1.5011  1.0468 -0.3371
  727MOL0     H95942   3.923   3.877  11.411  0.5436  0.8393  0.6178
  727MOL0     H95943   4.038   3.876  11.268  0.2747 -2.5237 -0.5139
  727MOL0     H95944   3.745   3.862  11.246 -0.4643  3.3251  1.0283
  727MOL0     H95945   3.877   3.875  11.120  3.4935  1.9019  0.9638
  727MOL0     H95946   4.436   3.115  11.574  2.2596 -1.0696 -0.0326
  727MOL0     H95947   4.636   2.969  11.516  1.2738 -0.1839 -1.5596
  727MOL0     H95948   4.791   2.835  11.081 -0.0143 -0.7812  1.2054
  727MOL0     H95949   4.995   2.823  10.934 -1.4115  1.7394 -0.0370
  727MOL0     H95950   7.171   2.724  11.340 -0.3452  0.6948  0.6941
  727MOL0     H95951   7.338   2.565  11.403  2.2762 -1.5745  0.5908
  727MOL0     H95952   7.564   2.026  11.118  2.3018  0.5354 -4.1017
  727MOL0     H95953   7.805   1.955  11.126 -0.1076 -0.4502 -0.4520
  727MOL0     H95954   7.996   2.208  11.102 -1.8182 -3.3592 -1.1425
  727MOL0     H95955   8.127   2.088  11.097 -0.8761 -2.2469  1.5751
  727MOL0     H95956   8.226   2.293  11.190 -0.0454 -0.7409 -0.1564
  727MOL0     H95957   8.102   2.316  11.308  1.2991  0.1525  0.0379
  727MOL0     H95958   8.239   2.042  11.316  0.3485  0.3063 -0.0569
  727MOL0     H95959   8.163   2.144  11.435  0.1583 -1.8650 -0.1395
  727MOL0     H95960   8.364   2.293  11.432 -1.2708  1.3244 -1.7427
  727MOL0     H95961   8.422   2.119  11.450  5.5382 -1.0746 -3.0950
  727MOL0     H95962   8.580   2.245  11.077  1.0607 -1.5578 -0.0064
  727MOL0     H95963   7.902   2.292  11.366 -0.0291  0.0074 -0.1292
  727MOL0     H95964   7.676   2.349  11.382 -0.2329 -0.9421 -0.7375
  728MOL0     O95965   8.805   7.876   9.405 -0.7430 -0.0415 -0.1916
  728MOL0     C95966   8.848   7.865   9.291 -0.3423  0.4137 -0.6036
  728MOL0     O95967   8.770   7.857   9.177  0.5635 -0.0031 -0.6599
  728MOL0     C95968   8.633   7.874   9.173  0.2880 -0.2877  0.2703
  728MOL0     C95969   8.571   7.904   9.049  0.1537  0.2074  0.2585
  728MOL0     C95970   8.430   7.925   9.041 -0.0783  1.0509  0.5237
  728MOL0     C95971   8.347   7.907   9.153 -0.0376  0.1252 -0.0341
  728MOL0     O95972   8.213   7.925   9.142 -0.8378  0.6519  0.5686
  728MOL0     C95973   8.130   7.891   9.250  0.2066  0.8854  0.5146
  728MOL0     C95974   7.984   7.915   9.209  0.2791  0.3209  0.8490
  728MOL0     C95975   7.973   8.065   9.206 -0.0223  0.4034 -0.1194
  728MOL0     C95976   7.824   8.092   9.183 -0.7308  0.0418  0.1475
  728MOL0     C95977   7.821   8.250   9.205  0.4517 -0.4763  0.6110
  728MOL0     C95978   7.699   8.310   9.159  0.7671  0.0460  0.4326
  728MOL0     C95979   7.680   8.462   9.193  0.0502 -0.0207 -0.4141
  728MOL0     C95980   7.567   8.510   9.102  1.1304  0.2409 -0.9049
  728MOL0     N95981   7.491   8.605   9.186  1.0250  0.0329  0.0022
  728MOL0     C95982   7.506   8.741   9.206  0.4105 -0.8839  0.3610
  728MOL0     C95983   7.404   8.784   9.289  0.0102 -0.1902  0.8619
  728MOL0     C95984   7.384   8.928   9.329  0.3910 -0.5792 -0.5394
  728MOL0     C95985   7.343   9.016   9.218 -0.6719 -0.3436  0.0408
  728MOL0     C95986   7.228   8.974   9.133 -0.5228 -0.1139  0.1755
  728MOL0     C95987   7.090   8.978   9.199 -0.6990 -0.4837 -0.0327
  728MOL0     O95988   6.992   8.966   9.100 -0.3633  0.4164  0.2272
  728MOL0     C95989   6.863   8.929   9.139 -0.1651  0.5255  0.2621
  728MOL0     C95990   6.816   8.890   9.264 -0.4202  0.1707  0.7167
  728MOL0     C95991   6.680   8.869   9.284 -0.2079  0.0412  0.5374
  728MOL0     C95992   6.578   8.895   9.186 -1.1531  0.4317 -0.1965
  728MOL0     C95993   6.439   8.890   9.220 -0.7870  0.9172  0.4515
  728MOL0     O95994   6.413   8.888   9.348  0.2757 -0.4154  0.7696
  728MOL0     C95995   6.284   8.851   9.394 -0.4378  0.6578  0.0017
  728MOL0     C95996   6.203   8.742   9.341  0.5646 -0.5993 -0.0992
  728MOL0     C95997   6.079   8.721   9.398  1.0286  0.0543  0.3164
  728MOL0     C95998   6.023   8.804   9.501 -1.2981 -0.5471 -0.7343
  728MOL0     O95999   5.895   8.773   9.538 -0.1803  0.1706  0.4215
  728MOL0     C96000   5.836   8.842   9.645  0.6856 -0.3169  0.6650
  728MOL0     C96001   5.801   8.984   9.611  0.8090 -0.6569  0.0836
  728MOL0     C96002   5.788   9.067   9.736 -0.3092 -0.4100 -0.0012
  728MOL0     C96003   5.791   9.218   9.707  0.6066 -0.0279  0.4833
  728MOL0     C96004   5.780   9.293   9.843 -0.1202 -0.1763 -0.0730
  728MOL0     C96005   5.641   9.283   9.896  0.5995  0.6065  0.1268
  728MOL0     C96006   5.623   9.365  10.014  0.0291 -0.1599 -0.0074
  728MOL0     C96007   5.475   9.331  10.080 -0.2973 -0.2385  0.3146
  728MOL0    Cl96008   5.406   9.489  10.132  0.2684 -0.0599  0.1726
  728MOL0     C96009   6.113   8.904   9.556  0.6387 -0.0621  0.3415
  728MOL0     C96010   6.237   8.916   9.503  0.3840 -0.0720 -0.1074
  728MOL0     O96011   6.362   8.875   9.128  0.1603 -0.0878 -0.5707
  728MOL0     C96012   6.633   8.937   9.060  0.3355 -0.5919 -0.2836
  728MOL0     C96013   6.767   8.943   9.036 -0.3442 -0.5069  0.0588
  728MOL0     N96014   7.326   8.675   9.309 -0.0952 -0.3664 -0.8226
  728MOL0     N96015   7.377   8.567   9.254  0.0927 -0.6129  0.0398
  728MOL0     C96016   8.404   7.865   9.271 -0.2864  0.9507  0.9924
  728MOL0     C96017   8.546   7.852   9.285  0.3070 -1.1444 -0.8020
  728MOL0     C96018   8.993   7.853   9.274  0.6368  1.1823 -0.2020
  728MOL0     C96019   9.079   7.904   9.360  0.9288 -0.0355 -0.1663
  728MOL0     C96020   9.215   7.910   9.345 -0.5549  0.5456  0.3795
  728MOL0     C96021   9.270   7.842   9.239 -0.4750  0.0663  0.8170
  728MOL0     O96022   9.403   7.838   9.201 -0.3572 -0.6891 -0.4730
  728MOL0     C96023   9.503   7.812   9.294 -0.6736 -0.1217  0.2022
  728MOL0     C96024   9.550   7.661   9.292  0.4868  0.0648  0.0537
  728MOL0     C96025   9.664   7.634   9.190  0.2243 -0.1567  0.9780
  728MOL0     C96026   9.747   7.506   9.206 -0.3884  0.0949 -0.5749
  728MOL0     C96027   9.841   7.517   9.314 -0.0294  1.3906 -0.2034
  728MOL0     C96028   9.911   7.509   9.417 -0.1592  0.3929 -0.3337
  728MOL0     C96029   9.180   7.783   9.146  0.2880 -0.0712 -0.2579
  728MOL0     C96030   9.040   7.784   9.161 -0.6328  0.6053 -0.5919
  728MOL0     H96031   8.627   7.888   8.958 -0.3762 -1.5280  0.1950
  728MOL0     H96032   8.378   7.938   8.947 -3.6987  1.9824  2.4683
  728MOL0     H96033   8.149   7.934   9.349  1.3213  0.8189  0.3438
  728MOL0     H96034   8.149   7.787   9.276  2.1632  0.9797 -0.3478
  728MOL0     H96035   7.916   7.887   9.290  0.4452  0.8349  1.1706
  728MOL0     H96036   7.951   7.870   9.115 -1.8641  1.1010  1.1695
  728MOL0     H96037   8.031   8.100   9.120 -0.5561 -0.0349 -0.6692
  728MOL0     H96038   8.013   8.111   9.296  1.6183 -1.3353  0.1030
  728MOL0     H96039   7.804   8.066   9.078  1.8745 -0.3178 -0.3450
  728MOL0     H96040   7.761   8.039   9.255 -1.6558 -0.0327 -0.6907
  728MOL0     H96041   7.903   8.301   9.153  0.7599 -0.9167  0.6551
  728MOL0     H96042   7.829   8.263   9.313 -0.3011  0.5050  0.5645
  728MOL0     H96043   7.612   8.262   9.205 -1.7689  2.7695 -1.1263
  728MOL0     H96044   7.698   8.286   9.052  0.1517 -0.6811  0.5936
  728MOL0     H96045   7.654   8.471   9.299 -0.7822 -1.2065 -0.5011
  728MOL0     H96046   7.770   8.518   9.167  0.8504 -1.5017 -0.9957
  728MOL0     H96047   7.514   8.419   9.073  0.7915 -0.2355  1.0182
  728MOL0     H96048   7.614   8.564   9.020  4.0872 -0.2988  0.3051
  728MOL0     H96049   7.580   8.810   9.167 -1.2797  0.2639 -0.9780
  728MOL0     H96050   7.473   8.971   9.375  0.0920 -0.3832 -0.1388
  728MOL0     H96051   7.309   8.926   9.409 -2.2119 -0.7987 -2.8521
  728MOL0     H96052   7.430   9.031   9.154  0.4680 -1.0272  1.3812
  728MOL0     H96053   7.310   9.107   9.269 -1.4190 -0.2004 -0.6843
  728MOL0     H96054   7.229   9.036   9.043  1.1045  0.2653  0.4201
  728MOL0     H96055   7.239   8.870   9.099  0.9992 -0.6292  2.0587
  728MOL0     H96056   7.073   9.074   9.250  2.2923  0.4290 -0.5651
  728MOL0     H96057   7.067   8.900   9.272 -1.1533 -0.3429 -0.0207
  728MOL0     H96058   6.885   8.895   9.348  0.8301  1.0912 -0.3159
  728MOL0     H96059   6.668   8.834   9.386 -1.6789  2.3528  1.2328
  728MOL0     H96060   6.255   8.681   9.268  2.1162 -0.1748  0.6148
  728MOL0     H96061   6.029   8.631   9.364  1.6820  0.0212 -0.5915
  728MOL0     H96062   5.900   8.833   9.733  3.1008  0.1320 -0.9680
  728MOL0     H96063   5.741   8.792   9.669 -0.0605  0.9183  0.3681
  728MOL0     H96064   5.710   8.987   9.552  0.9832  1.4315 -0.1709
  728MOL0     H96065   5.882   9.031   9.553 -0.0492 -0.2075 -0.7680
  728MOL0     H96066   5.879   9.051   9.795 -0.7736  0.7588  1.0909
  728MOL0     H96067   5.697   9.043   9.791 -2.0861  0.3924 -2.3907
  728MOL0     H96068   5.884   9.225   9.651 -0.4472  0.6017 -1.2951
  728MOL0     H96069   5.708   9.249   9.643  1.0340  2.0244  0.8529
  728MOL0     H96070   5.816   9.396   9.831  2.0034 -0.2801  3.7391
  728MOL0     H96071   5.847   9.250   9.917 -0.7042 -1.5891 -0.3415
  728MOL0     H96072   5.621   9.179   9.923 -0.7381  0.5775 -0.8524
  728MOL0     H96073   5.573   9.306   9.814  1.9406 -1.3821 -1.6736
  728MOL0     H96074   5.702   9.341  10.086  0.0634 -2.2980 -0.6816
  728MOL0     H96075   5.631   9.473   9.995  1.3668 -0.6655 -2.8525
  728MOL0     H96076   5.483   9.255  10.158 -1.3208 -0.2798  0.3942
  728MOL0     H96077   5.412   9.289  10.001  0.8711 -0.2896 -0.6308
  728MOL0     H96078   6.076   8.959   9.642  1.4157 -0.1108  0.7161
  728MOL0     H96079   6.299   8.994   9.545  0.4261 -0.5767  0.7908
  728MOL0     H96080   6.562   8.964   8.983 -0.9710  0.8229  1.3166
  728MOL0     H96081   6.801   8.990   8.944 -1.8013  0.7478  0.1262
  728MOL0     H96082   8.345   7.841   9.358 -0.1789 -0.8787  0.6099
  728MOL0     H96083   8.587   7.836   9.384 -3.7037  1.4794  1.5702
  728MOL0     H96084   9.053   7.957   9.452  0.2766 -2.2411  0.9924
  728MOL0     H96085   9.281   7.955   9.419 -1.0542  1.9990 -0.0189
  728MOL0     H96086   9.474   7.834   9.397 -1.7987 -4.0781  0.9073
  728MOL0     H96087   9.585   7.877   9.263  0.1211  0.1677  2.7242
  728MOL0     H96088   9.596   7.638   9.389 -1.4826 -0.1663  0.9882
  728MOL0     H96089   9.458   7.603   9.283  0.4603  0.1474 -0.1884
  728MOL0     H96090   9.741   7.711   9.198  1.6193 -1.6009  2.0664
  728MOL0     H96091   9.610   7.639   9.095 -0.1097  1.1134  1.2128
  728MOL0     H96092   9.675   7.426   9.225 -0.9842  0.8096  0.2105
  728MOL0     H96093   9.798   7.485   9.112  3.0856 -2.6470  1.6830
  728MOL0     H96094   9.968   7.483   9.504 -0.9096  0.7663  0.2886
  728MOL0     H96095   9.222   7.710   9.077 -1.9957 -1.9430  0.1989
  728MOL0     H96096   8.971   7.745   9.088  0.9380 -1.7804 -0.9125
  729MOL0     O96097   7.091   4.682   6.157  0.0278  0.3084  0.1171
  729MOL0     C96098   7.159   4.596   6.213 -0.6478  0.5817 -0.6555
  729MOL0     O96099   7.134   4.460   6.235  0.8212 -0.3783  0.3292
  729MOL0     C96100   6.997   4.429   6.217  0.7395  0.0933  0.3982
  729MOL0     C96101   6.887   4.483   6.288 -0.7607  0.2554  0.7979
  729MOL0     C96102   6.758   4.466   6.251  0.4573  0.0869  0.4828
  729MOL0     C96103   6.725   4.386   6.141  0.3007  0.6793  0.6807
  729MOL0     O96104   6.599   4.340   6.121  0.0768  0.1039 -0.5683
  729MOL0     C96105   6.514   4.439   6.057 -0.5915 -0.1810  1.1470
  729MOL0     C96106   6.384   4.367   6.024  0.3099 -0.1081  0.7992
  729MOL0     C96107   6.317   4.336   6.158 -1.1888 -0.2393  0.5285
  729MOL0     C96108   6.181   4.271   6.136 -0.1574  0.1473  0.5967
  729MOL0     C96109   6.060   4.366   6.154 -0.1842 -0.2565 -0.2811
  729MOL0     C96110   6.043   4.435   6.292  0.5369 -0.1901 -0.2283
  729MOL0     C96111   5.904   4.488   6.319  0.0838  0.3424 -0.5266
  729MOL0     C96112   5.899   4.590   6.440  0.4694  0.6605  0.6697
  729MOL0     N96113   5.943   4.538   6.569  0.1610  0.4532 -0.5353
  729MOL0     C96114   6.076   4.521   6.601  0.2221  0.5015  0.2563
  729MOL0     C96115   6.074   4.506   6.736 -0.8077 -0.6259 -0.6445
  729MOL0     C96116   6.208   4.504   6.814  0.4915 -0.4950  0.2112
  729MOL0     C96117   6.213   4.610   6.923 -0.0250  0.1782 -0.1083
  729MOL0     C96118   6.354   4.594   6.987 -0.1055  0.4232 -0.2042
  729MOL0     C96119   6.383   4.683   7.110 -0.2443  0.2967 -0.1377
  729MOL0     O96120   6.433   4.821   7.079  0.2121  0.0171 -0.8223
  729MOL0     C96121   6.327   4.905   7.045  0.6179 -0.2737 -0.3861
  729MOL0     C96122   6.196   4.896   7.096  0.2065  0.3521 -0.6320
  729MOL0     C96123   6.092   4.971   7.049 -0.5808  0.0437  0.2933
  729MOL0     C96124   6.119   5.073   6.950  0.3782 -0.4471  0.3278
  729MOL0     C96125   6.016   5.184   6.914  0.0945 -0.0496  0.5074
  729MOL0     O96126   6.060   5.288   6.837  0.2237  0.0161 -0.6016
  729MOL0     C96127   6.003   5.414   6.868  0.0270 -0.2708  0.4660
  729MOL0     C96128   5.951   5.503   6.766  0.2095  0.4425 -0.0622
  729MOL0     C96129   5.914   5.633   6.808 -0.0485  0.2000 -0.2070
  729MOL0     C96130   5.926   5.680   6.938  0.8106 -0.8511  0.1394
  729MOL0     O96131   5.900   5.809   6.981  0.7945  0.1867  0.7893
  729MOL0     C96132   5.933   5.916   6.884 -0.0558  0.6595  0.0985
  729MOL0     C96133   5.883   6.046   6.947 -0.0501  0.0056 -0.0305
  729MOL0     C96134   5.992   6.118   7.043  0.1030  0.1055 -0.3600
  729MOL0     C96135   6.126   6.168   6.979 -0.6723  1.0679 -0.6361
  729MOL0     C96136   6.186   6.286   7.057  0.0367  0.1273  0.0701
  729MOL0     C96137   6.328   6.318   6.998  0.6064  0.4991 -0.0089
  729MOL0     C96138   6.404   6.410   7.105  0.0351  0.7072  0.0115
  729MOL0     C96139   6.430   6.550   7.034  0.1033  0.1089 -0.3517
  729MOL0    Cl96140   6.504   6.661   7.156  0.1260  0.4108  0.0421
  729MOL0     C96141   5.963   5.592   7.040  0.2447 -0.1950 -0.3393
  729MOL0     C96142   6.003   5.462   6.995 -0.7218  0.1951  0.5897
  729MOL0     O96143   5.903   5.176   6.967 -0.6962 -0.7516 -0.6753
  729MOL0     C96144   6.250   5.085   6.898  0.5190 -0.3494  0.2794
  729MOL0     C96145   6.352   5.000   6.950  0.8886 -0.3818  0.0846
  729MOL0     N96146   5.947   4.512   6.783 -0.4249 -0.2090 -0.1365
  729MOL0     N96147   5.867   4.528   6.683 -0.2907 -0.1105 -0.0884
  729MOL0     C96148   6.827   4.329   6.065 -0.3607  0.7426 -0.9325
  729MOL0     C96149   6.960   4.349   6.107 -0.8810  0.2061  0.1095
  729MOL0     C96150   7.297   4.628   6.259 -0.1707  0.0274  0.0620
  729MOL0     C96151   7.367   4.745   6.206  0.0895 -0.1087 -0.0314
  729MOL0     C96152   7.495   4.785   6.249 -0.3877  0.0083 -0.4252
  729MOL0     C96153   7.564   4.705   6.340  0.7736  0.4835  0.5277
  729MOL0     O96154   7.692   4.740   6.382  0.6597 -0.3056  0.1005
  729MOL0     C96155   7.749   4.871   6.359 -0.1834 -0.0034  0.0414
  729MOL0     C96156   7.844   4.911   6.466  0.6749 -0.2740  0.0643
  729MOL0     C96157   7.948   4.807   6.493 -0.8259 -0.0407  0.6804
  729MOL0     C96158   8.065   4.853   6.591  0.2157  0.2780 -0.9904
  729MOL0     C96159   8.154   4.959   6.548 -0.0909 -0.0444  0.7293
  729MOL0     C96160   8.243   5.031   6.498  0.2839  0.6569  0.0591
  729MOL0     C96161   7.501   4.594   6.400  0.3024  0.5767  0.4226
  729MOL0     C96162   7.374   4.554   6.358  0.3320  0.3352  0.4011
  729MOL0     H96163   6.922   4.540   6.374  3.5347 -1.5646  0.5597
  729MOL0     H96164   6.693   4.530   6.310  0.4169 -0.1266  0.6740
  729MOL0     H96165   6.558   4.472   5.962 -1.8562  1.8196  1.2110
  729MOL0     H96166   6.501   4.523   6.125  0.6442  0.2999  0.8202
  729MOL0     H96167   6.419   4.284   5.962 -0.8885  0.0288 -0.1044
  729MOL0     H96168   6.325   4.430   5.956 -1.6074 -1.1876  1.3735
  729MOL0     H96169   6.295   4.421   6.223  0.3710  0.0975  0.6413
  729MOL0     H96170   6.379   4.264   6.212  0.1862  0.3921 -0.1518
  729MOL0     H96171   6.173   4.240   6.031 -0.9742 -2.1280  1.2745
  729MOL0     H96172   6.171   4.194   6.213  2.9786  1.6107  2.6603
  729MOL0     H96173   5.969   4.309   6.133 -1.5494  1.6120  0.3138
  729MOL0     H96174   6.068   4.442   6.076  0.5131 -2.6606 -2.7193
  729MOL0     H96175   6.116   4.517   6.292 -0.9806  1.2961 -2.9810
  729MOL0     H96176   6.058   4.361   6.371 -1.9782  0.2772  0.7818
  729MOL0     H96177   5.861   4.542   6.235 -2.3930 -0.0215  0.4186
  729MOL0     H96178   5.844   4.400   6.343  1.6677 -1.0093 -1.2820
  729MOL0     H96179   5.800   4.634   6.450 -0.0246  0.5376 -2.4839
  729MOL0     H96180   5.972   4.663   6.403  1.4629 -0.8317 -0.4791
  729MOL0     H96181   6.158   4.536   6.532  0.8041  1.2246  1.0858
  729MOL0     H96182   6.289   4.520   6.742 -1.0820  1.0217 -1.3061
  729MOL0     H96183   6.211   4.405   6.861 -2.0407 -0.3683  0.7920
  729MOL0     H96184   6.140   4.606   7.004 -1.0936  3.1805 -0.7857
  729MOL0     H96185   6.198   4.706   6.872 -1.7633  0.9419  1.7056
  729MOL0     H96186   6.354   4.492   7.026 -1.3179  0.7140  0.6312
  729MOL0     H96187   6.423   4.613   6.905 -3.5768  2.4172 -2.9313
  729MOL0     H96188   6.468   4.649   7.170 -0.1612  1.0317  0.1699
  729MOL0     H96189   6.294   4.683   7.175  0.7330  2.7027  1.3270
  729MOL0     H96190   6.176   4.824   7.175  3.9396  0.1978  0.3587
  729MOL0     H96191   5.992   4.953   7.088 -0.1782 -2.6667  0.3160
  729MOL0     H96192   5.945   5.476   6.661 -0.4372 -0.6488  0.2382
  729MOL0     H96193   5.874   5.699   6.732  0.0673 -0.4413 -0.8381
  729MOL0     H96194   5.880   5.897   6.790  0.6644 -2.9148  0.2698
  729MOL0     H96195   6.041   5.923   6.870  0.1276 -1.6711 -0.0289
  729MOL0     H96196   5.797   6.017   7.008 -0.2639  0.5298 -0.0823
  729MOL0     H96197   5.844   6.113   6.870 -3.2174 -0.9890  0.5523
  729MOL0     H96198   6.012   6.047   7.124  0.1057  3.0379  2.4206
  729MOL0     H96199   5.945   6.204   7.091 -0.5058 -1.2348  1.5369
  729MOL0     H96200   6.199   6.086   6.985  0.7513  2.3822  0.9156
  729MOL0     H96201   6.105   6.184   6.873 -2.1005 -3.0603 -1.1600
  729MOL0     H96202   6.197   6.250   7.159 -0.7083  2.5695  1.0742
  729MOL0     H96203   6.129   6.379   7.051  1.8900  1.2859 -0.3453
  729MOL0     H96204   6.324   6.370   6.902 -2.0102 -1.7195 -1.2648
  729MOL0     H96205   6.376   6.220   6.992  0.9459  0.3901  2.9044
  729MOL0     H96206   6.343   6.428   7.194  3.1340  1.7585  2.0688
  729MOL0     H96207   6.493   6.364   7.150 -0.2557  0.7475  0.6337
  729MOL0     H96208   6.328   6.586   7.019 -0.6118  0.7460  4.5040
  729MOL0     H96209   6.482   6.548   6.938  1.0921 -1.1574  0.1738
  729MOL0     H96210   5.968   5.637   7.139 -1.3579 -2.3695  0.8322
  729MOL0     H96211   6.036   5.396   7.074  1.3524  1.5596  0.9459
  729MOL0     H96212   6.280   5.155   6.821 -0.9609 -1.5787 -1.5182
  729MOL0     H96213   6.449   4.997   6.903  1.0339 -1.9383  0.4446
  729MOL0     H96214   6.793   4.251   5.997  2.7113 -2.3018  0.7445
  729MOL0     H96215   7.046   4.299   6.062 -3.0496 -1.0375 -3.0247
  729MOL0     H96216   7.316   4.799   6.127  2.0903  0.5105 -0.9782
  729MOL0     H96217   7.542   4.872   6.203 -0.6175 -0.5293 -1.7463
  729MOL0     H96218   7.668   4.944   6.364 -0.3094 -0.2430  2.7174
  729MOL0     H96219   7.786   4.883   6.257 -2.3086 -0.9607 -0.8932
  729MOL0     H96220   7.882   5.010   6.439  0.5642 -0.2185  0.1117
  729MOL0     H96221   7.784   4.924   6.557  0.5117 -3.1752  0.4501
  729MOL0     H96222   8.003   4.770   6.406  3.0854  4.4143  0.8202
  729MOL0     H96223   7.895   4.723   6.539 -4.4021  0.7424 -1.5968
  729MOL0     H96224   8.020   4.887   6.684  0.3905 -0.9619 -0.4270
  729MOL0     H96225   8.130   4.766   6.610  0.5768  0.4095 -1.5749
  729MOL0     H96226   8.317   5.097   6.460  0.2548  0.6374 -0.0303
  729MOL0     H96227   7.559   4.536   6.472 -1.9725  0.9299  2.6694
  729MOL0     H96228   7.336   4.465   6.407  1.8351  0.1971  1.3681
  730MOL0     O96229   3.416   7.283   6.990  0.2807  0.1962 -0.0532
  730MOL0     C96230   3.491   7.380   6.978 -0.6812 -1.1706  0.4393
  730MOL0     O96231   3.455   7.513   6.959  0.1515 -0.5495  0.1997
  730MOL0     C96232   3.322   7.541   6.986  0.2265 -0.4197  1.5447
  730MOL0     C96233   3.279   7.559   7.118  0.0549  0.6741 -0.2914
  730MOL0     C96234   3.145   7.598   7.138 -0.4448  0.6397  1.0331
  730MOL0     C96235   3.058   7.633   7.034  0.0527  0.0613 -0.1966
  730MOL0     O96236   2.924   7.676   7.061 -0.2995  0.6794 -0.6721
  730MOL0     C96237   2.822   7.704   6.959  0.8622 -0.8922  0.1673
  730MOL0     C96238   2.672   7.697   7.001  0.2151 -1.1813  0.4338
  730MOL0     C96239   2.574   7.725   6.881  0.5371  1.1459 -0.4550
  730MOL0     C96240   2.433   7.675   6.936 -0.3942 -0.5374 -0.0699
  730MOL0     C96241   2.312   7.732   6.855  0.1694 -0.0665  0.4824
  730MOL0     C96242   2.180   7.692   6.914  0.4950  0.0304  0.0596
  730MOL0     C96243   2.055   7.754   6.852  0.0221  0.6122  0.3888
  730MOL0     C96244   1.938   7.669   6.886 -0.4924 -0.0656  0.3518
  730MOL0     N96245   1.813   7.723   6.828 -1.2418  0.4196  0.3703
  730MOL0     C96246   1.761   7.707   6.698  0.2058  0.7013 -0.0607
  730MOL0     C96247   1.635   7.756   6.701  0.1346  0.0522 -0.0899
  730MOL0     C96248   1.525   7.745   6.595 -0.8585 -0.7107  0.1094
  730MOL0     C96249   1.428   7.855   6.600  0.5734 -0.3595 -0.3088
  730MOL0     C96250   1.308   7.848   6.509  0.4284 -0.0753 -0.0636
  730MOL0     C96251   1.226   7.976   6.538  0.1506  0.2897 -0.3326
  730MOL0     O96252   1.102   7.985   6.471  0.1408  0.5472  0.7132
  730MOL0     C96253   1.001   8.045   6.545 -0.6455 -0.1198 -0.1559
  730MOL0     C96254   1.007   8.150   6.637 -0.1904 -0.7827 -0.0776
  730MOL0     C96255   0.891   8.196   6.711  0.2177  0.0551  0.7889
  730MOL0     C96256   0.769   8.136   6.687  0.3356  0.2936  0.1075
  730MOL0     C96257   0.647   8.164   6.765 -0.3759  0.6269  0.3274
  730MOL0     O96258   0.531   8.129   6.708 -0.3475  0.1378  0.7507
  730MOL0     C96259   0.413   8.151   6.765 -0.6928 -0.5192  0.5798
  730MOL0     C96260   0.310   8.058   6.745 -0.4615  0.8219 -0.1646
  730MOL0     C96261   0.183   8.073   6.798  0.1752 -0.0984  0.9703
  730MOL0     C96262   0.149   8.183   6.870 -0.3096 -1.1399 -0.7455
  730MOL0     O96263   0.023   8.193   6.924 -0.6709  0.3344 -0.7388
  730MOL0     C96264  -0.009   8.325   6.973 -0.6521 -0.8310  0.2922
  730MOL0     C96265  -0.155   8.329   7.009 -0.5179 -0.7552 -0.5337
  730MOL0     C96266  -0.260   8.328   6.892 -0.4343  0.7364 -0.7647
  730MOL0     C96267  -0.394   8.355   6.960  0.3966 -0.7238  0.1299
  730MOL0     C96268  -0.509   8.395   6.868  0.2629 -0.4328  0.4185
  730MOL0     C96269  -0.640   8.374   6.952 -0.7124  0.3946 -0.5258
  730MOL0     C96270  -0.759   8.443   6.881 -1.1593  0.3389 -0.9697
  730MOL0     C96271  -0.887   8.456   6.962  0.1885 -0.3802  0.4744
  730MOL0    Cl96272  -0.915   8.291   7.010 -0.6959 -0.0575 -0.0208
  730MOL0     C96273   0.246   8.284   6.880  0.3295 -0.1531 -0.3859
  730MOL0     C96274   0.376   8.269   6.826  0.1380  0.6459 -0.1749
  730MOL0     O96275   0.659   8.189   6.880  1.0175  0.3867  0.2681
  730MOL0     C96276   0.762   8.043   6.582 -0.2954  0.7165 -0.1894
  730MOL0     C96277   0.876   7.996   6.517  1.0364 -0.6332 -0.5450
  730MOL0     N96278   1.618   7.820   6.828 -0.0408 -0.6620 -0.4045
  730MOL0     N96279   1.720   7.802   6.899 -0.2492 -0.1928  0.8190
  730MOL0     C96280   3.106   7.624   6.899  0.2704  0.5150 -0.5341
  730MOL0     C96281   3.234   7.573   6.873  0.6931  0.2923 -0.9305
  730MOL0     C96282   3.642   7.358   6.966 -0.6232 -1.1533  0.0281
  730MOL0     C96283   3.705   7.233   6.969  0.5841  0.8711 -0.5009
  730MOL0     C96284   3.843   7.220   6.969 -0.3870 -0.8157 -0.4012
  730MOL0     C96285   3.923   7.332   6.968 -0.5311 -0.9126  1.2209
  730MOL0     O96286   4.060   7.337   6.963  0.2197  1.0632 -0.1272
  730MOL0     C96287   4.132   7.216   6.917  0.4050  0.1027  0.3167
  730MOL0     C96288   4.277   7.243   6.916  0.1515  0.8289  1.0176
  730MOL0     C96289   4.327   7.289   7.060 -0.0703  0.1535 -0.1544
  730MOL0     C96290   4.325   7.176   7.160  0.3918 -0.1356  0.0458
  730MOL0     C96291   4.423   7.069   7.136 -0.7457  0.3605 -0.7176
  730MOL0     C96292   4.510   6.990   7.120  0.2784 -0.2367 -0.0277
  730MOL0     C96293   3.860   7.458   6.966  0.4506  0.3082  0.1543
  730MOL0     C96294   3.727   7.472   6.970 -0.6723 -0.7137 -0.0910
  730MOL0     H96295   3.340   7.511   7.193  0.1459  0.2813 -0.6146
  730MOL0     H96296   3.113   7.603   7.242 -0.5704 -0.5508  1.0728
  730MOL0     H96297   2.826   7.632   6.876 -0.0417  0.1370 -0.8050
  730MOL0     H96298   2.837   7.808   6.930  0.3495 -1.0467 -0.7034
  730MOL0     H96299   2.646   7.771   7.078  0.2319 -1.9718  1.2214
  730MOL0     H96300   2.649   7.606   7.057  0.8651  0.0547  2.8761
  730MOL0     H96301   2.602   7.660   6.797 -2.7253 -1.2705  0.1039
  730MOL0     H96302   2.569   7.833   6.860  3.9511  1.4317 -0.3794
  730MOL0     H96303   2.432   7.568   6.957  0.1293 -0.1181  2.4765
  730MOL0     H96304   2.431   7.717   7.037 -0.7633 -1.3754  0.2827
  730MOL0     H96305   2.314   7.703   6.749 -0.2462  3.5193 -0.6679
  730MOL0     H96306   2.315   7.842   6.857  0.2973 -0.0753  3.0228
  730MOL0     H96307   2.176   7.690   7.024  0.4802 -1.2754  0.0511
  730MOL0     H96308   2.180   7.583   6.904 -0.8650 -0.2400  2.2234
  730MOL0     H96309   2.034   7.857   6.883  0.9446  0.6486  0.9219
  730MOL0     H96310   2.064   7.760   6.743 -0.0986 -1.5518  0.2057
  730MOL0     H96311   1.926   7.655   6.994  1.8753  0.4192  0.7305
  730MOL0     H96312   1.948   7.567   6.849 -2.1399 -1.3174  3.0261
  730MOL0     H96313   1.804   7.658   6.612  0.0873  1.5775 -0.6282
  730MOL0     H96314   1.468   7.653   6.613  0.5016 -1.3010  1.7424
  730MOL0     H96315   1.579   7.754   6.500  0.5861 -0.3771  0.9469
  730MOL0     H96316   1.479   7.952   6.588  0.2854 -0.3362 -1.3620
  730MOL0     H96317   1.401   7.863   6.706  2.6195 -0.1507  0.2443
  730MOL0     H96318   1.339   7.846   6.405 -0.9415  0.4137 -0.5095
  730MOL0     H96319   1.248   7.758   6.525  0.3874  0.2775  2.2084
  730MOL0     H96320   1.287   8.064   6.517  1.5196 -0.8022 -1.1368
  730MOL0     H96321   1.204   7.963   6.644  0.3240 -1.4367 -0.4829
  730MOL0     H96322   1.106   8.187   6.662 -0.8903  0.7971  0.4930
  730MOL0     H96323   0.905   8.272   6.787 -0.5866 -0.2865  1.2942
  730MOL0     H96324   0.324   7.975   6.677 -1.8546  0.1892  0.2696
  730MOL0     H96325   0.108   7.997   6.779 -1.9404  1.4703  2.4774
  730MOL0     H96326   0.014   8.391   6.888 -0.0054  1.1508  1.9234
  730MOL0     H96327   0.055   8.358   7.055  0.6699  0.3393 -1.1248
  730MOL0     H96328  -0.179   8.413   7.075  1.0645 -0.1362 -0.7152
  730MOL0     H96329  -0.181   8.235   7.059  0.8458 -1.1151 -0.4535
  730MOL0     H96330  -0.268   8.239   6.829 -0.0316  0.6257 -0.6593
  730MOL0     H96331  -0.236   8.415   6.831  0.2142  1.2879  0.2499
  730MOL0     H96332  -0.429   8.261   7.004  0.7444 -1.3995 -0.9970
  730MOL0     H96333  -0.383   8.440   7.028 -0.2588  0.4527 -1.1851
  730MOL0     H96334  -0.519   8.325   6.785  1.3816  0.6353 -0.6507
  730MOL0     H96335  -0.496   8.496   6.830 -0.0005  0.2059  1.9443
  730MOL0     H96336  -0.638   8.418   7.052 -0.1415  0.6058 -0.6280
  730MOL0     H96337  -0.663   8.267   6.948  1.6178 -0.1875 -5.3997
  730MOL0     H96338  -0.730   8.546   6.856  0.7251  0.8222  2.5374
  730MOL0     H96339  -0.780   8.396   6.785  1.8406  0.1682 -1.6332
  730MOL0     H96340  -0.974   8.495   6.908  0.0682 -1.9455 -0.5221
  730MOL0     H96341  -0.864   8.524   7.045 -0.1776  1.3845 -0.7956
  730MOL0     H96342   0.226   8.377   6.933 -3.8305 -1.2043  0.2320
  730MOL0     H96343   0.448   8.350   6.828 -2.0704  2.7873 -1.3393
  730MOL0     H96344   0.672   7.987   6.558  1.1698 -1.8665 -0.0945
  730MOL0     H96345   0.862   7.917   6.444  0.6005  0.0373 -1.2023
  730MOL0     H96346   3.040   7.652   6.819  1.2974 -0.8996 -1.9525
  730MOL0     H96347   3.251   7.548   6.769  0.1514 -3.9920 -0.1528
  730MOL0     H96348   3.659   7.135   6.966  2.4793 -0.2562  2.6006
  730MOL0     H96349   3.882   7.118   6.972 -0.9670 -1.0359 -0.2026
  730MOL0     H96350   4.104   7.186   6.815  1.3008  1.8590 -0.4851
  730MOL0     H96351   4.107   7.136   6.987 -3.2981  1.3717  0.6674
  730MOL0     H96352   4.325   7.152   6.878  3.0902  2.5251  0.4455
  730MOL0     H96353   4.297   7.329   6.852  1.2197  1.4164  2.1102
  730MOL0     H96354   4.275   7.378   7.097  0.7661  0.4840  0.2559
  730MOL0     H96355   4.426   7.336   7.062 -2.0469  4.8833  1.2099
  730MOL0     H96356   4.340   7.212   7.263  1.2537 -0.7624  0.1501
  730MOL0     H96357   4.226   7.129   7.163  1.3226 -2.2017 -0.0659
  730MOL0     H96358   4.603   6.937   7.114  0.1769 -0.5873  1.2194
  730MOL0     H96359   3.910   7.554   6.959 -1.5955  1.6830  2.6658
  730MOL0     H96360   3.699   7.575   6.988  4.7406  1.5354 -2.1955
  731MOL0     O96361   3.869   8.808   0.398 -0.3306  0.5075  0.2078
  731MOL0     C96362   3.933   8.706   0.435  0.4365  0.5937 -0.2347
  731MOL0     O96363   3.887   8.618   0.531 -0.4812  0.3528 -0.3087
  731MOL0     C96364   3.773   8.649   0.594  0.2383 -0.0546 -1.2949
  731MOL0     C96365   3.771   8.690   0.729  0.1501  0.0235  0.2137
  731MOL0     C96366   3.645   8.713   0.795 -0.0468  1.0462  0.3056
  731MOL0     C96367   3.518   8.701   0.728  0.0038  0.3360  0.0312
  731MOL0     O96368   3.401   8.707   0.798  0.2927 -0.0017 -0.5093
  731MOL0     C96369   3.290   8.636   0.766 -0.2946 -0.7547 -0.1394
  731MOL0     C96370   3.185   8.622   0.874  0.6420 -0.1257  0.2433
  731MOL0     C96371   3.127   8.760   0.909 -0.3872 -0.3242  0.2449
  731MOL0     C96372   3.010   8.761   1.012  1.0543  0.8817  0.9697
  731MOL0     C96373   2.981   8.908   1.030 -0.3118  0.2370  0.5196
  731MOL0     C96374   2.867   8.945   1.129  0.0756  0.5805 -0.0957
  731MOL0     C96375   2.821   9.098   1.133 -0.0746  0.0845  0.5105
  731MOL0     C96376   2.716   9.119   1.248  0.6133  0.6047  0.4930
  731MOL0     N96377   2.678   9.259   1.257  0.1989  0.1287 -0.5950
  731MOL0     C96378   2.768   9.358   1.231 -0.4102 -0.3240 -0.2171
  731MOL0     C96379   2.720   9.468   1.281  0.0365  0.1500 -0.3403
  731MOL0     C96380   2.769   9.607   1.251 -0.5536  0.2552 -0.5290
  731MOL0     C96381   2.663   9.712   1.284  0.7156  0.8115  0.2822
  731MOL0     C96382   2.717   9.847   1.269  0.3566  0.2411  0.5116
  731MOL0     C96383   2.608   9.946   1.299 -0.0703 -0.3634  0.3570
  731MOL0     O96384   2.503   9.926   1.208  0.6093 -0.3826 -0.4498
  731MOL0     C96385   2.386   9.991   1.229  0.2491  0.1465  0.5486
  731MOL0     C96386   2.279   9.947   1.156  0.1626 -0.4803  0.7032
  731MOL0     C96387   2.152  10.006   1.165 -0.0872  0.3316 -0.2562
  731MOL0     C96388   2.131  10.117   1.248 -0.2765  1.6764 -0.0270
  731MOL0     C96389   1.994  10.181   1.270  0.0774 -0.5242 -0.5940
  731MOL0     O96390   2.003  10.304   1.336  0.2020  0.1117 -0.0002
  731MOL0     C96391   1.883  10.356   1.379  0.5431  0.3345 -0.6830
  731MOL0     C96392   1.798  10.278   1.459 -0.8116  0.7541 -0.4684
  731MOL0     C96393   1.669  10.329   1.495 -0.2730  1.0409 -0.3549
  731MOL0     C96394   1.623  10.454   1.439  0.7920 -0.6965  0.1041
  731MOL0     O96395   1.492  10.488   1.472 -0.0714 -0.3101  0.2767
  731MOL0     C96396   1.449  10.619   1.438 -0.9726  1.0441 -0.4120
  731MOL0     C96397   1.298  10.635   1.458  0.0324 -0.4752 -1.0769
  731MOL0     C96398   1.272  10.666   1.603  0.8245 -0.6054  0.1752
  731MOL0     C96399   1.118  10.658   1.634 -0.2340  0.0308  0.4254
  731MOL0     C96400   1.085  10.657   1.781 -0.2754 -0.1846  0.0017
  731MOL0     C96401   0.938  10.703   1.811 -0.1400 -1.1504  0.6111
  731MOL0     C96402   0.892  10.667   1.959 -0.1279  0.3471 -0.1205
  731MOL0     C96403   0.969  10.758   2.067  0.4644  0.3654  0.0815
  731MOL0    Cl96404   0.964  10.930   2.010  0.3661  0.1452  0.0441
  731MOL0     C96405   1.710  10.526   1.357  0.0781 -0.3443  0.4565
  731MOL0     C96406   1.836  10.483   1.339 -0.1192  1.0797  0.1413
  731MOL0     O96407   1.902  10.148   1.203  0.3095 -0.6041 -0.2048
  731MOL0     C96408   2.241  10.163   1.326  0.0170  0.0375 -0.7630
  731MOL0     C96409   2.364  10.094   1.316  0.5483 -0.8034 -0.0012
  731MOL0     N96410   2.607   9.433   1.358 -0.1761  1.2171  0.5667
  731MOL0     N96411   2.589   9.303   1.346  0.5386  0.0750  0.7066
  731MOL0     C96412   3.529   8.667   0.594  0.3668  1.0532 -0.6465
  731MOL0     C96413   3.650   8.638   0.527  0.4211  0.8548  0.3088
  731MOL0     C96414   4.065   8.662   0.384 -0.4681  0.1228 -0.2611
  731MOL0     C96415   4.161   8.593   0.468  1.5404 -1.0730  0.4083
  731MOL0     C96416   4.294   8.579   0.424 -0.3797 -0.6122  0.6783
  731MOL0     C96417   4.329   8.611   0.294 -0.2144 -0.0944  0.6653
  731MOL0     O96418   4.454   8.600   0.234  0.1360  0.1347  0.3073
  731MOL0     C96419   4.521   8.475   0.251  0.5030 -0.1075  0.2364
  731MOL0     C96420   4.634   8.495   0.360  0.0327  0.0963  0.2055
  731MOL0     C96421   4.731   8.600   0.341 -1.3768  0.1929  0.4977
  731MOL0     C96422   4.840   8.578   0.237 -0.5123 -0.2103  0.0611
  731MOL0     C96423   4.933   8.464   0.266  0.0407  0.8638 -0.4419
  731MOL0     C96424   5.020   8.390   0.293 -0.0818 -0.6257 -0.1344
  731MOL0     C96425   4.239   8.668   0.210  0.8467  0.1555  0.1998
  731MOL0     C96426   4.111   8.696   0.251 -0.1033 -1.2732 -0.1018
  731MOL0     H96427   3.865   8.700   0.783 -0.4442  0.2077  1.2423
  731MOL0     H96428   3.637   8.747   0.898  1.1571 -0.1667  0.8234
  731MOL0     H96429   3.314   8.534   0.734 -2.0447 -1.3196  0.2306
  731MOL0     H96430   3.249   8.690   0.681  2.3844  2.5471  0.4526
  731MOL0     H96431   3.225   8.567   0.960  0.3904 -1.3591 -0.4083
  731MOL0     H96432   3.107   8.557   0.834  2.6853 -3.1550  0.7804
  731MOL0     H96433   3.101   8.803   0.812  1.7076 -0.8026 -0.5796
  731MOL0     H96434   3.218   8.807   0.949  0.8618 -1.1879 -1.4659
  731MOL0     H96435   2.923   8.714   0.964 -1.1362  2.7947  2.8045
  731MOL0     H96436   3.040   8.708   1.102 -0.9878 -0.9591  0.6603
  731MOL0     H96437   2.951   8.939   0.930 -0.6233 -3.1909 -0.5780
  731MOL0     H96438   3.076   8.958   1.054  0.9659 -1.8198 -0.0057
  731MOL0     H96439   2.900   8.900   1.223 -0.4110 -0.0512 -0.2215
  731MOL0     H96440   2.788   8.883   1.084  2.6799 -0.4805 -3.6455
  731MOL0     H96441   2.910   9.160   1.149  1.2073 -1.6001  0.1991
  731MOL0     H96442   2.769   9.124   1.041 -1.5793  0.0149  1.3083
  731MOL0     H96443   2.761   9.083   1.341 -1.8967 -2.3472  0.7296
  731MOL0     H96444   2.630   9.055   1.226  1.1553  1.1201 -4.1931
  731MOL0     H96445   2.853   9.355   1.163 -0.6890  0.2774 -0.6059
  731MOL0     H96446   2.803   9.615   1.147 -0.0238  0.8942 -0.3188
  731MOL0     H96447   2.858   9.629   1.311  0.6013 -0.6568 -1.8434
  731MOL0     H96448   2.624   9.704   1.386 -1.8929 -1.2377 -0.7586
  731MOL0     H96449   2.579   9.704   1.215  0.9721  1.1553 -0.0735
  731MOL0     H96450   2.790   9.865   1.349 -0.8821  1.1965  1.4620
  731MOL0     H96451   2.756   9.873   1.170  1.2103  2.2868  1.3298
  731MOL0     H96452   2.653  10.046   1.297  0.6329 -0.6595 -1.6414
  731MOL0     H96453   2.580   9.928   1.403  1.1550  2.0357  1.1680
  731MOL0     H96454   2.290   9.861   1.090 -0.8090 -1.3585  1.6481
  731MOL0     H96455   2.060   9.982   1.112  0.0172  0.9732 -0.7369
  731MOL0     H96456   1.819  10.174   1.483 -1.4191  0.0189 -2.8081
  731MOL0     H96457   1.603  10.269   1.558  1.7826 -2.1408 -1.0003
  731MOL0     H96458   1.473  10.646   1.334 -2.0592  4.6288  0.1125
  731MOL0     H96459   1.510  10.679   1.506 -1.2081 -0.4735  1.2040
  731MOL0     H96460   1.244  10.549   1.416  2.1359 -1.2320 -2.4218
  731MOL0     H96461   1.265  10.726   1.407 -1.2662 -0.3160  0.0005
  731MOL0     H96462   1.314  10.762   1.634  1.5778 -1.0211  0.4650
  731MOL0     H96463   1.325  10.595   1.667  0.1448 -0.2965  1.1064
  731MOL0     H96464   1.068  10.742   1.584  0.8191 -0.5759 -1.8032
  731MOL0     H96465   1.091  10.560   1.594  4.1451 -0.2971 -2.5316
  731MOL0     H96466   1.154  10.724   1.834  0.2953 -1.3652  0.7891
  731MOL0     H96467   1.089  10.558   1.827 -2.0768 -0.4867 -0.4493
  731MOL0     H96468   0.880  10.653   1.733  0.4158 -0.8704  0.0092
  731MOL0     H96469   0.930  10.810   1.792 -0.9687 -0.6091  3.5709
  731MOL0     H96470   0.786  10.681   1.980 -0.2300 -1.6585  0.9586
  731MOL0     H96471   0.908  10.559   1.967 -0.9428  0.1828 -0.6173
  731MOL0     H96472   1.072  10.729   2.088  0.8209  1.5770  0.1045
  731MOL0     H96473   0.916  10.756   2.162  1.6587 -0.5668  0.7462
  731MOL0     H96474   1.692  10.625   1.316 -1.2217  0.3060  2.4883
  731MOL0     H96475   1.918  10.536   1.292  0.5863  1.7666  2.0319
  731MOL0     H96476   2.239  10.248   1.393 -0.5654 -0.7021  0.1867
  731MOL0     H96477   2.441  10.135   1.380 -0.6759 -1.6731  2.1211
  731MOL0     H96478   3.439   8.659   0.535  0.3960 -3.1601 -0.4010
  731MOL0     H96479   3.650   8.613   0.422 -1.2771  0.3461  0.3946
  731MOL0     H96480   4.132   8.554   0.565 -1.9271 -0.4421 -0.2533
  731MOL0     H96481   4.368   8.536   0.490  2.5506  1.2200 -1.1930
  731MOL0     H96482   4.567   8.437   0.159 -3.1612 -0.8690 -1.4757
  731MOL0     H96483   4.452   8.394   0.276 -0.3502  0.5345 -0.0184
  731MOL0     H96484   4.592   8.507   0.460  0.0185 -0.7681  0.3104
  731MOL0     H96485   4.685   8.398   0.357  0.3935  0.2268  1.5506
  731MOL0     H96486   4.786   8.619   0.433 -2.5130  0.6932  1.0937
  731MOL0     H96487   4.690   8.698   0.315  0.2408  0.3020 -2.1091
  731MOL0     H96488   4.798   8.563   0.137  4.0433 -0.6181 -2.0239
  731MOL0     H96489   4.912   8.660   0.239  0.5394 -1.0573 -1.0676
  731MOL0     H96490   5.097   8.316   0.301  0.0649 -1.2319 -4.6456
  731MOL0     H96491   4.271   8.686   0.108  0.0828 -0.0838 -0.0938
  731MOL0     H96492   4.051   8.740   0.172 -0.2716 -1.1334  0.1021
  732MOL0     O96493   5.120   5.749   8.377 -0.6559 -0.4163 -0.2625
  732MOL0     C96494   5.027   5.674   8.426 -0.6381 -0.4615  0.0299
  732MOL0     O96495   5.028   5.604   8.542 -0.2600 -0.0484  0.0676
  732MOL0     C96496   5.139   5.613   8.621  0.8683 -1.1656  0.0081
  732MOL0     C96497   5.235   5.525   8.606 -0.8017 -0.7314 -0.1458
  732MOL0     C96498   5.343   5.521   8.694 -0.1763 -0.0121 -0.9690
  732MOL0     C96499   5.336   5.597   8.817 -0.1410  0.1483  0.1624
  732MOL0     O96500   5.439   5.609   8.904 -0.0332  0.5305 -0.5353
  732MOL0     C96501   5.551   5.521   8.903 -0.6963 -0.1944 -0.5792
  732MOL0     C96502   5.645   5.533   9.021 -0.2507 -0.2803  0.8729
  732MOL0     C96503   5.726   5.660   9.015 -0.5010 -0.0366  0.4559
  732MOL0     C96504   5.781   5.707   9.153  0.4017  0.4266  0.1245
  732MOL0     C96505   5.896   5.811   9.132  0.3673 -0.2954 -0.5397
  732MOL0     C96506   5.952   5.866   9.267 -0.4635  0.7346 -0.6903
  732MOL0     C96507   5.858   5.967   9.336 -0.2231  0.4596  0.2458
  732MOL0     C96508   5.941   6.048   9.441 -0.2267 -0.1206 -0.1634
  732MOL0     N96509   5.890   6.183   9.471  0.6076 -0.0305  0.6572
  732MOL0     C96510   5.816   6.216   9.583 -0.8030 -0.7899 -0.3946
  732MOL0     C96511   5.786   6.345   9.572  0.3341  0.0370  0.2690
  732MOL0     C96512   5.720   6.426   9.673  0.7764 -0.1984  0.3437
  732MOL0     C96513   5.581   6.454   9.639  0.4328 -1.5491  0.0162
  732MOL0     C96514   5.486   6.342   9.632 -0.6026 -0.1872  0.8695
  732MOL0     C96515   5.347   6.396   9.615 -0.6394  0.5506 -0.1873
  732MOL0     O96516   5.254   6.287   9.626  0.0691  0.3205  0.1688
  732MOL0     C96517   5.121   6.313   9.590  0.7176 -0.4335 -0.3496
  732MOL0     C96518   5.064   6.449   9.595 -0.3145  0.4536  0.8538
  732MOL0     C96519   4.931   6.463   9.573  0.0874  0.5129  0.7791
  732MOL0     C96520   4.850   6.354   9.532  0.1056 -0.0937 -0.9092
  732MOL0     C96521   4.707   6.385   9.496 -0.9651  0.9272 -0.6404
  732MOL0     O96522   4.626   6.269   9.485 -0.0387 -0.3104 -0.1764
  732MOL0     C96523   4.490   6.275   9.478  0.3062 -0.6557  0.1507
  732MOL0     C96524   4.413   6.389   9.455 -0.2527 -0.1206  0.4534
  732MOL0     C96525   4.274   6.374   9.445 -0.8185  0.8200  0.6516
  732MOL0     C96526   4.213   6.250   9.448 -0.4849  0.0056  0.1815
  732MOL0     O96527   4.074   6.252   9.434  0.4014  0.1995 -0.4966
  732MOL0     C96528   4.010   6.125   9.415  0.1037 -0.4285 -0.1770
  732MOL0     C96529   3.857   6.151   9.398  0.0475  0.7034 -0.3565
  732MOL0     C96530   3.792   6.037   9.333  0.1186 -0.0198  0.1196
  732MOL0     C96531   3.638   6.040   9.339 -0.0644  0.1530  0.9041
  732MOL0     C96532   3.577   5.934   9.240 -0.6531  0.2683 -0.5965
  732MOL0     C96533   3.430   5.912   9.260 -0.2285 -0.2559  0.2610
  732MOL0     C96534   3.356   6.047   9.241  0.1852  0.2795 -0.3582
  732MOL0     C96535   3.206   6.032   9.210 -0.0773  0.3770 -0.9630
  732MOL0    Cl96536   3.110   5.943   9.335  0.0142 -0.3436  0.1945
  732MOL0     C96537   4.293   6.130   9.452  0.0815  0.2321  0.0332
  732MOL0     C96538   4.430   6.145   9.472 -0.5381 -0.4066 -0.1143
  732MOL0     O96539   4.668   6.500   9.484 -0.2817  0.0500  0.6647
  732MOL0     C96540   4.897   6.225   9.533 -0.4761 -0.5438  0.4981
  732MOL0     C96541   5.032   6.201   9.568 -1.2694  0.3305 -0.4654
  732MOL0     N96542   5.826   6.385   9.447  0.0397 -0.6446  0.3463
  732MOL0     N96543   5.893   6.291   9.390  1.1479  0.3838  0.1546
  732MOL0     C96544   5.228   5.686   8.828  0.3055 -0.3437  0.0277
  732MOL0     C96545   5.131   5.691   8.730 -0.0797 -0.1345 -0.8140
  732MOL0     C96546   4.920   5.636   8.338  0.5801  0.2045  0.5565
  732MOL0     C96547   4.949   5.637   8.194  0.6955  0.9662 -0.0319
  732MOL0     C96548   4.843   5.608   8.101 -0.9775 -0.1614  0.5342
  732MOL0     C96549   4.723   5.547   8.142 -0.1575 -0.2152 -1.0468
  732MOL0     O96550   4.642   5.502   8.041  0.2972  0.2183 -0.3237
  732MOL0     C96551   4.583   5.379   8.061  0.2563  0.7274  0.1968
  732MOL0     C96552   4.686   5.257   8.045 -0.9333 -0.1888  0.7712
  732MOL0     C96553   4.629   5.119   8.051  0.3909 -0.0583 -0.5622
  732MOL0     C96554   4.719   5.014   7.980  0.3705 -0.4845 -0.4353
  732MOL0     C96555   4.688   5.031   7.839 -0.4508 -1.2298 -0.2313
  732MOL0     C96556   4.657   5.057   7.721 -0.1825  0.0479 -0.6394
  732MOL0     C96557   4.698   5.544   8.283  0.2471  0.2226  0.4723
  732MOL0     C96558   4.798   5.583   8.378  0.2007 -0.8266  0.2451
  732MOL0     H96559   5.235   5.471   8.512 -0.0845 -2.2136  0.6705
  732MOL0     H96560   5.420   5.447   8.679 -1.9837 -2.5400  1.3168
  732MOL0     H96561   5.617   5.554   8.822  2.0557 -0.0124  1.5640
  732MOL0     H96562   5.535   5.414   8.891  0.3104 -0.4801  0.4312
  732MOL0     H96563   5.711   5.446   9.027  0.1846  0.1283  2.4613
  732MOL0     H96564   5.596   5.536   9.119 -2.7544 -0.3033 -0.2978
  732MOL0     H96565   5.675   5.749   8.978 -0.5284 -0.6856 -1.1531
  732MOL0     H96566   5.814   5.641   8.953 -0.4851  0.4673  0.3243
  732MOL0     H96567   5.702   5.758   9.210 -0.8135 -2.6432  1.4041
  732MOL0     H96568   5.817   5.625   9.216  2.5753  0.1471 -1.3748
  732MOL0     H96569   5.868   5.893   9.064  4.5201  3.9791  2.2565
  732MOL0     H96570   5.976   5.754   9.085  1.5249  0.8817 -0.0821
  732MOL0     H96571   6.043   5.919   9.241  1.2429 -1.3578  0.6747
  732MOL0     H96572   5.983   5.778   9.325  2.3001  1.0862 -1.5394
  732MOL0     H96573   5.836   6.049   9.267 -0.1273  3.2822  3.3287
  732MOL0     H96574   5.771   5.919   9.381  0.5535 -1.2141  0.0242
  732MOL0     H96575   6.045   6.052   9.409 -0.6108 -2.8233 -2.1286
  732MOL0     H96576   5.939   5.985   9.530 -0.9764 -0.2133 -0.2328
  732MOL0     H96577   5.787   6.161   9.673 -3.9019  0.2732 -0.6072
  732MOL0     H96578   5.775   6.518   9.691 -0.7347  0.7551  0.2427
  732MOL0     H96579   5.714   6.375   9.770  0.2139  0.0785  0.4550
  732MOL0     H96580   5.585   6.502   9.541  1.7228 -0.2532  0.6705
  732MOL0     H96581   5.548   6.531   9.709  0.8385  2.2668 -3.6321
  732MOL0     H96582   5.520   6.281   9.547 -2.0788  3.0206 -2.2967
  732MOL0     H96583   5.489   6.287   9.726  0.1673  2.6503  2.6125
  732MOL0     H96584   5.352   6.431   9.512  1.6345 -2.2894 -1.1631
  732MOL0     H96585   5.329   6.470   9.694  0.0895  0.6829 -0.1435
  732MOL0     H96586   5.128   6.536   9.603  1.1120 -0.4751 -0.0573
  732MOL0     H96587   4.891   6.564   9.572 -1.6749 -0.1328 -0.2787
  732MOL0     H96588   4.453   6.489   9.444 -0.4266 -0.2313 -1.4929
  732MOL0     H96589   4.208   6.459   9.436 -2.6759 -0.1703  3.5890
  732MOL0     H96590   4.022   6.054   9.497  2.8799 -0.9196 -0.9013
  732MOL0     H96591   4.040   6.074   9.323 -1.7366 -2.8586  0.4786
  732MOL0     H96592   3.836   6.240   9.338 -2.3271  0.3854 -0.0957
  732MOL0     H96593   3.811   6.171   9.496 -0.3394 -0.0512 -0.3815
  732MOL0     H96594   3.826   5.940   9.369  1.1504 -0.4043 -1.7694
  732MOL0     H96595   3.821   6.037   9.227 -0.3753 -1.7479 -0.0482
  732MOL0     H96596   3.601   6.035   9.441 -2.1836  1.1849  0.2514
  732MOL0     H96597   3.602   6.136   9.300  2.8121  1.4093  1.0393
  732MOL0     H96598   3.620   5.838   9.270 -1.8136  0.4640  2.0116
  732MOL0     H96599   3.600   5.957   9.136 -1.7481  1.4273 -0.6007
  732MOL0     H96600   3.410   5.880   9.363 -1.3521 -0.1203  0.1039
  732MOL0     H96601   3.398   5.831   9.193  2.5834 -0.9052 -0.4117
  732MOL0     H96602   3.369   6.120   9.322  1.3842 -0.9903  0.6354
  732MOL0     H96603   3.394   6.101   9.154 -0.9067  1.8057  0.0718
  732MOL0     H96604   3.197   5.973   9.119 -1.3572  0.8019 -1.1409
  732MOL0     H96605   3.165   6.130   9.182  1.6007  1.8274  1.2945
  732MOL0     H96606   4.242   6.035   9.438 -2.4944  1.5643 -0.4667
  732MOL0     H96607   4.480   6.049   9.482 -3.0310 -1.7234  0.4230
  732MOL0     H96608   4.839   6.145   9.490 -1.9990  0.4277  0.6710
  732MOL0     H96609   5.076   6.103   9.578 -4.1937 -0.9718  0.6396
  732MOL0     H96610   5.215   5.741   8.921  0.1113 -0.9812  0.3784
  732MOL0     H96611   5.053   5.765   8.739  0.9092  0.7470  1.3130
  732MOL0     H96612   5.040   5.684   8.159  0.1863  1.1228 -1.1898
  732MOL0     H96613   4.872   5.620   7.997 -1.2424 -0.3586  0.4385
  732MOL0     H96614   4.506   5.367   7.984  1.3217  1.3567 -0.9957
  732MOL0     H96615   4.539   5.372   8.161  1.7136  1.3306  0.9102
  732MOL0     H96616   4.748   5.277   7.957  1.0851  0.6232  2.2933
  732MOL0     H96617   4.758   5.277   8.124  0.7382  2.4314 -1.2439
  732MOL0     H96618   4.527   5.118   8.013 -0.2139 -1.3956  0.9551
  732MOL0     H96619   4.621   5.094   8.158 -1.2098 -0.1866 -0.6942
  732MOL0     H96620   4.826   5.032   7.998  1.0851 -2.1555 -2.4856
  732MOL0     H96621   4.692   4.912   8.006  0.3429 -0.7264 -1.3574
  732MOL0     H96622   4.620   5.099   7.630 -0.6059  4.9509  1.4714
  732MOL0     H96623   4.607   5.508   8.329 -0.5682  1.6497  0.0451
  732MOL0     H96624   4.767   5.584   8.482 -1.7793  1.6248 -0.2875
  733MOL0     O96625   0.321   0.015   3.951  0.6373 -0.6085 -0.2209
  733MOL0     C96626   0.382   0.012   3.850 -0.4582 -0.4116 -0.5054
  733MOL0     O96627   0.341   0.060   3.728 -0.5714  0.6516  0.6704
  733MOL0     C96628   0.210   0.094   3.712  0.2973  0.4171  0.0712
  733MOL0     C96629   0.101   0.030   3.761 -0.6024  0.1631 -0.1807
  733MOL0     C96630  -0.029   0.069   3.742 -0.1554  0.7686  0.5060
  733MOL0     C96631  -0.058   0.175   3.658  1.0668 -0.1462  0.1080
  733MOL0     O96632  -0.195   0.193   3.640 -0.3816  1.1634  0.7639
  733MOL0     C96633  -0.236   0.318   3.668 -0.6437 -0.0219 -0.1194
  733MOL0     C96634  -0.382   0.322   3.609 -0.3411  0.4871  0.1385
  733MOL0     C96635  -0.471   0.212   3.672 -0.6734 -0.2736 -0.1636
  733MOL0     C96636  -0.619   0.230   3.632 -0.1510 -0.4962  0.3291
  733MOL0     C96637  -0.695   0.124   3.691 -0.5133 -0.0653  0.1162
  733MOL0     C96638  -0.840   0.145   3.662 -0.2789  0.3514 -0.0872
  733MOL0     C96639  -0.927   0.035   3.708  0.4430  0.1494 -0.1237
  733MOL0     C96640  -1.072   0.034   3.663  0.5373 -0.1161  0.2492
  733MOL0     N96641  -1.145   0.145   3.719 -0.3925  0.7351  0.4466
  733MOL0     C96642  -1.201   0.152   3.847 -1.3773 -0.3817 -0.0817
  733MOL0     C96643  -1.261   0.267   3.852  0.2960  0.2645  0.0911
  733MOL0     C96644  -1.331   0.307   3.977  0.0846  0.0152 -0.4171
  733MOL0     C96645  -1.253   0.409   4.066  0.9724 -0.1818  0.2761
  733MOL0     C96646  -1.308   0.442   4.213 -0.5668 -0.0895 -0.1629
  733MOL0     C96647  -1.458   0.455   4.212  0.3130 -0.9349 -1.3400
  733MOL0     O96648  -1.501   0.499   4.338  0.2574 -0.9106  0.0288
  733MOL0     C96649  -1.614   0.574   4.325 -0.9591 -0.5573  0.0868
  733MOL0     C96650  -1.606   0.714   4.322 -0.6210  0.6813  0.4917
  733MOL0     C96651  -1.713   0.799   4.313  0.1395  0.0261 -0.5535
  733MOL0     C96652  -1.841   0.741   4.322  0.3955 -0.1443 -0.2433
  733MOL0     C96653  -1.962   0.830   4.322 -0.0085 -0.2653  0.0745
  733MOL0     O96654  -2.079   0.770   4.349  0.0250  0.2333  0.4269
  733MOL0     C96655  -2.183   0.864   4.361  0.0490  1.0964 -0.9428
  733MOL0     C96656  -2.269   0.887   4.254  1.1116  0.4863  0.3849
  733MOL0     C96657  -2.371   0.989   4.269  0.0500 -0.0835  0.6992
  733MOL0     C96658  -2.398   1.050   4.386  0.5134  0.4007  0.2922
  733MOL0     O96659  -2.513   1.129   4.380 -0.0591 -0.1676  0.8063
  733MOL0     C96660  -2.571   1.152   4.507 -0.3350 -0.2160 -0.1636
  733MOL0     C96661  -2.720   1.167   4.503 -0.0625 -0.1891  0.3403
  733MOL0     C96662  -2.758   1.292   4.435  1.2375 -0.1974 -0.5925
  733MOL0     C96663  -2.914   1.300   4.408 -0.0675 -0.0113  0.3333
  733MOL0     C96664  -2.951   1.410   4.302 -0.2872  0.0918 -0.5913
  733MOL0     C96665  -2.925   1.363   4.154  0.8475 -0.5335  0.3302
  733MOL0     C96666  -3.012   1.446   4.073  0.3751  0.3816  0.2603
  733MOL0     C96667  -3.000   1.393   3.932  0.4847 -0.0985  0.5868
  733MOL0    Cl96668  -3.079   1.509   3.824  0.0093 -0.1907  0.1504
  733MOL0     C96669  -2.314   1.026   4.495 -0.8225  0.4360  0.0653
  733MOL0     C96670  -2.211   0.928   4.486 -0.1819 -0.9424 -0.2643
  733MOL0     O96671  -1.938   0.950   4.315 -0.1924  0.4300  1.3467
  733MOL0     C96672  -1.851   0.603   4.320 -0.5846 -0.0790  0.9526
  733MOL0     C96673  -1.739   0.518   4.322 -0.2570  0.5282  0.5644
  733MOL0     N96674  -1.248   0.337   3.736  0.1164  0.2313 -0.0229
  733MOL0     N96675  -1.176   0.260   3.658  0.4324 -0.4252  0.3026
  733MOL0     C96676   0.053   0.247   3.608  0.5543 -0.3870 -0.8473
  733MOL0     C96677   0.181   0.209   3.640 -0.3672 -0.4338  0.4436
  733MOL0     C96678   0.519  -0.048   3.862  0.0208 -0.7136  0.1702
  733MOL0     C96679   0.572  -0.079   3.988 -0.5744 -0.2908 -0.5690
  733MOL0     C96680   0.707  -0.109   4.002 -0.2156  0.3579  0.0344
  733MOL0     C96681   0.783  -0.143   3.886 -0.5163 -1.1188 -0.3082
  733MOL0     O96682   0.915  -0.190   3.892  0.4941  0.3180  0.3354
  733MOL0     C96683   0.979  -0.179   4.021  0.6374  0.4511 -0.2286
  733MOL0     C96684   1.125  -0.222   4.021 -0.7181 -0.4411 -0.7566
  733MOL0     C96685   1.188  -0.140   4.138  0.5109  0.4220 -0.4290
  733MOL0     C96686   1.327  -0.162   4.143 -0.9556 -0.5025 -0.0982
  733MOL0     C96687   1.400  -0.084   4.251 -0.5058  0.1958 -0.3497
  733MOL0     C96688   1.463  -0.039   4.340  0.0924 -0.3653 -0.2718
  733MOL0     C96689   0.715  -0.133   3.760 -0.9173  1.2041 -0.8474
  733MOL0     C96690   0.588  -0.087   3.747 -0.3541 -0.4437 -0.0663
  733MOL0     H96691   0.137  -0.053   3.822 -1.4683  0.4528  0.7417
  733MOL0     H96692  -0.111   0.010   3.782 -0.5292  1.4815  0.7934
  733MOL0     H96693  -0.168   0.399   3.639 -0.2483  1.1617  3.5246
  733MOL0     H96694  -0.228   0.330   3.777 -3.1114 -0.8312  0.2095
  733MOL0     H96695  -0.387   0.312   3.500 -1.6642  0.8137  0.1608
  733MOL0     H96696  -0.435   0.414   3.632 -0.3659  0.5869 -0.3027
  733MOL0     H96697  -0.467   0.218   3.781 -3.7872 -2.6380  0.2243
  733MOL0     H96698  -0.441   0.115   3.632  0.5974  0.2098 -0.4197
  733MOL0     H96699  -0.664   0.325   3.661 -1.6110 -0.9395 -0.3392
  733MOL0     H96700  -0.639   0.220   3.524  1.6110  2.4441 -0.3814
  733MOL0     H96701  -0.674   0.122   3.798  0.2183 -2.3319 -0.0150
  733MOL0     H96702  -0.655   0.031   3.650 -0.0047 -0.9010  2.4032
  733MOL0     H96703  -0.851   0.162   3.555  0.3627 -2.4517 -0.6752
  733MOL0     H96704  -0.882   0.238   3.701 -1.9452  0.8107 -2.7569
  733MOL0     H96705  -0.887  -0.062   3.676  2.0667  0.0002  2.1147
  733MOL0     H96706  -0.922   0.041   3.817 -2.5404  0.1011  0.1141
  733MOL0     H96707  -1.129  -0.056   3.688  0.4928 -0.4297 -0.9240
  733MOL0     H96708  -1.074   0.040   3.553  1.3400  1.4196  0.2833
  733MOL0     H96709  -1.201   0.086   3.933  0.0505 -2.0086 -1.2521
  733MOL0     H96710  -1.343   0.215   4.035 -0.6258 -0.4349 -1.2438
  733MOL0     H96711  -1.431   0.349   3.962  0.6463  0.8183 -2.2811
  733MOL0     H96712  -1.242   0.499   4.005 -1.1966 -1.2301 -1.8424
  733MOL0     H96713  -1.152   0.367   4.070  1.2852  0.6436  1.5131
  733MOL0     H96714  -1.282   0.355   4.276 -1.1755 -0.1526  0.0088
  733MOL0     H96715  -1.264   0.529   4.263 -2.4642  1.0743 -0.4472
  733MOL0     H96716  -1.504   0.357   4.194 -1.8918 -0.1436 -0.3661
  733MOL0     H96717  -1.493   0.526   4.137  0.5174 -0.9945 -1.4941
  733MOL0     H96718  -1.510   0.764   4.327 -1.3320  2.0478  1.0871
  733MOL0     H96719  -1.703   0.906   4.299 -0.2799  0.4261  1.8611
  733MOL0     H96720  -2.256   0.831   4.162  0.5586 -1.4592  1.4268
  733MOL0     H96721  -2.431   1.019   4.184 -0.1715  2.3279  1.6247
  733MOL0     H96722  -2.527   1.234   4.564 -0.3719 -1.8367  2.3265
  733MOL0     H96723  -2.556   1.063   4.568  2.3574 -0.6177 -1.2825
  733MOL0     H96724  -2.764   1.172   4.603  1.0327 -2.3593  0.9907
  733MOL0     H96725  -2.756   1.076   4.455  1.4188  0.2798 -1.7822
  733MOL0     H96726  -2.712   1.295   4.335 -0.5510  0.1058 -1.4401
  733MOL0     H96727  -2.720   1.384   4.479 -0.4781  0.8976 -1.3165
  733MOL0     H96728  -2.952   1.203   4.373  1.9070 -0.2673 -1.2851
  733MOL0     H96729  -2.955   1.323   4.507  0.6191 -3.9415  1.7162
  733MOL0     H96730  -2.892   1.497   4.333 -1.5701 -0.3140  3.5586
  733MOL0     H96731  -3.058   1.428   4.316 -0.6702 -1.9668 -0.5635
  733MOL0     H96732  -2.963   1.261   4.141 -4.2169  1.3109 -1.7651
  733MOL0     H96733  -2.819   1.372   4.128  0.6313 -1.9463 -1.2317
  733MOL0     H96734  -3.118   1.431   4.095  0.0371 -0.5095 -1.7942
  733MOL0     H96735  -2.989   1.552   4.089  2.2944 -0.1938  1.6989
  733MOL0     H96736  -3.047   1.297   3.908  1.2830 -0.1228 -1.0214
  733MOL0     H96737  -2.900   1.385   3.889 -0.6303  1.1494 -2.4547
  733MOL0     H96738  -2.322   1.092   4.581  1.2837  0.9001 -0.0383
  733MOL0     H96739  -2.145   0.913   4.572 -1.7551 -0.3355  1.1082
  733MOL0     H96740  -1.949   0.559   4.333 -0.7503 -0.4000 -1.0454
  733MOL0     H96741  -1.747   0.411   4.310 -2.2526  0.7436 -0.4477
  733MOL0     H96742   0.034   0.333   3.545 -0.8638 -1.3525 -1.7948
  733MOL0     H96743   0.264   0.260   3.592 -2.5334  2.4312 -0.5457
  733MOL0     H96744   0.515  -0.062   4.078  0.1539 -1.0848  0.0620
  733MOL0     H96745   0.753  -0.113   4.100  1.4419  1.4030 -0.6566
  733MOL0     H96746   0.924  -0.239   4.094 -4.7152  3.6219 -1.2041
  733MOL0     H96747   0.969  -0.074   4.050  0.2874  0.7336 -1.3482
  733MOL0     H96748   1.142  -0.329   4.039 -1.3931 -0.3601  0.4516
  733MOL0     H96749   1.158  -0.179   3.926 -4.2189  1.6664 -1.1891
  733MOL0     H96750   1.134  -0.184   4.223 -1.7253  1.0376 -1.4544
  733MOL0     H96751   1.166  -0.034   4.127  0.3058  0.3834 -0.3937
  733MOL0     H96752   1.346  -0.266   4.169  0.3083 -0.4475 -0.7259
  733MOL0     H96753   1.375  -0.144   4.046 -0.7151 -0.8817 -0.0510
  733MOL0     H96754   1.535   0.008   4.404 -0.9718  1.3350 -0.2731
  733MOL0     H96755   0.776  -0.163   3.675  0.8601  0.0114  0.7713
  733MOL0     H96756   0.542  -0.076   3.649 -0.5630 -0.4778  0.0295
  734MOL0     O96757   7.057   6.907   6.422 -0.0425 -0.4904  0.2962
  734MOL0     C96758   7.118   6.900   6.519  0.1791 -0.5827 -0.8763
  734MOL0     O96759   7.191   6.801   6.557  0.1773  0.2744  0.3270
  734MOL0     C96760   7.176   6.683   6.488 -0.1196  0.5334  0.5323
  734MOL0     C96761   7.254   6.666   6.376 -0.0077  0.2372 -0.6755
  734MOL0     C96762   7.243   6.548   6.294  0.8005  0.5346  0.2641
  734MOL0     C96763   7.172   6.435   6.334 -0.0854 -0.6775  0.2996
  734MOL0     O96764   7.179   6.319   6.265 -0.5423 -1.0859 -0.6045
  734MOL0     C96765   7.108   6.203   6.308 -0.1244  0.8396 -0.0474
  734MOL0     C96766   6.968   6.189   6.266  0.2698 -0.2970  0.9457
  734MOL0     C96767   6.899   6.055   6.296  0.6446 -0.4166  0.3413
  734MOL0     C96768   6.755   6.057   6.235  0.1581  0.0016  0.7805
  734MOL0     C96769   6.685   5.920   6.256 -0.7328 -0.0550 -0.4022
  734MOL0     C96770   6.662   5.874   6.403  0.4964 -0.0905 -0.4506
  734MOL0     C96771   6.572   5.968   6.477 -0.0600 -0.8218  0.2398
  734MOL0     C96772   6.430   5.953   6.413 -0.4720  1.1492  0.1362
  734MOL0     N96773   6.325   6.020   6.483 -0.1786 -0.0709  0.7789
  734MOL0     C96774   6.189   5.995   6.472 -0.0102 -0.1193 -0.5991
  734MOL0     C96775   6.135   6.108   6.523  0.5233 -0.0096 -0.6071
  734MOL0     C96776   5.981   6.124   6.548  0.1391  0.1247  0.0790
  734MOL0     C96777   5.934   6.270   6.533  0.3094 -0.4111  0.2050
  734MOL0     C96778   5.921   6.303   6.379  0.2348  0.4094  0.0823
  734MOL0     C96779   5.799   6.396   6.340 -0.7713  0.6499  0.1168
  734MOL0     O96780   5.679   6.316   6.327 -0.1450 -0.4733  0.5322
  734MOL0     C96781   5.576   6.389   6.273  0.6441  0.1536 -0.7860
  734MOL0     C96782   5.573   6.523   6.240 -0.7671  0.4843  0.1498
  734MOL0     C96783   5.462   6.576   6.172  0.6208  0.3563 -1.4414
  734MOL0     C96784   5.348   6.500   6.150  0.4840  0.1264 -0.7153
  734MOL0     C96785   5.228   6.545   6.069  0.4031 -0.3914 -0.1586
  734MOL0     O96786   5.139   6.444   6.037 -0.2174 -0.9622 -0.2717
  734MOL0     C96787   5.023   6.473   5.978 -1.1718  0.2359  0.0051
  734MOL0     C96788   4.990   6.406   5.862  0.7046 -0.0551 -0.0453
  734MOL0     C96789   4.866   6.441   5.798 -1.2074 -0.6531  0.1309
  734MOL0     C96790   4.790   6.541   5.845 -0.7443  0.9071 -1.1920
  734MOL0     O96791   4.667   6.559   5.783 -0.3179 -0.0649 -0.0098
  734MOL0     C96792   4.577   6.663   5.827  0.4018 -0.1468  0.7350
  734MOL0     C96793   4.470   6.673   5.720  0.3292 -0.7239 -0.2542
  734MOL0     C96794   4.341   6.709   5.776  0.9704 -1.0975  0.5499
  734MOL0     C96795   4.260   6.772   5.663  0.2839 -0.9553 -0.7576
  734MOL0     C96796   4.139   6.848   5.725  0.6459  0.2699  0.4958
  734MOL0     C96797   4.055   6.915   5.617  0.0334  0.0633 -0.3762
  734MOL0     C96798   3.913   6.935   5.676  0.6489 -0.5241 -0.0886
  734MOL0     C96799   3.814   7.006   5.572  0.2121 -0.2196  0.6348
  734MOL0    Cl96800   3.642   6.993   5.603  0.3024  0.5751 -0.2293
  734MOL0     C96801   4.821   6.614   5.969 -0.0815  0.9754  0.3435
  734MOL0     C96802   4.938   6.573   6.039 -0.0385 -0.4687  0.2217
  734MOL0     O96803   5.216   6.662   6.044 -0.1083 -0.1504 -1.2116
  734MOL0     C96804   5.350   6.364   6.194 -0.0079 -0.4759  0.2720
  734MOL0     C96805   5.459   6.310   6.261  0.8199 -0.5780  0.4604
  734MOL0     N96806   6.232   6.197   6.562  0.3342  0.1100 -0.5018
  734MOL0     N96807   6.348   6.145   6.540 -0.4633  0.8042  0.3175
  734MOL0     C96808   7.092   6.454   6.449 -0.0215  0.2344  0.6514
  734MOL0     C96809   7.091   6.576   6.515  0.2095 -0.0917  0.6376
  734MOL0     C96810   7.139   7.022   6.592 -1.1349 -0.2285 -0.5274
  734MOL0     C96811   7.075   7.138   6.568  0.2977  0.7470  0.6734
  734MOL0     C96812   7.106   7.255   6.633 -0.1410  0.1857 -0.2110
  734MOL0     C96813   7.199   7.261   6.736 -0.2497 -0.1888 -0.0991
  734MOL0     O96814   7.211   7.380   6.799 -0.2620  0.1166 -0.6745
  734MOL0     C96815   7.263   7.401   6.923 -0.8671  1.0876  0.8168
  734MOL0     C96816   7.344   7.534   6.927 -0.3536 -0.2413 -0.2129
  734MOL0     C96817   7.379   7.582   7.072  0.4570 -0.0214  0.7854
  734MOL0     C96818   7.436   7.475   7.167 -0.4084  0.0847  0.3482
  734MOL0     C96819   7.467   7.549   7.290 -0.3349 -0.0088 -0.0655
  734MOL0     C96820   7.484   7.628   7.387  0.3748  0.6988 -0.2752
  734MOL0     C96821   7.285   7.146   6.751  0.0786 -0.3111 -0.0067
  734MOL0     C96822   7.251   7.031   6.678  0.1536  0.3336  0.1315
  734MOL0     H96823   7.323   6.743   6.344 -0.8748  0.9102 -0.9460
  734MOL0     H96824   7.300   6.530   6.203  0.4631 -0.4103  0.2291
  734MOL0     H96825   7.111   6.186   6.416 -1.3909 -0.2126 -0.1533
  734MOL0     H96826   7.170   6.122   6.269  1.3184  2.2155 -0.7345
  734MOL0     H96827   6.965   6.207   6.158 -4.4902 -0.5821  0.8082
  734MOL0     H96828   6.910   6.269   6.311 -0.1118  2.1427 -3.3258
  734MOL0     H96829   6.885   6.046   6.404 -2.9422 -2.4540 -0.1097
  734MOL0     H96830   6.963   5.978   6.253 -0.4675 -1.0112 -0.2950
  734MOL0     H96831   6.697   6.145   6.263  1.5924  0.4261  2.5709
  734MOL0     H96832   6.773   6.060   6.127  2.3190 -1.0507  1.0713
  734MOL0     H96833   6.743   5.837   6.214 -1.1814  0.2138 -1.5670
  734MOL0     H96834   6.590   5.922   6.202  0.0200  1.1447 -1.7438
  734MOL0     H96835   6.758   5.866   6.456  0.3393 -1.0972 -0.3141
  734MOL0     H96836   6.615   5.776   6.404 -3.3388  1.5478  0.3208
  734MOL0     H96837   6.566   5.950   6.585 -0.9222  1.4679  0.6247
  734MOL0     H96838   6.601   6.074   6.473 -1.2066 -0.5385 -1.3001
  734MOL0     H96839   6.413   5.845   6.409 -0.7015  1.1777  0.3399
  734MOL0     H96840   6.420   5.978   6.307 -0.2834 -3.3794 -1.1808
  734MOL0     H96841   6.130   5.912   6.436 -1.0752  0.7347 -0.8971
  734MOL0     H96842   5.957   6.079   6.644  3.4925  1.0786  1.5163
  734MOL0     H96843   5.935   6.060   6.472  2.0482 -1.3701  0.0875
  734MOL0     H96844   6.002   6.348   6.569 -0.2544  0.3495 -0.3422
  734MOL0     H96845   5.831   6.274   6.569 -0.2716 -2.9271 -0.9446
  734MOL0     H96846   6.012   6.356   6.353  0.9853 -0.5772  0.6342
  734MOL0     H96847   5.923   6.212   6.317 -2.0754  0.8327 -0.7287
  734MOL0     H96848   5.822   6.426   6.238 -0.8045  0.2263 -0.0176
  734MOL0     H96849   5.805   6.472   6.419 -0.2601 -1.7067  2.5129
  734MOL0     H96850   5.660   6.589   6.246 -2.3490  2.7241 -0.0810
  734MOL0     H96851   5.479   6.679   6.140  0.0685  0.3389 -1.8017
  734MOL0     H96852   5.052   6.328   5.817 -0.8057 -0.7916 -0.9269
  734MOL0     H96853   4.830   6.391   5.708 -0.0962  1.6853 -1.7187
  734MOL0     H96854   4.616   6.765   5.823 -0.2080  0.0699  0.1322
  734MOL0     H96855   4.536   6.633   5.924  0.5949 -0.7344  0.6439
  734MOL0     H96856   4.469   6.583   5.658 -0.2180 -0.1560 -1.0764
  734MOL0     H96857   4.503   6.754   5.654 -2.3554  1.5017  0.9230
  734MOL0     H96858   4.345   6.770   5.867 -1.0132  1.2376 -0.8182
  734MOL0     H96859   4.288   6.620   5.813 -0.7060 -0.1327  0.5977
  734MOL0     H96860   4.322   6.856   5.629  0.0193 -0.6501 -0.4967
  734MOL0     H96861   4.225   6.709   5.581 -0.8616  0.4314 -1.3880
  734MOL0     H96862   4.183   6.926   5.788 -2.2631  1.8725  0.7367
  734MOL0     H96863   4.078   6.773   5.777  3.4332 -2.5113  0.0048
  734MOL0     H96864   4.055   6.843   5.534  1.2418  0.7105 -0.9674
  734MOL0     H96865   4.081   7.014   5.578 -3.2380  1.4494  0.5811
  734MOL0     H96866   3.874   6.837   5.705  0.6972 -0.1607  1.2743
  734MOL0     H96867   3.927   7.003   5.760 -0.1553 -1.4241  0.7959
  734MOL0     H96868   3.822   6.964   5.472  1.2050 -0.2502  0.7103
  734MOL0     H96869   3.840   7.113   5.567 -0.5012 -0.0610  0.1069
  734MOL0     H96870   4.762   6.686   6.024 -1.5071  0.4497 -0.4448
  734MOL0     H96871   4.963   6.616   6.136  1.0461  1.2759 -0.7671
  734MOL0     H96872   5.269   6.294   6.178  0.7156 -1.8124  2.0516
  734MOL0     H96873   5.452   6.206   6.291  3.6935 -1.5557 -1.7853
  734MOL0     H96874   7.043   6.372   6.500  0.8669 -1.6849 -1.4398
  734MOL0     H96875   7.020   6.570   6.597 -0.7324  0.2386 -0.1325
  734MOL0     H96876   6.994   7.148   6.496  1.7445  3.2165 -0.7357
  734MOL0     H96877   7.049   7.343   6.603  1.0228  0.3914 -1.9607
  734MOL0     H96878   7.332   7.327   6.962  0.8096  1.8189 -0.6224
  734MOL0     H96879   7.176   7.417   6.988 -1.9236  0.3506 -0.3612
  734MOL0     H96880   7.439   7.508   6.880 -2.4074 -3.0053 -3.3486
  734MOL0     H96881   7.309   7.615   6.862 -0.0910 -1.2860 -1.7001
  734MOL0     H96882   7.281   7.618   7.105 -0.9116 -0.7644 -2.1131
  734MOL0     H96883   7.444   7.670   7.065 -0.1980  0.5321  1.5616
  734MOL0     H96884   7.372   7.390   7.190  0.1257 -0.8289 -1.3178
  734MOL0     H96885   7.528   7.431   7.127 -1.5259 -0.1741 -2.1071
  734MOL0     H96886   7.507   7.685   7.475 -1.0436 -2.2002  2.1604
  734MOL0     H96887   7.377   7.143   6.809  1.1231  1.7386 -1.4160
  734MOL0     H96888   7.319   6.947   6.688 -0.9537 -0.5927  0.1067
  735MOL0     O96889   5.387   1.890   0.951  0.3125 -0.5256 -0.2606
  735MOL0     C96890   5.295   1.812   0.930  0.4565 -0.0885  0.8376
  735MOL0     O96891   5.307   1.696   0.867 -0.1291  0.5284  0.1580
  735MOL0     C96892   5.439   1.664   0.844  0.2020  0.3565 -0.1278
  735MOL0     C96893   5.510   1.578   0.930 -0.6553 -0.4155  0.5992
  735MOL0     C96894   5.648   1.551   0.909  0.2964  0.5649  0.3474
  735MOL0     C96895   5.714   1.600   0.796  0.4497  0.7628 -0.3257
  735MOL0     O96896   5.847   1.571   0.794  0.1919  0.1554 -0.2483
  735MOL0     C96897   5.934   1.674   0.739  0.1140 -0.3987 -0.4343
  735MOL0     C96898   6.077   1.613   0.727 -0.0270 -0.2470  0.1916
  735MOL0     C96899   6.087   1.480   0.650  0.4375  0.2716  0.2333
  735MOL0     C96900   6.230   1.428   0.634 -1.2551  0.0742  0.0277
  735MOL0     C96901   6.240   1.291   0.562 -1.0872  0.0466  0.4847
  735MOL0     C96902   6.282   1.299   0.422  0.0072 -0.0378  0.2760
  735MOL0     C96903   6.314   1.160   0.378  0.1100  0.1715 -0.2146
  735MOL0     C96904   6.343   1.158   0.224 -0.0917 -0.1856 -0.3191
  735MOL0     N96905   6.265   1.239   0.136 -0.5355 -0.2546  0.3915
  735MOL0     C96906   6.149   1.208   0.081  0.2848 -0.2350  0.2137
  735MOL0     C96907   6.103   1.314   0.008  0.4807  0.1448 -0.5957
  735MOL0     C96908   5.982   1.337  -0.075 -0.1601 -0.6107 -0.1330
  735MOL0     C96909   5.856   1.349   0.013 -0.0434 -0.0767 -0.1102
  735MOL0     C96910   5.856   1.456   0.119  0.4593  0.5726 -0.5436
  735MOL0     C96911   5.871   1.388   0.249 -0.3127 -0.1910 -0.6195
  735MOL0     O96912   5.777   1.289   0.279 -0.0825 -0.2138 -0.3015
  735MOL0     C96913   5.642   1.315   0.314 -0.4267  0.5543  0.1825
  735MOL0     C96914   5.561   1.206   0.301  0.2600  0.2168  0.4047
  735MOL0     C96915   5.424   1.207   0.335 -0.4953 -0.0200  0.4549
  735MOL0     C96916   5.377   1.323   0.406  0.7866  0.2087 -0.4476
  735MOL0     C96917   5.232   1.341   0.427  0.4944  0.3481 -0.6695
  735MOL0     O96918   5.192   1.450   0.501  0.1973  0.2050  0.6839
  735MOL0     C96919   5.060   1.497   0.483 -0.2762  0.2420 -0.7968
  735MOL0     C96920   4.947   1.411   0.480  0.1825  0.1368  1.1027
  735MOL0     C96921   4.819   1.465   0.461 -0.3602  0.3395  0.4462
  735MOL0     C96922   4.809   1.608   0.450  0.1313  0.1643  0.2457
  735MOL0     O96923   4.673   1.658   0.438 -1.1698  0.2648  0.1467
  735MOL0     C96924   4.651   1.762   0.336  0.4902  0.3439 -0.8894
  735MOL0     C96925   4.492   1.782   0.358 -0.7142 -0.0105  0.1242
  735MOL0     C96926   4.438   1.904   0.284  0.2376  0.2343  0.2785
  735MOL0     C96927   4.294   1.916   0.325  0.5022  0.3930  0.2643
  735MOL0     C96928   4.226   2.030   0.254 -0.0331 -0.0293  0.7468
  735MOL0     C96929   4.224   2.018   0.106  0.1360 -0.2747  0.3797
  735MOL0     C96930   4.128   2.123   0.037  0.4950 -0.0888  0.6222
  735MOL0     C96931   3.982   2.080   0.057 -0.6780 -0.5921 -0.6376
  735MOL0    Cl96932   3.871   2.206   0.017 -0.1552 -0.4227 -0.4229
  735MOL0     C96933   4.918   1.689   0.446  0.2719 -0.7400  0.6494
  735MOL0     C96934   5.042   1.633   0.468 -0.4268  0.9921 -0.6016
  735MOL0     O96935   5.159   1.266   0.361  0.1151  0.0194  0.0033
  735MOL0     C96936   5.459   1.436   0.416 -0.0739  0.4086 -0.3310
  735MOL0     C96937   5.591   1.437   0.375  0.0711  0.8064  0.9584
  735MOL0     N96938   6.194   1.417   0.025  0.2213  0.0416 -0.3943
  735MOL0     N96939   6.289   1.368   0.096 -1.6146  0.0493 -0.9286
  735MOL0     C96940   5.643   1.685   0.709 -1.3723 -0.3644 -0.2177
  735MOL0     C96941   5.509   1.710   0.733 -0.8050 -0.5196  0.0358
  735MOL0     C96942   5.160   1.838   0.974  0.4380 -0.4486 -0.3317
  735MOL0     C96943   5.128   1.917   1.081 -0.0623  1.1477 -0.4633
  735MOL0     C96944   5.001   1.924   1.137  0.4004  0.4843  0.5413
  735MOL0     C96945   4.897   1.843   1.081 -0.6493 -0.2148 -0.2838
  735MOL0     O96946   4.776   1.858   1.151 -0.2953  0.3095 -0.3392
  735MOL0     C96947   4.671   1.771   1.108  0.5241 -0.4178 -0.6763
  735MOL0     C96948   4.551   1.803   1.189  0.2175 -0.0662 -0.3506
  735MOL0     C96949   4.438   1.688   1.173  0.4807 -0.4248  0.8777
  735MOL0     C96950   4.336   1.725   1.071  1.0604 -0.5104  0.9132
  735MOL0     C96951   4.378   1.712   0.936 -0.7613 -0.5567 -0.0516
  735MOL0     C96952   4.406   1.702   0.814  0.0059  0.3952 -0.0243
  735MOL0     C96953   4.922   1.753   0.970 -0.1463 -0.1211  0.2171
  735MOL0     C96954   5.051   1.768   0.912  0.3661 -0.3277 -0.2078
  735MOL0     H96955   5.454   1.532   1.011 -1.3578 -0.7420 -0.0570
  735MOL0     H96956   5.713   1.492   0.973  1.7506  0.8459 -0.8282
  735MOL0     H96957   5.942   1.745   0.822 -3.1667 -1.0183  0.5404
  735MOL0     H96958   5.901   1.714   0.643  0.1487  3.8425  1.1352
  735MOL0     H96959   6.110   1.604   0.831  0.3558  2.1348  0.3326
  735MOL0     H96960   6.133   1.696   0.683 -1.3365  0.9298  0.6636
  735MOL0     H96961   6.033   1.502   0.558  1.1972 -2.9538 -1.1142
  735MOL0     H96962   6.039   1.398   0.704  0.5704 -1.4819 -2.1274
  735MOL0     H96963   6.281   1.504   0.574 -1.3610  0.8047  0.8537
  735MOL0     H96964   6.278   1.426   0.732 -0.0261 -0.7686 -0.5573
  735MOL0     H96965   6.144   1.239   0.573 -0.8893 -0.1137  1.5845
  735MOL0     H96966   6.317   1.236   0.616 -0.1458 -0.1689 -1.0316
  735MOL0     H96967   6.360   1.369   0.393  0.0863 -0.4746 -0.6179
  735MOL0     H96968   6.192   1.336   0.372 -0.0748  1.5984  1.5702
  735MOL0     H96969   6.400   1.128   0.437 -2.0786 -0.2638  3.0094
  735MOL0     H96970   6.242   1.087   0.415  0.4837 -0.1092 -0.0323
  735MOL0     H96971   6.343   1.057   0.181  0.8501 -0.3311 -0.0035
  735MOL0     H96972   6.441   1.206   0.220 -0.5618  0.8736  0.5890
  735MOL0     H96973   6.098   1.112   0.082 -1.3726  0.6252 -0.1228
  735MOL0     H96974   5.973   1.257  -0.149  2.6302 -0.4962 -0.6931
  735MOL0     H96975   5.989   1.428  -0.136 -0.0200  0.0570  0.8619
  735MOL0     H96976   5.820   1.249   0.040 -0.0905 -0.4862 -1.5882
  735MOL0     H96977   5.777   1.389  -0.052  0.6272  1.0721 -0.2436
  735MOL0     H96978   5.946   1.517   0.107 -0.4976  2.8412  2.5256
  735MOL0     H96979   5.768   1.520   0.120  0.2105  0.2332 -0.8222
  735MOL0     H96980   5.869   1.466   0.325  1.7662  0.8351 -1.5140
  735MOL0     H96981   5.969   1.338   0.256 -1.0824 -1.8986 -1.4191
  735MOL0     H96982   5.604   1.122   0.248  2.5041  1.2937  0.4147
  735MOL0     H96983   5.363   1.123   0.305 -0.0286  0.3235 -1.5651
  735MOL0     H96984   4.971   1.306   0.490  0.4731  0.1604  0.6752
  735MOL0     H96985   4.732   1.404   0.437 -1.1835  1.8436 -0.5871
  735MOL0     H96986   4.674   1.730   0.234  0.7841  1.4438 -1.1897
  735MOL0     H96987   4.712   1.848   0.365 -0.4348  0.4461  0.9294
  735MOL0     H96988   4.475   1.804   0.464 -1.8008 -1.4029  0.2660
  735MOL0     H96989   4.436   1.697   0.318 -1.9722  1.6680 -1.8829
  735MOL0     H96990   4.443   1.895   0.175 -4.2901 -0.5146 -0.0668
  735MOL0     H96991   4.491   1.997   0.305  1.9328 -0.4445 -0.8348
  735MOL0     H96992   4.240   1.822   0.307  3.3774 -0.7362 -4.0395
  735MOL0     H96993   4.283   1.937   0.432  2.1575 -0.2309  0.5759
  735MOL0     H96994   4.279   2.123   0.277  1.4157 -0.3931 -0.9689
  735MOL0     H96995   4.125   2.034   0.296 -0.2879  0.2928  0.1299
  735MOL0     H96996   4.173   1.922   0.090  0.3756 -0.3390 -0.0410
  735MOL0     H96997   4.322   2.028   0.057 -0.8178  1.1973 -1.3681
  735MOL0     H96998   4.151   2.215   0.091 -1.6096  1.2551 -0.6155
  735MOL0     H96999   4.149   2.142  -0.069 -0.5753  0.5954  0.5169
  735MOL0     H97000   3.966   2.046   0.160  1.5196 -2.1652 -0.7401
  735MOL0     H97001   3.964   1.994  -0.008  2.8411 -0.5184 -1.9268
  735MOL0     H97002   4.897   1.796   0.450  0.8610 -0.6258  0.7625
  735MOL0     H97003   5.128   1.699   0.474  1.1433 -0.9807 -0.1934
  735MOL0     H97004   5.421   1.524   0.466  1.9910  2.9391 -2.8970
  735MOL0     H97005   5.662   1.516   0.396  0.1763  0.8626  0.4228
  735MOL0     H97006   5.698   1.734   0.629  2.2575 -0.0593  2.2418
  735MOL0     H97007   5.450   1.772   0.667 -3.0175 -0.9958  1.4352
  735MOL0     H97008   5.215   1.969   1.120 -0.6814  0.2401  2.3129
  735MOL0     H97009   4.985   2.007   1.205  1.5794  1.4226 -0.2741
  735MOL0     H97010   4.688   1.664   1.121 -1.3758 -0.7143 -0.3371
  735MOL0     H97011   4.642   1.790   1.005 -0.1385  0.1657 -0.3951
  735MOL0     H97012   4.579   1.807   1.295  1.0292  0.8690 -0.5934
  735MOL0     H97013   4.512   1.897   1.150  1.8797  0.1459 -1.5924
  735MOL0     H97014   4.393   1.675   1.272 -1.9536  0.5915 -0.0133
  735MOL0     H97015   4.482   1.596   1.133 -0.4598  0.3865 -2.3506
  735MOL0     H97016   4.256   1.654   1.093  2.3786 -1.8540  1.5977
  735MOL0     H97017   4.295   1.825   1.089  0.2255 -0.5098 -0.8274
  735MOL0     H97018   4.441   1.688   0.713 -0.6556 -0.8761 -0.0972
  735MOL0     H97019   4.849   1.682   0.931  0.5360 -0.5504 -0.3060
  735MOL0     H97020   5.078   1.708   0.826 -0.6608 -0.1104 -0.6868
  736MOL0     O97021   6.145   9.792   5.971 -0.4038 -0.3491 -0.3088
  736MOL0     C97022   6.166   9.910   6.003  0.4380  0.7191 -0.1544
  736MOL0     O97023   6.094   9.986   6.088  0.2424 -0.4036 -0.6959
  736MOL0     C97024   5.967   9.951   6.133 -0.6512  0.1430 -0.1187
  736MOL0     C97025   5.895   9.833   6.105 -0.5436 -0.2921  0.7781
  736MOL0     C97026   5.767   9.825   6.148 -0.0869  0.0212 -0.0064
  736MOL0     C97027   5.695   9.927   6.210 -0.2028 -0.6097  0.0044
  736MOL0     O97028   5.573   9.905   6.270 -0.3930  0.5194  0.2817
  736MOL0     C97029   5.482   9.844   6.183  0.0932 -1.0180 -0.6036
  736MOL0     C97030   5.354   9.818   6.257  0.0266  0.3849  0.3007
  736MOL0     C97031   5.252   9.766   6.153  0.6482 -0.4554 -1.1302
  736MOL0     C97032   5.121   9.721   6.224 -0.2035 -0.0617 -0.4295
  736MOL0     C97033   4.993   9.729   6.140 -0.2249  0.0613 -0.8687
  736MOL0     C97034   4.865   9.681   6.210 -0.6771  0.0119  0.2846
  736MOL0     C97035   4.744   9.687   6.120  0.2576  0.4148  0.0989
  736MOL0     C97036   4.730   9.565   6.029 -0.3306  0.0460  0.0165
  736MOL0     N97037   4.592   9.568   5.975 -0.0125 -0.7207 -0.0156
  736MOL0     C97038   4.512   9.682   5.947 -0.1359 -0.5582  0.5061
  736MOL0     C97039   4.394   9.627   5.910 -0.2674  0.0735 -0.1983
  736MOL0     C97040   4.281   9.708   5.861 -1.2011 -1.1004  0.2133
  736MOL0     C97041   4.163   9.611   5.839 -0.4602  0.0421 -0.4987
  736MOL0     C97042   4.050   9.694   5.791  0.2017  0.7951  0.3994
  736MOL0     C97043   3.924   9.604   5.790  0.7185 -1.2350  0.7473
  736MOL0     O97044   3.817   9.705   5.770 -0.0399 -0.3628  0.7325
  736MOL0     C97045   3.684   9.676   5.801 -0.2497 -0.2203 -0.2571
  736MOL0     C97046   3.595   9.785   5.797  0.4866  0.7565 -0.3138
  736MOL0     C97047   3.462   9.766   5.836 -0.2776  0.1786 -0.7795
  736MOL0     C97048   3.421   9.644   5.885 -0.5516  0.7372 -0.2159
  736MOL0     C97049   3.281   9.620   5.942 -0.4450  0.1259  0.9350
  736MOL0     O97050   3.185   9.711   5.903 -0.0752 -0.5036  0.1278
  736MOL0     C97051   3.058   9.700   5.935  0.3245 -0.0228 -0.6093
  736MOL0     C97052   2.987   9.579   5.941 -0.2933 -0.2165 -0.5024
  736MOL0     C97053   2.853   9.580   5.979 -0.2279  0.0612  0.2437
  736MOL0     C97054   2.784   9.702   6.011 -0.3573 -0.0516 -0.1041
  736MOL0     O97055   2.661   9.702   6.061 -0.8663 -0.3484 -0.5639
  736MOL0     C97056   2.662   9.693   6.206  0.2195 -0.7041 -0.2056
  736MOL0     C97057   2.537   9.646   6.277 -0.1443  0.6989 -0.5425
  736MOL0     C97058   2.419   9.734   6.237 -0.2094 -0.4661  0.0188
  736MOL0     C97059   2.299   9.714   6.333 -0.4218 -0.7811 -0.0790
  736MOL0     C97060   2.192   9.826   6.323  0.1368 -0.2522 -0.8174
  736MOL0     C97061   2.081   9.807   6.431 -0.3333  0.3051 -0.4117
  736MOL0     C97062   1.965   9.900   6.389 -0.3314 -0.1606 -0.4777
  736MOL0     C97063   1.866   9.919   6.500 -0.0269  0.2971 -0.5551
  736MOL0    Cl97064   1.736  10.024   6.465  0.0505 -0.4021 -0.2410
  736MOL0     C97065   2.851   9.827   5.985 -0.1849  0.2065  0.0187
  736MOL0     C97066   2.985   9.816   5.943  0.2642 -0.1979  0.2391
  736MOL0     O97067   3.270   9.530   6.027  0.2571  0.6111  0.8615
  736MOL0     C97068   3.515   9.532   5.912  0.4014 -0.4666  0.0668
  736MOL0     C97069   3.646   9.558   5.864 -0.1434 -0.4489  0.8897
  736MOL0     N97070   4.400   9.490   5.938  0.1675 -0.0540  0.0703
  736MOL0     N97071   4.512   9.452   5.980 -0.0330  0.0462  0.9249
  736MOL0     C97072   5.772  10.039   6.246 -0.3220  0.6041  0.3486
  736MOL0     C97073   5.901  10.055   6.212  0.7820  0.5010  0.2068
  736MOL0     C97074   6.294   9.967   5.954 -0.1909 -0.2010  0.2025
  736MOL0     C97075   6.377   9.896   5.865  0.1139 -0.6983 -0.8574
  736MOL0     C97076   6.498   9.952   5.823 -0.2923  0.3766 -0.5821
  736MOL0     C97077   6.532  10.075   5.868  0.0308  1.0038  0.3040
  736MOL0     O97078   6.650  10.121   5.809  0.2952 -0.1639 -0.3277
  736MOL0     C97079   6.637  10.184   5.687 -0.2636 -0.4709  0.7245
  736MOL0     C97080   6.775  10.252   5.657  0.2953  0.9880  0.3256
  736MOL0     C97081   6.776  10.286   5.509 -0.2099 -0.3108 -0.6893
  736MOL0     C97082   6.918  10.329   5.475  0.0221 -0.9861  0.2405
  736MOL0     C97083   6.930  10.403   5.343  0.5617 -0.0414 -0.3274
  736MOL0     C97084   6.941  10.453   5.234  0.0496 -0.6021  0.2437
  736MOL0     C97085   6.452  10.156   5.948  0.1398 -0.4016 -0.1107
  736MOL0     C97086   6.329  10.103   5.988 -0.3125  1.0971 -0.9944
  736MOL0     H97087   5.928   9.753   6.039  1.2582 -1.4220  2.9115
  736MOL0     H97088   5.719   9.732   6.118 -0.7770  1.5704 -4.4283
  736MOL0     H97089   5.522   9.744   6.162  1.6574 -1.1058  2.2734
  736MOL0     H97090   5.472   9.893   6.086 -0.7125  2.0598  0.9037
  736MOL0     H97091   5.313   9.904   6.312 -2.0691 -0.8242  0.7571
  736MOL0     H97092   5.380   9.740   6.330 -1.2244 -1.6653 -1.3488
  736MOL0     H97093   5.304   9.697   6.086  0.6681  0.4971 -2.1099
  736MOL0     H97094   5.230   9.858   6.099 -0.6521  0.5662  1.0158
  736MOL0     H97095   5.131   9.616   6.254 -3.3961 -0.4354 -0.3834
  736MOL0     H97096   5.119   9.791   6.308  0.1373 -2.1601  1.4336
  736MOL0     H97097   5.001   9.666   6.051 -0.7014 -2.0220  0.4809
  736MOL0     H97098   4.984   9.835   6.113  0.3902  0.3140 -0.1380
  736MOL0     H97099   4.846   9.745   6.296  0.8197 -1.9110  2.1433
  736MOL0     H97100   4.884   9.584   6.256 -0.1089 -0.4593 -0.8998
  736MOL0     H97101   4.663   9.687   6.194  0.5394 -0.4117  0.4182
  736MOL0     H97102   4.748   9.772   6.052 -2.9476 -0.0162 -0.8087
  736MOL0     H97103   4.743   9.468   6.078  0.3057 -1.4878 -2.9439
  736MOL0     H97104   4.801   9.581   5.947 -1.3837 -1.5460 -1.2573
  736MOL0     H97105   4.529   9.789   5.957 -1.3761 -0.5248  3.4345
  736MOL0     H97106   4.312   9.762   5.771  1.6355 -1.5498  0.8295
  736MOL0     H97107   4.262   9.781   5.940 -1.5223 -2.2122  1.2037
  736MOL0     H97108   4.150   9.553   5.930  0.8759  1.1901  0.4759
  736MOL0     H97109   4.196   9.533   5.770  1.2743  0.7413 -0.5146
  736MOL0     H97110   4.036   9.771   5.868  0.5410  1.9561 -0.6651
  736MOL0     H97111   4.066   9.745   5.695 -1.3910 -1.4593 -1.1698
  736MOL0     H97112   3.911   9.548   5.883  2.2911 -0.4991  1.4429
  736MOL0     H97113   3.932   9.538   5.703  1.2105 -1.6475  1.0987
  736MOL0     H97114   3.629   9.879   5.756  1.1731  1.2571  1.3430
  736MOL0     H97115   3.388   9.841   5.812 -3.1392 -1.8811  1.0228
  736MOL0     H97116   3.042   9.491   5.909 -0.3969  0.0346 -1.3870
  736MOL0     H97117   2.810   9.480   5.984 -1.9926  0.8226  1.3630
  736MOL0     H97118   2.683   9.791   6.250 -1.1388 -0.0130 -1.0502
  736MOL0     H97119   2.749   9.632   6.232  0.9458  0.3194 -0.1395
  736MOL0     H97120   2.552   9.649   6.386 -1.5239 -0.3109 -0.2926
  736MOL0     H97121   2.521   9.543   6.246  1.4259  0.6114 -1.1458
  736MOL0     H97122   2.384   9.717   6.135  1.4225  2.3762 -1.1376
  736MOL0     H97123   2.454   9.837   6.230  3.4164 -1.5568  0.1194
  736MOL0     H97124   2.252   9.618   6.312 -1.6386 -0.3086  0.4040
  736MOL0     H97125   2.332   9.719   6.437 -2.3756 -0.9196  0.5776
  736MOL0     H97126   2.145   9.836   6.225 -2.5062 -0.9298  0.3104
  736MOL0     H97127   2.225   9.929   6.341 -1.0980 -0.0150  0.1845
  736MOL0     H97128   2.122   9.835   6.529  0.7512 -1.9366 -0.1622
  736MOL0     H97129   2.044   9.704   6.442 -1.1385  0.5977 -0.2982
  736MOL0     H97130   2.012   9.998   6.377 -2.8252  1.4951  2.1029
  736MOL0     H97131   1.912   9.867   6.299 -0.8305  1.3276 -0.7557
  736MOL0     H97132   1.919   9.968   6.582  0.6904 -0.9078 -0.2828
  736MOL0     H97133   1.828   9.828   6.547  1.7381  1.2268  3.0003
  736MOL0     H97134   2.804   9.924   6.003  3.2035  1.7452  1.5325
  736MOL0     H97135   3.032   9.911   5.919 -1.1578  0.7707  1.0869
  736MOL0     H97136   3.482   9.446   5.968  0.4787  1.9711  4.2432
  736MOL0     H97137   3.709   9.473   5.887 -0.8711 -1.7310 -1.5039
  736MOL0     H97138   5.730  10.115   6.311 -1.8131 -3.3480  4.5726
  736MOL0     H97139   5.961  10.139   6.247 -1.1367  1.0361  2.4842
  736MOL0     H97140   6.349   9.800   5.823 -0.1758 -1.2471  0.5413
  736MOL0     H97141   6.558   9.896   5.751  0.0622 -0.6435  0.4758
  736MOL0     H97142   6.562  10.262   5.699 -2.4065 -1.9554 -1.8635
  736MOL0     H97143   6.612  10.114   5.606 -0.6797  2.4107 -1.8214
  736MOL0     H97144   6.791  10.340   5.720  0.9412 -0.6672  2.6278
  736MOL0     H97145   6.845  10.172   5.684 -1.5186 -1.3191 -1.4210
  736MOL0     H97146   6.698  10.362   5.505  0.5260  0.5000 -0.1279
  736MOL0     H97147   6.747  10.201   5.447  1.1562 -2.0354  0.9138
  736MOL0     H97148   6.943  10.404   5.551  1.7544 -1.3675  0.0820
  736MOL0     H97149   6.988  10.246   5.485  1.6557  0.2153 -0.6383
  736MOL0     H97150   6.950  10.491   5.135  0.1059  1.0985  0.8687
  736MOL0     H97151   6.491  10.254   5.973 -0.9974  0.8221 -2.7477
  736MOL0     H97152   6.268  10.157   6.060 -0.7009  2.1257 -2.0610
  737MOL0     O97153   9.665  11.202   7.948  0.4777  0.2730  0.3988
  737MOL0     C97154   9.666  11.302   7.874  0.3307 -0.1502  0.1932
  737MOL0     O97155   9.561  11.379   7.845  0.5751 -0.8276  0.2808
  737MOL0     C97156   9.445  11.359   7.910 -0.5460  0.5406 -0.7489
  737MOL0     C97157   9.328  11.306   7.844 -0.1223  0.1636 -0.2077
  737MOL0     C97158   9.211  11.282   7.910  0.0714  0.9723  0.0399
  737MOL0     C97159   9.198  11.296   8.044 -0.4343  0.4508  0.3526
  737MOL0     O97160   9.080  11.267   8.102 -0.2792 -0.4021 -0.3331
  737MOL0     C97161   9.029  11.365   8.195 -0.2613  0.0020 -0.9637
  737MOL0     C97162   8.991  11.498   8.140  0.1220  0.0824 -0.8325
  737MOL0     C97163   8.958  11.575   8.270 -0.0901  0.0638 -0.8931
  737MOL0     C97164   8.858  11.684   8.222  0.1773  0.5136 -0.2033
  737MOL0     C97165   8.809  11.766   8.336  0.0468  0.2316  0.5480
  737MOL0     C97166   8.709  11.867   8.283 -0.7946  0.0615  0.3495
  737MOL0     C97167   8.658  11.958   8.392 -0.1297  0.3105 -0.5551
  737MOL0     C97168   8.566  11.880   8.495 -0.3054 -0.5164 -0.4277
  737MOL0     N97169   8.424  11.903   8.465  0.3047  0.7101  0.1895
  737MOL0     C97170   8.353  11.847   8.365  0.3894 -0.3740  0.5113
  737MOL0     C97171   8.231  11.900   8.371 -0.1172  0.9133 -1.3994
  737MOL0     C97172   8.108  11.849   8.287  0.7476 -0.3820  0.1760
  737MOL0     C97173   7.980  11.931   8.297 -0.4652  0.4430  0.4514
  737MOL0     C97174   7.855  11.887   8.223  0.0697 -0.0343 -0.3581
  737MOL0     C97175   7.730  11.988   8.259 -0.0982  0.3181  0.1472
  737MOL0     O97176   7.617  11.947   8.180  0.4007  0.6133 -0.1535
  737MOL0     C97177   7.487  12.002   8.216 -0.1556 -0.3100 -0.1550
  737MOL0     C97178   7.468  12.105   8.305 -0.5979 -0.2569  0.0666
  737MOL0     C97179   7.346  12.154   8.330  0.4267 -0.4293  0.9156
  737MOL0     C97180   7.234  12.096   8.281 -0.0499  0.2453  0.8593
  737MOL0     C97181   7.096  12.129   8.322  0.0956 -0.0369 -0.1147
  737MOL0     O97182   7.094  12.229   8.411 -0.3868  0.7135  0.0882
  737MOL0     C97183   6.977  12.296   8.427 -0.4431  0.6514 -0.0425
  737MOL0     C97184   6.928  12.291   8.557 -0.8032  0.3441  0.9905
  737MOL0     C97185   6.805  12.353   8.581  0.5919 -0.1754 -1.6298
  737MOL0     C97186   6.740  12.421   8.482  0.4149 -0.7970  0.7714
  737MOL0     O97187   6.620  12.473   8.519  0.3115 -0.9979 -0.2522
  737MOL0     C97188   6.510  12.457   8.424 -0.2593 -0.0741 -0.7670
  737MOL0     C97189   6.416  12.345   8.466  0.6004 -0.2192  0.3872
  737MOL0     C97190   6.267  12.346   8.407  0.8293 -0.7338 -0.5199
  737MOL0     C97191   6.286  12.301   8.263 -0.2478  0.4948 -0.5356
  737MOL0     C97192   6.158  12.316   8.178 -1.4214 -0.4548 -0.3830
  737MOL0     C97193   6.023  12.269   8.248 -0.6772  0.2688 -0.0836
  737MOL0     C97194   5.908  12.282   8.149  0.6944 -0.7999 -0.6202
  737MOL0     C97195   5.783  12.246   8.232  0.5857 -0.1399 -0.5027
  737MOL0    Cl97196   5.646  12.295   8.137  0.3489  0.2386 -0.1327
  737MOL0     C97197   6.799  12.441   8.356 -0.8300  0.3618  0.7622
  737MOL0     C97198   6.917  12.369   8.332  0.4417 -0.3189 -0.3393
  737MOL0     O97199   6.997  12.078   8.273  0.4235 -0.6711 -0.0882
  737MOL0     C97200   7.248  11.989   8.192  0.3311 -1.1550  0.0992
  737MOL0     C97201   7.375  11.936   8.170 -0.5719  0.2459 -0.6934
  737MOL0     N97202   8.233  11.996   8.471 -0.2128 -0.6501 -0.1725
  737MOL0     N97203   8.349  11.991   8.525  0.2982  0.0741  0.1074
  737MOL0     C97204   9.310  11.351   8.111  0.0064 -0.1616 -1.0371
  737MOL0     C97205   9.431  11.386   8.043  0.1015 -0.5491  0.1514
  737MOL0     C97206   9.797  11.341   7.812 -0.3935 -0.0717  0.5526
  737MOL0     C97207   9.809  11.460   7.738 -0.4040 -0.4098 -0.2590
  737MOL0     C97208   9.942  11.505   7.703 -0.9791 -0.7984  0.4687
  737MOL0     C97209  10.056  11.425   7.718  0.2821  0.4745 -0.0024
  737MOL0     O97210  10.177  11.463   7.675 -0.7033  0.0385  0.1042
  737MOL0     C97211  10.283  11.426   7.766 -0.7063  0.4722  0.8166
  737MOL0     C97212  10.400  11.532   7.756 -0.9650 -0.9916 -0.3400
  737MOL0     C97213  10.494  11.504   7.880  0.3424  0.1439 -0.2145
  737MOL0     C97214  10.628  11.578   7.876 -0.2325  0.2305 -0.4538
  737MOL0     C97215  10.689  11.588   8.007 -0.6282  0.0369  0.2932
  737MOL0     C97216  10.749  11.579   8.109 -0.9921  0.4434  0.6494
  737MOL0     C97217  10.034  11.295   7.772 -0.3961 -0.1373  0.0918
  737MOL0     C97218   9.907  11.255   7.828 -0.5362 -0.3351 -0.1364
  737MOL0     H97219   9.334  11.296   7.736 -0.5654 -1.5321 -0.1107
  737MOL0     H97220   9.124  11.270   7.845 -0.4890 -0.0727  0.9597
  737MOL0     H97221   9.098  11.376   8.279  0.7957  0.4896 -1.8618
  737MOL0     H97222   8.934  11.323   8.229 -0.3376  1.1807  0.3274
  737MOL0     H97223   8.916  11.502   8.061  1.8155  3.7874 -2.4639
  737MOL0     H97224   9.080  11.543   8.096  0.0813 -0.8421 -1.8918
  737MOL0     H97225   9.046  11.618   8.319  1.2327 -0.8075 -2.4163
  737MOL0     H97226   8.907  11.525   8.353  0.2650  0.2106 -0.5806
  737MOL0     H97227   8.908  11.742   8.144  2.2763 -0.6294  0.2252
  737MOL0     H97228   8.776  11.635   8.168 -1.4743  0.9869  1.7590
  737MOL0     H97229   8.892  11.812   8.392 -0.8154  1.6734  0.6873
  737MOL0     H97230   8.752  11.693   8.393 -1.5905  0.2326 -1.0133
  737MOL0     H97231   8.627  11.811   8.237  2.0607 -2.0102 -2.7066
  737MOL0     H97232   8.750  11.926   8.200  0.2355  0.4834  1.1361
  737MOL0     H97233   8.747  11.992   8.447  0.8038  0.3255 -2.0236
  737MOL0     H97234   8.597  12.033   8.342 -2.2840 -2.7857 -2.9694
  737MOL0     H97235   8.587  11.918   8.595  1.2207  0.6191 -1.1463
  737MOL0     H97236   8.586  11.773   8.502  0.8266 -0.2206  3.8565
  737MOL0     H97237   8.397  11.779   8.292  1.3286 -2.6721  3.0780
  737MOL0     H97238   8.087  11.745   8.314 -3.3891  1.2586  4.6867
  737MOL0     H97239   8.133  11.856   8.181  1.3893  1.8607  0.4368
  737MOL0     H97240   8.001  12.037   8.278  0.1225  0.6123  1.8750
  737MOL0     H97241   7.960  11.932   8.405 -1.4782  0.6112  0.2750
  737MOL0     H97242   7.876  11.883   8.116  1.6672 -1.4885 -0.0270
  737MOL0     H97243   7.832  11.784   8.252  0.3247 -0.4083 -1.4671
  737MOL0     H97244   7.759  12.090   8.231  0.3709 -0.1572 -1.2366
  737MOL0     H97245   7.715  11.981   8.367  1.8549 -2.2982  0.3488
  737MOL0     H97246   7.558  12.139   8.356  0.7780 -2.7575 -0.5271
  737MOL0     H97247   7.343  12.241   8.396 -2.5137  1.6287 -1.6518
  737MOL0     H97248   6.982  12.240   8.638 -0.1941  0.1286  0.4592
  737MOL0     H97249   6.762  12.348   8.681  0.0991  0.0399 -1.8296
  737MOL0     H97250   6.539  12.438   8.320 -1.2327 -1.1716 -0.8689
  737MOL0     H97251   6.451  12.548   8.413  2.2905  1.5298 -2.1220
  737MOL0     H97252   6.397  12.342   8.574 -3.0637 -2.7240 -0.1221
  737MOL0     H97253   6.467  12.253   8.435 -0.3975 -0.3778 -0.8896
  737MOL0     H97254   6.225  12.447   8.407 -0.4874 -1.1783  2.4013
  737MOL0     H97255   6.199  12.286   8.467  0.5847  1.7261  1.8839
  737MOL0     H97256   6.355  12.374   8.220 -1.8009  1.2517 -1.8090
  737MOL0     H97257   6.319  12.197   8.260  2.8259  1.2383  1.7755
  737MOL0     H97258   6.178  12.253   8.092 -0.2425 -2.0523  1.0020
  737MOL0     H97259   6.151  12.422   8.151  1.4128 -0.0187  0.3298
  737MOL0     H97260   5.992  12.337   8.328 -2.1882 -1.3167  0.7708
  737MOL0     H97261   6.041  12.168   8.286  2.4074  1.4296  1.8716
  737MOL0     H97262   5.898  12.388   8.122  2.3993 -0.7128 -0.9915
  737MOL0     H97263   5.915  12.223   8.058 -1.0033 -1.3304 -0.4357
  737MOL0     H97264   5.780  12.307   8.324  1.4816 -1.8757  0.7347
  737MOL0     H97265   5.789  12.143   8.267 -1.7433  0.8718  3.5953
  737MOL0     H97266   6.756  12.506   8.281 -0.2091  0.0231  0.1051
  737MOL0     H97267   6.966  12.381   8.236 -0.0100 -0.5809 -0.6082
  737MOL0     H97268   7.158  11.948   8.147  0.9347  0.4770 -2.8863
  737MOL0     H97269   7.386  11.856   8.097 -0.2477  0.0996 -0.4861
  737MOL0     H97270   9.312  11.364   8.218 -5.2471  0.9483 -0.8298
  737MOL0     H97271   9.511  11.428   8.103 -1.8160  3.2555  0.3034
  737MOL0     H97272   9.723  11.526   7.735 -0.6004 -0.5481  1.5040
  737MOL0     H97273   9.943  11.607   7.666  1.0684 -1.1904 -0.7573
  737MOL0     H97274  10.320  11.326   7.742  0.2248  0.7093  1.2529
  737MOL0     H97275  10.246  11.422   7.869  1.6533 -1.0485  1.6641
  737MOL0     H97276  10.454  11.527   7.661 -2.6340  2.5912 -1.6491
  737MOL0     H97277  10.350  11.629   7.752  2.2091  0.7798 -0.4462
  737MOL0     H97278  10.511  11.397   7.898 -1.8610 -0.5167 -1.6300
  737MOL0     H97279  10.434  11.539   7.964 -0.5031 -3.1446  0.7213
  737MOL0     H97280  10.694  11.517   7.815  0.9187  1.4753 -0.5067
  737MOL0     H97281  10.611  11.678   7.834 -2.9203 -0.5999 -1.5393
  737MOL0     H97282  10.808  11.557   8.195  1.3190 -1.4133 -1.2812
  737MOL0     H97283  10.110  11.218   7.780  0.7420  0.9902  0.4987
  737MOL0     H97284   9.895  11.162   7.883  0.9482  0.1999  1.1745
  738MOL0     O97285  10.925   8.598   0.403  0.7906 -0.9536 -0.1901
  738MOL0     C97286  10.971   8.714   0.370 -0.1245  0.3447 -0.4525
  738MOL0     O97287  10.902   8.831   0.335  0.1090  0.6678 -0.6543
  738MOL0     C97288  10.767   8.844   0.345 -0.6254  0.4410  0.2418
  738MOL0     C97289  10.678   8.741   0.320  0.8353  0.0152 -0.3785
  738MOL0     C97290  10.534   8.763   0.324  0.1757 -0.2069  0.3216
  738MOL0     C97291  10.482   8.891   0.360 -0.3139 -0.4508 -0.8219
  738MOL0     O97292  10.352   8.925   0.381  0.2747  0.6092 -0.1437
  738MOL0     C97293  10.251   8.821   0.374  0.4659  1.0183  0.1819
  738MOL0     C97294  10.114   8.874   0.425  0.1395  0.9517  0.0022
  738MOL0     C97295  10.010   8.771   0.439  0.7294  0.1983 -0.1790
  738MOL0     C97296   9.869   8.809   0.484 -0.4283  0.0098  0.5242
  738MOL0     C97297   9.799   8.691   0.541  0.2108  0.4732 -0.6212
  738MOL0     C97298   9.651   8.689   0.545 -0.1036  0.7528  0.0294
  738MOL0     C97299   9.613   8.792   0.650 -0.3733  0.0585  1.0794
  738MOL0     C97300   9.463   8.813   0.652  0.3077  0.8184 -0.1020
  738MOL0     N97301   9.412   8.912   0.547 -0.4844 -0.3064  0.7546
  738MOL0     C97302   9.309   9.002   0.562 -0.2981  0.1144 -0.0154
  738MOL0     C97303   9.270   9.024   0.437  0.6615 -0.6449 -0.5666
  738MOL0     C97304   9.152   9.114   0.404 -0.3604 -0.6847 -0.5217
  738MOL0     C97305   9.030   9.040   0.348 -0.3218 -0.4439  0.1368
  738MOL0     C97306   8.920   9.152   0.348 -0.3058 -0.1614  1.0711
  738MOL0     C97307   8.789   9.097   0.274 -0.8244 -0.4658  0.1127
  738MOL0     O97308   8.805   9.089   0.131 -0.1242 -0.1493 -0.3803
  738MOL0     C97309   8.700   9.042   0.057 -0.5136 -0.6404 -0.1567
  738MOL0     C97310   8.620   8.940   0.102 -0.4908 -0.5407  0.3372
  738MOL0     C97311   8.521   8.886   0.012  0.0004  0.8157 -0.6032
  738MOL0     C97312   8.510   8.940  -0.119 -0.0147 -0.1487  0.3739
  738MOL0     C97313   8.412   8.877  -0.213 -0.1649  0.6116  1.2490
  738MOL0     O97314   8.313   8.802  -0.157  0.0037  0.2656  0.0538
  738MOL0     C97315   8.212   8.751  -0.235 -0.6077 -0.8541  0.2225
  738MOL0     C97316   8.163   8.618  -0.218 -0.6285 -0.7316 -0.3783
  738MOL0     C97317   8.044   8.584  -0.287 -0.5795  0.2593 -0.5950
  738MOL0     C97318   7.967   8.673  -0.370 -0.7372 -0.0337 -0.8223
  738MOL0     O97319   7.846   8.643  -0.434  0.0182 -0.4345 -0.1708
  738MOL0     C97320   7.773   8.561  -0.348 -0.2591  0.9232 -1.3219
  738MOL0     C97321   7.623   8.581  -0.361 -0.0589 -0.6119 -0.1015
  738MOL0     C97322   7.568   8.551  -0.496  0.6906  0.4253  1.1135
  738MOL0     C97323   7.421   8.601  -0.501 -0.0898 -0.5666 -0.0218
  738MOL0     C97324   7.345   8.563  -0.625 -0.0048  0.3044 -0.8013
  738MOL0     C97325   7.375   8.649  -0.746 -0.2590  0.3481 -0.0567
  738MOL0     C97326   7.274   8.618  -0.858  0.3754  0.5568 -0.5377
  738MOL0     C97327   7.297   8.700  -0.985  0.2649 -0.1167  0.4203
  738MOL0    Cl97328   7.457   8.682  -1.062 -0.1173 -0.2382 -0.0374
  738MOL0     C97329   8.019   8.803  -0.389 -0.0226  0.0671  0.2469
  738MOL0     C97330   8.140   8.831  -0.329 -0.2382 -0.6598 -1.0263
  738MOL0     O97331   8.434   8.882  -0.337  0.4262 -0.2436 -0.4597
  738MOL0     C97332   8.592   9.041  -0.163  0.0781  0.7649 -0.6249
  738MOL0     C97333   8.693   9.086  -0.073 -0.4043 -0.4005  0.4233
  738MOL0     N97334   9.330   8.944   0.350 -0.7417  0.8176 -0.2507
  738MOL0     N97335   9.416   8.871   0.415 -0.2751 -0.3336  1.1447
  738MOL0     C97336  10.574   8.995   0.380  0.3992  0.1590 -0.0272
  738MOL0     C97337  10.711   8.968   0.374 -0.5555 -0.1262  0.3892
  738MOL0     C97338  11.120   8.715   0.369 -0.3922  0.6188 -0.2140
  738MOL0     C97339  11.205   8.598   0.368 -0.3420  0.7174 -0.0999
  738MOL0     C97340  11.335   8.594   0.337 -0.6638 -0.0113  0.3187
  738MOL0     C97341  11.404   8.715   0.319 -0.1404 -0.0439 -0.5056
  738MOL0     O97342  11.542   8.722   0.318 -0.2693 -0.2771  0.7206
  738MOL0     C97343  11.617   8.840   0.301 -0.4388 -0.2470  0.1269
  738MOL0     C97344  11.759   8.817   0.258 -0.0154 -0.0104 -0.6842
  738MOL0     C97345  11.837   8.958   0.259 -0.3721 -0.2892  0.3324
  738MOL0     C97346  11.986   8.931   0.237  0.1570  0.3403 -0.0503
  738MOL0     C97347  12.057   9.060   0.241 -0.2147 -0.1612 -0.3620
  738MOL0     C97348  12.123   9.165   0.260  0.0755  0.6519 -0.3953
  738MOL0     C97349  11.329   8.834   0.326 -0.5375 -0.3642  0.0650
  738MOL0     C97350  11.191   8.834   0.348  0.3193 -0.4704  0.2371
  738MOL0     H97351  10.713   8.641   0.297 -0.2859 -0.7040  0.9249
  738MOL0     H97352  10.479   8.673   0.302  2.6309 -1.7694  0.1449
  738MOL0     H97353  10.285   8.736   0.433  0.6373 -0.2176 -1.6134
  738MOL0     H97354  10.238   8.785   0.271 -1.2137  1.6152  0.1475
  738MOL0     H97355  10.067   8.946   0.357 -2.5331  2.0110  2.7062
  738MOL0     H97356  10.122   8.919   0.525  3.2420  1.5518 -0.4170
  738MOL0     H97357  10.051   8.686   0.495 -2.0633 -1.3061 -0.2252
  738MOL0     H97358   9.989   8.739   0.337 -1.6963  0.4057  0.1809
  738MOL0     H97359   9.876   8.891   0.557  1.7328  1.2057 -0.9130
  738MOL0     H97360   9.819   8.845   0.394  2.1552  4.3882  0.5691
  738MOL0     H97361   9.849   8.675   0.637  0.2409 -0.4089 -0.7793
  738MOL0     H97362   9.827   8.607   0.477 -1.3520 -1.2132  0.8389
  738MOL0     H97363   9.613   8.596   0.587 -0.1069  2.3963  4.1723
  738MOL0     H97364   9.613   8.707   0.445  0.2871  3.5811  0.2832
  738MOL0     H97365   9.638   8.762   0.752  1.7596 -0.0711  0.5695
  738MOL0     H97366   9.673   8.882   0.629  1.7350 -1.2401  1.2153
  738MOL0     H97367   9.445   8.864   0.747 -2.7430 -0.2629  0.0278
  738MOL0     H97368   9.408   8.719   0.639 -1.6519  2.1372 -2.2286
  738MOL0     H97369   9.266   9.047   0.651 -4.3297 -3.4235  0.1326
  738MOL0     H97370   9.188   9.184   0.328  2.4344 -2.1052 -0.6314
  738MOL0     H97371   9.114   9.171   0.489 -1.6847 -0.9965 -0.8857
  738MOL0     H97372   8.998   8.965   0.421  1.9813 -0.6488  1.0133
  738MOL0     H97373   9.048   9.004   0.247  0.4817  0.0873  0.0768
  738MOL0     H97374   8.893   9.173   0.452  0.4979  2.0421  0.8937
  738MOL0     H97375   8.954   9.245   0.301 -0.8584  0.7430  2.3961
  738MOL0     H97376   8.708   9.161   0.310  0.0980  1.8591 -1.6685
  738MOL0     H97377   8.778   8.996   0.314  0.6662  0.1975  2.3725
  738MOL0     H97378   8.642   8.916   0.206  0.5145  3.1360  1.1121
  738MOL0     H97379   8.458   8.806   0.050 -0.6991  1.8331  0.4318
  738MOL0     H97380   8.224   8.557  -0.152  0.0457  0.5037  0.1691
  738MOL0     H97381   8.017   8.479  -0.281 -0.0002  0.0115 -1.8414
  738MOL0     H97382   7.803   8.579  -0.244  2.2717 -1.2352 -1.5435
  738MOL0     H97383   7.793   8.454  -0.359 -3.2506 -0.0047  0.8782
  738MOL0     H97384   7.613   8.689  -0.343 -0.8853 -1.1303  3.0866
  738MOL0     H97385   7.571   8.520  -0.287  0.7073 -0.7366  0.3448
  738MOL0     H97386   7.579   8.443  -0.511  3.2559  0.6807  0.6491
  738MOL0     H97387   7.619   8.608  -0.574 -2.9653  2.0143 -0.3542
  738MOL0     H97388   7.355   8.554  -0.427 -0.7593  2.3900  1.3830
  738MOL0     H97389   7.423   8.710  -0.496  1.6938 -0.6149  0.6719
  738MOL0     H97390   7.238   8.577  -0.605 -0.3291 -2.3135 -0.3536
  738MOL0     H97391   7.354   8.457  -0.650 -2.2752  0.3075 -1.8779
  738MOL0     H97392   7.474   8.622  -0.784 -0.9128 -1.6360 -0.4425
  738MOL0     H97393   7.379   8.753  -0.712  0.4082  0.8297 -1.5343
  738MOL0     H97394   7.268   8.510  -0.875  2.2765  0.3402 -0.0100
  738MOL0     H97395   7.177   8.644  -0.814  1.0279 -1.1727  2.1874
  738MOL0     H97396   7.285   8.804  -0.955  0.1271 -0.3252  1.0937
  738MOL0     H97397   7.213   8.678  -1.052  0.3132 -0.6207  0.5230
  738MOL0     H97398   7.974   8.880  -0.451  0.0564 -1.2947 -1.5834
  738MOL0     H97399   8.188   8.928  -0.341  0.6965 -0.9386  0.2681
  738MOL0     H97400   8.600   9.059  -0.270  1.3364  0.2427 -0.6266
  738MOL0     H97401   8.770   9.159  -0.093 -2.4102  1.5813 -0.5940
  738MOL0     H97402  10.533   9.095   0.391  1.5992  0.5579  1.1714
  738MOL0     H97403  10.770   9.058   0.390 -1.7733  0.5053  1.5119
  738MOL0     H97404  11.162   8.507   0.408  2.2911 -1.1083 -1.1574
  738MOL0     H97405  11.407   8.516   0.359  0.6867  1.2675  0.5655
  738MOL0     H97406  11.610   8.896   0.395 -1.4902 -2.3246  1.3517
  738MOL0     H97407  11.581   8.901   0.218 -1.0985 -0.9531 -0.1148
  738MOL0     H97408  11.807   8.749   0.329  2.3590  0.7063 -1.5015
  738MOL0     H97409  11.767   8.769   0.161 -0.3393  1.6187 -1.5515
  738MOL0     H97410  11.812   9.008   0.353 -1.0357  0.3016 -0.1491
  738MOL0     H97411  11.800   9.014   0.173 -0.2197  0.8420  0.9751
  738MOL0     H97412  12.018   8.874   0.325  2.4353  3.0208  0.9936
  738MOL0     H97413  12.005   8.877   0.143  0.2729  0.5000 -0.1194
  738MOL0     H97414  12.198   9.241   0.273 -0.6104  1.5731 -1.5890
  738MOL0     H97415  11.384   8.927   0.327  0.5834 -0.9684  2.4776
  738MOL0     H97416  11.133   8.926   0.346 -1.2127 -1.4265 -1.7347
  739MOL0     O97417   7.450   9.237   2.892  1.0953  0.5651  0.5409
  739MOL0     C97418   7.550   9.309   2.883  0.0552  0.4004  0.9368
  739MOL0     O97419   7.557   9.440   2.842 -0.0106  0.4028  0.6664
  739MOL0     C97420   7.441   9.498   2.810  0.6368 -0.3677  0.2527
  739MOL0     C97421   7.369   9.558   2.912 -0.6179  0.3757 -0.0153
  739MOL0     C97422   7.248   9.616   2.887 -1.0951  0.3704 -0.7088
  739MOL0     C97423   7.190   9.615   2.767 -0.2614  0.6697 -0.2315
  739MOL0     O97424   7.066   9.680   2.755  0.1473 -0.3532 -0.6280
  739MOL0     C97425   6.982   9.644   2.642 -1.0222  0.3441 -0.2826
  739MOL0     C97426   6.836   9.686   2.652 -0.2317  0.5011  0.4000
  739MOL0     C97427   6.759   9.577   2.725  0.4872  0.3295 -0.3036
  739MOL0     C97428   6.709   9.470   2.639 -0.4588 -0.0536 -0.5739
  739MOL0     C97429   6.659   9.346   2.704  0.7709  0.3191 -0.2297
  739MOL0     C97430   6.542   9.372   2.800  0.8254 -0.2671  0.1457
  739MOL0     C97431   6.485   9.234   2.857 -1.1106  0.4509  0.5046
  739MOL0     C97432   6.364   9.247   2.951  0.8325  1.0873 -0.3858
  739MOL0     N97433   6.273   9.363   2.923 -0.2640  0.2392  0.2647
  739MOL0     C97434   6.221   9.449   3.024  0.2168 -0.1639 -0.4043
  739MOL0     C97435   6.120   9.517   2.970  0.8634 -0.5824 -0.6311
  739MOL0     C97436   6.033   9.625   3.030 -0.2069 -0.1685 -0.0260
  739MOL0     C97437   5.893   9.596   3.039  0.3224  0.4395  0.3448
  739MOL0     C97438   5.872   9.471   3.124 -0.1691  0.1742 -0.1960
  739MOL0     C97439   5.727   9.430   3.137 -0.2846  0.6445  0.6265
  739MOL0     O97440   5.656   9.541   3.196 -0.2676 -0.2604  0.4830
  739MOL0     C97441   5.526   9.529   3.233  0.6944  0.4571 -0.3373
  739MOL0     C97442   5.481   9.619   3.324  0.4598 -0.6011  0.8603
  739MOL0     C97443   5.346   9.614   3.365 -0.1889  0.3815 -0.0179
  739MOL0     C97444   5.251   9.529   3.301  0.3627 -0.1171 -0.2564
  739MOL0     C97445   5.104   9.533   3.348 -0.7331 -0.2711 -0.1125
  739MOL0     O97446   5.069   9.626   3.446  0.1268  0.3878 -1.4579
  739MOL0     C97447   4.940   9.669   3.443  0.7359 -0.3641 -0.0455
  739MOL0     C97448   4.824   9.621   3.497 -0.9710  0.5974  0.1786
  739MOL0     C97449   4.701   9.682   3.469  0.1119  0.2403  0.4469
  739MOL0     C97450   4.690   9.799   3.396 -0.4881  0.4971  0.4308
  739MOL0     O97451   4.572   9.862   3.370  0.5513  0.2380  0.4054
  739MOL0     C97452   4.483   9.856   3.482  0.6953 -0.1645  0.0269
  739MOL0     C97453   4.360   9.939   3.447 -0.0642  0.0620  0.0683
  739MOL0     C97454   4.262   9.972   3.564  0.4916  0.7463 -0.4069
  739MOL0     C97455   4.122  10.013   3.515 -0.1014  0.2936 -0.4773
  739MOL0     C97456   4.044  10.080   3.623  0.1986 -0.0732  0.0439
  739MOL0     C97457   3.904  10.108   3.571  0.1504 -0.2478  0.2289
  739MOL0     C97458   3.833  10.195   3.672 -0.5045 -0.6056 -0.4235
  739MOL0     C97459   3.689  10.195   3.657 -0.6346  0.0706 -0.2084
  739MOL0    Cl97460   3.631  10.190   3.484  0.1016  0.0800  0.3651
  739MOL0     C97461   4.804   9.846   3.337  0.1110 -0.0423  0.2085
  739MOL0     C97462   4.927   9.789   3.358  0.7209  0.1450 -1.2234
  739MOL0     O97463   5.032   9.454   3.296  0.0250  0.5891 -0.0841
  739MOL0     C97464   5.300   9.442   3.206 -0.1593 -0.1373 -0.2183
  739MOL0     C97465   5.442   9.442   3.173 -0.4051  0.4350 -0.0082
  739MOL0     N97466   6.124   9.477   2.837  0.2240  0.5948  0.6306
  739MOL0     N97467   6.205   9.393   2.810 -0.2603  0.7617 -0.4355
  739MOL0     C97468   7.256   9.563   2.653 -0.1578 -0.4796 -0.8948
  739MOL0     C97469   7.387   9.494   2.677  0.4664  0.5047  0.0202
  739MOL0     C97470   7.673   9.241   2.925 -0.0856  0.2120 -0.2578
  739MOL0     C97471   7.795   9.310   2.904 -0.6778  0.3462 -0.2442
  739MOL0     C97472   7.913   9.262   2.961 -1.0623 -1.1084 -1.3001
  739MOL0     C97473   7.916   9.161   3.060  0.8683  0.4562  0.2819
  739MOL0     O97474   8.035   9.131   3.115  0.0952 -1.0178  0.8857
  739MOL0     C97475   8.037   9.042   3.229  0.3674 -0.2108 -0.1290
  739MOL0     C97476   8.180   9.035   3.281  0.2540  0.5145  1.1525
  739MOL0     C97477   8.274   8.944   3.193 -0.1763 -0.0641 -0.5253
  739MOL0     C97478   8.290   8.980   3.054  0.3357  0.0175 -0.2016
  739MOL0     C97479   8.335   9.120   3.032 -0.4146 -0.1071  0.2690
  739MOL0     C97480   8.374   9.232   3.002 -0.0991 -0.0413  0.4589
  739MOL0     C97481   7.790   9.082   3.073 -0.0946  0.2704 -0.7370
  739MOL0     C97482   7.669   9.127   3.012 -0.5013 -0.2633 -0.3769
  739MOL0     H97483   7.408   9.561   3.013  1.7258 -1.5105 -0.7840
  739MOL0     H97484   7.179   9.667   2.953 -1.6362 -0.3170 -0.7343
  739MOL0     H97485   6.988   9.537   2.620  2.4206  0.3254  0.1919
  739MOL0     H97486   7.017   9.686   2.547  0.1464 -0.3804 -0.1894
  739MOL0     H97487   6.789   9.711   2.556 -1.8253  1.8372  1.4584
  739MOL0     H97488   6.838   9.787   2.696  0.6638  0.9873 -0.6991
  739MOL0     H97489   6.679   9.633   2.774  1.3656 -1.0978  3.0065
  739MOL0     H97490   6.823   9.526   2.798 -0.4672  0.1154  0.4054
  739MOL0     H97491   6.632   9.526   2.584 -1.6006  1.4034  2.3024
  739MOL0     H97492   6.784   9.431   2.570 -1.5525 -0.3277 -1.6474
  739MOL0     H97493   6.737   9.289   2.755  0.3303 -2.0868 -2.0730
  739MOL0     H97494   6.615   9.280   2.629  1.9475 -0.0975 -0.5662
  739MOL0     H97495   6.459   9.429   2.757 -1.5201 -2.7515  1.0960
  739MOL0     H97496   6.582   9.423   2.889 -0.0305  0.9445 -0.1357
  739MOL0     H97497   6.460   9.170   2.772 -1.0298  0.7271  0.2732
  739MOL0     H97498   6.569   9.196   2.917 -0.9155  3.5968  2.4388
  739MOL0     H97499   6.393   9.253   3.056 -0.1568 -0.6140  0.0135
  739MOL0     H97500   6.300   9.159   2.945 -0.7213  2.1851 -0.7461
  739MOL0     H97501   6.245   9.449   3.130 -2.1743  0.0475  0.2027
  739MOL0     H97502   6.050   9.711   2.965  2.0704 -1.0116 -0.6315
  739MOL0     H97503   6.078   9.659   3.123  2.2416  4.7434 -2.5737
  739MOL0     H97504   5.849   9.583   2.940 -0.3700  2.2306  0.3732
  739MOL0     H97505   5.834   9.679   3.079 -0.7070 -0.1193  0.0126
  739MOL0     H97506   5.933   9.395   3.076  2.0302  2.4766 -1.2917
  739MOL0     H97507   5.899   9.496   3.227 -3.3254 -4.3244  2.0620
  739MOL0     H97508   5.721   9.344   3.204 -2.3869  0.8724  0.7803
  739MOL0     H97509   5.686   9.394   3.042  0.2506 -1.6861  1.2045
  739MOL0     H97510   5.552   9.682   3.376 -0.1816  1.3147 -0.5050
  739MOL0     H97511   5.304   9.673   3.446 -0.7714 -0.4390  0.2950
  739MOL0     H97512   4.825   9.530   3.556 -0.2314 -0.6245 -1.6267
  739MOL0     H97513   4.620   9.625   3.515 -0.6376  0.3611 -0.6958
  739MOL0     H97514   4.516   9.896   3.578 -1.8446  1.1022  0.4536
  739MOL0     H97515   4.450   9.752   3.492 -0.3481  0.2240  0.7350
  739MOL0     H97516   4.304   9.886   3.370 -1.9765 -0.9910  2.0553
  739MOL0     H97517   4.405  10.031   3.409 -0.6487  0.8285  1.1643
  739MOL0     H97518   4.304  10.048   3.630 -1.5979  1.1048  0.6086
  739MOL0     H97519   4.239   9.880   3.619  0.8749 -0.5763 -2.3793
  739MOL0     H97520   4.129  10.076   3.425  2.2746  1.6940  0.5997
  739MOL0     H97521   4.066   9.922   3.493 -1.3306  0.8923  0.0569
  739MOL0     H97522   4.087  10.177   3.647 -2.7208  2.3582 -3.5638
  739MOL0     H97523   4.038  10.018   3.713 -0.6794 -2.0586 -1.3064
  739MOL0     H97524   3.853  10.014   3.549  2.7853 -1.5231 -0.8605
  739MOL0     H97525   3.915  10.166   3.479  1.9097 -2.3691 -0.9804
  739MOL0     H97526   3.850  10.151   3.771 -0.2293  0.1289 -0.1395
  739MOL0     H97527   3.871  10.297   3.669 -0.4528 -0.6425 -1.6014
  739MOL0     H97528   3.657  10.283   3.715  2.9943  1.3964  0.0540
  739MOL0     H97529   3.646  10.105   3.702  2.0820 -1.0867  0.2875
  739MOL0     H97530   4.809   9.929   3.268  1.9719 -0.6825 -0.4721
  739MOL0     H97531   5.016   9.840   3.322 -0.7968  0.7778 -4.4792
  739MOL0     H97532   5.228   9.384   3.151 -0.0869 -0.2720 -0.1713
  739MOL0     H97533   5.476   9.372   3.097  0.4428 -0.6032  1.2776
  739MOL0     H97534   7.211   9.570   2.555  1.2433 -0.0337 -1.5301
  739MOL0     H97535   7.430   9.445   2.590 -1.0008  3.7720 -2.7916
  739MOL0     H97536   7.808   9.396   2.840  1.5478 -1.3852 -2.2972
  739MOL0     H97537   8.010   9.310   2.953 -2.1424  1.5756  0.4001
  739MOL0     H97538   7.999   8.942   3.208 -0.5371  0.3727 -1.4409
  739MOL0     H97539   7.970   9.087   3.302 -1.8583 -1.9283 -0.9944
  739MOL0     H97540   8.209   9.140   3.278  0.9652  0.3528  2.0168
  739MOL0     H97541   8.187   8.996   3.383  1.4209  0.3753  1.0244
  739MOL0     H97542   8.235   8.842   3.196 -2.7565  0.7823 -2.1663
  739MOL0     H97543   8.370   8.954   3.246 -0.4320 -1.6586  0.2968
  739MOL0     H97544   8.361   8.909   3.010  1.3039 -1.7267  3.7430
  739MOL0     H97545   8.202   8.958   2.993  1.1385 -1.5243 -0.8614
  739MOL0     H97546   8.409   9.329   2.973  0.7084 -0.2840  0.5846
  739MOL0     H97547   7.784   9.001   3.144 -0.8242 -0.4239 -1.5686
  739MOL0     H97548   7.583   9.061   3.025 -0.9431  0.2688 -0.5819
  740MOL0     O97549   0.839  10.305   6.612 -0.7999 -0.4153 -0.8356
  740MOL0     C97550   0.864  10.280   6.730 -0.4113 -0.3165  0.4748
  740MOL0     O97551   0.793  10.192   6.802  0.5312  0.1146  0.1266
  740MOL0     C97552   0.705  10.109   6.745  0.2481  0.4222  0.6551
  740MOL0     C97553   0.751   9.997   6.662 -0.2159  0.8524  0.0525
  740MOL0     C97554   0.658   9.896   6.625  0.4049  0.0473 -0.1462
  740MOL0     C97555   0.527   9.905   6.656 -0.3519  0.5142 -1.0582
  740MOL0     O97556   0.445   9.812   6.609  0.5808  0.0850  0.1500
  740MOL0     C97557   0.299   9.817   6.635  0.2299 -0.7583 -0.2136
  740MOL0     C97558   0.254   9.680   6.601  0.4690 -0.2085  0.0248
  740MOL0     C97559   0.103   9.674   6.586 -0.4134  0.4996  0.1965
  740MOL0     C97560   0.069   9.521   6.552 -0.3708 -1.0145 -0.3270
  740MOL0     C97561  -0.080   9.521   6.523 -0.5652  0.1020 -0.3966
  740MOL0     C97562  -0.135   9.400   6.439 -0.6340 -0.3696  0.3815
  740MOL0     C97563  -0.284   9.398   6.438 -0.7344  0.9322 -0.5158
  740MOL0     C97564  -0.333   9.259   6.383  0.8467 -0.3731  0.8520
  740MOL0     N97565  -0.482   9.270   6.378 -0.0116 -0.3426  1.2368
  740MOL0     C97566  -0.541   9.311   6.251  0.8166  0.1780 -0.2897
  740MOL0     C97567  -0.674   9.311   6.282 -0.2788 -0.2132 -0.4261
  740MOL0     C97568  -0.781   9.355   6.183 -0.3475 -0.1526  0.4318
  740MOL0     C97569  -0.925   9.335   6.227  0.2656  0.5331  0.4343
  740MOL0     C97570  -0.967   9.192   6.233  0.1142 -0.0739  0.5047
  740MOL0     C97571  -1.110   9.176   6.270 -0.1680 -0.2874 -0.4569
  740MOL0     O97572  -1.183   9.093   6.172 -0.2389 -0.5275 -0.2493
  740MOL0     C97573  -1.307   9.055   6.208  0.3306 -0.8904 -0.2793
  740MOL0     C97574  -1.386   9.121   6.304 -0.2642  1.1913 -0.0282
  740MOL0     C97575  -1.520   9.077   6.331  0.6962 -0.5709  0.6720
  740MOL0     C97576  -1.580   8.973   6.254 -0.2064 -0.2062  0.2098
  740MOL0     C97577  -1.715   8.919   6.274  0.2495 -0.9715 -0.5443
  740MOL0     O97578  -1.799   8.987   6.365 -0.2028  0.3695 -0.9840
  740MOL0     C97579  -1.931   8.980   6.349  0.6082 -0.0348  0.3973
  740MOL0     C97580  -1.999   9.032   6.234 -0.4342  0.3532  0.8124
  740MOL0     C97581  -2.141   9.025   6.232  0.1445  0.3883 -1.2109
  740MOL0     C97582  -2.209   8.973   6.343 -0.0250  0.9261 -0.1291
  740MOL0     O97583  -2.344   8.960   6.352  1.1265 -0.4454 -0.3637
  740MOL0     C97584  -2.410   8.943   6.230 -0.4498  0.0112  0.4234
  740MOL0     C97585  -2.553   8.892   6.257  0.6863  0.0838 -0.0105
  740MOL0     C97586  -2.665   8.924   6.155 -0.6357  0.0077 -1.0145
  740MOL0     C97587  -2.706   9.078   6.161  0.2260 -0.3473  0.0929
  740MOL0     C97588  -2.792   9.132   6.051  1.2170 -0.5679  0.5009
  740MOL0     C97589  -2.929   9.074   6.043  0.3745  0.2031  0.3350
  740MOL0     C97590  -3.014   9.123   5.925 -0.2930 -0.7100 -0.3084
  740MOL0     C97591  -3.136   9.038   5.906  0.2664  0.1443 -0.0718
  740MOL0    Cl97592  -3.233   9.083   5.761 -0.5408  0.1636 -0.8603
  740MOL0     C97593  -2.139   8.940   6.452  0.5446  0.2401  0.1351
  740MOL0     C97594  -2.004   8.941   6.463 -0.5125 -0.0044 -0.4861
  740MOL0     O97595  -1.756   8.835   6.200  0.0097 -0.0840 -0.1083
  740MOL0     C97596  -1.497   8.900   6.166 -0.9675 -0.5709  0.4249
  740MOL0     C97597  -1.360   8.934   6.152 -0.0020 -0.6100 -0.1310
  740MOL0     N97598  -0.685   9.282   6.416 -0.5786 -0.4566  0.7512
  740MOL0     N97599  -0.576   9.259   6.473 -0.8235  0.1072  0.0750
  740MOL0     C97600   0.483  10.010   6.737 -0.0457 -0.6322  0.2992
  740MOL0     C97601   0.570  10.114   6.786 -0.3130  0.3050 -0.6286
  740MOL0     C97602   0.978  10.349   6.792  0.2781  0.6988 -0.3259
  740MOL0     C97603   1.059  10.443   6.729 -0.4608  0.8974 -0.6428
  740MOL0     C97604   1.166  10.501   6.790 -0.1369  0.0141  0.7403
  740MOL0     C97605   1.182  10.480   6.924  0.5854 -0.3077  0.5970
  740MOL0     O97606   1.280  10.534   7.006 -0.6519  0.2817  0.1424
  740MOL0     C97607   1.402  10.593   6.948 -0.1237 -0.7040  0.2855
  740MOL0     C97608   1.490  10.684   7.039  0.3926 -0.1973 -0.4289
  740MOL0     C97609   1.525  10.618   7.171  0.5664  0.0457  0.3852
  740MOL0     C97610   1.619  10.501   7.154  0.4431  0.0935  0.2172
  740MOL0     C97611   1.736  10.523   7.069  0.1923  0.0776  0.4694
  740MOL0     C97612   1.842  10.520   7.008 -0.1721  0.2563  0.4225
  740MOL0     C97613   1.097  10.386   6.989 -0.1667 -0.1430  0.1540
  740MOL0     C97614   1.005  10.310   6.926 -0.1006  0.5904  0.0800
  740MOL0     H97615   0.857   9.994   6.639 -0.3491  2.2888 -0.8452
  740MOL0     H97616   0.704   9.819   6.565  3.7501 -1.3805  3.7404
  740MOL0     H97617   0.248   9.889   6.570  1.9716 -0.2180 -1.0253
  740MOL0     H97618   0.262   9.837   6.736 -2.7365 -2.2102 -0.8948
  740MOL0     H97619   0.290   9.612   6.679  0.1216  0.4769  0.7913
  740MOL0     H97620   0.299   9.653   6.504  0.3114  0.2040 -0.1656
  740MOL0     H97621   0.074   9.746   6.509  0.0206  0.0890 -0.3645
  740MOL0     H97622   0.055   9.719   6.673 -1.1501  1.1131 -0.5086
  740MOL0     H97623   0.129   9.481   6.469  2.1143  0.0232  0.8502
  740MOL0     H97624   0.094   9.462   6.641  0.4040  1.8620  1.4845
  740MOL0     H97625  -0.104   9.606   6.459  0.2963  0.8650  0.2702
  740MOL0     H97626  -0.130   9.532   6.619  1.1226  1.8631  0.3413
  740MOL0     H97627  -0.110   9.300   6.477 -5.5935 -1.9754  0.2339
  740MOL0     H97628  -0.099   9.417   6.338 -0.1979 -0.3927  0.5316
  740MOL0     H97629  -0.322   9.406   6.540 -0.6375 -0.6323 -0.3229
  740MOL0     H97630  -0.316   9.475   6.367  3.9822  1.5795 -2.3057
  740MOL0     H97631  -0.303   9.176   6.447  2.1768 -1.8299 -1.5016
  740MOL0     H97632  -0.291   9.241   6.283  0.5716 -0.1916  0.7025
  740MOL0     H97633  -0.493   9.313   6.154 -1.4662 -3.3292 -1.6597
  740MOL0     H97634  -0.760   9.308   6.087  0.2977  2.9716 -1.0631
  740MOL0     H97635  -0.780   9.464   6.173 -2.4240 -0.2453 -1.4948
  740MOL0     H97636  -0.981   9.381   6.145  0.8007 -0.2312 -0.3794
  740MOL0     H97637  -0.963   9.386   6.316 -3.6899 -0.4402 -0.4806
  740MOL0     H97638  -0.947   9.145   6.136 -0.1369  0.4918  0.1751
  740MOL0     H97639  -0.911   9.147   6.315 -0.7013  0.6708  1.4851
  740MOL0     H97640  -1.162   9.273   6.269  0.0146 -0.1893 -0.5268
  740MOL0     H97641  -1.121   9.136   6.371  2.2734 -0.5183 -0.2368
  740MOL0     H97642  -1.344   9.201   6.364  3.2056 -0.0906 -0.5667
  740MOL0     H97643  -1.593   9.132   6.390  0.7060  0.6355 -0.4101
  740MOL0     H97644  -1.948   9.067   6.145  1.2838 -3.9002 -0.0870
  740MOL0     H97645  -2.184   9.067   6.141  1.2726  1.1155 -1.4351
  740MOL0     H97646  -2.360   8.863   6.176 -0.5796  0.1905  0.0363
  740MOL0     H97647  -2.424   9.041   6.182  0.9405  2.2063  4.0504
  740MOL0     H97648  -2.584   8.941   6.350 -3.8825 -0.4246 -1.0431
  740MOL0     H97649  -2.549   8.783   6.263 -2.9321 -0.1696  0.1769
  740MOL0     H97650  -2.751   8.859   6.173 -1.2998  0.9671 -0.6120
  740MOL0     H97651  -2.622   8.902   6.057  1.4364  3.7256 -1.1333
  740MOL0     H97652  -2.756   9.088   6.258  1.4221  2.2752  0.5287
  740MOL0     H97653  -2.614   9.136   6.172  0.8745 -1.1807 -0.7560
  740MOL0     H97654  -2.747   9.113   5.953 -2.4963 -2.7470 -0.9642
  740MOL0     H97655  -2.804   9.241   6.060  3.8081 -0.2960  1.5584
  740MOL0     H97656  -2.978   9.107   6.136 -1.3045  1.5735 -0.9747
  740MOL0     H97657  -2.910   8.967   6.043 -0.4061  0.0634 -0.1457
  740MOL0     H97658  -3.034   9.230   5.930  1.3036 -0.4207  0.2627
  740MOL0     H97659  -2.945   9.106   5.842 -0.1589 -0.7450 -0.1903
  740MOL0     H97660  -3.203   9.053   5.991  1.0130  0.1958  0.5122
  740MOL0     H97661  -3.109   8.932   5.906  3.6555  0.8325 -3.0489
  740MOL0     H97662  -2.197   8.896   6.533 -0.8045 -0.1094 -0.9835
  740MOL0     H97663  -1.953   8.916   6.556 -2.3040  0.5225  0.6980
  740MOL0     H97664  -1.543   8.818   6.114 -2.5004 -0.3663  1.3974
  740MOL0     H97665  -1.294   8.881   6.084  0.6078 -0.2942  0.2090
  740MOL0     H97666   0.377  10.024   6.760 -0.2508 -0.4607 -0.7141
  740MOL0     H97667   0.525  10.196   6.841 -1.2015 -1.2107  0.9920
  740MOL0     H97668   1.058  10.469   6.623 -1.8785  2.7110 -0.2325
  740MOL0     H97669   1.234  10.566   6.736 -0.6373 -0.5090 -0.5492
  740MOL0     H97670   1.389  10.661   6.863  1.1664 -0.1680  0.4890
  740MOL0     H97671   1.461  10.511   6.907 -2.1874 -1.4132 -1.4650
  740MOL0     H97672   1.584  10.708   6.987  0.9596  0.3504  0.8230
  740MOL0     H97673   1.446  10.782   7.059 -0.2866 -0.9247  2.0142
  740MOL0     H97674   1.428  10.583   7.206  0.0431  0.3144 -0.7340
  740MOL0     H97675   1.559  10.695   7.241  2.0272  0.9561 -1.2451
  740MOL0     H97676   1.643  10.476   7.258 -0.6999 -0.5387  0.3480
  740MOL0     H97677   1.557  10.417   7.123 -0.6348  0.9906 -0.1282
  740MOL0     H97678   1.928  10.496   6.949 -0.1827  3.8805 -1.3475
  740MOL0     H97679   1.104  10.381   7.097 -5.4284  0.2484  0.7730
  740MOL0     H97680   0.928  10.259   6.981  0.0434  0.2954  0.0099
  741MOL0     O97681   4.389   1.197   8.655  0.0102 -0.3964  0.1061
  741MOL0     C97682   4.429   1.085   8.644 -0.9797 -0.6138 -0.0374
  741MOL0     O97683   4.362   0.972   8.687  0.2732 -0.2315  0.3330
  741MOL0     C97684   4.232   0.978   8.736 -0.8721  0.2377 -0.1344
  741MOL0     C97685   4.136   1.058   8.677 -0.6784  0.1278  0.1463
  741MOL0     C97686   4.025   1.083   8.742  0.2044 -0.0965  0.1644
  741MOL0     C97687   3.998   1.008   8.862  0.3228 -1.2109  0.5280
  741MOL0     O97688   3.879   1.035   8.922  0.0043  0.0477  0.4495
  741MOL0     C97689   3.765   0.973   8.860 -0.5022  0.4437  0.2634
  741MOL0     C97690   3.727   0.843   8.929 -0.0063 -1.1692  0.6305
  741MOL0     C97691   3.610   0.766   8.866  0.0136  0.2574 -0.8779
  741MOL0     C97692   3.646   0.712   8.724  0.0390  0.0399 -0.0333
  741MOL0     C97693   3.523   0.709   8.643  0.4986  0.5334  0.2565
  741MOL0     C97694   3.463   0.843   8.611  0.1864  0.5720  0.4558
  741MOL0     C97695   3.351   0.842   8.500 -0.6578 -0.4161  0.2021
  741MOL0     C97696   3.400   0.797   8.362  0.4342  0.0550  0.4163
  741MOL0     N97697   3.395   0.650   8.348 -0.1383 -0.4752  0.4883
  741MOL0     C97698   3.333   0.559   8.428  0.1891 -0.4718  0.3604
  741MOL0     C97699   3.332   0.442   8.356  0.1215  0.3597 -0.8068
  741MOL0     C97700   3.277   0.306   8.399 -0.2374 -0.3096 -0.1614
  741MOL0     C97701   3.143   0.274   8.329 -0.6488  0.0031  1.3759
  741MOL0     C97702   3.073   0.144   8.377 -0.2560 -0.3430 -0.1128
  741MOL0     C97703   2.971   0.163   8.493 -0.5314  0.1072 -0.6182
  741MOL0     O97704   2.892   0.278   8.449  0.3833  0.3842 -0.5588
  741MOL0     C97705   2.806   0.336   8.542  0.8795  0.4193 -0.0824
  741MOL0     C97706   2.749   0.456   8.505  0.5097  0.3680  0.8186
  741MOL0     C97707   2.647   0.523   8.579 -0.1172 -0.1294  0.4055
  741MOL0     C97708   2.608   0.468   8.706 -0.0552  0.8023  0.8515
  741MOL0     C97709   2.503   0.539   8.773  0.4296 -0.3647 -0.5802
  741MOL0     O97710   2.447   0.478   8.890  0.1564  0.2635  0.3370
  741MOL0     C97711   2.321   0.501   8.942  0.0943 -0.1639 -0.2418
  741MOL0     C97712   2.289   0.445   9.066 -0.2959 -0.0055 -0.3986
  741MOL0     C97713   2.164   0.449   9.122  0.5540  0.4324  0.3319
  741MOL0     C97714   2.062   0.524   9.065  0.5983  0.5049 -0.1843
  741MOL0     O97715   1.940   0.514   9.135 -0.6051  0.4849  0.2200
  741MOL0     C97716   1.838   0.605   9.091  0.4146  0.7030 -0.7311
  741MOL0     C97717   1.709   0.572   9.161  0.2521 -0.0304  0.3596
  741MOL0     C97718   1.582   0.646   9.104 -0.3086  0.8069  1.0634
  741MOL0     C97719   1.469   0.576   9.178  0.2838 -0.9678  0.3891
  741MOL0     C97720   1.337   0.649   9.148 -0.4411  0.4563 -0.5189
  741MOL0     C97721   1.228   0.609   9.249  0.8623  1.1340  0.6217
  741MOL0     C97722   1.094   0.662   9.196 -1.2316  0.6399 -0.1627
  741MOL0     C97723   0.987   0.560   9.237  0.4354 -0.5750  0.7010
  741MOL0    Cl97724   0.829   0.649   9.208  0.2225 -0.1041 -0.1433
  741MOL0     C97725   2.089   0.592   8.947  0.4626 -0.2194  0.2717
  741MOL0     C97726   2.218   0.585   8.889 -0.3233  0.5410  0.0054
  741MOL0     O97727   2.477   0.652   8.727 -0.1735 -0.0371 -0.1326
  741MOL0     C97728   2.680   0.349   8.754 -0.3240 -0.2596  0.2321
  741MOL0     C97729   2.773   0.281   8.672 -0.0323  0.0867  0.5153
  741MOL0     N97730   3.402   0.463   8.240  0.6441 -0.2754  0.2900
  741MOL0     N97731   3.444   0.585   8.239  0.6063 -0.3540  0.0619
  741MOL0     C97732   4.085   0.918   8.914 -0.5369 -0.0312  0.8227
  741MOL0     C97733   4.209   0.908   8.860  0.2769 -0.8512 -0.3062
  741MOL0     C97734   4.557   1.070   8.578  0.0659  0.6430  0.3530
  741MOL0     C97735   4.639   1.183   8.546 -0.7267 -0.7431 -0.0124
  741MOL0     C97736   4.764   1.178   8.491  0.3545 -0.2556 -0.8441
  741MOL0     C97737   4.816   1.055   8.454  0.9678  0.6962 -0.2893
  741MOL0     O97738   4.937   1.065   8.399 -0.1046  0.4741  0.4672
  741MOL0     C97739   5.006   0.938   8.375  0.1440 -0.5818 -0.7713
  741MOL0     C97740   4.964   0.869   8.236 -0.0678  0.1056 -0.2237
  741MOL0     C97741   5.044   0.937   8.125  0.4319  0.2180 -0.4119
  741MOL0     C97742   5.044   0.842   8.009  0.2657  0.5274  0.2212
  741MOL0     C97743   4.910   0.825   7.948  0.2234 -0.5128 -0.6008
  741MOL0     C97744   4.810   0.829   7.876 -0.5626 -0.3382  1.0116
  741MOL0     C97745   4.745   0.936   8.479  0.3315  0.1718 -0.1105
  741MOL0     C97746   4.617   0.944   8.535 -1.0740  0.8507  0.0883
  741MOL0     H97747   4.173   1.116   8.592  3.3624 -2.2575 -0.0086
  741MOL0     H97748   3.949   1.157   8.718  1.4174  0.6566 -1.5751
  741MOL0     H97749   3.784   0.970   8.752  2.2465 -0.8765  0.6793
  741MOL0     H97750   3.677   1.038   8.867 -0.2582  0.9418 -1.0133
  741MOL0     H97751   3.704   0.866   9.033 -2.7376  2.0826 -0.5203
  741MOL0     H97752   3.821   0.787   8.919  0.1688 -0.5345 -2.1442
  741MOL0     H97753   3.514   0.819   8.865  1.2532  3.2292  3.8474
  741MOL0     H97754   3.589   0.675   8.923  0.6565 -1.0516 -2.6179
  741MOL0     H97755   3.727   0.773   8.682 -0.3572  0.9918  0.5563
  741MOL0     H97756   3.683   0.610   8.718  0.6519  0.2068  0.8751
  741MOL0     H97757   3.451   0.651   8.703  2.0577 -3.0430 -1.0402
  741MOL0     H97758   3.541   0.648   8.554  2.3578 -2.8148  2.7067
  741MOL0     H97759   3.547   0.905   8.579 -0.7272  2.1524  0.9985
  741MOL0     H97760   3.424   0.893   8.700  1.9658  1.0144  1.0336
  741MOL0     H97761   3.270   0.777   8.536 -1.2152 -2.7932 -4.5754
  741MOL0     H97762   3.313   0.944   8.492 -0.5135 -0.4008 -0.3532
  741MOL0     H97763   3.498   0.839   8.338  0.4418  0.2637  0.8010
  741MOL0     H97764   3.333   0.842   8.288  2.0218  0.5524 -0.7641
  741MOL0     H97765   3.289   0.570   8.527 -0.3721  1.4353 -0.0526
  741MOL0     H97766   3.262   0.314   8.507  0.6613  1.1952 -0.1286
  741MOL0     H97767   3.357   0.233   8.383 -1.5954 -2.1895  1.1159
  741MOL0     H97768   3.173   0.276   8.224 -1.3145  0.8699  1.1858
  741MOL0     H97769   3.089   0.368   8.346  2.4876  2.1651  0.2618
  741MOL0     H97770   3.015   0.101   8.294 -1.4127  0.5681  0.1982
  741MOL0     H97771   3.151   0.070   8.398  1.5736  2.1213  2.6110
  741MOL0     H97772   3.028   0.190   8.583  0.4764  1.1587 -1.5385
  741MOL0     H97773   2.913   0.071   8.504  0.8871 -0.7692 -0.0947
  741MOL0     H97774   2.790   0.493   8.412 -1.7381  1.5169  0.1978
  741MOL0     H97775   2.611   0.619   8.544 -2.1380 -0.9178  0.1732
  741MOL0     H97776   2.371   0.404   9.124  0.8689  1.1970 -1.1353
  741MOL0     H97777   2.158   0.392   9.214  2.5090  1.4131  1.1175
  741MOL0     H97778   1.828   0.592   8.983  1.8685 -0.5460 -0.7572
  741MOL0     H97779   1.866   0.707   9.119  2.0788  0.0311  0.2029
  741MOL0     H97780   1.713   0.610   9.264  0.8311 -1.2533  0.8089
  741MOL0     H97781   1.692   0.464   9.165 -0.6763  0.1372  1.9942
  741MOL0     H97782   1.592   0.646   8.995  1.0962 -0.6830  1.1546
  741MOL0     H97783   1.574   0.748   9.142 -2.8885  1.2257 -0.4202
  741MOL0     H97784   1.464   0.471   9.148  0.4017 -0.4345 -1.6496
  741MOL0     H97785   1.483   0.567   9.286 -1.4813 -3.1166  0.5023
  741MOL0     H97786   1.307   0.623   9.046 -0.0930 -4.5910  0.4114
  741MOL0     H97787   1.354   0.757   9.149  3.3853 -0.0001  1.7073
  741MOL0     H97788   1.248   0.647   9.350 -2.2339 -0.0262  1.7828
  741MOL0     H97789   1.227   0.500   9.238 -0.3836  1.0520  1.4031
  741MOL0     H97790   1.063   0.758   9.240 -2.7198  0.9435 -1.7744
  741MOL0     H97791   1.083   0.678   9.089 -0.8933  1.6031 -0.0566
  741MOL0     H97792   0.993   0.530   9.342 -2.0806 -5.4538 -0.2547
  741MOL0     H97793   0.989   0.466   9.181 -0.1942  0.2223 -0.7069
  741MOL0     H97794   2.018   0.652   8.892  2.7170  0.4870 -2.0425
  741MOL0     H97795   2.233   0.639   8.796  0.7419  1.1173  0.5020
  741MOL0     H97796   2.659   0.309   8.853 -0.3289  0.8313  0.6757
  741MOL0     H97797   2.826   0.191   8.702  2.8699  0.7662 -2.1148
  741MOL0     H97798   4.046   0.867   9.002  0.4280 -5.0490 -1.2690
  741MOL0     H97799   4.289   0.853   8.908  2.2225  0.8926 -1.4105
  741MOL0     H97800   4.604   1.282   8.572 -0.7774 -0.7289 -0.1336
  741MOL0     H97801   4.816   1.272   8.478  0.0767 -0.0644 -0.5800
  741MOL0     H97802   4.992   0.868   8.458 -0.2867 -2.6063 -2.4565
  741MOL0     H97803   5.112   0.963   8.383 -0.2024  0.6303  0.1276
  741MOL0     H97804   4.988   0.762   8.241 -1.1044 -0.1752 -0.8427
  741MOL0     H97805   4.856   0.865   8.217  0.0129  2.8465 -1.6114
  741MOL0     H97806   5.147   0.952   8.156  0.6760  0.0836 -1.1464
  741MOL0     H97807   5.002   1.031   8.089 -0.6996  0.5482  1.5999
  741MOL0     H97808   5.119   0.882   7.940  1.1527 -0.2864  0.6928
  741MOL0     H97809   5.091   0.747   8.037 -2.3900 -1.0273 -0.1713
  741MOL0     H97810   4.732   0.816   7.804  0.8895 -2.3266 -0.2778
  741MOL0     H97811   4.774   0.834   8.456 -0.4435 -0.8688  3.0059
  741MOL0     H97812   4.564   0.851   8.550 -0.8736  0.7883  0.4284
  742MOL0     O97813  11.051   0.092   7.015 -0.0810  0.4986  0.0602
  742MOL0     C97814  11.117   0.139   6.924 -0.2917 -0.0680 -0.2312
  742MOL0     O97815  11.076   0.158   6.798  0.0576 -0.3182 -0.3194
  742MOL0     C97816  10.943   0.132   6.769  0.4351  0.2533 -0.1115
  742MOL0     C97817  10.890   0.208   6.664 -0.6679 -0.2031  0.4556
  742MOL0     C97818  10.759   0.181   6.626 -0.6072 -0.5402  0.6066
  742MOL0     C97819  10.672   0.081   6.682 -0.7773 -0.6820  0.7561
  742MOL0     O97820  10.547   0.053   6.634  0.4011  0.7577 -0.7419
  742MOL0     C97821  10.494   0.134   6.528 -0.8862 -0.2904  0.3540
  742MOL0     C97822  10.357   0.092   6.481  0.4122  0.0538 -0.2731
  742MOL0     C97823  10.351  -0.054   6.420 -0.3538  0.3522  0.7542
  742MOL0     C97824  10.221  -0.075   6.354  0.9260  0.4116  0.6121
  742MOL0     C97825  10.213  -0.216   6.294  0.1212  0.5628 -0.2076
  742MOL0     C97826  10.119  -0.232   6.169 -1.0993  0.3785 -0.3733
  742MOL0     C97827  10.090  -0.383   6.122 -0.2150  0.1383 -0.6786
  742MOL0     C97828  10.207  -0.468   6.105 -0.5171  0.1032 -0.2260
  742MOL0     N97829  10.170  -0.606   6.055 -0.3545 -0.5076  0.0848
  742MOL0     C97830  10.169  -0.628   5.918 -0.3983  0.0252  0.0620
  742MOL0     C97831  10.096  -0.742   5.907 -0.2504 -0.7088  0.4601
  742MOL0     C97832  10.049  -0.810   5.773  0.9586 -0.7086 -0.1911
  742MOL0     C97833   9.923  -0.889   5.789  0.6612 -0.2552  0.1415
  742MOL0     C97834   9.803  -0.793   5.810  0.0929  0.5938  0.3513
  742MOL0     C97835   9.679  -0.872   5.846  0.8048  0.1667 -1.0756
  742MOL0     O97836   9.575  -0.788   5.896  0.1607 -0.4886  0.5424
  742MOL0     C97837   9.477  -0.761   5.812  0.7945 -0.0715  0.4390
  742MOL0     C97838   9.345  -0.756   5.873 -0.1190 -0.6294  0.0922
  742MOL0     C97839   9.227  -0.733   5.804 -0.1212 -0.4404  0.3333
  742MOL0     C97840   9.224  -0.740   5.662 -0.3857 -0.2298  0.6019
  742MOL0     C97841   9.102  -0.709   5.587  0.0307  1.0457  0.7943
  742MOL0     O97842   9.116  -0.663   5.462 -0.5318 -0.6142  0.9298
  742MOL0     C97843   9.004  -0.633   5.388 -0.5611  0.9254 -0.5636
  742MOL0     C97844   8.999  -0.694   5.267 -0.4258  0.1107  0.6503
  742MOL0     C97845   8.883  -0.674   5.181  0.6835  0.3227 -0.0095
  742MOL0     C97846   8.775  -0.600   5.227 -0.2701 -0.3739  0.7500
  742MOL0     O97847   8.660  -0.602   5.159 -0.3053 -0.8815 -0.0925
  742MOL0     C97848   8.540  -0.641   5.228  0.0058 -0.4291  0.7993
  742MOL0     C97849   8.454  -0.714   5.127  0.1787 -0.8836  0.2646
  742MOL0     C97850   8.383  -0.617   5.031  0.1822 -0.5637 -0.0024
  742MOL0     C97851   8.264  -0.679   4.961  0.2282  0.4855 -0.4980
  742MOL0     C97852   8.189  -0.574   4.871  0.1550 -0.7903  0.2934
  742MOL0     C97853   8.045  -0.624   4.849  0.6454 -0.0560  0.3155
  742MOL0     C97854   8.042  -0.751   4.762  0.3810 -0.3411 -0.5363
  742MOL0     C97855   7.900  -0.801   4.731 -0.4829 -0.4325  0.3022
  742MOL0    Cl97856   7.917  -0.912   4.597 -0.3950 -0.1141 -0.3628
  742MOL0     C97857   8.791  -0.537   5.352 -0.4997  0.3782  0.3334
  742MOL0     C97858   8.904  -0.545   5.427 -0.5276  0.0603  0.7316
  742MOL0     O97859   8.999  -0.728   5.642  0.0240 -0.1110 -0.3805
  742MOL0     C97860   9.350  -0.749   5.597  0.2159  0.3605 -0.6148
  742MOL0     C97861   9.477  -0.760   5.669  0.2732 -0.1574  0.2009
  742MOL0     N97862  10.055  -0.780   6.033 -0.1275  0.0349 -0.1478
  742MOL0     N97863  10.099  -0.697   6.122 -0.1218 -0.4888  0.3724
  742MOL0     C97864  10.727   0.018   6.790 -0.2146  0.2379  0.3577
  742MOL0     C97865  10.859   0.036   6.826  0.1943  0.3412 -0.0557
  742MOL0     C97866  11.258   0.173   6.950 -0.2211  0.1036  0.6629
  742MOL0     C97867  11.322   0.262   6.863 -0.2702 -0.1159  0.0270
  742MOL0     C97868  11.453   0.304   6.884  0.2225 -0.2788 -0.2974
  742MOL0     C97869  11.521   0.272   7.002  0.1213  0.8920 -0.0441
  742MOL0     O97870  11.638   0.343   7.021  0.0981 -0.1610 -0.7259
  742MOL0     C97871  11.736   0.288   7.111  0.3992  0.0116 -0.3632
  742MOL0     C97872  11.864   0.367   7.095 -0.1089  0.2187  0.7772
  742MOL0     C97873  11.931   0.371   6.958 -0.3199 -0.3191  0.4075
  742MOL0     C97874  12.040   0.486   6.952  0.2648 -0.1665  0.1904
  742MOL0     C97875  11.971   0.612   6.930  1.1621 -0.6815 -0.1247
  742MOL0     C97876  11.904   0.716   6.917  0.1364  0.5013  0.0798
  742MOL0     C97877  11.463   0.181   7.084 -0.7272 -0.5804  0.2215
  742MOL0     C97878  11.333   0.133   7.060  0.9751  0.5171  0.2145
  742MOL0     H97879  10.957   0.285   6.627  0.6169 -1.4101  0.1675
  742MOL0     H97880  10.723   0.251   6.552  3.3175  0.5945 -0.4625
  742MOL0     H97881  10.560   0.114   6.444  1.2345  1.3783  1.5337
  742MOL0     H97882  10.477   0.240   6.549 -0.1298  0.4635 -2.4229
  742MOL0     H97883  10.315   0.167   6.412  0.1215 -0.5438 -0.7569
  742MOL0     H97884  10.289   0.083   6.566 -1.7618 -1.1054 -2.0131
  742MOL0     H97885  10.372  -0.135   6.490  1.5425 -2.2625 -2.5401
  742MOL0     H97886  10.423  -0.055   6.337 -0.9430  2.4251  0.1583
  742MOL0     H97887  10.145  -0.059   6.430  0.3619 -1.2862  0.4437
  742MOL0     H97888  10.212  -0.007   6.268 -1.3705 -0.5403  0.0185
  742MOL0     H97889  10.178  -0.276   6.379 -0.2378  0.2328 -0.5895
  742MOL0     H97890  10.314  -0.250   6.269  2.1151  3.6399  2.7596
  742MOL0     H97891  10.170  -0.199   6.078  0.3025 -2.6476 -0.7807
  742MOL0     H97892  10.025  -0.176   6.174 -1.2157  0.1492  0.0555
  742MOL0     H97893  10.027  -0.423   6.202 -0.1070  3.2298  1.1154
  742MOL0     H97894  10.051  -0.367   6.022  0.6533  1.5839 -0.8197
  742MOL0     H97895  10.257  -0.488   6.201 -0.5398  0.6913 -0.0845
  742MOL0     H97896  10.277  -0.417   6.038  0.0337  0.8404  0.8696
  742MOL0     H97897  10.221  -0.569   5.843 -1.1099  1.2016  0.4773
  742MOL0     H97898  10.126  -0.884   5.748 -0.0306 -2.0864  0.6902
  742MOL0     H97899  10.034  -0.736   5.694  0.1698  0.4138  0.9682
  742MOL0     H97900   9.923  -0.947   5.882  1.0385 -1.6114 -0.6728
  742MOL0     H97901   9.901  -0.956   5.705 -1.9700  1.6357 -0.8223
  742MOL0     H97902   9.826  -0.709   5.876 -1.0913  2.3241 -1.3231
  742MOL0     H97903   9.783  -0.740   5.717 -0.5766  2.3325  1.4396
  742MOL0     H97904   9.699  -0.940   5.930 -1.3866 -1.6632 -1.9354
  742MOL0     H97905   9.641  -0.935   5.765  0.2602 -0.0871 -0.6252
  742MOL0     H97906   9.336  -0.761   5.981 -2.8346 -0.2809 -0.0476
  742MOL0     H97907   9.137  -0.731   5.864 -1.0235  3.6440 -0.8404
  742MOL0     H97908   9.080  -0.758   5.236 -1.1382 -1.3384  1.6552
  742MOL0     H97909   8.863  -0.722   5.086 -3.2786  1.9980 -0.1926
  742MOL0     H97910   8.478  -0.560   5.267 -1.2354 -0.7387 -0.4469
  742MOL0     H97911   8.555  -0.712   5.310  1.0957  0.1500  1.1288
  742MOL0     H97912   8.375  -0.759   5.187  0.3115 -0.5310  0.7061
  742MOL0     H97913   8.502  -0.795   5.071 -0.9491 -0.7452 -0.9449
  742MOL0     H97914   8.463  -0.582   4.965 -1.8744  0.8238 -1.9076
  742MOL0     H97915   8.337  -0.530   5.079 -2.1287 -0.5800 -2.0051
  742MOL0     H97916   8.300  -0.759   4.896  0.2007  0.1003 -0.0486
  742MOL0     H97917   8.199  -0.718   5.040 -0.8366  1.4601 -0.8634
  742MOL0     H97918   8.235  -0.561   4.773 -1.8475  0.4755 -0.5539
  742MOL0     H97919   8.185  -0.474   4.915 -1.4163 -0.1957 -1.0754
  742MOL0     H97920   7.984  -0.547   4.801 -1.2009  0.1722  2.8280
  742MOL0     H97921   8.003  -0.652   4.946 -1.7563 -0.9160 -0.8730
  742MOL0     H97922   8.104  -0.728   4.675  0.0944  0.2204 -0.5924
  742MOL0     H97923   8.092  -0.838   4.807 -1.0784 -0.6862  0.4622
  742MOL0     H97924   7.834  -0.718   4.708 -2.1425 -1.3093  1.6230
  742MOL0     H97925   7.855  -0.857   4.814 -0.6875 -1.5678 -0.5569
  742MOL0     H97926   8.725  -0.470   5.407  0.0948  0.6207  0.7573
  742MOL0     H97927   8.907  -0.490   5.520  0.0107  1.8804 -0.3077
  742MOL0     H97928   9.353  -0.761   5.489 -1.1703  0.7142 -0.7082
  742MOL0     H97929   9.564  -0.780   5.608  1.1933 -0.4940  1.5681
  742MOL0     H97930  10.668  -0.062   6.832 -0.9114  0.3294 -0.4386
  742MOL0     H97931  10.906  -0.036   6.893 -1.3584 -0.0430  0.6762
  742MOL0     H97932  11.266   0.306   6.781 -1.2120  2.5705  1.9750
  742MOL0     H97933  11.499   0.363   6.806  1.2004  1.4723  1.5078
  742MOL0     H97934  11.740   0.181   7.090 -0.3704 -0.2219  0.5752
  742MOL0     H97935  11.714   0.301   7.218  0.8241 -2.5884  0.1031
  742MOL0     H97936  11.851   0.470   7.130  0.6925 -0.0337  1.8774
  742MOL0     H97937  11.931   0.316   7.165  0.5561 -2.2991 -1.5443
  742MOL0     H97938  11.849   0.378   6.887 -0.5780  1.4447  0.8461
  742MOL0     H97939  11.975   0.274   6.931  1.8560  1.4082 -2.8982
  742MOL0     H97940  12.099   0.493   7.043  0.5589  0.9519 -0.0677
  742MOL0     H97941  12.106   0.461   6.869  0.3309 -1.6560  0.6607
  742MOL0     H97942  11.848   0.805   6.894  0.9399  1.2567  0.9330
  742MOL0     H97943  11.501   0.163   7.184  0.2775  2.4514  0.4908
  742MOL0     H97944  11.289   0.071   7.137  2.3734  1.5119  1.8827
  743MOL0     O97945   3.629   7.189   0.325 -0.6104  0.1648 -0.3548
  743MOL0     C97946   3.644   7.162   0.445  0.4165  0.5076  0.0896
  743MOL0     O97947   3.545   7.148   0.534  0.7052  0.4124 -0.0320
  743MOL0     C97948   3.426   7.190   0.488 -0.5811 -0.2950 -0.1750
  743MOL0     C97949   3.345   7.097   0.432 -0.6004  0.2296 -0.1180
  743MOL0     C97950   3.212   7.132   0.401 -0.3493  0.6565  0.1942
  743MOL0     C97951   3.163   7.263   0.411  0.1209 -0.0102 -0.2963
  743MOL0     O97952   3.030   7.297   0.404  0.1783 -0.2177 -0.0544
  743MOL0     C97953   2.942   7.188   0.365  0.9709  0.9457 -0.5041
  743MOL0     C97954   2.788   7.233   0.367 -0.3447  0.1409  0.1688
  743MOL0     C97955   2.710   7.132   0.282 -0.6429 -0.5069 -0.0366
  743MOL0     C97956   2.600   7.204   0.202  1.0170 -0.9009 -0.1476
  743MOL0     C97957   2.505   7.115   0.126  0.1040 -0.1012 -0.7649
  743MOL0     C97958   2.433   7.210   0.026  0.6457  0.6438  0.5253
  743MOL0     C97959   2.317   7.139  -0.057 -0.8103 -0.8966  1.1363
  743MOL0     C97960   2.191   7.096   0.013  0.1930 -0.1222  0.4087
  743MOL0     N97961   2.128   7.204   0.092  0.1349 -0.3081 -0.6567
  743MOL0     C97962   2.128   7.211   0.231 -0.7930 -0.3089  0.0092
  743MOL0     C97963   2.025   7.298   0.257  0.5966  0.5536  0.7055
  743MOL0     C97964   1.987   7.358   0.392  0.5542 -0.3054  0.3410
  743MOL0     C97965   1.878   7.473   0.369  0.3049 -0.2446 -1.0439
  743MOL0     C97966   1.828   7.549   0.499  0.7035  0.5353  0.1425
  743MOL0     C97967   1.730   7.459   0.584 -0.5752 -0.0579 -0.3218
  743MOL0     O97968   1.590   7.458   0.538 -1.0548  0.3207  0.2511
  743MOL0     C97969   1.491   7.399   0.608  0.1186 -0.1298 -0.1736
  743MOL0     C97970   1.508   7.302   0.702 -1.1318  0.3451 -0.2660
  743MOL0     C97971   1.401   7.248   0.779 -1.4765  0.0571 -0.2593
  743MOL0     C97972   1.271   7.285   0.767 -0.3542  0.5145  0.4097
  743MOL0     C97973   1.167   7.207   0.825 -0.2818 -0.0338  0.1361
  743MOL0     O97974   1.207   7.119   0.921 -0.6549 -0.0453 -0.3946
  743MOL0     C97975   1.120   7.068   1.017 -0.0600 -0.1384 -0.6210
  743MOL0     C97976   1.154   6.947   1.078  0.0731 -0.0325 -0.1218
  743MOL0     C97977   1.075   6.903   1.184  1.2078  0.3091 -0.4764
  743MOL0     C97978   0.953   6.963   1.220 -0.0760 -0.3664 -0.0087
  743MOL0     O97979   0.882   6.904   1.324  0.4521  0.9580 -0.1690
  743MOL0     C97980   0.782   6.991   1.376 -0.6775  0.5557 -1.1203
  743MOL0     C97981   0.721   6.941   1.509  0.8365 -0.6087 -0.1367
  743MOL0     C97982   0.641   7.061   1.569  0.5841  0.7440  0.3143
  743MOL0     C97983   0.534   7.012   1.655 -0.1466  1.0040  0.2119
  743MOL0     C97984   0.448   7.115   1.706  0.6490  0.2996 -0.4049
  743MOL0     C97985   0.329   7.062   1.791 -0.2334 -0.3665  0.2484
  743MOL0     C97986   0.258   7.175   1.868 -0.7544  0.1551 -0.5563
  743MOL0     C97987   0.183   7.128   1.993 -0.4270  0.6592 -0.4042
  743MOL0    Cl97988   0.082   6.997   1.961  0.0637  0.2421  0.0703
  743MOL0     C97989   0.921   7.086   1.151 -0.0723  0.5024 -0.9273
  743MOL0     C97990   1.002   7.128   1.056  0.0770 -0.3236  0.3700
  743MOL0     O97991   1.052   7.247   0.803  0.1810  0.6135  0.0351
  743MOL0     C97992   1.261   7.387   0.667  0.3412 -0.0236 -0.0115
  743MOL0     C97993   1.365   7.445   0.588 -0.3932  1.5770  0.2199
  743MOL0     N97994   1.970   7.345   0.136  0.2272 -0.3008  0.5400
  743MOL0     N97995   2.033   7.283   0.035  0.1227  0.2786 -0.0396
  743MOL0     C97996   3.259   7.352   0.454 -0.2808 -1.0238  0.1884
  743MOL0     C97997   3.389   7.328   0.499  0.4536  0.5590  0.7281
  743MOL0     C97998   3.775   7.134   0.505 -1.1272 -0.0899 -0.2058
  743MOL0     C97999   3.809   7.119   0.643  0.5364  0.0401 -0.5819
  743MOL0     C98000   3.937   7.100   0.681 -0.3751 -0.8865 -0.0855
  743MOL0     C98001   4.045   7.112   0.594  0.6287 -0.1032  0.1271
  743MOL0     O98002   4.173   7.100   0.649  0.7063 -0.0683 -0.4283
  743MOL0     C98003   4.279   7.092   0.549  0.1427  0.4237 -0.2905
  743MOL0     C98004   4.415   7.075   0.618 -0.1189 -0.1415  0.0803
  743MOL0     C98005   4.484   7.198   0.669  0.0253 -0.1976 -0.6858
  743MOL0     C98006   4.619   7.179   0.761  0.2749  0.2080 -0.3600
  743MOL0     C98007   4.720   7.089   0.703  0.4316 -0.4887  0.0298
  743MOL0     C98008   4.813   7.023   0.665 -0.7284  0.1715  0.5000
  743MOL0     C98009   4.018   7.134   0.460  0.6890  0.7996 -0.5805
  743MOL0     C98010   3.885   7.137   0.418  0.1658 -1.4622  0.4815
  743MOL0     H98011   3.373   6.992   0.436  0.6216  0.4921 -0.9041
  743MOL0     H98012   3.158   7.043   0.370  3.1207 -2.1853  1.5875
  743MOL0     H98013   2.952   7.096   0.423 -2.6127  1.0574  0.5829
  743MOL0     H98014   2.958   7.169   0.259 -0.9805  2.0957 -1.0648
  743MOL0     H98015   2.796   7.333   0.325  1.6251 -0.8983 -2.2034
  743MOL0     H98016   2.749   7.243   0.469  1.9520  2.0828  0.9566
  743MOL0     H98017   2.670   7.048   0.339 -2.2392  2.4729  3.5956
  743MOL0     H98018   2.774   7.086   0.206 -1.1038 -0.3521 -0.5246
  743MOL0     H98019   2.543   7.260   0.277  0.3754  2.9932 -3.2114
  743MOL0     H98020   2.637   7.283   0.136  0.2236  1.2174  1.8214
  743MOL0     H98021   2.438   7.069   0.200  0.1283  0.7506 -0.1919
  743MOL0     H98022   2.559   7.037   0.072  0.3383  0.1748 -0.9358
  743MOL0     H98023   2.506   7.235  -0.051  2.5175  0.0901  2.0448
  743MOL0     H98024   2.391   7.301   0.070  0.1955  1.1001 -0.8172
  743MOL0     H98025   2.293   7.213  -0.134  0.2487  0.7615  2.3207
  743MOL0     H98026   2.362   7.052  -0.106 -1.2896  0.3029 -1.6235
  743MOL0     H98027   2.219   7.009   0.073  3.5352  0.9283  0.5833
  743MOL0     H98028   2.118   7.071  -0.064  2.3720 -0.1403 -1.7836
  743MOL0     H98029   2.182   7.152   0.304 -1.9842 -0.8294  0.5059
  743MOL0     H98030   2.081   7.395   0.435  2.8713 -1.9862 -2.8550
  743MOL0     H98031   1.958   7.288   0.471  0.3993 -1.2267 -0.5218
  743MOL0     H98032   1.792   7.427   0.318 -1.3558  1.4943  0.0781
  743MOL0     H98033   1.932   7.539   0.300  2.9807 -2.7449 -1.5579
  743MOL0     H98034   1.913   7.572   0.565  1.5231 -1.6977 -0.0242
  743MOL0     H98035   1.772   7.639   0.473 -1.7289 -1.2441 -1.2088
  743MOL0     H98036   1.728   7.491   0.689 -1.3838 -1.7210  0.2057
  743MOL0     H98037   1.761   7.354   0.588  0.3111  0.1663 -1.0481
  743MOL0     H98038   1.608   7.266   0.722  1.0316  4.1834 -2.9100
  743MOL0     H98039   1.434   7.171   0.848 -0.0346 -0.3638 -1.3407
  743MOL0     H98040   1.248   6.894   1.063  0.5136  0.8255 -0.4664
  743MOL0     H98041   1.117   6.819   1.238  0.9838  0.5525  0.0873
  743MOL0     H98042   0.704   6.998   1.300  0.6128  0.0667 -2.5509
  743MOL0     H98043   0.826   7.089   1.398  2.5025 -1.3002  1.8198
  743MOL0     H98044   0.795   6.906   1.581  0.0733 -0.9941  0.4717
  743MOL0     H98045   0.654   6.859   1.482 -0.8642 -0.0276  2.0885
  743MOL0     H98046   0.592   7.118   1.489  1.6874 -0.3741 -1.2303
  743MOL0     H98047   0.716   7.119   1.624  2.3938  0.4990 -1.7297
  743MOL0     H98048   0.473   6.940   1.600  0.2354  0.9597 -0.1517
  743MOL0     H98049   0.578   6.961   1.741 -2.4239  1.2437  1.6252
  743MOL0     H98050   0.399   7.165   1.621  0.5364  1.8053  0.4994
  743MOL0     H98051   0.514   7.185   1.758  2.5666 -0.2549 -1.9771
  743MOL0     H98052   0.371   6.984   1.856  1.8984 -0.1238 -0.7404
  743MOL0     H98053   0.252   7.013   1.730 -1.1476  1.5039 -0.1814
  743MOL0     H98054   0.332   7.252   1.892  1.0267 -1.5842 -0.1784
  743MOL0     H98055   0.184   7.219   1.801  0.3028  2.9011 -0.0470
  743MOL0     H98056   0.133   7.208   2.049 -1.1525 -0.2177  0.2356
  743MOL0     H98057   0.252   7.088   2.068 -3.1216 -0.8099  1.4771
  743MOL0     H98058   0.829   7.141   1.169  0.0029  0.8231 -1.5091
  743MOL0     H98059   0.977   7.224   1.011  1.4312 -0.5615 -1.0001
  743MOL0     H98060   1.163   7.413   0.628  1.9132  5.1448 -1.2943
  743MOL0     H98061   1.333   7.523   0.519  1.0966  0.2168 -2.1501
  743MOL0     H98062   3.215   7.451   0.458 -0.0005 -0.9094  0.5445
  743MOL0     H98063   3.454   7.409   0.531 -1.3671  1.7792  1.5032
  743MOL0     H98064   3.734   7.112   0.722 -1.5963  0.3242 -2.4813
  743MOL0     H98065   3.952   7.071   0.785 -0.4563 -1.9535 -0.3601
  743MOL0     H98066   4.281   7.175   0.478  0.9419  1.0284  0.4153
  743MOL0     H98067   4.269   6.997   0.498  0.8152 -0.6047  1.4018
  743MOL0     H98068   4.412   6.992   0.690 -1.9625 -0.6697 -0.5540
  743MOL0     H98069   4.483   7.041   0.539 -1.8435  0.1815 -1.5993
  743MOL0     H98070   4.415   7.251   0.734  0.1940 -1.5915  0.7097
  743MOL0     H98071   4.524   7.260   0.588  0.8931  0.3751  0.1522
  743MOL0     H98072   4.667   7.276   0.776  3.7140 -1.4404  0.2343
  743MOL0     H98073   4.585   7.135   0.855 -0.6486  0.6922 -0.4516
  743MOL0     H98074   4.896   6.963   0.635 -0.4687  0.2436  1.0659
  743MOL0     H98075   4.089   7.130   0.378  0.2873 -0.7208 -0.8888
  743MOL0     H98076   3.870   7.148   0.311 -1.5472 -0.8945  0.7566
  744MOL0     O98077   6.455   9.270   1.070  0.5309 -0.4003  0.4862
  744MOL0     C98078   6.419   9.343   1.163  0.6289 -0.5174 -0.1943
  744MOL0     O98079   6.297   9.348   1.219 -0.0069 -0.3911  0.4895
  744MOL0     C98080   6.182   9.285   1.170  0.2857 -0.2057 -0.1633
  744MOL0     C98081   6.075   9.368   1.151  0.1900 -0.1160 -0.6263
  744MOL0     C98082   5.947   9.315   1.136  0.0019 -0.5510 -0.3227
  744MOL0     C98083   5.936   9.175   1.126  0.2332 -0.1818  0.0284
  744MOL0     O98084   5.817   9.108   1.116 -0.1805  0.0484  0.6070
  744MOL0     C98085   5.685   9.164   1.137 -0.1483  0.1193  0.7007
  744MOL0     C98086   5.583   9.050   1.106 -0.7387  0.0749 -0.6679
  744MOL0     C98087   5.428   9.088   1.120  0.4902  0.2209 -0.7516
  744MOL0     C98088   5.342   8.989   1.046  0.5805 -0.7922 -0.3633
  744MOL0     C98089   5.185   9.031   1.053 -0.8418  0.4160 -0.0594
  744MOL0     C98090   5.106   8.978   1.174  0.2834  0.7529 -0.5148
  744MOL0     C98091   4.951   8.995   1.168  0.2911  0.0298 -0.1897
  744MOL0     C98092   4.879   8.913   1.063 -0.4137 -0.2083 -0.2648
  744MOL0     N98093   4.738   8.950   1.069 -0.3488  0.2107 -0.8088
  744MOL0     C98094   4.646   8.869   1.015  0.5144 -0.8425 -0.0403
  744MOL0     C98095   4.538   8.941   1.014 -0.2272  0.8510 -0.2327
  744MOL0     C98096   4.421   8.890   0.941  0.0419  0.4561  0.3314
  744MOL0     C98097   4.284   8.940   0.995 -0.3113  0.6001 -0.6334
  744MOL0     C98098   4.169   8.865   0.929 -0.1817 -0.3435  0.6070
  744MOL0     C98099   4.156   8.914   0.786 -0.2777 -0.3028 -0.4281
  744MOL0     O98100   4.116   9.051   0.778  0.2236 -0.4223 -0.1387
  744MOL0     C98101   3.980   9.062   0.751 -0.0431  0.3810  0.0633
  744MOL0     C98102   3.926   9.044   0.627  0.4512 -0.5507 -0.1158
  744MOL0     C98103   3.788   9.068   0.603 -0.2637  0.2527 -1.0258
  744MOL0     C98104   3.700   9.088   0.721  0.2439 -0.0913  0.7174
  744MOL0     C98105   3.552   9.106   0.704 -0.5766 -0.3513  0.0316
  744MOL0     O98106   3.498   9.131   0.576 -0.2249 -0.2982  0.0071
  744MOL0     C98107   3.362   9.127   0.563  0.3782 -0.2694  0.3430
  744MOL0     C98108   3.283   9.036   0.627  0.7280  0.7929  0.3113
  744MOL0     C98109   3.145   9.029   0.610 -0.4357 -0.4318 -0.4099
  744MOL0     C98110   3.076   9.117   0.528  0.4916 -0.2333 -0.4371
  744MOL0     O98111   2.938   9.096   0.517 -0.7471 -0.1727  0.1761
  744MOL0     C98112   2.860   9.181   0.430  0.2643 -0.0049  0.4643
  744MOL0     C98113   2.718   9.143   0.469  0.3631 -0.9129 -0.0697
  744MOL0     C98114   2.611   9.224   0.392 -0.0830  0.3034  0.1329
  744MOL0     C98115   2.468   9.202   0.430 -0.4757 -0.6362 -0.5257
  744MOL0     C98116   2.382   9.300   0.354  1.0727 -0.4150 -0.2870
  744MOL0     C98117   2.234   9.291   0.395  0.0926  0.5929  0.1880
  744MOL0     C98118   2.182   9.138   0.407 -0.4135 -0.6462 -0.6556
  744MOL0     C98119   2.039   9.145   0.467 -0.2806  0.3309  1.0393
  744MOL0    Cl98120   2.037   9.147   0.650  0.8574 -0.0009 -0.2421
  744MOL0     C98121   3.151   9.222   0.463 -0.1308  0.0280 -0.3884
  744MOL0     C98122   3.289   9.226   0.487 -0.7046 -0.7271 -0.3621
  744MOL0     O98123   3.489   9.134   0.804 -0.4048 -0.5096  0.1579
  744MOL0     C98124   3.766   9.103   0.847  0.1332  0.6527  0.0913
  744MOL0     C98125   3.900   9.096   0.860 -0.9546  0.2100 -0.0413
  744MOL0     N98126   4.560   9.063   1.072  0.7229 -0.2043 -0.3426
  744MOL0     N98127   4.685   9.069   1.096 -0.3429  0.5935 -0.5403
  744MOL0     C98128   6.049   9.088   1.122 -0.0796 -0.0577 -0.2418
  744MOL0     C98129   6.173   9.148   1.158 -0.3662  0.1732 -1.1943
  744MOL0     C98130   6.507   9.456   1.203 -0.3598 -0.0955 -0.3559
  744MOL0     C98131   6.472   9.560   1.295  0.2125 -0.1294 -0.3681
  744MOL0     C98132   6.559   9.664   1.325  0.5131 -0.3049 -0.1310
  744MOL0     C98133   6.677   9.677   1.250 -0.3286 -0.6294 -0.4749
  744MOL0     O98134   6.773   9.773   1.267  0.6495 -0.6439  0.1339
  744MOL0     C98135   6.752   9.886   1.360  0.4652  0.0072  0.3298
  744MOL0     C98136   6.880   9.967   1.372 -0.4568 -0.2177  0.7971
  744MOL0     C98137   6.935  10.009   1.239 -0.6397  0.2606  0.1181
  744MOL0     C98138   7.031  10.122   1.231 -0.1454 -0.1269  0.7763
  744MOL0     C98139   6.955  10.246   1.256  0.0543 -0.2682  0.5113
  744MOL0     C98140   6.906  10.353   1.267  0.4998 -0.4330  0.1685
  744MOL0     C98141   6.712   9.581   1.153  0.3640 -0.2292 -0.0940
  744MOL0     C98142   6.629   9.471   1.126  0.2878  0.2761 -0.1255
  744MOL0     H98143   6.106   9.472   1.147 -0.5655  0.2421  1.2900
  744MOL0     H98144   5.855   9.372   1.132 -1.6003 -3.0628 -3.3137
  744MOL0     H98145   5.667   9.248   1.069  2.1274 -1.8230 -2.5247
  744MOL0     H98146   5.685   9.193   1.243  3.4012 -1.4970  1.2771
  744MOL0     H98147   5.608   8.963   1.168  1.5578 -0.6576 -2.4970
  744MOL0     H98148   5.605   9.013   1.006  1.7538  1.8040 -0.8466
  744MOL0     H98149   5.428   9.182   1.065 -1.2058 -0.1385 -1.4236
  744MOL0     H98150   5.400   9.097   1.226  0.3836 -1.4176 -0.6088
  744MOL0     H98151   5.361   8.996   0.939 -0.5789  3.9826 -0.4633
  744MOL0     H98152   5.356   8.884   1.076  2.7339 -0.8111 -1.2371
  744MOL0     H98153   5.143   8.998   0.958  0.6779  0.5567 -0.8086
  744MOL0     H98154   5.185   9.140   1.051 -3.2883  0.4633 -0.7046
  744MOL0     H98155   5.148   9.025   1.264  1.4082 -0.6702 -0.2580
  744MOL0     H98156   5.123   8.871   1.186 -0.4642  0.8200  1.4806
  744MOL0     H98157   4.905   8.979   1.265  1.4683 -1.6020  0.1444
  744MOL0     H98158   4.944   9.103   1.152  0.3093  0.2518  1.1943
  744MOL0     H98159   4.895   8.808   1.088  1.3471  0.5397  2.1427
  744MOL0     H98160   4.914   8.936   0.962  1.8381  2.1572  0.9379
  744MOL0     H98161   4.659   8.770   0.970 -0.0987 -0.7371 -0.4595
  744MOL0     H98162   4.417   8.782   0.925 -4.0047  0.2866  1.3285
  744MOL0     H98163   4.421   8.944   0.846 -1.0831  1.2757  0.7609
  744MOL0     H98164   4.286   9.049   0.987  1.9562  0.7349  0.6955
  744MOL0     H98165   4.277   8.910   1.100 -2.1475 -0.5790 -1.0488
  744MOL0     H98166   4.179   8.757   0.937  1.0881 -0.3119 -0.2651
  744MOL0     H98167   4.075   8.895   0.978 -0.2160  1.4798 -0.4494
  744MOL0     H98168   4.094   8.834   0.744 -1.0390 -1.5511  2.7538
  744MOL0     H98169   4.249   8.908   0.729  0.3906  0.5784  0.5289
  744MOL0     H98170   3.990   9.028   0.540 -0.6459  0.7003 -1.2038
  744MOL0     H98171   3.753   9.067   0.500 -0.3893  2.6578 -1.0674
  744MOL0     H98172   3.329   8.957   0.684 -0.9632 -1.1015 -0.8389
  744MOL0     H98173   3.090   8.944   0.650 -1.3421  0.1690 -0.3718
  744MOL0     H98174   2.871   9.156   0.324  1.0761 -1.9491  0.9623
  744MOL0     H98175   2.886   9.287   0.435  1.9723 -0.4016  0.6430
  744MOL0     H98176   2.707   9.159   0.577  0.5704 -3.7148  0.4512
  744MOL0     H98177   2.705   9.035   0.456  1.4341 -1.2508  1.3161
  744MOL0     H98178   2.611   9.211   0.283  2.0914  0.6773  0.0283
  744MOL0     H98179   2.630   9.331   0.408 -0.5317  0.3555  0.3309
  744MOL0     H98180   2.443   9.098   0.409 -1.6679 -0.5924  0.5274
  744MOL0     H98181   2.463   9.214   0.539  2.9833 -2.6488  0.0113
  744MOL0     H98182   2.382   9.288   0.245  1.4893 -1.1162 -0.2164
  744MOL0     H98183   2.416   9.402   0.376  0.6201 -0.6972  1.9610
  744MOL0     H98184   2.164   9.343   0.329  0.7635  1.6783  0.3173
  744MOL0     H98185   2.223   9.347   0.488  0.8778  0.0446  0.6214
  744MOL0     H98186   2.186   9.085   0.312 -0.3348 -1.9440  0.0444
  744MOL0     H98187   2.233   9.075   0.481 -1.6459 -2.4956 -1.3123
  744MOL0     H98188   2.002   9.047   0.436  1.0380 -0.3110  1.4155
  744MOL0     H98189   1.973   9.217   0.416 -0.9908 -1.8793 -1.3613
  744MOL0     H98190   3.104   9.288   0.390  0.6388  0.2206 -0.7192
  744MOL0     H98191   3.359   9.294   0.440  1.2316 -1.7808  0.8484
  744MOL0     H98192   3.707   9.126   0.935 -0.6299 -1.6286  0.2422
  744MOL0     H98193   3.942   9.117   0.957  2.6989 -3.0794 -0.6603
  744MOL0     H98194   6.046   8.981   1.107  0.3391 -0.2308  0.8055
  744MOL0     H98195   6.264   9.090   1.167 -0.1562  0.8038  1.6591
  744MOL0     H98196   6.379   9.553   1.352 -0.8194  0.3333 -1.9097
  744MOL0     H98197   6.556   9.733   1.409  0.7521 -0.5995  0.1222
  744MOL0     H98198   6.728   9.844   1.458 -2.8430  0.0266 -0.3406
  744MOL0     H98199   6.669   9.942   1.316 -2.6346 -2.1926  2.8905
  744MOL0     H98200   6.846  10.059   1.420 -0.1099 -1.0351  2.6963
  744MOL0     H98201   6.943   9.913   1.443 -0.1974  3.3030  3.5261
  744MOL0     H98202   6.853  10.032   1.170  0.8053 -1.0291 -2.1985
  744MOL0     H98203   6.988   9.926   1.190  1.2359  0.3897  1.7938
  744MOL0     H98204   7.115  10.117   1.300  0.6169  0.9129 -0.0498
  744MOL0     H98205   7.067  10.125   1.128 -1.7644 -1.4052  0.1309
  744MOL0     H98206   6.854  10.440   1.301  1.7689 -0.2693  1.8496
  744MOL0     H98207   6.804   9.595   1.098  0.2783 -0.4685 -0.2969
  744MOL0     H98208   6.657   9.403   1.046 -0.6645  0.4208 -0.5991
  745MOL0     O98209  10.043  10.206   1.725 -0.9079 -0.1007 -0.2289
  745MOL0     C98210  10.129  10.247   1.800  0.1156 -0.2112 -0.0740
  745MOL0     O98211  10.103  10.292   1.929 -0.5163  0.3840  0.5372
  745MOL0     C98212   9.974  10.302   1.977 -0.2365 -0.8091 -0.5711
  745MOL0     C98213   9.858  10.334   1.899 -0.0550  0.9439  0.6590
  745MOL0     C98214   9.733  10.324   1.947 -0.1041  0.2917 -0.7464
  745MOL0     C98215   9.706  10.278   2.079  0.2782 -0.6102 -0.5426
  745MOL0     O98216   9.584  10.262   2.132  0.7941  1.0435 -0.4797
  745MOL0     C98217   9.467  10.322   2.073  0.1089  0.1784 -0.8162
  745MOL0     C98218   9.344  10.268   2.147  0.4451  0.2344 -0.3677
  745MOL0     C98219   9.216  10.325   2.085  0.1272 -0.3242 -0.4447
  745MOL0     C98220   9.099  10.311   2.178  0.6642 -0.3292 -0.0772
  745MOL0     C98221   8.969  10.366   2.116 -0.4650 -0.0309  0.2830
  745MOL0     C98222   8.904  10.285   2.003  0.0882 -0.6331 -0.3571
  745MOL0     C98223   8.759  10.331   1.970  0.2392 -1.0080 -0.5584
  745MOL0     C98224   8.741  10.467   1.917  0.1337  0.3456 -0.1301
  745MOL0     N98225   8.777  10.461   1.770 -0.2501 -0.4456 -0.4669
  745MOL0     C98226   8.719  10.370   1.676 -0.3718 -0.5777 -0.3618
  745MOL0     C98227   8.780  10.401   1.560 -0.2000 -0.8038  0.0812
  745MOL0     C98228   8.770  10.339   1.422 -0.5603  0.1291 -0.4106
  745MOL0     C98229   8.655  10.384   1.331 -0.4787 -0.6811  0.2329
  745MOL0     C98230   8.655  10.537   1.312 -0.0665 -0.6594  1.6546
  745MOL0     C98231   8.508  10.588   1.288 -0.0254  0.6240  0.7561
  745MOL0     O98232   8.494  10.730   1.290  0.1719  0.5177  0.0727
  745MOL0     C98233   8.366  10.766   1.275  0.2904  1.4165 -0.3538
  745MOL0     C98234   8.310  10.775   1.147  0.2590 -0.1959 -1.0560
  745MOL0     C98235   8.175  10.812   1.129 -0.3966  0.1605  0.4866
  745MOL0     C98236   8.101  10.851   1.244 -1.2226 -0.1276 -0.3428
  745MOL0     C98237   7.968  10.902   1.225  0.7414 -0.1077 -0.3917
  745MOL0     O98238   7.933  10.954   1.101  0.0212  0.1064  0.0538
  745MOL0     C98239   7.800  10.989   1.079  0.5049  1.0686 -0.1105
  745MOL0     C98240   7.784  11.115   1.021  0.5992  0.5437 -0.5183
  745MOL0     C98241   7.657  11.151   0.984  0.1135 -0.2261  0.3631
  745MOL0     C98242   7.543  11.071   0.989  0.5247  0.2564  0.5624
  745MOL0     O98243   7.421  11.115   0.949 -0.8064  0.3964  0.4021
  745MOL0     C98244   7.420  11.217   0.843 -0.0352  0.7398  0.3908
  745MOL0     C98245   7.303  11.205   0.751 -0.6017  0.3027 -1.0839
  745MOL0     C98246   7.180  11.265   0.821 -0.0427 -0.0042  0.1786
  745MOL0     C98247   7.058  11.263   0.719 -0.0012 -0.4201 -0.0685
  745MOL0     C98248   6.928  11.275   0.794 -0.4911  0.1727 -0.4646
  745MOL0     C98249   6.812  11.276   0.707  0.7417  0.2003 -0.1305
  745MOL0     C98250   6.671  11.273   0.778 -0.4933  0.5777 -0.4738
  745MOL0     C98251   6.560  11.226   0.685 -0.0684  0.1055  0.0613
  745MOL0    Cl98252   6.403  11.264   0.770 -0.5704  0.6918  0.1574
  745MOL0     C98253   7.565  10.948   1.050 -0.1381 -0.1020 -1.4246
  745MOL0     C98254   7.687  10.912   1.103 -0.5861  0.6048  0.4207
  745MOL0     O98255   7.891  10.910   1.324  0.6702 -0.1095  0.2818
  745MOL0     C98256   8.166  10.844   1.368 -0.6443  1.3787 -0.6374
  745MOL0     C98257   8.291  10.798   1.389  0.4091 -0.1906  0.2906
  745MOL0     N98258   8.869  10.499   1.586 -0.0909  0.4444  0.0576
  745MOL0     N98259   8.872  10.535   1.705 -0.1647  0.6393  0.6243
  745MOL0     C98260   9.815  10.257   2.157 -0.5329  0.6855 -0.0215
  745MOL0     C98261   9.946  10.273   2.114  0.3248 -0.1603  0.1980
  745MOL0     C98262  10.272  10.240   1.756 -0.5905  0.4883 -0.1101
  745MOL0     C98263  10.367  10.322   1.822  0.3603  0.3361  0.3217
  745MOL0     C98264  10.497  10.346   1.756  0.1078  0.4977  0.2840
  745MOL0     C98265  10.538  10.271   1.640  0.0916  0.1017  0.5257
  745MOL0     O98266  10.646  10.285   1.566  0.3019 -0.2518 -0.1702
  745MOL0     C98267  10.759  10.350   1.621  0.1812 -0.3613 -0.2520
  745MOL0     C98268  10.892  10.305   1.577 -0.0473 -0.2231  1.0216
  745MOL0     C98269  10.909  10.318   1.424 -0.3256  0.2206 -0.6378
  745MOL0     C98270  11.067  10.306   1.389  1.0024  0.0325 -0.8827
  745MOL0     C98271  11.079  10.263   1.250 -0.0646 -0.2643  0.2719
  745MOL0     C98272  11.099  10.231   1.139 -0.2861  0.6765 -0.0144
  745MOL0     C98273  10.435  10.195   1.583  0.6423  0.8616 -0.5431
  745MOL0     C98274  10.305  10.192   1.632  0.5506  0.6412 -0.1887
  745MOL0     H98275   9.855  10.351   1.792 -0.0309 -2.8005 -0.0699
  745MOL0     H98276   9.653  10.334   1.875  0.7504 -1.0504 -1.9232
  745MOL0     H98277   9.451  10.281   1.973 -1.6018 -0.7567 -0.1941
  745MOL0     H98278   9.476  10.431   2.086  1.3438  0.0684 -0.5780
  745MOL0     H98279   9.359  10.303   2.249 -1.3883  0.9795 -0.3163
  745MOL0     H98280   9.337  10.159   2.155 -4.2214  0.3420 -0.5463
  745MOL0     H98281   9.204  10.259   1.999  1.1513 -1.8146  0.5090
  745MOL0     H98282   9.222  10.429   2.052 -3.5733 -0.5966 -2.5803
  745MOL0     H98283   9.079  10.207   2.203  1.2294 -0.5014 -0.3353
  745MOL0     H98284   9.116  10.363   2.273 -0.3886 -0.4891  0.2161
  745MOL0     H98285   8.978  10.469   2.081  0.7667 -1.3832 -3.9045
  745MOL0     H98286   8.898  10.369   2.199  1.5736  0.1375  2.1172
  745MOL0     H98287   8.903  10.178   2.025 -4.0162 -0.9900 -1.5529
  745MOL0     H98288   8.964  10.289   1.911 -0.3556 -1.3756 -0.6874
  745MOL0     H98289   8.727  10.258   1.894  2.0395 -2.7230  0.2482
  745MOL0     H98290   8.699  10.326   2.061 -0.7061 -0.4647 -1.1383
  745MOL0     H98291   8.798  10.540   1.975  0.3325 -1.1698  1.6772
  745MOL0     H98292   8.639  10.502   1.938  0.2422  0.3212  0.4800
  745MOL0     H98293   8.640  10.300   1.699 -0.5420 -0.0395  0.7589
  745MOL0     H98294   8.771  10.232   1.445  1.5783  0.0484 -0.6659
  745MOL0     H98295   8.858  10.377   1.370 -0.6985  3.1314  1.2819
  745MOL0     H98296   8.560  10.372   1.382  0.6549  2.2745  3.3821
  745MOL0     H98297   8.659  10.331   1.235  1.0450 -0.2366  0.0207
  745MOL0     H98298   8.687  10.588   1.403  3.0790  0.1136  0.2520
  745MOL0     H98299   8.723  10.563   1.231 -1.5276  1.3843  1.0023
  745MOL0     H98300   8.445  10.540   1.363  0.7893 -0.2551  0.9012
  745MOL0     H98301   8.460  10.558   1.195  0.0899  2.7183 -0.0343
  745MOL0     H98302   8.382  10.759   1.067  1.3739 -0.9103  0.0424
  745MOL0     H98303   8.135  10.815   1.028  0.5196 -0.1293  0.0989
  745MOL0     H98304   7.876  11.172   1.009  0.8585 -0.1339 -1.8546
  745MOL0     H98305   7.649  11.243   0.926  0.1633 -1.1058 -1.0894
  745MOL0     H98306   7.509  11.211   0.779 -1.8416 -1.0757 -2.1572
  745MOL0     H98307   7.424  11.314   0.894  2.0257  1.5846 -1.2036
  745MOL0     H98308   7.279  11.100   0.730 -2.6121  0.7937 -1.4627
  745MOL0     H98309   7.329  11.262   0.662 -0.1689  1.9658  0.0587
  745MOL0     H98310   7.211  11.370   0.831  3.1973 -0.8544  0.0717
  745MOL0     H98311   7.164  11.228   0.922 -0.2891  1.3002  0.6379
  745MOL0     H98312   7.073  11.341   0.644 -0.1903  0.9672  1.2911
  745MOL0     H98313   7.059  11.168   0.666 -3.0717  0.4586 -1.9213
  745MOL0     H98314   6.919  11.361   0.861  1.1834  2.1076 -2.5654
  745MOL0     H98315   6.923  11.184   0.854 -0.9717 -1.0298 -2.2459
  745MOL0     H98316   6.816  11.182   0.651 -3.8488 -1.8114  2.4011
  745MOL0     H98317   6.823  11.356   0.633 -0.4570 -1.1885 -1.8973
  745MOL0     H98318   6.677  11.201   0.860  0.2807 -0.5661 -1.4994
  745MOL0     H98319   6.641  11.367   0.824  0.8096  1.8355 -2.0494
  745MOL0     H98320   6.563  11.118   0.667  0.8382 -0.1305  1.4866
  745MOL0     H98321   6.562  11.275   0.587 -0.2476 -2.3271 -1.2409
  745MOL0     H98322   7.482  10.879   1.054  0.9640 -1.4305 -0.3645
  745MOL0     H98323   7.700  10.810   1.135 -1.0828 -1.3792 -4.7256
  745MOL0     H98324   8.117  10.890   1.453  2.6552  4.1813 -0.0196
  745MOL0     H98325   8.344  10.792   1.483 -0.5728  0.2092  0.8815
  745MOL0     H98326   9.799  10.233   2.261 -1.2137 -0.0936 -0.2952
  745MOL0     H98327  10.034  10.252   2.174  0.7405 -1.9014 -0.9461
  745MOL0     H98328  10.331  10.378   1.908 -2.1530  0.0523 -0.4553
  745MOL0     H98329  10.565  10.417   1.802 -1.4400  1.1532  1.7001
  745MOL0     H98330  10.764  10.342   1.730 -0.1905  1.0346 -0.1016
  745MOL0     H98331  10.732  10.455   1.606 -1.2500 -0.1337  3.1003
  745MOL0     H98332  10.953  10.372   1.639 -1.8471  1.6062  0.9161
  745MOL0     H98333  10.919  10.202   1.600  1.6658 -0.6341 -2.2780
  745MOL0     H98334  10.874  10.414   1.385 -0.6954  0.8882  1.2179
  745MOL0     H98335  10.858  10.236   1.373 -0.5642 -2.2214  3.0779
  745MOL0     H98336  11.113  10.405   1.399 -0.8501  0.8863 -0.2628
  745MOL0     H98337  11.107  10.231   1.458  0.5656  1.2071  0.7150
  745MOL0     H98338  11.113  10.214   1.034  0.5160  0.2565  0.1590
  745MOL0     H98339  10.442  10.142   1.488 -1.9134 -1.4745  0.4068
  745MOL0     H98340  10.232  10.139   1.572  1.9153 -0.7908 -0.6626
  746MOL0     O98341   5.436   2.883   8.952 -0.1154 -0.1966  0.4881
  746MOL0     C98342   5.503   2.904   9.056  0.2994  0.7072  0.9253
  746MOL0     O98343   5.457   2.944   9.176 -0.1671  0.0120 -0.3936
  746MOL0     C98344   5.321   2.941   9.204  0.1545 -0.5636  0.1591
  746MOL0     C98345   5.235   2.843   9.174 -0.0060  0.4787 -0.5482
  746MOL0     C98346   5.096   2.858   9.214  0.3512  0.2161 -0.2255
  746MOL0     C98347   5.047   2.965   9.294 -1.1461 -0.4122  0.1376
  746MOL0     O98348   4.920   2.976   9.324 -0.0286 -0.5448  0.0709
  746MOL0     C98349   4.855   3.102   9.358 -0.1612 -0.4242  0.4202
  746MOL0     C98350   4.709   3.072   9.343 -0.2811  0.1586 -0.8339
  746MOL0     C98351   4.612   3.168   9.415 -0.1636 -0.2105  0.1973
  746MOL0     C98352   4.470   3.131   9.387  0.7207 -0.3206 -1.0403
  746MOL0     C98353   4.368   3.240   9.417 -0.5358  0.5059 -0.0633
  746MOL0     C98354   4.226   3.182   9.421  0.9995  0.0625  0.3186
  746MOL0     C98355   4.127   3.308   9.431  0.5055  0.8666  0.4270
  746MOL0     C98356   3.983   3.270   9.421  0.5192 -0.1367  0.0493
  746MOL0     N98357   3.891   3.372   9.463 -0.1944  0.2117 -0.5701
  746MOL0     C98358   3.872   3.421   9.592  0.0628  0.5594 -0.5264
  746MOL0     C98359   3.786   3.529   9.570  0.6154 -0.1963 -0.4574
  746MOL0     C98360   3.746   3.625   9.684  0.0899 -0.1598  0.5110
  746MOL0     C98361   3.622   3.710   9.665  0.1234  0.2136  0.1446
  746MOL0     C98362   3.499   3.620   9.650  0.1723  0.3174  0.4629
  746MOL0     C98363   3.375   3.715   9.633  0.0922  0.3782 -0.2549
  746MOL0     O98364   3.264   3.625   9.610 -0.2508 -0.3488 -0.4677
  746MOL0     C98365   3.147   3.689   9.631  0.8798  0.1478 -0.2987
  746MOL0     C98366   3.100   3.812   9.575  0.5590  0.4722 -0.2605
  746MOL0     C98367   2.984   3.876   9.595  0.6923  0.5139  0.2054
  746MOL0     C98368   2.896   3.827   9.695 -0.0724  0.5118 -0.0096
  746MOL0     C98369   2.772   3.902   9.732 -1.0284  0.2781  0.5965
  746MOL0     O98370   2.756   4.024   9.687 -0.1661  0.6968 -0.1834
  746MOL0     C98371   2.630   4.070   9.664 -0.6214 -0.8840 -0.6290
  746MOL0     C98372   2.567   4.147   9.767 -0.0646  0.2194  0.6193
  746MOL0     C98373   2.444   4.206   9.738  0.3114 -0.2430 -0.3731
  746MOL0     C98374   2.380   4.190   9.615  0.6027  0.7386 -0.1006
  746MOL0     O98375   2.272   4.271   9.578 -0.2783  0.1345 -0.2339
  746MOL0     C98376   2.246   4.393   9.647 -0.0283 -0.4502 -0.5218
  746MOL0     C98377   2.143   4.482   9.580  1.0318 -0.4333  0.0113
  746MOL0     C98378   2.094   4.574   9.692 -0.5204 -0.7987  0.4166
  746MOL0     C98379   1.997   4.678   9.638  0.1365 -0.2478  0.6254
  746MOL0     C98380   1.916   4.738   9.745 -0.0697 -0.2855 -0.1030
  746MOL0     C98381   2.007   4.810   9.850  0.0412  0.4376  0.3951
  746MOL0     C98382   2.082   4.936   9.801 -0.0050  0.3961  0.2018
  746MOL0     C98383   2.095   5.044   9.908 -0.2775  0.7795  0.1432
  746MOL0    Cl98384   2.198   4.990  10.043 -0.2873 -0.5428 -0.1892
  746MOL0     C98385   2.443   4.111   9.516  0.0217  1.2226 -0.9839
  746MOL0     C98386   2.567   4.049   9.543  0.2700 -0.8069 -0.1688
  746MOL0     O98387   2.688   3.828   9.782  0.8522 -0.4490 -0.5303
  746MOL0     C98388   2.936   3.706   9.756 -0.1909 -0.1465  0.2657
  746MOL0     C98389   3.059   3.641   9.729  0.1284  0.0223  0.7442
  746MOL0     N98390   3.751   3.538   9.439 -0.1215  0.2013 -0.5113
  746MOL0     N98391   3.815   3.443   9.380  0.4364 -0.1604 -0.3283
  746MOL0     C98392   5.149   3.065   9.321  0.4436  0.3224 -0.0976
  746MOL0     C98393   5.280   3.051   9.280 -0.3386  0.1704  0.0157
  746MOL0     C98394   5.648   2.897   9.035  0.3737 -0.3590 -0.3383
  746MOL0     C98395   5.695   2.798   8.951  0.0924  0.1897  0.9262
  746MOL0     C98396   5.834   2.792   8.932  0.6178 -0.3397  0.5796
  746MOL0     C98397   5.916   2.868   9.008  0.3086  0.0601  1.0731
  746MOL0     O98398   6.055   2.856   9.011 -0.1077  0.4237 -0.0459
  746MOL0     C98399   6.126   2.753   8.936 -0.3036 -0.1491 -0.3238
  746MOL0     C98400   6.154   2.808   8.797 -0.0919  0.6309  0.3665
  746MOL0     C98401   6.244   2.938   8.793 -0.3434 -0.1933 -0.5157
  746MOL0     C98402   6.229   3.002   8.651 -0.7922  1.4566 -0.0458
  746MOL0     C98403   6.322   3.114   8.648  1.2735  0.3844 -0.8695
  746MOL0     C98404   6.400   3.213   8.626  0.5062  0.1992 -0.4565
  746MOL0     C98405   5.864   2.957   9.103  0.0288 -0.7915  0.1573
  746MOL0     C98406   5.731   2.978   9.110 -0.3011 -0.6587 -0.2045
  746MOL0     H98407   5.281   2.754   9.131  0.2986  0.0669  0.6036
  746MOL0     H98408   5.015   2.793   9.181  0.0977  0.9444 -1.0688
  746MOL0     H98409   4.881   3.180   9.286  2.4654 -0.0139  1.6719
  746MOL0     H98410   4.888   3.132   9.458 -1.0609  0.9952  0.3094
  746MOL0     H98411   4.686   2.973   9.384  1.8542  0.4367  1.2591
  746MOL0     H98412   4.697   3.078   9.235  2.5680 -0.9918 -1.2987
  746MOL0     H98413   4.634   3.269   9.381  0.0070  0.1685  1.3763
  746MOL0     H98414   4.641   3.169   9.521  2.1454  0.1847 -0.3868
  746MOL0     H98415   4.455   3.088   9.288  0.9302 -2.0618 -0.3629
  746MOL0     H98416   4.458   3.045   9.454  0.7081  0.5118  0.0504
  746MOL0     H98417   4.379   3.308   9.333  1.2522 -1.1384 -1.2496
  746MOL0     H98418   4.396   3.289   9.511  1.8734 -0.7932 -0.0335
  746MOL0     H98419   4.214   3.111   9.503  1.6341 -1.0212 -0.4992
  746MOL0     H98420   4.200   3.126   9.331 -0.2999  1.7602 -0.4305
  746MOL0     H98421   4.149   3.351   9.529 -0.9604 -1.1336  1.7138
  746MOL0     H98422   4.148   3.379   9.351  1.4875  1.1405  0.9072
  746MOL0     H98423   3.966   3.181   9.483 -1.7157 -0.6163 -1.1120
  746MOL0     H98424   3.954   3.227   9.324 -0.7207 -3.5831  1.7451
  746MOL0     H98425   3.921   3.400   9.687  1.4522  3.3005 -0.5401
  746MOL0     H98426   3.831   3.692   9.702  0.6809 -0.5651 -0.6627
  746MOL0     H98427   3.727   3.567   9.775 -0.6825 -1.3697 -0.3952
  746MOL0     H98428   3.629   3.779   9.581 -1.3162  1.0868  0.7063
  746MOL0     H98429   3.599   3.755   9.763  0.0731 -0.2621  0.3544
  746MOL0     H98430   3.513   3.552   9.565 -0.8334 -1.6383  1.7787
  746MOL0     H98431   3.486   3.562   9.742 -0.6816  0.9072  0.7192
  746MOL0     H98432   3.388   3.785   9.550  3.2217  0.4966  0.2278
  746MOL0     H98433   3.352   3.762   9.729 -0.2560  2.4263 -1.2923
  746MOL0     H98434   3.156   3.854   9.492  1.4051 -0.3662 -0.1252
  746MOL0     H98435   2.940   3.964   9.549  0.0175 -1.0191 -2.2883
  746MOL0     H98436   2.600   4.140   9.870  0.7758  2.8965  0.5933
  746MOL0     H98437   2.406   4.267   9.819  4.2412  3.0305 -0.7029
  746MOL0     H98438   2.336   4.455   9.652 -0.6612  0.3681  1.5736
  746MOL0     H98439   2.215   4.376   9.751 -0.3570  1.3697 -0.2967
  746MOL0     H98440   2.062   4.414   9.554  1.3041 -0.7962  0.1054
  746MOL0     H98441   2.189   4.527   9.491  1.9242 -2.1606 -0.4453
  746MOL0     H98442   2.176   4.618   9.750  0.7788 -1.7203 -0.6208
  746MOL0     H98443   2.037   4.513   9.763 -0.4870  1.0966  2.1405
  746MOL0     H98444   2.047   4.759   9.585 -0.5933  0.4263  0.9477
  746MOL0     H98445   1.931   4.621   9.572  3.2515 -3.2299 -0.2380
  746MOL0     H98446   1.852   4.661   9.789  0.8548 -1.3204 -0.5397
  746MOL0     H98447   1.861   4.821   9.701 -0.4634  1.5777  3.4860
  746MOL0     H98448   2.084   4.746   9.894  1.7907  1.2734 -1.3066
  746MOL0     H98449   1.939   4.838   9.932  0.2065  0.4387  0.5311
  746MOL0     H98450   2.175   4.903   9.755 -0.2744  0.6689 -0.5429
  746MOL0     H98451   2.019   4.978   9.722 -2.1237  0.4402  1.8028
  746MOL0     H98452   1.996   5.056   9.952  0.5302 -1.2499  2.7466
  746MOL0     H98453   2.136   5.137   9.868  2.2957  1.1426  3.1751
  746MOL0     H98454   2.406   4.109   9.414  3.0991  0.8569 -2.1929
  746MOL0     H98455   2.616   3.995   9.462 -0.8099 -0.7670 -0.8764
  746MOL0     H98456   2.878   3.663   9.837 -2.4751  0.8095 -0.7654
  746MOL0     H98457   3.104   3.555   9.777  1.3191  1.3854  2.1728
  746MOL0     H98458   5.119   3.150   9.382 -4.6683 -1.9258  1.0683
  746MOL0     H98459   5.355   3.126   9.302  0.0404 -0.0346 -0.5693
  746MOL0     H98460   5.624   2.746   8.889  0.1271  1.5854 -0.3424
  746MOL0     H98461   5.854   2.729   8.847 -2.5452  1.4161 -1.6815
  746MOL0     H98462   6.062   2.665   8.924  1.9409 -1.7793 -0.9083
  746MOL0     H98463   6.220   2.730   8.986 -0.9427  1.2653  1.6533
  746MOL0     H98464   6.199   2.726   8.741 -1.3456  1.0481 -1.3175
  746MOL0     H98465   6.053   2.831   8.761 -0.9019 -0.7252  1.6185
  746MOL0     H98466   6.349   2.909   8.807  0.2283  0.7102 -2.5867
  746MOL0     H98467   6.208   3.017   8.860 -3.1657 -1.2326 -0.6575
  746MOL0     H98468   6.266   2.933   8.574  1.7653  2.2837  0.3546
  746MOL0     H98469   6.129   3.042   8.630 -0.8836  1.4404  0.3471
  746MOL0     H98470   6.454   3.304   8.607 -1.5596  0.9383 -3.5228
  746MOL0     H98471   5.928   3.008   9.174  0.1177 -1.4973  0.5897
  746MOL0     H98472   5.694   3.051   9.182 -0.9403  1.0428 -2.1555
  747MOL0     O98473   7.695   1.283   7.762  0.3475 -0.2817 -0.1705
  747MOL0     C98474   7.665   1.384   7.819 -0.3082 -0.3071  0.1247
  747MOL0     O98475   7.541   1.430   7.854  0.1150  0.1152  0.1424
  747MOL0     C98476   7.442   1.339   7.840 -0.8262  0.4545  0.3435
  747MOL0     C98477   7.410   1.268   7.720 -0.7409  0.1721 -0.0298
  747MOL0     C98478   7.295   1.188   7.717  1.3811 -0.1769 -0.1754
  747MOL0     C98479   7.211   1.168   7.833  0.0839  0.8995 -0.3906
  747MOL0     O98480   7.102   1.084   7.808  0.4847  0.2188 -0.1900
  747MOL0     C98481   7.028   1.040   7.917 -0.6302  0.3815 -0.0925
  747MOL0     C98482   6.896   0.993   7.844  0.4412  0.6016  0.3155
  747MOL0     C98483   6.806   0.947   7.966 -1.3005  0.9662 -0.1234
  747MOL0     C98484   6.685   0.877   7.912  0.1225 -0.2445 -0.6424
  747MOL0     C98485   6.557   0.856   8.007  0.2619 -0.4598 -0.0811
  747MOL0     C98486   6.586   0.827   8.162 -0.6076  0.3739 -0.2108
  747MOL0     C98487   6.646   0.681   8.176 -0.6552 -0.3111 -0.2294
  747MOL0     C98488   6.563   0.558   8.130 -0.5843  0.3916 -0.2799
  747MOL0     N98489   6.439   0.534   8.197  0.6802  0.4166  0.1678
  747MOL0     C98490   6.428   0.450   8.305  0.7330  0.2300 -0.1937
  747MOL0     C98491   6.293   0.439   8.336  0.3426 -0.7093 -0.3192
  747MOL0     C98492   6.236   0.371   8.460 -0.7752 -0.1299 -0.1032
  747MOL0     C98493   6.208   0.230   8.424 -0.1236  0.6586 -0.0770
  747MOL0     C98494   6.186   0.137   8.554 -0.0287  0.1033  0.2618
  747MOL0     C98495   6.065   0.169   8.632 -0.5329 -0.2009 -0.0114
  747MOL0     O98496   5.945   0.170   8.553  1.2352 -0.3385  0.4972
  747MOL0     C98497   5.838   0.171   8.631  0.2063 -0.5758 -0.6978
  747MOL0     C98498   5.721   0.170   8.559  0.7056 -0.3270  0.2109
  747MOL0     C98499   5.600   0.170   8.623  0.2980 -0.5615  0.2323
  747MOL0     C98500   5.596   0.169   8.768 -0.4981  0.8078  0.3909
  747MOL0     C98501   5.475   0.157   8.835  0.4057 -0.3455  0.2951
  747MOL0     O98502   5.365   0.152   8.750 -0.7197 -0.2008 -0.3008
  747MOL0     C98503   5.239   0.157   8.807 -0.3583  0.1991 -0.2670
  747MOL0     C98504   5.185   0.065   8.896  0.7387 -0.1494  0.0393
  747MOL0     C98505   5.051   0.062   8.924  0.4427  0.0906 -0.3806
  747MOL0     C98506   4.971   0.172   8.889  0.4193  0.3095 -0.6266
  747MOL0     O98507   4.833   0.177   8.937 -0.7226  0.1065 -0.0189
  747MOL0     C98508   4.729   0.251   8.865  0.7208  0.3355  1.0386
  747MOL0     C98509   4.635   0.305   8.968 -0.6749 -1.2533 -0.1743
  747MOL0     C98510   4.568   0.203   9.056  0.3238  0.6494  0.2414
  747MOL0     C98511   4.474   0.258   9.157 -0.2297 -1.1567 -0.7748
  747MOL0     C98512   4.391   0.155   9.240 -0.4186 -0.5842  0.0621
  747MOL0     C98513   4.301   0.221   9.357  0.0221  0.4537  0.5030
  747MOL0     C98514   4.370   0.316   9.452  0.5596  0.0299 -0.5030
  747MOL0     C98515   4.268   0.424   9.493 -0.2298  0.5854 -0.0714
  747MOL0    Cl98516   4.124   0.350   9.573  0.1318 -0.0552  0.1694
  747MOL0     C98517   5.018   0.266   8.795 -0.4099  0.6216  0.0567
  747MOL0     C98518   5.156   0.244   8.746  0.1941 -0.2173 -0.5822
  747MOL0     O98519   5.479   0.161   8.959  0.0085  0.0168  0.7214
  747MOL0     C98520   5.714   0.166   8.833  0.1683  0.1763 -0.6743
  747MOL0     C98521   5.829   0.189   8.766 -0.4170  0.9242 -0.7330
  747MOL0     N98522   6.228   0.517   8.243  0.0527  0.3292  0.1679
  747MOL0     N98523   6.312   0.571   8.157 -0.1669  0.7511 -0.1546
  747MOL0     C98524   7.257   1.228   7.953 -0.3263 -0.7157 -0.0435
  747MOL0     C98525   7.372   1.313   7.955 -0.0847  0.3187 -0.0915
  747MOL0     C98526   7.781   1.463   7.853  0.1574  0.4791  0.4494
  747MOL0     C98527   7.759   1.584   7.920 -0.2276 -0.6244  0.3356
  747MOL0     C98528   7.876   1.665   7.956 -0.4288  0.0080  0.2739
  747MOL0     C98529   8.011   1.618   7.949 -0.1754 -0.1331 -0.1521
  747MOL0     O98530   8.125   1.693   7.997  0.2359 -0.1628 -0.8337
  747MOL0     C98531   8.259   1.639   7.996 -0.0284 -0.1623  0.5059
  747MOL0     C98532   8.323   1.649   7.857 -0.0999 -0.7608 -0.5102
  747MOL0     C98533   8.479   1.657   7.864 -0.0453 -0.0001 -0.6927
  747MOL0     C98534   8.563   1.528   7.866  0.3494 -0.0684  0.1484
  747MOL0     C98535   8.523   1.429   7.959  0.4261  0.1087 -0.1183
  747MOL0     C98536   8.469   1.356   8.042  0.6243  0.9335  0.6406
  747MOL0     C98537   8.020   1.496   7.883  0.3327 -0.7689 -1.1061
  747MOL0     C98538   7.911   1.428   7.829 -0.6306  0.1854  0.4058
  747MOL0     H98539   7.465   1.288   7.629  1.6556  0.5360  1.4182
  747MOL0     H98540   7.270   1.136   7.624 -3.1066  0.7394  0.2635
  747MOL0     H98541   7.007   1.126   7.981  1.4241 -0.3164  1.6381
  747MOL0     H98542   7.071   0.958   7.975 -0.4503  1.1966  0.9534
  747MOL0     H98543   6.915   0.911   7.775 -0.7831  1.3458 -0.9797
  747MOL0     H98544   6.846   1.075   7.791  0.8804  1.1342  0.7119
  747MOL0     H98545   6.775   1.040   8.013 -0.2511  1.0725  0.3773
  747MOL0     H98546   6.869   0.878   8.023  1.6535  2.4330 -1.4103
  747MOL0     H98547   6.656   0.928   7.819  2.3539  2.4829  0.0079
  747MOL0     H98548   6.717   0.778   7.876  0.9525  0.5709 -2.2875
  747MOL0     H98549   6.493   0.775   7.970 -2.9029  2.4954 -1.6432
  747MOL0     H98550   6.506   0.952   8.002 -1.7098 -1.4983 -1.2363
  747MOL0     H98551   6.499   0.828   8.228  1.0624  1.0345  2.0986
  747MOL0     H98552   6.663   0.897   8.196 -1.2778  0.8910  0.2564
  747MOL0     H98553   6.744   0.669   8.130 -1.0297 -1.0062 -0.8604
  747MOL0     H98554   6.666   0.681   8.283 -0.3509  1.6091 -0.2437
  747MOL0     H98555   6.615   0.463   8.144 -3.0890 -0.8278  1.5183
  747MOL0     H98556   6.544   0.573   8.023 -1.0780 -0.0312 -0.2545
  747MOL0     H98557   6.506   0.393   8.355 -0.7661 -2.0098 -0.2551
  747MOL0     H98558   6.147   0.427   8.491 -0.0556 -0.0806  2.0963
  747MOL0     H98559   6.306   0.370   8.544 -2.7364  2.6880  1.7347
  747MOL0     H98560   6.292   0.186   8.369 -2.0002 -0.2873 -2.3788
  747MOL0     H98561   6.120   0.215   8.360  1.9152 -3.6264 -2.3246
  747MOL0     H98562   6.177   0.029   8.536 -0.9915  0.1563  0.3415
  747MOL0     H98563   6.279   0.143   8.612  0.7703 -1.2406 -0.8298
  747MOL0     H98564   6.077   0.265   8.684  1.5633 -1.0112  1.1165
  747MOL0     H98565   6.054   0.103   8.719 -2.5566  1.5414  1.1618
  747MOL0     H98566   5.716   0.183   8.451  1.6274  1.3909  0.3332
  747MOL0     H98567   5.510   0.160   8.564 -1.1041  0.1819  2.1119
  747MOL0     H98568   5.253  -0.000   8.949  1.4035 -0.1616 -0.8225
  747MOL0     H98569   5.028  -0.024   8.986  1.4309 -0.6343 -0.9820
  747MOL0     H98570   4.677   0.184   8.796  0.2428  0.1026  1.6107
  747MOL0     H98571   4.760   0.342   8.813  0.7401  1.3068  2.6560
  747MOL0     H98572   4.563   0.366   8.911 -1.4779 -0.3269  1.7205
  747MOL0     H98573   4.681   0.379   9.035 -3.0505 -0.6686  0.9156
  747MOL0     H98574   4.642   0.148   9.114  0.6943  1.4676  0.5552
  747MOL0     H98575   4.517   0.137   8.985  0.9376  1.5213 -1.0365
  747MOL0     H98576   4.539   0.319   9.221 -2.4885  3.1899 -2.2671
  747MOL0     H98577   4.406   0.326   9.107  1.1228 -0.9390 -2.3974
  747MOL0     H98578   4.468   0.091   9.285  0.5619  0.9077  0.6016
  747MOL0     H98579   4.332   0.101   9.166  1.1329 -1.9879 -0.2059
  747MOL0     H98580   4.259   0.135   9.409  1.0991  0.2409  1.0522
  747MOL0     H98581   4.215   0.266   9.306 -1.0132 -3.0113 -1.1410
  747MOL0     H98582   4.412   0.262   9.538 -1.0260  0.6589  0.7164
  747MOL0     H98583   4.452   0.369   9.402  0.0752  1.8171  0.5033
  747MOL0     H98584   4.238   0.481   9.404  2.0081  0.9539 -0.6394
  747MOL0     H98585   4.306   0.492   9.570  0.8035  0.6587 -0.6267
  747MOL0     H98586   4.957   0.338   8.742  3.0929  1.1184 -3.7022
  747MOL0     H98587   5.198   0.299   8.662 -0.0755  1.1081  0.1331
  747MOL0     H98588   5.721   0.160   8.941  1.2077 -1.2481 -0.8054
  747MOL0     H98589   5.921   0.192   8.823 -0.3347  2.4770 -0.9210
  747MOL0     H98590   7.214   1.194   8.047 -2.4748  3.4993  0.7145
  747MOL0     H98591   7.410   1.352   8.049 -1.9034  0.9969  0.4202
  747MOL0     H98592   7.662   1.629   7.937 -0.6344 -0.4971 -2.0412
  747MOL0     H98593   7.852   1.755   8.012 -3.5089 -0.5956  0.1166
  747MOL0     H98594   8.258   1.534   8.025 -0.9039 -0.6274 -1.0577
  747MOL0     H98595   8.321   1.696   8.066  1.0369 -0.3071 -0.2904
  747MOL0     H98596   8.275   1.565   7.806 -0.6668  0.4272 -2.0202
  747MOL0     H98597   8.287   1.744   7.817  0.0392 -0.9121 -0.9985
  747MOL0     H98598   8.505   1.728   7.943 -0.6651 -1.7073  1.1145
  747MOL0     H98599   8.499   1.710   7.770 -0.4446  0.6489 -0.4196
  747MOL0     H98600   8.558   1.488   7.764  0.7651  1.2120 -0.3984
  747MOL0     H98601   8.667   1.556   7.883  0.4348  0.5700 -1.2795
  747MOL0     H98602   8.410   1.312   8.119 -0.8479  0.9363 -0.4547
  747MOL0     H98603   8.115   1.444   7.870  1.0985  0.6991 -1.6098
  747MOL0     H98604   7.930   1.332   7.781  0.4218  1.8524 -2.7709
  748MOL0     O98605   7.935  10.763  10.975  0.3834  0.1277  0.2961
  748MOL0     C98606   7.913  10.651  10.950 -0.3442 -0.1288 -0.5075
  748MOL0     O98607   7.999  10.547  10.965 -0.2831 -0.3448  0.7091
  748MOL0     C98608   8.123  10.587  11.005 -0.4279  1.1256 -0.5147
  748MOL0     C98609   8.215  10.586  10.906  0.0711  0.7645 -0.3981
  748MOL0     C98610   8.349  10.618  10.939  0.3433  0.2867 -0.3232
  748MOL0     C98611   8.384  10.661  11.062 -0.0328  0.6905 -0.7487
  748MOL0     O98612   8.521  10.676  11.087  0.8817  0.2891  0.1331
  748MOL0     C98613   8.551  10.704  11.224 -0.0986  0.1685  0.1597
  748MOL0     C98614   8.697  10.658  11.254  0.7222  0.3817  0.1817
  748MOL0     C98615   8.813  10.726  11.180  0.0250  0.0598  0.5297
  748MOL0     C98616   8.941  10.645  11.175  0.7711  0.2296 -0.3389
  748MOL0     C98617   9.057  10.682  11.083 -0.2474 -0.2641 -0.4645
  748MOL0     C98618   9.188  10.603  11.123  0.1326  0.5627 -0.1028
  748MOL0     C98619   9.303  10.638  11.026  0.3610 -0.8250 -0.0806
  748MOL0     C98620   9.426  10.554  11.064  0.2888  0.6192  0.1963
  748MOL0     N98621   9.547  10.594  10.986 -0.5580  0.3969  0.5632
  748MOL0     C98622   9.622  10.698  11.025 -0.0199 -0.0725  0.4735
  748MOL0     C98623   9.705  10.709  10.913  0.1877 -0.1480  0.1595
  748MOL0     C98624   9.824  10.806  10.903  0.1295  0.2133 -0.1514
  748MOL0     C98625   9.819  10.880  10.769 -0.4182  0.6545  0.1744
  748MOL0     C98626   9.941  10.938  10.712  0.1667  0.5483  0.1372
  748MOL0     C98627   9.915  10.971  10.562  0.2475  0.0773  0.4414
  748MOL0     O98628   9.828  11.088  10.566  0.1350 -0.1334  0.3530
  748MOL0     C98629   9.704  11.101  10.507 -0.4367 -0.2242 -0.2130
  748MOL0     C98630   9.641  11.227  10.518  0.4354  0.1760 -0.5383
  748MOL0     C98631   9.524  11.254  10.450 -0.1039 -0.7441  0.7369
  748MOL0     C98632   9.465  11.151  10.382  0.3694  0.3665 -0.5170
  748MOL0     C98633   9.331  11.177  10.328  0.4651 -0.0182  1.1926
  748MOL0     O98634   9.288  11.306  10.313  0.6750 -0.0849 -0.2481
  748MOL0     C98635   9.160  11.327  10.272  1.0997  0.0228  0.3891
  748MOL0     C98636   9.108  11.260  10.159  0.7492 -0.6630  0.2715
  748MOL0     C98637   8.969  11.278  10.125 -0.4743 -0.6761 -0.4721
  748MOL0     C98638   8.897  11.379  10.193 -0.6510  0.4764 -0.6690
  748MOL0     O98639   8.772  11.383  10.148 -0.4273 -0.3292  0.3426
  748MOL0     C98640   8.697  11.502  10.187  0.2207  0.0793  1.1176
  748MOL0     C98641   8.565  11.509  10.108 -0.4359  0.3408 -0.2331
  748MOL0     C98642   8.484  11.643  10.115  0.4510  1.0610 -0.9608
  748MOL0     C98643   8.352  11.641  10.039  0.0761  0.5618 -0.0153
  748MOL0     C98644   8.224  11.593  10.111  1.0400  0.5450  0.3433
  748MOL0     C98645   8.112  11.614  10.007  0.3992 -0.2682 -0.1365
  748MOL0     C98646   7.976  11.572  10.061 -0.1453  0.9355  0.6912
  748MOL0     C98647   7.874  11.582   9.948  0.6271  0.2149 -0.5398
  748MOL0    Cl98648   7.744  11.484  10.004  0.2419 -0.1811  0.1018
  748MOL0     C98649   8.955  11.459  10.294  0.2280  0.6470  0.5874
  748MOL0     C98650   9.089  11.431  10.333 -0.0730 -0.7867 -0.0204
  748MOL0     O98651   9.263  11.077  10.306  1.3133  0.2864  0.2563
  748MOL0     C98652   9.528  11.027  10.368  1.1653 -0.1043  0.3747
  748MOL0     C98653   9.643  10.998  10.443  0.2591  0.0277  0.1572
  748MOL0     N98654   9.676  10.618  10.815 -0.6337 -0.7342 -0.1571
  748MOL0     N98655   9.585  10.539  10.863 -0.2713 -0.1760  1.1439
  748MOL0     C98656   8.281  10.668  11.161 -0.6757  0.5049 -0.2571
  748MOL0     C98657   8.148  10.624  11.135  0.3379  0.0749  0.2119
  748MOL0     C98658   7.784  10.625  10.886  0.1541 -0.1546 -0.4798
  748MOL0     C98659   7.697  10.733  10.859 -0.1952  0.5237 -0.0478
  748MOL0     C98660   7.572  10.706  10.795 -0.7045 -0.8088 -0.1359
  748MOL0     C98661   7.530  10.580  10.769 -0.2135  0.3319 -0.2696
  748MOL0     O98662   7.405  10.572  10.729 -0.0845  0.7354  0.2386
  748MOL0     C98663   7.364  10.449  10.661  0.1661 -1.2641  0.2907
  748MOL0     C98664   7.224  10.473  10.596  1.1225  0.0008  0.1130
  748MOL0     C98665   7.127  10.536  10.700  0.3810 -0.1391 -0.4693
  748MOL0     C98666   6.977  10.498  10.676 -0.3652  0.5801 -0.3381
  748MOL0     C98667   6.919  10.567  10.557  0.1193 -0.3750  0.3954
  748MOL0     C98668   6.878  10.632  10.456  0.8621  0.1186 -0.1418
  748MOL0     C98669   7.620  10.476  10.811 -0.2533  0.4389 -0.3924
  748MOL0     C98670   7.744  10.498  10.862  0.2269 -0.1310  0.2056
  748MOL0     H98671   8.189  10.560  10.804  1.9454  0.1355 -0.7463
  748MOL0     H98672   8.417  10.618  10.855  1.6786  0.9309  0.7208
  748MOL0     H98673   8.494  10.639  11.291  0.4544 -2.9137 -2.1255
  748MOL0     H98674   8.539  10.810  11.249 -1.8845 -0.2214  1.0833
  748MOL0     H98675   8.707  10.550  11.237  2.8048  0.7036 -1.0294
  748MOL0     H98676   8.711  10.680  11.360 -1.3765  2.6952  0.0470
  748MOL0     H98677   8.825  10.830  11.210  0.8111  0.7099 -1.7847
  748MOL0     H98678   8.781  10.730  11.075  1.5579 -0.4164  0.0158
  748MOL0     H98679   8.966  10.644  11.281  2.1593 -2.8077 -0.6105
  748MOL0     H98680   8.921  10.539  11.160  0.1415 -0.5568  4.3996
  748MOL0     H98681   9.081  10.788  11.093 -1.4569 -0.0149 -0.0982
  748MOL0     H98682   9.029  10.662  10.980  0.0246 -2.6830 -0.1388
  748MOL0     H98683   9.170  10.495  11.115 -0.2558  0.2954  3.0679
  748MOL0     H98684   9.217  10.612  11.229  1.2903 -0.6345 -0.2835
  748MOL0     H98685   9.273  10.618  10.922 -2.1885  1.7560  0.0285
  748MOL0     H98686   9.332  10.743  11.035  0.1917 -0.9259  2.4475
  748MOL0     H98687   9.400  10.449  11.053  0.0170  0.8723 -2.1970
  748MOL0     H98688   9.456  10.581  11.166  0.2537 -0.2319  0.4372
  748MOL0     H98689   9.626  10.746  11.122 -1.9499 -1.0316  1.0778
  748MOL0     H98690   9.913  10.742  10.905 -0.0845 -0.1104 -0.6742
  748MOL0     H98691   9.826  10.880  10.983  1.5636  0.2785 -0.2342
  748MOL0     H98692   9.743  10.958  10.775 -0.1259  0.9670 -0.1508
  748MOL0     H98693   9.780  10.808  10.697  0.0581  0.1921  0.3636
  748MOL0     H98694   9.985  11.026  10.760  0.5938 -0.0793  0.9204
  748MOL0     H98695  10.013  10.855  10.716  1.5812  1.7646  1.1903
  748MOL0     H98696   9.872  10.889  10.504  0.4672  0.3697 -0.1514
  748MOL0     H98697  10.013  10.995  10.519  1.2444  0.2815  2.7152
  748MOL0     H98698   9.689  11.295  10.588  3.1140  1.0229 -2.9881
  748MOL0     H98699   9.475  11.351  10.457  1.0069 -0.1810  1.0328
  748MOL0     H98700   9.157  11.184  10.099  0.0578  0.1118 -1.3292
  748MOL0     H98701   8.923  11.218  10.047 -1.6616  0.3673 -0.6098
  748MOL0     H98702   8.754  11.593  10.167  0.6177 -0.6713 -1.5524
  748MOL0     H98703   8.676  11.505  10.294  1.2712  0.0647  1.3337
  748MOL0     H98704   8.500  11.427  10.139  0.0851 -0.0792 -0.2501
  748MOL0     H98705   8.584  11.497  10.001 -0.0200  0.9763 -0.2330
  748MOL0     H98706   8.542  11.726  10.074 -0.1534  2.4131  0.7903
  748MOL0     H98707   8.459  11.667  10.219 -3.2696 -2.0027 -0.9487
  748MOL0     H98708   8.329  11.743  10.007  0.5654  0.4941 -0.5845
  748MOL0     H98709   8.381  11.583   9.951  2.9098  0.1353  1.0670
  748MOL0     H98710   8.203  11.662  10.194 -0.8935 -0.0715  0.4161
  748MOL0     H98711   8.227  11.490  10.148 -3.9450  0.2391  0.6636
  748MOL0     H98712   8.140  11.553   9.920  0.9680  0.0949 -0.2169
  748MOL0     H98713   8.117  11.720   9.981  0.0576  0.5286  2.7184
  748MOL0     H98714   7.982  11.470  10.098 -1.2277  0.4016 -0.5117
  748MOL0     H98715   7.946  11.634  10.146 -2.2788 -0.3011  0.9249
  748MOL0     H98716   7.910  11.538   9.855  3.0965  0.4836  0.2069
  748MOL0     H98717   7.835  11.682   9.930 -3.2928 -1.2255 -0.9228
  748MOL0     H98718   8.905  11.541  10.345  1.6249  1.3979  0.8081
  748MOL0     H98719   9.133  11.489  10.413 -0.8354  0.7165 -0.6557
  748MOL0     H98720   9.474  10.946  10.320  0.2448  0.3764  0.5790
  748MOL0     H98721   9.688  10.901  10.424  3.1630  1.3170 -0.1170
  748MOL0     H98722   8.295  10.709  11.261 -5.9276  1.0428  0.5415
  748MOL0     H98723   8.078  10.616  11.217  0.4116 -0.8294  0.1946
  748MOL0     H98724   7.716  10.834  10.893  0.9462  0.0833  0.6778
  748MOL0     H98725   7.495  10.781  10.781  0.3197  0.1575 -0.8071
  748MOL0     H98726   7.365  10.376  10.743  1.2743 -2.6694 -0.9190
  748MOL0     H98727   7.430  10.413  10.581  0.4430  0.5489 -0.3403
  748MOL0     H98728   7.237  10.538  10.510  0.6383  0.7795  0.6160
  748MOL0     H98729   7.173  10.387  10.551  0.9708 -0.4701  1.1392
  748MOL0     H98730   7.134  10.643  10.679 -1.5150 -0.0509 -0.7964
  748MOL0     H98731   7.157  10.520  10.804  2.6784  0.3639 -0.9988
  748MOL0     H98732   6.974  10.389  10.662 -3.7664  0.0477  3.0717
  748MOL0     H98733   6.907  10.523  10.756 -2.4085 -3.0587 -0.7331
  748MOL0     H98734   6.849  10.683  10.367  0.9346 -1.0107 -0.8408
  748MOL0     H98735   7.601  10.369  10.805  0.9220  0.1600  0.5214
  748MOL0     H98736   7.817  10.425  10.896  0.6834 -0.2728 -1.0005
  749MOL0     O98737   6.123  10.123  10.067  0.4459 -0.0652 -0.4633
  749MOL0     C98738   6.060  10.137   9.962 -0.5136 -0.3732 -0.6468
  749MOL0     O98739   6.116  10.130   9.841  0.2833 -0.7565 -0.0432
  749MOL0     C98740   6.250  10.147   9.818 -0.3184 -0.3177  0.3776
  749MOL0     C98741   6.338  10.219   9.896  0.0962  0.2277 -0.5316
  749MOL0     C98742   6.470  10.215   9.869 -0.3084  0.5016 -0.3267
  749MOL0     C98743   6.524  10.165   9.751  0.7754  0.6930  0.4986
  749MOL0     O98744   6.652  10.175   9.728 -0.3899  0.5052 -0.2675
  749MOL0     C98745   6.704  10.139   9.596  0.2624 -0.0437 -1.3041
  749MOL0     C98746   6.854  10.111   9.606  0.4437  0.0963  0.4314
  749MOL0     C98747   6.887   9.994   9.696 -0.6067  0.0345 -0.3031
  749MOL0     C98748   7.034   9.949   9.703 -0.7115  0.6187  0.1317
  749MOL0     C98749   7.119  10.047   9.788 -0.1396  0.8493 -0.3264
  749MOL0     C98750   7.267  10.003   9.800 -0.8980  0.0056  0.5590
  749MOL0     C98751   7.305   9.894   9.892  0.6680 -0.8096  0.2851
  749MOL0     C98752   7.440   9.817   9.854 -0.1553 -0.2056 -0.1739
  749MOL0     N98753   7.559   9.907   9.875  0.1877  0.2637 -0.0138
  749MOL0     C98754   7.589  10.014   9.795  0.6317  0.1140 -0.7192
  749MOL0     C98755   7.685  10.083   9.865  0.1497  0.3214 -0.5352
  749MOL0     C98756   7.744  10.214   9.814  0.3356 -0.5472 -1.0261
  749MOL0     C98757   7.670  10.341   9.842  0.7655 -1.0270 -0.0774
  749MOL0     C98758   7.525  10.348   9.784 -0.5778 -0.5876 -0.0558
  749MOL0     C98759   7.513  10.319   9.638 -0.0964 -0.3916 -0.7624
  749MOL0     O98760   7.371  10.292   9.620 -0.0045  1.4656  0.4215
  749MOL0     C98761   7.286  10.392   9.597 -0.5331  0.5505 -0.0457
  749MOL0     C98762   7.165  10.332   9.551  0.4728 -0.2557  0.1881
  749MOL0     C98763   7.057  10.420   9.517  0.0408  0.1169  0.8281
  749MOL0     C98764   7.074  10.568   9.524  0.0716 -0.1507 -0.0871
  749MOL0     C98765   6.966  10.657   9.468  0.2660  0.8302  0.3915
  749MOL0     O98766   6.848  10.599   9.441 -0.1007  0.7710  0.0660
  749MOL0     C98767   6.740  10.679   9.406  0.4274  0.1890  0.3485
  749MOL0     C98768   6.622  10.686   9.489 -0.0709 -0.7147 -0.6737
  749MOL0     C98769   6.512  10.763   9.448  0.4753 -0.5038 -0.1699
  749MOL0     C98770   6.516  10.815   9.311 -0.2629  0.2924 -0.2560
  749MOL0     O98771   6.416  10.895   9.260 -0.6735 -0.0632  0.0368
  749MOL0     C98772   6.287  10.879   9.316  0.1705 -0.3509  0.3778
  749MOL0     C98773   6.188  10.946   9.217  0.9155  0.3406 -1.0395
  749MOL0     C98774   6.050  10.968   9.276 -0.3007 -0.5283  0.0236
  749MOL0     C98775   6.000  10.865   9.371 -0.2327  1.1414  0.2611
  749MOL0     C98776   5.855  10.891   9.415  0.0972 -0.5144  0.7079
  749MOL0     C98777   5.814  10.783   9.503  0.5919  0.0378 -0.5858
  749MOL0     C98778   5.661  10.752   9.510  0.4647  0.0386  0.0498
  749MOL0     C98779   5.615  10.627   9.425  0.2281 -0.2914 -0.4940
  749MOL0    Cl98780   5.639  10.640   9.243  0.0286 -0.1825  0.4664
  749MOL0     C98781   6.626  10.801   9.233 -0.0056 -0.1889 -0.3212
  749MOL0     C98782   6.744  10.740   9.282  0.2343 -1.0300 -0.2723
  749MOL0     O98783   6.993  10.777   9.442 -0.2239  0.6499 -0.3647
  749MOL0     C98784   7.200  10.623   9.565 -0.6412 -0.3043  0.0787
  749MOL0     C98785   7.311  10.535   9.592 -0.2850 -0.5477 -0.5131
  749MOL0     N98786   7.705  10.015   9.985 -0.3300  0.3002 -0.5039
  749MOL0     N98787   7.633   9.910   9.994  0.1751 -0.2413  0.1906
  749MOL0     C98788   6.431  10.108   9.662 -0.1333  0.2636 -0.0545
  749MOL0     C98789   6.293  10.093   9.696 -0.2674  0.1811 -0.0440
  749MOL0     C98790   5.916  10.134   9.976  0.2227  0.5944  0.5111
  749MOL0     C98791   5.835  10.122   9.863  0.2632  0.7626  0.8845
  749MOL0     C98792   5.692  10.132   9.876 -0.6398  0.0943  0.3238
  749MOL0     C98793   5.630  10.146   9.997 -0.8799  0.9077 -0.9076
  749MOL0     O98794   5.496  10.144   9.994  0.0248 -0.3014  0.1449
  749MOL0     C98795   5.435  10.134  10.120 -0.3536  0.4163  0.2885
  749MOL0     C98796   5.291  10.088  10.100  0.1645 -0.6515 -0.2731
  749MOL0     C98797   5.196  10.202  10.056  0.0581  0.0892 -0.4688
  749MOL0     C98798   5.059  10.154  10.005 -0.1004 -0.1609 -0.2136
  749MOL0     C98799   4.993  10.261   9.920 -0.8161  0.1228  1.0342
  749MOL0     C98800   4.956  10.337   9.834 -0.3712  0.2209  0.2906
  749MOL0     C98801   5.714  10.161  10.113 -0.5496  0.5035  0.5953
  749MOL0     C98802   5.852  10.156  10.099 -0.6630  0.8748  0.3085
  749MOL0     H98803   6.307  10.266   9.989 -2.2085 -0.1757 -1.0309
  749MOL0     H98804   6.543  10.254   9.939  0.5687  1.0309 -1.4998
  749MOL0     H98805   6.682  10.221   9.526  0.4811  2.1066  1.0230
  749MOL0     H98806   6.660  10.045   9.560  2.0576 -2.0436  1.3727
  749MOL0     H98807   6.909  10.202   9.632  0.0254  0.4513  0.0907
  749MOL0     H98808   6.899  10.088   9.509  3.5997  1.0108  1.5494
  749MOL0     H98809   6.838   9.903   9.660  0.1699 -0.6112  0.2384
  749MOL0     H98810   6.860  10.014   9.800 -1.6236  2.0649 -0.8993
  749MOL0     H98811   7.032   9.848   9.746 -2.5322  0.1592 -0.9197
  749MOL0     H98812   7.075   9.949   9.602  0.7269 -0.3557  0.6826
  749MOL0     H98813   7.075  10.063   9.887 -3.0263 -0.1705 -1.3455
  749MOL0     H98814   7.117  10.146   9.741 -2.4176  2.5210  2.8564
  749MOL0     H98815   7.318  10.091   9.840 -0.2430 -0.7185  1.3655
  749MOL0     H98816   7.295   9.974   9.699  0.1807  1.9310  0.2740
  749MOL0     H98817   7.326   9.942   9.988  1.4619  0.6629 -0.5984
  749MOL0     H98818   7.231   9.814   9.908  0.8908 -1.3397 -1.1549
  749MOL0     H98819   7.435   9.775   9.753 -2.0468 -0.0039 -0.2055
  749MOL0     H98820   7.448   9.738   9.929  0.0843 -0.5166 -0.5252
  749MOL0     H98821   7.549  10.028   9.695 -2.6178 -1.1939  0.2719
  749MOL0     H98822   7.759  10.200   9.706 -1.7927 -1.2387 -1.2710
  749MOL0     H98823   7.845  10.227   9.854 -0.4252 -0.1552  0.8739
  749MOL0     H98824   7.730  10.426   9.810 -0.9044  2.1928  4.3887
  749MOL0     H98825   7.662  10.361   9.949  2.9536  1.3225 -0.2663
  749MOL0     H98826   7.472  10.277   9.848 -2.5175 -0.4328 -1.4136
  749MOL0     H98827   7.476  10.444   9.799  0.8045  0.0150  0.8250
  749MOL0     H98828   7.576  10.237   9.602 -0.7082 -0.9117 -0.6682
  749MOL0     H98829   7.550  10.409   9.588  1.3158 -0.8702 -0.6009
  749MOL0     H98830   7.148  10.225   9.547  0.2999 -0.4337  3.2550
  749MOL0     H98831   6.957  10.389   9.487 -0.5165  0.6591  2.0586
  749MOL0     H98832   6.615  10.641   9.588 -0.9087 -1.4243 -1.0435
  749MOL0     H98833   6.425  10.775   9.511 -0.6519 -0.9771 -1.5840
  749MOL0     H98834   6.291  10.922   9.417  0.2354 -2.2750  1.2349
  749MOL0     H98835   6.261  10.773   9.328  2.0895 -0.8596  0.4343
  749MOL0     H98836   6.174  10.888   9.125 -4.7546 -0.8546  0.1742
  749MOL0     H98837   6.235  11.043   9.202 -2.7588  2.7989  1.4438
  749MOL0     H98838   5.969  10.977   9.202  0.1299 -1.4824 -0.5770
  749MOL0     H98839   6.055  11.060   9.335 -1.4907  0.6165 -1.5503
  749MOL0     H98840   6.007  10.771   9.316 -0.3469 -1.2722  3.9884
  749MOL0     H98841   6.058  10.871   9.464 -1.2849  2.0841  0.8919
  749MOL0     H98842   5.793  10.889   9.325  0.9039 -3.6483  0.0972
  749MOL0     H98843   5.843  10.988   9.464 -1.5369  1.0898 -2.5255
  749MOL0     H98844   5.854  10.807   9.602  0.0713  1.3608 -0.6716
  749MOL0     H98845   5.862  10.696   9.458  0.2622  1.1589 -3.3676
  749MOL0     H98846   5.629  10.731   9.613  0.3863 -2.5203 -0.4312
  749MOL0     H98847   5.608  10.843   9.483  1.9299  1.0801  0.5660
  749MOL0     H98848   5.510  10.602   9.445  0.8075 -0.9720  2.0249
  749MOL0     H98849   5.680  10.544   9.452 -0.6272  0.1890  3.8082
  749MOL0     H98850   6.628  10.845   9.133  0.8294 -1.3712 -0.8582
  749MOL0     H98851   6.838  10.738   9.228 -1.0873 -0.5834 -2.7974
  749MOL0     H98852   7.226  10.728   9.564  0.0351 -0.4404 -2.0101
  749MOL0     H98853   7.406  10.580   9.615 -0.6041  0.0091 -0.2638
  749MOL0     H98854   6.454  10.079   9.560 -1.5099  1.3575 -0.7089
  749MOL0     H98855   6.222  10.038   9.636  0.1966 -1.0660  0.5078
  749MOL0     H98856   5.871  10.114   9.761 -1.2600 -0.9287  0.4352
  749MOL0     H98857   5.633  10.119   9.786  2.1126  1.2336 -1.7766
  749MOL0     H98858   5.443  10.234  10.164  1.5045  1.1973 -1.6789
  749MOL0     H98859   5.482  10.053  10.177  0.3118  0.1706 -0.6028
  749MOL0     H98860   5.273  10.009  10.026 -2.8495 -0.5624  0.2160
  749MOL0     H98861   5.259  10.048  10.197  0.8599  1.6520  0.9890
  749MOL0     H98862   5.255  10.263   9.987  0.3756  0.5027  0.1574
  749MOL0     H98863   5.183  10.257  10.150 -0.8820 -0.2857 -0.3683
  749MOL0     H98864   5.080  10.064   9.946 -2.5030 -1.4402  0.7485
  749MOL0     H98865   4.999  10.126  10.092 -2.4784  0.4052 -1.5718
  749MOL0     H98866   4.921  10.403   9.757 -0.4748 -0.8173 -0.5676
  749MOL0     H98867   5.673  10.171  10.213  1.7234  3.5658  1.3645
  749MOL0     H98868   5.895  10.154  10.199 -1.4556  1.3180  0.6742
  750MOL0     O98869   1.442   4.850   5.559 -0.5468 -0.1497  0.1758
  750MOL0     C98870   1.466   4.746   5.623  0.1765  0.2714  0.5633
  750MOL0     O98871   1.385   4.680   5.708  0.0503  0.9949 -0.3790
  750MOL0     C98872   1.277   4.738   5.758 -0.3444  0.1018  1.0064
  750MOL0     C98873   1.162   4.662   5.784  0.1810 -0.2496 -0.8386
  750MOL0     C98874   1.059   4.711   5.862  0.5852  0.5274 -0.6232
  750MOL0     C98875   1.063   4.843   5.908 -1.2948 -0.1944 -0.2952
  750MOL0     O98876   0.972   4.900   5.990  0.4262 -0.1378  0.2020
  750MOL0     C98877   0.905   5.019   5.951 -0.0881 -0.2031 -0.3296
  750MOL0     C98878   0.762   4.973   5.929 -0.5806 -0.0263 -0.0352
  750MOL0     C98879   0.665   5.088   5.902 -0.0101  0.2885 -0.1041
  750MOL0     C98880   0.524   5.038   5.879  0.1826  0.2348 -0.6067
  750MOL0     C98881   0.419   5.153   5.886  0.7450 -0.6169 -0.5431
  750MOL0     C98882   0.334   5.157   6.017 -0.2258 -0.4966 -0.7070
  750MOL0     C98883   0.218   5.249   6.000  0.6583  0.0722  0.9275
  750MOL0     C98884   0.174   5.272   6.147 -0.8324 -0.0455 -0.8704
  750MOL0     N98885   0.041   5.338   6.157 -0.4235 -0.8355 -0.5787
  750MOL0     C98886   0.019   5.464   6.097 -0.8594 -0.2843 -0.5253
  750MOL0     C98887  -0.110   5.500   6.133 -0.2633  1.3995 -0.5125
  750MOL0     C98888  -0.184   5.617   6.081 -0.0278  0.5002 -0.9234
  750MOL0     C98889  -0.218   5.628   5.935 -0.3081  0.2642 -0.3244
  750MOL0     C98890  -0.331   5.541   5.893  0.0580 -1.0283 -0.2333
  750MOL0     C98891  -0.457   5.613   5.915  0.4620  0.3516  0.0046
  750MOL0     O98892  -0.565   5.520   5.888  0.5808 -0.4820 -0.3959
  750MOL0     C98893  -0.685   5.580   5.871  0.0150  0.7054  0.2536
  750MOL0     C98894  -0.715   5.674   5.773  0.7881  0.3144  0.5639
  750MOL0     C98895  -0.846   5.732   5.768  0.8075  0.5233 -0.2767
  750MOL0     C98896  -0.951   5.690   5.856 -1.1919 -0.1834 -0.9361
  750MOL0     C98897  -1.082   5.743   5.837 -0.8256  0.5612  0.1528
  750MOL0     O98898  -1.179   5.694   5.918  0.2634  0.3503  0.1923
  750MOL0     C98899  -1.311   5.738   5.901 -0.0494 -0.1729  0.2648
  750MOL0     C98900  -1.397   5.696   6.008 -0.2317 -0.1206  0.2803
  750MOL0     C98901  -1.525   5.738   6.011  0.1570 -0.3256 -0.1265
  750MOL0     C98902  -1.576   5.836   5.925  0.5978 -0.7114 -1.2861
  750MOL0     O98903  -1.707   5.881   5.929 -0.7949 -0.0456  0.3270
  750MOL0     C98904  -1.802   5.811   6.004 -0.4807  0.0457 -0.6695
  750MOL0     C98905  -1.936   5.887   5.995  0.2183 -0.0171  0.9441
  750MOL0     C98906  -2.042   5.835   6.095  0.1521 -0.8209  0.2857
  750MOL0     C98907  -2.177   5.916   6.069 -0.4389 -1.6138 -0.5428
  750MOL0     C98908  -2.295   5.872   6.159  0.0412 -0.6194 -0.3520
  750MOL0     C98909  -2.256   5.843   6.304 -0.3084 -0.8595 -0.2425
  750MOL0     C98910  -2.379   5.848   6.392  0.1760  0.1774 -0.1956
  750MOL0     C98911  -2.343   5.795   6.529 -0.2740  0.7706 -0.4268
  750MOL0    Cl98912  -2.283   5.627   6.526 -0.1744  0.2335 -0.0169
  750MOL0     C98913  -1.491   5.883   5.832  0.7306 -0.4165  0.3277
  750MOL0     C98914  -1.359   5.834   5.817 -0.2136 -0.4452  0.3641
  750MOL0     O98915  -1.089   5.831   5.744 -0.0361  0.4756 -0.5189
  750MOL0     C98916  -0.919   5.586   5.951  0.0908 -0.2805 -0.0570
  750MOL0     C98917  -0.788   5.529   5.953  0.6869 -0.0354  0.2112
  750MOL0     N98918  -0.167   5.392   6.200 -0.0438  0.1363 -0.3544
  750MOL0     N98919  -0.075   5.295   6.210 -0.8919 -0.6249  0.3087
  750MOL0     C98920   1.170   4.924   5.876  0.0613 -0.0141 -0.1750
  750MOL0     C98921   1.271   4.872   5.798 -0.0238  0.3821  0.3112
  750MOL0     C98922   1.606   4.693   5.611  1.5760 -0.1686 -0.0901
  750MOL0     C98923   1.651   4.593   5.694  0.0336 -1.4260  1.0228
  750MOL0     C98924   1.790   4.546   5.684  0.3839  0.5640 -0.0147
  750MOL0     C98925   1.879   4.600   5.595  0.0333  0.1699 -1.1586
  750MOL0     O98926   2.011   4.573   5.581  0.4831  0.0383  0.6418
  750MOL0     C98927   2.068   4.452   5.623 -0.0699 -0.2170 -0.2442
  750MOL0     C98928   2.210   4.437   5.575 -0.2879 -0.2153 -0.0640
  750MOL0     C98929   2.297   4.557   5.611 -0.4756  0.2598  0.4925
  750MOL0     C98930   2.430   4.509   5.670  0.2504  0.0576  0.0781
  750MOL0     C98931   2.503   4.615   5.730 -0.2880 -0.2917 -0.6141
  750MOL0     C98932   2.568   4.700   5.790  0.3935  0.2134  0.2061
  750MOL0     C98933   1.826   4.689   5.497  0.3877  0.7065  0.1745
  750MOL0     C98934   1.690   4.744   5.507  0.0456  0.2381 -0.1264
  750MOL0     H98935   1.173   4.558   5.754  3.9401 -0.0138 -0.6929
  750MOL0     H98936   0.985   4.642   5.901  1.3334 -1.3772 -2.3719
  750MOL0     H98937   0.946   5.062   5.859  0.5682  0.9131  0.4463
  750MOL0     H98938   0.912   5.101   6.024 -1.5812 -1.8478  1.7573
  750MOL0     H98939   0.725   4.923   6.020 -0.3110  1.3435  0.8540
  750MOL0     H98940   0.751   4.907   5.843  0.9986 -0.0977 -0.2124
  750MOL0     H98941   0.695   5.142   5.812 -2.5570  1.7634 -0.1745
  750MOL0     H98942   0.664   5.150   5.992 -0.7808 -1.7455  1.3722
  750MOL0     H98943   0.531   4.996   5.778  0.6233  0.2110 -0.5697
  750MOL0     H98944   0.486   4.960   5.945 -1.1356 -0.8472 -2.5581
  750MOL0     H98945   0.356   5.158   5.797 -0.7787  0.7319  0.5432
  750MOL0     H98946   0.468   5.250   5.897  0.9561 -0.9041  1.4484
  750MOL0     H98947   0.401   5.193   6.095 -0.2673  0.7207 -1.2055
  750MOL0     H98948   0.300   5.057   6.046 -2.2899  0.5707  0.8593
  750MOL0     H98949   0.245   5.343   5.952  3.6081 -1.5151 -0.7938
  750MOL0     H98950   0.134   5.197   5.953  1.2015 -1.0438  1.1507
  750MOL0     H98951   0.253   5.340   6.179  0.8337 -1.2985 -2.0752
  750MOL0     H98952   0.171   5.180   6.207 -1.3148  1.1698  1.0259
  750MOL0     H98953   0.088   5.516   6.032  0.1736 -0.4442  0.4064
  750MOL0     H98954  -0.133   5.713   6.097 -2.8013  2.2916 -2.1657
  750MOL0     H98955  -0.275   5.629   6.140 -0.5120  1.5628 -1.8637
  750MOL0     H98956  -0.127   5.599   5.882  0.8556 -3.4302  3.2449
  750MOL0     H98957  -0.241   5.734   5.918 -2.0019  0.7025  3.6028
  750MOL0     H98958  -0.326   5.519   5.786  1.6726 -1.4859 -0.0957
  750MOL0     H98959  -0.321   5.450   5.953  0.5783  0.4932  2.0884
  750MOL0     H98960  -0.458   5.695   5.843 -0.8934 -1.9234 -2.8051
  750MOL0     H98961  -0.456   5.643   6.020  5.3865 -3.9224  1.6099
  750MOL0     H98962  -0.627   5.708   5.719  0.8747  1.3430  1.3239
  750MOL0     H98963  -0.864   5.802   5.688  0.6455  0.3058 -0.4314
  750MOL0     H98964  -1.348   5.636   6.084 -1.0562 -1.0006  0.1344
  750MOL0     H98965  -1.582   5.699   6.094  1.7154  0.4379  1.3585
  750MOL0     H98966  -1.775   5.799   6.110  0.2520  0.0940 -0.8454
  750MOL0     H98967  -1.808   5.712   5.958 -0.5515 -0.1075 -0.3375
  750MOL0     H98968  -1.970   5.875   5.892  2.7597  1.6715 -0.1951
  750MOL0     H98969  -1.914   5.993   6.008 -0.2371  0.2102 -0.0755
  750MOL0     H98970  -2.013   5.846   6.200 -2.2256 -1.4561  1.0597
  750MOL0     H98971  -2.065   5.732   6.068 -0.5601 -0.7264  0.5017
  750MOL0     H98972  -2.154   6.023   6.073  1.4722 -1.9611 -1.3137
  750MOL0     H98973  -2.212   5.898   5.967 -0.0685 -1.5862 -0.6767
  750MOL0     H98974  -2.353   5.794   6.109 -1.1703  0.8887 -1.3970
  750MOL0     H98975  -2.365   5.956   6.161 -0.2845 -0.8914 -0.0483
  750MOL0     H98976  -2.177   5.909   6.340  1.4531 -2.6708 -0.5611
  750MOL0     H98977  -2.214   5.742   6.303 -2.1046 -1.6558  0.6133
  750MOL0     H98978  -2.428   5.944   6.412 -0.2735 -0.2987  1.0965
  750MOL0     H98979  -2.457   5.779   6.358 -0.8517  1.1897  0.0142
  750MOL0     H98980  -2.423   5.797   6.604 -0.1285  1.5563 -0.2844
  750MOL0     H98981  -2.252   5.845   6.566 -1.2185  0.1156  3.1442
  750MOL0     H98982  -1.527   5.960   5.764 -1.1175 -0.7211  0.9246
  750MOL0     H98983  -1.308   5.882   5.734  1.0659 -6.5289 -3.0154
  750MOL0     H98984  -0.985   5.538   6.022 -0.8434  0.4691 -0.3980
  750MOL0     H98985  -0.770   5.448   6.022  0.7211  2.7246  3.7602
  750MOL0     H98986   1.191   5.025   5.911  1.5866 -0.2662 -0.3234
  750MOL0     H98987   1.349   4.938   5.763  0.4124 -0.0798  0.3908
  750MOL0     H98988   1.591   4.564   5.780 -0.7535  0.4170  1.1291
  750MOL0     H98989   1.829   4.468   5.749  0.3769 -0.7097 -1.4741
  750MOL0     H98990   2.003   4.367   5.597  0.7619 -0.9214 -0.0735
  750MOL0     H98991   2.079   4.457   5.732 -0.8675 -1.0576 -0.1085
  750MOL0     H98992   2.256   4.349   5.622 -1.6132  1.1605  4.3798
  750MOL0     H98993   2.202   4.415   5.469 -3.7778 -2.7203  0.5620
  750MOL0     H98994   2.250   4.623   5.684 -0.8262 -0.0179  0.5217
  750MOL0     H98995   2.308   4.626   5.526  0.4955  0.6470  0.9109
  750MOL0     H98996   2.414   4.434   5.748  3.4900  0.2596  1.0984
  750MOL0     H98997   2.494   4.469   5.590  1.3322 -0.5309  1.1914
  750MOL0     H98998   2.605   4.780   5.851  0.7773 -2.4185  3.7949
  750MOL0     H98999   1.897   4.718   5.420  1.2322 -1.0980  0.2196
  750MOL0     H99000   1.649   4.820   5.441 -1.8310  1.5888  2.4100
  751MOL0     O99001   7.570   3.562   8.741 -0.1009 -0.5118 -0.0503
  751MOL0     C99002   7.623   3.465   8.700 -1.2761 -0.6598  0.1282
  751MOL0     O99003   7.576   3.340   8.692  0.7129 -0.2020  0.4597
  751MOL0     C99004   7.442   3.317   8.728 -0.2688  0.0946 -0.2445
  751MOL0     C99005   7.419   3.283   8.861 -0.5005  0.3539 -0.0520
  751MOL0     C99006   7.290   3.260   8.905  0.1516 -0.3656 -0.6565
  751MOL0     C99007   7.181   3.277   8.821 -0.6634 -0.2108  0.4901
  751MOL0     O99008   7.060   3.245   8.869  0.1530 -0.0034 -0.1018
  751MOL0     C99009   6.991   3.365   8.876  1.0304 -0.0264  0.0057
  751MOL0     C99010   6.853   3.342   8.938  0.0224  0.3972 -0.4354
  751MOL0     C99011   6.753   3.279   8.841  0.0846  0.2921  0.3689
  751MOL0     C99012   6.802   3.136   8.812 -0.0600  0.3188 -0.5999
  751MOL0     C99013   6.706   3.037   8.755 -0.4063  0.6224  0.5282
  751MOL0     C99014   6.751   2.893   8.721  0.6576  0.4697  0.4553
  751MOL0     C99015   6.632   2.791   8.693 -0.6423 -0.4927 -0.4720
  751MOL0     C99016   6.560   2.830   8.559 -0.4923 -0.4782 -0.2147
  751MOL0     N99017   6.473   2.721   8.511 -0.6988  0.0488  0.8349
  751MOL0     C99018   6.440   2.709   8.376 -0.1831 -0.3499  0.4270
  751MOL0     C99019   6.343   2.619   8.380 -1.1023  0.3073  0.3811
  751MOL0     C99020   6.256   2.577   8.261 -0.0386  0.4538  0.5058
  751MOL0     C99021   6.227   2.683   8.149 -0.4560 -0.1298 -0.3987
  751MOL0     C99022   6.168   2.611   8.030  0.2459 -0.3814 -0.3289
  751MOL0     C99023   6.032   2.550   8.042 -0.1648  0.1167 -0.1230
  751MOL0     O99024   5.943   2.667   8.046  0.5815 -0.0848  0.0457
  751MOL0     C99025   5.807   2.649   8.046  0.2472  0.1951  0.1110
  751MOL0     C99026   5.723   2.757   8.007 -0.4175  0.6331 -0.9893
  751MOL0     C99027   5.586   2.752   7.999 -0.8922  1.1947  0.0545
  751MOL0     C99028   5.523   2.629   8.033  0.0158 -0.0425 -0.3893
  751MOL0     C99029   5.378   2.620   8.017 -0.0813 -0.2415 -0.1750
  751MOL0     O99030   5.305   2.737   8.001 -0.0906  0.1645  0.5505
  751MOL0     C99031   5.179   2.718   7.954  0.4412 -0.4289 -0.2298
  751MOL0     C99032   5.097   2.822   7.991 -0.1205 -0.1850  0.2742
  751MOL0     C99033   4.971   2.842   7.948  0.1340 -0.0378  0.0896
  751MOL0     C99034   4.911   2.738   7.870 -1.0493  0.0490 -0.4579
  751MOL0     O99035   4.783   2.722   7.818  0.3922  0.3441  0.6613
  751MOL0     C99036   4.698   2.836   7.845 -0.5037  0.2210 -0.3425
  751MOL0     C99037   4.588   2.849   7.741 -0.0128 -0.1901 -0.4932
  751MOL0     C99038   4.491   2.958   7.771 -0.0803  0.2078  0.1694
  751MOL0     C99039   4.372   2.952   7.682  0.5787  0.2187  0.3217
  751MOL0     C99040   4.276   3.073   7.702 -0.6491 -0.2804  0.3190
  751MOL0     C99041   4.149   3.070   7.602  0.5862  0.1992  0.5330
  751MOL0     C99042   4.043   2.969   7.652 -0.2184  0.6815 -0.3500
  751MOL0     C99043   3.906   2.969   7.580 -0.1695 -0.4103  0.6049
  751MOL0    Cl99044   3.785   2.910   7.689 -0.3449  0.1006  0.3243
  751MOL0     C99045   4.982   2.625   7.841 -0.3578  0.2873  0.0441
  751MOL0     C99046   5.117   2.607   7.880  0.0447 -0.6200 -0.7128
  751MOL0     O99047   5.328   2.512   8.040 -0.2241 -0.2623 -0.5577
  751MOL0     C99048   5.597   2.526   8.080  0.0278  0.4893  0.4472
  751MOL0     C99049   5.743   2.527   8.081 -0.4965 -0.2480  0.2781
  751MOL0     N99050   6.314   2.585   8.510  0.4596 -0.3722  0.0977
  751MOL0     N99051   6.400   2.636   8.588  0.0078 -0.5460 -0.3171
  751MOL0     C99052   7.208   3.312   8.690  0.0890  0.5032  0.4662
  751MOL0     C99053   7.334   3.333   8.645 -0.0814  0.5389  0.5989
  751MOL0     C99054   7.756   3.494   8.642  0.1192  0.3797  0.6022
  751MOL0     C99055   7.802   3.629   8.621  1.2456  0.8580  0.4459
  751MOL0     C99056   7.931   3.667   8.600  0.3748 -0.6337 -0.3954
  751MOL0     C99057   8.027   3.566   8.614 -1.3288  0.2128  0.7298
  751MOL0     O99058   8.161   3.607   8.600  0.1777  0.0965  0.0656
  751MOL0     C99059   8.258   3.516   8.573 -0.1421  0.6696 -0.0627
  751MOL0     C99060   8.391   3.585   8.547 -0.3137 -0.8845  0.7294
  751MOL0     C99061   8.452   3.653   8.668 -0.1851 -0.0012 -0.6870
  751MOL0     C99062   8.560   3.753   8.628  0.8241  0.4126  0.1431
  751MOL0     C99063   8.682   3.678   8.613 -0.0220 -0.1710 -0.3173
  751MOL0     C99064   8.774   3.606   8.579 -0.0806 -1.1146  0.9447
  751MOL0     C99065   7.990   3.431   8.629  0.1187  0.2830 -0.0058
  751MOL0     C99066   7.853   3.398   8.641 -0.6539  0.6118 -0.2927
  751MOL0     H99067   7.509   3.269   8.920  1.6514  4.4809 -1.9295
  751MOL0     H99068   7.278   3.230   9.009 -1.8817 -1.1565 -1.0550
  751MOL0     H99069   6.974   3.400   8.774 -2.6721  0.4771  0.6232
  751MOL0     H99070   7.039   3.447   8.929  0.4355  1.4874 -1.6812
  751MOL0     H99071   6.809   3.439   8.962  0.6054  0.8198 -1.0212
  751MOL0     H99072   6.865   3.289   9.033  1.4879  1.4076 -0.0197
  751MOL0     H99073   6.744   3.341   8.752  2.7225  0.7770  0.3635
  751MOL0     H99074   6.651   3.267   8.881  0.1978  2.1393  1.3261
  751MOL0     H99075   6.886   3.142   8.741 -0.2618  1.7812 -0.7390
  751MOL0     H99076   6.838   3.092   8.905 -1.0122  0.6387 -0.0784
  751MOL0     H99077   6.660   3.081   8.666  2.5078  1.1669 -0.8270
  751MOL0     H99078   6.628   3.032   8.831  0.5937  0.1250  1.5566
  751MOL0     H99079   6.813   2.851   8.801 -0.5207 -0.5777  0.8549
  751MOL0     H99080   6.825   2.899   8.641  1.6940  2.6546  1.4882
  751MOL0     H99081   6.669   2.690   8.672 -2.0690 -0.9141 -1.1064
  751MOL0     H99082   6.559   2.779   8.773 -0.8606 -0.1350 -0.6168
  751MOL0     H99083   6.632   2.852   8.479 -0.1414 -2.7345 -0.5836
  751MOL0     H99084   6.501   2.921   8.570  0.4307  0.1333 -0.1937
  751MOL0     H99085   6.492   2.743   8.287 -0.7879  2.7522  1.1603
  751MOL0     H99086   6.158   2.535   8.287  0.9440 -0.7265  2.5087
  751MOL0     H99087   6.311   2.492   8.220 -1.2739 -0.6282  1.0300
  751MOL0     H99088   6.324   2.724   8.118 -0.4520  1.8014  1.8970
  751MOL0     H99089   6.165   2.765   8.185 -0.2750  1.0719 -2.6830
  751MOL0     H99090   6.178   2.668   7.938  1.6653 -0.5274 -0.2780
  751MOL0     H99091   6.228   2.523   8.006  3.8937  1.8485 -0.0673
  751MOL0     H99092   6.023   2.490   8.133 -0.8899  0.6716  0.1816
  751MOL0     H99093   6.011   2.479   7.962 -0.6181  0.7721 -0.5959
  751MOL0     H99094   5.769   2.851   7.978  1.0154 -0.7717 -3.7467
  751MOL0     H99095   5.524   2.834   7.962 -0.0695  1.8297  0.0561
  751MOL0     H99096   5.132   2.905   8.051 -0.8938 -0.6060  1.3259
  751MOL0     H99097   4.919   2.935   7.966 -0.0009  0.0142 -0.5518
  751MOL0     H99098   4.753   2.931   7.838 -0.6466  0.2865 -0.5629
  751MOL0     H99099   4.638   2.829   7.936 -1.4753 -1.1642 -1.0691
  751MOL0     H99100   4.530   2.757   7.745 -1.0911  0.5329  1.6580
  751MOL0     H99101   4.627   2.849   7.639  0.0505  0.1267 -0.4688
  751MOL0     H99102   4.544   3.053   7.762 -1.2410  0.8617  0.0548
  751MOL0     H99103   4.454   2.958   7.874  0.4793 -0.1555  0.3764
  751MOL0     H99104   4.401   2.941   7.577  0.4327  3.1211 -0.1133
  751MOL0     H99105   4.314   2.862   7.702 -0.0616  0.3267 -0.9193
  751MOL0     H99106   4.328   3.167   7.677  1.8566 -1.7201 -0.2954
  751MOL0     H99107   4.237   3.076   7.804 -1.3920 -0.7827  0.0513
  751MOL0     H99108   4.184   3.033   7.505  0.0367  0.7906  0.1017
  751MOL0     H99109   4.110   3.170   7.583  0.3200  0.3349  1.7154
  751MOL0     H99110   4.080   2.866   7.650 -1.0055  0.3967 -1.4610
  751MOL0     H99111   4.021   3.006   7.753  2.9288  1.0266  0.2986
  751MOL0     H99112   3.904   2.915   7.485 -3.0640  1.8730 -0.8058
  751MOL0     H99113   3.866   3.068   7.557  2.6239  1.0565  1.5768
  751MOL0     H99114   4.941   2.551   7.774  1.6271 -0.4602 -0.4125
  751MOL0     H99115   5.168   2.516   7.849  0.0774 -1.3047  1.2027
  751MOL0     H99116   5.559   2.429   8.112 -1.8179  0.4609 -1.6367
  751MOL0     H99117   5.798   2.437   8.105 -2.1693 -0.8955  1.9681
  751MOL0     H99118   7.129   3.304   8.616 -1.5684 -2.0344  2.3287
  751MOL0     H99119   7.356   3.365   8.543 -0.6175 -1.7540 -0.3192
  751MOL0     H99120   7.723   3.703   8.625 -3.0202 -3.2363  1.1645
  751MOL0     H99121   7.947   3.775   8.594 -0.0531 -0.2700  3.1442
  751MOL0     H99122   8.231   3.459   8.483 -2.1696  0.6225  0.5341
  751MOL0     H99123   8.268   3.444   8.655  3.4612  0.8143 -0.2185
  751MOL0     H99124   8.465   3.513   8.512  0.3538 -0.2625  0.8474
  751MOL0     H99125   8.368   3.662   8.473 -1.6831 -0.1571  1.8396
  751MOL0     H99126   8.482   3.584   8.748  1.1009  1.0946 -0.1797
  751MOL0     H99127   8.367   3.710   8.705  1.3373 -0.1810  3.7818
  751MOL0     H99128   8.536   3.785   8.527 -1.4768 -0.3565  0.3744
  751MOL0     H99129   8.575   3.841   8.690  1.6359  1.8587 -2.0134
  751MOL0     H99130   8.847   3.534   8.549  0.1439 -0.3806 -0.3138
  751MOL0     H99131   8.073   3.361   8.631 -1.1215 -1.2836 -1.1000
  751MOL0     H99132   7.831   3.299   8.679 -2.8553  1.0516 -0.2844
  752MOL0     O99133   2.034   5.183   7.816 -0.8315  1.1229 -0.5776
  752MOL0     C99134   2.063   5.290   7.768  0.2581  0.8112  0.4325
  752MOL0     O99135   2.015   5.354   7.661 -0.3717  0.4442 -0.1138
  752MOL0     C99136   1.903   5.306   7.601  0.1364  0.3994  0.7244
  752MOL0     C99137   1.913   5.250   7.469  0.1100  0.3948 -0.0150
  752MOL0     C99138   1.794   5.219   7.396  0.4185 -0.3702  0.3697
  752MOL0     C99139   1.667   5.240   7.460 -0.7886 -0.9548 -0.0030
  752MOL0     O99140   1.551   5.236   7.377  0.4693  0.1416 -0.0806
  752MOL0     C99141   1.448   5.331   7.400 -0.6999  0.1229 -0.6251
  752MOL0     C99142   1.350   5.351   7.279  0.5546 -0.0895  0.0686
  752MOL0     C99143   1.236   5.445   7.324 -0.5662  0.3126  0.1690
  752MOL0     C99144   1.140   5.495   7.215  0.8670  1.3633 -0.4366
  752MOL0     C99145   1.068   5.368   7.156  0.1585  0.2764  0.7934
  752MOL0     C99146   0.942   5.407   7.082 -0.5521  1.0735  0.5537
  752MOL0     C99147   0.968   5.459   6.947  0.0641 -0.6689  0.1906
  752MOL0     C99148   0.846   5.451   6.854  0.7012  0.9637 -0.7188
  752MOL0     N99149   0.725   5.515   6.916 -0.3868 -0.8332  0.2931
  752MOL0     C99150   0.667   5.493   7.038 -0.6275 -0.4590  0.0413
  752MOL0     C99151   0.573   5.578   7.060 -0.1352  0.7239  0.0858
  752MOL0     C99152   0.472   5.584   7.175 -0.3455  0.4572  0.6517
  752MOL0     C99153   0.445   5.726   7.206  0.3687 -0.5058 -0.0474
  752MOL0     C99154   0.391   5.734   7.351  0.0723  0.2767  0.5184
  752MOL0     C99155   0.276   5.645   7.390  1.0283  0.2384  1.4664
  752MOL0     O99156   0.260   5.651   7.524 -0.1804  0.3692 -0.0637
  752MOL0     C99157   0.143   5.598   7.575  0.3543 -0.4881 -0.3040
  752MOL0     C99158   0.145   5.561   7.712  0.1437 -1.3420  0.7868
  752MOL0     C99159   0.035   5.504   7.774  0.5269  0.3106 -0.2158
  752MOL0     C99160  -0.080   5.490   7.707  0.0237  0.2269 -0.1085
  752MOL0     C99161  -0.202   5.437   7.782 -0.9061  0.1088  0.6916
  752MOL0     O99162  -0.314   5.438   7.702  0.2759 -0.1410 -0.0845
  752MOL0     C99163  -0.449   5.438   7.738 -0.5248 -0.2815  0.4288
  752MOL0     C99164  -0.498   5.458   7.870  0.3587 -0.9615  0.1515
  752MOL0     C99165  -0.640   5.462   7.885  0.3190 -0.6832  0.1049
  752MOL0     C99166  -0.718   5.448   7.780 -0.2278 -0.0989  0.6140
  752MOL0     O99167  -0.854   5.454   7.783  0.3565  0.0411  0.0231
  752MOL0     C99168  -0.934   5.353   7.857 -0.5363 -0.4224 -0.3591
  752MOL0     C99169  -1.066   5.408   7.913  0.6609 -0.7977  0.2042
  752MOL0     C99170  -1.156   5.300   7.977 -0.0039 -0.2743  0.1782
  752MOL0     C99171  -1.274   5.361   8.047 -0.4933  0.2039  0.2607
  752MOL0     C99172  -1.392   5.268   8.071  0.3067 -0.5552  0.4388
  752MOL0     C99173  -1.382   5.207   8.215 -0.0088 -0.3868 -0.8914
  752MOL0     C99174  -1.482   5.101   8.236 -0.0872 -0.3494  0.3998
  752MOL0     C99175  -1.627   5.150   8.231  0.5164  0.5678 -0.1261
  752MOL0    Cl99176  -1.655   5.253   8.374 -0.0043  0.2972 -0.3181
  752MOL0     C99177  -0.660   5.438   7.648  0.6766 -0.2930 -0.7969
  752MOL0     C99178  -0.525   5.427   7.630 -0.2253  0.7219 -0.2077
  752MOL0     O99179  -0.199   5.398   7.893  0.1432  0.1878 -1.2877
  752MOL0     C99180  -0.094   5.526   7.568  0.5043  0.1938  0.2582
  752MOL0     C99181   0.021   5.573   7.502  0.1066 -0.8014  0.2559
  752MOL0     N99182   0.577   5.655   6.953  0.6985 -0.3444 -0.6887
  752MOL0     N99183   0.653   5.614   6.861 -0.6093  0.8990 -0.5636
  752MOL0     C99184   1.662   5.289   7.590  0.5949  0.3911 -0.8129
  752MOL0     C99185   1.778   5.321   7.657  0.2850 -0.7954  0.2218
  752MOL0     C99186   2.168   5.355   7.843  0.2807 -0.0378  0.3932
  752MOL0     C99187   2.216   5.314   7.972 -0.2946 -0.5300 -0.0103
  752MOL0     C99188   2.321   5.383   8.034  0.0527  0.8698  0.1338
  752MOL0     C99189   2.376   5.492   7.974  0.4472  0.3730  0.3676
  752MOL0     O99190   2.462   5.574   8.041  0.1270  0.0548 -0.5340
  752MOL0     C99191   2.556   5.512   8.139 -0.2152 -0.0483 -0.2557
  752MOL0     C99192   2.661   5.425   8.070 -0.4835  0.5418 -0.1429
  752MOL0     C99193   2.765   5.393   8.172 -0.6717 -0.0964  0.0223
  752MOL0     C99194   2.878   5.321   8.110  0.0771  0.3860 -0.4469
  752MOL0     C99195   2.995   5.328   8.205  0.3247 -0.2237  0.8148
  752MOL0     C99196   3.085   5.337   8.283  0.7129  0.8347 -0.1246
  752MOL0     C99197   2.330   5.541   7.854 -0.2522  0.2972 -0.4822
  752MOL0     C99198   2.224   5.478   7.790  0.4911 -0.3693 -0.6384
  752MOL0     H99199   2.007   5.222   7.422 -0.0720 -1.2937  0.5525
  752MOL0     H99200   1.799   5.180   7.295 -0.4162  3.5271 -1.3513
  752MOL0     H99201   1.501   5.425   7.414 -1.7684  0.8640 -1.3726
  752MOL0     H99202   1.393   5.305   7.491  0.2258  1.3683  0.3289
  752MOL0     H99203   1.314   5.255   7.241 -4.6756 -0.0909  3.8789
  752MOL0     H99204   1.402   5.398   7.195  0.1289 -0.4947 -0.4252
  752MOL0     H99205   1.284   5.537   7.359  0.2464  0.8207 -2.0858
  752MOL0     H99206   1.192   5.394   7.410  1.5705  1.2748  1.9517
  752MOL0     H99207   1.066   5.563   7.258  0.5354  0.6268  0.1865
  752MOL0     H99208   1.196   5.539   7.133 -0.3768  2.5531 -0.6755
  752MOL0     H99209   1.037   5.311   7.243  0.2551 -3.6226 -1.4983
  752MOL0     H99210   1.127   5.298   7.097  0.4358  2.1500 -1.2967
  752MOL0     H99211   0.891   5.481   7.145  1.0384  1.7418  1.1313
  752MOL0     H99212   0.881   5.316   7.076 -0.4973  0.7913  3.0855
  752MOL0     H99213   0.991   5.566   6.955 -1.1479 -0.1862 -1.9337
  752MOL0     H99214   1.058   5.416   6.902  0.2151 -1.0228  0.8169
  752MOL0     H99215   0.824   5.347   6.829  0.3778  0.6721  0.6916
  752MOL0     H99216   0.869   5.500   6.759  1.0983  0.7862 -0.7139
  752MOL0     H99217   0.691   5.404   7.096  3.0186 -1.9829 -3.2821
  752MOL0     H99218   0.507   5.522   7.258  1.6731  0.6977  0.0250
  752MOL0     H99219   0.380   5.545   7.131 -2.3894  4.4176  0.9869
  752MOL0     H99220   0.365   5.755   7.137  1.5966 -0.0608 -1.3414
  752MOL0     H99221   0.527   5.797   7.200 -0.7257  1.1872  2.9899
  752MOL0     H99222   0.480   5.733   7.414  1.2621  2.0984 -1.0304
  752MOL0     H99223   0.349   5.835   7.360  0.4656  0.2965  2.3503
  752MOL0     H99224   0.288   5.542   7.355 -0.3066  0.2132  1.0478
  752MOL0     H99225   0.182   5.685   7.351 -0.3350 -3.4300  0.5956
  752MOL0     H99226   0.235   5.568   7.771 -0.8147 -1.9559  2.3791
  752MOL0     H99227   0.051   5.473   7.877 -1.0155 -0.4047 -0.1634
  752MOL0     H99228  -0.436   5.486   7.954  0.4465 -0.3652 -0.1042
  752MOL0     H99229  -0.675   5.489   7.984  0.3490 -0.4174  0.0430
  752MOL0     H99230  -0.879   5.310   7.942 -0.3923 -1.5617 -1.0093
  752MOL0     H99231  -0.962   5.269   7.794  1.8525 -1.0367 -0.7234
  752MOL0     H99232  -1.119   5.451   7.827  0.3842 -1.1774  0.1788
  752MOL0     H99233  -1.036   5.489   7.980  2.9789 -0.7812 -0.7635
  752MOL0     H99234  -1.088   5.234   8.032  4.4333  1.0156 -3.1097
  752MOL0     H99235  -1.201   5.241   7.897 -1.9039 -0.5698  1.4014
  752MOL0     H99236  -1.244   5.408   8.141 -0.3700 -0.3125  0.4796
  752MOL0     H99237  -1.312   5.435   7.976 -3.4870 -2.3222 -1.0297
  752MOL0     H99238  -1.392   5.188   7.997 -2.0509  0.6337 -0.9938
  752MOL0     H99239  -1.489   5.316   8.056 -0.6163 -2.5189 -0.1825
  752MOL0     H99240  -1.397   5.286   8.290 -0.9289  0.3101 -1.7836
  752MOL0     H99241  -1.283   5.163   8.233  0.9883  1.6920 -0.9685
  752MOL0     H99242  -1.460   5.025   8.161  1.5821  2.0827 -1.7276
  752MOL0     H99243  -1.468   5.057   8.335  0.4257 -1.5397 -0.1852
  752MOL0     H99244  -1.687   5.059   8.244  0.3280  0.7438  0.2376
  752MOL0     H99245  -1.648   5.192   8.132  1.6834  2.4211  0.3709
  752MOL0     H99246  -0.726   5.435   7.562 -1.2934 -0.2407  0.6534
  752MOL0     H99247  -0.478   5.413   7.533 -0.5862  0.4911 -0.3484
  752MOL0     H99248  -0.187   5.519   7.512  0.0440  0.9980  0.9075
  752MOL0     H99249   0.016   5.577   7.394 -2.3496 -0.7505  0.3065
  752MOL0     H99250   1.570   5.323   7.636 -0.2989 -0.9770 -1.5468
  752MOL0     H99251   1.773   5.375   7.750  3.9371  1.5973 -0.7523
  752MOL0     H99252   2.163   5.233   8.022  0.7747  0.3845  2.7836
  752MOL0     H99253   2.351   5.347   8.132  1.0577  1.5143  0.0774
  752MOL0     H99254   2.496   5.458   8.213  1.5685 -2.4112 -0.3925
  752MOL0     H99255   2.605   5.592   8.195 -0.9592  0.9208 -0.9571
  752MOL0     H99256   2.604   5.336   8.040  1.7713 -0.7051 -0.9692
  752MOL0     H99257   2.698   5.476   7.980 -0.8026 -0.2246 -0.7196
  752MOL0     H99258   2.728   5.333   8.256 -0.3768 -2.8726 -1.6785
  752MOL0     H99259   2.797   5.489   8.212  0.2085 -0.2802 -0.2196
  752MOL0     H99260   2.856   5.215   8.097  1.8109 -0.0178 -0.2904
  752MOL0     H99261   2.903   5.365   8.013  0.5346  1.2328  0.0439
  752MOL0     H99262   3.162   5.359   8.353 -1.4891 -0.7602  3.0469
  752MOL0     H99263   2.377   5.628   7.808  0.3488 -0.8907 -2.2265
  752MOL0     H99264   2.187   5.528   7.701  0.7976 -1.9550 -1.6898
  753MOL0     O99265  10.500   0.375  10.345 -0.7466 -0.6771 -0.2067
  753MOL0     C99266  10.557   0.412  10.243  0.0644  0.5966  0.3247
  753MOL0     O99267  10.495   0.462  10.124  0.1889  0.0040  0.1711
  753MOL0     C99268  10.361   0.494  10.127 -0.8496  0.0659 -0.3606
  753MOL0     C99269  10.317   0.629  10.119  0.2178  0.1162 -0.2292
  753MOL0     C99270  10.182   0.667  10.121  0.4740 -0.1153  0.0318
  753MOL0     C99271  10.085   0.565  10.115  0.6237  0.3676  0.1463
  753MOL0     O99272   9.950   0.588  10.099  0.0284 -0.7820 -0.3120
  753MOL0     C99273   9.907   0.726  10.104 -0.5157  0.5487 -0.2739
  753MOL0     C99274   9.751   0.730  10.132 -0.3741  0.5891  0.1005
  753MOL0     C99275   9.694   0.856  10.065  0.5578  0.0061  0.1291
  753MOL0     C99276   9.541   0.875  10.099  0.4522  0.0001 -0.3889
  753MOL0     C99277   9.467   0.976  10.013 -0.1197  0.5417 -0.0822
  753MOL0     C99278   9.330   1.018  10.064  0.3305  0.6183 -0.1840
  753MOL0     C99279   9.279   1.142   9.982  0.3079 -0.1788 -0.0537
  753MOL0     C99280   9.139   1.184  10.021  0.0456  0.2638  0.3476
  753MOL0     N99281   9.034   1.089   9.980 -0.1596  0.5793  0.5504
  753MOL0     C99282   9.009   1.066   9.848  0.5209 -0.0258 -0.0660
  753MOL0     C99283   8.896   0.990   9.846 -0.3404 -0.1434 -0.4059
  753MOL0     C99284   8.829   0.934   9.728  0.2703  0.6616 -0.5612
  753MOL0     C99285   8.800   1.029   9.609  0.6579  0.2764 -0.1444
  753MOL0     C99286   8.691   1.134   9.640  0.0205 -0.7127 -0.0228
  753MOL0     C99287   8.544   1.071   9.636  0.1556 -0.3672 -0.4615
  753MOL0     O99288   8.448   1.161   9.696  0.2806  0.4143 -0.7370
  753MOL0     C99289   8.311   1.151   9.673  0.7356 -0.1377  0.8431
  753MOL0     C99290   8.244   1.274   9.676 -0.3617 -0.1236  0.0352
  753MOL0     C99291   8.106   1.277   9.632  0.2366  0.3339  0.1224
  753MOL0     C99292   8.042   1.155   9.589  0.0539 -0.6548 -0.4739
  753MOL0     C99293   7.903   1.147   9.529 -0.3440 -0.4577 -0.3277
  753MOL0     O99294   7.832   1.034   9.539  0.4723  0.2259 -0.5536
  753MOL0     C99295   7.701   1.033   9.505  0.0556 -0.2168 -0.5790
  753MOL0     C99296   7.652   0.964   9.389 -0.0618  1.1470 -0.3939
  753MOL0     C99297   7.514   0.971   9.367  1.0941  0.1408  0.4654
  753MOL0     C99298   7.429   1.045   9.450 -0.6114 -0.2044  0.1125
  753MOL0     O99299   7.292   1.035   9.418 -0.2860  0.3670  0.1182
  753MOL0     C99300   7.193   1.096   9.505 -0.0017  0.2585 -1.0351
  753MOL0     C99301   7.054   1.053   9.461 -0.6442  0.0142  0.1916
  753MOL0     C99302   6.949   1.160   9.499 -0.7013 -0.1116  0.7181
  753MOL0     C99303   6.812   1.093   9.476  0.0191 -0.4425  0.1158
  753MOL0     C99304   6.697   1.192   9.516  0.9995  0.6055 -0.4127
  753MOL0     C99305   6.560   1.138   9.479 -0.3483  0.3164  0.6488
  753MOL0     C99306   6.530   1.151   9.329  0.2349  0.3691 -0.3123
  753MOL0     C99307   6.391   1.085   9.296 -0.4506 -0.3206  0.3169
  753MOL0    Cl99308   6.258   1.150   9.396 -0.2496  0.2996 -0.1844
  753MOL0     C99309   7.482   1.105   9.562 -0.5064 -0.0687  0.2324
  753MOL0     C99310   7.614   1.097   9.597  0.1863 -0.0622  0.5699
  753MOL0     O99311   7.871   1.251   9.469  0.3562  0.4153  0.0715
  753MOL0     C99312   8.120   1.041   9.573 -0.2755 -0.1434 -0.2489
  753MOL0     C99313   8.256   1.039   9.613 -0.2570 -0.8134  0.1323
  753MOL0     N99314   8.864   0.967   9.978  0.2107 -0.9058  0.3832
  753MOL0     N99315   8.949   1.025  10.058  0.3357  1.0702 -0.2570
  753MOL0     C99316  10.133   0.429  10.100 -0.0598  0.6981 -0.5433
  753MOL0     C99317  10.266   0.394  10.114 -0.0207 -0.5870  0.0442
  753MOL0     C99318  10.702   0.402  10.230 -0.3453  0.2825 -0.8216
  753MOL0     C99319  10.774   0.451  10.118  0.3766  0.4106  0.1974
  753MOL0     C99320  10.906   0.421  10.094 -0.0452 -0.0791  0.5500
  753MOL0     C99321  10.988   0.357  10.186  0.6227 -0.3824  0.2072
  753MOL0     O99322  11.123   0.326  10.173  0.0875  0.6188 -0.7317
  753MOL0     C99323  11.177   0.319  10.039  0.0189 -0.6262  0.1961
  753MOL0     C99324  11.299   0.233  10.034 -0.1740  0.1032 -0.6324
  753MOL0     C99325  11.387   0.282   9.916 -1.0424 -0.1447 -0.7411
  753MOL0     C99326  11.517   0.196   9.905  0.1831 -0.3365 -0.4026
  753MOL0     C99327  11.491   0.086   9.816  0.7120 -0.5553 -0.0356
  753MOL0     C99328  11.475  -0.008   9.744 -0.4091  0.0859 -0.4834
  753MOL0     C99329  10.923   0.323  10.304 -0.4520 -0.5794 -0.7129
  753MOL0     C99330  10.784   0.342  10.330  0.2261  0.0447  0.2522
  753MOL0     H99331  10.389   0.710  10.128  1.1207 -0.7262  0.2693
  753MOL0     H99332  10.161   0.774  10.124  1.6353  0.1339 -0.4298
  753MOL0     H99333   9.919   0.773  10.005 -0.9434 -0.6503 -0.9086
  753MOL0     H99334   9.961   0.776  10.185  1.4134 -1.2978 -0.3378
  753MOL0     H99335   9.736   0.738  10.240 -2.0050 -2.6417  0.2206
  753MOL0     H99336   9.702   0.637  10.102  0.7586  0.3459 -1.1282
  753MOL0     H99337   9.711   0.838   9.958  0.1071  0.2855  0.0083
  753MOL0     H99338   9.737   0.952  10.097 -1.0736  1.3763 -1.5386
  753MOL0     H99339   9.488   0.780  10.087  2.4393 -1.1798 -0.2944
  753MOL0     H99340   9.531   0.904  10.204  1.4043  0.9623 -0.5453
  753MOL0     H99341   9.458   0.945   9.909 -0.0266  1.2269 -0.2982
  753MOL0     H99342   9.529   1.066  10.012 -0.0959  0.6244  2.2667
  753MOL0     H99343   9.352   1.042  10.168 -0.4695  0.4698  0.0253
  753MOL0     H99344   9.267   0.931  10.048  2.3789 -0.9224 -0.3136
  753MOL0     H99345   9.348   1.226   9.995 -1.8223  1.7456 -0.5339
  753MOL0     H99346   9.281   1.115   9.876 -0.1930 -0.1193 -0.0759
  753MOL0     H99347   9.122   1.280   9.970  2.1564 -1.3039 -3.7061
  753MOL0     H99348   9.140   1.204  10.128 -0.7767  0.3499  0.3472
  753MOL0     H99349   9.068   1.098   9.762 -2.8846  2.7435 -1.6348
  753MOL0     H99350   8.737   0.888   9.765  0.7374 -0.0740 -0.2750
  753MOL0     H99351   8.887   0.847   9.697 -2.1804 -0.4570 -2.3467
  753MOL0     H99352   8.752   0.969   9.530 -0.1611  2.0958 -1.0758
  753MOL0     H99353   8.894   1.070   9.572  1.8444  0.5231  2.8134
  753MOL0     H99354   8.721   1.196   9.725  0.7255  0.2953 -1.0002
  753MOL0     H99355   8.697   1.202   9.555 -0.5128 -0.9796 -0.2820
  753MOL0     H99356   8.538   0.973   9.685 -2.2268 -0.6699 -1.2278
  753MOL0     H99357   8.512   1.061   9.532  0.4290  0.5397 -0.6460
  753MOL0     H99358   8.289   1.361   9.722 -1.3395 -0.2089  1.1754
  753MOL0     H99359   8.051   1.370   9.639  0.0174  0.1243  1.3309
  753MOL0     H99360   7.718   0.899   9.332 -2.7129  0.1400 -2.5142
  753MOL0     H99361   7.467   0.923   9.282 -0.0789  1.9070  0.0488
  753MOL0     H99362   7.213   1.204   9.510 -0.2249  0.2500  0.2801
  753MOL0     H99363   7.203   1.058   9.607  1.2200 -0.3787 -1.3720
  753MOL0     H99364   7.037   0.959   9.515  0.1148 -0.0518  0.3144
  753MOL0     H99365   7.050   1.038   9.353  1.9694  0.1419  0.0173
  753MOL0     H99366   6.965   1.247   9.435 -0.1360 -1.1194 -0.5544
  753MOL0     H99367   6.956   1.196   9.602  1.5339  2.9422 -0.3428
  753MOL0     H99368   6.806   1.069   9.370  2.5681  3.0034 -0.9807
  753MOL0     H99369   6.795   1.015   9.551 -0.0895  1.8250  2.5958
  753MOL0     H99370   6.713   1.291   9.471 -2.9200  2.4861  1.7807
  753MOL0     H99371   6.716   1.207   9.622 -0.8939  0.6329 -0.0413
  753MOL0     H99372   6.485   1.193   9.537  0.2585  1.1598  0.6524
  753MOL0     H99373   6.563   1.032   9.507  3.4203  0.2975  0.6424
  753MOL0     H99374   6.520   1.256   9.300 -0.2928 -0.1449 -2.1306
  753MOL0     H99375   6.610   1.118   9.261  2.5558  0.1912  2.3205
  753MOL0     H99376   6.404   0.977   9.307  1.1905 -0.1222  0.6573
  753MOL0     H99377   6.370   1.125   9.197  1.2525 -1.6469 -0.6262
  753MOL0     H99378   7.406   1.143   9.630  1.0381  0.2888  1.8391
  753MOL0     H99379   7.653   1.147   9.684 -2.3352  0.2779  1.5942
  753MOL0     H99380   8.080   0.947   9.539  1.6529 -1.5215  1.0531
  753MOL0     H99381   8.323   0.954   9.604  0.7692 -0.1387  1.0184
  753MOL0     H99382  10.060   0.355  10.069 -1.4378  2.7817 -2.6258
  753MOL0     H99383  10.294   0.289  10.119 -0.0004 -0.6878 -1.7028
  753MOL0     H99384  10.727   0.502  10.034  0.6797 -1.3344 -1.1099
  753MOL0     H99385  10.937   0.468  10.002 -1.9518  3.1699  1.4072
  753MOL0     H99386  11.207   0.422  10.017  0.9434 -0.4884  1.9339
  753MOL0     H99387  11.109   0.284   9.961 -0.4090  1.9923 -0.6943
  753MOL0     H99388  11.346   0.230  10.133  2.4061 -2.0191 -1.7835
  753MOL0     H99389  11.271   0.127  10.027  3.0669 -0.8750 -0.7278
  753MOL0     H99390  11.422   0.385   9.926 -2.0166  0.0564  1.0772
  753MOL0     H99391  11.323   0.290   9.828  0.8809  1.8442 -2.0596
  753MOL0     H99392  11.605   0.247   9.864  1.6222 -0.8550  1.8634
  753MOL0     H99393  11.543   0.156  10.003 -0.7440 -2.6716 -1.0442
  753MOL0     H99394  11.459  -0.095   9.684 -3.2576 -2.0353  2.9629
  753MOL0     H99395  10.980   0.265  10.376  3.0433  2.2780 -0.8788
  753MOL0     H99396  10.740   0.296  10.418 -1.0370  4.2662  2.0950
  754MOL0     O99397   9.208   5.052   9.425  0.2556 -0.4404 -0.3104
  754MOL0     C99398   9.248   4.997   9.523 -0.5286  0.6874  0.0039
  754MOL0     O99399   9.176   4.983   9.638 -0.1005 -0.1196  0.2119
  754MOL0     C99400   9.049   5.049   9.641  0.1101 -0.2199 -0.2689
  754MOL0     C99401   9.028   5.144   9.750  0.6060 -0.7000  0.2003
  754MOL0     C99402   8.907   5.214   9.757  1.1973 -0.5311 -0.3782
  754MOL0     C99403   8.795   5.184   9.685  0.2316  0.1812  0.4694
  754MOL0     O99404   8.683   5.254   9.708  0.2504  0.7213 -0.0108
  754MOL0     C99405   8.557   5.210   9.657 -0.5355  0.9163  0.6186
  754MOL0     C99406   8.442   5.259   9.757 -0.0266 -0.2743 -0.3902
  754MOL0     C99407   8.433   5.409   9.784 -0.8210 -0.7329 -0.1513
  754MOL0     C99408   8.362   5.457   9.911 -0.0024  0.5045  0.6979
  754MOL0     C99409   8.361   5.613   9.921  0.0697 -0.2471 -0.5467
  754MOL0     C99410   8.273   5.663  10.034  0.4507  0.6400 -0.3638
  754MOL0     C99411   8.278   5.820  10.057  0.3123  0.7406  0.0633
  754MOL0     C99412   8.171   5.883  10.148  0.3400 -0.6633 -0.2476
  754MOL0     N99413   8.172   5.830  10.288  0.4539  0.2641 -0.0466
  754MOL0     C99414   8.279   5.842  10.375 -0.9060 -0.2635  0.1490
  754MOL0     C99415   8.235   5.782  10.483 -0.0202 -0.1221 -0.7328
  754MOL0     C99416   8.304   5.760  10.615  0.9365 -0.8484  0.0654
  754MOL0     C99417   8.371   5.623  10.621  0.2064  0.2533  0.1807
  754MOL0     C99418   8.271   5.512  10.631  0.4643  0.3114  0.3469
  754MOL0     C99419   8.208   5.477  10.773 -0.2540 -0.2267  0.0023
  754MOL0     O99420   8.126   5.355  10.761  0.9498  0.2810 -0.5824
  754MOL0     C99421   7.995   5.369  10.742 -0.3633 -1.2903 -0.5916
  754MOL0     C99422   7.929   5.497  10.711 -0.4900 -0.1985  0.0267
  754MOL0     C99423   7.792   5.511  10.699 -0.1358 -0.2068  0.3016
  754MOL0     C99424   7.710   5.390  10.712  0.2900  0.3290  0.9274
  754MOL0     C99425   7.567   5.388  10.699 -0.4025  0.4094  0.1133
  754MOL0     O99426   7.517   5.503  10.735  0.2620  0.3904 -0.6006
  754MOL0     C99427   7.409   5.539  10.663 -0.1852 -0.3829  1.1002
  754MOL0     C99428   7.282   5.493  10.702 -1.0680 -0.8597  0.4041
  754MOL0     C99429   7.175   5.533  10.628 -0.3809  0.0561 -0.4808
  754MOL0     C99430   7.194   5.609  10.511 -0.3048 -0.3355 -0.4078
  754MOL0     O99431   7.101   5.658  10.426 -0.3729  0.2887 -0.4146
  754MOL0     C99432   6.973   5.608  10.405  0.6346  0.4985 -0.4836
  754MOL0     C99433   6.978   5.516  10.290 -0.5099 -0.2649  0.8680
  754MOL0     C99434   6.981   5.597  10.153 -0.2870 -0.0636 -0.5215
  754MOL0     C99435   6.983   5.507  10.031 -0.2134 -0.0308  0.4235
  754MOL0     C99436   6.948   5.578   9.903 -0.1099 -0.6303  0.2926
  754MOL0     C99437   6.791   5.600   9.910 -0.2984 -0.8247  0.6197
  754MOL0     C99438   6.734   5.667   9.782 -0.1575 -0.7037 -0.3965
  754MOL0     C99439   6.597   5.726   9.789 -0.7697  0.7320  0.3509
  754MOL0    Cl99440   6.582   5.873   9.900 -0.1978 -0.0542 -0.1821
  754MOL0     C99441   7.324   5.659  10.476  0.3318 -0.2169  0.4254
  754MOL0     C99442   7.431   5.633  10.555  0.2743 -0.0333 -0.8185
  754MOL0     O99443   7.506   5.289  10.652 -0.4007 -0.1160  0.2065
  754MOL0     C99444   7.771   5.270  10.734 -0.7948  1.0398 -0.1340
  754MOL0     C99445   7.908   5.261  10.749  0.2286 -0.6235 -1.1485
  754MOL0     N99446   8.099   5.737  10.470 -0.2791  0.3180  0.9823
  754MOL0     N99447   8.062   5.775  10.351  0.1285 -0.2510  0.3704
  754MOL0     C99448   8.815   5.087   9.578 -0.6061 -0.5533  0.0773
  754MOL0     C99449   8.934   5.015   9.564  0.5537 -0.0141  0.5607
  754MOL0     C99450   9.392   4.948   9.506 -0.5929 -0.3218 -0.3567
  754MOL0     C99451   9.472   4.934   9.623  0.0613  0.0371 -0.5384
  754MOL0     C99452   9.604   4.887   9.615  0.4616  0.8497  0.3184
  754MOL0     C99453   9.663   4.850   9.494  0.1336 -0.1314 -0.1735
  754MOL0     O99454   9.793   4.804   9.508 -0.0398 -0.8526  0.2809
  754MOL0     C99455   9.872   4.791   9.386 -0.1832  0.5205  0.0789
  754MOL0     C99456  10.015   4.747   9.419 -0.2017 -0.4973  0.9050
  754MOL0     C99457  10.094   4.745   9.291  0.3196  0.0557  0.0772
  754MOL0     C99458  10.230   4.694   9.326 -0.4362  0.1438 -0.2788
  754MOL0     C99459  10.303   4.767   9.432 -0.3072  0.0009 -0.0367
  754MOL0     C99460  10.374   4.820   9.522 -0.3073 -0.0591  0.5840
  754MOL0     C99461   9.586   4.872   9.376  0.6381  0.7908 -0.0408
  754MOL0     C99462   9.449   4.921   9.382 -0.0424 -0.5953 -0.0844
  754MOL0     H99463   9.110   5.171   9.816  0.4358 -1.4427  0.7328
  754MOL0     H99464   8.907   5.295   9.830 -1.9990 -1.2277  0.5236
  754MOL0     H99465   8.543   5.102   9.658 -2.4928  1.1098  1.8646
  754MOL0     H99466   8.534   5.258   9.561  1.2945 -0.3284 -0.4878
  754MOL0     H99467   8.450   5.208   9.853 -4.7191  1.0514  0.9855
  754MOL0     H99468   8.347   5.226   9.713 -0.3498  0.8970 -0.6236
  754MOL0     H99469   8.397   5.463   9.696  1.4625 -1.8227 -1.8677
  754MOL0     H99470   8.536   5.443   9.797 -0.5753 -2.0401  1.7993
  754MOL0     H99471   8.264   5.409   9.898  1.3927 -2.9272  1.8141
  754MOL0     H99472   8.415   5.416   9.997  1.9638  1.9269  0.2247
  754MOL0     H99473   8.335   5.661   9.826  1.4861 -3.0476 -2.5038
  754MOL0     H99474   8.464   5.643   9.943 -0.0416  1.3065 -1.9241
  754MOL0     H99475   8.298   5.612  10.128  1.9864  2.2458  0.1483
  754MOL0     H99476   8.170   5.634  10.011  0.3654  0.7487 -0.1219
  754MOL0     H99477   8.378   5.846  10.094  0.3249 -2.4317  2.7195
  754MOL0     H99478   8.271   5.864   9.957  3.0626  2.3538  0.4766
  754MOL0     H99479   8.071   5.863  10.110  1.4661 -3.6879 -2.0184
  754MOL0     H99480   8.190   5.991  10.159  0.4560 -0.6587 -0.4803
  754MOL0     H99481   8.381   5.876  10.362 -1.0180  0.0653  0.1161
  754MOL0     H99482   8.220   5.765  10.685 -0.1868  0.1102 -1.2990
  754MOL0     H99483   8.366   5.846  10.641  0.1372  0.0144 -0.8265
  754MOL0     H99484   8.436   5.610  10.708 -0.7550  1.7247  1.1537
  754MOL0     H99485   8.435   5.616  10.532  0.9517  0.8180  0.6617
  754MOL0     H99486   8.189   5.523  10.558  2.7568  1.1157 -2.2960
  754MOL0     H99487   8.328   5.424  10.599  2.0076  1.6437 -0.7585
  754MOL0     H99488   8.146   5.560  10.807 -1.4410 -0.2526 -1.9322
  754MOL0     H99489   8.287   5.462  10.847 -1.0093  1.0754  1.0941
  754MOL0     H99490   7.985   5.590  10.701 -0.7156 -0.2947 -3.1781
  754MOL0     H99491   7.757   5.608  10.668 -2.8188 -0.5860  1.8231
  754MOL0     H99492   7.269   5.436  10.794 -1.6166 -0.3493  0.6557
  754MOL0     H99493   7.077   5.497  10.657 -1.5608  4.1449  1.1816
  754MOL0     H99494   6.903   5.689  10.381 -1.0530 -1.4021 -2.4321
  754MOL0     H99495   6.936   5.553  10.492 -3.7843  2.5166 -0.7984
  754MOL0     H99496   6.888   5.455  10.302 -0.1106 -0.6451  2.0362
  754MOL0     H99497   7.058   5.443  10.299 -1.7837 -1.6621  1.3622
  754MOL0     H99498   7.075   5.653  10.158  0.5597 -1.5321  2.1014
  754MOL0     H99499   6.894   5.662  10.161 -0.7497 -0.8726  3.0318
  754MOL0     H99500   7.081   5.461  10.018  1.3011  3.1650 -0.4677
  754MOL0     H99501   6.915   5.421  10.033 -1.2083  0.7140 -0.1249
  754MOL0     H99502   6.968   5.523   9.811  1.3630 -0.5644  0.5559
  754MOL0     H99503   6.992   5.677   9.889  1.7050 -1.2238  1.3995
  754MOL0     H99504   6.755   5.659   9.995 -1.4466 -1.8302  0.8584
  754MOL0     H99505   6.734   5.508   9.923  0.9888 -1.5170  1.6991
  754MOL0     H99506   6.794   5.755   9.757  1.6862 -1.7909  0.0330
  754MOL0     H99507   6.731   5.597   9.698 -3.9430 -0.7912 -0.3468
  754MOL0     H99508   6.524   5.652   9.824 -1.0215  1.1692  0.7683
  754MOL0     H99509   6.570   5.758   9.688  0.7942  0.5997 -0.1239
  754MOL0     H99510   7.346   5.736  10.403 -0.1956 -0.1144  0.3695
  754MOL0     H99511   7.529   5.674  10.535 -0.0599  1.2394  0.0314
  754MOL0     H99512   7.723   5.174  10.748  0.7283  0.3601  0.6158
  754MOL0     H99513   7.945   5.163  10.777  1.5761  0.1610 -0.0030
  754MOL0     H99514   8.737   5.062   9.506 -2.0786 -1.6098  1.9573
  754MOL0     H99515   8.940   4.948   9.479 -1.3469  0.8867 -0.3434
  754MOL0     H99516   9.443   4.969   9.722  1.8583 -0.9463  0.3846
  754MOL0     H99517   9.656   4.891   9.710 -2.6608  1.1489  2.1582
  754MOL0     H99518   9.882   4.886   9.333  1.5749 -0.3955 -1.3623
  754MOL0     H99519   9.822   4.717   9.324 -1.4442 -0.7900  2.4968
  754MOL0     H99520  10.044   4.824   9.491 -0.5708 -0.3772  0.9292
  754MOL0     H99521  10.016   4.651   9.471  3.9144  0.3241  2.7006
  754MOL0     H99522  10.099   4.843   9.243  0.7638 -0.7800 -1.6527
  754MOL0     H99523  10.056   4.677   9.215 -1.2223  2.0638 -1.0417
  754MOL0     H99524  10.228   4.588   9.354  0.5185 -0.8175 -3.3589
  754MOL0     H99525  10.284   4.697   9.231  0.2822 -0.4064  0.1052
  754MOL0     H99526  10.440   4.862   9.595  1.2320 -1.3774  0.0210
  754MOL0     H99527   9.639   4.857   9.283  0.0730 -2.1636  0.0303
  754MOL0     H99528   9.394   4.937   9.290  0.6777  3.3207 -0.0277
  755MOL0     O99529   1.639   2.111  10.568 -0.2216  0.4661  0.6775
  755MOL0     C99530   1.676   2.215  10.520 -0.5860 -0.2117  0.7207
  755MOL0     O99531   1.609   2.332  10.512 -0.4658  0.1576  1.1538
  755MOL0     C99532   1.477   2.350  10.545  0.1784 -0.1039  0.1155
  755MOL0     C99533   1.433   2.423  10.651  0.2664  0.5179  0.6209
  755MOL0     C99534   1.295   2.449  10.659  0.1140  0.5012  1.0221
  755MOL0     C99535   1.203   2.400  10.560 -0.0270  0.3418  0.3553
  755MOL0     O99536   1.066   2.420  10.581 -0.2667  0.0487  0.1977
  755MOL0     C99537   1.004   2.421  10.710 -1.0338  0.0872 -0.1009
  755MOL0     C99538   0.955   2.549  10.766  0.8964  0.1432  0.0653
  755MOL0     C99539   0.864   2.628  10.661 -0.2697  0.7776  0.6096
  755MOL0     C99540   0.780   2.746  10.711 -1.0051 -0.6724 -0.4480
  755MOL0     C99541   0.678   2.802  10.610  0.2310  0.0698 -0.5566
  755MOL0     C99542   0.554   2.714  10.606  0.5643 -0.2628 -0.5087
  755MOL0     C99543   0.446   2.797  10.520 -0.0713  0.1786  0.1749
  755MOL0     C99544   0.330   2.703  10.493  0.1679  0.9033 -0.5440
  755MOL0     N99545   0.206   2.768  10.446 -0.4999 -0.0218  0.1620
  755MOL0     C99546   0.130   2.733  10.337 -0.0785  0.0956  0.7530
  755MOL0     C99547   0.026   2.818  10.329  0.5425  0.4756 -0.3809
  755MOL0     C99548  -0.080   2.833  10.228 -0.4355  1.1929  0.4203
  755MOL0     C99549  -0.230   2.860  10.271  0.0208  0.8405  0.1725
  755MOL0     C99550  -0.307   2.880  10.139 -1.6528 -0.2738 -0.6846
  755MOL0     C99551  -0.457   2.882  10.157  0.8872 -0.9893  0.0259
  755MOL0     O99552  -0.508   2.920  10.025 -0.6915 -0.1794  0.2325
  755MOL0     C99553  -0.634   2.888  10.002 -0.4072  0.4447 -0.3541
  755MOL0     C99554  -0.672   2.820   9.890 -0.7476  0.2233  0.3335
  755MOL0     C99555  -0.803   2.779   9.874 -0.5586  0.5290  0.8774
  755MOL0     C99556  -0.895   2.799   9.976  0.5212 -0.0155  0.3866
  755MOL0     C99557  -1.036   2.746   9.970 -0.0844  0.3242 -0.3575
  755MOL0     O99558  -1.125   2.802  10.068 -0.0747 -0.6414  0.1468
  755MOL0     C99559  -1.243   2.746  10.075  0.4040 -0.1246  0.5548
  755MOL0     C99560  -1.263   2.647  10.169 -1.1564 -0.3863  0.2494
  755MOL0     C99561  -1.387   2.592  10.187 -0.0433  0.4436  0.5014
  755MOL0     C99562  -1.499   2.631  10.110  0.0234 -0.4964 -0.4290
  755MOL0     O99563  -1.619   2.568  10.135 -0.3494  0.4676  0.0783
  755MOL0     C99564  -1.742   2.597  10.070 -0.6291 -0.1037 -0.4652
  755MOL0     C99565  -1.852   2.507  10.123  0.5664  0.7379 -0.0591
  755MOL0     C99566  -1.985   2.538  10.054 -0.5015 -0.2084  0.1207
  755MOL0     C99567  -2.093   2.431  10.064 -0.3067 -0.3481 -0.2561
  755MOL0     C99568  -2.226   2.506  10.069  0.1635  0.3230 -0.1643
  755MOL0     C99569  -2.339   2.409  10.110 -1.0096  0.7027  0.2487
  755MOL0     C99570  -2.470   2.483  10.131  0.1825  0.0252 -0.9306
  755MOL0     C99571  -2.588   2.391  10.161  0.6941 -0.8087  0.2317
  755MOL0    Cl99572  -2.730   2.499  10.190  0.4934 -0.1267 -0.2347
  755MOL0     C99573  -1.476   2.739  10.014  1.6887 -0.3799  0.6723
  755MOL0     C99574  -1.353   2.794   9.993 -0.1074  0.0221 -0.5240
  755MOL0     O99575  -1.067   2.658   9.896 -0.3552  0.3435  0.4081
  755MOL0     C99576  -0.860   2.876  10.090 -0.0139  0.3652 -0.6633
  755MOL0     C99577  -0.728   2.916  10.104 -0.0601  0.4083  0.1537
  755MOL0     N99578   0.037   2.902  10.444 -0.4750  0.2778 -0.8070
  755MOL0     N99579   0.137   2.868  10.512 -0.6609  0.3242  0.6093
  755MOL0     C99580   1.249   2.326  10.449 -0.5398  0.1137 -0.6880
  755MOL0     C99581   1.383   2.306  10.447 -0.6457  0.1815 -0.3161
  755MOL0     C99582   1.819   2.214  10.458  0.5171  0.1272  0.4488
  755MOL0     C99583   1.911   2.103  10.452 -0.3748 -0.4470 -0.0886
  755MOL0     C99584   2.036   2.111  10.384 -0.2508  0.0609 -0.2355
  755MOL0     C99585   2.063   2.227  10.315  0.0765 -0.2621 -0.3753
  755MOL0     O99586   2.184   2.225  10.244 -0.4499  0.6266  0.1413
  755MOL0     C99587   2.221   2.337  10.166  1.0178 -0.3580 -0.0413
  755MOL0     C99588   2.325   2.307  10.062 -0.4468  0.7822 -0.2206
  755MOL0     C99589   2.465   2.268  10.123  0.2919 -0.0983 -0.4710
  755MOL0     C99590   2.576   2.236  10.016 -0.1900  0.3868 -0.3124
  755MOL0     C99591   2.555   2.106   9.953 -0.6250 -0.7563  0.0649
  755MOL0     C99592   2.511   2.011   9.900 -0.5746  0.3805  0.0670
  755MOL0     C99593   1.979   2.341  10.329 -0.4717  0.5734  0.2241
  755MOL0     C99594   1.862   2.330  10.396 -0.3887 -0.8299 -0.0965
  755MOL0     H99595   1.504   2.456  10.726  0.1965  0.4201  0.7324
  755MOL0     H99596   1.273   2.508  10.748  1.1371 -0.9508  2.3052
  755MOL0     H99597   1.078   2.382  10.780 -1.2397 -0.6326 -0.2681
  755MOL0     H99598   0.922   2.350  10.695 -0.3673 -0.2996 -2.2401
  755MOL0     H99599   1.038   2.615  10.789 -0.1061  0.4995  3.2587
  755MOL0     H99600   0.899   2.537  10.860  0.9989  0.8489  0.2220
  755MOL0     H99601   0.798   2.552  10.620  1.4951 -0.8591  0.6354
  755MOL0     H99602   0.932   2.650  10.578  1.4851  2.7169  2.4264
  755MOL0     H99603   0.737   2.719  10.808 -0.4463  0.2472  0.0626
  755MOL0     H99604   0.854   2.824  10.730 -1.8395  1.2051 -3.9973
  755MOL0     H99605   0.713   2.812  10.507  0.1945  1.7474 -0.4324
  755MOL0     H99606   0.654   2.901  10.650  1.7930 -0.2420  1.3402
  755MOL0     H99607   0.510   2.688  10.703  0.5228 -1.2134 -0.7649
  755MOL0     H99608   0.581   2.623  10.552  1.8093  1.6109 -3.2740
  755MOL0     H99609   0.418   2.889  10.574  1.9931  1.7938 -1.3458
  755MOL0     H99610   0.493   2.837  10.430  1.4428 -0.6218  0.5806
  755MOL0     H99611   0.302   2.650  10.584  0.0750  2.2633  0.2428
  755MOL0     H99612   0.360   2.627  10.421  0.9662  0.9770 -0.3002
  755MOL0     H99613   0.147   2.654  10.265 -0.0098  0.1448  0.7152
  755MOL0     H99614  -0.090   2.738  10.174  2.4518  0.7343  0.5641
  755MOL0     H99615  -0.046   2.908  10.157 -0.6629  1.2444  0.3631
  755MOL0     H99616  -0.233   2.950  10.333 -1.2082  0.9918 -0.0646
  755MOL0     H99617  -0.278   2.785  10.334 -0.6068 -0.1555 -1.4259
  755MOL0     H99618  -0.273   2.974  10.096 -3.9269  0.1932 -1.5999
  755MOL0     H99619  -0.288   2.794  10.074  0.0718 -0.1325 -0.4133
  755MOL0     H99620  -0.475   2.964  10.226  0.9744  0.4205 -1.5473
  755MOL0     H99621  -0.498   2.792  10.202 -0.4946 -0.3773  0.0303
  755MOL0     H99622  -0.605   2.818   9.804 -0.0178  1.8937  0.8242
  755MOL0     H99623  -0.828   2.730   9.780  1.3331  1.1184  0.0169
  755MOL0     H99624  -1.181   2.609  10.229  0.7418 -1.0314 -2.5262
  755MOL0     H99625  -1.401   2.520  10.267 -0.5109  0.1245  0.1355
  755MOL0     H99626  -1.735   2.591   9.961  0.9145  1.2335 -0.4816
  755MOL0     H99627  -1.769   2.702  10.081 -1.8914 -0.2088 -2.1928
  755MOL0     H99628  -1.856   2.507  10.232  0.1431  2.3805 -0.0541
  755MOL0     H99629  -1.820   2.404  10.106  3.8721  1.2167  2.2421
  755MOL0     H99630  -1.979   2.552   9.946 -3.7532 -1.4311 -0.3452
  755MOL0     H99631  -2.009   2.634  10.100  3.2170  0.7589  0.3865
  755MOL0     H99632  -2.089   2.366   9.976  0.2687 -0.3370 -0.2377
  755MOL0     H99633  -2.090   2.374  10.157 -2.3018  0.9962  0.7172
  755MOL0     H99634  -2.251   2.551   9.973 -2.5583  3.0479  1.6228
  755MOL0     H99635  -2.223   2.592  10.137 -4.6851 -0.2723  1.1744
  755MOL0     H99636  -2.312   2.370  10.209  0.1047  1.0443  0.0910
  755MOL0     H99637  -2.352   2.326  10.040 -0.6710  1.3933 -0.6524
  755MOL0     H99638  -2.464   2.556  10.213 -0.9377  0.0906 -0.8901
  755MOL0     H99639  -2.492   2.546  10.045  2.3234  1.7892 -0.2658
  755MOL0     H99640  -2.565   2.334  10.251  2.1140  0.6157  0.8257
  755MOL0     H99641  -2.610   2.334  10.071 -1.7195 -2.3050  1.6628
  755MOL0     H99642  -1.556   2.767   9.946  0.9947  0.3900  1.7835
  755MOL0     H99643  -1.334   2.874   9.922  2.1213  2.0355  2.1277
  755MOL0     H99644  -0.936   2.902  10.163  0.2464  1.4430 -0.7623
  755MOL0     H99645  -0.706   2.972  10.195  1.9205 -2.5392  1.6621
  755MOL0     H99646   1.178   2.284  10.378 -1.9054 -0.0409  0.7185
  755MOL0     H99647   1.421   2.243  10.367 -0.4146 -2.3057  1.6226
  755MOL0     H99648   1.889   2.009  10.501  2.5622 -1.3225 -0.2597
  755MOL0     H99649   2.098   2.022  10.372 -1.2647 -0.4187 -2.6747
  755MOL0     H99650   2.249   2.424  10.226 -2.8635  0.7679  0.3663
  755MOL0     H99651   2.134   2.377  10.112  0.3696  0.2382  1.4097
  755MOL0     H99652   2.284   2.228   9.997  0.9328  0.1889 -0.3946
  755MOL0     H99653   2.336   2.402  10.010 -0.4085  0.5798 -0.5895
  755MOL0     H99654   2.467   2.185  10.195 -0.1496 -0.6338 -1.0666
  755MOL0     H99655   2.490   2.361  10.174 -1.8056  0.3575 -0.1676
  755MOL0     H99656   2.554   2.304   9.933  0.5730  0.0764 -0.7848
  755MOL0     H99657   2.674   2.258  10.061 -1.0616  3.5714  0.2713
  755MOL0     H99658   2.470   1.924   9.852  0.4279 -0.5852  0.8897
  755MOL0     H99659   2.012   2.437  10.291  0.1890  0.2327 -0.0914
  755MOL0     H99660   1.802   2.419  10.411 -2.4980 -1.8815 -1.8216
  756MOL0     O99661   0.820   1.087   6.370  0.7979 -0.1080 -0.0789
  756MOL0     C99662   0.817   1.210   6.346 -0.0982  0.2574  0.0698
  756MOL0     O99663   0.707   1.282   6.331  0.5760 -0.4140  0.6757
  756MOL0     C99664   0.575   1.243   6.347  0.1263  0.3409 -0.1348
  756MOL0     C99665   0.519   1.116   6.365 -0.2904  0.2347 -0.5090
  756MOL0     C99666   0.380   1.097   6.372 -0.0265  0.1654  1.0352
  756MOL0     C99667   0.291   1.198   6.377 -0.0171 -0.9166  1.1917
  756MOL0     O99668   0.155   1.169   6.391  0.2454  0.7004 -0.5863
  756MOL0     C99669   0.068   1.270   6.352 -0.1080  0.2842 -0.5700
  756MOL0     C99670   0.035   1.353   6.471  0.3042  0.3267  1.3911
  756MOL0     C99671  -0.070   1.458   6.443 -0.5129 -0.0987 -1.5890
  756MOL0     C99672  -0.064   1.549   6.563  0.6658 -0.2320  0.0144
  756MOL0     C99673  -0.155   1.671   6.552 -0.4539  0.0442  0.1865
  756MOL0     C99674  -0.136   1.755   6.680  0.9829  0.2303  0.5596
  756MOL0     C99675  -0.256   1.844   6.708 -0.6834 -0.2075  0.2618
  756MOL0     C99676  -0.256   1.898   6.850 -0.4897  0.2986  0.0093
  756MOL0     N99677  -0.390   1.951   6.867 -0.3436 -0.2018  0.7410
  756MOL0     C99678  -0.431   2.076   6.828 -0.2447  0.0188  0.5133
  756MOL0     C99679  -0.566   2.076   6.855  0.2134 -0.0251 -0.7247
  756MOL0     C99680  -0.669   2.167   6.812 -0.0162 -0.9147  0.6770
  756MOL0     C99681  -0.814   2.119   6.827  0.2806 -0.0830 -0.0870
  756MOL0     C99682  -0.845   2.020   6.719  0.2955 -0.8198  0.1885
  756MOL0     C99683  -0.986   1.972   6.729  0.1049 -0.2215  0.5198
  756MOL0     O99684  -1.021   1.880   6.627 -0.5240  0.1223  0.5721
  756MOL0     C99685  -1.148   1.843   6.604 -0.6443  0.3060 -0.2171
  756MOL0     C99686  -1.163   1.734   6.517 -0.1748 -0.5368 -0.2010
  756MOL0     C99687  -1.289   1.694   6.489  0.4388 -0.1767  0.1951
  756MOL0     C99688  -1.406   1.768   6.516 -0.2722 -0.4483  0.2831
  756MOL0     C99689  -1.538   1.726   6.477  0.8944 -0.3353 -0.2003
  756MOL0     O99690  -1.631   1.824   6.437  0.5100 -0.6055 -0.7240
  756MOL0     C99691  -1.752   1.781   6.433  1.0660  0.3206  0.0530
  756MOL0     C99692  -1.795   1.702   6.319  0.0555 -0.5369  0.3324
  756MOL0     C99693  -1.932   1.671   6.313 -0.0107  0.7569 -0.2286
  756MOL0     C99694  -2.025   1.700   6.411  0.9268  0.1300 -1.9471
  756MOL0     O99695  -2.153   1.668   6.383  0.2563 -0.1811  0.4136
  756MOL0     C99696  -2.252   1.662   6.489  0.3587 -0.2752  0.0927
  756MOL0     C99697  -2.350   1.778   6.483 -0.2430  0.8029  0.2507
  756MOL0     C99698  -2.293   1.902   6.549  0.2120  0.1656 -0.2604
  756MOL0     C99699  -2.408   1.998   6.561 -0.9507 -0.8011  0.0357
  756MOL0     C99700  -2.371   2.124   6.646  0.7427  0.2222  0.2327
  756MOL0     C99701  -2.471   2.232   6.626  0.0930 -0.4165  0.6679
  756MOL0     C99702  -2.416   2.371   6.676  0.0758  0.4749  0.5873
  756MOL0     C99703  -2.492   2.492   6.615 -0.2059  0.0515 -0.4081
  756MOL0    Cl99704  -2.406   2.654   6.651  0.2890  0.4326 -0.1850
  756MOL0     C99705  -1.981   1.763   6.526  0.7071 -0.5547 -0.1071
  756MOL0     C99706  -1.851   1.806   6.525  0.0892 -0.0357 -0.0476
  756MOL0     O99707  -1.564   1.606   6.502  0.5971 -0.4132  0.4742
  756MOL0     C99708  -1.391   1.886   6.595 -0.1938  0.5354 -0.5760
  756MOL0     C99709  -1.261   1.924   6.639  0.5903 -0.5390 -0.0995
  756MOL0     N99710  -0.594   1.958   6.924 -0.5345 -0.3474 -0.5114
  756MOL0     N99711  -0.491   1.884   6.931  1.2642 -0.1935  0.1458
  756MOL0     C99712   0.347   1.325   6.361  0.2937 -0.3600 -0.2135
  756MOL0     C99713   0.477   1.349   6.348 -0.7468 -0.7055  0.7684
  756MOL0     C99714   0.948   1.280   6.348 -0.3410  0.9190  0.1644
  756MOL0     C99715   0.946   1.408   6.291  0.6745 -0.6115 -1.0123
  756MOL0     C99716   1.066   1.479   6.282  0.2951  0.5542 -0.0302
  756MOL0     C99717   1.187   1.436   6.334 -0.3487  0.3803 -0.1725
  756MOL0     O99718   1.286   1.526   6.324 -0.0015 -1.2081 -0.4363
  756MOL0     C99719   1.416   1.477   6.365  0.4726  0.3717  0.1558
  756MOL0     C99720   1.484   1.383   6.262  1.0086  1.1286 -0.2224
  756MOL0     C99721   1.584   1.463   6.176 -0.2739  0.2568 -0.2134
  756MOL0     C99722   1.666   1.381   6.074 -0.5375  0.0935  0.0412
  756MOL0     C99723   1.585   1.346   5.953 -0.2716  0.9283  0.4076
  756MOL0     C99724   1.521   1.306   5.868  0.2756 -0.2545 -0.0859
  756MOL0     C99725   1.191   1.303   6.385 -1.1532  0.1209 -0.7874
  756MOL0     C99726   1.070   1.228   6.400 -0.9600 -1.0426 -0.0723
  756MOL0     H99727   0.585   1.030   6.366 -0.9124 -0.3576  3.0979
  756MOL0     H99728   0.338   0.997   6.379 -0.6656  0.3919  0.6119
  756MOL0     H99729  -0.010   1.209   6.305  0.3633 -1.2543  0.5875
  756MOL0     H99730   0.103   1.326   6.264  1.2124  0.4676  0.0511
  756MOL0     H99731   0.126   1.410   6.493  0.7562  0.1369  0.1060
  756MOL0     H99732   0.001   1.287   6.551  0.9886  0.0956  1.4991
  756MOL0     H99733  -0.169   1.414   6.452  0.3985 -1.7620  2.7678
  756MOL0     H99734  -0.052   1.513   6.350 -1.1749  1.1375 -1.0172
  756MOL0     H99735  -0.101   1.502   6.654  2.0991  1.3548  1.4861
  756MOL0     H99736   0.040   1.581   6.576  0.7348 -1.6050  4.1241
  756MOL0     H99737  -0.255   1.627   6.550 -0.5172  0.2070 -0.1856
  756MOL0     H99738  -0.145   1.731   6.462 -1.3104  2.2966  1.5045
  756MOL0     H99739  -0.049   1.820   6.669  0.0717  1.9070  2.4587
  756MOL0     H99740  -0.110   1.686   6.761 -0.1238 -0.4565  0.3582
  756MOL0     H99741  -0.261   1.934   6.646 -0.8774 -0.4862 -0.1297
  756MOL0     H99742  -0.348   1.786   6.695 -0.6497 -0.5482  1.4431
  756MOL0     H99743  -0.178   1.969   6.881 -1.1860  1.0801 -0.0059
  756MOL0     H99744  -0.238   1.815   6.919  0.2734  0.3552 -0.1114
  756MOL0     H99745  -0.388   2.150   6.761  1.7195 -2.7134 -1.4820
  756MOL0     H99746  -0.658   2.188   6.705 -0.8661  0.2403  0.7890
  756MOL0     H99747  -0.650   2.262   6.864  1.6960  0.1584 -1.6833
  756MOL0     H99748  -0.880   2.206   6.826  1.1816  0.6157  0.3998
  756MOL0     H99749  -0.837   2.079   6.926  0.1651  3.1057  1.2829
  756MOL0     H99750  -0.823   2.060   6.620  1.1382 -0.6773  0.4309
  756MOL0     H99751  -0.780   1.935   6.739 -1.0411 -1.6763  1.1103
  756MOL0     H99752  -1.047   2.061   6.712 -2.1780 -1.9218 -0.8299
  756MOL0     H99753  -1.009   1.935   6.830  3.6400 -2.0653  0.8125
  756MOL0     H99754  -1.078   1.675   6.484 -0.0791 -0.0089 -0.9081
  756MOL0     H99755  -1.301   1.596   6.443  0.3758 -1.6302  3.0940
  756MOL0     H99756  -1.724   1.687   6.239  1.2317 -1.0652  1.4380
  756MOL0     H99757  -1.969   1.634   6.218  0.1276  3.4918 -1.4580
  756MOL0     H99758  -2.207   1.663   6.588  3.2368 -0.6644 -1.1019
  756MOL0     H99759  -2.314   1.571   6.488  1.7888 -1.4601  3.7422
  756MOL0     H99760  -2.443   1.740   6.528 -0.5508  0.0725 -0.9561
  756MOL0     H99761  -2.374   1.795   6.378  2.6965  1.3898 -0.3954
  756MOL0     H99762  -2.211   1.946   6.492  0.2770 -0.9344 -1.0543
  756MOL0     H99763  -2.260   1.887   6.653 -1.5792 -2.0534  0.0663
  756MOL0     H99764  -2.439   2.034   6.463 -1.7594  1.7622  1.1290
  756MOL0     H99765  -2.484   1.937   6.611  0.7355 -2.6319  0.5188
  756MOL0     H99766  -2.276   2.169   6.616  2.0134 -0.9985  2.1645
  756MOL0     H99767  -2.365   2.093   6.750 -0.9792  0.5155  0.4503
  756MOL0     H99768  -2.554   2.209   6.693  0.4526  0.1301  1.3050
  756MOL0     H99769  -2.493   2.240   6.519 -0.4795 -0.4731  0.7784
  756MOL0     H99770  -2.402   2.394   6.782  0.9495  1.2398  0.3246
  756MOL0     H99771  -2.319   2.364   6.627 -0.5577 -3.5896 -0.4071
  756MOL0     H99772  -2.586   2.493   6.671 -1.8996 -4.2825 -2.7260
  756MOL0     H99773  -2.507   2.481   6.508  1.6280 -1.1691 -0.5873
  756MOL0     H99774  -2.051   1.784   6.607 -1.9102  0.6100 -2.5183
  756MOL0     H99775  -1.816   1.853   6.616 -2.2400 -0.1314  0.9525
  756MOL0     H99776  -1.474   1.948   6.624  0.1026  0.5515  0.2698
  756MOL0     H99777  -1.262   2.020   6.690 -1.1761 -1.6185  2.1124
  756MOL0     H99778   0.280   1.406   6.336  0.3103 -1.1673 -3.4041
  756MOL0     H99779   0.511   1.452   6.346 -1.1843 -0.5601  0.8198
  756MOL0     H99780   0.850   1.446   6.257 -0.0742 -1.6030 -0.0583
  756MOL0     H99781   1.056   1.576   6.235 -4.3115 -0.5619 -1.9338
  756MOL0     H99782   1.407   1.431   6.464  0.6449  0.6015  0.2801
  756MOL0     H99783   1.479   1.566   6.379  1.1958  0.0432 -0.9000
  756MOL0     H99784   1.529   1.298   6.315 -1.9204  0.0051  0.6158
  756MOL0     H99785   1.407   1.339   6.199  3.1012 -2.6923 -0.3907
  756MOL0     H99786   1.662   1.506   6.240 -2.3828  0.0319  2.7184
  756MOL0     H99787   1.530   1.545   6.127  0.2285  1.1702  0.7057
  756MOL0     H99788   1.755   1.441   6.055 -0.5496  0.0281 -0.2236
  756MOL0     H99789   1.698   1.284   6.113  0.2515  0.8279  1.2816
  756MOL0     H99790   1.460   1.288   5.781  0.2086  0.8580 -0.2757
  756MOL0     H99791   1.284   1.253   6.412  0.9359  4.0837  0.0963
  756MOL0     H99792   1.074   1.129   6.445 -0.7634  0.6335  3.9077
  757MOL0     O99793   1.573   2.528   2.708 -0.0590  0.2385 -0.1813
  757MOL0     C99794   1.577   2.566   2.826 -0.1390 -0.4207 -0.1262
  757MOL0     O99795   1.515   2.673   2.872 -0.6374  0.7866  0.6797
  757MOL0     C99796   1.433   2.757   2.789 -0.0845 -0.7262 -0.2820
  757MOL0     C99797   1.436   2.897   2.819 -0.6328  0.2227  0.6859
  757MOL0     C99798   1.334   2.978   2.765 -1.1293  0.4269 -0.1335
  757MOL0     C99799   1.237   2.929   2.670 -0.2265 -0.1682 -0.2050
  757MOL0     O99800   1.139   3.019   2.639 -0.3653 -0.6327  0.4309
  757MOL0     C99801   1.015   2.951   2.590  0.3816 -0.0025  0.1375
  757MOL0     C99802   0.912   3.054   2.544  0.2505 -0.2789 -0.0341
  757MOL0     C99803   0.779   2.983   2.510 -0.0196  0.1983 -0.3463
  757MOL0     C99804   0.699   2.969   2.645  0.5480  0.1477 -0.8276
  757MOL0     C99805   0.555   2.926   2.631  0.5300 -0.4365 -0.2853
  757MOL0     C99806   0.461   3.029   2.543  0.4733  0.6856  0.0750
  757MOL0     C99807   0.316   2.976   2.540 -0.4075  0.4128  0.2942
  757MOL0     C99808   0.222   3.085   2.476 -0.4763 -0.1777 -0.3481
  757MOL0     N99809   0.198   3.207   2.550 -0.6399 -0.7295  0.3320
  757MOL0     C99810   0.144   3.214   2.671 -0.0353 -0.7413 -0.2430
  757MOL0     C99811   0.155   3.347   2.702 -1.1476 -0.7203 -0.3144
  757MOL0     C99812   0.138   3.396   2.837 -0.8479  0.1588  0.1221
  757MOL0     C99813  -0.011   3.413   2.871  1.2579 -0.5136  0.8975
  757MOL0     C99814  -0.075   3.545   2.830  0.6740 -0.0140 -0.2510
  757MOL0     C99815  -0.218   3.569   2.874  0.1880  0.0673 -0.2703
  757MOL0     O99816  -0.300   3.465   2.830  0.1053  0.5040  0.3289
  757MOL0     C99817  -0.392   3.408   2.915  0.2188  0.0044 -0.8475
  757MOL0     C99818  -0.416   3.273   2.908  0.7322  0.0208 -0.3818
  757MOL0     C99819  -0.521   3.208   2.979  0.2631  0.0847 -0.8655
  757MOL0     C99820  -0.608   3.296   3.051  0.7617  0.4514 -0.0105
  757MOL0     C99821  -0.732   3.236   3.111  0.3317  0.3069 -0.2452
  757MOL0     O99822  -0.830   3.324   3.118 -0.4352  0.3032 -0.4212
  757MOL0     C99823  -0.959   3.289   3.150 -0.1922  0.2368 -0.3320
  757MOL0     C99824  -0.994   3.218   3.264 -0.4636 -0.7387  0.0853
  757MOL0     C99825  -1.126   3.211   3.298 -0.6322 -0.2884 -0.3557
  757MOL0     C99826  -1.235   3.252   3.222  1.1635 -0.5678  0.4060
  757MOL0     O99827  -1.363   3.233   3.251  0.1763 -0.5435 -0.4002
  757MOL0     C99828  -1.402   3.152   3.360 -0.0077 -0.2919 -0.3728
  757MOL0     C99829  -1.558   3.132   3.337  0.4794  0.2527  0.0447
  757MOL0     C99830  -1.613   3.026   3.431  0.7128 -0.1659  0.7668
  757MOL0     C99831  -1.749   2.975   3.391  0.6412 -0.0023  0.9754
  757MOL0     C99832  -1.866   3.085   3.384 -0.5160  0.1266 -0.3011
  757MOL0     C99833  -2.009   3.033   3.339  0.0745 -0.1113  0.5663
  757MOL0     C99834  -2.064   2.903   3.411 -0.4458 -0.9433  0.1634
  757MOL0     C99835  -2.069   2.931   3.566 -0.4789  0.1436  0.4796
  757MOL0    Cl99836  -2.105   2.775   3.649 -0.5693  0.0547  0.3500
  757MOL0     C99837  -1.198   3.320   3.102 -0.3853  0.0273 -0.1649
  757MOL0     C99838  -1.060   3.341   3.064  0.1079  1.1754  0.0122
  757MOL0     O99839  -0.736   3.116   3.145 -0.4280 -0.4516 -0.5219
  757MOL0     C99840  -0.583   3.434   3.053  0.5159  0.2340 -0.7854
  757MOL0     C99841  -0.478   3.490   2.987 -0.3828  0.5281 -0.5708
  757MOL0     N99842   0.211   3.423   2.595  0.4363  0.3330  0.2834
  757MOL0     N99843   0.239   3.332   2.506  0.4609  0.3557  0.7817
  757MOL0     C99844   1.250   2.795   2.632 -1.2505 -0.0805 -0.7752
  757MOL0     C99845   1.339   2.710   2.693  0.1810  0.1429 -0.8982
  757MOL0     C99846   1.662   2.496   2.920  0.2651 -0.0677 -0.3220
  757MOL0     C99847   1.766   2.408   2.877  1.2432  0.9479 -0.1555
  757MOL0     C99848   1.856   2.354   2.970  0.1993  0.2523  0.2558
  757MOL0     C99849   1.845   2.386   3.111 -0.9165 -0.3154 -0.3558
  757MOL0     O99850   1.946   2.343   3.198  0.1342  0.3356  0.6213
  757MOL0     C99851   1.936   2.393   3.330  0.4269  0.5134  0.0647
  757MOL0     C99852   2.048   2.366   3.423  0.0498 -0.4809  0.0210
  757MOL0     C99853   2.171   2.452   3.388 -0.0452 -0.0830 -0.1461
  757MOL0     C99854   2.264   2.469   3.521  0.1353 -0.0187  0.3184
  757MOL0     C99855   2.386   2.555   3.495  0.2122  0.7959  0.3068
  757MOL0     C99856   2.474   2.637   3.485 -0.5932 -0.6052  0.7490
  757MOL0     C99857   1.741   2.469   3.158  0.1071 -0.5726 -0.2378
  757MOL0     C99858   1.644   2.519   3.060 -0.2439 -0.6083  0.2695
  757MOL0     H99859   1.509   2.941   2.887 -1.4235  0.3255  1.4842
  757MOL0     H99860   1.334   3.078   2.807 -1.6135  0.3127  0.1504
  757MOL0     H99861   0.979   2.890   2.673  1.1739 -1.0181 -0.2426
  757MOL0     H99862   1.020   2.882   2.505  5.7895 -0.4483  0.4424
  757MOL0     H99863   0.940   3.110   2.454 -0.6658  1.1623  0.5379
  757MOL0     H99864   0.908   3.122   2.630 -0.0608 -2.7073  1.9824
  757MOL0     H99865   0.792   2.886   2.461 -3.5486  1.3743 -4.1620
  757MOL0     H99866   0.733   3.043   2.430  1.2023 -0.6029 -1.6927
  757MOL0     H99867   0.761   2.911   2.714  0.8686  3.1340  1.6105
  757MOL0     H99868   0.704   3.068   2.691  3.0483 -0.8251  1.2956
  757MOL0     H99869   0.519   2.918   2.734 -0.2543  0.8263 -0.4323
  757MOL0     H99870   0.541   2.828   2.585  1.6292 -0.2522 -1.0734
  757MOL0     H99871   0.490   3.032   2.438 -2.2697  0.0728 -0.7905
  757MOL0     H99872   0.473   3.128   2.586 -0.1473  1.6347 -1.8130
  757MOL0     H99873   0.314   2.892   2.470 -0.8519  1.0566 -0.4713
  757MOL0     H99874   0.285   2.936   2.637  2.1374 -2.0585  0.2270
  757MOL0     H99875   0.121   3.050   2.452 -1.5733  2.9099 -0.6273
  757MOL0     H99876   0.266   3.116   2.381 -0.4558  1.2350  0.1023
  757MOL0     H99877   0.116   3.133   2.738 -2.8274 -2.2249 -2.9522
  757MOL0     H99878   0.194   3.490   2.838 -0.9890  0.2427 -0.0271
  757MOL0     H99879   0.189   3.323   2.902  0.6085 -0.8154 -1.9994
  757MOL0     H99880  -0.024   3.403   2.980 -2.0923 -0.5116  0.6107
  757MOL0     H99881  -0.074   3.336   2.827 -0.2578  0.7892  0.6912
  757MOL0     H99882  -0.012   3.618   2.883  0.1076 -0.1472  0.6338
  757MOL0     H99883  -0.073   3.562   2.722 -0.0574  0.5986 -0.1732
  757MOL0     H99884  -0.253   3.660   2.825 -0.3438  0.3385  0.6128
  757MOL0     H99885  -0.222   3.584   2.982  1.6400  1.8680 -0.4080
  757MOL0     H99886  -0.353   3.206   2.851 -0.3668 -1.7287  0.3871
  757MOL0     H99887  -0.532   3.100   2.978  0.1984  0.0054  1.6776
  757MOL0     H99888  -0.920   3.191   3.338  2.2044 -1.2224 -2.5539
  757MOL0     H99889  -1.138   3.161   3.393 -1.4786 -0.1218 -0.3662
  757MOL0     H99890  -1.392   3.204   3.456 -1.8835  0.7706 -0.7088
  757MOL0     H99891  -1.352   3.057   3.342  1.1166 -0.1600  1.7533
  757MOL0     H99892  -1.579   3.098   3.235  2.5068  0.0531 -0.3532
  757MOL0     H99893  -1.613   3.226   3.347 -1.9696 -0.9534 -1.3095
  757MOL0     H99894  -1.617   3.069   3.532 -1.6631 -1.3594  1.2486
  757MOL0     H99895  -1.544   2.940   3.433 -0.2852 -0.9809  0.9026
  757MOL0     H99896  -1.743   2.935   3.290 -1.7365  0.5146  0.5610
  757MOL0     H99897  -1.783   2.888   3.448 -0.8345 -0.3817 -0.4077
  757MOL0     H99898  -1.835   3.165   3.315  0.0242 -0.0485 -0.2704
  757MOL0     H99899  -1.871   3.136   3.481 -0.0411 -0.5080  0.0686
  757MOL0     H99900  -2.004   3.004   3.233  3.2477  2.9761 -0.3204
  757MOL0     H99901  -2.079   3.112   3.368 -0.3449 -1.7213  4.5355
  757MOL0     H99902  -2.167   2.871   3.392 -1.3708  0.0338  2.9705
  757MOL0     H99903  -1.995   2.822   3.387  0.2374 -0.2222 -0.3358
  757MOL0     H99904  -2.138   3.008   3.602  0.8380  1.6252 -0.0469
  757MOL0     H99905  -1.976   2.969   3.608 -0.8006  0.2336  1.1234
  757MOL0     H99906  -1.282   3.341   3.036 -2.0303 -3.0062  0.7780
  757MOL0     H99907  -1.039   3.390   2.969  0.7594  0.3851 -0.2627
  757MOL0     H99908  -0.652   3.503   3.099  0.7767 -0.2180  0.3006
  757MOL0     H99909  -0.464   3.597   2.996 -2.2623  0.9447 -1.8406
  757MOL0     H99910   1.170   2.758   2.569 -1.4963  1.2570 -1.2769
  757MOL0     H99911   1.338   2.605   2.664  0.5134 -0.8816  2.4578
  757MOL0     H99912   1.789   2.392   2.773 -2.5137  2.3418 -1.3601
  757MOL0     H99913   1.932   2.285   2.935 -0.9309 -2.3001  2.4227
  757MOL0     H99914   1.848   2.349   3.378  0.1428 -0.6137 -1.4186
  757MOL0     H99915   1.921   2.501   3.327  1.1995  0.7310  2.0639
  757MOL0     H99916   2.014   2.403   3.521 -3.4221 -1.6333 -0.6447
  757MOL0     H99917   2.066   2.259   3.432 -1.9184 -0.7925  0.6921
  757MOL0     H99918   2.137   2.546   3.344 -2.2899 -0.9247 -0.3035
  757MOL0     H99919   2.232   2.403   3.311  0.7396  0.3880  0.1586
  757MOL0     H99920   2.210   2.514   3.605 -0.9593  0.8026 -0.7921
  757MOL0     H99921   2.283   2.367   3.554 -3.2017 -0.5808  0.7638
  757MOL0     H99922   2.550   2.712   3.482 -0.5677 -0.6323 -1.5857
  757MOL0     H99923   1.716   2.479   3.263 -2.5269  2.2091 -0.9856
  757MOL0     H99924   1.564   2.563   3.120  0.6659 -0.4540  1.4037
  758MOL0     O99925   7.811   2.513   2.064  0.0166  0.6696 -1.5227
  758MOL0     C99926   7.887   2.510   1.973 -0.2510  0.3575  0.5794
  758MOL0     O99927   7.859   2.475   1.846  0.3876  0.1164  0.0572
  758MOL0     C99928   7.727   2.474   1.801 -0.5560  0.5724  0.4718
  758MOL0     C99929   7.681   2.563   1.706  0.3113 -0.1410 -0.0314
  758MOL0     C99930   7.552   2.551   1.653  0.0687 -0.0982  0.0073
  758MOL0     C99931   7.470   2.446   1.699 -0.0238  0.3034 -0.3540
  758MOL0     O99932   7.338   2.426   1.669 -0.7739  0.1149 -0.0575
  758MOL0     C99933   7.266   2.518   1.585 -0.1171  0.9253 -0.6316
  758MOL0     C99934   7.128   2.462   1.562 -0.7697 -0.0272 -0.6955
  758MOL0     C99935   7.026   2.566   1.517 -0.6249  0.2017  0.1593
  758MOL0     C99936   6.883   2.499   1.524 -0.4436 -0.0696 -0.0541
  758MOL0     C99937   6.767   2.589   1.465 -0.7529  0.7672  0.4582
  758MOL0     C99938   6.634   2.528   1.498  0.4526 -0.8629  0.0148
  758MOL0     C99939   6.549   2.625   1.414  0.7228  0.1139  0.7943
  758MOL0     C99940   6.400   2.583   1.414 -0.2938 -0.6315  0.1350
  758MOL0     N99941   6.328   2.661   1.307  0.1779  0.0480 -0.1695
  758MOL0     C99942   6.314   2.797   1.315 -0.4393  0.7893  0.0871
  758MOL0     C99943   6.222   2.832   1.223 -0.6813 -0.2044  0.5135
  758MOL0     C99944   6.162   2.965   1.208  0.0087 -0.4242  0.1093
  758MOL0     C99945   6.016   2.958   1.246 -0.6009 -0.3291  0.0803
  758MOL0     C99946   5.944   3.091   1.225 -0.1298  0.5491  0.4031
  758MOL0     C99947   5.927   3.123   1.073 -0.1961 -0.3188 -0.5018
  758MOL0     O99948   5.843   3.040   0.992  0.1422  0.1087 -0.8591
  758MOL0     C99949   5.714   3.043   1.033  0.5681  0.1921 -0.5014
  758MOL0     C99950   5.664   2.930   1.108 -0.3043 -0.5221  0.2509
  758MOL0     C99951   5.537   2.918   1.156 -0.4552 -0.4799  0.5383
  758MOL0     C99952   5.448   3.019   1.126 -0.9432 -0.2996  0.2982
  758MOL0     C99953   5.304   3.007   1.158 -0.5165  1.0112 -0.1141
  758MOL0     O99954   5.265   2.879   1.187  0.5077  0.5427 -0.3550
  758MOL0     C99955   5.130   2.849   1.199 -0.5849 -0.1954  0.0594
  758MOL0     C99956   5.093   2.745   1.281 -0.1349 -0.2192 -0.4655
  758MOL0     C99957   4.963   2.706   1.293 -0.2485 -0.9170  0.2221
  758MOL0     C99958   4.865   2.759   1.217  0.1422 -0.6224 -0.5549
  758MOL0     O99959   4.733   2.730   1.233 -0.2431  0.3741 -0.4461
  758MOL0     C99960   4.691   2.720   1.368 -0.7663  0.2337 -0.2054
  758MOL0     C99961   4.542   2.699   1.371 -0.6042 -0.3072 -0.2702
  758MOL0     C99962   4.467   2.828   1.331  0.5207 -0.8587  0.4415
  758MOL0     C99963   4.320   2.797   1.328  0.1095  0.4913 -0.5611
  758MOL0     C99964   4.240   2.925   1.302 -0.2802 -0.4130 -1.1793
  758MOL0     C99965   4.124   2.915   1.208 -1.3226  0.0378 -0.5286
  758MOL0     C99966   4.009   2.846   1.262 -0.3635 -0.5005 -0.1151
  758MOL0     C99967   3.894   2.860   1.167  0.6771 -0.2670 -0.2291
  758MOL0    Cl99968   3.747   2.786   1.238 -0.2054 -0.0101 -0.5502
  758MOL0     C99969   4.904   2.855   1.121 -0.2313 -0.0458 -0.1913
  758MOL0     C99970   5.037   2.908   1.116  0.2517  0.5260  0.0495
  758MOL0     O99971   5.231   3.100   1.153 -0.5922 -0.2862 -0.7245
  758MOL0     C99972   5.495   3.130   1.050  0.2043  0.3004 -0.3361
  758MOL0     C99973   5.626   3.140   1.007 -0.4325 -0.6481 -0.2074
  758MOL0     N99974   6.188   2.719   1.151 -0.0449  0.2906  0.0332
  758MOL0     N99975   6.260   2.619   1.193 -0.2488 -0.3633  0.8359
  758MOL0     C99976   7.513   2.352   1.789 -0.9856  0.4460 -0.2581
  758MOL0     C99977   7.645   2.367   1.841 -0.0767 -0.3301 -0.4709
  758MOL0     C99978   8.028   2.549   2.007 -0.0212 -0.7150  0.6303
  758MOL0     C99979   8.065   2.584   2.137  0.0075 -0.6710  0.8278
  758MOL0     C99980   8.192   2.633   2.164  0.3002 -0.4315  0.5613
  758MOL0     C99981   8.295   2.639   2.066 -0.0272 -0.1446  0.9531
  758MOL0     O99982   8.420   2.673   2.106  0.7666 -0.0347  0.3536
  758MOL0     C99983   8.529   2.661   2.016  0.0333 -0.1352  0.4463
  758MOL0     C99984   8.637   2.758   2.072  0.2525 -0.3105  0.2291
  758MOL0     C99985   8.769   2.762   1.997  0.5291 -0.1709 -0.4426
  758MOL0     C99986   8.791   2.898   1.929  0.4752 -0.1173  0.0343
  758MOL0     C99987   8.926   2.910   1.878  0.0706 -0.4606 -0.6458
  758MOL0     C99988   9.043   2.913   1.851 -0.1438  0.1868 -0.3325
  758MOL0     C99989   8.264   2.594   1.944  0.5951  0.5706  0.1655
  758MOL0     C99990   8.131   2.559   1.911  0.3781  0.7077  0.0383
  758MOL0     H99991   7.748   2.636   1.662  1.3021 -1.0579 -0.0695
  758MOL0     H99992   7.521   2.619   1.574  1.7618  2.1849  1.1660
  758MOL0     H99993   7.315   2.535   1.489  0.1191  0.9794 -0.5024
  758MOL0     H99994   7.260   2.607   1.648  1.8472  1.3726 -1.0203
  758MOL0     H99995   7.087   2.420   1.654 -2.2221 -1.0894 -1.8003
  758MOL0     H99996   7.150   2.376   1.499  0.2683 -0.0906 -0.2754
  758MOL0     H99997   7.046   2.596   1.413 -1.1220  0.4039  0.1227
  758MOL0     H99998   7.028   2.650   1.587  1.2864 -0.3203  0.7986
  758MOL0     H99999   6.886   2.398   1.480  3.8891  0.0714 -0.5273
  758MOL0     H    0   6.853   2.489   1.629 -2.1612  3.6019 -0.0691
  758MOL0     H    1   6.785   2.603   1.358  0.2548  1.7806  0.7467
  758MOL0     H    2   6.785   2.689   1.506  2.4125 -0.4278  2.3790
  758MOL0     H    3   6.618   2.533   1.606  2.3766  0.7639  0.2809
  758MOL0     H    4   6.628   2.424   1.463 -0.2588 -0.7102 -0.3290
  758MOL0     H    5   6.559   2.728   1.449 -1.4262  0.9463 -0.7889
  758MOL0     H    6   6.581   2.606   1.311 -1.7501  0.5131 -0.1425
  758MOL0     H    7   6.355   2.601   1.512  1.8017 -0.5014  1.1285
  758MOL0     H    8   6.394   2.479   1.380  1.6872 -0.6581 -0.2413
  758MOL0     H    9   6.363   2.853   1.394 -0.8859 -2.4759  2.9525
  758MOL0     H   10   6.170   3.020   1.113 -3.9012  0.9483  0.3989
  758MOL0     H   11   6.209   3.028   1.284  0.7348 -1.4766  0.5516
  758MOL0     H   12   6.008   2.922   1.349  0.4681 -0.6890  0.0449
  758MOL0     H   13   5.975   2.882   1.179 -0.3407 -0.6369  0.2707
  758MOL0     H   14   5.845   3.089   1.274 -1.5290 -3.9310 -2.0326
  758MOL0     H   15   6.001   3.173   1.269 -1.7424  1.5335  0.7827
  758MOL0     H   16   6.026   3.132   1.028 -0.0251 -2.2153 -0.5808
  758MOL0     H   17   5.882   3.223   1.083 -0.0082 -0.3975  1.8490
  758MOL0     H   18   5.732   2.845   1.102  0.9996  0.5410 -0.6800
  758MOL0     H   19   5.514   2.820   1.198  0.8013 -1.8319 -1.7287
  758MOL0     H   20   5.157   2.674   1.331 -1.5429 -0.0565  1.7064
  758MOL0     H   21   4.951   2.615   1.352  0.9147 -0.6310  0.9367
  758MOL0     H   22   4.719   2.809   1.425  1.2664 -0.7060  0.3585
  758MOL0     H   23   4.746   2.637   1.414  1.6610  0.7095 -2.0553
  758MOL0     H   24   4.514   2.677   1.474 -0.3910  1.6044  0.2376
  758MOL0     H   25   4.528   2.621   1.296  1.8311 -0.1940 -0.9319
  758MOL0     H   26   4.502   2.877   1.240  1.2254 -0.8563  0.7048
  758MOL0     H   27   4.478   2.900   1.413 -1.8765 -1.3842  1.3286
  758MOL0     H   28   4.309   2.714   1.257  0.6300 -0.6240  0.6058
  758MOL0     H   29   4.292   2.757   1.426  0.0118 -0.7504 -1.0782
  758MOL0     H   30   4.316   2.996   1.267 -0.2584 -0.6819 -1.6911
  758MOL0     H   31   4.216   2.969   1.399  0.3184 -2.5912  0.0285
  758MOL0     H   32   4.155   2.867   1.114  0.8066  1.2063 -0.4798
  758MOL0     H   33   4.093   3.015   1.177  0.1909  0.5529 -0.4698
  758MOL0     H   34   4.039   2.744   1.289  0.8694 -0.7365 -2.1038
  758MOL0     H   35   3.981   2.889   1.358  1.9299  0.2166  0.3079
  758MOL0     H   36   3.917   2.832   1.064  1.9881  0.5225 -0.1629
  758MOL0     H   37   3.880   2.968   1.160  3.5880  0.0947 -2.0953
  758MOL0     H   38   4.837   2.886   1.042 -1.1475 -2.1107 -0.3069
  758MOL0     H   39   5.066   2.987   1.047  0.6074  3.9212  3.7345
  758MOL0     H   40   5.424   3.200   1.007  2.3340  2.1738 -0.9678
  758MOL0     H   41   5.668   3.223   0.952  0.8475 -1.4678 -0.5184
  758MOL0     H   42   7.451   2.266   1.813  0.7233 -1.5214 -2.3894
  758MOL0     H   43   7.689   2.311   1.924  0.9498  2.1510  0.7570
  758MOL0     H   44   7.993   2.570   2.217 -1.4089  2.2362  0.2321
  758MOL0     H   45   8.215   2.660   2.267 -0.4005 -2.4764  1.2970
  758MOL0     H   46   8.504   2.697   1.915  1.2151 -1.3698 -0.3221
  758MOL0     H   47   8.558   2.556   2.008  3.8722  0.7724  0.4194
  758MOL0     H   48   8.602   2.860   2.085  1.2281  0.2678 -1.3470
  758MOL0     H   49   8.663   2.710   2.167 -0.2891 -1.3797 -0.1513
  758MOL0     H   50   8.768   2.689   1.916 -0.4112 -2.3720  1.4512
  758MOL0     H   51   8.838   2.736   2.078 -0.0382 -0.4352 -0.0394
  758MOL0     H   52   8.710   2.907   1.856  0.8901 -1.7993 -0.6844
  758MOL0     H   53   8.774   2.979   2.000  3.3135 -0.2439  0.9890
  758MOL0     H   54   9.145   2.924   1.823  0.1410  2.6709  1.3684
  758MOL0     H   55   8.334   2.585   1.862 -0.3685  2.5677 -0.9589
  758MOL0     H   56   8.109   2.537   1.807 -1.0664 -1.1777  0.6798
  759MOL0     O   57   8.681  10.115   0.006 -0.4445  0.6340 -0.6211
  759MOL0     C   58   8.798  10.143  -0.041  0.8722  0.5847 -0.0174
  759MOL0     O   59   8.821  10.150  -0.173 -0.1842  0.2644 -0.6525
  759MOL0     C   60   8.729  10.144  -0.274  0.5080 -0.1494 -0.6035
  759MOL0     C   61   8.592  10.193  -0.269 -0.4148  0.2019 -0.5584
  759MOL0     C   62   8.498  10.167  -0.378 -0.3853  0.1489 -0.2300
  759MOL0     C   63   8.551  10.120  -0.502 -0.8431 -0.7327 -0.7935
  759MOL0     O   64   8.479  10.107  -0.616  0.3984 -0.2871  0.3165
  759MOL0     C   65   8.400  10.223  -0.641  0.8165 -0.1822  0.2636
  759MOL0     C   66   8.329  10.216  -0.774 -0.3352  0.1068  0.6358
  759MOL0     C   67   8.426  10.199  -0.892  0.6155  0.8660 -0.3258
  759MOL0     C   68   8.348  10.196  -1.025 -0.1507  0.4424 -0.0585
  759MOL0     C   69   8.360  10.320  -1.106  0.0506 -0.5178  0.4034
  759MOL0     C   70   8.258  10.437  -1.048 -0.9197 -0.0526 -0.4995
  759MOL0     C   71   8.310  10.581  -1.070  0.2657  0.3206  0.0154
  759MOL0     C   72   8.421  10.629  -0.973 -0.5035 -0.8304 -0.6107
  759MOL0     N   73   8.358  10.649  -0.843 -0.4614 -0.1209 -0.1972
  759MOL0     C   74   8.325  10.773  -0.791  0.0374 -0.6704  0.0946
  759MOL0     C   75   8.269  10.753  -0.669  0.0990 -0.4944  0.8664
  759MOL0     C   76   8.204  10.849  -0.575 -0.0929  0.6731  1.5443
  759MOL0     C   77   8.051  10.822  -0.558 -0.3716 -0.6559  0.2673
  759MOL0     C   78   7.990  10.888  -0.684 -0.6266  0.3162  0.5276
  759MOL0     C   79   7.839  10.876  -0.684 -0.6445 -0.2740 -0.2392
  759MOL0     O   80   7.784  10.955  -0.786 -0.2937  0.4272  0.7597
  759MOL0     C   81   7.652  10.939  -0.828  0.4953 -0.0411  0.1139
  759MOL0     C   82   7.566  10.849  -0.776  0.9850 -0.3489 -0.1540
  759MOL0     C   83   7.435  10.838  -0.819  0.3205  0.3982  0.8232
  759MOL0     C   84   7.375  10.912  -0.922  0.7296 -1.0621  0.5423
  759MOL0     C   85   7.233  10.896  -0.970 -0.4084  0.3256 -1.1060
  759MOL0     O   86   7.188  10.962  -1.071 -0.1424 -0.1774 -0.5676
  759MOL0     C   87   7.057  10.929  -1.097  0.1171 -0.0098 -0.1660
  759MOL0     C   88   7.025  10.816  -1.168 -0.5564  0.6947 -0.3397
  759MOL0     C   89   6.896  10.775  -1.176 -0.3685  0.0043 -0.1913
  759MOL0     C   90   6.795  10.848  -1.112 -0.1783 -0.8193  0.6318
  759MOL0     O   91   6.664  10.812  -1.126 -1.4298  0.3449  0.0400
  759MOL0     C   92   6.619  10.722  -1.232 -0.0470  0.8991  0.2424
  759MOL0     C   93   6.467  10.725  -1.248  0.0716  0.6788  0.1735
  759MOL0     C   94   6.432  10.654  -1.377 -0.3265 -0.2191  0.7464
  759MOL0     C   95   6.277  10.646  -1.397  0.8592 -0.6399  0.9572
  759MOL0     C   96   6.239  10.585  -1.528 -0.1421 -0.2336 -0.7653
  759MOL0     C   97   6.086  10.583  -1.548 -0.0260  0.7505  0.3236
  759MOL0     C   98   6.033  10.461  -1.465  0.2001 -0.3785 -0.2957
  759MOL0     C   99   5.885  10.442  -1.506 -0.8746  0.4591  0.7079
  759MOL0    Cl  100   5.780  10.588  -1.443 -0.0879 -0.5254 -0.3744
  759MOL0     C  101   6.821  10.965  -1.046 -0.6235  0.2760 -0.4289
  759MOL0     C  102   6.951  11.003  -1.034 -0.2294  0.6429 -0.5724
  759MOL0     O  103   7.174  10.796  -0.923  0.2776 -0.3334 -0.5368
  759MOL0     C  104   7.459  11.011  -0.972 -0.9284  0.4703  0.0503
  759MOL0     C  105   7.593  11.029  -0.931  0.1338 -0.1304 -0.0885
  759MOL0     N  106   8.273  10.613  -0.650 -0.0706 -0.1580 -0.1226
  759MOL0     N  107   8.330  10.553  -0.751 -0.1140  0.2451  0.3960
  759MOL0     C  108   8.686  10.073  -0.501  0.4159 -0.0928  0.2207
  759MOL0     C  109   8.772  10.085  -0.387 -0.1228  0.2302  0.7149
  759MOL0     C  110   8.908  10.181   0.038 -0.3090  0.2751 -0.4140
  759MOL0     C  111   8.910  10.155   0.177  0.2338 -0.2195  0.2787
  759MOL0     C  112   9.029  10.180   0.241  0.2350  0.9673 -0.4229
  759MOL0     C  113   9.146  10.238   0.181 -0.1028  0.5319  0.6061
  759MOL0     O  114   9.250  10.274   0.267  0.4543  0.1459 -0.1817
  759MOL0     C  115   9.353  10.363   0.227  0.0340  0.6809  1.0597
  759MOL0     C  116   9.420  10.441   0.338 -0.2830 -0.3668  0.5071
  759MOL0     C  117   9.569  10.482   0.316 -0.2602  0.2674 -0.6517
  759MOL0     C  118   9.609  10.578   0.434  0.6347  0.6454 -0.3390
  759MOL0     C  119   9.757  10.589   0.432  0.4695  0.1402  0.0631
  759MOL0     C  120   9.875  10.607   0.427  0.1739  0.0194  0.3335
  759MOL0     C  121   9.140  10.266   0.043  0.1730 -0.5310  0.0964
  759MOL0     C  122   9.026  10.238  -0.025 -0.0078 -0.2326  0.1210
  759MOL0     H  123   8.552  10.254  -0.188 -0.6511  0.1247 -0.6168
  759MOL0     H  124   8.393  10.195  -0.370 -1.1141 -2.4673  0.2413
  759MOL0     H  125   8.460  10.314  -0.639 -0.6388  0.8240  0.0085
  759MOL0     H  126   8.323  10.236  -0.565  1.3770 -1.1051  1.0140
  759MOL0     H  127   8.259  10.300  -0.779  1.4635  1.6425  0.2208
  759MOL0     H  128   8.272  10.122  -0.767  1.0735 -0.6945  1.9098
  759MOL0     H  129   8.477  10.103  -0.881 -2.2351 -0.8162 -0.7644
  759MOL0     H  130   8.492  10.286  -0.898  0.4829  1.0518  0.7538
  759MOL0     H  131   8.381  10.113  -1.088  1.3814  0.4795  0.6525
  759MOL0     H  132   8.245  10.169  -1.000  0.4284 -1.1681  0.7775
  759MOL0     H  133   8.329  10.302  -1.209 -1.1095 -2.2892  1.0161
  759MOL0     H  134   8.460  10.365  -1.116 -0.3496  0.5395  0.9474
  759MOL0     H  135   8.246  10.416  -0.941  1.4179  0.0077 -0.1762
  759MOL0     H  136   8.158  10.427  -1.091 -3.4847 -0.9459  4.8177
  759MOL0     H  137   8.349  10.578  -1.173 -0.4361 -1.8115 -0.2527
  759MOL0     H  138   8.229  10.654  -1.062  1.8638  2.2210 -0.5457
  759MOL0     H  139   8.456  10.721  -1.020 -0.0548 -1.4144 -1.4217
  759MOL0     H  140   8.511  10.568  -0.965 -0.1168 -0.1147  0.9105
  759MOL0     H  141   8.333  10.873  -0.833 -2.2115  1.1198  3.4874
  759MOL0     H  142   8.234  10.953  -0.590  1.5753 -0.2599 -3.4525
  759MOL0     H  143   8.253  10.813  -0.484  1.6761 -2.7286 -0.5594
  759MOL0     H  144   8.010  10.872  -0.470 -1.1008 -0.0183 -0.4271
  759MOL0     H  145   8.037  10.714  -0.547 -2.1567 -0.3870  1.0253
  759MOL0     H  146   8.021  10.992  -0.693  1.0781  0.1711  3.4154
  759MOL0     H  147   8.037  10.841  -0.770 -0.9910  2.2518 -0.7978
  759MOL0     H  148   7.808  10.926  -0.592 -0.6124 -1.2454  0.3155
  759MOL0     H  149   7.817  10.769  -0.676  2.1708 -0.8142  2.7913
  759MOL0     H  150   7.585  10.771  -0.704 -0.3473 -0.9466 -0.4085
  759MOL0     H  151   7.361  10.772  -0.777 -1.6624  1.0979 -1.4016
  759MOL0     H  152   7.112  10.768  -1.211 -1.6006 -1.4932 -0.1353
  759MOL0     H  153   6.879  10.688  -1.240 -1.5208  0.8313 -1.0494
  759MOL0     H  154   6.650  10.621  -1.204 -0.9829  0.5763  0.1672
  759MOL0     H  155   6.668  10.749  -1.326 -0.9102  0.8887 -0.2278
  759MOL0     H  156   6.432  10.829  -1.254  1.4389  1.1348 -0.2828
  759MOL0     H  157   6.417  10.676  -1.164 -2.8681  1.5538 -0.9457
  759MOL0     H  158   6.463  10.549  -1.371 -1.9852 -0.7193  1.1742
  759MOL0     H  159   6.473  10.699  -1.467 -2.5294 -3.9518 -2.4940
  759MOL0     H  160   6.246  10.573  -1.322  1.5980 -4.2648 -1.9946
  759MOL0     H  161   6.228  10.744  -1.386  1.4680  0.0628 -1.8365
  759MOL0     H  162   6.270  10.481  -1.533  1.8396 -0.0691  3.7443
  759MOL0     H  163   6.296  10.641  -1.604 -0.3767 -1.5235 -1.9197
  759MOL0     H  164   6.073  10.572  -1.656 -0.6606 -0.0361  0.4767
  759MOL0     H  165   6.042  10.678  -1.519 -0.6200  1.0249 -1.3779
  759MOL0     H  166   6.086  10.366  -1.475  0.4830 -0.8405  3.9317
  759MOL0     H  167   6.039  10.488  -1.360  1.6107  1.1558 -0.7378
  759MOL0     H  168   5.841  10.347  -1.473 -1.8935 -0.4198 -2.7060
  759MOL0     H  169   5.895  10.433  -1.615 -0.2065 -2.9196  0.9272
  759MOL0     H  170   6.752  11.027  -0.988 -0.2770  1.0705 -0.8562
  759MOL0     H  171   6.976  11.088  -0.971 -0.1274  0.2662 -0.1032
  759MOL0     H  172   7.438  11.075  -1.057  1.8696 -2.6712 -3.3101
  759MOL0     H  173   7.650  11.115  -0.966 -2.6641  1.3953 -1.2027
  759MOL0     H  174   8.733  10.021  -0.584 -1.9162 -2.4689  0.2803
  759MOL0     H  175   8.869  10.040  -0.406 -0.8187 -1.1378  0.2429
  759MOL0     H  176   8.828  10.119   0.238 -0.7742  1.2564 -0.1684
  759MOL0     H  177   9.034  10.144   0.343 -3.4299  0.0943 -0.4172
  759MOL0     H  178   9.316  10.434   0.152 -0.0750  1.6009  1.9617
  759MOL0     H  179   9.437  10.310   0.182 -1.7159 -0.3228 -1.2308
  759MOL0     H  180   9.354  10.527   0.349 -0.7289 -0.3746 -1.5859
  759MOL0     H  181   9.418  10.376   0.426 -4.5048 -0.5440  0.4827
  759MOL0     H  182   9.583  10.543   0.227  3.9008 -1.4226 -1.3976
  759MOL0     H  183   9.627  10.390   0.302 -0.8198 -0.2904  0.5455
  759MOL0     H  184   9.577  10.678   0.404  3.3387  1.4386 -0.8491
  759MOL0     H  185   9.573  10.554   0.534  2.2329  0.1809  0.1554
  759MOL0     H  186   9.977  10.636   0.415  0.6623 -1.1927  1.3718
  759MOL0     H  187   9.226  10.306  -0.011  0.4324  0.1394  0.9752
  759MOL0     H  188   9.024  10.268  -0.130  0.2964 -0.2993  0.0957
  760MOL0     O  189   0.591   0.877   9.638 -0.1701 -0.6638 -0.1977
  760MOL0     C  190   0.640   0.919   9.530  0.2384  0.1165 -0.5201
  760MOL0     O  191   0.570   0.959   9.425 -0.5564 -0.4220  0.0924
  760MOL0     C  192   0.429   0.969   9.429 -0.8004 -1.3553  0.0398
  760MOL0     C  193   0.366   0.949   9.306 -0.8603  0.8747 -0.7577
  760MOL0     C  194   0.230   0.977   9.292  0.4796 -0.0225 -0.3180
  760MOL0     C  195   0.147   1.004   9.401  0.1911  1.3099 -0.9425
  760MOL0     O  196   0.011   1.028   9.401 -0.5842 -0.6441  0.9352
  760MOL0     C  197  -0.065   0.977   9.287 -0.3060  0.1122 -0.5238
  760MOL0     C  198  -0.209   1.018   9.288  0.2233  0.3538  0.1708
  760MOL0     C  199  -0.291   0.965   9.172  0.2019  0.4001 -0.3441
  760MOL0     C  200  -0.419   1.042   9.140 -0.0657 -0.2589  0.9657
  760MOL0     C  201  -0.502   0.952   9.047 -0.4232  0.4514  0.6920
  760MOL0     C  202  -0.630   1.014   8.997  0.3224  0.1120  0.4503
  760MOL0     C  203  -0.614   1.134   8.903 -0.3335 -0.0144  1.0532
  760MOL0     C  204  -0.739   1.158   8.817 -0.5772  0.1248 -0.1195
  760MOL0     N  205  -0.845   1.191   8.907 -0.2186  0.0088  0.0671
  760MOL0     C  206  -0.952   1.106   8.934 -0.6849 -0.4784  0.2616
  760MOL0     C  207  -1.034   1.176   9.017  0.2584  0.1108  0.1839
  760MOL0     C  208  -1.155   1.120   9.088 -0.0252  0.6358 -0.1860
  760MOL0     C  209  -1.177   1.168   9.237 -0.3596  0.4320  0.2040
  760MOL0     C  210  -1.301   1.096   9.295 -0.2736  0.0208  0.2102
  760MOL0     C  211  -1.336   1.136   9.439 -0.4969 -0.3181  0.3734
  760MOL0     O  212  -1.433   1.250   9.441 -0.1224  0.3157 -0.3942
  760MOL0     C  213  -1.561   1.228   9.405  0.8355 -0.5849 -0.9324
  760MOL0     C  214  -1.643   1.346   9.368 -0.8105 -0.0404  0.2626
  760MOL0     C  215  -1.774   1.324   9.319 -0.2116 -0.2094  0.0441
  760MOL0     C  216  -1.826   1.202   9.305  0.4997  0.1674  0.2269
  760MOL0     C  217  -1.961   1.182   9.248  0.3511 -1.0035 -0.3979
  760MOL0     O  218  -2.050   1.290   9.246 -0.2446 -0.0987 -0.6414
  760MOL0     C  219  -2.176   1.267   9.198  0.2701  0.1185  0.8457
  760MOL0     C  220  -2.278   1.214   9.268  0.8621 -0.2956  0.2999
  760MOL0     C  221  -2.402   1.196   9.202  0.3405  0.3302 -0.3387
  760MOL0     C  222  -2.421   1.231   9.070 -0.9661 -0.3732 -0.9872
  760MOL0     O  223  -2.546   1.215   9.034  0.1157  0.8638  0.6167
  760MOL0     C  224  -2.565   1.184   8.897  0.4826  0.8738  0.1879
  760MOL0     C  225  -2.710   1.133   8.884  0.7352  1.0669 -0.1070
  760MOL0     C  226  -2.745   1.119   8.736  0.1630  0.6048  0.1506
  760MOL0     C  227  -2.877   1.047   8.709 -0.0259 -0.0871  0.1932
  760MOL0     C  228  -3.007   1.140   8.708  0.1285 -0.8643 -0.3610
  760MOL0     C  229  -3.127   1.045   8.691 -0.2729 -0.5426  0.2248
  760MOL0     C  230  -3.260   1.128   8.673 -0.1527 -0.1168 -0.3583
  760MOL0     C  231  -3.389   1.048   8.640  0.0559 -0.5226  0.6299
  760MOL0    Cl  232  -3.530   1.157   8.613 -0.1413 -0.1742 -0.0283
  760MOL0     C  233  -2.314   1.295   8.997 -0.6143  0.4487  0.6820
  760MOL0     C  234  -2.192   1.303   9.065  0.4732  0.5022  0.4126
  760MOL0     O  235  -1.974   1.080   9.191  0.4869  0.0577  0.7455
  760MOL0     C  236  -1.754   1.088   9.345 -0.2567 -0.4181  0.5769
  760MOL0     C  237  -1.621   1.102   9.395  0.6621  0.2560 -0.1280
  760MOL0     N  238  -0.988   1.308   9.022 -0.5420  0.3767  0.0987
  760MOL0     N  239  -0.883   1.310   8.950 -0.8028  0.1784  0.4074
  760MOL0     C  240   0.204   1.006   9.527  0.7820 -0.5611 -0.7420
  760MOL0     C  241   0.343   0.992   9.545 -0.2820 -0.2820 -0.1792
  760MOL0     C  242   0.785   0.934   9.524  0.0286  0.1762 -1.4511
  760MOL0     C  243   0.843   0.953   9.399 -0.5451  0.6084 -1.0982
  760MOL0     C  244   0.982   0.958   9.382 -0.3305  0.4010  0.4254
  760MOL0     C  245   1.068   0.934   9.483 -0.0901 -1.0121 -0.2153
  760MOL0     O  246   1.206   0.940   9.476  0.6586  0.1947 -0.0116
  760MOL0     C  247   1.257   1.031   9.388 -0.4680 -0.4250  0.6822
  760MOL0     C  248   1.393   1.094   9.439 -0.3379  0.6191  0.5190
  760MOL0     C  249   1.510   1.005   9.391 -0.8240  0.0986 -0.2923
  760MOL0     C  250   1.644   1.060   9.440  0.2791  0.1691  0.6871
  760MOL0     C  251   1.757   0.994   9.356 -0.2563 -0.6807 -0.1620
  760MOL0     C  252   1.840   0.936   9.289 -1.1270  0.0165 -0.0432
  760MOL0     C  253   1.011   0.912   9.613  0.1887 -0.1685  0.1883
  760MOL0     C  254   0.878   0.918   9.632 -0.1460 -0.7122  1.0185
  760MOL0     H  255   0.419   0.927   9.214 -1.4977 -0.8559 -0.7392
  760MOL0     H  256   0.176   0.963   9.199 -1.9188  1.8131  0.6835
  760MOL0     H  257  -0.059   0.868   9.286 -0.5732  0.0963 -1.0764
  760MOL0     H  258  -0.017   1.005   9.193  1.5360 -0.8325  0.0899
  760MOL0     H  259  -0.229   1.124   9.270 -0.1360  0.0163 -1.6323
  760MOL0     H  260  -0.255   0.979   9.380 -0.1792  0.0256 -0.1637
  760MOL0     H  261  -0.316   0.859   9.177  2.4694 -0.3419 -2.8149
  760MOL0     H  262  -0.230   0.960   9.081 -0.6417  1.0221 -0.9635
  760MOL0     H  263  -0.482   1.078   9.223  0.0971  1.4739  0.3942
  760MOL0     H  264  -0.383   1.132   9.088 -0.4933  0.9376  2.6254
  760MOL0     H  265  -0.536   0.866   9.106 -2.2909  1.2131  0.8001
  760MOL0     H  266  -0.445   0.916   8.961 -3.3208 -3.8582  0.2780
  760MOL0     H  267  -0.686   1.040   9.088 -0.6135  0.0610 -0.0990
  760MOL0     H  268  -0.680   0.931   8.947  3.4105 -1.5344 -0.1023
  760MOL0     H  269  -0.594   1.226   8.960  0.4535 -0.0795  0.8802
  760MOL0     H  270  -0.532   1.119   8.833  1.3358  4.0997  1.8052
  760MOL0     H  271  -0.760   1.070   8.755  0.9298 -0.1981 -0.2098
  760MOL0     H  272  -0.732   1.243   8.750  1.7363  0.5417  0.5408
  760MOL0     H  273  -0.966   1.000   8.914 -0.0856 -1.1209  2.8198
  760MOL0     H  274  -1.162   1.011   9.083  2.4372  0.3959  0.3394
  760MOL0     H  275  -1.248   1.158   9.046 -1.2214 -1.7867  0.1133
  760MOL0     H  276  -1.185   1.276   9.252 -1.4508 -0.0250  3.9225
  760MOL0     H  277  -1.090   1.140   9.297 -0.1613  0.5384 -0.0317
  760MOL0     H  278  -1.388   1.118   9.233 -2.0689  0.2000  2.6342
  760MOL0     H  279  -1.287   0.988   9.291  2.2996  0.2167  1.4330
  760MOL0     H  280  -1.251   1.162   9.503  2.0338 -3.2949 -1.4275
  760MOL0     H  281  -1.359   1.041   9.489  0.4350 -1.4388 -1.1950
  760MOL0     H  282  -1.601   1.446   9.380 -0.9961 -0.1879  2.4787
  760MOL0     H  283  -1.818   1.414   9.278 -0.0962 -0.0419  0.2820
  760MOL0     H  284  -2.255   1.198   9.373  1.5471  3.1771  0.7901
  760MOL0     H  285  -2.490   1.154   9.251  0.1228 -1.3660 -2.0437
  760MOL0     H  286  -2.499   1.110   8.851 -0.6884  0.3087 -0.6270
  760MOL0     H  287  -2.561   1.272   8.832  4.0714  0.4344 -0.4333
  760MOL0     H  288  -2.768   1.213   8.931  2.0793  1.4640  0.9286
  760MOL0     H  289  -2.722   1.038   8.937  0.4900  0.2544 -1.5528
  760MOL0     H  290  -2.670   1.050   8.695 -2.3064 -0.8129 -2.3087
  760MOL0     H  291  -2.754   1.218   8.690 -2.9451  0.8368  1.0343
  760MOL0     H  292  -2.878   1.006   8.608 -4.4629 -1.5803  0.6470
  760MOL0     H  293  -2.896   0.959   8.772  0.2230 -1.2641 -1.3050
  760MOL0     H  294  -2.995   1.221   8.635  1.8099  2.5855  3.3591
  760MOL0     H  295  -3.008   1.184   8.808 -0.5902 -0.4036 -0.5656
  760MOL0     H  296  -3.120   0.982   8.781  1.1964  0.4209  0.8255
  760MOL0     H  297  -3.120   0.984   8.601 -0.2387 -0.5293  0.2190
  760MOL0     H  298  -3.289   1.177   8.766 -1.8531  0.9688 -1.4012
  760MOL0     H  299  -3.254   1.204   8.595 -2.0321 -0.9451 -1.3738
  760MOL0     H  300  -3.413   0.969   8.712  0.0586 -1.1230 -0.0231
  760MOL0     H  301  -3.378   0.996   8.545  0.3147 -0.8461  0.8351
  760MOL0     H  302  -2.333   1.318   8.892  2.5988  0.9330  0.0842
  760MOL0     H  303  -2.105   1.345   9.015  0.4746  0.4231  0.3505
  760MOL0     H  304  -1.789   0.987   9.331  0.2747 -0.2137 -3.2594
  760MOL0     H  305  -1.570   1.007   9.400 -0.1255 -0.1069  1.5661
  760MOL0     H  306   0.143   1.042   9.609  2.8055 -0.6173  0.8488
  760MOL0     H  307   0.382   1.022   9.642 -2.0986  1.6121  0.0231
  760MOL0     H  308   0.784   0.978   9.312 -0.0201  0.1676 -1.5905
  760MOL0     H  309   1.016   0.984   9.283  2.2010 -2.2263  0.4649
  760MOL0     H  310   1.195   1.119   9.369  1.1202  0.6196  0.1193
  760MOL0     H  311   1.265   0.979   9.292 -3.8775  0.4235 -0.1748
  760MOL0     H  312   1.409   1.191   9.390 -4.0940  0.9385 -0.3430
  760MOL0     H  313   1.391   1.105   9.548  0.0728  0.9890  0.4923
  760MOL0     H  314   1.508   1.015   9.282 -0.6905 -0.2757 -0.3309
  760MOL0     H  315   1.496   0.899   9.412  2.6143 -0.8413 -1.9552
  760MOL0     H  316   1.638   1.167   9.422 -1.8913 -0.0150  0.0625
  760MOL0     H  317   1.656   1.032   9.545  0.3604 -2.5171  0.0584
  760MOL0     H  318   1.926   0.900   9.235 -1.5365 -0.6292 -0.2751
  760MOL0     H  319   1.082   0.907   9.696  1.1902  2.2731 -0.4242
  760MOL0     H  320   0.833   0.917   9.731 -0.8490  0.4373  0.7409
  761MOL0     O  321   7.154  10.714   2.289  0.1703 -0.0012 -0.7054
  761MOL0     C  322   7.166  10.624   2.373 -0.1698 -0.0726  0.0250
  761MOL0     O  323   7.056  10.566   2.433  0.0583  0.3921  0.6001
  761MOL0     C  324   6.931  10.564   2.387  0.9957  0.0356 -0.2683
  761MOL0     C  325   6.889  10.579   2.254  0.3307  0.1885 -0.2051
  761MOL0     C  326   6.750  10.580   2.226  0.3221  0.7845 -0.1670
  761MOL0     C  327   6.651  10.589   2.329  0.1023  0.4086 -0.7018
  761MOL0     O  328   6.516  10.600   2.306  0.2117 -0.4306 -0.3121
  761MOL0     C  329   6.467  10.492   2.223 -0.7716 -0.6405 -0.4771
  761MOL0     C  330   6.317  10.487   2.209 -0.3433 -0.3468  0.2434
  761MOL0     C  331   6.232  10.473   2.335  0.0486  0.1200 -0.3331
  761MOL0     C  332   6.085  10.460   2.297 -0.0029 -0.4215  0.0969
  761MOL0     C  333   6.002  10.494   2.419 -0.1579 -0.4682 -0.7316
  761MOL0     C  334   5.858  10.542   2.387  0.3938  0.3497  0.0978
  761MOL0     C  335   5.774  10.442   2.303 -0.1633  0.0890  0.5927
  761MOL0     C  336   5.739  10.311   2.373 -0.1190  0.1575  0.0196
  761MOL0     N  337   5.643  10.319   2.478  0.0309  0.5557 -0.3940
  761MOL0     C  338   5.531  10.399   2.485 -0.3886 -0.0915  0.2921
  761MOL0     C  339   5.482  10.370   2.605  0.1063 -0.8672 -0.6220
  761MOL0     C  340   5.349  10.428   2.650 -0.2804 -0.7653  0.1745
  761MOL0     C  341   5.226  10.351   2.605  0.9183 -0.6403 -0.2063
  761MOL0     C  342   5.094  10.418   2.646 -0.0232 -0.1533 -0.5762
  761MOL0     C  343   4.962  10.356   2.608 -0.6931  0.3900  0.6300
  761MOL0     O  344   4.853  10.447   2.636  0.6924  0.4342 -0.5614
  761MOL0     C  345   4.728  10.422   2.595  0.1402 -0.3120  0.7337
  761MOL0     C  346   4.642  10.530   2.597  0.7535 -0.3189 -0.0354
  761MOL0     C  347   4.509  10.511   2.566  0.1433  0.3253  0.0706
  761MOL0     C  348   4.462  10.394   2.507  0.3980  0.1245 -0.2857
  761MOL0     C  349   4.313  10.367   2.470  0.9063 -0.1635 -0.2928
  761MOL0     O  350   4.231  10.474   2.495 -0.8079 -0.3879  0.2112
  761MOL0     C  351   4.094  10.489   2.464  0.5458 -0.2117  0.2168
  761MOL0     C  352   4.003  10.383   2.457 -0.4104  0.7460 -0.3183
  761MOL0     C  353   3.869  10.401   2.436  0.0796 -0.2592  0.3952
  761MOL0     C  354   3.817  10.524   2.409  0.7328 -0.2968 -0.8461
  761MOL0     O  355   3.689  10.562   2.384  0.5210 -0.0774 -0.1252
  761MOL0     C  356   3.589  10.475   2.434 -0.9327  0.1559 -0.5279
  761MOL0     C  357   3.454  10.521   2.389  0.0450  0.1208 -0.1408
  761MOL0     C  358   3.353  10.418   2.437  0.1124 -0.7014  0.1974
  761MOL0     C  359   3.217  10.474   2.418  0.5470 -1.2744  0.1200
  761MOL0     C  360   3.118  10.382   2.496 -0.8751 -0.1660  0.3089
  761MOL0     C  361   2.979  10.452   2.494  0.3464 -0.2014  0.1763
  761MOL0     C  362   2.869  10.373   2.572  0.3035 -0.0493 -0.2871
  761MOL0     C  363   2.727  10.432   2.583 -0.2778  0.0637 -0.8472
  761MOL0    Cl  364   2.741  10.596   2.668  0.5255  0.2285 -0.3491
  761MOL0     C  365   3.907  10.635   2.415  0.3171  0.0441  0.8930
  761MOL0     C  366   4.044  10.620   2.440  0.0771  0.1285  0.0310
  761MOL0     O  367   4.276  10.268   2.410 -0.8233 -0.7949 -0.1086
  761MOL0     C  368   4.549  10.289   2.496 -0.5571 -0.3864 -0.1370
  761MOL0     C  369   4.677  10.305   2.542 -0.7146 -0.0274 -0.1992
  761MOL0     N  370   5.556  10.278   2.671 -0.3343 -0.3318  0.3092
  761MOL0     N  371   5.655  10.249   2.594 -0.9420  0.0643  0.9814
  761MOL0     C  372   6.696  10.594   2.457  0.4224  0.8906  0.8634
  761MOL0     C  373   6.833  10.574   2.484  0.0482  0.2619 -0.6073
  761MOL0     C  374   7.307  10.583   2.412 -0.2282 -0.4684  0.2349
  761MOL0     C  375   7.425  10.655   2.371 -0.2331  0.3202  0.0510
  761MOL0     C  376   7.544  10.610   2.423  0.0016  0.3232 -0.7736
  761MOL0     C  377   7.556  10.493   2.501  1.0570 -0.6399  0.2298
  761MOL0     O  378   7.673  10.453   2.556 -0.6729 -0.0973  0.1044
  761MOL0     C  379   7.796  10.518   2.510 -0.5579  0.0783 -0.4875
  761MOL0     C  380   7.920  10.449   2.563 -0.2056  0.3868 -0.4224
  761MOL0     C  381   7.965  10.341   2.462  0.2773  0.0803  0.6152
  761MOL0     C  382   7.869  10.225   2.457 -0.1199 -0.6758 -0.1645
  761MOL0     C  383   7.783  10.216   2.341  0.6433 -0.4368 -0.5271
  761MOL0     C  384   7.717  10.220   2.241 -0.8417  0.5689  0.8052
  761MOL0     C  385   7.442  10.425   2.542  0.6027  0.3321 -0.1995
  761MOL0     C  386   7.323  10.478   2.499  0.9149  0.1383  0.1532
  761MOL0     H  387   6.956  10.560   2.171  0.9902 -2.6869  0.8829
  761MOL0     H  388   6.723  10.578   2.121 -0.1712  1.0688 -0.0467
  761MOL0     H  389   6.498  10.394   2.262  1.0203  0.4220  0.8955
  761MOL0     H  390   6.509  10.506   2.123  0.7931  3.1953  0.5538
  761MOL0     H  391   6.297  10.409   2.135 -0.9534 -1.6220  1.6954
  761MOL0     H  392   6.285  10.578   2.157 -0.7541 -0.4536  0.3087
  761MOL0     H  393   6.265  10.560   2.393 -1.4756 -0.6135  1.7740
  761MOL0     H  394   6.253  10.385   2.397 -1.7884  1.2713  2.1226
  761MOL0     H  395   6.062  10.540   2.227  1.3578 -0.7048 -0.7113
  761MOL0     H  396   6.061  10.362   2.254 -1.5927  1.3859 -3.5064
  761MOL0     H  397   6.045  10.568   2.488 -2.5524 -2.1911  2.9260
  761MOL0     H  398   5.995  10.408   2.486  0.9816 -0.3239 -0.3922
  761MOL0     H  399   5.854  10.639   2.338 -1.4840  0.1574 -0.2024
  761MOL0     H  400   5.794  10.539   2.476 -1.8943 -2.6019 -1.4431
  761MOL0     H  401   5.678  10.486   2.272  0.5578  0.3244 -1.4420
  761MOL0     H  402   5.823  10.424   2.207  0.4670 -0.3739  0.9946
  761MOL0     H  403   5.837  10.275   2.405  2.0427  4.6365 -0.8413
  761MOL0     H  404   5.698  10.234   2.306  1.3260  0.2287 -0.9833
  761MOL0     H  405   5.485  10.465   2.412 -0.7156 -1.1011 -0.4343
  761MOL0     H  406   5.350  10.521   2.592 -1.5351 -2.1299 -2.1663
  761MOL0     H  407   5.355  10.451   2.757 -3.6594 -0.1297  0.3224
  761MOL0     H  408   5.235  10.250   2.647 -0.0628 -0.4494  0.4983
  761MOL0     H  409   5.227  10.339   2.497 -1.4666  0.0774 -0.3589
  761MOL0     H  410   5.107  10.442   2.752 -1.7342  0.4432 -0.4662
  761MOL0     H  411   5.087  10.516   2.597 -0.0821  1.0676  1.7471
  761MOL0     H  412   4.949  10.256   2.651 -1.2080 -0.8969 -2.2866
  761MOL0     H  413   4.969  10.335   2.501 -1.2760 -1.7720  0.9600
  761MOL0     H  414   4.679  10.629   2.617 -0.2427  0.7446 -2.8911
  761MOL0     H  415   4.433  10.586   2.587 -0.5259 -0.4707  0.5767
  761MOL0     H  416   4.036  10.281   2.474 -2.1804  0.1602 -0.1997
  761MOL0     H  417   3.801  10.317   2.427 -1.8198  1.3430 -0.8860
  761MOL0     H  418   3.595  10.483   2.543  2.5876  0.1939 -0.5848
  761MOL0     H  419   3.593  10.369   2.406  0.3109 -0.0708  0.4192
  761MOL0     H  420   3.460  10.525   2.280  0.9533  2.8913 -0.0656
  761MOL0     H  421   3.438  10.623   2.427 -3.5570 -0.2141 -0.3471
  761MOL0     H  422   3.366  10.390   2.542 -1.6427 -1.3724  0.2605
  761MOL0     H  423   3.372  10.327   2.379 -3.2996 -1.5880  0.2968
  761MOL0     H  424   3.206  10.576   2.456  0.3803 -1.8077  1.5536
  761MOL0     H  425   3.196  10.481   2.310  0.9092  2.4594  0.1539
  761MOL0     H  426   3.159  10.385   2.597  3.0418  0.5492 -1.1038
  761MOL0     H  427   3.117  10.280   2.456  1.4024 -1.0649  2.3058
  761MOL0     H  428   2.950  10.454   2.388 -1.3140 -1.0188  0.5794
  761MOL0     H  429   2.999  10.551   2.534  0.5982  0.3341 -1.2103
  761MOL0     H  430   2.853  10.268   2.543 -0.7045  0.2315 -0.7985
  761MOL0     H  431   2.902  10.368   2.676  2.9250  0.0218 -1.0418
  761MOL0     H  432   2.661  10.362   2.635  0.6038 -1.1117 -1.2652
  761MOL0     H  433   2.676  10.449   2.488 -0.4561 -2.7930 -1.3751
  761MOL0     H  434   3.867  10.734   2.396  0.9409  0.2006  0.3176
  761MOL0     H  435   4.109  10.707   2.445 -0.6101  0.7173 -0.9634
  761MOL0     H  436   4.521  10.192   2.455 -1.8924 -0.0040 -0.1696
  761MOL0     H  437   4.742  10.220   2.522  0.9969  0.4351  2.8827
  761MOL0     H  438   6.620  10.603   2.534  0.5647  1.9526  0.9042
  761MOL0     H  439   6.874  10.570   2.584  1.8447  0.3154 -1.2884
  761MOL0     H  440   7.432  10.743   2.308  1.7972  0.4495  0.3739
  761MOL0     H  441   7.637  10.660   2.400 -0.2414  0.8730 -0.5924
  761MOL0     H  442   7.787  10.620   2.549 -1.3835 -0.9212  2.1673
  761MOL0     H  443   7.810  10.527   2.402  4.8251  1.4777  0.0418
  761MOL0     H  444   8.004  10.518   2.549  0.5765 -0.7624 -1.6024
  761MOL0     H  445   7.901  10.418   2.667 -2.2888 -0.2726 -0.9534
  761MOL0     H  446   8.060  10.295   2.490  0.1810  0.0456  0.8950
  761MOL0     H  447   7.964  10.387   2.363 -2.9659 -0.3991  0.2990
  761MOL0     H  448   7.920  10.130   2.479 -2.0909 -1.6271  0.5012
  761MOL0     H  449   7.795  10.237   2.537  2.6479  1.1624  2.3415
  761MOL0     H  450   7.664  10.217   2.149  3.8814 -0.0379 -2.2489
  761MOL0     H  451   7.452  10.336   2.604 -1.0789 -0.1228 -0.5400
  761MOL0     H  452   7.246  10.409   2.533 -1.8778  1.0339 -3.6108
  762MOL0     O  453   5.513   8.082   4.216 -0.3969  0.9370 -0.7870
  762MOL0     C  454   5.599   8.026   4.151  0.2819  0.4956 -0.6641
  762MOL0     O  455   5.600   8.020   4.017 -0.6503 -0.2238  0.4454
  762MOL0     C  456   5.489   8.056   3.952  0.7094  0.0781  0.6923
  762MOL0     C  457   5.465   8.190   3.933 -0.2278 -0.3655  0.0665
  762MOL0     C  458   5.354   8.236   3.858 -1.0708  0.5439 -0.5477
  762MOL0     C  459   5.255   8.150   3.814 -0.3421 -0.0469  0.4415
  762MOL0     O  460   5.145   8.172   3.745  0.2131  0.5866  0.4362
  762MOL0     C  461   5.100   8.312   3.722  0.0687 -0.8183 -0.2871
  762MOL0     C  462   5.000   8.335   3.606 -0.1384  0.2348 -0.2628
  762MOL0     C  463   4.963   8.483   3.612 -0.9221 -0.0707  0.5212
  762MOL0     C  464   4.866   8.523   3.498  0.3378 -0.4246 -0.6326
  762MOL0     C  465   4.854   8.677   3.465  0.4364  0.3895  0.6138
  762MOL0     C  466   4.776   8.703   3.338 -0.1293 -0.0692  0.4847
  762MOL0     C  467   4.618   8.695   3.359  0.2795  0.0838 -0.1330
  762MOL0     C  468   4.552   8.707   3.222 -0.6210  0.3533 -0.1160
  762MOL0     N  469   4.411   8.686   3.241 -0.0029 -0.7060  0.3337
  762MOL0     C  470   4.347   8.568   3.215 -0.5365 -0.1196  0.0082
  762MOL0     C  471   4.214   8.590   3.231  0.0342  1.0590  0.5342
  762MOL0     C  472   4.108   8.493   3.215  0.1326 -0.2032 -0.2908
  762MOL0     C  473   4.143   8.388   3.107  0.2436 -0.5296 -0.4556
  762MOL0     C  474   4.019   8.284   3.098 -0.0197  0.2223 -0.5836
  762MOL0     C  475   4.031   8.187   2.985  0.2092  0.1935  0.0489
  762MOL0     O  476   3.922   8.095   2.984  0.1893 -0.0520  0.3178
  762MOL0     C  477   3.793   8.131   2.949  0.4179 -0.6496  0.2612
  762MOL0     C  478   3.750   8.254   2.891  0.0763 -0.1607  0.7353
  762MOL0     C  479   3.618   8.278   2.864  0.0063 -0.0623 -0.5923
  762MOL0     C  480   3.522   8.182   2.883  0.3617  0.3979 -0.4812
  762MOL0     C  481   3.382   8.223   2.870  0.7713 -0.1064 -0.0492
  762MOL0     O  482   3.290   8.122   2.893  0.0562 -0.0568 -0.4445
  762MOL0     C  483   3.157   8.144   2.891 -0.3256  0.3124  0.4779
  762MOL0     C  484   3.086   8.251   2.829 -0.2191 -0.1044  0.8560
  762MOL0     C  485   2.952   8.278   2.860 -0.8041 -0.2756  0.4793
  762MOL0     C  486   2.878   8.184   2.934 -0.7098  0.9934 -0.2232
  762MOL0     O  487   2.741   8.192   2.953 -0.4346  0.1822  0.7213
  762MOL0     C  488   2.667   8.290   2.876  0.2867  0.7420 -0.4685
  762MOL0     C  489   2.647   8.242   2.731  0.2613  0.7039 -0.0251
  762MOL0     C  490   2.511   8.277   2.671 -0.0300 -0.3336 -0.6267
  762MOL0     C  491   2.500   8.231   2.532 -1.4384  0.2031 -0.0581
  762MOL0     C  492   2.373   8.281   2.460 -0.4353 -0.9991 -0.2739
  762MOL0     C  493   2.371   8.260   2.309  0.1328  0.5732 -0.1137
  762MOL0     C  494   2.278   8.354   2.234 -0.6574  0.6484  0.7157
  762MOL0     C  495   2.123   8.332   2.227 -0.4150  0.3699  0.0428
  762MOL0    Cl  496   2.085   8.199   2.113 -0.3632 -0.2341  0.4369
  762MOL0     C  497   2.952   8.065   2.980 -0.0644  0.4192 -1.2784
  762MOL0     C  498   3.091   8.049   2.968 -0.1867 -0.2918  0.7222
  762MOL0     O  499   3.353   8.340   2.857  0.1024 -0.3915  0.4085
  762MOL0     C  500   3.566   8.050   2.921 -0.0991  0.0996  0.5611
  762MOL0     C  501   3.695   8.028   2.955 -0.4215 -1.3980 -0.6727
  762MOL0     N  502   4.197   8.722   3.262  0.0152  0.3880 -0.1819
  762MOL0     N  503   4.313   8.781   3.265 -0.1621 -0.3294  0.2698
  762MOL0     C  504   5.290   8.021   3.835 -0.9777  0.2480 -1.4132
  762MOL0     C  505   5.393   7.972   3.907 -0.0903 -0.1885  0.5323
  762MOL0     C  506   5.722   7.976   4.226  1.2473  0.1233 -0.7991
  762MOL0     C  507   5.738   8.002   4.363  0.2327 -0.1499  0.4999
  762MOL0     C  508   5.853   7.968   4.430  1.0231  0.8196 -0.3577
  762MOL0     C  509   5.964   7.913   4.358 -0.5525 -0.0123 -0.9167
  762MOL0     O  510   6.075   7.888   4.435 -0.0500 -0.7232 -0.0578
  762MOL0     C  511   6.198   7.836   4.371  0.5708 -0.1801  0.0351
  762MOL0     C  512   6.284   7.962   4.338 -0.5730  0.6192  0.7002
  762MOL0     C  513   6.430   7.916   4.317  0.0659 -0.0774 -0.7345
  762MOL0     C  514   6.461   7.853   4.183 -0.1311  0.6711  0.1970
  762MOL0     C  515   6.605   7.833   4.167 -0.3691  0.7369 -0.2639
  762MOL0     C  516   6.725   7.810   4.150  0.3303  0.5530 -0.1200
  762MOL0     C  517   5.956   7.897   4.218  0.0054 -0.0118  0.0162
  762MOL0     C  518   5.829   7.911   4.158 -0.1119  0.2806 -0.0740
  762MOL0     H  519   5.530   8.274   3.955  1.4060 -1.1413 -1.5284
  762MOL0     H  520   5.336   8.343   3.852 -1.1030  0.5689 -0.0800
  762MOL0     H  521   5.181   8.377   3.690 -0.9545  1.4850  1.4474
  762MOL0     H  522   5.071   8.364   3.814  3.7819  0.4628  0.3134
  762MOL0     H  523   4.905   8.282   3.611 -0.3561  0.6771  0.3644
  762MOL0     H  524   5.050   8.308   3.513 -0.0941 -0.4706 -0.0410
  762MOL0     H  525   5.054   8.543   3.613 -1.0508  0.1151  1.5018
  762MOL0     H  526   4.923   8.506   3.711  1.7753  0.1167  1.6436
  762MOL0     H  527   4.910   8.493   3.403  0.4692 -0.5887 -0.5200
  762MOL0     H  528   4.767   8.477   3.504  1.1836 -2.2563  0.0346
  762MOL0     H  529   4.956   8.716   3.455  0.0368  1.3975  0.2879
  762MOL0     H  530   4.809   8.724   3.553  0.0319  2.8083 -0.7911
  762MOL0     H  531   4.817   8.644   3.256 -0.1084  1.3354 -0.5441
  762MOL0     H  532   4.788   8.805   3.300 -0.6757 -0.5719 -1.1149
  762MOL0     H  533   4.583   8.612   3.420 -1.3960  1.1630  0.4601
  762MOL0     H  534   4.589   8.786   3.413  0.9887  0.6799 -0.7383
  762MOL0     H  535   4.587   8.632   3.151  0.5889 -0.0634  0.8887
  762MOL0     H  536   4.564   8.806   3.177 -0.5658 -0.4704 -1.9927
  762MOL0     H  537   4.395   8.472   3.197  0.0432 -0.3177  2.3004
  762MOL0     H  538   4.015   8.543   3.187 -0.1788 -0.3029  0.5209
  762MOL0     H  539   4.097   8.439   3.310  3.2412 -2.1726 -0.9190
  762MOL0     H  540   4.236   8.336   3.129  1.4443  1.1859 -1.3264
  762MOL0     H  541   4.159   8.441   3.013 -0.8461 -1.0388 -0.9505
  762MOL0     H  542   4.009   8.228   3.192  0.4873  0.2998 -0.4837
  762MOL0     H  543   3.931   8.347   3.084  0.3760  0.8127 -0.4475
  762MOL0     H  544   4.114   8.117   2.993 -0.9086 -1.2435 -0.4233
  762MOL0     H  545   4.053   8.241   2.893 -0.3875  0.8686  0.2874
  762MOL0     H  546   3.828   8.330   2.884  1.1899 -1.3493 -0.3364
  762MOL0     H  547   3.585   8.377   2.835 -0.4733 -0.4826 -1.4923
  762MOL0     H  548   3.132   8.324   2.763 -0.4766  0.0466  0.8419
  762MOL0     H  549   2.906   8.360   2.805 -0.6720  0.5775  1.5974
  762MOL0     H  550   2.714   8.388   2.883  0.2104  0.7418  0.1715
  762MOL0     H  551   2.563   8.295   2.911  0.1512 -0.1314 -0.7183
  762MOL0     H  552   2.659   8.134   2.739 -0.7525  0.6980  3.2871
  762MOL0     H  553   2.723   8.288   2.667  0.7464  0.0505  0.0752
  762MOL0     H  554   2.508   8.384   2.692 -0.4090 -0.8368  2.3064
  762MOL0     H  555   2.428   8.224   2.719 -0.5573 -0.3707 -1.5562
  762MOL0     H  556   2.591   8.263   2.482 -0.7484  2.7123  2.5147
  762MOL0     H  557   2.487   8.122   2.534 -2.0202  0.2739  0.8840
  762MOL0     H  558   2.358   8.388   2.478  0.6005 -1.3388  3.2608
  762MOL0     H  559   2.291   8.223   2.502  0.6674 -1.5413  1.2243
  762MOL0     H  560   2.358   8.152   2.293 -1.0196  0.4360  1.5236
  762MOL0     H  561   2.473   8.271   2.269  0.2894  0.4388  0.2441
  762MOL0     H  562   2.301   8.458   2.258 -0.0119  1.7499 -3.6617
  762MOL0     H  563   2.308   8.348   2.128 -3.0177  0.7522 -0.0060
  762MOL0     H  564   2.066   8.420   2.194 -2.0004 -0.2439  0.9902
  762MOL0     H  565   2.094   8.309   2.330  1.6795 -0.8787  0.3949
  762MOL0     H  566   2.890   7.987   3.023 -0.8917  0.4084 -2.4550
  762MOL0     H  567   3.150   7.971   3.015  0.1152  0.1520  1.0832
  762MOL0     H  568   3.497   7.966   2.926 -1.4381  1.2197  2.4127
  762MOL0     H  569   3.721   7.928   2.990  0.1374 -0.8402  0.5902
  762MOL0     H  570   5.218   7.949   3.797  0.1241 -0.9072 -1.3756
  762MOL0     H  571   5.409   7.864   3.909  0.9393 -0.0746 -0.3990
  762MOL0     H  572   5.654   8.057   4.405 -0.5713 -0.4439 -0.6880
  762MOL0     H  573   5.860   7.987   4.537  2.2790 -2.1859  0.1939
  762MOL0     H  574   6.194   7.769   4.285  0.4796 -2.9518  2.0898
  762MOL0     H  575   6.252   7.784   4.450 -0.9261  1.6033  2.3686
  762MOL0     H  576   6.253   8.014   4.247  0.9225  2.0228  0.9492
  762MOL0     H  577   6.268   8.031   4.421  2.5986  2.8229 -0.3112
  762MOL0     H  578   6.454   7.843   4.395 -3.3005 -2.0478 -1.3574
  762MOL0     H  579   6.484   8.011   4.319 -2.2628  1.3133  0.6903
  762MOL0     H  580   6.409   7.757   4.173  0.4774  0.5077 -1.9132
  762MOL0     H  581   6.417   7.920   4.109  1.6063  1.7773  0.1250
  762MOL0     H  582   6.827   7.778   4.138 -0.7778 -4.2781  1.0359
  762MOL0     H  583   6.042   7.861   4.162  1.6334  0.0457  2.3425
  762MOL0     H  584   5.809   7.911   4.051 -1.7958  1.6588  0.1881
  763MOL0     O  585   5.176   7.591   9.498 -0.2523 -0.3826  0.0164
  763MOL0     C  586   5.246   7.656   9.417 -0.2184  0.8366 -0.7325
  763MOL0     O  587   5.194   7.710   9.308 -0.0923 -0.3720 -0.4114
  763MOL0     C  588   5.062   7.676   9.269 -1.1619 -0.4785  0.5075
  763MOL0     C  589   4.973   7.785   9.256 -1.3846 -0.0004  0.6770
  763MOL0     C  590   4.837   7.762   9.233 -0.1841 -0.6827  1.2900
  763MOL0     C  591   4.788   7.631   9.217 -1.1580 -0.8515  0.2985
  763MOL0     O  592   4.655   7.627   9.194  0.9380 -0.2886 -0.4367
  763MOL0     C  593   4.581   7.503   9.179  0.0461  0.7535  1.3810
  763MOL0     C  594   4.430   7.529   9.162  0.0288 -0.0904  0.2222
  763MOL0     C  595   4.347   7.406   9.159  0.8228 -0.0497  0.2403
  763MOL0     C  596   4.201   7.433   9.145  0.2109 -0.3055  0.7799
  763MOL0     C  597   4.129   7.297   9.147  0.0204 -0.0989 -0.2641
  763MOL0     C  598   3.984   7.311   9.097  0.4411  0.4024 -0.7122
  763MOL0     C  599   3.881   7.240   9.191 -0.3134  0.1632  0.7550
  763MOL0     C  600   3.750   7.222   9.116 -0.1471 -0.6685  0.2829
  763MOL0     N  601   3.763   7.155   8.979 -0.0427  0.0363 -0.6288
  763MOL0     C  602   3.835   7.040   8.949  0.1723 -0.3295  0.5560
  763MOL0     C  603   3.832   7.037   8.814  0.4134 -0.2059  0.2282
  763MOL0     C  604   3.890   6.930   8.719 -0.2555  0.1016 -0.7015
  763MOL0     C  605   3.792   6.836   8.659 -0.0025 -0.0765 -0.2265
  763MOL0     C  606   3.855   6.718   8.595 -0.0194  0.4422  0.3812
  763MOL0     C  607   3.794   6.581   8.630  0.9979 -0.0761  0.1614
  763MOL0     O  608   3.661   6.586   8.578  1.0404 -0.1664 -0.3656
  763MOL0     C  609   3.573   6.487   8.610  0.0974 -0.4021  0.1234
  763MOL0     C  610   3.590   6.383   8.701  0.7667 -0.0052  0.2854
  763MOL0     C  611   3.477   6.293   8.736 -0.0311  0.1354  0.0421
  763MOL0     C  612   3.357   6.309   8.664  0.5651 -0.0621  0.1087
  763MOL0     C  613   3.241   6.215   8.685 -0.8432  0.5021  0.1431
  763MOL0     O  614   3.251   6.128   8.797  0.3823  0.7689  0.5321
  763MOL0     C  615   3.152   6.037   8.825 -0.2973  0.4457  0.2305
  763MOL0     C  616   3.017   6.062   8.852 -0.7425 -0.4715  0.1539
  763MOL0     C  617   2.934   5.958   8.887  0.1397 -0.2141  0.2902
  763MOL0     C  618   2.979   5.829   8.894 -0.4368  0.1166  0.3999
  763MOL0     O  619   2.895   5.723   8.901 -0.4013 -0.1026  0.1919
  763MOL0     C  620   2.805   5.703   8.789  0.4090  0.0646  0.0837
  763MOL0     C  621   2.718   5.575   8.806 -0.4628  0.7768  0.1933
  763MOL0     C  622   2.621   5.599   8.926  0.4400 -0.4094 -0.1480
  763MOL0     C  623   2.491   5.530   8.905 -0.0859 -0.1741  0.1236
  763MOL0     C  624   2.397   5.577   9.016  0.9494  0.3494 -0.1067
  763MOL0     C  625   2.263   5.509   8.993  0.3638 -0.3070  0.4082
  763MOL0     C  626   2.169   5.547   9.109 -1.3213 -0.3313 -0.8601
  763MOL0     C  627   2.036   5.466   9.078 -0.4301 -0.4033  0.2810
  763MOL0    Cl  628   2.066   5.288   9.060  0.0785 -0.0996  0.0258
  763MOL0     C  629   3.117   5.802   8.870 -0.0082  0.1261  0.1444
  763MOL0     C  630   3.205   5.907   8.839  0.4152 -0.3638  0.1420
  763MOL0     O  631   3.149   6.212   8.598 -0.4720  0.2198 -0.7522
  763MOL0     C  632   3.349   6.410   8.565 -0.7876  0.0419  0.4208
  763MOL0     C  633   3.452   6.503   8.546  0.5115  0.1853 -0.4127
  763MOL0     N  634   3.767   7.153   8.759 -0.3889 -0.3313  0.1458
  763MOL0     N  635   3.737   7.230   8.868 -0.0777 -0.5517  0.2508
  763MOL0     C  636   4.879   7.526   9.210  0.7672 -0.4735  0.2105
  763MOL0     C  637   5.017   7.551   9.239  0.4956 -0.0517  0.4289
  763MOL0     C  638   5.388   7.691   9.453 -0.0234 -0.0063  0.3699
  763MOL0     C  639   5.447   7.631   9.567  0.1229 -0.5263  0.4546
  763MOL0     C  640   5.568   7.685   9.613 -0.0711  0.5381  0.5186
  763MOL0     C  641   5.636   7.789   9.542  0.1994 -0.4975 -0.2501
  763MOL0     O  642   5.752   7.846   9.572  0.2069 -0.1853 -0.5073
  763MOL0     C  643   5.812   7.830   9.704  0.2429 -0.7875  0.1052
  763MOL0     C  644   5.913   7.941   9.725 -0.1249  0.7055 -0.4849
  763MOL0     C  645   6.039   7.911   9.653 -0.9610 -0.0129  0.7204
  763MOL0     C  646   6.142   8.031   9.653  0.5814  0.9107 -0.5909
  763MOL0     C  647   6.279   7.983   9.617  0.0823 -0.7636  0.3741
  763MOL0     C  648   6.390   7.933   9.606 -0.2505  0.2181 -0.2664
  763MOL0     C  649   5.580   7.836   9.428  0.1534  0.2035  1.0939
  763MOL0     C  650   5.459   7.779   9.384 -0.6890  0.4533 -0.2007
  763MOL0     H  651   5.013   7.885   9.268 -0.2850 -0.3668  0.2364
  763MOL0     H  652   4.774   7.851   9.227  0.1666 -0.4716  0.6315
  763MOL0     H  653   4.599   7.440   9.266  4.5157 -2.0400 -1.1717
  763MOL0     H  654   4.607   7.451   9.086  0.8082 -0.7782  2.4087
  763MOL0     H  655   4.426   7.589   9.070  3.2198 -0.0812 -0.0252
  763MOL0     H  656   4.397   7.586   9.249 -1.0023  0.1376 -0.3073
  763MOL0     H  657   4.367   7.342   9.245 -2.8524  1.5231  2.4569
  763MOL0     H  658   4.388   7.358   9.069  0.5512 -0.2159  0.2043
  763MOL0     H  659   4.170   7.510   9.216  1.8330  1.8498 -0.7459
  763MOL0     H  660   4.175   7.470   9.045  2.0162 -2.0869 -0.4282
  763MOL0     H  661   4.134   7.261   9.250  2.5005 -1.3990 -0.7648
  763MOL0     H  662   4.179   7.217   9.092  0.9894 -0.1007  0.5962
  763MOL0     H  663   3.984   7.274   8.994  0.0181 -0.8648 -0.2705
  763MOL0     H  664   3.949   7.414   9.107 -0.9518 -0.0133 -1.0395
  763MOL0     H  665   3.916   7.143   9.227 -1.3693  0.0934  1.6530
  763MOL0     H  666   3.870   7.300   9.283  1.0071  0.4969  0.7231
  763MOL0     H  667   3.705   7.322   9.112 -0.2406 -0.7153  0.1770
  763MOL0     H  668   3.691   7.155   9.179  0.2401 -2.1240 -0.8430
  763MOL0     H  669   3.888   6.974   9.017 -1.2696 -1.8819  0.2314
  763MOL0     H  670   3.962   6.876   8.781  1.8523  1.5412 -1.7646
  763MOL0     H  671   3.944   6.986   8.642 -1.8901  1.3314 -1.0125
  763MOL0     H  672   3.730   6.893   8.589  0.4094  1.8528  0.9210
  763MOL0     H  673   3.727   6.797   8.737 -1.0933 -0.8492 -1.4740
  763MOL0     H  674   3.835   6.724   8.488  2.2058  2.7281  0.0164
  763MOL0     H  675   3.960   6.717   8.623  0.5297 -0.0411 -1.5321
  763MOL0     H  676   3.791   6.562   8.737 -1.5245 -2.4468 -0.2121
  763MOL0     H  677   3.862   6.505   8.589  3.4212  0.9996  1.8873
  763MOL0     H  678   3.684   6.377   8.755 -0.3383  2.4210  2.7107
  763MOL0     H  679   3.490   6.217   8.813 -4.6703  0.6177  1.6185
  763MOL0     H  680   2.983   6.165   8.843  1.2321  0.1377 -0.9226
  763MOL0     H  681   2.827   5.979   8.884  0.0385 -0.7868 -0.6594
  763MOL0     H  682   2.861   5.681   8.697  0.1650  1.0400 -0.3102
  763MOL0     H  683   2.740   5.790   8.776  0.8700  0.7175  1.8481
  763MOL0     H  684   2.783   5.489   8.822  0.3884  0.9879 -1.8481
  763MOL0     H  685   2.660   5.548   8.717 -0.3799 -0.9669  0.6309
  763MOL0     H  686   2.607   5.708   8.929  0.5178 -0.4218  2.6925
  763MOL0     H  687   2.649   5.571   9.027 -1.2607  1.5338  0.9337
  763MOL0     H  688   2.454   5.565   8.808  2.4815  3.3062  0.1986
  763MOL0     H  689   2.513   5.423   8.908  0.2440 -0.1898 -1.7704
  763MOL0     H  690   2.375   5.684   9.021 -2.4811 -0.2074 -0.5448
  763MOL0     H  691   2.432   5.541   9.113 -1.2892  0.4864  0.8226
  763MOL0     H  692   2.286   5.402   8.990  4.8829  0.4900 -0.2399
  763MOL0     H  693   2.232   5.542   8.893  1.2061 -1.6359 -0.3145
  763MOL0     H  694   2.222   5.512   9.198 -1.6562  0.9747 -0.1157
  763MOL0     H  695   2.155   5.655   9.122 -0.2047 -0.2634 -0.0943
  763MOL0     H  696   1.988   5.499   8.986 -0.5165 -2.2038 -0.3545
  763MOL0     H  697   1.962   5.476   9.159 -2.0771  0.4073 -1.2642
  763MOL0     H  698   3.149   5.698   8.866 -1.0317 -0.1505 -2.6886
  763MOL0     H  699   3.311   5.891   8.822  0.4370 -0.1059  0.0420
  763MOL0     H  700   3.258   6.415   8.505 -0.8199  0.6509  0.5181
  763MOL0     H  701   3.434   6.591   8.485 -3.0840  0.0871  0.2574
  763MOL0     H  702   4.838   7.427   9.194  0.1937 -0.0487 -1.1126
  763MOL0     H  703   5.089   7.469   9.243  0.3567 -0.5477 -3.5926
  763MOL0     H  704   5.393   7.551   9.615  1.6755 -1.2616  1.0389
  763MOL0     H  705   5.611   7.652   9.707  0.8531  0.2421  0.0126
  763MOL0     H  706   5.857   7.733   9.728  1.6548 -0.1788  0.0525
  763MOL0     H  707   5.736   7.857   9.778 -2.2221 -1.5793 -2.0148
  763MOL0     H  708   5.873   8.036   9.689 -2.1686  0.0726  0.0312
  763MOL0     H  709   5.930   7.951   9.832  1.0459 -2.3690 -0.2522
  763MOL0     H  710   6.009   7.900   9.549 -0.7038 -2.6387  0.8581
  763MOL0     H  711   6.084   7.814   9.677 -0.8474 -0.4232 -1.0456
  763MOL0     H  712   6.116   8.113   9.585  1.0446  0.8110 -0.8961
  763MOL0     H  713   6.137   8.058   9.759 -1.5274  0.7561 -0.6162
  763MOL0     H  714   6.483   7.888   9.581 -1.1538 -0.1447 -3.5195
  763MOL0     H  715   5.618   7.915   9.365 -1.8500  1.7468  1.6977
  763MOL0     H  716   5.415   7.827   9.297  2.5568 -0.1355 -2.3255
  764MOL0     O  717   4.091   8.590   1.833 -0.3557  0.0298  0.3057
  764MOL0     C  718   4.176   8.678   1.829 -0.1212  0.0512  0.5791
  764MOL0     O  719   4.150   8.819   1.806  0.0320  0.2397 -0.7000
  764MOL0     C  720   4.033   8.882   1.777  0.3158 -0.0214  0.2019
  764MOL0     C  721   4.024   9.025   1.802  0.3162  0.2808 -0.4358
  764MOL0     C  722   3.897   9.086   1.775 -0.4223  0.5623 -0.6946
  764MOL0     C  723   3.787   9.011   1.735  0.2257  0.5240 -0.0582
  764MOL0     O  724   3.665   9.077   1.723 -0.0891  0.1569 -0.1845
  764MOL0     C  725   3.567   9.021   1.807  0.7205 -0.0537  0.0982
  764MOL0     C  726   3.584   9.091   1.947 -0.0363 -0.2759  0.1324
  764MOL0     C  727   3.527   9.229   1.953 -0.3277  0.1968 -0.0206
  764MOL0     C  728   3.373   9.242   1.928  0.0849  0.1949  0.0408
  764MOL0     C  729   3.332   9.383   1.957 -0.0446  0.0817  0.1453
  764MOL0     C  730   3.182   9.392   1.964 -0.1874  0.5537  0.1700
  764MOL0     C  731   3.137   9.543   1.954 -0.2637  0.1934 -0.4862
  764MOL0     C  732   2.982   9.547   1.963  1.2661 -0.5168 -0.2531
  764MOL0     N  733   2.914   9.525   2.097 -0.0168  0.6566  0.0832
  764MOL0     C  734   2.898   9.403   2.159 -0.2709  0.4822  0.3188
  764MOL0     C  735   2.851   9.433   2.282  0.0665  0.2266  0.2801
  764MOL0     C  736   2.834   9.343   2.399 -0.1832 -0.2185  0.4779
  764MOL0     C  737   2.764   9.410   2.518 -0.9251  0.1036 -0.2725
  764MOL0     C  738   2.619   9.453   2.508 -0.0676  0.5045  0.1875
  764MOL0     C  739   2.560   9.464   2.652 -0.1183 -0.4607 -0.1144
  764MOL0     O  740   2.423   9.495   2.635  0.4298  0.1960 -0.1841
  764MOL0     C  741   2.342   9.479   2.743 -0.7733  0.2936 -0.4534
  764MOL0     C  742   2.394   9.459   2.872 -0.2532  0.5503  0.2328
  764MOL0     C  743   2.309   9.450   2.990 -0.6932 -0.3987  0.2320
  764MOL0     C  744   2.167   9.470   2.975 -0.1323 -0.6413  0.7396
  764MOL0     C  745   2.078   9.449   3.089 -0.6384 -1.1985 -0.7817
  764MOL0     O  746   1.948   9.485   3.075 -0.6650  0.3946  0.0042
  764MOL0     C  747   1.862   9.493   3.182  0.0998  0.4324  0.1483
  764MOL0     C  748   1.735   9.437   3.172  0.1191 -0.5893  0.1864
  764MOL0     C  749   1.643   9.444   3.283 -0.4624  0.1844 -0.0642
  764MOL0     C  750   1.682   9.503   3.408  0.1398  0.4834  0.4098
  764MOL0     O  751   1.592   9.499   3.506  0.6478  0.4819 -0.4504
  764MOL0     C  752   1.635   9.495   3.644 -0.5583  1.1170 -0.1784
  764MOL0     C  753   1.515   9.491   3.736 -0.0523  0.1318 -0.5638
  764MOL0     C  754   1.428   9.616   3.744 -0.4311  0.1757 -0.9417
  764MOL0     C  755   1.309   9.585   3.839  0.7657 -0.7860 -0.3044
  764MOL0     C  756   1.212   9.701   3.844  0.3353 -1.3211  0.0707
  764MOL0     C  757   1.111   9.696   3.953  0.9455  0.1748 -0.1506
  764MOL0     C  758   1.020   9.823   3.973  0.1827  0.5346 -0.3620
  764MOL0     C  759   1.068   9.928   4.072  0.1851  0.6141  0.0490
  764MOL0    Cl  760   0.947  10.052   4.077 -0.4615  0.4742 -0.2166
  764MOL0     C  761   1.808   9.551   3.415 -0.2277  0.3605 -0.2210
  764MOL0     C  762   1.896   9.550   3.306 -0.4179  0.4712  0.0294
  764MOL0     O  763   2.126   9.395   3.193 -0.1453  0.0103  0.5008
  764MOL0     C  764   2.119   9.497   2.845 -1.0523 -0.2799  0.0632
  764MOL0     C  765   2.204   9.498   2.735  0.1973 -0.0372 -0.4761
  764MOL0     N  766   2.839   9.573   2.292 -0.1533  0.3490  0.5922
  764MOL0     N  767   2.882   9.624   2.184  0.0261  0.3185  0.3836
  764MOL0     C  768   3.802   8.877   1.706 -0.2550 -0.2415  0.2923
  764MOL0     C  769   3.923   8.817   1.723  0.3949  0.5554 -0.0787
  764MOL0     C  770   4.315   8.635   1.849  0.1155  0.4881  0.4292
  764MOL0     C  771   4.415   8.739   1.856  0.8510  0.2949  0.0535
  764MOL0     C  772   4.542   8.712   1.882 -0.8968  0.6745 -0.8453
  764MOL0     C  773   4.585   8.582   1.898 -0.6256  0.7025 -1.0100
  764MOL0     O  774   4.719   8.543   1.917  0.3718 -0.4278 -0.5405
  764MOL0     C  775   4.756   8.536   2.056 -0.2618  0.8772 -0.0613
  764MOL0     C  776   4.796   8.401   2.108  0.0865 -0.5572  0.0203
  764MOL0     C  777   4.919   8.327   2.040 -0.1984  0.9382 -0.1164
  764MOL0     C  778   5.053   8.404   2.066  0.0973 -0.4867 -0.2528
  764MOL0     C  779   5.163   8.329   2.003 -0.0273 -1.1871 -0.6996
  764MOL0     C  780   5.237   8.256   1.947 -0.3565  0.2256  0.0951
  764MOL0     C  781   4.491   8.477   1.891 -0.6889 -0.3294  0.6034
  764MOL0     C  782   4.352   8.498   1.872  0.3849 -0.0472  0.7675
  764MOL0     H  783   4.115   9.075   1.835  1.0468 -1.6251  0.6523
  764MOL0     H  784   3.884   9.193   1.783  1.0091  0.6400  2.0088
  764MOL0     H  785   3.577   8.912   1.812 -2.8712 -0.7089 -2.6896
  764MOL0     H  786   3.465   9.028   1.769 -0.2881 -4.1473  1.5254
  764MOL0     H  787   3.688   9.101   1.981 -0.7671  0.8450  2.2007
  764MOL0     H  788   3.530   9.031   2.020 -0.6010 -3.5865 -2.7689
  764MOL0     H  789   3.579   9.284   1.873  0.3883 -2.0370 -1.2016
  764MOL0     H  790   3.564   9.277   2.043  3.1525  0.2004 -1.2787
  764MOL0     H  791   3.351   9.228   1.821  0.8114  0.5581 -0.1635
  764MOL0     H  792   3.320   9.166   1.986  0.3556 -1.1823 -1.4489
  764MOL0     H  793   3.372   9.454   1.883  0.7512  0.9552  1.3798
  764MOL0     H  794   3.376   9.396   2.056  2.7902 -1.7711 -0.7394
  764MOL0     H  795   3.150   9.331   2.050  1.9519 -0.7272  0.1171
  764MOL0     H  796   3.137   9.337   1.880 -1.2062 -0.9619  1.6207
  764MOL0     H  797   3.180   9.610   2.029  1.4584 -0.1683 -1.1031
  764MOL0     H  798   3.158   9.582   1.854 -0.1594  0.0986 -0.5023
  764MOL0     H  799   2.931   9.480   1.893  0.2982 -0.8545  0.7552
  764MOL0     H  800   2.947   9.644   1.927  0.7258  0.3835  2.4501
  764MOL0     H  801   2.915   9.301   2.124  0.6428  0.4745  0.7644
  764MOL0     H  802   2.931   9.308   2.433  1.1956  1.4886 -1.4804
  764MOL0     H  803   2.778   9.254   2.369  0.8229 -2.3630  4.2721
  764MOL0     H  804   2.827   9.496   2.541  0.2347 -0.2778 -1.8403
  764MOL0     H  805   2.769   9.333   2.595 -0.3447 -3.4030 -3.5260
  764MOL0     H  806   2.620   9.550   2.456  1.3537  0.6616  0.4512
  764MOL0     H  807   2.570   9.378   2.446  1.1066 -0.3523  0.2651
  764MOL0     H  808   2.603   9.550   2.705  0.6100  0.1501 -1.6360
  764MOL0     H  809   2.589   9.374   2.707 -2.0769  0.3801  2.5167
  764MOL0     H  810   2.501   9.470   2.885 -0.3149  0.4515  0.8475
  764MOL0     H  811   2.350   9.448   3.091  3.5725  0.3689 -1.2950
  764MOL0     H  812   1.699   9.424   3.071 -2.0360  1.9456  0.5127
  764MOL0     H  813   1.546   9.400   3.261  0.0170 -0.3953 -1.1355
  764MOL0     H  814   1.700   9.583   3.653  1.2450 -0.2912  1.2406
  764MOL0     H  815   1.701   9.409   3.656 -2.3076 -0.6086 -2.0785
  764MOL0     H  816   1.556   9.473   3.836  1.1212  0.7449 -0.9170
  764MOL0     H  817   1.445   9.412   3.708 -1.1604  0.5877  0.8024
  764MOL0     H  818   1.393   9.640   3.643 -0.5164 -1.3384 -1.2863
  764MOL0     H  819   1.486   9.705   3.770 -0.3521 -0.0906 -0.1702
  764MOL0     H  820   1.247   9.498   3.813 -2.5452  0.7971  1.6012
  764MOL0     H  821   1.343   9.572   3.942 -1.7162 -0.7591  0.5849
  764MOL0     H  822   1.149   9.710   3.755  0.2007 -0.0879  0.2751
  764MOL0     H  823   1.272   9.792   3.850 -1.4445  0.1255 -2.2739
  764MOL0     H  824   1.163   9.674   4.046  0.4701  0.5350  0.2107
  764MOL0     H  825   1.044   9.614   3.927  2.2343 -1.5683  1.7245
  764MOL0     H  826   1.004   9.877   3.879 -1.8760  1.3378  0.3994
  764MOL0     H  827   0.922   9.792   4.008  0.6231  0.2865  0.6827
  764MOL0     H  828   1.164   9.973   4.049  0.1438  1.7985  1.9508
  764MOL0     H  829   1.077   9.878   4.169  3.3801 -1.3464 -1.0837
  764MOL0     H  830   1.837   9.584   3.514  0.6825 -1.6781  0.2339
  764MOL0     H  831   1.991   9.602   3.308 -0.5033  0.9715 -3.2301
  764MOL0     H  832   2.013   9.521   2.841 -0.8072  1.4121  2.0403
  764MOL0     H  833   2.165   9.524   2.637  0.4685 -1.6985 -1.0392
  764MOL0     H  834   3.714   8.838   1.658  0.1042  0.4821 -1.0008
  764MOL0     H  835   3.919   8.709   1.710 -4.2584  0.7496 -2.2220
  764MOL0     H  836   4.376   8.839   1.839 -0.4189 -0.1080  0.5056
  764MOL0     H  837   4.612   8.793   1.867  1.2918 -0.8401  0.5165
  764MOL0     H  838   4.669   8.572   2.110  0.0521 -0.2884  1.2732
  764MOL0     H  839   4.834   8.613   2.061 -2.0755  2.9667 -1.6662
  764MOL0     H  840   4.811   8.403   2.216 -0.1098 -0.6895  0.0492
  764MOL0     H  841   4.710   8.335   2.093 -1.0636  0.7255  0.7620
  764MOL0     H  842   4.904   8.303   1.934  0.8695  1.2884 -0.3512
  764MOL0     H  843   4.923   8.227   2.084  0.8857 -0.8539 -3.8671
  764MOL0     H  844   5.050   8.507   2.030 -2.3406  0.5102  2.4400
  764MOL0     H  845   5.067   8.398   2.174  1.6076  0.6793 -0.3596
  764MOL0     H  846   5.284   8.195   1.873 -1.1123  1.5121 -1.4956
  764MOL0     H  847   4.516   8.372   1.902  0.4964 -0.0526  0.7838
  764MOL0     H  848   4.288   8.411   1.863 -1.3162  1.0428  1.7959
  765MOL0     O  849   9.010   1.578  10.731 -0.1484 -0.1508 -0.5701
  765MOL0     C  850   9.005   1.690  10.679  0.8390 -0.0386  0.0415
  765MOL0     O  851   8.888   1.743  10.623  0.0577  0.7487  0.0557
  765MOL0     C  852   8.771   1.697  10.683  0.3624 -0.4516  0.2769
  765MOL0     C  853   8.706   1.778  10.780 -0.3063 -0.3022 -0.1195
  765MOL0     C  854   8.577   1.754  10.817 -0.8373 -0.2347  0.8528
  765MOL0     C  855   8.513   1.647  10.754  0.9522 -0.4984  0.6360
  765MOL0     O  856   8.386   1.635  10.807  0.3877 -0.1934  0.3936
  765MOL0     C  857   8.301   1.531  10.755  0.7089 -0.6339 -0.0705
  765MOL0     C  858   8.151   1.561  10.781  0.3808 -0.9132 -0.2730
  765MOL0     C  859   8.052   1.467  10.707 -0.6438 -0.3633  0.8339
  765MOL0     C  860   7.906   1.504  10.730 -0.3771  0.2275 -0.5805
  765MOL0     C  861   7.815   1.395  10.673  0.3706  0.1761 -0.0975
  765MOL0     C  862   7.663   1.422  10.710 -0.3061 -0.2360 -0.4108
  765MOL0     C  863   7.576   1.309  10.656  0.5091 -0.2728  1.1395
  765MOL0     C  864   7.433   1.318  10.707 -1.2975 -0.4278 -0.1530
  765MOL0     N  865   7.349   1.411  10.636  0.4654 -0.2167  1.0909
  765MOL0     C  866   7.298   1.530  10.693  0.3799 -0.1458  0.2912
  765MOL0     C  867   7.206   1.579  10.608  1.0085 -0.1572 -0.4601
  765MOL0     C  868   7.138   1.716  10.629 -0.2598 -0.1386 -0.3173
  765MOL0     C  869   6.991   1.730  10.587  0.2982  0.4336 -0.0754
  765MOL0     C  870   6.962   1.876  10.597  0.7533 -0.6003 -0.2861
  765MOL0     C  871   6.840   1.904  10.515  0.3446 -0.1481 -0.5338
  765MOL0     O  872   6.768   2.009  10.587 -1.1061  0.1809 -0.4969
  765MOL0     C  873   6.657   2.061  10.524 -0.1837  0.3005 -0.3223
  765MOL0     C  874   6.599   2.166  10.591 -0.5680 -0.2697 -0.2404
  765MOL0     C  875   6.490   2.237  10.536 -0.5627  0.6704 -0.8669
  765MOL0     C  876   6.439   2.213  10.413 -0.4136 -0.9465  0.2524
  765MOL0     C  877   6.324   2.302  10.361 -0.1029 -0.0141 -0.3094
  765MOL0     O  878   6.258   2.267  10.242  0.6576  0.1784 -0.0017
  765MOL0     C  879   6.140   2.325  10.206 -0.9647  0.3302 -0.0263
  765MOL0     C  880   6.114   2.366  10.077 -0.4233  0.6225 -0.1003
  765MOL0     C  881   5.992   2.409  10.033  0.1435  0.0239  0.0844
  765MOL0     C  882   5.890   2.428  10.122 -1.0042  0.3663 -1.6287
  765MOL0     O  883   5.785   2.495  10.076  0.0030 -0.2671 -0.3106
  765MOL0     C  884   5.656   2.491  10.144 -1.2386 -0.1266  0.1632
  765MOL0     C  885   5.557   2.514  10.034  0.6554 -0.2749 -0.0641
  765MOL0     C  886   5.413   2.514  10.080 -0.2252 -0.1635 -0.6167
  765MOL0     C  887   5.386   2.629  10.180  0.0807 -0.2009  0.2212
  765MOL0     C  888   5.237   2.655  10.213  0.5853  0.3297  0.3657
  765MOL0     C  889   5.141   2.707  10.103  0.0656 -0.5041 -0.3411
  765MOL0     C  890   4.995   2.737  10.161  0.2394 -0.3246 -0.2648
  765MOL0     C  891   4.913   2.796  10.047  0.2057 -0.3205  0.1266
  765MOL0    Cl  892   4.740   2.840  10.089 -0.1526  0.2194 -0.0021
  765MOL0     C  893   5.906   2.393  10.264  0.0217  0.3720 -0.2522
  765MOL0     C  894   6.033   2.330  10.299 -0.7190  0.8263  0.5927
  765MOL0     O  895   6.296   2.397  10.434  0.4912  0.5623 -0.5557
  765MOL0     C  896   6.503   2.109  10.346 -0.7264  0.2424  0.0725
  765MOL0     C  897   6.598   2.030  10.402  0.0778 -0.1822 -0.5640
  765MOL0     N  898   7.196   1.486  10.497 -0.9886  0.2129 -0.2841
  765MOL0     N  899   7.281   1.387  10.524 -0.0111  0.5506  0.2102
  765MOL0     C  900   8.580   1.568  10.654 -0.0668 -0.0134  0.2464
  765MOL0     C  901   8.714   1.593  10.623  0.7719 -0.6435 -0.3617
  765MOL0     C  902   9.131   1.766  10.664  0.7881 -0.9175 -0.5426
  765MOL0     C  903   9.250   1.700  10.680  0.1471  0.1082  0.0107
  765MOL0     C  904   9.372   1.758  10.671  0.0449 -0.5339 -0.0319
  765MOL0     C  905   9.375   1.886  10.626 -0.2794 -1.3772  0.5277
  765MOL0     O  906   9.488   1.962  10.600  0.3506  0.1642 -1.3206
  765MOL0     C  907   9.618   1.907  10.647 -0.3616  0.0024 -0.4831
  765MOL0     C  908   9.726   2.007  10.616  1.3321  0.1150  0.7230
  765MOL0     C  909   9.866   1.956  10.640  0.4612  0.2180 -0.0610
  765MOL0     C  910   9.916   1.857  10.546  0.5310  0.6777 -0.1868
  765MOL0     C  911  10.060   1.855  10.543 -1.0361  0.1582 -0.5916
  765MOL0     C  912  10.179   1.839  10.557 -0.1264  0.6404  0.5199
  765MOL0     C  913   9.260   1.964  10.607  0.1650  0.1501  0.7721
  765MOL0     C  914   9.135   1.902  10.621  0.6407  0.2973  0.9197
  765MOL0     H  915   8.768   1.856  10.823 -0.2455  1.0253 -2.4680
  765MOL0     H  916   8.540   1.816  10.897  1.9725  0.5525  1.6451
  765MOL0     H  917   8.322   1.435  10.803 -1.3531 -0.8789  0.4278
  765MOL0     H  918   8.318   1.527  10.647 -0.2820 -0.6913 -0.2313
  765MOL0     H  919   8.122   1.662  10.749  0.3331 -1.1124 -0.8804
  765MOL0     H  920   8.131   1.554  10.888 -0.0164 -1.1739 -0.3638
  765MOL0     H  921   8.080   1.367  10.743  1.4754 -0.6200 -1.2571
  765MOL0     H  922   8.072   1.469  10.600  0.5706 -1.4037  1.0073
  765MOL0     H  923   7.876   1.518  10.834 -2.3864  1.6529 -1.2786
  765MOL0     H  924   7.887   1.605  10.692 -1.3333  0.0121 -0.6912
  765MOL0     H  925   7.841   1.295  10.708 -0.4155 -0.6411 -1.7417
  765MOL0     H  926   7.838   1.387  10.566  1.2957 -0.1187  0.1142
  765MOL0     H  927   7.631   1.517  10.665  0.1318  0.0414 -0.1390
  765MOL0     H  928   7.655   1.437  10.818  2.4702 -0.0545 -0.1631
  765MOL0     H  929   7.574   1.311  10.547  0.9921 -1.4171  1.0934
  765MOL0     H  930   7.610   1.214  10.699  0.4623  0.0656  1.9516
  765MOL0     H  931   7.432   1.346  10.812  0.4206 -2.0602  0.3480
  765MOL0     H  932   7.385   1.220  10.700  0.4182 -1.2397 -1.3063
  765MOL0     H  933   7.307   1.573  10.793 -0.6192 -2.6032  1.5380
  765MOL0     H  934   7.184   1.785  10.558 -1.9474  1.9976  0.5271
  765MOL0     H  935   7.148   1.759  10.729 -1.7875  1.2158 -0.6931
  765MOL0     H  936   6.933   1.671  10.659  0.2706  0.6632  0.0902
  765MOL0     H  937   6.971   1.679  10.492  0.3461 -0.3411  0.3154
  765MOL0     H  938   6.944   1.889  10.704 -1.6693 -1.5562 -0.5089
  765MOL0     H  939   7.036   1.948  10.561 -1.0650  1.0662 -0.9125
  765MOL0     H  940   6.773   1.818  10.509  0.5117 -0.2531 -0.9122
  765MOL0     H  941   6.872   1.928  10.413  3.9970 -1.9713 -0.0068
  765MOL0     H  942   6.645   2.190  10.686  1.9919 -0.9738 -1.2164
  765MOL0     H  943   6.449   2.322  10.590  0.3514  0.0481  0.9113
  765MOL0     H  944   6.195   2.354  10.006 -1.3857 -0.7192 -1.0144
  765MOL0     H  945   5.992   2.448   9.932  2.0870  2.7840  1.0213
  765MOL0     H  946   5.661   2.573  10.216  1.8577 -1.9203  2.2439
  765MOL0     H  947   5.637   2.396  10.194 -2.1870 -0.5493 -0.9732
  765MOL0     H  948   5.569   2.433   9.961 -2.4270 -0.4574 -0.4954
  765MOL0     H  949   5.561   2.612   9.987 -2.5383 -0.0895 -0.1304
  765MOL0     H  950   5.378   2.422  10.129  1.3121 -0.2998  0.2687
  765MOL0     H  951   5.344   2.515   9.995  1.5872 -2.7136 -2.2735
  765MOL0     H  952   5.437   2.606  10.274 -0.0184 -1.2497  0.0313
  765MOL0     H  953   5.421   2.726  10.143 -0.4039  0.6595  1.8987
  765MOL0     H  954   5.235   2.722  10.300 -2.0290 -0.2202  0.8106
  765MOL0     H  955   5.207   2.558  10.254  1.3921 -0.1674 -0.2069
  765MOL0     H  956   5.150   2.653  10.008 -2.7220 -1.2126 -0.2800
  765MOL0     H  957   5.187   2.804  10.083 -2.1258  0.1225 -3.0734
  765MOL0     H  958   4.954   2.637  10.179  0.6529 -0.3345  0.6746
  765MOL0     H  959   4.982   2.808  10.243  0.9030 -1.5016  0.8910
  765MOL0     H  960   4.922   2.738   9.955 -0.2251  2.3777 -1.7327
  765MOL0     H  961   4.963   2.893  10.036  1.4406 -0.8731  0.7158
  765MOL0     H  962   5.825   2.416  10.332 -0.9574  0.3216 -1.3741
  765MOL0     H  963   6.050   2.294  10.400  2.1633 -0.4652 -0.2241
  765MOL0     H  964   6.485   2.079  10.243  0.0120 -0.1601  0.0528
  765MOL0     H  965   6.651   1.953  10.348  3.6742  3.0753 -2.1298
  765MOL0     H  966   8.531   1.484  10.606 -2.5822  0.5422  1.6525
  765MOL0     H  967   8.771   1.527  10.558  1.2819 -0.4628 -0.1043
  765MOL0     H  968   9.255   1.595  10.708 -0.1150  0.5356  1.8249
  765MOL0     H  969   9.463   1.713  10.708 -0.2242 -0.2451  1.0162
  765MOL0     H  970   9.631   1.815  10.590 -2.7335 -1.1728  0.7384
  765MOL0     H  971   9.617   1.894  10.756  1.5254  0.4222 -0.3728
  765MOL0     H  972   9.712   2.049  10.516 -2.3187  1.8308  1.7940
  765MOL0     H  973   9.706   2.094  10.679  0.4029  0.9875 -0.7203
  765MOL0     H  974   9.868   1.914  10.741 -2.5611 -3.9219 -1.4421
  765MOL0     H  975   9.929   2.045  10.632  1.9598 -0.8310 -0.4484
  765MOL0     H  976   9.883   1.753  10.556  0.6792  0.7067  0.7367
  765MOL0     H  977   9.883   1.891  10.448 -1.0705 -0.7473 -0.1768
  765MOL0     H  978  10.285   1.832  10.574  0.0120  0.9675 -0.1832
  765MOL0     H  979   9.260   2.067  10.574  1.7179 -0.4982 -1.4654
  765MOL0     H  980   9.044   1.961  10.610  1.3960  1.4689  0.7521
  766MOL0     O  981   5.512   0.268   0.229  0.2328 -0.0485 -0.1351
  766MOL0     C  982   5.522   0.197   0.135  0.4119 -0.4076 -0.1920
  766MOL0     O  983   5.411   0.147   0.071  0.0002  0.1275  0.0783
  766MOL0     C  984   5.294   0.138   0.143  0.6959  0.1468 -0.1387
  766MOL0     C  985   5.277   0.076   0.260  0.8255 -0.4675 -0.0908
  766MOL0     C  986   5.154   0.073   0.325  0.0049  0.0914 -0.0934
  766MOL0     C  987   5.034   0.125   0.267 -0.0720 -0.1032  0.3196
  766MOL0     O  988   4.899   0.111   0.312 -0.2302  0.6993  0.0993
  766MOL0     C  989   4.875   0.036   0.430 -0.0117 -0.3801  0.2745
  766MOL0     C  990   4.726   0.048   0.467 -0.5181 -1.0192 -0.2467
  766MOL0     C  991   4.616  -0.005   0.378 -0.1947  0.3533  0.2454
  766MOL0     C  992   4.479  -0.002   0.434  0.2781  0.1178 -0.2873
  766MOL0     C  993   4.409   0.132   0.390 -0.2409 -0.0237  0.6036
  766MOL0     C  994   4.262   0.123   0.432 -0.2665  0.4950 -0.1824
  766MOL0     C  995   4.182   0.252   0.411  0.1716  0.2660 -0.5301
  766MOL0     C  996   4.036   0.232   0.459 -0.3548 -1.0681  0.2154
  766MOL0     N  997   3.942   0.336   0.421  0.6870 -0.0941 -0.5263
  766MOL0     C  998   3.930   0.451   0.494 -0.7226 -0.2102  0.7070
  766MOL0     C  999   3.837   0.527   0.434  0.7060  0.2945 -0.0017
  766MOL0     C 1000   3.804   0.664   0.473 -0.2304 -0.0254 -0.1359
  766MOL0     C 1001   3.774   0.756   0.353  0.7161 -0.1148  0.6132
  766MOL0     C 1002   3.653   0.729   0.267 -0.5771 -0.5136 -0.2058
  766MOL0     C 1003   3.610   0.843   0.186 -0.2818  0.4025 -0.5254
  766MOL0     O 1004   3.576   0.959   0.269  0.6683 -0.2973  0.2333
  766MOL0     C 1005   3.447   0.968   0.319  0.2183  0.1781 -0.2195
  766MOL0     C 1006   3.347   0.865   0.312 -1.1495 -0.0007  0.1556
  766MOL0     C 1007   3.218   0.882   0.355  0.4127 -0.5251 -0.7948
  766MOL0     C 1008   3.175   1.008   0.402 -0.1961  0.1731 -0.5278
  766MOL0     C 1009   3.029   1.024   0.429 -0.6937 -0.5476  0.1983
  766MOL0     O 1010   2.945   0.929   0.377 -0.2644  0.0597  0.3669
  766MOL0     C 1011   2.803   0.941   0.388 -1.0934 -0.0506  0.4709
  766MOL0     C 1012   2.731   0.825   0.418  0.4638 -0.0837  0.0667
  766MOL0     C 1013   2.594   0.828   0.410 -0.3588  0.3490  0.8152
  766MOL0     C 1014   2.522   0.952   0.398 -0.1489  1.0094  0.6932
  766MOL0     O 1015   2.386   0.942   0.414  0.1106  0.0138  0.7354
  766MOL0     C 1016   2.312   1.064   0.422 -0.1844 -0.9441 -0.8567
  766MOL0     C 1017   2.183   1.031   0.496 -0.8763  0.0113 -1.2508
  766MOL0     C 1018   2.059   1.081   0.440 -0.5982  0.3313  0.1494
  766MOL0     C 1019   1.947   1.071   0.549  0.4187  0.4760 -0.4137
  766MOL0     C 1020   1.810   1.116   0.509  0.2107 -0.4655 -0.3615
  766MOL0     C 1021   1.761   1.053   0.381 -0.7221 -0.0128  0.0355
  766MOL0     C 1022   1.609   1.054   0.381  0.5154  0.2939 -0.6663
  766MOL0     C 1023   1.542   0.978   0.270 -0.3811 -0.3473  0.2566
  766MOL0    Cl 1024   1.603   1.037   0.107  0.2787  0.7020  0.0094
  766MOL0     C 1025   2.595   1.065   0.365 -0.1105 -0.1812  0.4896
  766MOL0     C 1026   2.731   1.058   0.366  0.3008 -0.7182  0.0016
  766MOL0     O 1027   3.001   1.130   0.491 -0.6538 -0.5963  0.3125
  766MOL0     C 1028   3.271   1.109   0.417  0.3699  0.1541  0.3872
  766MOL0     C 1029   3.401   1.087   0.370  0.3011  0.8607  0.2034
  766MOL0     N 1030   3.773   0.447   0.335 -0.1151  0.6438 -0.3538
  766MOL0     N 1031   3.843   0.335   0.322  0.7839 -0.3490 -0.4850
  766MOL0     C 1032   5.056   0.192   0.136  0.0161  0.5992  0.4777
  766MOL0     C 1033   5.187   0.200   0.087 -0.8308 -0.4775  0.6550
  766MOL0     C 1034   5.652   0.158   0.086 -0.6813 -1.0452 -0.3289
  766MOL0     C 1035   5.773   0.227   0.121  0.4080 -0.3791  0.1240
  766MOL0     C 1036   5.894   0.166   0.083  0.0581  0.1831  0.4356
  766MOL0     C 1037   5.916   0.054   0.007  0.0703  0.2074  0.2965
  766MOL0     O 1038   6.043   0.019  -0.022 -0.0226 -0.1830  0.0488
  766MOL0     C 1039   6.060  -0.061  -0.145 -0.2559 -0.2204 -0.2303
  766MOL0     C 1040   6.207  -0.096  -0.145 -0.8620  0.0339 -0.3840
  766MOL0     C 1041   6.240  -0.179  -0.272 -0.0169 -0.6264 -0.0749
  766MOL0     C 1042   6.386  -0.194  -0.321  0.4710  0.4228 -0.0615
  766MOL0     C 1043   6.402  -0.277  -0.445  0.3140 -0.7857  0.8866
  766MOL0     C 1044   6.420  -0.327  -0.558  0.1723  0.4970 -0.0044
  766MOL0     C 1045   5.795  -0.004  -0.036 -0.2098  0.5590 -0.7587
  766MOL0     C 1046   5.670   0.047   0.002  0.0919  0.1146 -1.5239
  766MOL0     H 1047   5.356   0.013   0.299 -0.3581 -1.9961 -0.0530
  766MOL0     H 1048   5.136   0.006   0.409  1.6925 -0.7987 -0.4061
  766MOL0     H 1049   4.940   0.070   0.510  1.6716  1.3109 -1.7018
  766MOL0     H 1050   4.900  -0.070   0.415  0.9533 -0.3290  1.3888
  766MOL0     H 1051   4.710   0.156   0.475 -0.5535 -1.0942  0.8322
  766MOL0     H 1052   4.708   0.004   0.565  2.2131 -0.4015  0.5959
  766MOL0     H 1053   4.644  -0.109   0.359  0.8508  0.8157 -0.8756
  766MOL0     H 1054   4.632   0.046   0.283  2.4047 -0.6613  0.0632
  766MOL0     H 1055   4.422  -0.088   0.396  1.3119 -0.5609 -0.3408
  766MOL0     H 1056   4.487  -0.015   0.542 -0.0747 -5.5899 -0.6082
  766MOL0     H 1057   4.419   0.138   0.281 -1.5491  0.7186  0.5043
  766MOL0     H 1058   4.461   0.218   0.433 -0.5401  1.3441 -1.6432
  766MOL0     H 1059   4.250   0.103   0.539 -0.6587 -2.1660 -0.6574
  766MOL0     H 1060   4.225   0.035   0.379 -1.5447  1.4223 -0.8932
  766MOL0     H 1061   4.228   0.338   0.460  1.1000  1.9570 -4.1013
  766MOL0     H 1062   4.180   0.272   0.304  0.8895 -0.0402 -0.6082
  766MOL0     H 1063   4.047   0.240   0.568 -2.0752 -1.0383  0.4190
  766MOL0     H 1064   4.011   0.129   0.429 -1.2962 -0.4962 -1.0551
  766MOL0     H 1065   3.989   0.477   0.581  1.2972 -0.4356 -0.5297
  766MOL0     H 1066   3.885   0.717   0.524 -0.3343 -0.7402  0.7969
  766MOL0     H 1067   3.720   0.663   0.542 -0.8441 -0.7770 -0.8664
  766MOL0     H 1068   3.854   0.758   0.279 -0.1388 -1.4799 -0.3900
  766MOL0     H 1069   3.767   0.856   0.398 -0.5423  0.7630 -1.4168
  766MOL0     H 1070   3.675   0.654   0.189 -1.0630 -0.3315 -0.5221
  766MOL0     H 1071   3.580   0.700   0.343 -0.5115 -2.1643 -0.7289
  766MOL0     H 1072   3.523   0.819   0.125 -1.5892  2.1087  0.5729
  766MOL0     H 1073   3.691   0.877   0.121  0.4897 -0.9194 -0.2926
  766MOL0     H 1074   3.366   0.764   0.278 -1.4927  0.0551 -0.2111
  766MOL0     H 1075   3.146   0.802   0.345 -2.8308  2.2291 -1.1490
  766MOL0     H 1076   2.782   0.738   0.460  1.2122  0.4322  0.2367
  766MOL0     H 1077   2.535   0.737   0.418 -0.3203  0.4456  2.6874
  766MOL0     H 1078   2.292   1.094   0.319 -1.6801 -2.4671 -1.0659
  766MOL0     H 1079   2.366   1.139   0.481 -5.1535  0.2087  2.9036
  766MOL0     H 1080   2.194   1.067   0.599 -0.7203 -0.2237 -1.1844
  766MOL0     H 1081   2.171   0.923   0.510 -0.6152  0.0255 -0.8869
  766MOL0     H 1082   2.025   1.011   0.363  0.7501  0.7360 -0.8464
  766MOL0     H 1083   2.065   1.186   0.410 -1.0870  0.2893 -0.1085
  766MOL0     H 1084   1.933   0.970   0.588  1.2434  1.4804  2.7929
  766MOL0     H 1085   1.979   1.132   0.634 -1.2260  1.5071 -0.4747
  766MOL0     H 1086   1.802   1.225   0.510  2.4081 -0.2623 -0.7394
  766MOL0     H 1087   1.746   1.076   0.588 -1.1168 -1.3814 -1.8418
  766MOL0     H 1088   1.794   0.953   0.351  2.8261  1.4139 -1.2695
  766MOL0     H 1089   1.788   1.116   0.296  1.3952  1.9646  2.0636
  766MOL0     H 1090   1.576   1.014   0.477  1.4804  0.0683 -0.4162
  766MOL0     H 1091   1.577   1.158   0.371  0.6802  0.5775  1.3343
  766MOL0     H 1092   1.433   0.969   0.278 -0.3661 -0.4856  0.3200
  766MOL0     H 1093   1.583   0.876   0.279  3.4137  0.9719 -0.3232
  766MOL0     H 1094   2.545   1.161   0.364  3.3217  1.7812  0.6049
  766MOL0     H 1095   2.788   1.143   0.329 -0.6062 -0.0389  0.1396
  766MOL0     H 1096   3.230   1.206   0.443 -0.8350  0.0578 -1.0188
  766MOL0     H 1097   3.470   1.171   0.373  1.1285  0.2406 -0.7288
  766MOL0     H 1098   4.974   0.236   0.080 -0.2003 -1.6396 -1.0664
  766MOL0     H 1099   5.212   0.251  -0.005 -1.3628 -1.7747 -0.2318
  766MOL0     H 1100   5.776   0.320   0.176  1.9342 -0.0225 -0.5072
  766MOL0     H 1101   5.984   0.208   0.126  0.3087 -0.4048  0.4987
  766MOL0     H 1102   6.047   0.002  -0.234  5.1117 -1.0549 -1.9368
  766MOL0     H 1103   6.002  -0.154  -0.150 -0.5194 -0.0070 -1.5108
  766MOL0     H 1104   6.250   0.003  -0.161 -2.0048  0.1820 -3.0958
  766MOL0     H 1105   6.226  -0.152  -0.053 -1.1758 -0.6030 -0.6976
  766MOL0     H 1106   6.187  -0.126  -0.351 -0.7836  1.0403  1.4813
  766MOL0     H 1107   6.208  -0.283  -0.255 -1.1339 -0.3961 -0.6578
  766MOL0     H 1108   6.426  -0.093  -0.335  0.5163  0.6611  1.5612
  766MOL0     H 1109   6.450  -0.238  -0.244  0.8995  0.1704 -0.5527
  766MOL0     H 1110   6.433  -0.377  -0.651 -0.6138  0.4083 -0.0681
  766MOL0     H 1111   5.783  -0.104  -0.077 -1.3019  0.9097 -1.3343
  766MOL0     H 1112   5.589  -0.017  -0.029 -0.6686  0.7711 -0.9270
  767MOL0     O 1113   5.248   5.578   9.991  0.5337 -0.3343  0.0615
  767MOL0     C 1114   5.181   5.604  10.091 -0.0654  0.5647  0.3654
  767MOL0     O 1115   5.231   5.666  10.204 -0.3568  0.4846 -0.2746
  767MOL0     C 1116   5.361   5.701  10.216 -0.8258 -0.4842 -0.4936
  767MOL0     C 1117   5.467   5.604  10.197 -0.0601 -0.4007 -0.3223
  767MOL0     C 1118   5.596   5.633  10.235 -0.8560 -0.5450  0.5530
  767MOL0     C 1119   5.633   5.751  10.296  0.0592 -0.5710  0.5819
  767MOL0     O 1120   5.769   5.768  10.305  0.1735  0.4137 -0.9304
  767MOL0     C 1121   5.823   5.900  10.306  0.3707  0.3519  0.3583
  767MOL0     C 1122   5.970   5.912  10.337  0.1998 -0.2153 -0.9768
  767MOL0     C 1123   6.038   5.796  10.279 -0.0919 -0.2762 -0.5806
  767MOL0     C 1124   6.189   5.812  10.316  0.7761 -0.1077  0.2577
  767MOL0     C 1125   6.296   5.714  10.248  0.3684  0.1059 -0.5368
  767MOL0     C 1126   6.440   5.755  10.251 -0.2803 -0.1048 -0.4817
  767MOL0     C 1127   6.535   5.652  10.173  0.2411 -0.1288 -0.6183
  767MOL0     C 1128   6.537   5.519  10.242  0.7191  0.5460 -0.9924
  767MOL0     N 1129   6.576   5.514  10.386 -0.4105  0.0293 -0.0107
  767MOL0     C 1130   6.533   5.418  10.466 -0.1182 -0.2156  0.9043
  767MOL0     C 1131   6.567   5.457  10.590 -0.5324 -0.0560  0.1744
  767MOL0     C 1132   6.558   5.395  10.727  1.0259 -0.2469 -0.3005
  767MOL0     C 1133   6.577   5.486  10.847 -0.0656 -0.3758 -0.5697
  767MOL0     C 1134   6.576   5.411  10.983 -1.0050  0.2331  0.5710
  767MOL0     C 1135   6.433   5.360  11.022 -0.5312 -0.2387 -0.1132
  767MOL0     O 1136   6.358   5.480  11.025 -0.1549 -0.2601  0.1908
  767MOL0     C 1137   6.223   5.461  11.043  0.0919 -1.4062  0.3373
  767MOL0     C 1138   6.157   5.583  11.070  1.0890 -0.0085 -0.0060
  767MOL0     C 1139   6.022   5.593  11.103  1.0508  0.2096 -0.1379
  767MOL0     C 1140   5.942   5.481  11.086  0.5327  0.4000 -0.0973
  767MOL0     C 1141   5.797   5.495  11.101  0.2535  0.6104  0.4255
  767MOL0     O 1142   5.726   5.373  11.104 -0.7517 -0.0874 -0.5820
  767MOL0     C 1143   5.596   5.372  11.095 -0.4044 -0.0356  0.5017
  767MOL0     C 1144   5.546   5.378  10.963  0.6983 -0.0638  0.3222
  767MOL0     C 1145   5.415   5.366  10.934  0.7940  0.1829 -0.0624
  767MOL0     C 1146   5.321   5.329  11.032 -0.9579  0.4225 -0.3094
  767MOL0     O 1147   5.193   5.295  10.998 -0.5994 -0.2347 -0.2253
  767MOL0     C 1148   5.098   5.378  11.074 -0.3733 -0.8042  1.0517
  767MOL0     C 1149   4.978   5.387  10.985  0.1014 -0.1446  0.1020
  767MOL0     C 1150   4.860   5.457  11.054 -0.1730  0.7694 -0.0930
  767MOL0     C 1151   4.736   5.436  10.962  0.8050 -0.6537  0.3468
  767MOL0     C 1152   4.619   5.524  10.997  0.4935  0.6165  0.2801
  767MOL0     C 1153   4.497   5.454  10.942 -0.2819  0.7070 -0.0572
  767MOL0     C 1154   4.387   5.545  10.983 -0.3711  0.4964 -0.4272
  767MOL0     C 1155   4.255   5.496  10.926  1.2433  0.2448 -0.0214
  767MOL0    Cl 1156   4.267   5.564  10.763  0.1112  0.1471  0.2110
  767MOL0     C 1157   5.366   5.318  11.172  0.4401  0.0936 -0.3705
  767MOL0     C 1158   5.502   5.343  11.195  0.6017 -0.1093 -0.8169
  767MOL0     O 1159   5.752   5.602  11.117 -0.4153 -0.9658  0.0861
  767MOL0     C 1160   6.005   5.361  11.036  0.0608 -0.6085 -0.5374
  767MOL0     C 1161   6.142   5.346  11.020  0.8405 -0.9030  0.3978
  767MOL0     N 1162   6.634   5.575  10.576  0.0238 -0.3725  0.8560
  767MOL0     N 1163   6.648   5.614  10.454 -0.2375 -0.0908 -0.0860
  767MOL0     C 1164   5.528   5.835  10.330 -0.5348 -1.0817 -0.1387
  767MOL0     C 1165   5.393   5.808  10.297 -0.6147 -0.3808 -0.2144
  767MOL0     C 1166   5.041   5.563  10.104 -0.6789 -0.2050 -0.6264
  767MOL0     C 1167   4.955   5.615  10.203 -0.2414 -0.0033 -0.0183
  767MOL0     C 1168   4.821   5.578  10.213 -0.4081  0.6467 -0.1517
  767MOL0     C 1169   4.765   5.507  10.106  0.0895 -0.1428 -0.1761
  767MOL0     O 1170   4.632   5.487  10.120  0.2059  0.0316  0.8304
  767MOL0     C 1171   4.581   5.415  10.005  0.3350 -0.2465 -1.0370
  767MOL0     C 1172   4.430   5.399  10.030  0.1994 -0.5402  0.4917
  767MOL0     C 1173   4.353   5.522   9.991  0.7202  0.0968 -0.6883
  767MOL0     C 1174   4.196   5.512  10.013 -0.6176  0.0596 -0.0477
  767MOL0     C 1175   4.145   5.486  10.145 -0.4253  0.2015  0.2498
  767MOL0     C 1176   4.112   5.453  10.261 -0.2091 -0.7440  0.1641
  767MOL0     C 1177   4.847   5.469   9.993 -0.2262 -0.5390  0.6249
  767MOL0     C 1178   4.988   5.498   9.993  0.0818  0.6631 -0.7623
  767MOL0     H 1179   5.441   5.500  10.178 -0.4916 -0.6707  1.5112
  767MOL0     H 1180   5.675   5.562  10.213 -1.2441 -1.0113  0.6452
  767MOL0     H 1181   5.779   5.957  10.388 -0.6746 -0.0447  0.0916
  767MOL0     H 1182   5.804   5.938  10.205  2.0385  1.1746  0.3222
  767MOL0     H 1183   5.986   5.916  10.445  0.0565  0.8107 -0.9883
  767MOL0     H 1184   6.002   6.005  10.289  2.3644 -0.8046 -0.7912
  767MOL0     H 1185   6.014   5.790  10.173 -2.4691 -0.1098 -0.1066
  767MOL0     H 1186   6.002   5.704  10.325  0.4720 -1.7103 -2.8341
  767MOL0     H 1187   6.217   5.913  10.285 -1.7357  0.4942 -0.2905
  767MOL0     H 1188   6.197   5.804  10.425 -1.4147 -1.8612  0.3753
  767MOL0     H 1189   6.262   5.692  10.146 -0.7618  1.6272 -0.5244
  767MOL0     H 1190   6.286   5.614  10.292  0.1119  0.9058  1.3165
  767MOL0     H 1191   6.482   5.777  10.350  1.3565  0.9396 -1.3682
  767MOL0     H 1192   6.455   5.850  10.200  1.5535  0.6264  1.3159
  767MOL0     H 1193   6.501   5.628  10.072 -0.6740  0.7496 -0.5354
  767MOL0     H 1194   6.634   5.699  10.173 -1.0767  3.0043  1.5247
  767MOL0     H 1195   6.605   5.456  10.183 -1.6659 -3.1213 -0.1551
  767MOL0     H 1196   6.435   5.478  10.240  0.7580 -0.2099  3.1631
  767MOL0     H 1197   6.483   5.324  10.448 -3.1494  1.2766  1.0360
  767MOL0     H 1198   6.639   5.321  10.728  2.2894  1.0823  0.4398
  767MOL0     H 1199   6.464   5.340  10.732 -0.9669  2.6259 -2.7827
  767MOL0     H 1200   6.521   5.581  10.851  1.7952  0.7714  2.8051
  767MOL0     H 1201   6.678   5.527  10.834  0.2292 -1.0199 -0.3393
  767MOL0     H 1202   6.641   5.324  10.985  2.1833  2.2567 -2.5795
  767MOL0     H 1203   6.615   5.482  11.057  1.4550 -2.2701  1.8493
  767MOL0     H 1204   6.436   5.303  11.115  1.8119 -0.6889 -0.3989
  767MOL0     H 1205   6.400   5.288  10.947 -0.1551  0.8394 -1.3421
  767MOL0     H 1206   6.215   5.674  11.081  0.9018  0.4949 -2.5796
  767MOL0     H 1207   5.982   5.687  11.139  0.3235 -0.6477  1.3680
  767MOL0     H 1208   5.620   5.398  10.887 -0.7954  1.1970 -0.8606
  767MOL0     H 1209   5.372   5.390  10.837  1.3123  1.1474 -0.0633
  767MOL0     H 1210   5.132   5.482  11.083 -3.5033  0.3981  0.3385
  767MOL0     H 1211   5.067   5.340  11.172 -2.0320  0.7917  1.2070
  767MOL0     H 1212   4.936   5.287  10.969 -1.3790  0.5477 -0.5384
  767MOL0     H 1213   4.993   5.433  10.888 -1.7005  0.2728 -0.0117
  767MOL0     H 1214   4.892   5.557  11.084 -1.4524  0.8761  1.0304
  767MOL0     H 1215   4.821   5.403  11.141  1.1835 -1.2649 -0.6748
  767MOL0     H 1216   4.775   5.466  10.865  0.5894 -1.5256 -0.0184
  767MOL0     H 1217   4.706   5.332  10.947 -0.4593 -0.0033 -2.1327
  767MOL0     H 1218   4.642   5.622  10.954  4.0875 -0.7994 -1.4710
  767MOL0     H 1219   4.619   5.532  11.106 -2.5936 -2.8719  0.7116
  767MOL0     H 1220   4.483   5.356  10.988  1.7049  1.5840  2.7201
  767MOL0     H 1221   4.500   5.440  10.834 -3.1609 -1.0893 -0.0110
  767MOL0     H 1222   4.378   5.546  11.092 -1.4905  0.6622 -0.5092
  767MOL0     H 1223   4.404   5.648  10.951  0.2859  0.3792 -0.4601
  767MOL0     H 1224   4.166   5.534  10.977 -2.1024 -3.5479 -2.3626
  767MOL0     H 1225   4.247   5.386  10.924  2.4625  0.0724  1.7427
  767MOL0     H 1226   5.284   5.298  11.239  0.7995 -0.2491 -0.0271
  767MOL0     H 1227   5.537   5.342  11.298  1.2885  0.1016 -1.0437
  767MOL0     H 1228   5.948   5.270  11.024 -0.9370 -0.2704  1.2391
  767MOL0     H 1229   6.192   5.258  10.980  2.8334 -0.0631  0.8985
  767MOL0     H 1230   5.544   5.924  10.390 -1.2327 -0.0887 -1.3687
  767MOL0     H 1231   5.312   5.872  10.333 -2.3435 -0.5027 -3.4737
  767MOL0     H 1232   4.991   5.673  10.288  0.1083 -1.5226  0.9164
  767MOL0     H 1233   4.767   5.611  10.301  2.1613  1.3986  1.2517
  767MOL0     H 1234   4.620   5.313  10.000  1.1879  0.0244 -0.2680
  767MOL0     H 1235   4.589   5.464   9.908  0.0549 -1.7497 -1.8573
  767MOL0     H 1236   4.398   5.314   9.969 -1.4168  0.0368  0.4972
  767MOL0     H 1237   4.415   5.378  10.136 -0.8333 -1.2856  0.2124
  767MOL0     H 1238   4.371   5.553   9.887 -2.7689  2.8260 -0.6826
  767MOL0     H 1239   4.394   5.597  10.059  3.1922 -0.6835 -1.2016
  767MOL0     H 1240   4.155   5.606   9.976  3.8926  2.0365 -0.6541
  767MOL0     H 1241   4.166   5.420   9.962  0.1765  0.6722 -1.6857
  767MOL0     H 1242   4.085   5.434  10.363  0.0364  0.7947  0.5303
  767MOL0     H 1243   4.805   5.419   9.907 -1.6279  2.0797 -0.3330
  767MOL0     H 1244   5.054   5.473   9.910  0.1670 -2.4972  0.1211
  768MOL0     O 1245   0.234   0.931   5.883  0.0326  0.1070 -0.0560
  768MOL0     C 1246   0.325   0.854   5.857 -0.4992 -0.0471  1.2485
  768MOL0     O 1247   0.311   0.730   5.806 -0.4537 -0.2752 -0.5761
  768MOL0     C 1248   0.191   0.678   5.766 -0.2225  0.0185  0.9824
  768MOL0     C 1249   0.168   0.543   5.800  0.1422 -0.0206  0.5411
  768MOL0     C 1250   0.046   0.483   5.771  0.0204  0.0532  0.4997
  768MOL0     C 1251  -0.058   0.552   5.720  0.0402 -0.3027 -0.0744
  768MOL0     O 1252  -0.178   0.482   5.713 -0.0589  0.1191 -0.0619
  768MOL0     C 1253  -0.290   0.563   5.763 -0.0616 -0.8671  0.3288
  768MOL0     C 1254  -0.400   0.473   5.819  0.5563 -0.0729  0.1204
  768MOL0     C 1255  -0.516   0.458   5.716 -0.0109  0.7057 -0.3307
  768MOL0     C 1256  -0.634   0.373   5.767 -0.4568 -0.5360  1.2676
  768MOL0     C 1257  -0.752   0.380   5.659  0.3498 -0.1776  0.2917
  768MOL0     C 1258  -0.709   0.326   5.517 -0.5845 -0.5729 -0.3166
  768MOL0     C 1259  -0.657   0.188   5.519  0.3139 -0.4010  0.0502
  768MOL0     C 1260  -0.752   0.084   5.583  0.8337 -0.2291 -0.1576
  768MOL0     N 1261  -0.876   0.081   5.504  0.0547  0.2564  0.7218
  768MOL0     C 1262  -0.891   0.028   5.374  0.2989  0.0179  0.8355
  768MOL0     C 1263  -1.028   0.029   5.355 -0.0249  0.3874 -0.4072
  768MOL0     C 1264  -1.103  -0.000   5.229 -0.1625 -0.4856  0.6451
  768MOL0     C 1265  -1.185  -0.127   5.244 -0.1770  0.4848 -0.0228
  768MOL0     C 1266  -1.316  -0.102   5.317  0.1499  0.7021  0.4495
  768MOL0     C 1267  -1.421  -0.030   5.238 -0.4408 -0.3737  0.7693
  768MOL0     O 1268  -1.457  -0.121   5.130  0.6767 -0.2243  0.2800
  768MOL0     C 1269  -1.586  -0.114   5.086 -0.1440 -0.6671  0.2365
  768MOL0     C 1270  -1.667  -0.004   5.104 -1.5523 -0.1276 -0.9065
  768MOL0     C 1271  -1.796  -0.007   5.042  0.0755  0.3869  1.0278
  768MOL0     C 1272  -1.842  -0.114   4.967 -0.4435  0.6856  0.8931
  768MOL0     C 1273  -1.973  -0.115   4.903 -0.4864 -0.6959 -0.2589
  768MOL0     O 1274  -2.034   0.007   4.903  0.0515 -0.1508 -0.2465
  768MOL0     C 1275  -2.157   0.028   4.850  0.5603 -0.9830 -0.3226
  768MOL0     C 1276  -2.265  -0.067   4.867 -0.4849  0.1091  0.6057
  768MOL0     C 1277  -2.386  -0.046   4.805 -0.0470  0.2040 -0.9810
  768MOL0     C 1278  -2.412   0.059   4.714 -0.5913  0.5967 -0.2053
  768MOL0     O 1279  -2.524   0.048   4.639 -0.8963  0.5948  0.0976
  768MOL0     C 1280  -2.563   0.165   4.561  0.3205  0.4860 -0.3316
  768MOL0     C 1281  -2.712   0.150   4.500 -0.7766 -0.6148  0.2180
  768MOL0     C 1282  -2.786   0.289   4.522 -0.4241 -0.0098 -0.0160
  768MOL0     C 1283  -2.907   0.311   4.432 -0.1760 -0.3503 -0.2028
  768MOL0     C 1284  -3.037   0.219   4.463 -0.3009 -0.3874 -0.0872
  768MOL0     C 1285  -3.163   0.242   4.387  0.3517  0.1637 -0.2752
  768MOL0     C 1286  -3.256   0.125   4.403 -0.4185 -0.5975  0.2868
  768MOL0     C 1287  -3.383   0.137   4.318  0.6057  0.1107  0.4721
  768MOL0    Cl 1288  -3.479  -0.005   4.364 -0.3071  0.0333 -0.1391
  768MOL0     C 1289  -2.310   0.160   4.709 -0.1052  0.0549  0.6327
  768MOL0     C 1290  -2.180   0.136   4.766  1.1597  0.0883  0.7103
  768MOL0     O 1291  -2.014  -0.215   4.855 -0.3119  0.4572 -0.8296
  768MOL0     C 1292  -1.755  -0.227   4.954  0.6856 -0.2919  0.0620
  768MOL0     C 1293  -1.622  -0.228   5.007 -0.2124 -0.0810 -0.5594
  768MOL0     N 1294  -1.084   0.079   5.479  0.3066 -0.1994  0.3524
  768MOL0     N 1295  -0.990   0.107   5.563  0.1032 -0.0497  0.9931
  768MOL0     C 1296  -0.031   0.686   5.677  0.5537 -0.0034  0.5847
  768MOL0     C 1297   0.093   0.752   5.695  0.4878  0.4369 -0.4973
  768MOL0     C 1298   0.463   0.897   5.870 -0.1398 -0.2756 -0.0787
  768MOL0     C 1299   0.485   1.015   5.941  0.5714  0.4085  0.1719
  768MOL0     C 1300   0.613   1.053   5.978 -0.0642 -0.8014  0.7857
  768MOL0     C 1301   0.723   0.981   5.929 -0.3868  0.1453 -0.4499
  768MOL0     O 1302   0.853   1.020   5.950 -0.0796  0.5642 -0.9256
  768MOL0     C 1303   0.876   1.157   5.978  0.5245 -0.1941 -0.5463
  768MOL0     C 1304   1.021   1.187   5.959  0.3311 -0.0079 -0.5052
  768MOL0     C 1305   1.034   1.339   5.947  0.0094 -0.6585 -0.5831
  768MOL0     C 1306   1.179   1.386   5.933 -0.6868 -0.5834  0.8564
  768MOL0     C 1307   1.187   1.528   5.956 -0.5572 -0.2341 -0.3678
  768MOL0     C 1308   1.175   1.645   5.991 -1.2943  0.4655  0.6471
  768MOL0     C 1309   0.705   0.857   5.865  0.1906  0.4090  0.3329
  768MOL0     C 1310   0.572   0.821   5.830 -0.5931 -0.7667 -0.0677
  768MOL0     H 1311   0.254   0.494   5.844  1.4941  1.9423  0.2242
  768MOL0     H 1312   0.021   0.382   5.802 -0.9998  0.7852  2.2654
  768MOL0     H 1313  -0.330   0.612   5.673 -0.8594 -1.2328  0.4770
  768MOL0     H 1314  -0.262   0.646   5.829  2.4039 -0.5001 -1.0190
  768MOL0     H 1315  -0.439   0.516   5.912 -1.6342 -0.4967 -0.5553
  768MOL0     H 1316  -0.363   0.374   5.849  0.3244 -0.0867  0.3597
  768MOL0     H 1317  -0.469   0.408   5.631 -1.0119 -2.6050  0.8909
  768MOL0     H 1318  -0.559   0.556   5.694 -0.3227  0.1103 -2.6747
  768MOL0     H 1319  -0.610   0.268   5.783 -0.8415 -0.9418 -0.5307
  768MOL0     H 1320  -0.665   0.413   5.864  2.0571  1.3668  1.3670
  768MOL0     H 1321  -0.792   0.481   5.652  0.2071 -0.0087  2.6868
  768MOL0     H 1322  -0.841   0.327   5.694  1.3225 -1.9153  0.2404
  768MOL0     H 1323  -0.637   0.392   5.469 -2.6494  1.4233 -0.8359
  768MOL0     H 1324  -0.799   0.337   5.456 -1.1902  5.3756  1.1050
  768MOL0     H 1325  -0.626   0.162   5.417  2.1094 -0.3523  0.5449
  768MOL0     H 1326  -0.565   0.192   5.579 -0.2011 -2.0603  1.0143
  768MOL0     H 1327  -0.778   0.106   5.687 -1.2521  0.8733 -0.8383
  768MOL0     H 1328  -0.707  -0.015   5.590  3.1895  0.8407  0.9976
  768MOL0     H 1329  -0.816   0.004   5.299 -2.3405 -0.7110 -1.7517
  768MOL0     H 1330  -1.027  -0.006   5.150  1.2075  2.8029  1.5429
  768MOL0     H 1331  -1.172   0.081   5.203  0.2018  0.1266  1.5709
  768MOL0     H 1332  -1.124  -0.204   5.290  0.3171  2.2357  2.4127
  768MOL0     H 1333  -1.193  -0.167   5.142  3.6718 -0.7012 -0.0221
  768MOL0     H 1334  -1.358  -0.198   5.348 -1.1880  1.7988  2.2355
  768MOL0     H 1335  -1.294  -0.041   5.405  0.2612  0.0118  0.9094
  768MOL0     H 1336  -1.367   0.053   5.192 -0.2959 -1.6747 -1.5492
  768MOL0     H 1337  -1.497  -0.003   5.312  1.5892  2.8119  1.9275
  768MOL0     H 1338  -1.642   0.090   5.152 -0.0984  1.4152 -4.3623
  768MOL0     H 1339  -1.857   0.083   5.049 -1.2600 -0.4282  0.2227
  768MOL0     H 1340  -2.259  -0.166   4.911 -0.6500 -0.7576 -1.2367
  768MOL0     H 1341  -2.468  -0.114   4.824 -1.4262  2.1672  0.5948
  768MOL0     H 1342  -2.495   0.177   4.476  0.3554 -0.5569 -0.4670
  768MOL0     H 1343  -2.559   0.252   4.626 -2.2043  1.1741 -0.9804
  768MOL0     H 1344  -2.769   0.065   4.539  0.6473 -1.5677  0.2889
  768MOL0     H 1345  -2.698   0.137   4.393  1.0883  3.5006 -0.2305
  768MOL0     H 1346  -2.718   0.371   4.498  1.5236 -0.5946  2.9845
  768MOL0     H 1347  -2.826   0.303   4.623 -0.0715 -0.2273  0.1539
  768MOL0     H 1348  -2.925   0.419   4.443  0.8694 -0.2942  1.2027
  768MOL0     H 1349  -2.880   0.290   4.328  1.7982 -1.5454  0.5037
  768MOL0     H 1350  -3.063   0.221   4.569 -0.6712 -0.2268 -0.1792
  768MOL0     H 1351  -3.007   0.114   4.452  1.3861 -0.0666  1.0772
  768MOL0     H 1352  -3.134   0.253   4.282 -2.7425 -0.6852 -1.3425
  768MOL0     H 1353  -3.213   0.331   4.424 -0.5666 -0.4925  0.1048
  768MOL0     H 1354  -3.195   0.042   4.367 -0.1286 -0.5066  0.5732
  768MOL0     H 1355  -3.275   0.090   4.505 -2.6115 -0.8774 -0.1630
  768MOL0     H 1356  -3.349   0.126   4.214  0.0509 -0.3251  0.3280
  768MOL0     H 1357  -3.431   0.234   4.330  2.2368  0.7405  2.3450
  768MOL0     H 1358  -2.329   0.248   4.649  3.3345  2.0809  2.2570
  768MOL0     H 1359  -2.107   0.217   4.761 -1.9350  3.0634 -0.3853
  768MOL0     H 1360  -1.786  -0.312   4.893  5.1038 -0.5923 -2.2462
  768MOL0     H 1361  -1.565  -0.318   5.027  0.3724  0.6939  1.5861
  768MOL0     H 1362  -0.111   0.738   5.627  0.2075  0.2213  1.3570
  768MOL0     H 1363   0.111   0.856   5.671  0.4856  1.4404  3.2495
  768MOL0     H 1364   0.405   1.073   5.985 -0.5652 -1.5723  0.8740
  768MOL0     H 1365   0.621   1.149   6.028 -1.2932  1.2028 -2.5070
  768MOL0     H 1366   0.854   1.172   6.084  1.3663  2.7591 -0.7041
  768MOL0     H 1367   0.813   1.217   5.912 -0.1306  1.5393  1.5441
  768MOL0     H 1368   1.075   1.157   6.049 -1.7227  0.6266  1.0135
  768MOL0     H 1369   1.044   1.133   5.867  0.2030  0.1506 -0.6322
  768MOL0     H 1370   0.986   1.394   6.028 -1.3967  0.0503 -1.8543
  768MOL0     H 1371   0.975   1.372   5.861 -1.4177 -1.7310 -0.0360
  768MOL0     H 1372   1.244   1.333   6.003  0.1184 -0.0524  0.5178
  768MOL0     H 1373   1.222   1.372   5.833  0.2214  0.0719  1.1481
  768MOL0     H 1374   1.159   1.747   6.018  1.8722  0.8242  1.5924
  768MOL0     H 1375   0.777   0.781   5.839 -1.1935 -1.1549  0.8656
  768MOL0     H 1376   0.560   0.734   5.766 -0.0590 -1.9208  1.3519
  769MOL0     O 1377  10.652   6.920   9.277  0.4130 -0.0943  0.1255
  769MOL0     C 1378  10.678   6.942   9.394  0.3585 -1.2093  0.7514
  769MOL0     O 1379  10.605   7.028   9.473 -0.7385  0.5786  0.4979
  769MOL0     C 1380  10.478   7.077   9.432  0.4721 -0.0970 -0.8947
  769MOL0     C 1381  10.453   7.215   9.445  0.0353  0.2497  0.1083
  769MOL0     C 1382  10.334   7.261   9.408 -0.2504 -1.3635  0.4242
  769MOL0     C 1383  10.239   7.182   9.357  0.6983 -0.6082  0.1796
  769MOL0     O 1384  10.122   7.234   9.317  0.1970  0.2688  0.7303
  769MOL0     C 1385  10.132   7.308   9.201 -0.0073  0.8801  0.2399
  769MOL0     C 1386  10.011   7.287   9.115 -0.5057  0.3657  0.2035
  769MOL0     C 1387  10.011   7.166   9.030 -0.7236  0.5916 -0.0594
  769MOL0     C 1388   9.908   7.181   8.921 -0.0203  0.1280  0.4727
  769MOL0     C 1389   9.913   7.072   8.819  0.1026 -0.4855  0.4047
  769MOL0     C 1390   9.797   7.092   8.718  0.4713  0.5089  0.2025
  769MOL0     C 1391   9.820   7.027   8.593 -0.6237  0.8361  0.4480
  769MOL0     C 1392   9.863   6.884   8.588 -0.4929  0.0915  0.4330
  769MOL0     N 1393   9.758   6.788   8.607 -0.1280 -0.0930  0.3095
  769MOL0     C 1394   9.665   6.754   8.514  0.5982  1.0349 -0.9719
  769MOL0     C 1395   9.562   6.690   8.577 -0.5020 -0.4107 -0.2606
  769MOL0     C 1396   9.442   6.646   8.511  0.0369  0.3284 -0.2228
  769MOL0     C 1397   9.354   6.761   8.467  1.2023 -0.1707  0.2363
  769MOL0     C 1398   9.258   6.711   8.363  0.3578 -1.4724 -0.1746
  769MOL0     C 1399   9.154   6.820   8.326  0.0750  0.0164  0.1478
  769MOL0     O 1400   9.050   6.845   8.424  0.7895 -0.2781 -0.5288
  769MOL0     C 1401   8.926   6.865   8.374  0.3954  0.1982  0.8569
  769MOL0     C 1402   8.895   6.964   8.279  1.0098 -0.0699  0.0122
  769MOL0     C 1403   8.766   6.986   8.236 -0.4502 -0.0137  0.3156
  769MOL0     C 1404   8.663   6.902   8.268  0.1548 -0.1822  0.5609
  769MOL0     C 1405   8.533   6.901   8.188 -0.5929 -0.8433 -0.2343
  769MOL0     O 1406   8.504   7.015   8.119 -0.4618  0.2580  0.2994
  769MOL0     C 1407   8.370   7.032   8.094 -0.2196  0.4706 -0.0653
  769MOL0     C 1408   8.297   6.944   8.009 -0.3612 -0.4104 -0.0855
  769MOL0     C 1409   8.162   6.969   7.977  0.1064 -0.9867 -1.1523
  769MOL0     C 1410   8.098   7.081   8.038 -0.6881  0.0285  0.2845
  769MOL0     O 1411   7.962   7.093   7.999 -0.4763 -0.7016 -0.2525
  769MOL0     C 1412   7.873   6.987   7.992 -0.2042 -0.4480  0.6099
  769MOL0     C 1413   7.726   7.031   7.987  0.3012 -0.4646  0.2388
  769MOL0     C 1414   7.686   7.103   8.115  0.4077  0.4388  0.1558
  769MOL0     C 1415   7.543   7.164   8.096 -0.1150 -0.4929  0.6165
  769MOL0     C 1416   7.492   7.184   8.233  0.9198  1.0271 -0.6607
  769MOL0     C 1417   7.370   7.277   8.254 -0.4147 -0.2059  0.1162
  769MOL0     C 1418   7.269   7.277   8.131 -0.2641  0.6452 -0.2883
  769MOL0     C 1419   7.139   7.343   8.170 -0.1763  0.2097 -0.2355
  769MOL0    Cl 1420   7.043   7.338   8.019  0.1391 -0.0510  0.5387
  769MOL0     C 1421   8.174   7.172   8.117 -1.1643 -0.4312  0.3210
  769MOL0     C 1422   8.308   7.151   8.132 -0.1291  0.2329 -0.5946
  769MOL0     O 1423   8.463   6.804   8.193  0.0310 -0.2284  0.4673
  769MOL0     C 1424   8.688   6.802   8.359  0.2514  0.7211  0.2082
  769MOL0     C 1425   8.819   6.785   8.413 -0.0421  0.4551  0.4442
  769MOL0     N 1426   9.609   6.670   8.709 -0.3469 -0.7477 -1.2898
  769MOL0     N 1427   9.725   6.734   8.723  0.6630  0.1506  0.0150
  769MOL0     C 1428  10.259   7.048   9.352  0.4673  0.2966 -0.4176
  769MOL0     C 1429  10.383   6.988   9.386  0.4236 -0.4805 -0.4034
  769MOL0     C 1430  10.798   6.872   9.461  0.0553  0.3570 -0.3589
  769MOL0     C 1431  10.817   6.882   9.596  0.1924  0.2316 -0.5062
  769MOL0     C 1432  10.924   6.824   9.663  0.6539  0.3536  0.9909
  769MOL0     C 1433  11.014   6.747   9.588 -0.4109  0.6166  0.7443
  769MOL0     O 1434  11.126   6.700   9.658  0.3318  1.0692  0.5555
  769MOL0     C 1435  11.223   6.618   9.596 -0.8408  0.6717 -0.4593
  769MOL0     C 1436  11.327   6.713   9.542 -0.8600 -1.3054 -0.5973
  769MOL0     C 1437  11.434   6.642   9.455  0.5975 -0.0228  0.1773
  769MOL0     C 1438  11.552   6.730   9.412  0.0316  0.1143 -0.5989
  769MOL0     C 1439  11.656   6.746   9.517 -0.4577 -0.8308  0.1580
  769MOL0     C 1440  11.740   6.757   9.605 -0.2390 -0.1428  0.6548
  769MOL0     C 1441  10.988   6.734   9.451 -0.9256 -0.4865  0.5545
  769MOL0     C 1442  10.887   6.798   9.381 -0.0968 -0.1397  0.8397
  769MOL0     H 1443  10.534   7.286   9.461 -1.1870  2.3684 -2.2662
  769MOL0     H 1444  10.318   7.368   9.413 -0.8515 -1.3532 -1.1745
  769MOL0     H 1445  10.220   7.274   9.146  0.9860  0.6610  1.8977
  769MOL0     H 1446  10.137   7.413   9.233 -2.1913  1.0725  0.1099
  769MOL0     H 1447  10.014   7.379   9.056  1.3972  1.8638  2.4925
  769MOL0     H 1448   9.923   7.274   9.178  0.4751 -2.9242  1.0916
  769MOL0     H 1449   9.993   7.075   9.089  0.5631  0.5273  0.2721
  769MOL0     H 1450  10.112   7.158   8.988  0.0002  1.7074  1.3839
  769MOL0     H 1451   9.807   7.174   8.962 -0.5427  2.3266 -0.3095
  769MOL0     H 1452   9.918   7.276   8.869  3.3670  1.5731  3.3570
  769MOL0     H 1453   9.903   6.968   8.853  0.9921 -1.6197 -2.5380
  769MOL0     H 1454  10.012   7.069   8.773  0.2427  1.0511  0.5615
  769MOL0     H 1455   9.775   7.198   8.703  0.1456  0.3707 -0.3317
  769MOL0     H 1456   9.708   7.053   8.768 -0.5460  0.4812 -1.5529
  769MOL0     H 1457   9.731   7.036   8.530  0.6819 -0.3049 -1.6697
  769MOL0     H 1458   9.895   7.067   8.524 -1.9521 -0.2657 -1.7228
  769MOL0     H 1459   9.941   6.851   8.658 -0.6218  0.0093  0.5379
  769MOL0     H 1460   9.887   6.860   8.484  0.1001 -0.5978  0.7256
  769MOL0     H 1461   9.660   6.770   8.407 -0.9546 -0.4885 -1.1663
  769MOL0     H 1462   9.384   6.573   8.568  3.4357 -0.4783  2.4857
  769MOL0     H 1463   9.468   6.592   8.419 -1.0618  1.4963 -1.2554
  769MOL0     H 1464   9.419   6.840   8.428  2.9437 -0.9516  1.4051
  769MOL0     H 1465   9.282   6.796   8.542 -0.7979 -0.4653 -1.4478
  769MOL0     H 1466   9.319   6.676   8.278  2.1707 -2.2986  1.3801
  769MOL0     H 1467   9.206   6.623   8.401  2.7202 -3.0260 -0.2799
  769MOL0     H 1468   9.101   6.787   8.236 -2.3241  1.3239  0.9841
  769MOL0     H 1469   9.191   6.921   8.305  0.8048  0.1964  2.0740
  769MOL0     H 1470   8.976   7.030   8.251  1.4460 -0.8592 -0.5946
  769MOL0     H 1471   8.756   7.067   8.165  1.9761 -0.7365 -0.9726
  769MOL0     H 1472   8.327   6.846   7.972 -0.3570 -0.0034 -1.2058
  769MOL0     H 1473   8.104   6.915   7.903 -3.8762  0.5122  0.6125
  769MOL0     H 1474   7.877   6.931   8.086 -3.1009  2.0078  2.3434
  769MOL0     H 1475   7.898   6.930   7.901 -2.0356 -0.7723  0.2821
  769MOL0     H 1476   7.655   6.951   7.966 -0.3737 -0.5984  2.7192
  769MOL0     H 1477   7.714   7.080   7.890  0.3063 -1.8859 -0.5208
  769MOL0     H 1478   7.755   7.183   8.144  0.2305  0.1865  1.3351
  769MOL0     H 1479   7.682   7.028   8.195 -2.5920 -0.3944 -0.6429
  769MOL0     H 1480   7.552   7.262   8.048 -0.7176 -0.2850  0.9217
  769MOL0     H 1481   7.484   7.096   8.034  0.8254  0.1886 -1.1086
  769MOL0     H 1482   7.575   7.213   8.298  0.3673  1.8155 -0.2877
  769MOL0     H 1483   7.467   7.084   8.269  2.9080  0.5240 -0.5692
  769MOL0     H 1484   7.415   7.375   8.274 -0.9855  0.3162 -1.0668
  769MOL0     H 1485   7.330   7.264   8.355 -0.2239  1.8973  0.4940
  769MOL0     H 1486   7.313   7.320   8.040  0.1027  0.7134 -0.0806
  769MOL0     H 1487   7.241   7.178   8.093  1.7587 -0.1654  0.2186
  769MOL0     H 1488   7.162   7.447   8.196  3.4276  0.2377 -2.8095
  769MOL0     H 1489   7.084   7.297   8.253  1.9652 -0.2315  1.0138
  769MOL0     H 1490   8.143   7.270   8.151 -3.8694 -1.5873  1.4900
  769MOL0     H 1491   8.379   7.224   8.171 -0.6051  0.4789 -0.1810
  769MOL0     H 1492   8.626   6.715   8.381  0.0142  0.1688 -2.3717
  769MOL0     H 1493   8.839   6.698   8.475 -0.8731 -0.0002  0.0909
  769MOL0     H 1494  10.184   6.981   9.313 -0.7155  2.2782 -1.7072
  769MOL0     H 1495  10.398   6.883   9.367 -0.4503 -0.7230  0.1874
  769MOL0     H 1496  10.760   6.946   9.663 -1.9204 -0.4166 -1.5770
  769MOL0     H 1497  10.939   6.830   9.770 -2.3407 -1.0381  1.5918
  769MOL0     H 1498  11.188   6.563   9.508  1.5154  0.0949 -1.1055
  769MOL0     H 1499  11.270   6.547   9.664 -2.2212 -0.5990 -0.7604
  769MOL0     H 1500  11.278   6.795   9.490 -1.0469 -0.9190  0.1700
  769MOL0     H 1501  11.389   6.748   9.625 -1.8835 -1.8999  0.4471
  769MOL0     H 1502  11.374   6.620   9.365  0.6785 -0.5861  0.2538
  769MOL0     H 1503  11.468   6.561   9.521 -0.4936  0.6314  1.5788
  769MOL0     H 1504  11.600   6.676   9.329 -0.6504 -0.9061 -0.3561
  769MOL0     H 1505  11.529   6.829   9.373 -0.1814  1.2009  2.0919
  769MOL0     H 1506  11.805   6.762   9.690  0.4180 -2.7540  0.3931
  769MOL0     H 1507  11.068   6.695   9.389 -0.5801  0.9947  0.0045
  769MOL0     H 1508  10.873   6.790   9.274  1.9631 -0.1218  0.5386
  770MOL0     O 1509   6.048  10.775   3.183  0.2904  0.1884 -0.2386
  770MOL0     C 1510   6.080  10.670   3.127 -0.2775 -0.1476 -0.1190
  770MOL0     O 1511   6.003  10.598   3.046 -0.0568 -0.5185 -0.3669
  770MOL0     C 1512   5.873  10.632   3.017 -0.4989 -0.2064  0.8258
  770MOL0     C 1513   5.776  10.684   3.103  0.3043  0.0337  0.6977
  770MOL0     C 1514   5.651  10.727   3.063 -0.0736  0.4819  0.2336
  770MOL0     C 1515   5.621  10.724   2.933 -0.1873 -0.4567  0.1393
  770MOL0     O 1516   5.509  10.801   2.901 -0.4810 -0.0417 -0.3300
  770MOL0     C 1517   5.501  10.840   2.761 -0.0563  0.4168  0.0461
  770MOL0     C 1518   5.367  10.907   2.728 -0.7034 -0.4292 -0.4888
  770MOL0     C 1519   5.255  10.801   2.726  0.4470  0.4687 -0.0271
  770MOL0     C 1520   5.132  10.880   2.707 -0.1640 -0.8369  0.5176
  770MOL0     C 1521   5.008  10.804   2.727  0.4114  0.1259  1.1642
  770MOL0     C 1522   4.969  10.777   2.867 -0.6126  1.0699  1.0366
  770MOL0     C 1523   4.841  10.696   2.892 -0.5085  1.0706  0.5650
  770MOL0     C 1524   4.815  10.679   3.044  0.1207  0.3208  0.3068
  770MOL0     N 1525   4.676  10.677   3.085  0.1488 -0.2742 -0.0674
  770MOL0     C 1526   4.585  10.582   3.035 -0.1834  0.1114 -0.2227
  770MOL0     C 1527   4.468  10.633   3.083  0.6596  0.2790 -0.3807
  770MOL0     C 1528   4.336  10.564   3.062  1.4353  0.2848  0.4663
  770MOL0     C 1529   4.273  10.616   2.934  0.2466  0.2077 -0.6723
  770MOL0     C 1530   4.126  10.568   2.929 -0.0389  0.2891 -0.4109
  770MOL0     C 1531   4.050  10.653   2.824 -0.0365  0.5909 -0.1358
  770MOL0     O 1532   3.915  10.673   2.852  0.0705  0.7374 -0.2437
  770MOL0     C 1533   3.832  10.565   2.844 -0.5097 -0.1961 -0.2559
  770MOL0     C 1534   3.859  10.431   2.800  0.2802 -0.6002 -0.1466
  770MOL0     C 1535   3.765  10.337   2.796 -0.0134 -0.1769  0.0837
  770MOL0     C 1536   3.636  10.374   2.830 -0.9175  0.7909  0.7692
  770MOL0     C 1537   3.523  10.274   2.818  0.0120 -0.0867 -0.5329
  770MOL0     O 1538   3.393  10.321   2.840 -0.4025 -0.2057  0.0143
  770MOL0     C 1539   3.283  10.232   2.818  0.3477  0.2818 -0.4333
  770MOL0     C 1540   3.199  10.219   2.928 -0.3694 -0.6307 -0.4506
  770MOL0     C 1541   3.081  10.140   2.916 -0.4390 -0.5714 -1.0507
  770MOL0     C 1542   3.058  10.069   2.798  0.8087 -0.2080 -0.1525
  770MOL0     O 1543   2.945   9.994   2.796  0.0919 -0.1093 -0.0182
  770MOL0     C 1544   2.822  10.058   2.754  0.6113 -0.0032  0.2319
  770MOL0     C 1545   2.706   9.982   2.815  0.3795  0.5047 -0.4073
  770MOL0     C 1546   2.712   9.978   2.963 -0.6220  0.0854 -1.4440
  770MOL0     C 1547   2.577   9.938   3.028  0.1769 -0.5121 -0.2985
  770MOL0     C 1548   2.586   9.965   3.181  0.3027  0.2918 -0.1887
  770MOL0     C 1549   2.455   9.908   3.248  0.0707 -0.4833  0.2209
  770MOL0     C 1550   2.466   9.932   3.402  0.2134  0.6054  0.0808
  770MOL0     C 1551   2.338   9.913   3.487 -0.5112  0.5765 -0.1336
  770MOL0    Cl 1552   2.273   9.750   3.474 -0.0433  0.2177  0.5183
  770MOL0     C 1553   3.160  10.065   2.691  0.5438 -0.2811 -0.6851
  770MOL0     C 1554   3.264  10.153   2.703  0.1616 -0.1119 -0.6595
  770MOL0     O 1555   3.546  10.162   2.773  0.2376  0.2737  0.0199
  770MOL0     C 1556   3.610  10.496   2.899  0.4972  0.0397  0.2651
  770MOL0     C 1557   3.706  10.593   2.898  0.0053  0.6931  0.0104
  770MOL0     N 1558   4.490  10.761   3.143  0.0606  0.6464 -0.4250
  770MOL0     N 1559   4.615  10.780   3.151  0.1018  0.2300  0.5015
  770MOL0     C 1560   5.710  10.653   2.843 -0.2700 -0.5316  0.4491
  770MOL0     C 1561   5.834  10.608   2.884 -0.1297 -0.7434  0.6035
  770MOL0     C 1562   6.216  10.631   3.143  0.0900 -0.6607  0.3171
  770MOL0     C 1563   6.243  10.494   3.110 -0.1999  0.5009  0.0897
  770MOL0     C 1564   6.368  10.440   3.130  0.1627 -0.5142 -0.9928
  770MOL0     C 1565   6.478  10.518   3.170 -0.5179 -0.1472 -0.3231
  770MOL0     O 1566   6.598  10.448   3.170 -0.3756 -0.7161 -0.0845
  770MOL0     C 1567   6.724  10.522   3.188 -0.1020  0.4694 -0.7099
  770MOL0     C 1568   6.838  10.426   3.127  0.6752 -0.2561  1.2517
  770MOL0     C 1569   6.809  10.395   2.980  0.6561 -0.0063  0.2328
  770MOL0     C 1570   6.904  10.295   2.911  0.1186  0.1175 -0.3088
  770MOL0     C 1571   7.035  10.357   2.856 -0.0170 -0.1188 -0.1963
  770MOL0     C 1572   7.118  10.416   2.791  0.0588 -0.2901  0.6599
  770MOL0     C 1573   6.457  10.664   3.191 -0.9304 -0.6335  0.7087
  770MOL0     C 1574   6.325  10.713   3.186 -0.2225 -0.3630  0.5104
  770MOL0     H 1575   5.817  10.698   3.203  2.1350  3.2581 -0.3345
  770MOL0     H 1576   5.574  10.763   3.131 -3.1339  1.6186 -3.5324
  770MOL0     H 1577   5.502  10.749   2.700 -0.6762 -1.1914  2.2945
  770MOL0     H 1578   5.578  10.907   2.722  0.0295  0.0230 -0.4764
  770MOL0     H 1579   5.367  10.953   2.629 -0.6589 -1.4443 -0.9668
  770MOL0     H 1580   5.349  10.987   2.801  0.3002  0.8111 -1.5647
  770MOL0     H 1581   5.253  10.735   2.814  0.1717  0.1353 -0.2801
  770MOL0     H 1582   5.262  10.744   2.633 -0.8242  0.9964 -0.4668
  770MOL0     H 1583   5.128  10.966   2.774 -0.8870  0.2564 -0.9059
  770MOL0     H 1584   5.123  10.930   2.611  0.5485 -0.5294  0.6080
  770MOL0     H 1585   5.010  10.704   2.683 -4.2396  0.2747  0.0474
  770MOL0     H 1586   4.928  10.856   2.674  3.2574  3.1270 -0.5852
  770MOL0     H 1587   4.956  10.871   2.920 -0.3192  1.0046  1.2246
  770MOL0     H 1588   5.056  10.728   2.911 -0.8018 -0.5484 -0.2539
  770MOL0     H 1589   4.758  10.754   2.849 -0.9513 -1.6329 -2.6593
  770MOL0     H 1590   4.847  10.601   2.838  3.6949  0.9771  0.8869
  770MOL0     H 1591   4.866  10.763   3.091 -1.2679  2.3484 -1.6353
  770MOL0     H 1592   4.862  10.588   3.082 -1.5196 -0.3140  0.9041
  770MOL0     H 1593   4.609  10.496   2.973  0.2391  0.9274 -1.2261
  770MOL0     H 1594   4.268  10.576   3.146 -1.3115  1.3308 -1.7466
  770MOL0     H 1595   4.360  10.458   3.047 -1.2883 -0.5322  1.2050
  770MOL0     H 1596   4.340  10.578   2.856  0.9153 -1.7629  0.7735
  770MOL0     H 1597   4.284  10.725   2.939 -1.3257  0.3572  0.2980
  770MOL0     H 1598   4.131  10.460   2.910 -0.2280  0.0579  0.7387
  770MOL0     H 1599   4.070  10.584   3.021 -1.9538  1.2799 -1.6895
  770MOL0     H 1600   4.066  10.615   2.723 -1.0547  0.6996 -0.3472
  770MOL0     H 1601   4.097  10.752   2.825  2.7188 -0.5600 -2.0560
  770MOL0     H 1602   3.960  10.419   2.761 -0.1294 -0.4404 -1.2817
  770MOL0     H 1603   3.797  10.238   2.767  1.0475 -0.6525  2.6242
  770MOL0     H 1604   3.211  10.271   3.022 -0.0914 -0.7211 -0.4373
  770MOL0     H 1605   3.011  10.143   2.999  0.5182 -0.5172 -0.2204
  770MOL0     H 1606   2.803  10.049   2.646  0.5845  2.2238  0.0004
  770MOL0     H 1607   2.819  10.165   2.779  1.0435  1.1544 -3.8092
  770MOL0     H 1608   2.697   9.879   2.779  2.1519 -0.2189  1.0436
  770MOL0     H 1609   2.616  10.038   2.790 -0.6104  0.0914  1.9537
  770MOL0     H 1610   2.724  10.082   2.995 -2.4077 -0.1578  0.2316
  770MOL0     H 1611   2.785   9.904   2.997  0.7872  0.6093 -3.2016
  770MOL0     H 1612   2.499   9.991   2.974 -0.3274 -2.3366 -1.4644
  770MOL0     H 1613   2.567   9.830   3.011 -1.6656 -0.2350 -1.1721
  770MOL0     H 1614   2.601  10.071   3.205  0.8517  0.5253 -1.5046
  770MOL0     H 1615   2.671   9.909   3.219 -0.3609 -0.1511  0.6871
  770MOL0     H 1616   2.431   9.806   3.217 -1.5682 -0.0692  0.0527
  770MOL0     H 1617   2.381   9.974   3.201 -0.7850 -1.5477  0.0338
  770MOL0     H 1618   2.547   9.863   3.427  0.0885  0.0321 -1.0617
  770MOL0     H 1619   2.501  10.031   3.433 -0.0241  0.0867  2.1055
  770MOL0     H 1620   2.259   9.980   3.451 -1.3195  0.9199  2.0808
  770MOL0     H 1621   2.359   9.920   3.594  1.1313 -1.0637 -0.3053
  770MOL0     H 1622   3.140   9.995   2.611 -1.3450 -0.0359 -0.4769
  770MOL0     H 1623   3.344  10.166   2.630  0.5386  0.6761 -0.1255
  770MOL0     H 1624   3.514  10.525   2.940  0.0721 -2.4311  1.2047
  770MOL0     H 1625   3.675  10.688   2.940 -1.0640  0.0874  0.6432
  770MOL0     H 1626   5.692  10.633   2.738 -0.2890 -1.4570  0.6204
  770MOL0     H 1627   5.902  10.577   2.806 -0.9078  2.4518 -1.5507
  770MOL0     H 1628   6.166  10.428   3.070  1.8915 -1.4394 -1.0276
  770MOL0     H 1629   6.391  10.337   3.107 -1.7048 -1.2211  0.0847
  770MOL0     H 1630   6.741  10.533   3.296 -3.3945 -0.7398  0.0566
  770MOL0     H 1631   6.720  10.623   3.145 -3.1084  0.9049  0.2982
  770MOL0     H 1632   6.937  10.472   3.139  1.9158 -2.1449 -1.0527
  770MOL0     H 1633   6.836  10.334   3.186 -1.5885 -0.2524  1.2769
  770MOL0     H 1634   6.815  10.486   2.920 -0.2594 -0.5138 -0.6650
  770MOL0     H 1635   6.707  10.355   2.970 -0.0528  1.9582 -1.0009
  770MOL0     H 1636   6.927  10.210   2.976  0.8399  1.8809  1.8738
  770MOL0     H 1637   6.839  10.257   2.832 -1.0176  0.1664  0.5667
  770MOL0     H 1638   7.187  10.478   2.738  0.0395 -0.6693  0.1876
  770MOL0     H 1639   6.522  10.741   3.231 -3.7682  1.9522  0.7432
  770MOL0     H 1640   6.301  10.818   3.203 -1.8007 -0.6566  0.2424
  771MOL0     O 1641   9.492   7.765   0.212  0.0381 -0.4833  0.1465
  771MOL0     C 1642   9.518   7.759   0.333 -0.0495 -0.8159  0.7988
  771MOL0     O 1643   9.424   7.747   0.432  0.2719  0.2326 -0.8554
  771MOL0     C 1644   9.291   7.720   0.413 -0.7689 -0.3143  0.1115
  771MOL0     C 1645   9.198   7.789   0.488 -0.1136  0.3215 -0.4299
  771MOL0     C 1646   9.067   7.777   0.460  0.0930  0.6191  0.0446
  771MOL0     C 1647   9.021   7.693   0.362  0.5501  0.5911  0.0797
  771MOL0     O 1648   8.887   7.661   0.352  0.1875 -0.6151  0.3195
  771MOL0     C 1649   8.798   7.785   0.334  0.1009  0.1108  0.2090
  771MOL0     C 1650   8.660   7.735   0.298  0.8319  0.0134  0.1522
  771MOL0     C 1651   8.559   7.851   0.320 -0.6554 -0.3235  0.1328
  771MOL0     C 1652   8.420   7.805   0.291  0.3124  0.0725 -0.4184
  771MOL0     C 1653   8.402   7.785   0.143 -0.4627 -1.0819  0.1363
  771MOL0     C 1654   8.256   7.756   0.091 -0.7310  0.4460 -0.7029
  771MOL0     C 1655   8.142   7.835   0.160 -0.3641  0.7434  0.0237
  771MOL0     C 1656   8.006   7.825   0.092 -0.5956 -0.2427  0.0425
  771MOL0     N 1657   7.893   7.898   0.161  0.0216  0.4006  0.1641
  771MOL0     C 1658   7.852   7.879   0.289  0.2745 -0.5401  0.6387
  771MOL0     C 1659   7.782   7.988   0.316  0.6261  0.4040  1.0700
  771MOL0     C 1660   7.696   8.012   0.438  0.0618 -0.0772  0.1215
  771MOL0     C 1661   7.553   7.956   0.429  0.2379  0.8606  0.0202
  771MOL0     C 1662   7.454   8.041   0.352  0.0238 -0.4538  0.0418
  771MOL0     C 1663   7.316   7.988   0.314 -0.2024 -0.4683  0.3136
  771MOL0     O 1664   7.261   7.955   0.441 -1.0451 -0.3802 -0.0785
  771MOL0     C 1665   7.123   7.931   0.431 -0.9528 -0.2526 -0.5246
  771MOL0     C 1666   7.057   7.901   0.320  0.4009 -0.8337  0.8972
  771MOL0     C 1667   6.923   7.876   0.325  0.9336 -0.0900  0.6046
  771MOL0     C 1668   6.855   7.864   0.449  0.1633 -0.0353  0.8600
  771MOL0     C 1669   6.715   7.833   0.454  0.9649 -0.1865  0.1668
  771MOL0     O 1670   6.651   7.813   0.333 -0.0583  0.2580 -0.4649
  771MOL0     C 1671   6.514   7.781   0.339 -0.4960  0.0194  0.1003
  771MOL0     C 1672   6.413   7.881   0.352  0.4567  0.0705  0.9682
  771MOL0     C 1673   6.280   7.843   0.344  0.5969 -0.5961 -0.2100
  771MOL0     C 1674   6.246   7.712   0.307  0.6698 -0.2196 -0.4088
  771MOL0     O 1675   6.117   7.677   0.273 -0.0551 -0.3344 -0.9085
  771MOL0     C 1676   6.057   7.567   0.332  0.1533  0.5921 -0.4695
  771MOL0     C 1677   5.906   7.587   0.319 -0.0947 -0.1114  0.3440
  771MOL0     C 1678   5.834   7.466   0.376  0.1791 -0.0134  0.4389
  771MOL0     C 1679   5.681   7.491   0.358 -0.2944  0.2295  0.5836
  771MOL0     C 1680   5.610   7.368   0.409 -0.5589 -0.4134  0.4636
  771MOL0     C 1681   5.463   7.376   0.401  0.5310  0.0403 -1.0320
  771MOL0     C 1682   5.388   7.269   0.484  0.0556 -1.4035  0.6516
  771MOL0     C 1683   5.240   7.328   0.491 -0.1728 -0.4653  0.1332
  771MOL0    Cl 1684   5.156   7.222   0.589 -0.2995  0.1917  0.2726
  771MOL0     C 1685   6.349   7.611   0.287 -0.1731  0.1139 -0.5061
  771MOL0     C 1686   6.481   7.651   0.301 -0.1809  0.6333 -0.8973
  771MOL0     O 1687   6.654   7.809   0.563  0.2272  0.2644 -0.0299
  771MOL0     C 1688   6.925   7.900   0.568  0.0747 -0.3984  0.6424
  771MOL0     C 1689   7.061   7.929   0.555 -0.1940 -0.2187 -0.3664
  771MOL0     N 1690   7.792   8.071   0.208 -0.0693  0.7042 -0.9847
  771MOL0     N 1691   7.852   8.009   0.111 -0.1816  0.0226  0.5120
  771MOL0     C 1692   9.115   7.614   0.293  0.2521 -0.2435  0.3394
  771MOL0     C 1693   9.248   7.616   0.317 -0.8387 -0.0511  0.9027
  771MOL0     C 1694   9.662   7.778   0.363 -0.2824 -0.4905 -1.5358
  771MOL0     C 1695   9.755   7.752   0.274 -1.3102 -0.4422  0.3996
  771MOL0     C 1696   9.891   7.780   0.304  0.1410 -0.4068 -0.7460
  771MOL0     C 1697   9.937   7.818   0.432 -0.6858 -0.3099 -0.1031
  771MOL0     O 1698  10.073   7.838   0.459  0.1071 -0.3111 -0.4131
  771MOL0     C 1699  10.114   7.889   0.586 -0.4043 -0.2735  0.7717
  771MOL0     C 1700  10.253   7.950   0.567  0.0029  0.2463 -1.5708
  771MOL0     C 1701  10.333   7.934   0.704 -0.5016  0.3705  0.6231
  771MOL0     C 1702  10.356   8.055   0.789  0.5435 -0.3809 -0.1608
  771MOL0     C 1703  10.226   8.094   0.840  0.5656 -0.3617 -0.4460
  771MOL0     C 1704  10.112   8.133   0.871  0.3719  0.4100 -1.0404
  771MOL0     C 1705   9.837   7.829   0.529 -0.1525 -0.5966  0.4761
  771MOL0     C 1706   9.706   7.816   0.491  0.0850 -0.3805 -0.1250
  771MOL0     H 1707   9.239   7.851   0.567  0.6910 -2.6135  1.6210
  771MOL0     H 1708   8.994   7.836   0.514  1.7152  1.4845  1.3903
  771MOL0     H 1709   8.844   7.846   0.256  0.6223  0.4730  0.7830
  771MOL0     H 1710   8.799   7.850   0.423 -0.4338  0.3588  0.0380
  771MOL0     H 1711   8.634   7.652   0.364 -2.9233 -0.9061 -2.2142
  771MOL0     H 1712   8.654   7.689   0.200 -1.2464 -1.8202  1.0767
  771MOL0     H 1713   8.585   7.932   0.250 -0.2985  0.5172  1.2053
  771MOL0     H 1714   8.562   7.895   0.420 -2.1105  1.1454 -0.4051
  771MOL0     H 1715   8.403   7.714   0.350  2.2631  0.0007  0.1260
  771MOL0     H 1716   8.359   7.890   0.321 -0.7403  0.2379 -2.8698
  771MOL0     H 1717   8.473   7.708   0.111 -0.0803 -0.8364  0.3969
  771MOL0     H 1718   8.426   7.883   0.102  0.7073 -0.1025  2.9730
  771MOL0     H 1719   8.241   7.649   0.110 -0.5875  0.5778  0.2137
  771MOL0     H 1720   8.262   7.768  -0.018  0.9032 -2.3249 -1.0131
  771MOL0     H 1721   8.131   7.793   0.260  0.1412 -0.4782 -0.4172
  771MOL0     H 1722   8.160   7.943   0.173  1.4133  0.6953 -1.5465
  771MOL0     H 1723   7.984   7.717   0.097 -2.2637 -0.0585 -1.9114
  771MOL0     H 1724   8.027   7.859  -0.010 -0.2967  0.5618  0.3621
  771MOL0     H 1725   7.870   7.788   0.346  0.2115 -1.0278 -0.1003
  771MOL0     H 1726   7.690   8.119   0.457 -1.4270 -0.0762 -0.2586
  771MOL0     H 1727   7.753   7.973   0.523 -0.5308  0.0926  0.6012
  771MOL0     H 1728   7.510   7.962   0.530  1.2186  2.9182  0.3696
  771MOL0     H 1729   7.555   7.854   0.391 -0.8168  0.7345  0.2766
  771MOL0     H 1730   7.440   8.132   0.412  2.0834  1.1364 -1.7504
  771MOL0     H 1731   7.508   8.066   0.261  0.2223  0.1909  0.3317
  771MOL0     H 1732   7.333   7.907   0.243  0.4557  1.7057 -2.1647
  771MOL0     H 1733   7.255   8.062   0.261 -0.2917 -1.8620 -1.6710
  771MOL0     H 1734   7.103   7.891   0.222  1.7406 -0.5022  1.4764
  771MOL0     H 1735   6.880   7.853   0.228 -0.8116 -0.2530  1.3948
  771MOL0     H 1736   6.439   7.982   0.380 -1.0526  0.9013 -0.4038
  771MOL0     H 1737   6.192   7.905   0.354 -0.0286 -1.6077  0.9372
  771MOL0     H 1738   6.092   7.556   0.435 -3.4749  0.0847  0.8432
  771MOL0     H 1739   6.077   7.468   0.290 -0.3617 -0.4399  1.5996
  771MOL0     H 1740   5.879   7.596   0.213  0.9832  0.9212  0.1285
  771MOL0     H 1741   5.872   7.682   0.361 -1.3287  0.5992 -2.0878
  771MOL0     H 1742   5.852   7.463   0.483 -2.8234 -0.5515  1.0351
  771MOL0     H 1743   5.862   7.377   0.319  0.9845  0.8819 -0.6053
  771MOL0     H 1744   5.662   7.577   0.423 -0.8285  0.5638 -0.0001
  771MOL0     H 1745   5.663   7.516   0.253 -0.7993 -1.9997  0.1003
  771MOL0     H 1746   5.632   7.371   0.516 -3.1612  1.0390  1.0466
  771MOL0     H 1747   5.656   7.276   0.370  1.1017  1.0285 -1.1766
  771MOL0     H 1748   5.425   7.368   0.299 -0.8163  0.4772 -0.5801
  771MOL0     H 1749   5.435   7.474   0.441  0.9081  0.7289 -2.3767
  771MOL0     H 1750   5.382   7.177   0.425  0.8529  0.0657 -1.8842
  771MOL0     H 1751   5.433   7.255   0.583  1.4469 -3.0018 -0.1652
  771MOL0     H 1752   5.198   7.330   0.390 -0.4964 -3.3006  0.1173
  771MOL0     H 1753   5.240   7.425   0.541 -0.1761 -0.1873 -0.4023
  771MOL0     H 1754   6.319   7.511   0.257  0.2758 -0.6847  1.5302
  771MOL0     H 1755   6.563   7.582   0.288 -1.0206 -0.4717 -0.5426
  771MOL0     H 1756   6.876   7.903   0.665  0.1094  0.2699  0.6477
  771MOL0     H 1757   7.126   7.945   0.640  1.8912  2.4791 -2.2996
  771MOL0     H 1758   9.082   7.546   0.216  1.3054  0.5195 -0.8406
  771MOL0     H 1759   9.311   7.563   0.246 -1.0823  0.6122  0.1724
  771MOL0     H 1760   9.734   7.704   0.179  2.7615 -3.1697  0.6429
  771MOL0     H 1761   9.974   7.768   0.235  1.5758 -2.1125  1.1696
  771MOL0     H 1762  10.116   7.803   0.654 -1.1328 -1.1057 -0.2261
  771MOL0     H 1763  10.046   7.962   0.632  0.0817 -0.6287  2.1059
  771MOL0     H 1764  10.310   7.898   0.489  1.2125 -1.4729  0.3425
  771MOL0     H 1765  10.250   8.056   0.538 -1.2177  0.1885 -1.6844
  771MOL0     H 1766  10.429   7.886   0.678 -0.0843  1.8780 -0.8137
  771MOL0     H 1767  10.290   7.849   0.757 -0.5301  0.2345  0.3838
  771MOL0     H 1768  10.416   8.025   0.876  1.4124 -2.2675 -1.3472
  771MOL0     H 1769  10.412   8.122   0.722 -2.8365 -0.7484 -3.6849
  771MOL0     H 1770  10.012   8.168   0.886 -0.8349 -3.3749  1.0948
  771MOL0     H 1771   9.856   7.851   0.633 -2.4094  0.0371  0.8111
  771MOL0     H 1772   9.631   7.833   0.567 -0.8665  1.9635 -1.4744
  772MOL0     O 1773   5.083   0.532   3.910  0.1854 -0.7204 -0.4237
  772MOL0     C 1774   5.053   0.563   3.797  0.1422 -0.4388 -0.5844
  772MOL0     O 1775   5.139   0.609   3.700 -1.0830  0.0678 -0.1635
  772MOL0     C 1776   5.276   0.607   3.720  0.3516  0.2222  0.4325
  772MOL0     C 1777   5.358   0.610   3.612 -0.3151 -0.3572  0.7284
  772MOL0     C 1778   5.498   0.622   3.614 -0.1791  0.7615 -0.4652
  772MOL0     C 1779   5.561   0.630   3.737  0.6824  0.0578  0.2240
  772MOL0     O 1780   5.702   0.615   3.735 -0.0540  0.1943  0.1755
  772MOL0     C 1781   5.775   0.603   3.859  0.2052  0.7050  0.8282
  772MOL0     C 1782   5.908   0.531   3.825  0.1857 -0.3244  0.2536
  772MOL0     C 1783   5.993   0.613   3.732 -0.6396 -0.0661 -0.5694
  772MOL0     C 1784   6.135   0.564   3.751 -0.5124  0.5713 -1.0804
  772MOL0     C 1785   6.229   0.671   3.708 -0.3263  0.2516  0.2833
  772MOL0     C 1786   6.381   0.625   3.719  0.3138 -1.2324 -0.1652
  772MOL0     C 1787   6.473   0.695   3.615 -0.4010 -0.5744  0.3433
  772MOL0     C 1788   6.615   0.640   3.589  0.8267  0.4929 -0.3514
  772MOL0     N 1789   6.716   0.673   3.701  0.0457  0.1984  0.5221
  772MOL0     C 1790   6.814   0.764   3.700 -0.2820  0.4323 -1.1737
  772MOL0     C 1791   6.852   0.777   3.828 -0.4812  1.1126  1.0185
  772MOL0     C 1792   6.960   0.872   3.874 -0.5331 -0.4594  0.5131
  772MOL0     C 1793   6.909   0.967   3.986  0.1461 -0.1691  0.2594
  772MOL0     C 1794   6.778   1.042   3.951 -0.3235 -0.0857  0.9018
  772MOL0     C 1795   6.649   0.958   3.940  0.2780  0.1915 -0.7385
  772MOL0     O 1796   6.544   1.045   3.967 -0.6883 -0.5443 -0.0911
  772MOL0     C 1797   6.425   0.991   4.008  0.4158 -0.7991 -0.3206
  772MOL0     C 1798   6.398   0.856   4.012  0.7360  0.3154  0.1097
  772MOL0     C 1799   6.272   0.814   4.051  0.6751 -0.7567  0.3313
  772MOL0     C 1800   6.166   0.905   4.072 -0.6197  0.4260 -1.0264
  772MOL0     C 1801   6.029   0.854   4.076  0.1437  0.5466  0.6106
  772MOL0     O 1802   5.931   0.940   4.104 -0.4248  0.1825 -0.2361
  772MOL0     C 1803   5.808   0.897   4.154  1.2525  0.5108  0.4681
  772MOL0     C 1804   5.702   0.994   4.154 -0.7839 -1.4368  0.1370
  772MOL0     C 1805   5.570   0.954   4.185 -0.3053  0.9812 -0.7200
  772MOL0     C 1806   5.542   0.822   4.232 -0.0886 -0.1009  0.1034
  772MOL0     O 1807   5.419   0.774   4.276 -0.4397  0.4941  0.0056
  772MOL0     C 1808   5.313   0.869   4.307 -0.5687  0.0499  0.4061
  772MOL0     C 1809   5.190   0.807   4.373 -0.0557 -0.4878 -0.8082
  772MOL0     C 1810   5.110   0.726   4.278  0.0660 -0.2507  0.7793
  772MOL0     C 1811   4.953   0.737   4.306 -0.7557  0.3859 -0.1428
  772MOL0     C 1812   4.888   0.631   4.210  0.5351 -0.4324 -0.5253
  772MOL0     C 1813   4.740   0.584   4.249  0.2442  0.1926  0.8725
  772MOL0     C 1814   4.656   0.704   4.295 -0.3222  0.1728 -0.2120
  772MOL0     C 1815   4.504   0.663   4.293 -0.2351 -0.2469  0.6279
  772MOL0    Cl 1816   4.471   0.671   4.119  0.0764  0.4108 -0.2015
  772MOL0     C 1817   5.651   0.736   4.238 -1.1750 -0.4043 -0.2623
  772MOL0     C 1818   5.785   0.771   4.213 -0.2956  0.2958  0.5320
  772MOL0     O 1819   6.017   0.731   4.064 -0.0649 -0.2364 -0.1801
  772MOL0     C 1820   6.200   1.039   4.083 -0.2952  0.4325  0.0280
  772MOL0     C 1821   6.327   1.081   4.048 -0.5695 -0.4855 -0.7846
  772MOL0     N 1822   6.779   0.687   3.909  0.4257 -0.0998  0.9664
  772MOL0     N 1823   6.700   0.628   3.829 -0.5916  0.1717  0.8224
  772MOL0     C 1824   5.484   0.651   3.852  0.1473  0.6536 -1.0169
  772MOL0     C 1825   5.343   0.649   3.840  0.0931  0.1487 -0.1473
  772MOL0     C 1826   4.902   0.556   3.772  0.0309  0.0930 -0.0305
  772MOL0     C 1827   4.815   0.498   3.867 -0.6149 -0.3512  0.2998
  772MOL0     C 1828   4.673   0.478   3.854 -1.4061  0.1549  0.6895
  772MOL0     C 1829   4.611   0.523   3.746 -0.7670 -0.2597  0.5975
  772MOL0     O 1830   4.473   0.503   3.735 -0.0652 -0.0079 -0.5589
  772MOL0     C 1831   4.397   0.566   3.628 -0.2441 -0.5128 -0.6275
  772MOL0     C 1832   4.402   0.490   3.499  0.3490  0.7963 -0.0586
  772MOL0     C 1833   4.297   0.543   3.404 -0.0830 -0.4556  0.2720
  772MOL0     C 1834   4.191   0.429   3.374  0.4192  0.1456  0.2056
  772MOL0     C 1835   4.097   0.465   3.261 -0.7721  0.1875 -0.2810
  772MOL0     C 1836   4.026   0.485   3.169  0.0802  0.8104  0.1280
  772MOL0     C 1837   4.693   0.597   3.646  0.3301 -0.2589 -0.0065
  772MOL0     C 1838   4.834   0.617   3.665  0.9226 -0.1358  0.2900
  772MOL0     H 1839   5.302   0.599   3.519  0.6950  2.3753 -0.3093
  772MOL0     H 1840   5.544   0.622   3.515 -1.3894 -0.3338 -1.0507
  772MOL0     H 1841   5.726   0.531   3.925  0.6501 -0.2556  0.1367
  772MOL0     H 1842   5.792   0.700   3.906  2.0885  0.3697  0.8997
  772MOL0     H 1843   5.876   0.447   3.762 -0.4549  0.2044 -0.1455
  772MOL0     H 1844   5.952   0.489   3.916 -1.0065 -3.5688 -0.5475
  772MOL0     H 1845   5.980   0.717   3.762 -2.3052  0.9634 -4.2774
  772MOL0     H 1846   5.946   0.628   3.635 -0.9569  1.2539 -0.2310
  772MOL0     H 1847   6.149   0.535   3.856 -0.2501 -0.1904 -1.3165
  772MOL0     H 1848   6.150   0.477   3.686 -2.1506  1.5284 -2.8544
  772MOL0     H 1849   6.214   0.763   3.765 -0.6852  0.8365 -0.7395
  772MOL0     H 1850   6.204   0.696   3.605 -0.3242 -0.8805 -0.0069
  772MOL0     H 1851   6.381   0.520   3.688  0.8088 -1.3716  0.3167
  772MOL0     H 1852   6.416   0.654   3.818  1.9991  2.7411 -1.7184
  772MOL0     H 1853   6.438   0.686   3.512  1.3303 -2.5302 -0.1363
  772MOL0     H 1854   6.476   0.797   3.655  0.3423  0.0100 -1.1476
  772MOL0     H 1855   6.659   0.683   3.499  1.6943 -0.2770 -0.3069
  772MOL0     H 1856   6.611   0.532   3.577 -0.1013  0.6314 -1.5291
  772MOL0     H 1857   6.855   0.812   3.612  0.7918  0.7521 -0.5207
  772MOL0     H 1858   6.995   0.937   3.793 -1.7445  0.5319  0.7591
  772MOL0     H 1859   7.040   0.807   3.912  2.3217  1.9443 -1.0123
  772MOL0     H 1860   6.979   1.047   4.011 -0.0690  0.7201 -1.8279
  772MOL0     H 1861   6.895   0.915   4.081  1.8227  0.0328  0.6456
  772MOL0     H 1862   6.769   1.120   4.028 -0.2056  2.8227 -1.8269
  772MOL0     H 1863   6.790   1.089   3.853  1.1904 -0.0936  1.0657
  772MOL0     H 1864   6.652   0.883   4.019 -0.9946 -1.6256 -2.3205
  772MOL0     H 1865   6.640   0.912   3.841 -1.3572 -2.1712  0.4332
  772MOL0     H 1866   6.470   0.778   3.991 -0.6993 -1.0978  0.2630
  772MOL0     H 1867   6.249   0.709   4.042 -1.8870 -0.0952 -1.8980
  772MOL0     H 1868   5.715   1.100   4.137  1.7654 -1.6983  0.0818
  772MOL0     H 1869   5.487   1.022   4.174  0.5210  1.9697 -0.9894
  772MOL0     H 1870   5.287   0.929   4.220 -0.3784 -2.0970 -1.2385
  772MOL0     H 1871   5.359   0.934   4.381 -0.0543 -1.3266  1.3481
  772MOL0     H 1872   5.127   0.887   4.410 -0.0562  0.9921 -3.7307
  772MOL0     H 1873   5.222   0.750   4.461 -0.7052  0.8160  0.2981
  772MOL0     H 1874   5.150   0.624   4.280  1.9076  0.3987 -0.7437
  772MOL0     H 1875   5.125   0.765   4.177  0.3378 -1.1289  0.4701
  772MOL0     H 1876   4.921   0.714   4.409 -2.2302  0.8199 -0.4754
  772MOL0     H 1877   4.908   0.835   4.286 -0.3693  0.9654  1.5861
  772MOL0     H 1878   4.949   0.543   4.191 -0.4311 -0.6039 -3.1972
  772MOL0     H 1879   4.872   0.679   4.113  0.8138  0.7070 -0.0301
  772MOL0     H 1880   4.754   0.519   4.335 -0.5894 -2.2857 -0.7422
  772MOL0     H 1881   4.690   0.524   4.172  1.2896 -2.2766  2.0089
  772MOL0     H 1882   4.691   0.736   4.394  0.8515  0.9996 -0.8652
  772MOL0     H 1883   4.678   0.792   4.235  0.3593  1.3224  1.6276
  772MOL0     H 1884   4.439   0.732   4.349  2.2133  0.7344  2.4618
  772MOL0     H 1885   4.493   0.563   4.335  3.3548  0.0469  2.7203
  772MOL0     H 1886   5.652   0.635   4.278  0.3492 -1.2376 -2.1949
  772MOL0     H 1887   5.871   0.707   4.233  0.3517  0.9813 -0.0265
  772MOL0     H 1888   6.129   1.121   4.095  2.4421  2.8832  0.4738
  772MOL0     H 1889   6.366   1.181   4.034  0.8114 -0.3334  2.8889
  772MOL0     H 1890   5.535   0.682   3.942  0.4323  1.2817 -1.3899
  772MOL0     H 1891   5.295   0.669   3.936 -1.1873  1.9835 -1.0871
  772MOL0     H 1892   4.855   0.477   3.966 -2.2748  0.0626  1.0925
  772MOL0     H 1893   4.616   0.417   3.924 -0.0457 -2.9297 -0.7196
  772MOL0     H 1894   4.432   0.666   3.601  1.1069 -0.7700  0.0591
  772MOL0     H 1895   4.289   0.566   3.649  0.0102 -1.9593  0.8736
  772MOL0     H 1896   4.497   0.515   3.451  0.3486 -0.1399 -0.5733
  772MOL0     H 1897   4.394   0.383   3.519  0.4183  1.2097  2.5756
  772MOL0     H 1898   4.330   0.566   3.303  0.7032  0.4699  0.7234
  772MOL0     H 1899   4.256   0.640   3.436  0.0013  0.0156 -1.0111
  772MOL0     H 1900   4.252   0.341   3.348  1.2258  0.5018  0.8460
  772MOL0     H 1901   4.133   0.415   3.466  0.7681 -1.8545  0.1765
  772MOL0     H 1902   3.951   0.506   3.095 -0.1894 -1.6127 -0.3757
  772MOL0     H 1903   4.650   0.647   3.561 -0.6767  1.8273  1.6421
  772MOL0     H 1904   4.882   0.672   3.585 -2.6349  1.3097 -1.0518
  773MOL0     O 1905  10.269   6.867   0.642 -0.5223  0.4794 -0.2316
  773MOL0     C 1906  10.299   6.753   0.601  0.9735  0.5158  0.5883
  773MOL0     O 1907  10.211   6.662   0.558  0.0000  0.0480  0.0150
  773MOL0     C 1908  10.080   6.715   0.539  0.2899  0.7062 -1.1898
  773MOL0     C 1909   9.970   6.692   0.630  0.1837  0.0726  0.1973
  773MOL0     C 1910   9.847   6.758   0.613 -0.0286  0.0635  0.4221
  773MOL0     C 1911   9.827   6.842   0.501  0.0742 -0.2444 -0.7454
  773MOL0     O 1912   9.706   6.901   0.476 -0.3671 -0.3569  0.1381
  773MOL0     C 1913   9.660   6.917   0.338  0.6968 -0.5619 -0.8019
  773MOL0     C 1914   9.506   6.956   0.337 -0.8734  0.6220 -0.8909
  773MOL0     C 1915   9.432   6.956   0.208 -0.1870  0.5985  0.6672
  773MOL0     C 1916   9.421   6.809   0.154  0.0011 -0.8945  1.1583
  773MOL0     C 1917   9.310   6.805   0.044 -0.1063  0.3342 -0.6140
  773MOL0     C 1918   9.315   6.673  -0.043  0.1245 -0.1025  0.5402
  773MOL0     C 1919   9.210   6.668  -0.155  0.8089 -0.3448  0.1755
  773MOL0     C 1920   9.225   6.546  -0.241 -0.4535 -0.5873  0.6747
  773MOL0     N 1921   9.118   6.540  -0.339 -0.6449 -0.5703  1.1220
  773MOL0     C 1922   8.990   6.495  -0.311 -0.6881  0.5035 -0.8629
  773MOL0     C 1923   8.928   6.479  -0.428 -1.1701 -0.8793 -0.1258
  773MOL0     C 1924   8.803   6.408  -0.439 -0.0284 -0.2845 -0.4122
  773MOL0     C 1925   8.713   6.504  -0.514  0.5403 -0.0802  0.2549
  773MOL0     C 1926   8.577   6.431  -0.517  0.4239 -0.4301 -0.0807
  773MOL0     C 1927   8.459   6.525  -0.498 -0.7988 -0.3952  0.3010
  773MOL0     O 1928   8.335   6.452  -0.503  0.2352  0.2119 -0.2162
  773MOL0     C 1929   8.225   6.521  -0.479  0.3107  0.0383  0.2146
  773MOL0     C 1930   8.110   6.446  -0.469 -0.6563 -0.4967 -0.3978
  773MOL0     C 1931   7.982   6.495  -0.456 -0.3369 -0.0034 -0.2265
  773MOL0     C 1932   7.964   6.639  -0.450 -0.2867 -0.6143 -0.8592
  773MOL0     C 1933   7.839   6.699  -0.411 -0.2294  0.4305 -0.2584
  773MOL0     O 1934   7.757   6.625  -0.328  0.4998 -0.2513  0.4293
  773MOL0     C 1935   7.631   6.669  -0.307 -0.0612 -0.3661 -0.2329
  773MOL0     C 1936   7.593   6.684  -0.174  0.4239  0.2985 -0.0173
  773MOL0     C 1937   7.466   6.711  -0.139 -0.7136 -0.9328  0.0632
  773MOL0     C 1938   7.375   6.739  -0.236 -0.6977 -0.0750 -0.6103
  773MOL0     O 1939   7.248   6.787  -0.213  0.5451  0.3557 -0.1296
  773MOL0     C 1940   7.184   6.752  -0.084  0.0060 -0.3088 -0.0123
  773MOL0     C 1941   7.030   6.755  -0.101 -0.8730 -0.2997 -0.1793
  773MOL0     C 1942   6.962   6.732   0.032  0.6686 -0.2764  0.2267
  773MOL0     C 1943   6.810   6.758   0.005 -0.0192 -0.3115 -0.1243
  773MOL0     C 1944   6.733   6.634  -0.050 -0.3378  1.4223  0.1796
  773MOL0     C 1945   6.587   6.646   0.006  0.1856 -0.5680  0.0072
  773MOL0     C 1946   6.507   6.745  -0.068 -0.0171 -0.0438  0.0290
  773MOL0     C 1947   6.354   6.718  -0.058  0.6209 -0.4248  0.0950
  773MOL0    Cl 1948   6.302   6.783   0.100  0.1123  0.5075  0.3305
  773MOL0     C 1949   7.405   6.724  -0.372 -0.7429  0.3580 -0.3637
  773MOL0     C 1950   7.535   6.670  -0.405 -0.2500 -0.0278 -0.0406
  773MOL0     O 1951   7.817   6.807  -0.454  1.1169 -0.7792  0.6337
  773MOL0     C 1952   8.075   6.715  -0.474  0.0922 -0.1317 -0.2215
  773MOL0     C 1953   8.207   6.663  -0.491 -0.4553  0.3569 -0.2277
  773MOL0     N 1954   9.029   6.503  -0.531  0.1766 -0.5100 -0.4468
  773MOL0     N 1955   9.133   6.540  -0.470  0.3705  0.2445  0.3574
  773MOL0     C 1956   9.937   6.864   0.417 -0.5699  0.2539  0.2862
  773MOL0     C 1957  10.063   6.808   0.435  0.3800  0.0873 -0.0055
  773MOL0     C 1958  10.431   6.704   0.610 -0.5639 -1.8525  0.1213
  773MOL0     C 1959  10.527   6.762   0.701 -0.0353 -0.5251 -0.1825
  773MOL0     C 1960  10.660   6.714   0.706  0.2173 -0.0951 -0.9744
  773MOL0     C 1961  10.704   6.616   0.632 -0.6284  0.4232 -0.4827
  773MOL0     O 1962  10.831   6.557   0.644  1.1049  0.3719 -0.1145
  773MOL0     C 1963  10.918   6.622   0.734 -0.5752 -0.5045 -0.1513
  773MOL0     C 1964  11.065   6.576   0.716 -0.5843  0.9025 -0.4836
  773MOL0     C 1965  11.124   6.621   0.588 -1.3597  0.1335 -0.4898
  773MOL0     C 1966  11.274   6.595   0.569  0.6310 -0.2747 -0.8933
  773MOL0     C 1967  11.303   6.457   0.540  0.3979 -0.8229 -0.1816
  773MOL0     C 1968  11.338   6.342   0.520 -0.0986 -0.1413  0.7132
  773MOL0     C 1969  10.605   6.557   0.547  0.4622 -0.3507 -0.5339
  773MOL0     C 1970  10.475   6.604   0.529 -0.1826 -0.9333 -0.5600
  773MOL0     H 1971   9.993   6.636   0.719  0.3407  0.0152  0.1202
  773MOL0     H 1972   9.768   6.752   0.687 -0.7489  3.3131  0.0880
  773MOL0     H 1973   9.665   6.816   0.295 -1.2251 -1.9806  1.9617
  773MOL0     H 1974   9.716   6.988   0.276 -1.1955  3.4386  1.6657
  773MOL0     H 1975   9.503   7.054   0.386 -1.3754 -1.0428  2.7723
  773MOL0     H 1976   9.463   6.874   0.395 -1.0076  0.5684 -1.0658
  773MOL0     H 1977   9.479   7.023   0.137 -2.1916 -0.0470 -1.3924
  773MOL0     H 1978   9.329   6.992   0.218 -0.9966 -1.2336 -0.4881
  773MOL0     H 1979   9.520   6.802   0.108  0.3112 -0.1632  1.6938
  773MOL0     H 1980   9.419   6.737   0.236  0.6538 -0.2546  1.7504
  773MOL0     H 1981   9.320   6.889  -0.025  1.0386  0.7457  0.0270
  773MOL0     H 1982   9.219   6.823   0.102  0.6778 -0.3045  0.8767
  773MOL0     H 1983   9.296   6.591   0.026  0.2010 -0.5797  0.0002
  773MOL0     H 1984   9.414   6.671  -0.090 -0.0678  1.7880 -0.0579
  773MOL0     H 1985   9.107   6.669  -0.117  2.0549 -2.1358  4.1403
  773MOL0     H 1986   9.235   6.752  -0.221 -0.4137  1.2265  1.6044
  773MOL0     H 1987   9.226   6.460  -0.174  1.8933 -0.2126  1.2064
  773MOL0     H 1988   9.320   6.538  -0.295 -0.9938 -0.8367 -0.2732
  773MOL0     H 1989   8.954   6.448  -0.220 -1.5538 -1.1762 -2.0091
  773MOL0     H 1990   8.763   6.390  -0.339 -0.5307 -1.8534 -0.8725
  773MOL0     H 1991   8.811   6.318  -0.500 -1.5118  1.0046 -2.6779
  773MOL0     H 1992   8.747   6.517  -0.617 -1.1890  0.7623 -0.2391
  773MOL0     H 1993   8.703   6.602  -0.467  2.0954  0.6465 -0.8488
  773MOL0     H 1994   8.575   6.375  -0.611 -2.0438 -3.0048  1.3495
  773MOL0     H 1995   8.575   6.363  -0.431  0.9297 -0.2646  0.0624
  773MOL0     H 1996   8.461   6.603  -0.574 -0.1851 -0.6677  0.0271
  773MOL0     H 1997   8.469   6.572  -0.399  0.7477 -0.6938  0.3044
  773MOL0     H 1998   8.121   6.339  -0.483 -1.5452 -0.5530 -0.7145
  773MOL0     H 1999   7.899   6.425  -0.445  0.5667 -0.8284  2.1301
  773MOL0     H 2000   7.663   6.683  -0.091  0.9131  0.1533 -0.4272
  773MOL0     H 2001   7.446   6.735  -0.035 -1.1162  0.9484 -0.4082
  773MOL0     H 2002   7.209   6.823  -0.005  2.6476  0.4516 -1.3927
  773MOL0     H 2003   7.222   6.653  -0.058 -1.6843 -1.5745 -2.0510
  773MOL0     H 2004   7.000   6.674  -0.169  0.2019 -2.0210  1.3067
  773MOL0     H 2005   7.006   6.854  -0.142 -0.3109  0.2560  0.7941
  773MOL0     H 2006   7.001   6.810   0.098 -0.4379  1.8568 -1.5194
  773MOL0     H 2007   6.989   6.633   0.069  0.0827  0.1490  1.8843
  773MOL0     H 2008   6.776   6.792   0.103 -1.1092  0.2843 -0.6923
  773MOL0     H 2009   6.796   6.845  -0.059 -2.1303  0.5442  1.3975
  773MOL0     H 2010   6.766   6.538  -0.009 -0.5338  0.8915 -0.8764
  773MOL0     H 2011   6.733   6.620  -0.158  1.1120 -0.2418  0.3453
  773MOL0     H 2012   6.586   6.669   0.113 -1.1902  1.6971 -0.4450
  773MOL0     H 2013   6.532   6.552  -0.003 -1.8844  0.5179  0.7674
  773MOL0     H 2014   6.525   6.844  -0.024  0.8374 -0.7510  1.3030
  773MOL0     H 2015   6.539   6.737  -0.173 -0.4259 -1.0834 -0.0277
  773MOL0     H 2016   6.311   6.617  -0.062 -1.3116  0.3987 -1.5156
  773MOL0     H 2017   6.301   6.759  -0.144 -0.7132 -1.9122  0.1594
  773MOL0     H 2018   7.328   6.743  -0.446  0.2857  2.4065 -0.9733
  773MOL0     H 2019   7.553   6.635  -0.506 -1.2388  1.7478 -0.8832
  773MOL0     H 2020   8.061   6.821  -0.493 -1.6112 -0.4991 -1.2172
  773MOL0     H 2021   8.289   6.734  -0.497 -1.1004  1.1663  0.2327
  773MOL0     H 2022   9.935   6.942   0.342 -1.2478 -0.4868 -0.4857
  773MOL0     H 2023  10.141   6.832   0.363 -1.5644 -1.2386 -2.7375
  773MOL0     H 2024  10.495   6.843   0.766  1.5438 -1.2543  1.5991
  773MOL0     H 2025  10.723   6.757   0.784  1.6575  0.4904 -2.3868
  773MOL0     H 2026  10.883   6.600   0.835  0.6861 -1.1536  0.1617
  773MOL0     H 2027  10.914   6.730   0.716  1.3791 -0.6810 -2.1132
  773MOL0     H 2028  11.127   6.598   0.803 -0.6392  0.5148 -0.3441
  773MOL0     H 2029  11.059   6.467   0.724 -3.6793  1.0839  1.6160
  773MOL0     H 2030  11.114   6.729   0.575  1.9847  0.3271 -2.7150
  773MOL0     H 2031  11.075   6.572   0.504  1.7524 -2.0172 -1.2034
  773MOL0     H 2032  11.308   6.659   0.486 -1.7992 -1.4644 -2.9454
  773MOL0     H 2033  11.329   6.621   0.660 -1.0066  0.7341 -0.1397
  773MOL0     H 2034  11.356   6.237   0.512  2.0249  0.1797  0.9204
  773MOL0     H 2035  10.631   6.464   0.498 -0.1698 -1.6666  1.4590
  773MOL0     H 2036  10.405   6.567   0.455 -2.6861  1.3628  0.5234
  774MOL0     O 2037   2.822  10.925   5.715 -0.1092 -0.6412 -0.5374
  774MOL0     C 2038   2.839  11.040   5.759 -0.3860  0.5140 -0.5344
  774MOL0     O 2039   2.743  11.118   5.815  0.2867 -0.1584  0.2113
  774MOL0     C 2040   2.621  11.060   5.828  0.6579 -0.6499  1.1913
  774MOL0     C 2041   2.575  11.025   5.954 -0.6828 -0.3384 -0.3637
  774MOL0     C 2042   2.457  10.955   5.969  0.7150  0.4637  0.3125
  774MOL0     C 2043   2.379  10.918   5.847  0.4020  0.4635 -0.6724
  774MOL0     O 2044   2.262  10.845   5.852 -0.8524  0.0109  0.3877
  774MOL0     C 2045   2.149  10.914   5.911  0.1436  0.1585  0.0683
  774MOL0     C 2046   2.052  10.939   5.806  0.7594  0.3618 -0.3363
  774MOL0     C 2047   1.922  11.002   5.847  0.4528 -0.6752  0.5405
  774MOL0     C 2048   1.822  11.013   5.733 -0.6591  0.6686  0.6552
  774MOL0     C 2049   1.853  11.131   5.649 -0.4453 -0.5520 -0.1460
  774MOL0     C 2050   1.733  11.169   5.563 -0.0002  0.6713 -0.1245
  774MOL0     C 2051   1.780  11.301   5.487 -0.5052  0.1895 -0.1063
  774MOL0     C 2052   1.687  11.339   5.375  0.4804 -0.1690  1.0347
  774MOL0     N 2053   1.549  11.369   5.431 -0.1655  0.0253 -0.0506
  774MOL0     C 2054   1.431  11.293   5.429  0.1905  0.5122  0.3142
  774MOL0     C 2055   1.344  11.372   5.502  1.1265 -0.1077  0.2496
  774MOL0     C 2056   1.201  11.324   5.551  0.3041  0.9650  0.2453
  774MOL0     C 2057   1.093  11.349   5.442 -0.3128 -0.6726 -0.2513
  774MOL0     C 2058   0.959  11.285   5.481 -0.3374  0.5289 -0.1158
  774MOL0     C 2059   0.841  11.340   5.400 -0.3198 -0.6865 -0.1084
  774MOL0     O 2060   0.725  11.254   5.413 -0.3568 -0.1490 -0.1537
  774MOL0     C 2061   0.600  11.284   5.363 -1.1025 -0.2281  0.4606
  774MOL0     C 2062   0.568  11.386   5.260 -0.0009  0.5242  0.0973
  774MOL0     C 2063   0.436  11.391   5.212  1.3651  0.6479 -0.7202
  774MOL0     C 2064   0.333  11.307   5.272  0.0928  0.2766 -0.0873
  774MOL0     C 2065   0.201  11.293   5.204  0.5844 -0.0851  0.3362
  774MOL0     O 2066   0.193  11.356   5.080  0.4845 -0.0019 -0.9210
  774MOL0     C 2067   0.068  11.361   5.027  0.5362  0.2454 -0.7919
  774MOL0     C 2068   0.031  11.272   4.924  1.1010 -0.8438 -0.9120
  774MOL0     C 2069  -0.094  11.276   4.857  0.1047  0.7743 -0.1384
  774MOL0     C 2070  -0.202  11.354   4.909 -0.1509  0.2812  0.6956
  774MOL0     O 2071  -0.325  11.351   4.851  0.2762 -0.1883  0.0502
  774MOL0     C 2072  -0.438  11.421   4.910 -0.5507  0.2316  0.1681
  774MOL0     C 2073  -0.565  11.395   4.836 -0.5799 -0.3793  0.8976
  774MOL0     C 2074  -0.685  11.495   4.880  0.4188  0.0561 -1.2543
  774MOL0     C 2075  -0.758  11.439   5.000 -0.5516 -0.0284  0.4014
  774MOL0     C 2076  -0.799  11.544   5.108  0.1480  0.3327 -0.8230
  774MOL0     C 2077  -0.897  11.646   5.079 -0.0458  0.2400 -0.5075
  774MOL0     C 2078  -0.952  11.726   5.193 -0.3680 -0.2542 -0.5801
  774MOL0     C 2079  -1.088  11.795   5.177  0.1343 -0.4041  0.2432
  774MOL0    Cl 2080  -1.214  11.686   5.132 -0.1995  0.3099  0.3972
  774MOL0     C 2081  -0.160  11.437   5.016  0.2154  0.1383 -0.1856
  774MOL0     C 2082  -0.035  11.449   5.061 -0.7305  0.3873  0.0615
  774MOL0     O 2083   0.108  11.249   5.273 -0.4541 -0.2839  0.0125
  774MOL0     C 2084   0.366  11.220   5.369 -0.3939  0.6380 -0.2781
  774MOL0     C 2085   0.503  11.200   5.414 -0.0036 -0.0553 -0.3462
  774MOL0     N 2086   1.403  11.495   5.530 -0.0696 -0.6024  0.3384
  774MOL0     N 2087   1.518  11.493   5.476  0.2701  0.1083 -0.7983
  774MOL0     C 2088   2.425  10.954   5.720 -0.1892 -0.2024 -0.0203
  774MOL0     C 2089   2.546  11.025   5.716  0.2969 -0.8453  0.7961
  774MOL0     C 2090   2.983  11.083   5.777  1.0385  0.6999  0.2118
  774MOL0     C 2091   3.087  11.017   5.711  0.6124  0.4243 -0.6145
  774MOL0     C 2092   3.216  11.038   5.747  0.3284  0.0224  0.0180
  774MOL0     C 2093   3.250  11.135   5.845  0.2496  0.1175  0.5880
  774MOL0     O 2094   3.386  11.163   5.853 -0.3966 -0.1765  0.3496
  774MOL0     C 2095   3.428  11.195   5.981 -0.2086  0.4799 -0.2010
  774MOL0     C 2096   3.585  11.198   5.982  0.3370 -0.4426 -0.5234
  774MOL0     C 2097   3.657  11.070   5.929 -0.2115 -0.9007 -1.1443
  774MOL0     C 2098   3.783  11.027   6.012 -0.1719  0.5487 -0.1221
  774MOL0     C 2099   3.900  11.106   5.985  0.1904  0.3288 -0.2650
  774MOL0     C 2100   4.009  11.147   5.968  0.5508 -0.2541  0.5171
  774MOL0     C 2101   3.142  11.204   5.910  0.7673  0.4174  0.6917
  774MOL0     C 2102   3.009  11.171   5.880 -0.3753 -0.0582  0.2475
  774MOL0     H 2103   2.637  11.047   6.041 -1.7572 -1.6794  0.7691
  774MOL0     H 2104   2.418  10.919   6.063 -0.9713  0.3328 -0.4134
  774MOL0     H 2105   2.178  11.010   5.954  0.5717 -0.2910  0.8136
  774MOL0     H 2106   2.109  10.857   5.996 -0.7516  0.4693 -0.1412
  774MOL0     H 2107   2.039  10.851   5.743 -0.0008  0.3381 -0.1568
  774MOL0     H 2108   2.100  11.015   5.744  2.2278 -0.7154 -0.5826
  774MOL0     H 2109   1.933  11.106   5.881 -1.5992 -0.6356  1.1836
  774MOL0     H 2110   1.875  10.944   5.927  0.4639  0.3477  1.3236
  774MOL0     H 2111   1.827  10.924   5.669  1.9289  1.6476 -0.6537
  774MOL0     H 2112   1.718  11.019   5.767 -1.1296  1.9631 -0.8800
  774MOL0     H 2113   1.942  11.110   5.590 -0.1194  2.6856 -1.0362
  774MOL0     H 2114   1.884  11.225   5.695 -1.8230  1.3436 -2.8138
  774MOL0     H 2115   1.648  11.175   5.631 -0.3829 -2.1221 -0.2255
  774MOL0     H 2116   1.718  11.090   5.489 -0.1843 -0.7557  1.3798
  774MOL0     H 2117   1.775  11.378   5.565 -0.9253 -2.1377  2.3060
  774MOL0     H 2118   1.886  11.296   5.461 -0.4122 -0.3133  0.3461
  774MOL0     H 2119   1.674  11.258   5.302  0.9976  0.8061 -0.1641
  774MOL0     H 2120   1.720  11.428   5.322  2.2929 -0.8984  0.8748
  774MOL0     H 2121   1.397  11.197   5.392  0.4958 -0.2393  1.8950
  774MOL0     H 2122   1.164  11.371   5.642 -1.1924  1.1845 -0.4442
  774MOL0     H 2123   1.205  11.216   5.571 -0.0890  0.6311 -1.3356
  774MOL0     H 2124   1.116  11.314   5.341  0.4858 -0.5055 -0.1388
  774MOL0     H 2125   1.080  11.457   5.430 -1.7665 -0.7996 -0.0191
  774MOL0     H 2126   0.967  11.177   5.470  3.4376  0.6165  0.3350
  774MOL0     H 2127   0.931  11.319   5.582 -0.3895  1.6552 -0.4948
  774MOL0     H 2128   0.860  11.332   5.293 -2.1343  0.5077 -0.5627
  774MOL0     H 2129   0.821  11.443   5.428 -2.2330 -1.6237  2.3820
  774MOL0     H 2130   0.630  11.467   5.224 -1.5225  1.1481 -1.2420
  774MOL0     H 2131   0.409  11.458   5.131  0.1490 -1.1234 -1.8473
  774MOL0     H 2132   0.097  11.189   4.904  0.7975 -1.6869  1.3420
  774MOL0     H 2133  -0.116  11.206   4.778  1.3614 -0.5353  0.6176
  774MOL0     H 2134  -0.416  11.528   4.909 -3.5825  0.9364 -1.4996
  774MOL0     H 2135  -0.443  11.401   5.018  1.2705  1.5492  0.5461
  774MOL0     H 2136  -0.593  11.291   4.850  1.2144 -0.6846  2.6313
  774MOL0     H 2137  -0.548  11.419   4.730 -1.7248  0.6981  0.9274
  774MOL0     H 2138  -0.754  11.526   4.800  1.6627  2.3946 -1.5004
  774MOL0     H 2139  -0.646  11.589   4.920  0.0164 -0.2986 -0.0022
  774MOL0     H 2140  -0.850  11.392   4.964 -0.7697  1.4748 -1.1086
  774MOL0     H 2141  -0.709  11.354   5.048 -1.9652 -0.1399  1.7337
  774MOL0     H 2142  -0.710  11.598   5.143 -0.8635  1.2582  0.4144
  774MOL0     H 2143  -0.834  11.497   5.200 -0.1005 -0.9566 -1.5528
  774MOL0     H 2144  -0.989  11.601   5.042  0.8550 -1.2537 -1.0363
  774MOL0     H 2145  -0.862  11.725   5.011  2.9132  0.3779  0.9983
  774MOL0     H 2146  -0.970  11.664   5.281  0.4825  0.1892 -0.0796
  774MOL0     H 2147  -0.874  11.796   5.226  1.0545 -3.0430  2.5850
  774MOL0     H 2148  -1.077  11.867   5.095  1.3398 -0.9218 -0.0724
  774MOL0     H 2149  -1.114  11.848   5.269 -2.8505  0.3213 -0.9215
  774MOL0     H 2150  -0.235  11.502   5.060  0.3043  0.0339  0.1184
  774MOL0     H 2151  -0.008  11.532   5.126 -1.5337  0.4345  0.3454
  774MOL0     H 2152   0.287  11.159   5.412 -1.0627  1.3134 -0.5249
  774MOL0     H 2153   0.534  11.128   5.489  0.2292 -2.4840 -2.6541
  774MOL0     H 2154   2.372  10.912   5.636 -0.3511  0.5534 -0.2988
  774MOL0     H 2155   2.574  11.040   5.612  2.6692 -1.0225  1.3605
  774MOL0     H 2156   3.065  10.951   5.628  2.1904  0.5699 -1.1626
  774MOL0     H 2157   3.307  10.993   5.709  1.0503  1.6177 -0.2186
  774MOL0     H 2158   3.395  11.121   6.055  1.4074  0.0042  0.0913
  774MOL0     H 2159   3.382  11.287   6.018  1.2017  1.3485 -0.5193
  774MOL0     H 2160   3.620  11.276   5.914  0.9098  1.3550  1.6807
  774MOL0     H 2161   3.621  11.221   6.083  0.6570 -2.4882 -0.1305
  774MOL0     H 2162   3.675  11.075   5.822 -0.8643 -2.3177 -1.3517
  774MOL0     H 2163   3.591  10.983   5.941 -0.1749 -1.1581 -2.6377
  774MOL0     H 2164   3.768  11.014   6.119 -0.9111 -0.9235 -0.3735
  774MOL0     H 2165   3.800  10.921   5.990 -0.2679  0.6518 -0.7072
  774MOL0     H 2166   4.094  11.202   5.931  0.5837 -1.4273 -1.2772
  774MOL0     H 2167   3.143  11.284   5.984  0.4019  1.5873 -0.5319
  774MOL0     H 2168   2.931  11.213   5.942  0.4223  0.8561  0.6456
  775MOL0     O 2169   1.259   0.085   8.508 -0.4727  0.2718  0.0018
  775MOL0     C 2170   1.340   0.121   8.422 -0.2818 -0.1297  0.1807
  775MOL0     O 2171   1.314   0.197   8.313 -0.0355 -0.1835 -0.7528
  775MOL0     C 2172   1.184   0.252   8.310  0.2528  0.5518  0.2674
  775MOL0     C 2173   1.073   0.173   8.310  0.1200  0.2092 -0.0736
  775MOL0     C 2174   0.946   0.229   8.321  0.3645  0.1984 -0.1161
  775MOL0     C 2175   0.928   0.369   8.319  0.0475  0.5936 -0.0437
  775MOL0     O 2176   0.799   0.403   8.324 -0.0840 -0.1512 -0.1652
  775MOL0     C 2177   0.759   0.539   8.351  0.8516 -0.1204  0.1352
  775MOL0     C 2178   0.755   0.620   8.222  0.0288  0.6883  0.2673
  775MOL0     C 2179   0.684   0.753   8.249  0.1391 -0.0549  0.3148
  775MOL0     C 2180   0.689   0.851   8.122 -0.9241 -0.4214  0.4458
  775MOL0     C 2181   0.623   0.987   8.135 -0.5112 -0.2164  0.0867
  775MOL0     C 2182   0.642   1.083   8.014  0.5723  0.1705 -1.4322
  775MOL0     C 2183   0.559   1.207   8.013  0.0794 -0.4936  0.7159
  775MOL0     C 2184   0.434   1.172   7.945  0.2927 -0.3024 -0.0065
  775MOL0     N 2185   0.359   1.303   7.962  0.5174  0.5851  0.1061
  775MOL0     C 2186   0.230   1.293   7.999 -0.8111 -0.4889  0.7300
  775MOL0     C 2187   0.184   1.423   7.979 -0.1741  0.2644 -0.3314
  775MOL0     C 2188   0.042   1.459   8.003 -0.4319  0.0585  0.8420
  775MOL0     C 2189  -0.019   1.512   7.868 -0.1310  0.1456 -0.0527
  775MOL0     C 2190  -0.162   1.568   7.899 -0.2424 -0.1878 -0.6909
  775MOL0     C 2191  -0.214   1.645   7.782  1.1419 -0.0275 -0.1584
  775MOL0     O 2192  -0.357   1.674   7.815 -0.6383 -0.0254 -0.4420
  775MOL0     C 2193  -0.450   1.609   7.741 -0.2132  0.3886  0.6525
  775MOL0     C 2194  -0.439   1.473   7.715  0.1486 -0.1533  0.0108
  775MOL0     C 2195  -0.534   1.423   7.625 -0.5999  0.1465  0.5104
  775MOL0     C 2196  -0.642   1.493   7.571  0.1895 -0.1180  0.8757
  775MOL0     C 2197  -0.754   1.427   7.500  0.4253  0.3830  0.3152
  775MOL0     O 2198  -0.737   1.300   7.440 -1.2661  0.2831  0.5022
  775MOL0     C 2199  -0.824   1.237   7.355  0.2068 -0.2801 -0.2151
  775MOL0     C 2200  -0.871   1.301   7.240  0.6189 -0.2009 -0.5709
  775MOL0     C 2201  -0.960   1.237   7.158  0.1026  0.7160  0.1479
  775MOL0     C 2202  -1.015   1.110   7.195  0.6196  0.7795  0.6187
  775MOL0     O 2203  -1.109   1.046   7.121  0.0126 -0.5814  0.3927
  775MOL0     C 2204  -1.209   1.131   7.076  0.2983  0.3025 -0.1670
  775MOL0     C 2205  -1.342   1.062   7.055 -0.7551  0.3677  0.2301
  775MOL0     C 2206  -1.336   0.985   6.917  0.2330  0.3361 -0.2619
  775MOL0     C 2207  -1.429   0.865   6.931  0.3925  0.0919  0.4310
  775MOL0     C 2208  -1.442   0.804   6.795  0.0717 -0.1794 -0.1683
  775MOL0     C 2209  -1.550   0.689   6.793  0.9909 -0.9192 -0.1887
  775MOL0     C 2210  -1.535   0.572   6.901  0.1181  0.1746 -0.6613
  775MOL0     C 2211  -1.598   0.432   6.862  1.4257 -0.2193  0.0615
  775MOL0    Cl 2212  -1.557   0.315   6.981 -0.5900 -0.4096  0.4257
  775MOL0     C 2213  -0.958   1.046   7.300 -0.3447 -0.0908 -0.5609
  775MOL0     C 2214  -0.856   1.102   7.381 -0.7246  0.9546 -0.5240
  775MOL0     O 2215  -0.858   1.488   7.496 -0.2229 -0.4167 -0.0651
  775MOL0     C 2216  -0.649   1.629   7.613 -0.6623 -0.0054  0.6696
  775MOL0     C 2217  -0.553   1.691   7.693  0.1453  0.8238 -0.1418
  775MOL0     N 2218   0.297   1.504   7.954 -0.1862 -0.9299 -0.1596
  775MOL0     N 2219   0.396   1.428   7.939  0.5953 -0.2915  0.4791
  775MOL0     C 2220   1.043   0.448   8.320  0.2223 -0.3618 -0.4876
  775MOL0     C 2221   1.174   0.386   8.318  1.3366 -0.3530 -0.6726
  775MOL0     C 2222   1.482   0.073   8.451  0.7593  0.6619 -0.5907
  775MOL0     C 2223   1.589   0.134   8.384  0.1392 -0.6933  0.1688
  775MOL0     C 2224   1.714   0.082   8.400 -0.4079  0.7073 -0.2056
  775MOL0     C 2225   1.730  -0.033   8.477 -0.5391  0.1427 -0.4809
  775MOL0     O 2226   1.856  -0.086   8.504  0.5221 -0.0360 -0.1952
  775MOL0     C 2227   1.906  -0.185   8.409 -0.4600 -0.1460 -0.0505
  775MOL0     C 2228   2.029  -0.127   8.341  1.0558  0.5559 -0.1938
  775MOL0     C 2229   2.150  -0.092   8.425  0.2830 -0.0110  0.1925
  775MOL0     C 2230   2.245  -0.014   8.334 -0.1734  0.0540  0.5315
  775MOL0     C 2231   2.363   0.024   8.408 -0.2860 -1.1310 -0.0878
  775MOL0     C 2232   2.464   0.060   8.472 -0.1512 -0.2867  0.1370
  775MOL0     C 2233   1.626  -0.092   8.544 -1.2792  0.5189  0.0236
  775MOL0     C 2234   1.505  -0.032   8.530 -0.1684  0.7346 -1.1218
  775MOL0     H 2235   1.092   0.066   8.311 -1.8234 -0.1803  0.1728
  775MOL0     H 2236   0.866   0.158   8.332 -0.1165  0.0907 -3.4589
  775MOL0     H 2237   0.825   0.596   8.416  1.7947 -1.0639  0.0405
  775MOL0     H 2238   0.659   0.549   8.394  1.1244  1.1206  0.5204
  775MOL0     H 2239   0.704   0.566   8.141  2.2176  1.0515 -1.4223
  775MOL0     H 2240   0.855   0.640   8.184  0.4073 -0.4031  0.6582
  775MOL0     H 2241   0.735   0.807   8.329 -1.3567  0.9799  0.6190
  775MOL0     H 2242   0.583   0.734   8.286  1.4677 -1.0457  3.8586
  775MOL0     H 2243   0.795   0.874   8.107 -0.9151 -0.8033 -0.1192
  775MOL0     H 2244   0.655   0.799   8.032  0.0604 -1.7722  0.8375
  775MOL0     H 2245   0.669   1.021   8.229  0.3702  2.5885 -1.2507
  775MOL0     H 2246   0.518   0.975   8.166  0.5552 -3.5978  3.1618
  775MOL0     H 2247   0.613   1.021   7.929 -1.9418 -1.6906  0.6308
  775MOL0     H 2248   0.744   1.122   8.007 -0.3586  2.6547 -2.2364
  775MOL0     H 2249   0.527   1.242   8.112 -3.9589  3.3321 -1.5594
  775MOL0     H 2250   0.609   1.290   7.964 -1.1627  0.5344  1.1230
  775MOL0     H 2251   0.380   1.088   7.990 -0.1084  0.6118  1.2665
  775MOL0     H 2252   0.437   1.171   7.836 -1.4091  0.3243 -0.0900
  775MOL0     H 2253   0.177   1.200   8.012  0.4703 -1.3247  0.1692
  775MOL0     H 2254   0.031   1.531   8.084  1.9141  1.4625 -0.0119
  775MOL0     H 2255  -0.020   1.374   8.033 -1.1838 -0.2783 -1.4587
  775MOL0     H 2256  -0.020   1.437   7.788  0.7737 -1.1683  1.1307
  775MOL0     H 2257   0.052   1.593   7.848 -0.8279  1.0423  0.9948
  775MOL0     H 2258  -0.225   1.483   7.925  0.6058 -1.4509 -2.5247
  775MOL0     H 2259  -0.175   1.647   7.973  0.6911  0.4270 -1.1648
  775MOL0     H 2260  -0.204   1.584   7.691  0.7734 -0.7837  0.2980
  775MOL0     H 2261  -0.164   1.741   7.795 -1.4918  1.3392  0.7415
  775MOL0     H 2262  -0.356   1.419   7.759  2.8926  2.3491 -1.6783
  775MOL0     H 2263  -0.510   1.319   7.607  1.4337  0.6144  0.3016
  775MOL0     H 2264  -0.836   1.403   7.222  4.3110 -0.7191  2.5235
  775MOL0     H 2265  -0.993   1.291   7.070 -2.0200  0.6717  0.8556
  775MOL0     H 2266  -1.172   1.179   6.986 -1.1758  1.2091 -0.3137
  775MOL0     H 2267  -1.233   1.209   7.149  3.0237  0.0422  1.1586
  775MOL0     H 2268  -1.411   1.146   7.047  1.8162  2.6154  0.0293
  775MOL0     H 2269  -1.361   0.989   7.134 -2.3533  0.7381  0.2261
  775MOL0     H 2270  -1.233   0.951   6.904 -0.9464 -3.0237 -2.1854
  775MOL0     H 2271  -1.368   1.052   6.836  0.7015 -0.6826 -1.3250
  775MOL0     H 2272  -1.395   0.789   7.001  0.2159 -1.2390 -0.8919
  775MOL0     H 2273  -1.526   0.907   6.960  0.4483 -0.4381  1.4055
  775MOL0     H 2274  -1.346   0.757   6.771  0.7177  0.9883  0.0322
  775MOL0     H 2275  -1.461   0.882   6.720 -0.4560  1.3036  1.4472
  775MOL0     H 2276  -1.548   0.647   6.692  0.8036  0.7874 -0.9368
  775MOL0     H 2277  -1.649   0.732   6.809  2.3888  1.6714  2.6273
  775MOL0     H 2278  -1.429   0.563   6.928 -0.0076  0.5837 -0.0127
  775MOL0     H 2279  -1.583   0.603   6.995  2.1546 -0.2053  0.5758
  775MOL0     H 2280  -1.558   0.405   6.763  0.7267  1.3561 -0.7006
  775MOL0     H 2281  -1.707   0.442   6.855  1.1472 -1.4429  1.9073
  775MOL0     H 2282  -0.994   0.945   7.317 -1.7345  0.3308 -0.8494
  775MOL0     H 2283  -0.807   1.045   7.460 -1.2826 -1.3166 -1.7094
  775MOL0     H 2284  -0.742   1.681   7.594 -1.4742 -1.5113  0.3005
  775MOL0     H 2285  -0.563   1.790   7.736  0.4107  0.6483  0.3282
  775MOL0     H 2286   1.036   0.556   8.324 -0.1153 -0.2798 -2.4736
  775MOL0     H 2287   1.261   0.450   8.331 -0.0161  1.0431  2.9055
  775MOL0     H 2288   1.567   0.213   8.312  0.7143  2.2519  3.0109
  775MOL0     H 2289   1.792   0.129   8.342  1.2792  0.1153  1.4696
  775MOL0     H 2290   1.828  -0.226   8.344 -1.1814  1.6573 -0.3941
  775MOL0     H 2291   1.943  -0.274   8.460 -0.4689  0.9851  2.0351
  775MOL0     H 2292   2.061  -0.206   8.272 -0.2765  0.2459 -0.4863
  775MOL0     H 2293   2.005  -0.037   8.283 -1.2227 -1.6483 -2.9741
  775MOL0     H 2294   2.197  -0.182   8.465 -2.3736 -2.0940 -1.0575
  775MOL0     H 2295   2.121  -0.026   8.508  2.3104 -1.9745  2.6218
  775MOL0     H 2296   2.275  -0.085   8.256 -0.6183 -0.9399  1.2448
  775MOL0     H 2297   2.199   0.076   8.292 -1.2789 -1.6540 -2.1875
  775MOL0     H 2298   2.558   0.085   8.516  1.3414  0.6179 -3.1781
  775MOL0     H 2299   1.646  -0.189   8.589  1.6634  0.4470 -1.1833
  775MOL0     H 2300   1.419  -0.079   8.576 -0.3684 -0.2118 -2.3968
  776MOL0     O 2301  10.721   1.714   1.462  0.3787  0.2316 -0.2887
  776MOL0     C 2302  10.794   1.764   1.378 -0.4245  0.2677 -0.2498
  776MOL0     O 2303  10.771   1.876   1.305  0.0440  0.7335  0.7656
  776MOL0     C 2304  10.665   1.956   1.345  0.6313 -0.8940 -0.6641
  776MOL0     C 2305  10.687   2.092   1.349 -0.4887  0.2159  0.3580
  776MOL0     C 2306  10.590   2.185   1.394  1.1613 -0.1335  0.3765
  776MOL0     C 2307  10.455   2.137   1.431 -0.9333 -0.4337  0.3188
  776MOL0     O 2308  10.356   2.217   1.456  0.1530 -0.4615 -0.3096
  776MOL0     C 2309  10.221   2.166   1.470  0.1835 -0.1948 -0.7773
  776MOL0     C 2310  10.136   2.285   1.521 -0.8041  0.2457  0.5780
  776MOL0     C 2311   9.993   2.252   1.486 -0.4828  0.4181 -0.8532
  776MOL0     C 2312   9.899   2.367   1.537 -1.2821 -0.4934 -0.0805
  776MOL0     C 2313   9.759   2.328   1.550 -0.1081  0.0186  0.4362
  776MOL0     C 2314   9.707   2.270   1.414  0.2251 -0.5298 -0.5828
  776MOL0     C 2315   9.559   2.248   1.394 -0.4953  0.7514 -0.4077
  776MOL0     C 2316   9.505   2.163   1.503  0.0771  0.4776 -0.0731
  776MOL0     N 2317   9.360   2.138   1.471 -0.1851 -0.3610  0.2484
  776MOL0     C 2318   9.295   2.029   1.428 -0.0755  0.1823 -0.3776
  776MOL0     C 2319   9.162   2.051   1.445  0.1664 -0.3419 -0.0404
  776MOL0     C 2320   9.054   1.953   1.436 -0.2756  0.4105 -0.3801
  776MOL0     C 2321   8.971   1.978   1.313  0.5228  0.5436 -0.2935
  776MOL0     C 2322   8.895   1.853   1.256  0.0524  0.0784 -0.4497
  776MOL0     C 2323   8.827   1.879   1.122 -0.7479 -0.4597 -0.6789
  776MOL0     O 2324   8.720   1.797   1.087  0.4940 -0.2461  0.4218
  776MOL0     C 2325   8.608   1.870   1.058 -0.2201  0.7227 -0.1416
  776MOL0     C 2326   8.539   1.917   1.162  0.4432 -0.2286 -0.1613
  776MOL0     C 2327   8.403   1.951   1.156 -0.6599  0.2408 -0.6666
  776MOL0     C 2328   8.345   1.960   1.031  0.0671  0.0980 -0.2820
  776MOL0     C 2329   8.194   1.988   1.016  0.6976  0.2986  0.0452
  776MOL0     O 2330   8.142   2.010   0.886  0.2049 -0.1047 -0.5586
  776MOL0     C 2331   8.002   2.010   0.867 -0.0326 -0.0322 -0.1786
  776MOL0     C 2332   7.937   1.915   0.790 -0.5550 -1.0627  0.1305
  776MOL0     C 2333   7.797   1.918   0.772  1.2497 -0.0956 -0.1453
  776MOL0     C 2334   7.724   2.015   0.829  0.2846  0.1846 -0.0999
  776MOL0     O 2335   7.591   2.020   0.822  0.4338 -0.3030 -0.2528
  776MOL0     C 2336   7.521   1.908   0.884  0.2167  0.5982  0.5523
  776MOL0     C 2337   7.415   1.865   0.783  0.1286 -0.7080  0.6237
  776MOL0     C 2338   7.318   1.971   0.764  0.5483 -0.3210  0.0159
  776MOL0     C 2339   7.180   1.917   0.709 -0.0906 -0.0239  0.5600
  776MOL0     C 2340   7.084   2.019   0.660  0.0884 -0.2734  0.6090
  776MOL0     C 2341   6.953   1.955   0.629 -0.0582  0.2101  0.0419
  776MOL0     C 2342   6.861   2.048   0.547  0.0521  0.2198  0.3050
  776MOL0     C 2343   6.721   1.982   0.528 -0.2051 -1.1141 -1.2876
  776MOL0    Cl 2344   6.618   2.086   0.432 -0.0909 -0.1860  0.1792
  776MOL0     C 2345   7.783   2.113   0.902 -0.9012  0.3364 -0.7433
  776MOL0     C 2346   7.922   2.113   0.920 -0.3168 -0.2296 -0.1411
  776MOL0     O 2347   8.118   1.987   1.121  0.8382  0.4496  0.5084
  776MOL0     C 2348   8.422   1.919   0.917 -0.5042  0.6191 -0.2976
  776MOL0     C 2349   8.551   1.868   0.934 -0.1104  0.0203 -0.2491
  776MOL0     N 2350   9.150   2.181   1.487  0.7731 -0.2559  0.1527
  776MOL0     N 2351   9.271   2.227   1.510  0.5356 -0.1858 -0.3819
  776MOL0     C 2352  10.432   1.991   1.413  0.2592  0.4519 -0.4440
  776MOL0     C 2353  10.536   1.909   1.368  0.1312 -0.7221 -0.2854
  776MOL0     C 2354  10.919   1.682   1.355  0.2622 -0.6868  0.6585
  776MOL0     C 2355  10.963   1.576   1.437 -0.1078  0.4423  0.5433
  776MOL0     C 2356  11.079   1.504   1.408 -0.1950  0.6184 -0.2076
  776MOL0     C 2357  11.158   1.541   1.303 -0.0583 -0.3119 -0.2042
  776MOL0     O 2358  11.273   1.461   1.276  0.2440  0.1568 -0.0439
  776MOL0     C 2359  11.350   1.482   1.153  0.3640  0.0579 -0.0414
  776MOL0     C 2360  11.474   1.411   1.132  0.4035  0.2959 -0.3974
  776MOL0     C 2361  11.448   1.274   1.070 -0.0329 -0.5874  0.3877
  776MOL0     C 2362  11.417   1.283   0.916 -0.0677 -0.3037  0.1372
  776MOL0     C 2363  11.528   1.337   0.845 -0.4250 -0.4440 -0.1957
  776MOL0     C 2364  11.622   1.348   0.762  0.2093 -1.0271  0.3167
  776MOL0     C 2365  11.117   1.635   1.218  0.2108  0.1372 -0.5734
  776MOL0     C 2366  10.995   1.706   1.244 -0.0816 -0.0941  0.3811
  776MOL0     H 2367  10.784   2.126   1.313  0.2721 -1.8721  0.3409
  776MOL0     H 2368  10.604   2.292   1.385 -1.4106  0.3327  1.1007
  776MOL0     H 2369  10.215   2.093   1.551  1.6079 -0.6020 -1.0075
  776MOL0     H 2370  10.190   2.117   1.377  0.9191  0.1342 -1.2061
  776MOL0     H 2371  10.171   2.374   1.468  1.7646 -0.1654  1.4071
  776MOL0     H 2372  10.148   2.299   1.629 -1.8799 -2.0566  1.0404
  776MOL0     H 2373   9.967   2.154   1.529  0.3462  0.4297 -0.3131
  776MOL0     H 2374   9.981   2.244   1.378 -0.3078 -0.1339 -0.8369
  776MOL0     H 2375   9.944   2.403   1.630 -0.9813  1.0069 -0.7801
  776MOL0     H 2376   9.899   2.455   1.473 -1.9320 -0.1350  0.4005
  776MOL0     H 2377   9.695   2.415   1.570  1.0661  0.4115  2.7700
  776MOL0     H 2378   9.756   2.248   1.625  2.1216 -1.0594 -0.5210
  776MOL0     H 2379   9.752   2.172   1.394 -0.9757 -0.5967 -3.4416
  776MOL0     H 2380   9.750   2.326   1.330 -2.0427  2.1182 -0.1148
  776MOL0     H 2381   9.499   2.339   1.388  0.2260  1.2054 -0.8216
  776MOL0     H 2382   9.546   2.198   1.298  0.6537  1.8470 -1.1570
  776MOL0     H 2383   9.511   2.211   1.601 -2.0795  1.1158 -0.2038
  776MOL0     H 2384   9.569   2.075   1.510 -1.1718 -0.3928  0.7093
  776MOL0     H 2385   9.348   1.935   1.414 -0.9356 -0.9330  2.9239
  776MOL0     H 2386   8.990   1.969   1.523  0.1076  2.8004 -0.4804
  776MOL0     H 2387   9.067   1.844   1.431 -0.7650  0.2531  1.2225
  776MOL0     H 2388   9.031   2.011   1.228 -0.7450  1.9293 -0.6875
  776MOL0     H 2389   8.906   2.062   1.338 -0.0999  0.5531 -1.8266
  776MOL0     H 2390   8.958   1.764   1.252 -0.8167 -0.5140 -2.6198
  776MOL0     H 2391   8.818   1.821   1.327 -0.6099  0.3787 -1.0248
  776MOL0     H 2392   8.904   1.865   1.045 -0.0916 -0.2620 -0.0715
  776MOL0     H 2393   8.810   1.987   1.127  2.5068  0.0846  1.0588
  776MOL0     H 2394   8.570   1.912   1.266 -3.2160 -0.3316  1.0807
  776MOL0     H 2395   8.347   1.987   1.241  2.1007  0.3541  1.2426
  776MOL0     H 2396   8.001   1.841   0.743  2.0794  1.3980 -0.4238
  776MOL0     H 2397   7.745   1.852   0.703 -1.1881  0.7135  0.7981
  776MOL0     H 2398   7.483   1.943   0.980 -2.9559 -0.7644 -0.0786
  776MOL0     H 2399   7.592   1.826   0.892  0.7507  0.8935 -0.7812
  776MOL0     H 2400   7.372   1.766   0.800  0.7920 -1.2094 -0.4679
  776MOL0     H 2401   7.467   1.855   0.687 -1.0587  0.2139 -0.1394
  776MOL0     H 2402   7.366   2.032   0.687  0.0422  0.4459  0.2938
  776MOL0     H 2403   7.300   2.025   0.858  1.3101 -1.6401  0.9428
  776MOL0     H 2404   7.212   1.850   0.628  1.3923 -1.8974  2.5667
  776MOL0     H 2405   7.138   1.851   0.786  1.6944  1.1578  2.6460
  776MOL0     H 2406   7.127   2.056   0.567  1.9345 -0.9993  1.1109
  776MOL0     H 2407   7.077   2.106   0.727 -0.8871 -0.6437  1.0063
  776MOL0     H 2408   6.910   1.920   0.724  1.7930 -0.9903  0.4805
  776MOL0     H 2409   6.968   1.862   0.574  0.8089 -0.7442  1.8127
  776MOL0     H 2410   6.847   2.141   0.603  1.0077 -0.2929  1.4530
  776MOL0     H 2411   6.909   2.064   0.450  1.3401 -0.3938  0.8128
  776MOL0     H 2412   6.668   1.981   0.623  0.7216  0.6827 -0.7072
  776MOL0     H 2413   6.743   1.881   0.491  0.4774 -2.2334  1.8837
  776MOL0     H 2414   7.732   2.195   0.953  0.2834  1.2439 -0.9491
  776MOL0     H 2415   7.986   2.171   0.986  1.7697 -1.2708 -1.1662
  776MOL0     H 2416   8.377   1.923   0.818  0.0097  1.0187 -0.5231
  776MOL0     H 2417   8.612   1.846   0.847  1.0594 -3.2219  1.2084
  776MOL0     H 2418  10.338   1.939   1.426  0.8256 -1.1224 -2.2156
  776MOL0     H 2419  10.503   1.807   1.350 -1.9233 -0.3782  1.2210
  776MOL0     H 2420  10.905   1.548   1.525 -0.9840  3.9695  1.2802
  776MOL0     H 2421  11.107   1.422   1.475 -1.3613  0.6957  0.3934
  776MOL0     H 2422  11.380   1.587   1.160 -0.0800  0.2047 -0.2477
  776MOL0     H 2423  11.281   1.479   1.068  0.5566  2.2631 -0.3448
  776MOL0     H 2424  11.540   1.477   1.074  1.9190  1.9395  2.9264
  776MOL0     H 2425  11.519   1.395   1.230  0.2330 -0.9314 -0.5034
  776MOL0     H 2426  11.366   1.222   1.122  0.0721 -1.5758 -0.4032
  776MOL0     H 2427  11.531   1.206   1.092  1.8122  2.2092  2.8663
  776MOL0     H 2428  11.399   1.181   0.883  0.6603 -1.1358  2.1331
  776MOL0     H 2429  11.332   1.340   0.879  0.5132  1.0423  0.7762
  776MOL0     H 2430  11.702   1.370   0.694  0.1735  0.4734  0.7392
  776MOL0     H 2431  11.180   1.670   1.137 -1.6605  1.4874 -1.5169
  776MOL0     H 2432  10.980   1.784   1.170 -2.2613 -0.1701  0.6799
  777MOL0     O 2433   5.866   3.089  10.163 -0.5448  0.2615 -0.5307
  777MOL0     C 2434   5.872   2.968  10.177 -0.4160  0.1265  0.7852
  777MOL0     O 2435   5.774   2.889  10.155  0.2177  0.1271  0.3816
  777MOL0     C 2436   5.649   2.942  10.160 -0.2451  0.5888  0.3779
  777MOL0     C 2437   5.593   2.991  10.281  0.3930  0.1991  0.3089
  777MOL0     C 2438   5.462   3.029  10.284  0.2888  0.2207  0.1756
  777MOL0     C 2439   5.375   3.011  10.171  0.4882 -0.5214  0.5860
  777MOL0     O 2440   5.240   3.048  10.173 -0.4049  0.1095  0.0734
  777MOL0     C 2441   5.184   3.109  10.293  0.6149 -0.0046 -0.4846
  777MOL0     C 2442   5.049   3.150  10.268  1.0844  0.5400 -0.2591
  777MOL0     C 2443   4.973   3.191  10.395 -0.0048  0.2359 -0.1822
  777MOL0     C 2444   4.823   3.201  10.381 -0.5732  0.1575 -0.4930
  777MOL0     C 2445   4.765   3.229  10.520  0.0199 -0.0405 -0.4685
  777MOL0     C 2446   4.618   3.198  10.526  0.4342  0.4795  1.0819
  777MOL0     C 2447   4.554   3.208  10.662 -0.1627  0.4118  0.5300
  777MOL0     C 2448   4.482   3.339  10.671 -0.4760  0.5610 -0.2672
  777MOL0     N 2449   4.394   3.347  10.790  0.9293 -0.1982  0.2277
  777MOL0     C 2450   4.270   3.294  10.786  0.4230  0.4098 -0.3796
  777MOL0     C 2451   4.212   3.316  10.903  0.3082 -0.1405  0.0831
  777MOL0     C 2452   4.077   3.272  10.956 -0.1342  0.5940  0.3831
  777MOL0     C 2453   3.960   3.358  10.921  0.2042 -0.3176  0.6407
  777MOL0     C 2454   3.982   3.515  10.941 -0.8407  0.9334  0.2862
  777MOL0     C 2455   3.854   3.596  10.932  0.6722 -0.3166 -0.0114
  777MOL0     O 2456   3.772   3.564  11.043 -0.0436  0.6572 -0.3438
  777MOL0     C 2457   3.656   3.636  11.071  0.0509 -0.7402 -0.6161
  777MOL0     C 2458   3.606   3.748  10.997  0.1332 -0.2873  0.1300
  777MOL0     C 2459   3.491   3.817  11.044  0.1340 -0.0585  0.5741
  777MOL0     C 2460   3.426   3.780  11.164  0.7733 -0.4316 -0.0367
  777MOL0     C 2461   3.301   3.842  11.192 -0.1836  0.2701  0.9290
  777MOL0     O 2462   3.246   3.917  11.092  0.2886  0.1667  0.1408
  777MOL0     C 2463   3.118   3.966  11.110 -1.0612  0.4251  0.8413
  777MOL0     C 2464   3.023   3.964  11.010  0.1827  1.1370 -0.3481
  777MOL0     C 2465   2.897   4.009  11.029 -0.1262 -0.3834  0.6677
  777MOL0     C 2466   2.873   4.073  11.142  0.3302  0.3150 -0.0184
  777MOL0     O 2467   2.753   4.119  11.166 -0.0086  0.0519 -0.5814
  777MOL0     C 2468   2.654   4.116  11.055  0.3745 -0.1814  0.5570
  777MOL0     C 2469   2.551   4.223  11.091  0.0236 -0.0063  0.0355
  777MOL0     C 2470   2.468   4.273  10.973 -0.4574 -0.1870 -0.5138
  777MOL0     C 2471   2.393   4.394  11.020  0.6757 -0.1278  0.2188
  777MOL0     C 2472   2.284   4.439  10.907  0.1343 -0.2838 -1.0701
  777MOL0     C 2473   2.221   4.572  10.940  0.1005 -0.8336  0.2703
  777MOL0     C 2474   2.099   4.587  10.846  0.6663  0.7659  1.2562
  777MOL0     C 2475   2.025   4.717  10.857 -0.1430 -0.1538 -0.5152
  777MOL0    Cl 2476   1.863   4.706  10.793 -0.0552  0.3079  0.2828
  777MOL0     C 2477   2.961   4.091  11.245  0.2819 -0.6963  0.3548
  777MOL0     C 2478   3.087   4.033  11.229 -0.2847 -0.7516 -0.5085
  777MOL0     O 2479   3.257   3.820  11.309 -0.2279 -0.5823  0.4644
  777MOL0     C 2480   3.474   3.679  11.239 -0.5219  0.6801 -0.6570
  777MOL0     C 2481   3.589   3.605  11.190 -0.5523 -0.2095 -0.3026
  777MOL0     N 2482   4.300   3.393  10.978 -0.5700 -0.0481  0.2584
  777MOL0     N 2483   4.406   3.426  10.902  0.6817  0.4539 -0.5063
  777MOL0     C 2484   5.437   2.964  10.051  0.2220 -0.1035 -0.0127
  777MOL0     C 2485   5.573   2.937  10.042  0.9441 -0.3956 -1.3786
  777MOL0     C 2486   5.999   2.900  10.192  0.1029  0.4691 -0.2792
  777MOL0     C 2487   6.026   2.761  10.202  0.9225  0.5306  0.4351
  777MOL0     C 2488   6.156   2.707  10.193 -0.6677 -0.2202 -0.1506
  777MOL0     C 2489   6.270   2.790  10.202 -0.9446  0.0783 -0.0817
  777MOL0     O 2490   6.396   2.741  10.187  0.0674  0.0120  0.4228
  777MOL0     C 2491   6.413   2.598  10.161  0.4140  0.5655  0.5640
  777MOL0     C 2492   6.559   2.558  10.168  0.1415  0.8300 -0.2772
  777MOL0     C 2493   6.578   2.417  10.123 -0.7537 -0.2326 -0.4082
  777MOL0     C 2494   6.729   2.387  10.132  0.0559  0.4132  0.0218
  777MOL0     C 2495   6.773   2.344  10.260 -0.5077  0.6008  0.0202
  777MOL0     C 2496   6.827   2.303  10.366 -0.0965 -0.4756  0.1909
  777MOL0     C 2497   6.250   2.930  10.197  0.2265  0.6827 -0.2738
  777MOL0     C 2498   6.114   2.976  10.194 -0.2758  0.4017  0.1989
  777MOL0     H 2499   5.652   3.003  10.372  0.5774 -2.4084  0.6058
  777MOL0     H 2500   5.406   3.055  10.374 -1.4065 -2.3550 -0.0201
  777MOL0     H 2501   5.239   3.200  10.319  1.1850  0.4604 -3.1237
  777MOL0     H 2502   5.189   3.033  10.372 -2.9398 -0.7683 -0.8042
  777MOL0     H 2503   4.995   3.072  10.213  2.7057 -0.3392 -0.6789
  777MOL0     H 2504   5.055   3.245  10.215  1.6305  1.0585  0.7155
  777MOL0     H 2505   5.011   3.290  10.421  2.4890 -0.3465 -1.2462
  777MOL0     H 2506   4.998   3.127  10.480  1.6943  0.9532 -0.0992
  777MOL0     H 2507   4.807   3.278  10.306  1.2748  0.0341 -1.0709
  777MOL0     H 2508   4.784   3.107  10.341  0.6817 -0.3956 -0.4711
  777MOL0     H 2509   4.784   3.330  10.557 -1.5027  1.4345 -3.3218
  777MOL0     H 2510   4.807   3.154  10.587  1.6862  0.5112 -0.8629
  777MOL0     H 2511   4.600   3.096  10.490  2.7639  0.0824  0.9220
  777MOL0     H 2512   4.560   3.254  10.451 -1.1005 -2.0758  0.2447
  777MOL0     H 2513   4.493   3.118  10.671  2.9757 -1.8358  1.1519
  777MOL0     H 2514   4.629   3.202  10.741 -2.8341  0.2752  3.2486
  777MOL0     H 2515   4.421   3.359  10.582 -0.4612  1.5747 -0.0573
  777MOL0     H 2516   4.563   3.412  10.668  2.2216 -2.2354 -0.4501
  777MOL0     H 2517   4.232   3.236  10.703  2.6283 -0.9846 -0.5026
  777MOL0     H 2518   4.091   3.274  11.064  0.7486  0.8052  0.2719
  777MOL0     H 2519   4.050   3.172  10.921  3.1872  0.1666 -1.3690
  777MOL0     H 2520   3.878   3.317  10.980  0.4601 -2.9338 -0.6877
  777MOL0     H 2521   3.929   3.338  10.818  0.4306 -0.6815  0.6415
  777MOL0     H 2522   4.032   3.532  11.037 -0.3358 -0.5887  0.3181
  777MOL0     H 2523   4.051   3.535  10.858  0.0738 -2.1992  0.1962
  777MOL0     H 2524   3.807   3.571  10.837  0.7545  0.9237 -0.3956
  777MOL0     H 2525   3.878   3.703  10.931  1.3045 -0.4573 -1.7463
  777MOL0     H 2526   3.662   3.779  10.910  0.1014  0.8338  0.4895
  777MOL0     H 2527   3.463   3.898  10.977  2.4288 -1.1909 -1.9116
  777MOL0     H 2528   3.059   3.919  10.918  1.1948 -0.1014  0.6095
  777MOL0     H 2529   2.824   3.981  10.954  0.9960  2.4501 -1.6916
  777MOL0     H 2530   2.609   4.022  11.020 -3.7087  2.7233 -3.0375
  777MOL0     H 2531   2.699   4.164  10.968 -1.1680 -1.8135 -1.2237
  777MOL0     H 2532   2.605   4.297  11.151 -2.4408 -0.8206  3.5852
  777MOL0     H 2533   2.479   4.175  11.158 -1.7961 -0.1836 -1.9718
  777MOL0     H 2534   2.399   4.195  10.938  1.4577 -1.9257 -0.6468
  777MOL0     H 2535   2.529   4.301  10.886 -0.4014  0.2986 -0.3215
  777MOL0     H 2536   2.348   4.370  11.117  3.3117 -0.7461  1.3813
  777MOL0     H 2537   2.466   4.472  11.043  0.3495  0.4084 -0.5311
  777MOL0     H 2538   2.214   4.356  10.899 -0.6981  0.1955  0.6863
  777MOL0     H 2539   2.333   4.450  10.810  1.8643 -1.1813 -0.3444
  777MOL0     H 2540   2.297   4.649  10.922 -0.1670 -1.3247 -3.8671
  777MOL0     H 2541   2.182   4.568  11.043 -1.6071 -0.4584 -0.3267
  777MOL0     H 2542   2.126   4.573  10.741  0.3686  2.1748  0.9695
  777MOL0     H 2543   2.034   4.501  10.866  1.4012 -0.1809 -0.2179
  777MOL0     H 2544   2.084   4.795  10.807  0.3931 -0.7596 -0.8579
  777MOL0     H 2545   2.021   4.732  10.965  3.3525 -2.4667  0.1141
  777MOL0     H 2546   2.946   4.139  11.341  0.2313  0.1273 -0.0634
  777MOL0     H 2547   3.162   4.049  11.306  0.6537  1.2411 -1.7730
  777MOL0     H 2548   3.427   3.638  11.328  0.7529 -0.2798 -0.3901
  777MOL0     H 2549   3.633   3.524  11.246  0.5571  0.0202 -0.8077
  777MOL0     H 2550   5.374   2.968   9.963 -0.7497  2.7878  0.7117
  777MOL0     H 2551   5.628   2.916   9.951  2.6339  0.5401 -0.6365
  777MOL0     H 2552   5.940   2.696  10.216 -1.0306  3.2752  2.3119
  777MOL0     H 2553   6.156   2.599  10.207  1.0593  0.1672  4.0559
  777MOL0     H 2554   6.369   2.576  10.062  1.1843  1.3541  0.0341
  777MOL0     H 2555   6.354   2.532  10.225  2.1963 -1.1833  0.4728
  777MOL0     H 2556   6.624   2.629  10.116  4.3312  0.9269  4.3532
  777MOL0     H 2557   6.601   2.566  10.269  1.2478  2.0905 -0.8108
  777MOL0     H 2558   6.534   2.418  10.023  0.1150  1.1477 -0.7850
  777MOL0     H 2559   6.522   2.348  10.188 -1.1217 -0.6265 -1.1330
  777MOL0     H 2560   6.761   2.319  10.053  1.6856  0.7245  0.3824
  777MOL0     H 2561   6.787   2.478  10.116  0.4699 -0.0609 -1.2997
  777MOL0     H 2562   6.880   2.272  10.453 -2.6144 -0.8178  1.6853
  777MOL0     H 2563   6.332   3.000  10.193 -1.7008  3.0878  0.2720
  777MOL0     H 2564   6.097   3.082  10.181  0.6105  0.5757  0.3659
  778MOL0     O 2565   6.363  11.191   1.499  0.2072 -0.0421 -0.2091
  778MOL0     C 2566   6.369  11.099   1.422  0.6220 -0.7569 -0.6962
  778MOL0     O 2567   6.279  11.060   1.337  0.2209 -0.5289  0.9200
  778MOL0     C 2568   6.143  11.084   1.358 -1.1061 -0.1715 -0.9033
  778MOL0     C 2569   6.068  11.099   1.482  0.2068 -0.1877 -0.4036
  778MOL0     C 2570   5.928  11.104   1.490 -0.2825 -0.7349 -0.3800
  778MOL0     C 2571   5.858  11.090   1.366  0.8768 -0.4251 -0.1339
  778MOL0     O 2572   5.719  11.108   1.361 -0.0696  1.0806  0.3687
  778MOL0     C 2573   5.631  11.053   1.462  0.2856 -0.6314 -0.0435
  778MOL0     C 2574   5.506  11.010   1.389  0.3953 -0.4644 -0.0039
  778MOL0     C 2575   5.415  10.931   1.478  0.3365  1.0061 -0.1857
  778MOL0     C 2576   5.293  10.875   1.403 -0.4567 -0.5939 -0.1041
  778MOL0     C 2577   5.181  10.827   1.505 -1.0483 -0.3629  0.1771
  778MOL0     C 2578   5.047  10.806   1.444  0.3108 -0.6819 -0.0604
  778MOL0     C 2579   4.938  10.763   1.538  1.4928 -0.7284 -0.5161
  778MOL0     C 2580   4.895  10.872   1.642 -0.6189  1.2572 -0.3217
  778MOL0     N 2581   4.748  10.882   1.655 -0.2706  0.1640  0.3187
  778MOL0     C 2582   4.668  10.836   1.753 -0.5050  0.7175  0.2747
  778MOL0     C 2583   4.544  10.867   1.711 -0.5459 -0.6943 -0.4031
  778MOL0     C 2584   4.427  10.842   1.806  0.5229 -0.0519  0.0981
  778MOL0     C 2585   4.306  10.935   1.784  0.0608 -0.2405  1.3583
  778MOL0     C 2586   4.239  10.942   1.641 -0.0514 -0.3996  0.7505
  778MOL0     C 2587   4.216  10.809   1.560 -0.0299  0.4333 -0.5409
  778MOL0     O 2588   4.105  10.736   1.621  0.3209  0.1486  0.0845
  778MOL0     C 2589   3.978  10.777   1.585 -0.1227 -0.0531  0.4369
  778MOL0     C 2590   3.870  10.734   1.666  0.2977 -0.0056  0.5695
  778MOL0     C 2591   3.738  10.754   1.628 -0.2826  0.6491 -0.3349
  778MOL0     C 2592   3.706  10.829   1.511  0.3309  0.1291 -0.2809
  778MOL0     C 2593   3.576  10.871   1.480  1.2579 -0.9598 -0.2334
  778MOL0     O 2594   3.554  10.926   1.358  0.5627  0.1227  0.4112
  778MOL0     C 2595   3.426  10.948   1.318  0.0728  0.7715 -0.1757
  778MOL0     C 2596   3.322  10.848   1.336 -0.2364 -0.4031 -0.8931
  778MOL0     C 2597   3.198  10.863   1.274 -0.3887 -1.2188  0.2714
  778MOL0     C 2598   3.164  10.979   1.199  0.8113  0.2371 -0.1150
  778MOL0     O 2599   3.044  10.969   1.143  0.4688  0.4964 -0.3007
  778MOL0     C 2600   2.952  11.061   1.186 -1.4816  0.4242 -0.0615
  778MOL0     C 2601   2.823  11.035   1.113  0.4694 -0.0152  0.5331
  778MOL0     C 2602   2.723  11.152   1.117  0.0268  0.2612 -0.5066
  778MOL0     C 2603   2.599  11.120   1.025 -0.8396  0.4184 -0.0463
  778MOL0     C 2604   2.485  11.220   1.046  0.4008  0.0570  0.2890
  778MOL0     C 2605   2.541  11.369   1.046 -0.0767  0.3552 -0.4154
  778MOL0     C 2606   2.414  11.460   1.037 -0.2761 -0.0463  0.1567
  778MOL0     C 2607   2.366  11.482   0.898  0.2725  0.1460 -0.0884
  778MOL0    Cl 2608   2.192  11.527   0.900 -0.1068  0.2634 -0.0993
  778MOL0     C 2609   3.266  11.081   1.189  0.2790  0.2453  0.1057
  778MOL0     C 2610   3.390  11.064   1.246  0.0206  0.6056 -0.1485
  778MOL0     O 2611   3.485  10.844   1.556 -0.3712 -0.0029 -0.4692
  778MOL0     C 2612   3.810  10.877   1.437  0.6740 -0.1261 -0.2776
  778MOL0     C 2613   3.945  10.849   1.464  0.5593 -0.3819  0.9994
  778MOL0     N 2614   4.550  10.940   1.598 -0.2603 -0.0411  0.4746
  778MOL0     N 2615   4.669  10.959   1.575 -0.1548 -0.5240  0.1802
  778MOL0     C 2616   5.921  11.073   1.246 -0.7959 -0.3767 -0.2316
  778MOL0     C 2617   6.065  11.066   1.244 -0.1858 -0.3079 -0.2200
  778MOL0     C 2618   6.494  11.013   1.431 -0.4913 -0.6195  0.2708
  778MOL0     C 2619   6.508  10.896   1.355  0.1589 -0.4622  0.4674
  778MOL0     C 2620   6.618  10.814   1.366 -0.0165 -0.4776 -0.2634
  778MOL0     C 2621   6.717  10.853   1.461  0.8767 -0.8869  0.4557
  778MOL0     O 2622   6.818  10.760   1.474 -0.0399  0.0498  0.1721
  778MOL0     C 2623   6.890  10.751   1.598 -0.1513  0.9012 -0.5265
  778MOL0     C 2624   6.905  10.601   1.621  0.3201  0.1165 -0.2054
  778MOL0     C 2625   7.011  10.529   1.538 -0.6064 -0.0870 -0.1306
  778MOL0     C 2626   7.153  10.524   1.587  0.1268  0.1181 -0.2870
  778MOL0     C 2627   7.170  10.442   1.714 -0.2959 -0.3746 -0.1746
  778MOL0     C 2628   7.175  10.373   1.814  1.1826  0.8672  0.5447
  778MOL0     C 2629   6.710  10.975   1.527  0.8678  0.1379 -0.6868
  778MOL0     C 2630   6.601  11.054   1.513  0.0774  0.0374  0.5302
  778MOL0     H 2631   6.122  11.127   1.572  1.7492  0.5920 -1.5173
  778MOL0     H 2632   5.882  11.129   1.586  0.3177  0.0738 -0.2932
  778MOL0     H 2633   5.615  11.137   1.530 -1.0033  1.2294 -2.4827
  778MOL0     H 2634   5.682  10.979   1.525 -1.4586 -0.0300  2.2232
  778MOL0     H 2635   5.527  10.963   1.292 -0.9444  2.0390 -1.6287
  778MOL0     H 2636   5.443  11.095   1.359 -1.4726 -1.9459 -0.4508
  778MOL0     H 2637   5.373  10.992   1.558  1.6278  0.0015  1.3254
  778MOL0     H 2638   5.469  10.847   1.524 -1.4431  0.6974  1.4210
  778MOL0     H 2639   5.247  10.949   1.336  0.4388  0.1157  0.0552
  778MOL0     H 2640   5.321  10.788   1.343 -2.2463 -0.1474 -1.7231
  778MOL0     H 2641   5.172  10.908   1.578  0.7929  0.8428 -0.8542
  778MOL0     H 2642   5.206  10.735   1.559 -0.5427  0.9645  2.3483
  778MOL0     H 2643   5.059  10.725   1.371 -1.0006 -0.9706  0.0278
  778MOL0     H 2644   5.013  10.892   1.386 -0.8323 -1.5321 -0.6886
  778MOL0     H 2645   4.849  10.746   1.475  0.8517  0.7540 -0.0408
  778MOL0     H 2646   4.958  10.667   1.587  2.0463  0.3711  1.5021
  778MOL0     H 2647   4.943  10.969   1.623 -2.1237  2.1806  0.4414
  778MOL0     H 2648   4.944  10.840   1.735 -0.9647  1.8796  0.0798
  778MOL0     H 2649   4.690  10.771   1.838 -3.4926 -0.1957  0.4805
  778MOL0     H 2650   4.459  10.855   1.910  0.6309  2.1738 -0.1636
  778MOL0     H 2651   4.393  10.739   1.795  3.2397 -0.7331 -3.1315
  778MOL0     H 2652   4.346  11.036   1.799  0.1766 -0.0653  0.0160
  778MOL0     H 2653   4.235  10.912   1.864 -1.4166 -3.6324 -0.6954
  778MOL0     H 2654   4.143  10.995   1.648  1.6643  3.4018 -1.6815
  778MOL0     H 2655   4.292  11.024   1.592 -0.7387  1.0822  2.3547
  778MOL0     H 2656   4.302  10.743   1.573  0.1414  0.7981  0.2210
  778MOL0     H 2657   4.212  10.833   1.453  1.6559 -1.4654 -1.0921
  778MOL0     H 2658   3.885  10.698   1.768 -1.3047 -0.6500  0.6101
  778MOL0     H 2659   3.665  10.705   1.691  2.2544 -2.5786  0.3684
  778MOL0     H 2660   3.353  10.754   1.380  0.2724  0.0791 -0.2000
  778MOL0     H 2661   3.130  10.781   1.295  0.8361 -1.8759  1.8861
  778MOL0     H 2662   2.985  11.159   1.148  1.8874 -1.1825 -1.8142
  778MOL0     H 2663   2.926  11.053   1.291  0.3131  0.6436  0.4383
  778MOL0     H 2664   2.781  10.941   1.150  1.1836 -0.5998 -0.1239
  778MOL0     H 2665   2.855  11.019   1.010 -0.2834 -0.6696  0.3850
  778MOL0     H 2666   2.769  11.249   1.097  0.9769 -0.0990 -0.1090
  778MOL0     H 2667   2.691  11.154   1.222 -2.4319  0.1608 -1.1816
  778MOL0     H 2668   2.640  11.132   0.924  0.5382  2.3801  0.6689
  778MOL0     H 2669   2.566  11.018   1.044  0.0984  0.2864  1.0047
  778MOL0     H 2670   2.440  11.201   1.144 -1.2190  3.7254  0.4227
  778MOL0     H 2671   2.411  11.211   0.966  0.5134 -0.5056  0.2420
  778MOL0     H 2672   2.616  11.382   0.968  0.2562 -1.5117 -0.4448
  778MOL0     H 2673   2.599  11.386   1.137 -4.5331  0.2904  2.7561
  778MOL0     H 2674   2.340  11.432   1.113  1.2973 -1.3865  1.2801
  778MOL0     H 2675   2.438  11.558   1.081  0.3949  0.3134 -0.9790
  778MOL0     H 2676   2.372  11.389   0.841 -0.7243  0.5049 -0.8210
  778MOL0     H 2677   2.436  11.556   0.859  0.9684  1.3999  3.2259
  778MOL0     H 2678   3.247  11.175   1.139  0.9868  0.8540  0.9487
  778MOL0     H 2679   3.461  11.144   1.232 -0.7628  1.2127 -0.7172
  778MOL0     H 2680   3.798  10.944   1.352 -1.6789  0.0539  0.1338
  778MOL0     H 2681   4.023  10.890   1.400  1.2976 -0.9352  1.5352
  778MOL0     H 2682   5.863  11.050   1.157  1.2749 -1.9544 -1.2833
  778MOL0     H 2683   6.124  11.054   1.153  4.2475 -2.9084  2.6602
  778MOL0     H 2684   6.436  10.851   1.289  0.1517  1.0245 -0.5887
  778MOL0     H 2685   6.621  10.720   1.311  0.6401 -0.0880 -0.9100
  778MOL0     H 2686   6.846  10.793   1.689  1.0147 -0.0959  0.5432
  778MOL0     H 2687   6.983  10.806   1.584 -0.9069  2.0753 -1.0261
  778MOL0     H 2688   6.927  10.579   1.726  1.2039  0.1637 -0.3668
  778MOL0     H 2689   6.815  10.547   1.592 -2.0552  2.8314  1.5817
  778MOL0     H 2690   7.007  10.576   1.440  3.8580  0.1315 -0.4079
  778MOL0     H 2691   6.984  10.423   1.532 -1.5726  0.1471 -0.0732
  778MOL0     H 2692   7.214  10.476   1.510 -1.2724  0.0305 -1.3668
  778MOL0     H 2693   7.196  10.620   1.615  0.0957 -0.9393  4.0929
  778MOL0     H 2694   7.185  10.326   1.910  2.1574  2.2963  1.1731
  778MOL0     H 2695   6.788  11.012   1.593 -0.0584 -0.8465  1.0327
  778MOL0     H 2696   6.587  11.148   1.566 -0.4299  0.0494  0.3774
  779MOL0     O 2697   1.982   5.078   4.784  0.3820  0.4649  0.4694
  779MOL0     C 2698   2.021   5.129   4.882  0.5063 -0.7773  0.3321
  779MOL0     O 2699   1.958   5.231   4.946 -0.2039  0.1466  0.2475
  779MOL0     C 2700   1.880   5.323   4.883  0.6951 -0.0635 -0.0079
  779MOL0     C 2701   1.909   5.365   4.751  0.3491  0.0247  0.0036
  779MOL0     C 2702   1.828   5.453   4.691  0.1476  0.3262 -0.2817
  779MOL0     C 2703   1.713   5.510   4.756  0.2965  0.2626  0.4013
  779MOL0     O 2704   1.629   5.586   4.676  0.1264 -0.5802 -0.6871
  779MOL0     C 2705   1.563   5.700   4.732  0.7984 -0.3651 -0.2238
  779MOL0     C 2706   1.490   5.755   4.613 -0.2423 -0.7186  0.1418
  779MOL0     C 2707   1.381   5.847   4.678  0.4698  0.7462  0.0158
  779MOL0     C 2708   1.284   5.908   4.575  0.1340 -0.1166 -0.0118
  779MOL0     C 2709   1.165   5.979   4.648 -0.4993 -0.1404 -0.3552
  779MOL0     C 2710   1.053   6.006   4.551  0.6574  0.1458 -0.5994
  779MOL0     C 2711   0.940   6.084   4.619 -0.9489 -0.6716  0.1125
  779MOL0     C 2712   0.865   6.002   4.721  0.2881 -0.2286  0.4109
  779MOL0     N 2713   0.787   6.082   4.818  0.1614 -0.2313 -0.3413
  779MOL0     C 2714   0.665   6.134   4.792  0.2446 -1.0276 -0.1339
  779MOL0     C 2715   0.611   6.160   4.918 -0.0940  0.6759  0.3388
  779MOL0     C 2716   0.473   6.209   4.944  0.1411  0.0776 -0.4488
  779MOL0     C 2717   0.382   6.090   4.979 -0.5900 -0.1474  0.3736
  779MOL0     C 2718   0.228   6.097   4.998 -0.4953 -0.4343 -0.3292
  779MOL0     C 2719   0.200   6.180   5.126  0.0491 -0.8549 -0.3981
  779MOL0     O 2720   0.238   6.097   5.246  0.8058 -0.4323  0.1443
  779MOL0     C 2721   0.152   5.995   5.269  0.5765 -0.1208 -0.3223
  779MOL0     C 2722   0.032   6.022   5.340  0.6019  0.6262  0.6829
  779MOL0     C 2723  -0.068   5.924   5.357  0.3684 -0.4974 -0.1410
  779MOL0     C 2724  -0.048   5.792   5.310 -0.3105 -0.9231 -0.6285
  779MOL0     C 2725  -0.146   5.690   5.342 -0.0892 -0.3063  0.0237
  779MOL0     O 2726  -0.274   5.730   5.329  0.1661 -0.3741  0.1706
  779MOL0     C 2727  -0.384   5.654   5.367 -0.6718 -0.0218  0.2690
  779MOL0     C 2728  -0.496   5.654   5.291 -0.3031  0.6203  0.7368
  779MOL0     C 2729  -0.606   5.576   5.317  0.7744  0.4919  0.1748
  779MOL0     C 2730  -0.614   5.505   5.438 -0.6113 -0.2120  0.6066
  779MOL0     O 2731  -0.737   5.446   5.457 -0.3465 -0.2210  0.2454
  779MOL0     C 2732  -0.763   5.335   5.550  0.4671  0.1468 -0.0555
  779MOL0     C 2733  -0.910   5.298   5.551  0.1167 -0.0245 -0.0851
  779MOL0     C 2734  -0.999   5.393   5.644  0.5351  0.2686  0.7427
  779MOL0     C 2735  -1.146   5.351   5.638 -0.1972 -0.6693 -0.3792
  779MOL0     C 2736  -1.234   5.413   5.743 -0.7493 -0.2537  0.0376
  779MOL0     C 2737  -1.368   5.330   5.744  0.4508 -0.2125 -0.3117
  779MOL0     C 2738  -1.468   5.402   5.839 -0.0875 -0.3049 -0.0300
  779MOL0     C 2739  -1.603   5.335   5.859 -0.3224 -0.5835 -0.6806
  779MOL0    Cl 2740  -1.695   5.448   5.982  0.5697 -0.4402 -0.1594
  779MOL0     C 2741  -0.505   5.509   5.524 -0.1286 -1.2275 -0.8629
  779MOL0     C 2742  -0.383   5.579   5.490 -0.2949 -0.5282  0.7302
  779MOL0     O 2743  -0.107   5.581   5.379  0.2018  0.0750 -0.1299
  779MOL0     C 2744   0.074   5.765   5.247  0.1937 -0.6955 -0.4982
  779MOL0     C 2745   0.172   5.865   5.220 -0.5054  0.2433  0.7345
  779MOL0     N 2746   0.698   6.119   5.016 -0.0145 -0.0731  0.2249
  779MOL0     N 2747   0.799   6.060   4.955  0.1713  0.9611  0.5492
  779MOL0     C 2748   1.699   5.481   4.888  1.0936 -0.4189 -0.7898
  779MOL0     C 2749   1.781   5.394   4.951 -0.1179 -0.6271 -0.4294
  779MOL0     C 2750   2.122   5.052   4.956  0.2401 -0.9361 -1.0951
  779MOL0     C 2751   2.131   5.065   5.098  0.0889  1.1996 -0.7320
  779MOL0     C 2752   2.222   4.994   5.169  0.9900  0.0877  0.5038
  779MOL0     C 2753   2.306   4.901   5.107 -0.3391 -0.4085 -0.4788
  779MOL0     O 2754   2.398   4.815   5.160  0.0620 -0.0058 -0.3387
  779MOL0     C 2755   2.415   4.804   5.302  0.2965  0.1475 -0.2975
  779MOL0     C 2756   2.520   4.692   5.347  0.1847 -0.8851 -0.2118
  779MOL0     C 2757   2.657   4.696   5.269 -0.5458  0.3773 -0.2862
  779MOL0     C 2758   2.756   4.594   5.330 -0.0003  0.1891  0.1765
  779MOL0     C 2759   2.885   4.599   5.273  0.1181  0.3681  0.1121
  779MOL0     C 2760   2.996   4.589   5.236 -0.0346  1.0617 -0.3130
  779MOL0     C 2761   2.303   4.887   4.968 -0.5087  0.0542 -0.5975
  779MOL0     C 2762   2.213   4.963   4.890  0.0545  0.3734 -1.0047
  779MOL0     H 2763   1.993   5.338   4.687  0.4819  2.4924 -1.0038
  779MOL0     H 2764   1.844   5.472   4.586  0.0752  1.7624 -0.0503
  779MOL0     H 2765   1.628   5.775   4.778  0.8903 -2.0834  2.6642
  779MOL0     H 2766   1.493   5.665   4.808 -0.9971 -0.4671 -1.8461
  779MOL0     H 2767   1.429   5.680   4.560 -0.0799 -1.7819  1.4190
  779MOL0     H 2768   1.558   5.801   4.540  1.0571 -0.8912  1.2156
  779MOL0     H 2769   1.432   5.923   4.738 -1.7568  0.0963  2.9976
  779MOL0     H 2770   1.316   5.787   4.743 -0.0430 -0.7504 -1.7853
  779MOL0     H 2771   1.345   5.967   4.505 -1.8746  0.2098 -1.5862
  779MOL0     H 2772   1.237   5.838   4.505  0.2512  0.8183 -1.0563
  779MOL0     H 2773   1.202   6.079   4.674  1.5523 -0.6538 -1.1047
  779MOL0     H 2774   1.132   5.921   4.734  0.0437  0.0335 -0.0219
  779MOL0     H 2775   1.014   5.910   4.516  5.2207 -3.2785  2.4132
  779MOL0     H 2776   1.089   6.063   4.465  0.4987 -1.7107 -1.9591
  779MOL0     H 2777   0.990   6.168   4.667  0.2866 -2.5010  2.2447
  779MOL0     H 2778   0.869   6.124   4.547 -0.9174  0.0754  0.4827
  779MOL0     H 2779   0.939   5.937   4.769  0.9229  0.1193 -0.0791
  779MOL0     H 2780   0.798   5.936   4.665 -2.2781  1.0364  1.8494
  779MOL0     H 2781   0.624   6.163   4.696  1.9261  2.4744  0.0361
  779MOL0     H 2782   0.430   6.253   4.853  0.2166  0.7313 -0.1739
  779MOL0     H 2783   0.476   6.275   5.031  0.0742 -2.0084  1.1964
  779MOL0     H 2784   0.426   6.051   5.071  1.3327  0.6274 -0.1768
  779MOL0     H 2785   0.386   6.010   4.905 -0.1990 -0.3305  0.5894
  779MOL0     H 2786   0.183   6.152   4.914 -0.8161 -0.2887 -0.0611
  779MOL0     H 2787   0.172   6.004   4.984 -1.6759  0.3343 -0.8775
  779MOL0     H 2788   0.097   6.216   5.132  0.8720  1.3720  2.0304
  779MOL0     H 2789   0.266   6.267   5.135 -1.7962  0.4576  1.1793
  779MOL0     H 2790   0.013   6.127   5.360  1.2492  0.7220  0.7893
  779MOL0     H 2791  -0.157   5.956   5.408  0.2545  3.1096 -2.2794
  779MOL0     H 2792  -0.507   5.720   5.206 -0.8995  0.0102  0.3295
  779MOL0     H 2793  -0.685   5.569   5.243  0.3012 -0.2162  0.7367
  779MOL0     H 2794  -0.738   5.371   5.650  0.1304  0.9240 -0.2378
  779MOL0     H 2795  -0.708   5.243   5.531 -0.0524 -0.3361  0.7248
  779MOL0     H 2796  -0.932   5.194   5.576  0.2672 -0.6815 -2.4636
  779MOL0     H 2797  -0.935   5.303   5.445 -0.4181 -3.1710 -0.2114
  779MOL0     H 2798  -1.000   5.495   5.606 -0.8119  0.3334  0.9098
  779MOL0     H 2799  -0.968   5.396   5.749  1.5056 -0.7291  0.5032
  779MOL0     H 2800  -1.197   5.364   5.542 -1.0022 -0.9710 -0.0013
  779MOL0     H 2801  -1.142   5.244   5.661 -0.2317 -0.0495  2.9883
  779MOL0     H 2802  -1.251   5.520   5.729 -3.4327 -0.4526  1.0689
  779MOL0     H 2803  -1.180   5.396   5.837 -2.7687  0.7703  1.4683
  779MOL0     H 2804  -1.327   5.242   5.795  2.1428  1.1920  0.8959
  779MOL0     H 2805  -1.413   5.317   5.646  2.2150 -1.7625 -0.9849
  779MOL0     H 2806  -1.416   5.406   5.935  0.3046 -0.0071 -0.2550
  779MOL0     H 2807  -1.489   5.504   5.806 -0.1967 -0.8744 -1.8312
  779MOL0     H 2808  -1.586   5.233   5.895 -1.7230 -1.5419 -2.5663
  779MOL0     H 2809  -1.667   5.345   5.771 -1.0992  1.1884  0.0315
  779MOL0     H 2810  -0.507   5.436   5.604 -4.7595 -2.2553 -1.6739
  779MOL0     H 2811  -0.300   5.574   5.560 -0.1598 -1.3581  0.5158
  779MOL0     H 2812   0.100   5.663   5.220  4.3699  0.0589  0.0232
  779MOL0     H 2813   0.262   5.844   5.164 -1.7186  0.5335 -1.4131
  779MOL0     H 2814   1.610   5.517   4.938  0.5714 -3.7493  0.9481
  779MOL0     H 2815   1.780   5.367   5.057  3.4011  0.5378  0.0327
  779MOL0     H 2816   2.065   5.130   5.155 -1.1013 -3.1655  3.5581
  779MOL0     H 2817   2.217   5.004   5.277  1.9691  0.3754  0.5373
  779MOL0     H 2818   2.317   4.784   5.347  0.9323  2.1121  2.1818
  779MOL0     H 2819   2.448   4.903   5.334  0.7148  0.0205 -0.3383
  779MOL0     H 2820   2.529   4.721   5.452 -0.7598  0.4847 -0.4844
  779MOL0     H 2821   2.482   4.589   5.348 -1.3740 -0.3845 -1.9105
  779MOL0     H 2822   2.693   4.798   5.284 -0.7480  0.5150 -0.7133
  779MOL0     H 2823   2.646   4.677   5.162  1.8919 -1.7427 -0.2490
  779MOL0     H 2824   2.757   4.607   5.438  0.4819 -0.6054  0.2725
  779MOL0     H 2825   2.713   4.494   5.322 -1.7402  0.8711  0.4506
  779MOL0     H 2826   3.101   4.590   5.213  0.6366  0.2875  2.3579
  779MOL0     H 2827   2.371   4.812   4.929  0.0957 -0.0156  0.5509
  779MOL0     H 2828   2.213   4.947   4.783 -2.1892  0.4645 -1.0535
  780MOL0     O 2829   6.648   3.602   7.095 -0.7266  0.2112 -0.2913
  780MOL0     C 2830   6.665   3.700   7.024  0.1141 -0.3593  0.1598
  780MOL0     O 2831   6.649   3.707   6.889 -0.3505  0.2727  0.2724
  780MOL0     C 2832   6.585   3.615   6.814 -0.2010 -0.2203 -0.0232
  780MOL0     C 2833   6.472   3.541   6.857  0.1751 -0.1505  0.2445
  780MOL0     C 2834   6.412   3.449   6.771  0.2301  0.2425 -0.7147
  780MOL0     C 2835   6.452   3.428   6.640 -0.7428 -0.2190 -0.0228
  780MOL0     O 2836   6.396   3.332   6.569  0.2108 -0.3377 -0.0610
  780MOL0     C 2837   6.440   3.194   6.581  0.1520  0.2593 -0.2969
  780MOL0     C 2838   6.327   3.095   6.555 -0.4534  0.0533 -0.6964
  780MOL0     C 2839   6.223   3.078   6.669  0.0702  0.3606 -0.1354
  780MOL0     C 2840   6.112   2.980   6.613 -0.8580 -0.2589  0.2510
  780MOL0     C 2841   6.037   2.920   6.733  0.2175  0.8808  0.4720
  780MOL0     C 2842   5.966   3.026   6.825 -0.1586  0.0257 -0.1598
  780MOL0     C 2843   5.873   3.121   6.752 -0.5977 -1.0695 -0.9110
  780MOL0     C 2844   5.746   3.044   6.718 -0.1783 -0.5770 -1.0771
  780MOL0     N 2845   5.636   3.135   6.670  1.0621  0.3931  0.4016
  780MOL0     C 2846   5.521   3.169   6.741 -0.8839  0.4666 -0.2513
  780MOL0     C 2847   5.459   3.266   6.674 -0.2201 -0.6637  0.6381
  780MOL0     C 2848   5.325   3.312   6.707  0.6805 -0.1920  0.0803
  780MOL0     C 2849   5.223   3.200   6.668  0.4385 -0.5410  0.7970
  780MOL0     C 2850   5.164   3.213   6.530 -0.3564  0.0197 -0.9150
  780MOL0     C 2851   5.134   3.078   6.472 -0.2654  0.0419  0.0572
  780MOL0     O 2852   5.026   3.006   6.541  0.3056  0.5479  0.2316
  780MOL0     C 2853   4.899   3.073   6.535  0.0077  0.7757  0.4774
  780MOL0     C 2854   4.824   3.053   6.652 -0.4212 -0.3179  0.0020
  780MOL0     C 2855   4.688   3.111   6.651  0.0347  0.4746  0.6243
  780MOL0     C 2856   4.642   3.183   6.538 -0.1487 -0.7338  0.3122
  780MOL0     C 2857   4.495   3.241   6.549  0.2187 -1.1947  0.0505
  780MOL0     O 2858   4.412   3.212   6.655 -0.3754 -0.4512  0.0770
  780MOL0     C 2859   4.275   3.244   6.645 -0.9063 -0.8590 -0.0054
  780MOL0     C 2860   4.206   3.213   6.521 -0.2035 -0.1861  0.0685
  780MOL0     C 2861   4.066   3.231   6.511 -0.0815 -0.1959  0.2377
  780MOL0     C 2862   3.992   3.283   6.621 -0.6862  0.7525 -0.3436
  780MOL0     O 2863   3.854   3.282   6.606 -0.9160  0.0422 -0.1211
  780MOL0     C 2864   3.773   3.349   6.706  0.6645 -0.1502 -0.1501
  780MOL0     C 2865   3.627   3.307   6.709 -0.8435 -0.5521  0.7301
  780MOL0     C 2866   3.592   3.176   6.780 -0.0392 -0.3042 -1.0517
  780MOL0     C 2867   3.441   3.148   6.789 -0.1399 -0.3409  0.0272
  780MOL0     C 2868   3.381   3.102   6.658  0.1000 -0.3619 -0.8671
  780MOL0     C 2869   3.236   3.065   6.676  0.6541 -0.0552  0.5854
  780MOL0     C 2870   3.186   3.008   6.549  0.2915  0.0265  0.5406
  780MOL0     C 2871   3.051   2.942   6.569  1.1456 -1.0646  0.0897
  780MOL0    Cl 2872   2.935   3.067   6.622  0.0161 -0.2956  0.0360
  780MOL0     C 2873   4.064   3.320   6.733  0.0444  0.8023 -0.2879
  780MOL0     C 2874   4.200   3.303   6.750 -0.6430  0.5959  0.2859
  780MOL0     O 2875   4.469   3.324   6.462  0.1331 -0.8391 -0.2809
  780MOL0     C 2876   4.721   3.194   6.431 -0.0838  0.1654 -0.0570
  780MOL0     C 2877   4.847   3.137   6.421 -0.5591 -0.3915 -0.0326
  780MOL0     N 2878   5.531   3.281   6.556 -0.0813  0.1606  0.5088
  780MOL0     N 2879   5.640   3.208   6.554  0.1987 -0.2284  0.3932
  780MOL0     C 2880   6.561   3.504   6.593 -0.2313  0.5929  0.5441
  780MOL0     C 2881   6.623   3.595   6.681  0.2008  0.2495 -0.1922
  780MOL0     C 2882   6.719   3.820   7.086 -0.4365  0.4126 -0.3451
  780MOL0     C 2883   6.769   3.811   7.219 -0.4396 -0.0260  0.0571
  780MOL0     C 2884   6.827   3.921   7.282 -0.3486 -0.6497  0.2016
  780MOL0     C 2885   6.846   4.036   7.210  0.3694 -0.5477  0.1743
  780MOL0     O 2886   6.927   4.123   7.281 -0.0563 -0.9314 -0.3632
  780MOL0     C 2887   6.947   4.257   7.224 -1.2579 -0.0743  0.0072
  780MOL0     C 2888   7.071   4.268   7.144  0.4303  0.6589 -0.0981
  780MOL0     C 2889   7.182   4.274   7.248  0.9772  0.4092 -0.1312
  780MOL0     C 2890   7.286   4.374   7.197 -0.7475  0.3377 -0.2371
  780MOL0     C 2891   7.240   4.508   7.227  0.5927 -0.2430 -0.6350
  780MOL0     C 2892   7.192   4.619   7.249 -0.1836  0.5101 -0.1704
  780MOL0     C 2893   6.798   4.053   7.078 -0.4686  0.0693  0.4918
  780MOL0     C 2894   6.739   3.943   7.022 -0.7879  0.2614  1.4355
  780MOL0     H 2895   6.433   3.557   6.957  0.5431 -1.3075  0.5967
  780MOL0     H 2896   6.330   3.383   6.799 -0.4373  0.5924 -1.8180
  780MOL0     H 2897   6.478   3.180   6.682 -0.2941  0.5540 -0.0847
  780MOL0     H 2898   6.524   3.165   6.517  0.4524  0.4613  0.0076
  780MOL0     H 2899   6.371   3.001   6.520  0.8877 -0.4904  2.1284
  780MOL0     H 2900   6.280   3.129   6.463 -1.0807  1.8610  0.2355
  780MOL0     H 2901   6.189   3.179   6.694  2.3618  1.4875 -1.2367
  780MOL0     H 2902   6.265   3.038   6.762 -1.2793  0.8467  0.7159
  780MOL0     H 2903   6.051   3.034   6.541  1.7560  2.9893  0.2269
  780MOL0     H 2904   6.156   2.898   6.556  0.3388 -0.6417  1.6525
  780MOL0     H 2905   6.113   2.863   6.786  0.8358 -0.5821 -1.8311
  780MOL0     H 2906   5.960   2.850   6.701  1.7364 -0.3803 -0.6130
  780MOL0     H 2907   6.043   3.085   6.876  2.2753 -0.4703 -2.9886
  780MOL0     H 2908   5.912   2.964   6.897 -2.0541  1.9765  0.1837
  780MOL0     H 2909   5.837   3.198   6.821  2.6110 -1.3771  1.3384
  780MOL0     H 2910   5.910   3.173   6.663 -0.2112 -2.4139 -1.5596
  780MOL0     H 2911   5.712   2.982   6.801  2.3424 -0.0035  0.4940
  780MOL0     H 2912   5.770   2.986   6.628  3.1300  0.6972 -1.1758
  780MOL0     H 2913   5.480   3.118   6.827  0.4023 -3.6238 -1.8405
  780MOL0     H 2914   5.309   3.407   6.656  1.1203 -0.1353  0.0431
  780MOL0     H 2915   5.325   3.330   6.815  0.4680  0.2998 -0.0035
  780MOL0     H 2916   5.142   3.217   6.740 -0.1541 -0.6751  0.1690
  780MOL0     H 2917   5.266   3.100   6.683  0.0635 -0.7660  0.4029
  780MOL0     H 2918   5.076   3.278   6.531 -1.2458 -1.1028  1.5466
  780MOL0     H 2919   5.238   3.268   6.471  1.5823 -1.0515  0.3844
  780MOL0     H 2920   5.221   3.012   6.479  0.0574  0.4706  0.1301
  780MOL0     H 2921   5.108   3.089   6.367 -0.6634  6.5759  0.4066
  780MOL0     H 2922   4.866   3.001   6.737  0.5116  2.0391  1.0985
  780MOL0     H 2923   4.625   3.103   6.740 -0.6242 -0.5354  0.0824
  780MOL0     H 2924   4.258   3.174   6.434 -0.6865 -2.2794  0.6636
  780MOL0     H 2925   4.007   3.197   6.426 -0.1693  1.2159 -0.2854
  780MOL0     H 2926   3.779   3.458   6.695 -0.1471  0.0887  1.4506
  780MOL0     H 2927   3.813   3.325   6.805 -1.6047  1.9858  1.3949
  780MOL0     H 2928   3.597   3.298   6.604  0.8605  1.7155 -0.0331
  780MOL0     H 2929   3.562   3.381   6.756  0.7725  1.3595  0.0923
  780MOL0     H 2930   3.632   3.196   6.880  0.4957 -0.4909 -1.2263
  780MOL0     H 2931   3.640   3.091   6.732  0.1854 -1.2887  0.8109
  780MOL0     H 2932   3.437   3.064   6.858  1.5563 -1.4821 -1.1745
  780MOL0     H 2933   3.384   3.234   6.823 -1.8778 -1.8156  1.0164
  780MOL0     H 2934   3.424   3.008   6.623 -2.8028 -1.9397 -0.5381
  780MOL0     H 2935   3.400   3.172   6.577 -0.7696 -0.0665 -0.8290
  780MOL0     H 2936   3.186   3.155   6.713 -1.5899 -2.0932  2.9014
  780MOL0     H 2937   3.227   2.994   6.759  0.3111  2.1678  2.5592
  780MOL0     H 2938   3.166   3.094   6.484 -0.8809 -0.1233  0.6723
  780MOL0     H 2939   3.249   2.934   6.499 -2.6499 -2.9432  0.9186
  780MOL0     H 2940   3.056   2.865   6.646  0.0559 -1.7820 -0.5292
  780MOL0     H 2941   3.030   2.898   6.471  0.1883 -0.1839 -0.1149
  780MOL0     H 2942   4.028   3.375   6.820  0.7557 -0.9014  1.1403
  780MOL0     H 2943   4.249   3.330   6.842 -0.5496  0.9199  0.1412
  780MOL0     H 2944   4.697   3.249   6.341  0.4498 -0.8615 -0.8528
  780MOL0     H 2945   4.904   3.149   6.329  0.4702 -0.7214  0.5469
  780MOL0     H 2946   6.598   3.487   6.492  0.7570  1.3674  0.7508
  780MOL0     H 2947   6.699   3.664   6.646 -0.3817  1.0567  0.1032
  780MOL0     H 2948   6.772   3.717   7.274 -0.5227 -0.8060 -1.2449
  780MOL0     H 2949   6.866   3.914   7.383 -0.8799 -1.5143  0.3617
  780MOL0     H 2950   6.942   4.328   7.308  0.5367 -0.9632  0.9354
  780MOL0     H 2951   6.869   4.286   7.154 -1.5680 -1.2970 -0.1815
  780MOL0     H 2952   7.085   4.184   7.075 -0.4868  0.8096 -0.4898
  780MOL0     H 2953   7.067   4.363   7.089 -0.6031  2.3539  2.6930
  780MOL0     H 2954   7.220   4.172   7.254  0.7722  0.4203  1.7442
  780MOL0     H 2955   7.149   4.315   7.343  2.9188  3.3181 -0.5781
  780MOL0     H 2956   7.383   4.359   7.245  1.0099  1.5940 -3.1241
  780MOL0     H 2957   7.302   4.367   7.089  0.8592  1.3058 -0.1040
  780MOL0     H 2958   7.153   4.719   7.259 -3.1864 -0.3735 -2.0720
  780MOL0     H 2959   6.808   4.138   7.010  0.4608 -0.3060  0.1461
  780MOL0     H 2960   6.708   3.948   6.918 -1.3540  1.2021  1.6373
  781MOL0     O 2961  10.599   5.100   8.777  0.1626  0.2526  0.0343
  781MOL0     C 2962  10.639   5.166   8.684  0.9362  0.2145  0.1537
  781MOL0     O 2963  10.563   5.241   8.594 -0.2517 -0.0165  0.2212
  781MOL0     C 2964  10.424   5.242   8.578 -0.2221  1.3128 -0.1452
  781MOL0     C 2965  10.370   5.316   8.466 -0.6085  0.9126 -0.0378
  781MOL0     C 2966  10.233   5.317   8.428  0.1320  0.5058 -0.2567
  781MOL0     C 2967  10.142   5.270   8.520 -0.4239  0.6560  0.0811
  781MOL0     O 2968  10.014   5.286   8.488  0.1755  0.7488  0.0586
  781MOL0     C 2969   9.906   5.263   8.577  0.2435  0.0917  0.0357
  781MOL0     C 2970   9.899   5.378   8.674  0.2704 -0.1495 -0.6572
  781MOL0     C 2971   9.751   5.399   8.706  0.1574 -0.6358 -0.1592
  781MOL0     C 2972   9.748   5.495   8.823 -0.4346 -0.4316  0.3298
  781MOL0     C 2973   9.607   5.527   8.867  0.0245  0.1571 -0.5498
  781MOL0     C 2974   9.527   5.637   8.779  0.5582  0.3592  1.2460
  781MOL0     C 2975   9.374   5.634   8.817 -0.8914  0.7405  0.3727
  781MOL0     C 2976   9.315   5.771   8.806 -0.1059 -0.6634  0.6507
  781MOL0     N 2977   9.173   5.768   8.837  1.0011 -0.3265  0.6107
  781MOL0     C 2978   9.069   5.846   8.781 -0.4654 -0.0507 -0.4818
  781MOL0     C 2979   8.955   5.799   8.833 -0.5001  0.3142  0.5924
  781MOL0     C 2980   8.819   5.861   8.800 -0.4409  0.3559 -0.7091
  781MOL0     C 2981   8.698   5.786   8.852 -1.9681 -0.1849 -0.8036
  781MOL0     C 2982   8.568   5.817   8.784  0.6512  0.1411  0.1410
  781MOL0     C 2983   8.514   5.698   8.713  0.2196  0.0005 -0.6620
  781MOL0     O 2984   8.373   5.704   8.683  0.3131 -0.2231 -0.7073
  781MOL0     C 2985   8.277   5.675   8.778  0.4508  0.6113 -0.2957
  781MOL0     C 2986   8.150   5.693   8.727 -0.9177  0.0130  0.0820
  781MOL0     C 2987   8.042   5.667   8.800  0.5554  0.7219 -0.0732
  781MOL0     C 2988   8.051   5.623   8.937  0.0496 -0.2646  0.2696
  781MOL0     C 2989   7.931   5.610   9.016 -0.0245 -0.5101 -0.2990
  781MOL0     O 2990   7.955   5.578   9.149  0.6600  0.0206  0.7482
  781MOL0     C 2991   7.858   5.547   9.239 -0.9960  0.3531  0.2283
  781MOL0     C 2992   7.721   5.581   9.229 -0.4302 -0.8750 -0.4987
  781MOL0     C 2993   7.635   5.560   9.336  0.9976  0.9488  0.0395
  781MOL0     C 2994   7.686   5.506   9.458  0.3277 -0.0717 -0.3216
  781MOL0     O 2995   7.610   5.493   9.577  0.1304 -0.3976  0.4396
  781MOL0     C 2996   7.504   5.598   9.584 -0.5593 -0.1366  0.4216
  781MOL0     C 2997   7.462   5.617   9.728  0.0071 -0.5737 -0.8996
  781MOL0     C 2998   7.411   5.495   9.805 -0.5413 -0.2348  0.6373
  781MOL0     C 2999   7.387   5.532   9.953 -0.3532 -0.2495 -0.3415
  781MOL0     C 3000   7.437   5.437  10.052  0.2322  0.1520  0.3472
  781MOL0     C 3001   7.384   5.469  10.192  0.5903  0.0835 -0.7034
  781MOL0     C 3002   7.388   5.336  10.283  0.3130  0.6407 -0.6963
  781MOL0     C 3003   7.532   5.305  10.311  0.2107  0.0687 -0.0599
  781MOL0    Cl 3004   7.608   5.443  10.384 -0.2596  0.0135 -0.2781
  781MOL0     C 3005   7.827   5.482   9.463  0.1389 -0.2430  0.1315
  781MOL0     C 3006   7.911   5.492   9.354 -0.6212  0.3240 -0.7032
  781MOL0     O 3007   7.826   5.639   8.970 -0.0340 -0.7536  0.4610
  781MOL0     C 3008   8.183   5.604   8.988  0.0719  0.1497 -0.1513
  781MOL0     C 3009   8.297   5.633   8.913  0.7726  0.3996  0.9502
  781MOL0     N 3010   8.980   5.686   8.905 -0.0252  0.1771  0.2223
  781MOL0     N 3011   9.108   5.675   8.903  0.7302 -0.1634  0.0532
  781MOL0     C 3012  10.184   5.204   8.641  0.1635 -0.0969  0.9514
  781MOL0     C 3013  10.324   5.187   8.661  0.1111  0.8611  0.0330
  781MOL0     C 3014  10.786   5.173   8.671 -0.2080  0.2698  0.1606
  781MOL0     C 3015  10.856   5.284   8.621 -0.4220  0.5178 -0.1995
  781MOL0     C 3016  10.994   5.298   8.620 -0.6219 -0.2263  0.5912
  781MOL0     C 3017  11.068   5.193   8.666 -0.3951 -0.0958  0.1225
  781MOL0     O 3018  11.204   5.230   8.674  0.4351  0.1832 -0.1872
  781MOL0     C 3019  11.289   5.132   8.747  0.3143  0.1323  0.1645
  781MOL0     C 3020  11.423   5.205   8.785 -0.8794  0.1452  1.0977
  781MOL0     C 3021  11.494   5.116   8.882 -0.1495 -0.0793 -0.2866
  781MOL0     C 3022  11.603   5.199   8.947  0.2088  0.1961 -0.1529
  781MOL0     C 3023  11.734   5.179   8.871  0.6640 -0.5393 -0.7201
  781MOL0     C 3024  11.841   5.176   8.813  0.0789 -0.4444 -0.9832
  781MOL0     C 3025  11.014   5.069   8.707 -0.0888 -0.3432  0.9040
  781MOL0     C 3026  10.869   5.062   8.714 -0.2554 -0.2524 -0.5394
  781MOL0     H 3027  10.445   5.365   8.405  0.3657 -0.7526 -0.2359
  781MOL0     H 3028  10.204   5.347   8.327 -0.8852  0.5339  0.0304
  781MOL0     H 3029   9.927   5.173   8.636  0.2613 -0.6387 -1.0407
  781MOL0     H 3030   9.810   5.260   8.525  0.0637 -0.5068  0.3954
  781MOL0     H 3031   9.944   5.467   8.629  0.6998  2.3620  4.0533
  781MOL0     H 3032   9.948   5.361   8.771  0.1901  3.4641  0.1409
  781MOL0     H 3033   9.704   5.302   8.728 -0.1740 -0.3229  0.5247
  781MOL0     H 3034   9.692   5.445   8.626 -0.5351  0.0711  0.7357
  781MOL0     H 3035   9.791   5.447   8.912 -1.9464 -2.2873  0.1062
  781MOL0     H 3036   9.803   5.590   8.813 -0.5131 -0.1083  2.3767
  781MOL0     H 3037   9.599   5.576   8.964 -3.5840 -1.0273 -0.0830
  781MOL0     H 3038   9.558   5.429   8.865  2.0681 -0.9313  0.2801
  781MOL0     H 3039   9.540   5.630   8.671 -1.8116  3.3068  0.6284
  781MOL0     H 3040   9.570   5.735   8.803 -0.6974  1.0705  0.7400
  781MOL0     H 3041   9.321   5.566   8.749 -0.7509  1.2366 -0.2357
  781MOL0     H 3042   9.358   5.594   8.918 -0.2610 -0.2006  0.1138
  781MOL0     H 3043   9.326   5.812   8.705  2.0853  1.0955  1.5117
  781MOL0     H 3044   9.363   5.833   8.881 -1.2813 -1.0569  1.7672
  781MOL0     H 3045   9.073   5.929   8.711 -1.9207 -0.4861 -1.1232
  781MOL0     H 3046   8.813   5.890   8.695  1.9928  0.4317 -0.8896
  781MOL0     H 3047   8.812   5.959   8.848 -1.4634 -0.1765  0.2746
  781MOL0     H 3048   8.688   5.825   8.954  1.8595  1.9288 -1.0492
  781MOL0     H 3049   8.734   5.683   8.855  0.8269  0.5735 -3.2360
  781MOL0     H 3050   8.494   5.842   8.860  0.7312 -1.9865  1.0190
  781MOL0     H 3051   8.576   5.905   8.720  1.3233  0.2347  0.3430
  781MOL0     H 3052   8.526   5.610   8.777 -1.9484  2.5445  3.6457
  781MOL0     H 3053   8.586   5.678   8.632 -0.6200 -1.7428 -1.0255
  781MOL0     H 3054   8.143   5.706   8.619  1.1093  1.0856  0.0326
  781MOL0     H 3055   7.940   5.669   8.761  0.4755 -2.0429 -0.2344
  781MOL0     H 3056   7.682   5.641   9.147  2.9117  0.6306 -1.1882
  781MOL0     H 3057   7.530   5.579   9.317  1.1310 -0.7208 -3.1422
  781MOL0     H 3058   7.415   5.564   9.529 -0.7705 -1.1003  1.3400
  781MOL0     H 3059   7.533   5.692   9.535  0.2743 -1.6663 -2.2057
  781MOL0     H 3060   7.387   5.696   9.734  0.8180  0.1365  0.5623
  781MOL0     H 3061   7.545   5.658   9.786  0.6791 -1.5578 -1.1446
  781MOL0     H 3062   7.474   5.407   9.793  0.3475  0.6160 -1.6962
  781MOL0     H 3063   7.311   5.473   9.767 -0.8288 -2.4744  2.4776
  781MOL0     H 3064   7.440   5.625   9.974 -2.3162  0.3669  2.4466
  781MOL0     H 3065   7.283   5.559   9.975 -0.6491 -0.4369 -1.4452
  781MOL0     H 3066   7.547   5.437  10.058  0.4724  2.1671 -2.3375
  781MOL0     H 3067   7.400   5.337  10.029 -2.7960  1.0571  0.9028
  781MOL0     H 3068   7.280   5.501  10.183  0.9246  2.2202  1.6514
  781MOL0     H 3069   7.431   5.562  10.226  0.1632  0.6761 -1.6909
  781MOL0     H 3070   7.330   5.357  10.374  1.3600  1.5602 -0.2099
  781MOL0     H 3071   7.349   5.248  10.231  0.7731 -1.3031  2.0377
  781MOL0     H 3072   7.583   5.278  10.218  1.2310 -1.0089  0.7925
  781MOL0     H 3073   7.537   5.219  10.378  1.4693 -1.6331 -2.2070
  781MOL0     H 3074   7.874   5.453   9.556  1.6650  4.0046  0.9090
  781MOL0     H 3075   8.015   5.458   9.359 -1.0499 -0.8660  1.2148
  781MOL0     H 3076   8.192   5.568   9.090  1.5367  1.1355  0.1097
  781MOL0     H 3077   8.394   5.633   8.962  1.1969  1.5937  0.1695
  781MOL0     H 3078  10.108   5.165   8.707  0.6602 -0.4444  1.3314
  781MOL0     H 3079  10.366   5.136   8.746 -0.1826  1.1467  0.3558
  781MOL0     H 3080  10.792   5.366   8.590  1.0634  2.1309  0.7954
  781MOL0     H 3081  11.046   5.391   8.600 -1.8390  0.3137 -0.1879
  781MOL0     H 3082  11.316   5.045   8.688 -2.9071 -0.9531  0.0938
  781MOL0     H 3083  11.240   5.105   8.842  0.1205  2.9600  0.9808
  781MOL0     H 3084  11.491   5.211   8.699 -0.6518  1.3950  1.3501
  781MOL0     H 3085  11.410   5.310   8.813  0.9831  0.3174  1.4832
  781MOL0     H 3086  11.535   5.026   8.835 -1.2671 -0.6687 -0.1931
  781MOL0     H 3087  11.436   5.067   8.961  0.0837  1.7514  1.0565
  781MOL0     H 3088  11.577   5.305   8.955  0.7183  0.2700  0.6154
  781MOL0     H 3089  11.623   5.157   9.046  3.4840  0.7146 -0.4930
  781MOL0     H 3090  11.938   5.174   8.767  0.7788 -0.5518  0.4493
  781MOL0     H 3091  11.086   4.993   8.739  2.4950  1.8872  0.7551
  781MOL0     H 3092  10.818   4.973   8.747  0.1870 -0.6216 -0.8350
  782MOL0     O 3093   4.469   7.105   0.280 -0.2141 -1.3183  0.2304
  782MOL0     C 3094   4.536   7.009   0.246  1.0598  0.2592 -0.3453
  782MOL0     O 3095   4.481   6.885   0.213  0.0573 -0.1681  1.6757
  782MOL0     C 3096   4.352   6.883   0.168 -0.2565 -1.2791 -0.7021
  782MOL0     C 3097   4.321   6.912   0.038 -0.8016 -0.1580 -0.0147
  782MOL0     C 3098   4.187   6.924   0.006 -0.5834 -0.8708 -0.0347
  782MOL0     C 3099   4.085   6.899   0.101  0.1820 -0.1895 -0.6954
  782MOL0     O 3100   3.948   6.905   0.077 -0.4033  0.1027  1.1194
  782MOL0     C 3101   3.912   7.015  -0.005  0.5982 -0.0026  0.6776
  782MOL0     C 3102   3.759   7.042  -0.007  0.1521 -0.2901  0.4286
  782MOL0     C 3103   3.729   7.131  -0.134 -0.3141  0.2141 -0.5855
  782MOL0     C 3104   3.581   7.147  -0.166  0.2814 -0.4450 -0.5059
  782MOL0     C 3105   3.550   7.269  -0.255 -0.2937  0.2130 -0.8937
  782MOL0     C 3106   3.404   7.307  -0.291 -0.1485 -0.6040  0.1839
  782MOL0     C 3107   3.301   7.197  -0.310 -0.1729  0.4811  0.2442
  782MOL0     C 3108   3.306   7.130  -0.449  0.2605 -0.0286 -0.8323
  782MOL0     N 3109   3.398   7.020  -0.441  0.8428 -0.4621 -0.5470
  782MOL0     C 3110   3.519   7.016  -0.501  0.0175  0.7914 -0.9283
  782MOL0     C 3111   3.564   6.898  -0.458 -0.1037  0.5870 -0.1649
  782MOL0     C 3112   3.697   6.838  -0.505  0.5652 -0.4075  0.0805
  782MOL0     C 3113   3.817   6.868  -0.411  1.0274 -0.2059  0.1899
  782MOL0     C 3114   3.954   6.821  -0.475  0.2743  0.3239 -0.3348
  782MOL0     C 3115   4.075   6.845  -0.381  0.1803  0.6872 -0.3261
  782MOL0     O 3116   4.095   6.990  -0.382  0.3185  0.5019  0.1827
  782MOL0     C 3117   4.222   7.031  -0.343  0.2116 -0.6993  0.8798
  782MOL0     C 3118   4.344   6.950  -0.351  0.9794 -0.3449 -0.3502
  782MOL0     C 3119   4.470   7.007  -0.323  0.1042  0.2152  0.0209
  782MOL0     C 3120   4.478   7.142  -0.276 -0.3920  0.2380  0.1006
  782MOL0     C 3121   4.612   7.194  -0.242 -0.3386  0.1565 -0.0532
  782MOL0     O 3122   4.715   7.110  -0.213 -0.7282  0.1048  0.3744
  782MOL0     C 3123   4.837   7.178  -0.189  0.5858 -0.1651 -0.5843
  782MOL0     C 3124   4.944   7.191  -0.281  0.1615  0.8180 -0.2134
  782MOL0     C 3125   5.066   7.252  -0.248  0.3788 -1.2676 -0.4093
  782MOL0     C 3126   5.085   7.285  -0.116 -0.0761 -0.0225  0.2889
  782MOL0     O 3127   5.199   7.333  -0.064 -0.5569  0.7157  0.3494
  782MOL0     C 3128   5.309   7.248  -0.095  0.2467 -0.5470 -0.3989
  782MOL0     C 3129   5.422   7.262  -0.002  0.4243 -0.2661 -0.7618
  782MOL0     C 3130   5.528   7.153   0.007  0.3291  0.4230  0.3384
  782MOL0     C 3131   5.620   7.174   0.124  0.5129 -0.5855 -0.3094
  782MOL0     C 3132   5.733   7.072   0.127  0.0948 -0.4790  0.6847
  782MOL0     C 3133   5.849   7.114   0.038  0.1048  0.1083  0.0395
  782MOL0     C 3134   5.948   6.990   0.034  0.9227 -0.1165  0.8596
  782MOL0     C 3135   5.933   6.907  -0.100  0.4115 -0.4174 -0.0033
  782MOL0    Cl 3136   5.978   7.015  -0.236  0.2728 -0.3014 -0.7682
  782MOL0     C 3137   4.982   7.280  -0.031 -0.2847 -0.0412  0.3420
  782MOL0     C 3138   4.860   7.217  -0.058  0.8756  0.5677  0.3651
  782MOL0     O 3139   4.620   7.314  -0.238 -0.7929 -0.3910  0.3871
  782MOL0     C 3140   4.360   7.216  -0.278 -0.3078 -0.2872 -0.2910
  782MOL0     C 3141   4.236   7.161  -0.305 -0.6254  0.3237  0.1880
  782MOL0     N 3142   3.461   6.822  -0.400  0.1696 -0.7539 -0.2465
  782MOL0     N 3143   3.363   6.904  -0.393 -0.6009 -0.1423 -0.4472
  782MOL0     C 3144   4.121   6.861   0.230  0.3501 -0.0321 -0.3335
  782MOL0     C 3145   4.255   6.847   0.265 -0.4236  0.1066 -0.1099
  782MOL0     C 3146   4.684   7.023   0.248  1.0133 -0.7422  0.4081
  782MOL0     C 3147   4.757   6.938   0.168  0.2693 -0.3761  0.5409
  782MOL0     C 3148   4.901   6.943   0.171  0.3149 -1.1554 -0.2612
  782MOL0     C 3149   4.964   7.019   0.263  0.8475  0.2279  0.4857
  782MOL0     O 3150   5.096   7.024   0.280 -1.3825 -0.8393 -0.6449
  782MOL0     C 3151   5.182   6.940   0.197  0.1831  0.8571  0.0819
  782MOL0     C 3152   5.326   6.918   0.251  0.2432  0.3303 -0.2108
  782MOL0     C 3153   5.313   6.844   0.390  0.9606 -1.1794 -0.2944
  782MOL0     C 3154   5.223   6.712   0.391 -0.0651 -1.1000 -0.4297
  782MOL0     C 3155   5.291   6.616   0.300  0.7420  0.2858  0.6286
  782MOL0     C 3156   5.362   6.543   0.230 -0.1689 -0.3061  0.5564
  782MOL0     C 3157   4.880   7.096   0.354 -0.6962 -0.1976 -0.4892
  782MOL0     C 3158   4.746   7.090   0.346 -0.7084 -0.0348 -0.1010
  782MOL0     H 3159   4.391   6.953  -0.034 -2.2233  1.6944 -0.4312
  782MOL0     H 3160   4.163   6.947  -0.097 -2.1709 -0.7431  0.3447
  782MOL0     H 3161   3.927   7.001  -0.113  0.2171  2.5076  0.2305
  782MOL0     H 3162   3.970   7.105   0.016  1.2638 -0.1099 -0.5963
  782MOL0     H 3163   3.730   7.085   0.089  1.9652 -1.0746  1.3985
  782MOL0     H 3164   3.713   6.943  -0.015 -3.6527  1.1786  2.1443
  782MOL0     H 3165   3.785   7.094  -0.220  2.6038  0.2478  1.1774
  782MOL0     H 3166   3.766   7.231  -0.111 -1.5797  0.8885 -1.3660
  782MOL0     H 3167   3.543   7.052  -0.206 -3.3236 -0.0531  1.5025
  782MOL0     H 3168   3.518   7.169  -0.079 -1.6372 -0.7528 -1.7435
  782MOL0     H 3169   3.604   7.259  -0.350  1.4569  1.0820 -0.0459
  782MOL0     H 3170   3.598   7.357  -0.211 -0.7509 -0.7624  1.6957
  782MOL0     H 3171   3.400   7.377  -0.374  0.5658 -0.2217  0.4583
  782MOL0     H 3172   3.366   7.366  -0.207  1.7607  0.3800  0.4197
  782MOL0     H 3173   3.318   7.119  -0.235  1.2814 -2.3243 -2.7444
  782MOL0     H 3174   3.203   7.242  -0.288  0.2862  1.4240  0.3752
  782MOL0     H 3175   3.339   7.187  -0.536  2.0129 -0.4227 -0.4658
  782MOL0     H 3176   3.204   7.091  -0.460  0.1553 -0.2086  0.5522
  782MOL0     H 3177   3.565   7.100  -0.553  0.3840  1.0013 -0.2858
  782MOL0     H 3178   3.727   6.880  -0.601 -3.5432  2.2965 -0.2611
  782MOL0     H 3179   3.675   6.731  -0.517  2.7726 -1.1221  1.7964
  782MOL0     H 3180   3.791   6.816  -0.318 -1.7999 -1.1554 -1.0042
  782MOL0     H 3181   3.812   6.976  -0.394  1.7034 -0.0710 -0.4516
  782MOL0     H 3182   3.949   6.716  -0.502  0.3500  0.1134  0.4317
  782MOL0     H 3183   3.967   6.887  -0.561 -2.1601  1.0940 -0.1795
  782MOL0     H 3184   4.159   6.788  -0.421 -0.6789 -1.3379  0.6036
  782MOL0     H 3185   4.054   6.807  -0.280  0.4200 -0.7420 -0.7973
  782MOL0     H 3186   4.335   6.846  -0.379 -2.1666 -0.6382  1.3291
  782MOL0     H 3187   4.564   6.954  -0.325  0.5095  0.8819  0.7241
  782MOL0     H 3188   4.937   7.158  -0.384  0.0118 -0.8438  0.3108
  782MOL0     H 3189   5.136   7.264  -0.330 -2.0364 -0.5988 -2.5097
  782MOL0     H 3190   5.343   7.273  -0.197  0.5266  3.7793  0.5460
  782MOL0     H 3191   5.284   7.142  -0.096  0.6079 -0.6826  1.4083
  782MOL0     H 3192   5.383   7.277   0.099  1.3250  2.9031 -0.7687
  782MOL0     H 3193   5.467   7.358  -0.028 -0.2889  0.7011  1.3773
  782MOL0     H 3194   5.587   7.142  -0.084  1.1856 -0.6225  1.0056
  782MOL0     H 3195   5.469   7.062   0.018 -1.5335  1.5117 -0.0392
  782MOL0     H 3196   5.652   7.279   0.129  1.9660 -0.8691 -2.3709
  782MOL0     H 3197   5.565   7.165   0.218  2.0698  1.2181  0.8557
  782MOL0     H 3198   5.709   6.966   0.116 -0.3944 -0.3602  0.5893
  782MOL0     H 3199   5.764   7.063   0.232 -0.8605  1.3150  1.1627
  782MOL0     H 3200   5.895   7.200   0.085  1.0641  1.5765 -3.3001
  782MOL0     H 3201   5.821   7.148  -0.062 -2.2229 -4.0286 -0.9867
  782MOL0     H 3202   6.050   7.029   0.043  0.8718  0.5829 -1.1890
  782MOL0     H 3203   5.923   6.926   0.119  0.9987  0.2095  1.1311
  782MOL0     H 3204   5.837   6.861  -0.126  1.9805 -2.8211 -2.0404
  782MOL0     H 3205   6.008   6.828  -0.103  2.2807  1.2804 -0.3156
  782MOL0     H 3206   5.005   7.309   0.071  2.1064 -1.1861  0.1764
  782MOL0     H 3207   4.781   7.190   0.012 -1.4002 -0.9134 -2.5719
  782MOL0     H 3208   4.358   7.323  -0.260 -0.2212 -0.0031 -1.8221
  782MOL0     H 3209   4.143   7.218  -0.298 -1.2804 -0.7063  0.0552
  782MOL0     H 3210   4.050   6.848   0.311 -0.1374  1.3653 -0.5181
  782MOL0     H 3211   4.301   6.832   0.361  2.0947  0.3515 -1.2069
  782MOL0     H 3212   4.716   6.875   0.089  1.5144  0.3952 -0.7655
  782MOL0     H 3213   4.952   6.885   0.095 -0.8167 -1.3012 -0.9256
  782MOL0     H 3214   5.193   6.987   0.099 -1.9871 -3.7785 -2.7321
  782MOL0     H 3215   5.135   6.844   0.175  1.1070  0.3322  0.3315
  782MOL0     H 3216   5.382   6.859   0.179  3.9257  2.8713  0.2894
  782MOL0     H 3217   5.375   7.013   0.273  0.2612  0.3576 -0.3684
  782MOL0     H 3218   5.259   6.915   0.453  0.3255 -1.3955 -0.5938
  782MOL0     H 3219   5.415   6.817   0.422  1.9976 -2.6394 -4.2542
  782MOL0     H 3220   5.227   6.678   0.495 -0.5209  0.5190  0.1382
  782MOL0     H 3221   5.119   6.734   0.365 -0.3998 -0.6237  1.2334
  782MOL0     H 3222   5.430   6.477   0.180  0.2395 -0.8546  1.8243
  782MOL0     H 3223   4.939   7.151   0.427 -0.3190 -4.5703  2.8856
  782MOL0     H 3224   4.694   7.161   0.410 -0.4057  1.8561 -1.8180
  783MOL0     O 3225   4.690   5.286   2.306  0.0315  1.2235  0.0072
  783MOL0     C 3226   4.713   5.238   2.412 -0.2820  0.4040  0.2828
  783MOL0     O 3227   4.631   5.221   2.520 -0.3727 -0.5736 -0.3022
  783MOL0     C 3228   4.509   5.285   2.525 -0.7508 -0.0885  0.5913
  783MOL0     C 3229   4.498   5.431   2.532  0.2183 -0.2879 -0.4802
  783MOL0     C 3230   4.377   5.490   2.532  0.5381  0.6028 -0.0573
  783MOL0     C 3231   4.265   5.404   2.515 -0.0410  0.3033 -0.1671
  783MOL0     O 3232   4.130   5.435   2.528 -0.3461  0.2400  0.2483
  783MOL0     C 3233   4.099   5.564   2.578 -0.4489 -0.1881  0.0687
  783MOL0     C 3234   3.956   5.574   2.621 -0.7121  0.7447  0.3114
  783MOL0     C 3235   3.866   5.577   2.502  0.2059  0.3048  0.3944
  783MOL0     C 3236   3.718   5.544   2.534  0.1922 -0.2384  0.2976
  783MOL0     C 3237   3.634   5.521   2.398 -0.0559  0.1186 -0.2666
  783MOL0     C 3238   3.490   5.496   2.439  0.1880  0.2863 -0.8752
  783MOL0     C 3239   3.421   5.470   2.307  0.4816  0.2315  0.1539
  783MOL0     C 3240   3.264   5.485   2.317  0.2392 -0.9099 -0.2322
  783MOL0     N 3241   3.193   5.411   2.215  0.6779  0.0403  0.7483
  783MOL0     C 3242   3.243   5.367   2.095  0.0671  0.1509  0.2549
  783MOL0     C 3243   3.135   5.345   2.013  0.1900 -0.6041  0.0495
  783MOL0     C 3244   3.144   5.310   1.867  0.0918 -0.2684  0.0849
  783MOL0     C 3245   3.173   5.444   1.790  0.1248 -0.4500 -0.1493
  783MOL0     C 3246   3.185   5.421   1.644  0.1714  0.2806 -0.2324
  783MOL0     C 3247   3.065   5.366   1.584  0.3401  0.4494  0.9872
  783MOL0     O 3248   2.949   5.445   1.598  0.0149 -0.7995 -0.1800
  783MOL0     C 3249   2.839   5.390   1.663  0.3232  0.7534  0.6874
  783MOL0     C 3250   2.799   5.252   1.644 -0.1666 -0.5610  0.0051
  783MOL0     C 3251   2.685   5.205   1.701  0.4132 -0.1628  0.0321
  783MOL0     C 3252   2.596   5.288   1.764  0.5662  0.7260  0.1836
  783MOL0     C 3253   2.463   5.244   1.804  0.0439  0.1687 -0.1422
  783MOL0     O 3254   2.381   5.340   1.847 -0.1884 -0.1700  0.1422
  783MOL0     C 3255   2.247   5.314   1.851  0.1489  0.2515  0.4759
  783MOL0     C 3256   2.189   5.272   1.977 -0.1471 -0.0452 -0.4396
  783MOL0     C 3257   2.054   5.241   1.989  0.9605  0.1282 -0.7456
  783MOL0     C 3258   1.971   5.227   1.883 -0.2010  0.1388  1.1262
  783MOL0     O 3259   1.838   5.192   1.898  0.1024  0.0669  0.8688
  783MOL0     C 3260   1.743   5.218   1.787  0.2433 -0.5928  0.1835
  783MOL0     C 3261   1.603   5.162   1.807 -1.2467  0.3575  0.1853
  783MOL0     C 3262   1.567   5.149   1.948 -0.0826  0.1035 -0.4256
  783MOL0     C 3263   1.421   5.119   1.978  0.8917 -0.6078 -0.4165
  783MOL0     C 3264   1.403   5.097   2.121  0.3768  0.3127 -0.7046
  783MOL0     C 3265   1.259   5.062   2.163  0.2417  0.0358 -1.3616
  783MOL0     C 3266   1.216   4.920   2.105 -0.5103 -0.3773  0.1421
  783MOL0     C 3267   1.097   4.858   2.170 -1.1279  0.0824 -0.7112
  783MOL0    Cl 3268   0.975   4.971   2.204 -0.1573 -0.5744  0.0097
  783MOL0     C 3269   2.028   5.265   1.760 -0.2835  0.2337 -0.4632
  783MOL0     C 3270   2.162   5.309   1.744  0.3947  0.0151  0.1967
  783MOL0     O 3271   2.435   5.126   1.789  0.6574 -0.2576 -0.3229
  783MOL0     C 3272   2.642   5.424   1.797 -0.4824 -0.4305  0.2084
  783MOL0     C 3273   2.759   5.472   1.738 -0.2054 -0.0550 -0.5944
  783MOL0     N 3274   3.022   5.368   2.092  0.4168  0.5133  0.2915
  783MOL0     N 3275   3.058   5.404   2.208  0.4656  0.0313 -0.2324
  783MOL0     C 3276   4.278   5.269   2.490  0.6932  0.4442 -0.0820
  783MOL0     C 3277   4.400   5.208   2.492  0.3109  0.1721 -0.8479
  783MOL0     C 3278   4.853   5.206   2.432 -0.8361  0.6041  0.7348
  783MOL0     C 3279   4.901   5.147   2.547  0.2828  0.4740  0.1015
  783MOL0     C 3280   5.035   5.116   2.572  0.0363  0.1121  0.2060
  783MOL0     C 3281   5.131   5.129   2.471 -0.4011  0.7212 -0.5766
  783MOL0     O 3282   5.259   5.086   2.500 -0.2503  0.0948  0.2184
  783MOL0     C 3283   5.347   5.081   2.384  0.2125  0.5346 -0.6224
  783MOL0     C 3284   5.475   5.004   2.429  0.7050  0.2300 -0.8318
  783MOL0     C 3285   5.576   4.968   2.318 -0.7220 -0.1002  0.1084
  783MOL0     C 3286   5.714   4.953   2.369  0.0431 -0.8572 -0.4706
  783MOL0     C 3287   5.807   4.906   2.271 -0.9317  0.1333  0.9805
  783MOL0     C 3288   5.901   4.872   2.196  0.5580 -0.0875 -1.0688
  783MOL0     C 3289   5.096   5.206   2.362  0.8773 -0.3747  0.1665
  783MOL0     C 3290   4.959   5.236   2.339 -0.5332 -1.1122 -1.2587
  783MOL0     H 3291   4.589   5.490   2.540 -1.1550  1.8393  0.6492
  783MOL0     H 3292   4.369   5.597   2.542  1.7727  0.7411 -0.4904
  783MOL0     H 3293   4.116   5.642   2.503  1.2610 -1.8924 -1.4232
  783MOL0     H 3294   4.158   5.589   2.667  1.2643  0.7594 -1.2651
  783MOL0     H 3295   3.950   5.667   2.678 -1.9106  1.4990 -0.9755
  783MOL0     H 3296   3.935   5.485   2.682 -0.8672  0.0868 -0.6745
  783MOL0     H 3297   3.903   5.508   2.426  0.4270  2.0972 -1.2163
  783MOL0     H 3298   3.881   5.671   2.448  4.0902 -0.0337  0.5985
  783MOL0     H 3299   3.701   5.447   2.582 -2.4634  0.5365  1.0945
  783MOL0     H 3300   3.678   5.625   2.596 -0.2361 -0.3744  0.2029
  783MOL0     H 3301   3.671   5.433   2.344 -1.9820 -1.2075  0.4920
  783MOL0     H 3302   3.638   5.614   2.341  1.7056 -0.9147 -1.9484
  783MOL0     H 3303   3.447   5.587   2.482  0.3247  1.1540 -2.5154
  783MOL0     H 3304   3.484   5.405   2.499  0.5601 -1.2534 -3.0740
  783MOL0     H 3305   3.443   5.556   2.243 -2.7667  1.5804  0.6317
  783MOL0     H 3306   3.453   5.371   2.274  0.5416 -0.2271  1.5244
  783MOL0     H 3307   3.239   5.592   2.311 -0.6511 -0.9052  2.3490
  783MOL0     H 3308   3.233   5.461   2.419  1.3624  2.7207  1.1152
  783MOL0     H 3309   3.343   5.357   2.055  0.0635 -0.7534  0.4545
  783MOL0     H 3310   3.044   5.278   1.839 -0.6245  1.1008  0.9399
  783MOL0     H 3311   3.220   5.232   1.863 -0.4554 -1.0857  3.2481
  783MOL0     H 3312   3.261   5.495   1.829 -0.1218 -0.0921 -0.0649
  783MOL0     H 3313   3.094   5.516   1.808 -2.5213 -3.1342 -0.1963
  783MOL0     H 3314   3.214   5.513   1.594  1.9990  0.4333  1.0102
  783MOL0     H 3315   3.267   5.354   1.617 -0.2306 -0.4118  0.2128
  783MOL0     H 3316   3.046   5.263   1.615  1.0383  0.1952  0.5981
  783MOL0     H 3317   3.080   5.360   1.476 -0.9999 -0.0049  0.8105
  783MOL0     H 3318   2.846   5.173   1.587 -2.9181 -3.8233  1.9365
  783MOL0     H 3319   2.667   5.098   1.692  2.4961 -0.4663 -1.3027
  783MOL0     H 3320   2.252   5.270   2.065 -1.8588 -1.5598  0.8355
  783MOL0     H 3321   2.010   5.206   2.082 -0.2943  0.0544 -1.3421
  783MOL0     H 3322   1.789   5.181   1.695 -0.1016  0.7375 -0.5606
  783MOL0     H 3323   1.741   5.327   1.779 -1.0139 -0.5814  0.4505
  783MOL0     H 3324   1.597   5.060   1.768 -1.9506 -1.1166  3.7183
  783MOL0     H 3325   1.537   5.220   1.743 -1.4023 -0.9341 -0.8616
  783MOL0     H 3326   1.593   5.243   1.997  1.1067 -1.5255  2.3733
  783MOL0     H 3327   1.637   5.077   1.994 -1.3673 -0.6810  0.3818
  783MOL0     H 3328   1.354   5.198   1.946 -0.1974  0.2980  3.5332
  783MOL0     H 3329   1.393   5.029   1.921  0.8028 -0.2002 -1.0257
  783MOL0     H 3330   1.416   5.189   2.179 -3.1012  1.1105 -0.9401
  783MOL0     H 3331   1.478   5.025   2.154  2.4677  1.4250 -2.7187
  783MOL0     H 3332   1.199   5.146   2.127  1.6754  1.8205  0.1955
  783MOL0     H 3333   1.267   5.066   2.272  2.8970  2.3233 -1.5244
  783MOL0     H 3334   1.194   4.949   2.002  0.4229  3.5735  0.8825
  783MOL0     H 3335   1.297   4.846   2.114 -0.9633 -0.6018  3.2686
  783MOL0     H 3336   1.122   4.808   2.264 -1.0247 -0.3444 -0.9686
  783MOL0     H 3337   1.062   4.777   2.106 -0.1194 -0.5335 -0.4977
  783MOL0     H 3338   1.975   5.252   1.666  0.9632 -3.4632 -0.8059
  783MOL0     H 3339   2.204   5.326   1.645  1.7986 -2.5479  0.2579
  783MOL0     H 3340   2.590   5.498   1.856 -3.1153  1.0068 -3.5219
  783MOL0     H 3341   2.783   5.577   1.751 -1.2700  0.0132  1.1754
  783MOL0     H 3342   4.193   5.208   2.461  0.2100  1.1984 -0.2922
  783MOL0     H 3343   4.408   5.102   2.469  1.3522  0.0207  0.1355
  783MOL0     H 3344   4.831   5.132   2.629  0.5584  1.2851  0.4989
  783MOL0     H 3345   5.066   5.087   2.672 -0.1985  2.2312  0.9255
  783MOL0     H 3346   5.371   5.184   2.357 -0.1411  0.8797  0.3234
  783MOL0     H 3347   5.293   5.027   2.306 -0.1421  1.2997 -0.9096
  783MOL0     H 3348   5.526   5.076   2.494 -1.3045  0.6295  0.3998
  783MOL0     H 3349   5.448   4.919   2.492  1.1765  0.0225 -0.9106
  783MOL0     H 3350   5.577   5.057   2.253  0.6835  0.0317  0.2839
  783MOL0     H 3351   5.530   4.887   2.260 -1.9176 -0.0897  1.0063
  783MOL0     H 3352   5.750   5.051   2.403 -1.7497 -0.5697  0.7121
  783MOL0     H 3353   5.717   4.879   2.448  2.2028 -1.3304 -0.9107
  783MOL0     H 3354   5.988   4.832   2.148 -0.7988 -1.5951 -2.3797
  783MOL0     H 3355   5.162   5.233   2.281  1.8491  2.0646  1.6650
  783MOL0     H 3356   4.940   5.281   2.242  1.2084  0.5195 -0.9073
  784MOL0     O 3357   1.366   6.521   7.299  0.5409 -0.1075  0.9644
  784MOL0     C 3358   1.395   6.403   7.273 -0.4830  0.6271  0.1797
  784MOL0     O 3359   1.322   6.307   7.219 -0.0460 -0.3939 -0.7900
  784MOL0     C 3360   1.197   6.351   7.172 -0.0685  0.3950  0.4440
  784MOL0     C 3361   1.173   6.391   7.043  0.7313 -0.2726 -0.4551
  784MOL0     C 3362   1.044   6.425   6.991  0.0112  0.0128 -0.5174
  784MOL0     C 3363   0.929   6.424   7.080 -0.2508  0.2008  0.7854
  784MOL0     O 3364   0.804   6.459   7.047  0.1733  0.7005  0.3122
  784MOL0     C 3365   0.800   6.573   6.959  0.2515 -0.1831  0.2561
  784MOL0     C 3366   0.689   6.668   7.004  0.4763 -0.2075 -0.7658
  784MOL0     C 3367   0.662   6.789   6.908  0.6020 -0.3088  0.4914
  784MOL0     C 3368   0.583   6.754   6.778 -0.3474  0.0508  0.2641
  784MOL0     C 3369   0.582   6.874   6.684  0.6055 -0.2111  0.1680
  784MOL0     C 3370   0.475   6.976   6.726  0.1171 -0.6551 -0.4062
  784MOL0     C 3371   0.538   7.110   6.771 -0.1504  0.5017 -0.1569
  784MOL0     C 3372   0.429   7.206   6.831 -0.4515  0.0857 -0.3472
  784MOL0     N 3373   0.331   7.254   6.737 -0.0177  0.6052  0.4618
  784MOL0     C 3374   0.192   7.258   6.761 -0.3533  0.8283 -0.4645
  784MOL0     C 3375   0.148   7.314   6.647  0.7067  0.3412  0.0822
  784MOL0     C 3376   0.001   7.348   6.626 -0.1112 -0.4748 -0.8224
  784MOL0     C 3377  -0.095   7.245   6.567 -0.2481  1.4494  0.0229
  784MOL0     C 3378  -0.225   7.242   6.641  1.1932  0.2411 -0.8059
  784MOL0     C 3379  -0.304   7.117   6.585 -0.1403  0.3857  0.1284
  784MOL0     O 3380  -0.412   7.093   6.676 -0.1399 -0.0192 -0.7256
  784MOL0     C 3381  -0.516   7.025   6.633 -0.2281  0.6267 -0.2467
  784MOL0     C 3382  -0.627   7.026   6.718 -1.0263  1.3854 -0.2111
  784MOL0     C 3383  -0.744   6.955   6.687  0.2941 -0.1196 -0.5886
  784MOL0     C 3384  -0.753   6.888   6.564  0.0669 -0.0315  0.9401
  784MOL0     C 3385  -0.873   6.820   6.531  0.3079 -0.0275 -0.2898
  784MOL0     O 3386  -0.958   6.806   6.635  0.2707  0.4058 -0.2136
  784MOL0     C 3387  -1.073   6.733   6.599 -0.0070  1.3856 -0.2848
  784MOL0     C 3388  -1.194   6.789   6.578 -0.4484  0.2526 -0.3441
  784MOL0     C 3389  -1.306   6.715   6.565  0.0919 -0.3761  0.4482
  784MOL0     C 3390  -1.312   6.580   6.575 -0.1435  0.5911 -0.3826
  784MOL0     O 3391  -1.440   6.523   6.551 -0.4260  0.0445  0.0162
  784MOL0     C 3392  -1.438   6.379   6.560  1.0754 -0.0009 -0.5829
  784MOL0     C 3393  -1.565   6.316   6.507 -0.1528  0.6756 -0.1138
  784MOL0     C 3394  -1.694   6.383   6.547  0.1248  0.4546  0.2986
  784MOL0     C 3395  -1.811   6.302   6.518 -0.1109 -0.0952  0.3115
  784MOL0     C 3396  -1.927   6.396   6.541  0.8774 -0.1311 -0.6050
  784MOL0     C 3397  -2.057   6.322   6.543  0.6518 -0.0080  0.8524
  784MOL0     C 3398  -2.172   6.416   6.495  0.2249  0.3667  0.0244
  784MOL0     C 3399  -2.305   6.363   6.523  0.2517  0.2566 -0.5154
  784MOL0    Cl 3400  -2.319   6.200   6.440 -0.0273  0.2853  0.4101
  784MOL0     C 3401  -1.190   6.516   6.595 -1.4360  0.3614  0.6552
  784MOL0     C 3402  -1.070   6.591   6.608 -1.0424 -0.1558  0.0034
  784MOL0     O 3403  -0.891   6.772   6.420 -0.5735  0.3251 -0.3424
  784MOL0     C 3404  -0.643   6.897   6.474  0.8542  0.6025 -0.2709
  784MOL0     C 3405  -0.522   6.945   6.515  0.5717  0.1395 -0.3685
  784MOL0     N 3406   0.247   7.339   6.556  0.1790  0.7572  0.1450
  784MOL0     N 3407   0.362   7.312   6.616  0.4899  0.1672 -0.6688
  784MOL0     C 3408   0.955   6.374   7.210  0.1164 -0.3230 -0.6606
  784MOL0     C 3409   1.082   6.342   7.254  0.7401  0.1762  0.1479
  784MOL0     C 3410   1.539   6.376   7.293 -0.9299 -0.2749  0.2713
  784MOL0     C 3411   1.641   6.469   7.326 -0.4917  0.9909  0.9463
  784MOL0     C 3412   1.775   6.429   7.353  0.5730  0.6761  0.1554
  784MOL0     C 3413   1.813   6.298   7.351  0.2615  0.6821 -0.4879
  784MOL0     O 3414   1.940   6.251   7.371  0.1161 -0.1323 -0.3005
  784MOL0     C 3415   2.044   6.348   7.380  0.1478 -0.1780  0.1887
  784MOL0     C 3416   2.172   6.270   7.408 -0.3619  0.0444 -0.9223
  784MOL0     C 3417   2.217   6.180   7.297 -0.1420  0.2863  0.8259
  784MOL0     C 3418   2.344   6.110   7.326 -0.2173 -0.3047  0.7954
  784MOL0     C 3419   2.455   6.208   7.333  0.5416 -0.5437  0.4407
  784MOL0     C 3420   2.537   6.294   7.336 -0.6252 -0.1573  0.0099
  784MOL0     C 3421   1.718   6.209   7.308  0.1724  0.3840  0.3136
  784MOL0     C 3422   1.588   6.245   7.274 -0.1765  0.0366  0.9247
  784MOL0     H 3423   1.253   6.383   6.970  3.5575  1.8802  2.1455
  784MOL0     H 3424   1.027   6.460   6.889 -2.4278  0.0866 -0.1523
  784MOL0     H 3425   0.779   6.534   6.859  1.5469  0.7227 -0.4080
  784MOL0     H 3426   0.895   6.627   6.946  0.8407 -1.0957  0.6893
  784MOL0     H 3427   0.719   6.704   7.103  0.8601 -0.7096 -0.6960
  784MOL0     H 3428   0.596   6.612   7.020 -0.1124  1.4237  2.4872
  784MOL0     H 3429   0.764   6.826   6.888  1.2196 -1.6088  1.1394
  784MOL0     H 3430   0.610   6.870   6.960  1.4301  1.4832 -1.3160
  784MOL0     H 3431   0.636   6.680   6.716 -0.6299  0.9552 -1.0843
  784MOL0     H 3432   0.482   6.723   6.806 -1.6521  1.6638 -2.3548
  784MOL0     H 3433   0.553   6.841   6.583  1.7293 -0.6024 -0.0378
  784MOL0     H 3434   0.681   6.921   6.687 -0.4278  2.0829  0.4406
  784MOL0     H 3435   0.422   6.928   6.808 -1.1451 -0.3155 -0.9894
  784MOL0     H 3436   0.404   6.983   6.643 -1.3178 -4.0455  0.3891
  784MOL0     H 3437   0.610   7.084   6.849  0.6682  1.6835 -0.4923
  784MOL0     H 3438   0.608   7.151   6.698  2.5885 -3.5584 -0.1235
  784MOL0     H 3439   0.474   7.293   6.879  0.9602  0.3634 -2.0657
  784MOL0     H 3440   0.373   7.155   6.909  1.1797  1.1272  1.5875
  784MOL0     H 3441   0.148   7.241   6.859  1.3634  0.3287  0.2647
  784MOL0     H 3442   0.002   7.431   6.554 -1.5372 -0.0813 -0.4198
  784MOL0     H 3443  -0.038   7.370   6.726 -2.2723 -3.2839 -0.9186
  784MOL0     H 3444  -0.035   7.153   6.574  1.4698  2.4850 -0.3724
  784MOL0     H 3445  -0.110   7.276   6.463 -1.5175  0.1660 -0.2046
  784MOL0     H 3446  -0.227   7.227   6.749 -1.7634 -0.4999 -0.8801
  784MOL0     H 3447  -0.289   7.327   6.616  2.4900  1.5660  0.1936
  784MOL0     H 3448  -0.249   7.023   6.574  0.8011  0.8306  0.8308
  784MOL0     H 3449  -0.344   7.135   6.485 -0.0665 -0.1174  0.0048
  784MOL0     H 3450  -0.615   7.076   6.814 -1.8839  2.4096 -0.6192
  784MOL0     H 3451  -0.815   6.948   6.769  0.4364 -0.9552 -0.5273
  784MOL0     H 3452  -1.201   6.897   6.570 -3.5770  0.2546  1.0103
  784MOL0     H 3453  -1.391   6.778   6.541 -1.8676 -2.3353  1.7461
  784MOL0     H 3454  -1.426   6.351   6.665 -1.7809 -0.4875 -0.3158
  784MOL0     H 3455  -1.355   6.339   6.501  0.4563 -1.0462 -0.7775
  784MOL0     H 3456  -1.565   6.218   6.555  2.6438  0.6547 -0.0258
  784MOL0     H 3457  -1.563   6.306   6.398 -0.7394 -2.4424  0.0799
  784MOL0     H 3458  -1.695   6.481   6.498  1.7168  0.5492  0.4142
  784MOL0     H 3459  -1.687   6.403   6.654  1.4040  0.3337  0.2545
  784MOL0     H 3460  -1.820   6.259   6.418 -1.6452 -0.1467  0.4456
  784MOL0     H 3461  -1.817   6.218   6.588 -1.1069 -0.4319 -0.1606
  784MOL0     H 3462  -1.928   6.479   6.470 -1.4123  0.0050 -0.5085
  784MOL0     H 3463  -1.931   6.435   6.643 -0.1737  0.3900 -0.8266
  784MOL0     H 3464  -2.090   6.294   6.643 -0.0652 -0.5677  0.4732
  784MOL0     H 3465  -2.044   6.237   6.475  0.7928 -2.0766  3.3288
  784MOL0     H 3466  -2.166   6.510   6.551 -0.6166 -0.2159  1.1507
  784MOL0     H 3467  -2.159   6.426   6.387  1.0413  1.6247  0.2242
  784MOL0     H 3468  -2.380   6.432   6.483 -1.3978  0.3481  2.3911
  784MOL0     H 3469  -2.322   6.347   6.630 -1.2270 -0.7871 -0.8878
  784MOL0     H 3470  -1.180   6.408   6.588 -4.0576  0.1096 -0.8726
  784MOL0     H 3471  -0.975   6.538   6.614 -0.7744  0.0269 -1.9261
  784MOL0     H 3472  -0.654   6.859   6.373 -0.8419 -2.5073  0.9544
  784MOL0     H 3473  -0.442   6.947   6.441  0.4792  1.8942 -0.4560
  784MOL0     H 3474   0.878   6.378   7.287  1.0956  2.6078  0.3303
  784MOL0     H 3475   1.089   6.317   7.360 -1.3576  1.3972  0.6512
  784MOL0     H 3476   1.605   6.569   7.345 -0.6808  0.8779  1.1848
  784MOL0     H 3477   1.841   6.512   7.374 -0.0798  1.1043  0.5235
  784MOL0     H 3478   2.022   6.423   7.457  1.8533  0.4687  0.0986
  784MOL0     H 3479   2.052   6.398   7.283 -0.2653  0.7849  0.6342
  784MOL0     H 3480   2.249   6.347   7.423  0.1418 -0.8972  2.0700
  784MOL0     H 3481   2.153   6.211   7.498 -0.0763  1.2752 -0.0131
  784MOL0     H 3482   2.227   6.235   7.203 -0.5384 -0.4361  0.3536
  784MOL0     H 3483   2.133   6.113   7.278  0.2898  0.4487 -2.0203
  784MOL0     H 3484   2.345   6.065   7.426 -1.0552 -2.0335  0.0813
  784MOL0     H 3485   2.368   6.042   7.243 -1.7503  0.8458 -0.6401
  784MOL0     H 3486   2.608   6.375   7.337 -1.6537  0.7894  2.4086
  784MOL0     H 3487   1.751   6.105   7.306  3.0389  1.1741  1.4705
  784MOL0     H 3488   1.523   6.160   7.258 -0.1099 -0.0460  1.0890
  785MOL0     O 3489   4.179   5.245  10.524 -0.5267 -0.3935  0.0775
  785MOL0     C 3490   4.268   5.216  10.603 -0.4727 -0.2306 -0.2900
  785MOL0     O 3491   4.251   5.173  10.731  0.4727  0.3389 -0.1207
  785MOL0     C 3492   4.129   5.145  10.779  0.2685  0.2574 -0.9226
  785MOL0     C 3493   4.109   5.025  10.853  0.0647 -0.6365  0.3904
  785MOL0     C 3494   3.985   4.991  10.917 -0.4224  0.7190  0.4148
  785MOL0     C 3495   3.883   5.088  10.917  0.1448 -0.6346  0.3898
  785MOL0     O 3496   3.764   5.064  10.982 -0.0900  0.8888  0.5373
  785MOL0     C 3497   3.639   5.128  10.963 -1.0912 -0.1875 -0.3883
  785MOL0     C 3498   3.545   5.073  11.070 -0.1761 -0.9367 -0.4125
  785MOL0     C 3499   3.477   4.940  11.041  0.2134 -0.0641 -0.5060
  785MOL0     C 3500   3.579   4.837  11.012 -0.6076  0.2082  1.1698
  785MOL0     C 3501   3.538   4.698  11.056  0.3373 -1.2140 -0.4776
  785MOL0     C 3502   3.625   4.585  10.993 -0.0108 -0.0320 -0.3254
  785MOL0     C 3503   3.766   4.589  11.069  0.5662  0.8584  0.3394
  785MOL0     C 3504   3.855   4.492  10.983 -0.5143 -0.0013  0.0583
  785MOL0     N 3505   3.983   4.449  11.044  0.1874 -1.4213  0.4901
  785MOL0     C 3506   4.008   4.367  11.154 -0.1811  0.1581 -0.2522
  785MOL0     C 3507   4.135   4.386  11.176 -0.0885 -0.4777 -0.6393
  785MOL0     C 3508   4.219   4.335  11.285  0.0151  0.1910  0.7630
  785MOL0     C 3509   4.237   4.178  11.255 -0.3265 -0.6493  0.0447
  785MOL0     C 3510   4.305   4.115  11.372 -0.4529  0.2890  0.5753
  785MOL0     C 3511   4.376   3.979  11.346  0.0727 -0.7931 -0.5349
  785MOL0     O 3512   4.496   3.988  11.268 -0.3383  0.1038  0.1036
  785MOL0     C 3513   4.618   4.022  11.324 -0.7307 -0.0836 -0.1379
  785MOL0     C 3514   4.647   4.069  11.457 -0.0809 -0.2368  0.0070
  785MOL0     C 3515   4.778   4.102  11.498  0.7117 -0.0271  0.4741
  785MOL0     C 3516   4.881   4.094  11.401  0.0316  0.2289 -0.2867
  785MOL0     C 3517   5.018   4.134  11.430 -0.0257  0.4356 -0.5631
  785MOL0     O 3518   5.121   4.097  11.339  0.1273  0.3298  0.3053
  785MOL0     C 3519   5.264   4.115  11.367  0.7505  0.3341 -0.2087
  785MOL0     C 3520   5.331   4.184  11.463 -0.6927 -0.7648  0.4117
  785MOL0     C 3521   5.479   4.200  11.465  0.1420  0.8546 -0.4892
  785MOL0     C 3522   5.556   4.123  11.372 -1.1122 -0.0720  0.2852
  785MOL0     O 3523   5.697   4.129  11.379 -0.0306  0.4198  0.8660
  785MOL0     C 3524   5.780   4.025  11.322 -0.3135  0.7805  0.2843
  785MOL0     C 3525   5.809   4.070  11.182 -0.4187 -0.4827  0.4669
  785MOL0     C 3526   5.924   4.182  11.176  0.4671 -0.1401  0.0144
  785MOL0     C 3527   5.979   4.205  11.041  0.0333 -0.0314  0.3441
  785MOL0     C 3528   6.070   4.327  11.040 -0.5815 -0.1138 -0.2757
  785MOL0     C 3529   6.121   4.353  10.905 -0.2225 -0.0941 -0.8276
  785MOL0     C 3530   6.269   4.321  10.888  0.5416 -0.3195 -1.4686
  785MOL0     C 3531   6.304   4.305  10.736 -0.1144  0.2044  0.0113
  785MOL0    Cl 3532   6.472   4.243  10.709 -0.2638  0.3896  0.2615
  785MOL0     C 3533   5.481   4.050  11.273  0.0523 -0.0576 -0.0007
  785MOL0     C 3534   5.344   4.053  11.271  0.5979  0.7835  0.3975
  785MOL0     O 3535   5.038   4.188  11.533 -0.4595 -0.4758 -0.5571
  785MOL0     C 3536   4.858   4.031  11.276 -1.0345 -0.0487 -0.3080
  785MOL0     C 3537   4.725   3.992  11.243  0.5864  0.2011  0.3711
  785MOL0     N 3538   4.189   4.471  11.084  0.1315  0.1019 -0.8735
  785MOL0     N 3539   4.103   4.509  11.004 -0.3082 -0.5855 -0.5853
  785MOL0     C 3540   3.905   5.212  10.851  0.0278  0.0344 -0.0860
  785MOL0     C 3541   4.020   5.235  10.775  0.4637 -0.2115 -0.1615
  785MOL0     C 3542   4.415   5.260  10.574  0.3500  0.4154 -0.8324
  785MOL0     C 3543   4.445   5.353  10.477  0.8201  0.6655  0.2361
  785MOL0     C 3544   4.578   5.390  10.463  0.2808  0.0527  0.6871
  785MOL0     C 3545   4.679   5.350  10.545 -0.6194 -0.4738 -0.1908
  785MOL0     O 3546   4.805   5.399  10.523 -0.7060 -0.4134  0.4176
  785MOL0     C 3547   4.906   5.311  10.480 -0.2072 -0.2766  0.4710
  785MOL0     C 3548   4.996   5.263  10.603  0.0110 -0.1891 -0.5666
  785MOL0     C 3549   5.028   5.114  10.598 -0.3218 -0.0210 -0.6710
  785MOL0     C 3550   5.110   5.055  10.725 -0.6959 -0.5221  0.3100
  785MOL0     C 3551   5.249   5.104  10.718  0.5567  0.4717 -0.8783
  785MOL0     C 3552   5.363   5.151  10.696  0.8376 -0.0586 -1.1204
  785MOL0     C 3553   4.643   5.260  10.648  0.5513 -0.6461  0.7806
  785MOL0     C 3554   4.510   5.206  10.660  0.1651  0.2218  0.1117
  785MOL0     H 3555   4.178   4.941  10.847 -0.6339 -1.1588 -0.8073
  785MOL0     H 3556   3.968   4.891  10.954 -2.9113  0.6534 -0.7171
  785MOL0     H 3557   3.601   5.117  10.861 -2.2035 -0.0330  0.0002
  785MOL0     H 3558   3.662   5.235  10.962  0.5942 -0.5198 -0.4701
  785MOL0     H 3559   3.465   5.144  11.094 -1.6002 -0.9738 -4.3042
  785MOL0     H 3560   3.604   5.066  11.161 -1.5843  0.3202  0.6481
  785MOL0     H 3561   3.401   4.946  10.963 -0.5237  0.5895  0.2450
  785MOL0     H 3562   3.422   4.919  11.133 -0.8253  3.1345 -0.2723
  785MOL0     H 3563   3.610   4.846  10.908 -2.3546  0.0933  0.6078
  785MOL0     H 3564   3.676   4.853  11.061  0.0383 -0.8776  0.2959
  785MOL0     H 3565   3.438   4.679  11.017 -0.1999  2.8237 -1.5377
  785MOL0     H 3566   3.539   4.687  11.165  0.5310 -2.8671 -0.6245
  785MOL0     H 3567   3.634   4.597  10.884 -4.1267  0.9636 -0.7079
  785MOL0     H 3568   3.573   4.490  11.005 -1.1384  0.5665 -0.3647
  785MOL0     H 3569   3.816   4.684  11.044 -0.7256  0.8060 -2.8950
  785MOL0     H 3570   3.753   4.566  11.175  2.3084 -1.1095  0.1837
  785MOL0     H 3571   3.887   4.539  10.889  1.1482 -1.4648 -0.1747
  785MOL0     H 3572   3.794   4.403  10.964  0.8160 -0.9093 -0.1011
  785MOL0     H 3573   3.926   4.316  11.204  0.9528 -1.1995  0.2833
  785MOL0     H 3574   4.175   4.353  11.383 -0.1335  0.5651  0.6280
  785MOL0     H 3575   4.323   4.370  11.282  0.6913 -1.7257 -0.5532
  785MOL0     H 3576   4.301   4.166  11.167 -0.7990 -1.8899 -0.1475
  785MOL0     H 3577   4.138   4.139  11.229 -0.2879  0.0433 -1.2132
  785MOL0     H 3578   4.369   4.183  11.429 -0.8210  1.8033 -0.7507
  785MOL0     H 3579   4.225   4.096  11.444 -0.0084 -0.2395  0.9417
  785MOL0     H 3580   4.303   3.904  11.315 -1.6041  0.5345  0.0718
  785MOL0     H 3581   4.409   3.947  11.445  1.8225  1.3145 -0.3690
  785MOL0     H 3582   4.566   4.084  11.528  0.8707 -2.5117  1.7054
  785MOL0     H 3583   4.802   4.137  11.598  0.2571  1.6033  0.0267
  785MOL0     H 3584   5.277   4.219  11.550  1.0153 -3.2148  2.6088
  785MOL0     H 3585   5.518   4.262  11.545 -1.2223  0.1010  0.8233
  785MOL0     H 3586   5.725   3.931  11.327  1.3965 -0.2625  0.2329
  785MOL0     H 3587   5.871   4.006  11.380 -1.5742 -4.4662  1.0334
  785MOL0     H 3588   5.721   4.107  11.130  0.3333 -2.5610 -2.5587
  785MOL0     H 3589   5.842   3.983  11.124 -3.7045 -1.6662  0.1678
  785MOL0     H 3590   6.001   4.140  11.241 -0.1836 -2.8393 -0.8443
  785MOL0     H 3591   5.894   4.273  11.228  3.0169 -0.5205  2.4626
  785MOL0     H 3592   6.028   4.117  10.998  0.5674  1.2029 -1.6786
  785MOL0     H 3593   5.896   4.224  10.973 -1.7548 -1.3512  2.0392
  785MOL0     H 3594   6.152   4.317  11.112 -0.0307  2.7063 -0.3736
  785MOL0     H 3595   6.012   4.411  11.079  0.6927 -0.9431  3.9147
  785MOL0     H 3596   6.099   4.458  10.879  1.2589  0.5918  0.5458
  785MOL0     H 3597   6.059   4.295  10.836 -1.0190  0.6342 -0.7564
  785MOL0     H 3598   6.338   4.394  10.933  1.3765 -2.6200  1.2612
  785MOL0     H 3599   6.303   4.234  10.944 -0.8296  1.1188  1.8535
  785MOL0     H 3600   6.287   4.403  10.690  0.1501  0.3990  0.3186
  785MOL0     H 3601   6.235   4.249  10.673 -0.6726 -0.8656  1.5346
  785MOL0     H 3602   5.535   3.993  11.198  2.2193  0.6202  0.9355
  785MOL0     H 3603   5.296   4.002  11.189  0.3959  2.7276 -0.7430
  785MOL0     H 3604   4.934   4.015  11.200  0.0284 -1.8247  1.0678
  785MOL0     H 3605   4.715   3.961  11.139  3.1491 -0.0550  0.1467
  785MOL0     H 3606   3.828   5.288  10.860 -0.9452 -0.8669 -0.5788
  785MOL0     H 3607   4.021   5.336  10.734  0.9122  0.5605  1.6628
  785MOL0     H 3608   4.372   5.392  10.406  0.5491  0.2377  0.2754
  785MOL0     H 3609   4.597   5.448  10.374 -1.0459 -0.0170  0.3401
  785MOL0     H 3610   4.983   5.349  10.413 -0.1841 -3.5864 -1.6084
  785MOL0     H 3611   4.855   5.228  10.430  0.1067 -0.2351  0.0785
  785MOL0     H 3612   5.095   5.310  10.603 -0.6782  1.3449  1.0312
  785MOL0     H 3613   4.962   5.290  10.703  2.2083 -0.1296  0.2292
  785MOL0     H 3614   5.084   5.086  10.508  3.4593 -0.2043  1.5222
  785MOL0     H 3615   4.930   5.066  10.599 -2.3614  3.6323 -3.0317
  785MOL0     H 3616   5.055   5.079  10.817 -4.2964 -0.4300 -1.6537
  785MOL0     H 3617   5.110   4.946  10.715 -2.0837 -0.7037  1.8206
  785MOL0     H 3618   5.459   5.191  10.671  0.8524  0.3172 -0.4810
  785MOL0     H 3619   4.710   5.226  10.727  0.7575  0.4550  1.0963
  785MOL0     H 3620   4.478   5.135  10.736 -1.0010  1.5685  0.9433
  786MOL0     O 3621  11.162   6.451  10.365  0.8354 -0.6145  0.4056
  786MOL0     C 3622  11.253   6.438  10.450  0.0751 -0.6183  0.5331
  786MOL0     O 3623  11.241   6.464  10.585  0.0324 -0.5748 -0.1304
  786MOL0     C 3624  11.118   6.486  10.640  0.5433 -0.7718  0.3090
  786MOL0     C 3625  11.011   6.554  10.583  0.0201  0.1304  0.5415
  786MOL0     C 3626  10.890   6.574  10.647 -0.2162  0.6307 -0.0065
  786MOL0     C 3627  10.880   6.531  10.784  0.4832 -0.5241 -0.1876
  786MOL0     O 3628  10.766   6.553  10.866  0.0985 -0.0301  0.1363
  786MOL0     C 3629  10.656   6.631  10.825  0.9209  0.0171  0.3347
  786MOL0     C 3630  10.544   6.609  10.930  0.0399 -0.0114 -0.1223
  786MOL0     C 3631  10.421   6.682  10.876 -0.1497  0.2653 -0.1915
  786MOL0     C 3632  10.297   6.672  10.969 -0.3348 -0.3587 -0.0438
  786MOL0     C 3633  10.187   6.770  10.915 -0.2707 -0.0022  0.1111
  786MOL0     C 3634  10.116   6.713  10.787  0.7287 -0.1730  0.3218
  786MOL0     C 3635   9.963   6.748  10.797 -0.6911  0.6907 -1.1390
  786MOL0     C 3636   9.884   6.723  10.672 -0.3987  0.1405 -0.7309
  786MOL0     N 3637   9.745   6.704  10.703  0.8230 -0.1218 -0.3255
  786MOL0     C 3638   9.641   6.788  10.659 -0.2494 -0.1127 -0.2532
  786MOL0     C 3639   9.527   6.728  10.696 -0.0501 -0.5624  0.0899
  786MOL0     C 3640   9.388   6.774  10.650  0.2377  0.2223 -0.5242
  786MOL0     C 3641   9.350   6.711  10.518 -0.4075 -0.2418  0.4451
  786MOL0     C 3642   9.238   6.787  10.444 -0.4081 -0.4590 -0.2219
  786MOL0     C 3643   9.098   6.771  10.506  0.2130 -0.5485 -0.3441
  786MOL0     O 3644   9.014   6.862  10.440  0.1904 -0.4129  0.5821
  786MOL0     C 3645   8.884   6.888  10.483 -0.2502  0.2479 -0.9515
  786MOL0     C 3646   8.808   6.981  10.410  0.2545  0.0216  0.2901
  786MOL0     C 3647   8.672   7.009  10.426  0.1817  0.8978  0.3462
  786MOL0     C 3648   8.607   6.947  10.535 -0.0071  0.5432 -0.4188
  786MOL0     C 3649   8.472   6.988  10.582  0.2685 -0.5285  0.1962
  786MOL0     O 3650   8.408   7.075  10.512  0.3634 -0.2264  0.5134
  786MOL0     C 3651   8.283   7.116  10.563  0.0993  0.6151 -0.0384
  786MOL0     C 3652   8.169   7.038  10.547  0.0946  0.6134  0.3933
  786MOL0     C 3653   8.041   7.085  10.574 -0.4159  0.5134 -0.1918
  786MOL0     C 3654   8.032   7.216  10.623 -0.3407  0.4188  0.2013
  786MOL0     O 3655   7.915   7.275  10.671  0.1991 -0.6679 -0.0035
  786MOL0     C 3656   7.797   7.192  10.666  0.2105  0.6874  0.3834
  786MOL0     C 3657   7.677   7.279  10.720 -0.2949 -0.1646  0.5698
  786MOL0     C 3658   7.543   7.208  10.687 -0.1564  0.9042  0.1988
  786MOL0     C 3659   7.430   7.268  10.773 -0.4406 -0.1503 -0.0140
  786MOL0     C 3660   7.290   7.195  10.738 -0.2086 -0.2266  0.0510
  786MOL0     C 3661   7.188   7.206  10.852 -0.6429 -0.5616  0.8970
  786MOL0     C 3662   7.122   7.352  10.865 -0.2714 -0.6958  0.8352
  786MOL0     C 3663   7.041   7.397  10.740 -0.0747 -0.1540 -0.2388
  786MOL0    Cl 3664   6.951   7.549  10.754  0.4377  0.7931  0.1667
  786MOL0     C 3665   8.145   7.292  10.643 -0.3171 -0.5792 -0.0055
  786MOL0     C 3666   8.267   7.245  10.611 -0.5491 -0.2381 -0.7055
  786MOL0     O 3667   8.434   6.938  10.687 -0.2617 -0.4524  0.1518
  786MOL0     C 3668   8.690   6.860  10.615  0.5380  1.1156  0.0777
  786MOL0     C 3669   8.825   6.830  10.595  0.5304  1.0410 -0.6080
  786MOL0     N 3670   9.558   6.611  10.767 -0.4183 -0.1331 -0.4797
  786MOL0     N 3671   9.688   6.603  10.779  0.1592  0.3753 -0.3525
  786MOL0     C 3672  10.984   6.462  10.843  0.3399  0.1306  0.3075
  786MOL0     C 3673  11.101   6.435  10.766  0.7904 -0.0319  0.0594
  786MOL0     C 3674  11.389   6.407  10.400 -0.0469 -0.2854  0.8720
  786MOL0     C 3675  11.415   6.391  10.262  0.3731 -0.0517  0.2401
  786MOL0     C 3676  11.550   6.394  10.223 -0.4566 -0.4657 -0.2402
  786MOL0     C 3677  11.655   6.421  10.307 -0.0217  0.4285  0.1648
  786MOL0     O 3678  11.779   6.441  10.249 -0.2221 -0.6954 -0.3448
  786MOL0     C 3679  11.885   6.485  10.331  0.4853 -0.3097  0.3037
  786MOL0     C 3680  11.998   6.545  10.244  0.0507  0.0964  0.3557
  786MOL0     C 3681  12.121   6.600  10.326  0.0015  0.3544  0.4508
  786MOL0     C 3682  12.218   6.658  10.225  0.1589 -0.4540  0.0806
  786MOL0     C 3683  12.220   6.811  10.236 -0.2657  0.1848 -0.5412
  786MOL0     C 3684  12.233   6.928  10.240 -0.3563 -0.2542 -0.2746
  786MOL0     C 3685  11.631   6.425  10.444  0.1983 -0.5916 -0.0868
  786MOL0     C 3686  11.502   6.422  10.489 -0.3130 -0.3089  0.0644
  786MOL0     H 3687  11.019   6.593  10.482  0.0241 -3.2253 -0.9048
  786MOL0     H 3688  10.816   6.625  10.586 -0.8642 -0.9925 -0.6387
  786MOL0     H 3689  10.619   6.598  10.727 -1.5186  2.5277  0.2626
  786MOL0     H 3690  10.682   6.737  10.831 -0.4179  0.3387  0.9106
  786MOL0     H 3691  10.573   6.655  11.025 -0.0296 -1.1569  0.4649
  786MOL0     H 3692  10.517   6.505  10.945  0.5989 -0.4175 -1.7009
  786MOL0     H 3693  10.392   6.634  10.782  1.0022 -0.1501 -0.3521
  786MOL0     H 3694  10.441   6.785  10.847 -0.2462 -0.4675 -3.2313
  786MOL0     H 3695  10.260   6.570  10.959 -2.2474  0.2070  0.8300
  786MOL0     H 3696  10.316   6.708  11.070 -0.0249 -1.2232  0.2116
  786MOL0     H 3697  10.220   6.870  10.888 -2.6831  0.8596  0.1594
  786MOL0     H 3698  10.109   6.786  10.990 -2.4015 -0.1360 -1.9643
  786MOL0     H 3699  10.127   6.607  10.760  2.1123  0.2195 -0.7511
  786MOL0     H 3700  10.167   6.761  10.703  1.9050 -0.0861  1.0589
  786MOL0     H 3701   9.926   6.674  10.869  1.4252  2.9200  2.5835
  786MOL0     H 3702   9.947   6.848  10.837 -1.5614 -0.0804  0.5488
  786MOL0     H 3703   9.921   6.634  10.619 -2.5186 -1.9629  1.0847
  786MOL0     H 3704   9.901   6.809  10.606 -1.3252  1.4068  0.6219
  786MOL0     H 3705   9.663   6.867  10.587  1.0264  0.0890  0.3288
  786MOL0     H 3706   9.387   6.883  10.653  1.6500  0.2579 -0.3093
  786MOL0     H 3707   9.333   6.731  10.734  0.0564  2.2523  0.4481
  786MOL0     H 3708   9.308   6.612  10.542 -0.1726 -0.2176  0.9704
  786MOL0     H 3709   9.436   6.703  10.450 -1.7838  0.1627 -1.4320
  786MOL0     H 3710   9.263   6.893  10.456  1.2691 -0.9971  1.6621
  786MOL0     H 3711   9.232   6.762  10.338  0.9221  2.0884 -0.9711
  786MOL0     H 3712   9.090   6.795  10.612  0.7325 -2.0408  0.0562
  786MOL0     H 3713   9.068   6.667  10.495 -1.0893  0.0175 -3.1562
  786MOL0     H 3714   8.858   7.014  10.320  0.6107 -5.6270 -2.0009
  786MOL0     H 3715   8.620   7.086  10.371  0.5451  1.5272  0.8611
  786MOL0     H 3716   8.190   6.937  10.511 -0.0279  1.0664 -0.9722
  786MOL0     H 3717   7.953   7.021  10.567 -1.1176  1.4463 -0.1067
  786MOL0     H 3718   7.823   7.110  10.734 -2.1819 -2.5363 -2.2624
  786MOL0     H 3719   7.769   7.151  10.569 -1.6200  1.1639  0.6798
  786MOL0     H 3720   7.668   7.378  10.676  0.2210 -1.0053 -1.5702
  786MOL0     H 3721   7.701   7.279  10.827 -0.8789 -3.0112  0.7913
  786MOL0     H 3722   7.553   7.101  10.705 -2.9126  0.7590  1.4160
  786MOL0     H 3723   7.518   7.208  10.580 -0.1094 -0.3408  0.1748
  786MOL0     H 3724   7.456   7.250  10.878 -0.2259  0.3941  0.0249
  786MOL0     H 3725   7.417   7.376  10.761 -0.2520  0.1818  2.3007
  786MOL0     H 3726   7.311   7.090  10.716 -1.6856 -0.6127  0.3382
  786MOL0     H 3727   7.255   7.248  10.649  1.9665  0.4106 -0.4716
  786MOL0     H 3728   7.237   7.186  10.947  1.5008  0.4972  0.0883
  786MOL0     H 3729   7.106   7.134  10.837 -0.9649  0.3543 -3.0329
  786MOL0     H 3730   7.042   7.337  10.939 -0.5612 -1.6044  0.3575
  786MOL0     H 3731   7.196   7.423  10.903 -1.4028  1.3821 -0.6372
  786MOL0     H 3732   6.961   7.336  10.697  1.0557  1.7344 -5.8851
  786MOL0     H 3733   7.104   7.399  10.650  1.2340 -0.5737  0.6327
  786MOL0     H 3734   8.142   7.392  10.685 -1.0443 -0.0532 -1.2469
  786MOL0     H 3735   8.350   7.315  10.618 -0.3601 -0.6024  1.4036
  786MOL0     H 3736   8.649   6.817  10.706 -2.4601 -0.9607 -2.0638
  786MOL0     H 3737   8.884   6.778  10.670  1.2544  1.3969 -0.9221
  786MOL0     H 3738  10.979   6.439  10.949 -2.5271  1.6015  0.5904
  786MOL0     H 3739  11.174   6.380  10.825 -0.8451  0.4265  2.6906
  786MOL0     H 3740  11.338   6.387  10.186  0.9205 -0.7314 -0.2873
  786MOL0     H 3741  11.573   6.385  10.117 -0.9911  3.0401 -0.7743
  786MOL0     H 3742  11.925   6.407  10.396 -0.9922 -0.8627  0.5918
  786MOL0     H 3743  11.861   6.567  10.399  2.0522 -1.0166  1.7887
  786MOL0     H 3744  12.038   6.466  10.180 -2.0445 -1.0921  0.4029
  786MOL0     H 3745  11.951   6.623  10.183  4.8463  0.9404 -2.7263
  786MOL0     H 3746  12.168   6.513  10.372 -0.4266  0.2352  0.6701
  786MOL0     H 3747  12.078   6.675  10.393 -0.2687  1.2918 -0.7332
  786MOL0     H 3748  12.320   6.618  10.233  0.3879  0.3856  1.8305
  786MOL0     H 3749  12.188   6.625  10.125 -0.3858  0.7065 -0.1521
  786MOL0     H 3750  12.234   7.035  10.234  1.2769 -0.1936  0.7079
  786MOL0     H 3751  11.701   6.444  10.524 -0.3356 -0.2115  0.3015
  786MOL0     H 3752  11.486   6.429  10.596 -0.8763 -3.0271  0.2141
  787MOL0     O 3753   6.732   0.525   0.581  0.7417  0.2283 -0.3156
  787MOL0     C 3754   6.775   0.477   0.688  0.7106  0.4646  0.6026
  787MOL0     O 3755   6.693   0.436   0.784 -0.0246  0.8451  0.1516
  787MOL0     C 3756   6.561   0.452   0.757  0.1469  0.6277 -0.4309
  787MOL0     C 3757   6.485   0.530   0.848 -0.1289  0.0167 -0.3243
  787MOL0     C 3758   6.347   0.544   0.838  0.9012 -0.3099 -0.3818
  787MOL0     C 3759   6.283   0.475   0.738 -0.5608  0.1652 -0.7097
  787MOL0     O 3760   6.147   0.483   0.732  0.1392  0.6669  0.3976
  787MOL0     C 3761   6.094   0.505   0.607 -0.3261 -0.1010 -0.1781
  787MOL0     C 3762   6.012   0.403   0.541 -0.2632 -0.2576 -1.1169
  787MOL0     C 3763   5.933   0.466   0.421  0.0189  0.3550  0.1478
  787MOL0     C 3764   5.835   0.580   0.446 -0.1726 -0.6721 -0.1584
  787MOL0     C 3765   5.724   0.552   0.541 -1.5962  0.5282  0.3967
  787MOL0     C 3766   5.618   0.662   0.518  1.2661  0.2155  0.1029
  787MOL0     C 3767   5.511   0.668   0.633 -0.2267 -0.3069 -0.3530
  787MOL0     C 3768   5.455   0.536   0.662 -0.2066 -0.5106  0.7904
  787MOL0     N 3769   5.339   0.532   0.754 -0.6268 -0.3686  0.4844
  787MOL0     C 3770   5.311   0.446   0.857 -0.0627  0.7332  0.5079
  787MOL0     C 3771   5.204   0.498   0.916  0.3833  0.3371  0.4653
  787MOL0     C 3772   5.119   0.431   1.019 -0.6268  0.6809  0.3638
  787MOL0     C 3773   5.144   0.489   1.151  1.3947  0.1336  0.1187
  787MOL0     C 3774   5.069   0.412   1.259  0.8006  0.0191 -0.5875
  787MOL0     C 3775   4.919   0.450   1.258  1.0038  0.6497  0.5822
  787MOL0     O 3776   4.843   0.374   1.159 -0.4771 -0.2406 -0.4663
  787MOL0     C 3777   4.714   0.428   1.151 -0.6266 -0.2779  0.1132
  787MOL0     C 3778   4.676   0.496   1.033  0.4078  0.2041  0.6718
  787MOL0     C 3779   4.554   0.549   1.013  1.2507 -0.7213  0.2351
  787MOL0     C 3780   4.451   0.533   1.110 -0.2502 -0.0356 -0.5725
  787MOL0     C 3781   4.310   0.553   1.076 -0.2677  0.5527 -0.3595
  787MOL0     O 3782   4.220   0.510   1.171  0.3701 -0.3840 -0.0860
  787MOL0     C 3783   4.081   0.543   1.169 -0.2432 -0.4632  0.5952
  787MOL0     C 3784   4.030   0.663   1.131 -0.2224  0.3378  0.3873
  787MOL0     C 3785   3.891   0.692   1.149 -1.2607 -0.0271  0.3978
  787MOL0     C 3786   3.809   0.603   1.212  0.4427 -0.0205 -0.5841
  787MOL0     O 3787   3.671   0.621   1.235  0.4567 -0.4222 -0.1724
  787MOL0     C 3788   3.611   0.747   1.196  0.9683 -0.1427 -0.0125
  787MOL0     C 3789   3.455   0.744   1.229 -0.5351 -0.3026  0.7118
  787MOL0     C 3790   3.375   0.665   1.117 -0.2566 -0.6206 -0.9178
  787MOL0     C 3791   3.230   0.664   1.164  0.9353 -0.0766  0.0663
  787MOL0     C 3792   3.157   0.543   1.095  0.0105 -0.4228 -0.2212
  787MOL0     C 3793   3.012   0.537   1.143 -0.4113 -1.0346 -0.2720
  787MOL0     C 3794   2.924   0.454   1.058 -0.3402  0.7389  0.0731
  787MOL0     C 3795   2.779   0.472   1.085  0.2991 -0.9189 -0.1654
  787MOL0    Cl 3796   2.743   0.436   1.265  0.1842  0.3679  0.0157
  787MOL0     C 3797   3.862   0.482   1.250 -0.4084 -0.3070 -0.7427
  787MOL0     C 3798   3.998   0.451   1.228  0.2724  1.0132 -0.3175
  787MOL0     O 3799   4.277   0.603   0.969  0.1067 -0.6645  0.0641
  787MOL0     C 3800   4.487   0.471   1.237  0.0155 -0.0842  0.0852
  787MOL0     C 3801   4.621   0.422   1.254 -0.1559  0.1524 -0.4052
  787MOL0     N 3802   5.173   0.618   0.857 -0.5007  0.8338  0.3459
  787MOL0     N 3803   5.252   0.636   0.755  0.5004 -0.3411  0.4058
  787MOL0     C 3804   6.354   0.390   0.656  0.2486  0.6213  0.9310
  787MOL0     C 3805   6.492   0.379   0.662 -0.4369  0.2349 -1.2983
  787MOL0     C 3806   6.922   0.476   0.709  0.2447 -0.4336 -0.1965
  787MOL0     C 3807   6.962   0.438   0.837  0.0433 -0.4027  0.1642
  787MOL0     C 3808   7.096   0.434   0.871  0.0433  0.7122  0.2409
  787MOL0     C 3809   7.191   0.460   0.772  0.2072  0.2791 -0.0035
  787MOL0     O 3810   7.324   0.439   0.804 -0.7644  0.0449 -0.2052
  787MOL0     C 3811   7.415   0.390   0.703  0.1556 -0.4994  0.3342
  787MOL0     C 3812   7.561   0.397   0.744  0.2532  1.1563  0.0513
  787MOL0     C 3813   7.615   0.541   0.753 -0.5283 -1.1216 -0.5799
  787MOL0     C 3814   7.749   0.553   0.831 -0.1760 -0.0254 -0.7684
  787MOL0     C 3815   7.790   0.688   0.869  0.5740  0.1004  0.4704
  787MOL0     C 3816   7.835   0.796   0.885  0.4214 -0.1043  0.3993
  787MOL0     C 3817   7.155   0.504   0.644  0.4019  0.5729  0.9038
  787MOL0     C 3818   7.015   0.523   0.616 -0.1133 -0.6074  0.2791
  787MOL0     H 3819   6.536   0.581   0.929 -1.5908  0.7421  0.1745
  787MOL0     H 3820   6.292   0.610   0.904 -1.7684 -3.1055  0.4884
  787MOL0     H 3821   6.168   0.539   0.534 -0.8441  1.5579  0.0212
  787MOL0     H 3822   6.027   0.588   0.630 -1.1007  0.2242 -3.1427
  787MOL0     H 3823   5.942   0.354   0.608 -1.9841 -2.2225 -4.0954
  787MOL0     H 3824   6.079   0.324   0.505 -2.6990 -3.0702  0.1144
  787MOL0     H 3825   5.882   0.378   0.382  0.2798  0.3346 -0.1498
  787MOL0     H 3826   6.003   0.503   0.346 -0.3191  2.3678  0.7474
  787MOL0     H 3827   5.886   0.664   0.493  2.4343 -2.7953  1.0786
  787MOL0     H 3828   5.790   0.622   0.356 -5.1125 -2.5887  1.0897
  787MOL0     H 3829   5.768   0.554   0.641 -0.0948  2.4333 -0.2496
  787MOL0     H 3830   5.680   0.455   0.515 -0.0793  0.6410 -3.2398
  787MOL0     H 3831   5.558   0.642   0.428 -1.5102  1.7773  1.4792
  787MOL0     H 3832   5.672   0.756   0.503  1.1725  0.5343  1.6613
  787MOL0     H 3833   5.556   0.709   0.724 -1.2354  2.4218 -0.9668
  787MOL0     H 3834   5.430   0.735   0.601  0.0976  0.7361  0.9218
  787MOL0     H 3835   5.535   0.481   0.714  0.7385 -0.3191 -0.4215
  787MOL0     H 3836   5.420   0.492   0.569 -0.8281  1.7776 -0.1188
  787MOL0     H 3837   5.355   0.350   0.883  1.1723  1.6308  1.9235
  787MOL0     H 3838   5.148   0.326   1.013 -0.2082  0.8698 -1.6240
  787MOL0     H 3839   5.019   0.440   0.976 -0.0802 -0.8748 -1.3820
  787MOL0     H 3840   5.118   0.595   1.156 -2.3072 -0.6875  1.7399
  787MOL0     H 3841   5.249   0.470   1.174  1.1546  0.1327  1.3110
  787MOL0     H 3842   5.074   0.303   1.253 -2.0419 -0.4050  2.1090
  787MOL0     H 3843   5.100   0.452   1.356 -1.9777 -0.3535  0.5408
  787MOL0     H 3844   4.888   0.555   1.253 -4.4956 -0.5254  2.3725
  787MOL0     H 3845   4.890   0.412   1.356 -0.4497  0.1531 -0.0069
  787MOL0     H 3846   4.745   0.499   0.949 -0.6082  0.3930 -0.1931
  787MOL0     H 3847   4.523   0.596   0.921  1.8212  0.5963  0.6889
  787MOL0     H 3848   4.097   0.728   1.077 -0.3167 -0.5794 -0.8926
  787MOL0     H 3849   3.854   0.782   1.102  1.0749  0.4226 -0.6868
  787MOL0     H 3850   3.616   0.767   1.089 -4.6099 -0.1720 -0.5773
  787MOL0     H 3851   3.643   0.832   1.257 -1.9643  0.0518  1.4102
  787MOL0     H 3852   3.419   0.846   1.240  0.8319  0.3182 -0.2465
  787MOL0     H 3853   3.437   0.702   1.329 -1.5460 -2.0311 -0.1569
  787MOL0     H 3854   3.423   0.567   1.119 -1.1417 -1.1254  2.7695
  787MOL0     H 3855   3.375   0.718   1.021  0.7314  0.7355 -0.2174
  787MOL0     H 3856   3.209   0.656   1.271 -0.8103 -3.2009 -0.3879
  787MOL0     H 3857   3.189   0.761   1.134  2.5160  1.4140  2.3982
  787MOL0     H 3858   3.213   0.450   1.113  1.1031  0.5753  1.9942
  787MOL0     H 3859   3.162   0.572   0.990  2.8800  2.9841  0.6474
  787MOL0     H 3860   2.969   0.638   1.151  2.1849  0.1620 -0.5005
  787MOL0     H 3861   3.022   0.494   1.244  4.0419 -2.8504 -1.2674
  787MOL0     H 3862   2.940   0.474   0.952  0.9425 -0.6200 -0.0226
  787MOL0     H 3863   2.956   0.352   1.083 -2.1751  0.5502  1.9384
  787MOL0     H 3864   2.722   0.396   1.031  1.2851 -2.1452  0.4636
  787MOL0     H 3865   2.746   0.575   1.072 -1.2248 -1.4060 -0.3615
  787MOL0     H 3866   3.801   0.403   1.293 -0.2403  1.5518  3.4371
  787MOL0     H 3867   4.044   0.355   1.252  0.1274  1.2990  1.2013
  787MOL0     H 3868   4.421   0.462   1.322 -0.1288  0.7493  0.0655
  787MOL0     H 3869   4.642   0.374   1.349 -1.0375  0.5648  0.0075
  787MOL0     H 3870   6.303   0.319   0.591  0.0807 -0.2821  2.0352
  787MOL0     H 3871   6.539   0.308   0.595 -2.7446 -2.2305 -0.5080
  787MOL0     H 3872   6.896   0.404   0.916 -0.5039 -0.1451 -0.1744
  787MOL0     H 3873   7.120   0.405   0.973  0.7247  0.1004 -0.0807
  787MOL0     H 3874   7.400   0.455   0.617  1.6363  2.9108  2.4294
  787MOL0     H 3875   7.398   0.282   0.696  2.0439 -0.9412  1.4781
  787MOL0     H 3876   7.561   0.343   0.839  0.3643 -0.7091 -0.9641
  787MOL0     H 3877   7.608   0.343   0.662 -1.5677 -2.1971  1.0182
  787MOL0     H 3878   7.540   0.612   0.790  3.3775  3.0557  0.3334
  787MOL0     H 3879   7.626   0.572   0.648  0.1082 -1.8626 -0.7410
  787MOL0     H 3880   7.745   0.510   0.932  1.0637 -3.2970 -1.9519
  787MOL0     H 3881   7.827   0.503   0.772 -0.8029 -2.2425  0.1448
  787MOL0     H 3882   7.880   0.890   0.907  0.4584 -0.2992  1.1786
  787MOL0     H 3883   7.222   0.531   0.563 -1.8468 -0.1851 -1.3576
  787MOL0     H 3884   6.980   0.557   0.519  2.8687  1.0862 -0.3098
  788MOL0     O 3885   7.415   3.354   9.220  0.0456  0.2193  0.6232
  788MOL0     C 3886   7.420   3.478   9.216  0.7368  0.0916  0.0109
  788MOL0     O 3887   7.324   3.558   9.272  0.0946  0.1447  0.4804
  788MOL0     C 3888   7.201   3.492   9.304 -0.2509 -0.4600 -0.9405
  788MOL0     C 3889   7.093   3.533   9.241 -0.1566 -0.3735  0.5924
  788MOL0     C 3890   6.970   3.482   9.261 -0.3570  0.0898  0.3624
  788MOL0     C 3891   6.947   3.376   9.348 -0.3598 -0.0543  0.0677
  788MOL0     O 3892   6.824   3.320   9.354  0.2019 -0.3460  0.7325
  788MOL0     C 3893   6.786   3.227   9.463 -0.8222 -0.2696 -0.3096
  788MOL0     C 3894   6.631   3.213   9.485 -0.2386  0.5951  0.4708
  788MOL0     C 3895   6.557   3.340   9.514 -0.2712 -0.2078 -0.4836
  788MOL0     C 3896   6.404   3.322   9.512  0.1671  0.2383 -0.0419
  788MOL0     C 3897   6.334   3.443   9.575 -0.9336 -0.3186  0.2229
  788MOL0     C 3898   6.189   3.439   9.565  0.3162  0.9009  0.2916
  788MOL0     C 3899   6.112   3.547   9.642 -0.2380  0.0970  0.3907
  788MOL0     C 3900   5.968   3.550   9.589 -0.5816  0.4005  0.1939
  788MOL0     N 3901   5.883   3.654   9.636  0.0181 -0.5275 -0.7593
  788MOL0     C 3902   5.748   3.638   9.650 -0.5395 -0.8928  0.1935
  788MOL0     C 3903   5.703   3.753   9.710  0.0094  0.8024 -0.7794
  788MOL0     C 3904   5.564   3.803   9.732 -0.5036  0.6480  0.5994
  788MOL0     C 3905   5.479   3.766   9.619  0.3221 -0.7920 -0.1606
  788MOL0     C 3906   5.332   3.801   9.659  0.6439 -0.3325 -0.7524
  788MOL0     C 3907   5.238   3.794   9.547  0.1773 -0.6938 -0.1069
  788MOL0     O 3908   5.113   3.848   9.588 -0.0430 -0.2056  0.3665
  788MOL0     C 3909   5.063   3.967   9.535 -0.1008  0.3141 -0.0679
  788MOL0     C 3910   4.931   3.985   9.554  0.0266  0.7517  0.6863
  788MOL0     C 3911   4.873   4.102   9.509  0.1930 -0.6423 -1.3703
  788MOL0     C 3912   4.949   4.203   9.453  0.0668 -0.8283 -0.3774
  788MOL0     C 3913   4.876   4.319   9.391 -0.3650 -0.2350 -0.8958
  788MOL0     O 3914   4.754   4.285   9.335  0.3852  0.4683  0.0168
  788MOL0     C 3915   4.664   4.379   9.315  0.2090  0.3357 -0.3862
  788MOL0     C 3916   4.532   4.340   9.350  0.7079  0.4958 -0.1201
  788MOL0     C 3917   4.424   4.417   9.326 -0.0724  1.0185  0.5883
  788MOL0     C 3918   4.435   4.531   9.245  0.5950  0.2583 -0.4311
  788MOL0     O 3919   4.329   4.617   9.215  0.8937  0.3714 -0.8997
  788MOL0     C 3920   4.205   4.600   9.281  0.2008  0.6624  0.0482
  788MOL0     C 3921   4.107   4.713   9.247  0.0590  0.0924 -0.6576
  788MOL0     C 3922   3.963   4.686   9.307  0.0189 -0.0594  0.0509
  788MOL0     C 3923   3.849   4.766   9.244  0.1746  0.0817 -0.0400
  788MOL0     C 3924   3.815   4.733   9.098  0.0368 -0.0931  0.2028
  788MOL0     C 3925   3.692   4.803   9.055  0.5527  0.4628  0.3079
  788MOL0     C 3926   3.639   4.753   8.912 -0.0511  0.0095 -0.5565
  788MOL0     C 3927   3.695   4.828   8.792 -0.0580  0.6571 -0.7592
  788MOL0    Cl 3928   3.662   4.999   8.796  0.3960  0.1782  0.0681
  788MOL0     C 3929   4.564   4.573   9.206 -0.2575 -0.1696 -0.3285
  788MOL0     C 3930   4.678   4.501   9.248  0.0565  0.6270 -0.1062
  788MOL0     O 3931   4.930   4.423   9.387 -0.0343 -0.7944  0.1285
  788MOL0     C 3932   5.082   4.194   9.446  0.1792  0.5979  0.0442
  788MOL0     C 3933   5.141   4.076   9.484 -0.6727  0.3651 -0.2533
  788MOL0     N 3934   5.820   3.828   9.744  0.2882  0.0377 -0.1348
  788MOL0     N 3935   5.927   3.773   9.695 -0.7795  0.5306 -0.2059
  788MOL0     C 3936   7.061   3.326   9.417 -0.0506 -1.3933  0.8389
  788MOL0     C 3937   7.191   3.378   9.391  0.7105  0.0378  0.7595
  788MOL0     C 3938   7.542   3.546   9.184 -1.0442 -0.4464 -0.0594
  788MOL0     C 3939   7.646   3.484   9.110 -0.4211  0.4401  0.4566
  788MOL0     C 3940   7.771   3.550   9.086  0.3096  0.6695 -0.1995
  788MOL0     C 3941   7.781   3.685   9.103  0.1334 -0.3776 -0.1532
  788MOL0     O 3942   7.895   3.763   9.075  0.2668  0.4707  0.6548
  788MOL0     C 3943   8.006   3.694   9.003  0.3138  0.3563 -0.0554
  788MOL0     C 3944   8.099   3.793   8.932  0.2228 -0.4308 -0.4696
  788MOL0     C 3945   8.118   3.915   9.025 -0.9572 -0.5568  0.4611
  788MOL0     C 3946   8.207   3.897   9.146  0.5818  0.4422  0.4489
  788MOL0     C 3947   8.338   3.887   9.085  0.7761  0.7778 -0.1981
  788MOL0     C 3948   8.447   3.884   9.031 -0.6030 -0.2754  0.7626
  788MOL0     C 3949   7.674   3.751   9.165  0.3623  0.5793  0.7615
  788MOL0     C 3950   7.554   3.689   9.198 -0.1549 -0.3479 -0.7241
  788MOL0     H 3951   7.094   3.613   9.168 -2.8423 -3.4991 -3.3108
  788MOL0     H 3952   6.886   3.522   9.204  0.0815 -1.2317 -1.2833
  788MOL0     H 3953   6.825   3.278   9.552 -1.0321  1.0711 -0.9505
  788MOL0     H 3954   6.832   3.129   9.446  1.8148  0.0946  3.3866
  788MOL0     H 3955   6.612   3.134   9.558 -0.8576 -0.3285 -0.6503
  788MOL0     H 3956   6.601   3.173   9.388  3.1961  1.3042 -1.0545
  788MOL0     H 3957   6.576   3.417   9.439 -0.8801  0.0860 -0.3465
  788MOL0     H 3958   6.595   3.376   9.610 -0.3943  1.8630 -1.1769
  788MOL0     H 3959   6.368   3.303   9.410  1.3316  0.4135 -0.5010
  788MOL0     H 3960   6.376   3.233   9.570 -2.1822  1.0583  0.1818
  788MOL0     H 3961   6.364   3.533   9.521  1.1399 -0.6095  0.8175
  788MOL0     H 3962   6.364   3.442   9.680  0.8114 -1.3529 -0.2392
  788MOL0     H 3963   6.150   3.339   9.588  0.0443  0.6718 -1.1177
  788MOL0     H 3964   6.170   3.457   9.459  3.2366  0.9961 -0.2937
  788MOL0     H 3965   6.099   3.516   9.746  3.3757  1.1585  1.3199
  788MOL0     H 3966   6.163   3.644   9.636  0.8345 -0.1296  3.6438
  788MOL0     H 3967   5.922   3.452   9.602  1.1675 -1.2223 -3.8988
  788MOL0     H 3968   5.972   3.568   9.481 -1.5740 -0.6330 -0.0265
  788MOL0     H 3969   5.688   3.557   9.608 -1.7134  1.7584 -3.8138
  788MOL0     H 3970   5.564   3.912   9.741  3.3148  0.7685  1.0946
  788MOL0     H 3971   5.522   3.757   9.822 -0.1060  0.1708  0.5429
  788MOL0     H 3972   5.489   3.658   9.608  1.0680 -0.9543  1.6836
  788MOL0     H 3973   5.508   3.822   9.530 -1.4716  0.0114 -0.2670
  788MOL0     H 3974   5.300   3.733   9.738 -0.5900  0.6446 -0.3907
  788MOL0     H 3975   5.333   3.903   9.696  0.9448 -0.0143 -1.6118
  788MOL0     H 3976   5.221   3.691   9.514  3.2046 -0.3808 -3.2710
  788MOL0     H 3977   5.273   3.839   9.453  1.3306 -0.5017  0.3987
  788MOL0     H 3978   4.870   3.914   9.609 -2.1780  0.5608 -1.8213
  788MOL0     H 3979   4.765   4.105   9.521  0.4944 -0.9187  2.2994
  788MOL0     H 3980   4.525   4.242   9.396 -0.6464  0.0332 -1.2623
  788MOL0     H 3981   4.329   4.369   9.347  0.1612  0.9934  1.6631
  788MOL0     H 3982   4.230   4.594   9.387 -1.2647 -2.2814  0.3310
  788MOL0     H 3983   4.166   4.502   9.251  3.2245 -1.1367  1.5003
  788MOL0     H 3984   4.096   4.722   9.138 -4.1448  3.5644 -0.2412
  788MOL0     H 3985   4.147   4.807   9.285 -1.4288  0.6583 -0.4420
  788MOL0     H 3986   3.972   4.687   9.416 -0.1910 -1.9425  0.1220
  788MOL0     H 3987   3.930   4.585   9.283 -1.7805  0.7185 -0.9620
  788MOL0     H 3988   3.763   4.739   9.306  0.5238 -0.5839  0.1716
  788MOL0     H 3989   3.859   4.875   9.254 -2.6003  0.5704 -1.8091
  788MOL0     H 3990   3.799   4.625   9.088  0.0622 -0.1733  0.9705
  788MOL0     H 3991   3.902   4.759   9.037  0.5474  0.4486  1.1501
  788MOL0     H 3992   3.708   4.911   9.048 -0.8093  0.5723 -3.7814
  788MOL0     H 3993   3.622   4.785   9.137  2.9415 -3.1114  1.8599
  788MOL0     H 3994   3.651   4.645   8.902  1.8144  0.0227  0.8884
  788MOL0     H 3995   3.530   4.762   8.913 -0.3728 -2.2183 -3.3396
  788MOL0     H 3996   3.651   4.777   8.705 -1.9499 -0.4653  0.7897
  788MOL0     H 3997   3.801   4.804   8.776 -0.6700 -0.6865 -3.6701
  788MOL0     H 3998   4.570   4.656   9.137  1.2637 -1.1160 -1.3969
  788MOL0     H 3999   4.777   4.532   9.217 -0.7078  1.9826 -1.3026
  788MOL0     H 4000   5.145   4.271   9.403  0.9955  0.6930  1.3600
  788MOL0     H 4001   5.247   4.065   9.463 -0.0957  0.6676  2.1465
  788MOL0     H 4002   7.046   3.237   9.477 -3.6125 -0.8068  1.0372
  788MOL0     H 4003   7.286   3.344   9.432  0.1316 -1.4746  0.8890
  788MOL0     H 4004   7.642   3.376   9.098  0.8842  0.6035 -2.4590
  788MOL0     H 4005   7.851   3.489   9.043 -0.4062 -1.4597  1.3660
  788MOL0     H 4006   7.981   3.612   8.935 -0.6831  0.2450  0.4409
  788MOL0     H 4007   8.067   3.647   9.081  1.9791  2.3621 -0.0599
  788MOL0     H 4008   8.190   3.738   8.906  0.2198 -0.3102 -0.7325
  788MOL0     H 4009   8.054   3.829   8.840 -1.4835  0.1072  0.5301
  788MOL0     H 4010   8.021   3.958   9.053 -0.9790 -1.1532  1.3639
  788MOL0     H 4011   8.165   3.991   8.963  0.6195 -1.2142  0.7992
  788MOL0     H 4012   8.207   3.990   9.204  3.1594  1.6473 -1.2506
  788MOL0     H 4013   8.178   3.818   9.216  1.2599  0.8364  1.1905
  788MOL0     H 4014   8.543   3.870   8.986  0.7665 -0.9028  3.6455
  788MOL0     H 4015   7.678   3.857   9.185  0.2414  1.3009 -2.4562
  788MOL0     H 4016   7.482   3.755   9.244  0.9027 -1.6559  3.2056
  789MOL0     O 4017   7.542   9.905   6.671  1.0515 -0.0681 -0.3353
  789MOL0     C 4018   7.627   9.985   6.705 -0.0930 -0.1269 -0.3928
  789MOL0     O 4019   7.611  10.100   6.777  0.1801  0.1892  0.5311
  789MOL0     C 4020   7.481  10.133   6.825 -0.8430  0.6143  0.7647
  789MOL0     C 4021   7.395  10.040   6.885 -0.8966 -0.5018  0.9143
  789MOL0     C 4022   7.268  10.076   6.914  0.6638 -0.5496  0.5414
  789MOL0     C 4023   7.222  10.212   6.916 -0.3294  0.6757 -0.1357
  789MOL0     O 4024   7.108  10.257   6.971  0.2972  0.4392  0.6399
  789MOL0     C 4025   7.021  10.162   7.036 -0.5329  0.4709  0.3126
  789MOL0     C 4026   6.920  10.223   7.125 -0.1987 -0.7890 -0.1176
  789MOL0     C 4027   6.828  10.320   7.055 -0.4075  0.2039  0.0248
  789MOL0     C 4028   6.732  10.381   7.168  0.5287  0.2307  0.0472
  789MOL0     C 4029   6.628  10.487   7.102 -0.8142  0.0925 -1.1857
  789MOL0     C 4030   6.537  10.428   6.999  0.7430  0.2943 -0.4734
  789MOL0     C 4031   6.444  10.539   6.949 -0.1138  0.1034  0.0005
  789MOL0     C 4032   6.329  10.477   6.864 -0.8528 -0.3950  0.3130
  789MOL0     N 4033   6.200  10.463   6.939 -0.3940 -0.5249  0.2231
  789MOL0     C 4034   6.161  10.344   6.980 -0.4739 -0.5256 -0.2848
  789MOL0     C 4035   6.035  10.345   7.004  0.3750  0.1790  0.7269
  789MOL0     C 4036   5.953  10.229   7.061  0.4136  0.2044 -0.5077
  789MOL0     C 4037   5.798  10.250   7.063 -0.0833  0.5580  0.7978
  789MOL0     C 4038   5.735  10.246   6.923 -0.4987 -0.5424 -0.5829
  789MOL0     C 4039   5.585  10.277   6.944 -0.1081 -1.1677 -0.1128
  789MOL0     O 4040   5.504  10.233   6.833  0.5918 -1.2717  0.5962
  789MOL0     C 4041   5.367  10.231   6.860 -0.1893 -0.5966 -0.0725
  789MOL0     C 4042   5.290  10.173   6.755 -0.0449  0.2246  0.1083
  789MOL0     C 4043   5.152  10.170   6.766  0.1876 -0.8381  0.0454
  789MOL0     C 4044   5.083  10.221   6.880 -0.4775  0.4264  1.1588
  789MOL0     C 4045   4.935  10.213   6.882 -0.0592 -0.3540  0.3074
  789MOL0     O 4046   4.875  10.257   6.991 -0.0842 -0.0885  0.1992
  789MOL0     C 4047   4.738  10.232   7.002  0.1886  0.2938  0.3657
  789MOL0     C 4048   4.637  10.284   6.917  1.0542  0.6990  0.6398
  789MOL0     C 4049   4.506  10.256   6.940  0.7515 -0.1881 -0.3024
  789MOL0     C 4050   4.467  10.173   7.046  0.4485  0.3260  0.4435
  789MOL0     O 4051   4.328  10.143   7.055  0.2806 -0.0901 -0.6403
  789MOL0     C 4052   4.286  10.049   7.154 -0.0286  0.2388  0.2478
  789MOL0     C 4053   4.145  10.000   7.138 -0.1441 -1.2185  0.0354
  789MOL0     C 4054   4.049  10.121   7.112 -0.1850  0.8827  0.8568
  789MOL0     C 4055   3.917  10.091   7.040  0.4226  0.1542 -0.0179
  789MOL0     C 4056   3.846   9.957   7.078  0.5846 -0.0831  0.0952
  789MOL0     C 4057   3.689   9.951   7.040 -0.3510 -0.7218 -0.2774
  789MOL0     C 4058   3.611  10.071   7.103  0.1763 -0.4757  1.3752
  789MOL0     C 4059   3.607  10.059   7.252  1.5139  0.0528 -0.7368
  789MOL0    Cl 4060   3.467  10.140   7.317 -0.2238 -0.1149 -0.2827
  789MOL0     C 4061   4.563  10.126   7.137  1.0367 -0.6286  0.5234
  789MOL0     C 4062   4.696  10.159   7.116 -0.5064  0.6814 -0.4388
  789MOL0     O 4063   4.879  10.158   6.782 -0.4049  0.5550 -1.0059
  789MOL0     C 4064   5.158  10.282   6.980  0.1275  0.6243 -0.8045
  789MOL0     C 4065   5.299  10.287   6.971  0.0215 -0.4978 -0.7165
  789MOL0     N 4066   5.985  10.468   6.970 -0.3890 -0.5442  1.2179
  789MOL0     N 4067   6.084  10.536   6.931 -0.0128  0.1908 -0.0592
  789MOL0     C 4068   7.315  10.305   6.869 -0.3732  0.3945  0.2599
  789MOL0     C 4069   7.432  10.268   6.810 -0.0276 -0.2244 -0.1880
  789MOL0     C 4070   7.770   9.959   6.687  0.1435 -0.5727  0.1476
  789MOL0     C 4071   7.872  10.038   6.742 -0.0984 -0.8994  0.2500
  789MOL0     C 4072   8.007  10.015   6.711 -0.2452 -0.3484 -0.8990
  789MOL0     C 4073   8.043   9.896   6.655 -0.7999  0.1525  0.4692
  789MOL0     O 4074   8.177   9.851   6.633  0.3445 -0.4232 -0.1766
  789MOL0     C 4075   8.279   9.916   6.722 -0.4543  0.2895  0.2160
  789MOL0     C 4076   8.419   9.854   6.713 -0.0871 -0.6846  0.3902
  789MOL0     C 4077   8.512   9.941   6.800  0.6915  0.4143  0.8591
  789MOL0     C 4078   8.645   9.874   6.816  0.2061  0.5016 -0.4840
  789MOL0     C 4079   8.732   9.936   6.914  0.1456 -0.5509 -0.0175
  789MOL0     C 4080   8.813   9.996   6.981  0.0991 -0.2159 -0.3966
  789MOL0     C 4081   7.941   9.816   6.592 -0.8793 -0.0221 -0.2555
  789MOL0     C 4082   7.809   9.843   6.612  0.0458  0.3414  0.0986
  789MOL0     H 4083   7.417   9.934   6.888  1.9196  0.0314  1.4153
  789MOL0     H 4084   7.210   9.992   6.953  0.8620 -0.2368  1.5429
  789MOL0     H 4085   7.080  10.108   7.110  0.1749 -0.4286 -0.8736
  789MOL0     H 4086   6.980  10.091   6.964 -0.7808  1.8319 -0.9295
  789MOL0     H 4087   6.968  10.283   7.203 -0.1519 -0.5166 -0.3550
  789MOL0     H 4088   6.865  10.142   7.172  2.3790 -0.7740  3.3013
  789MOL0     H 4089   6.780  10.269   6.971  1.8280 -2.6781  0.3450
  789MOL0     H 4090   6.897  10.396   7.017  0.1156 -1.3654 -2.3631
  789MOL0     H 4091   6.667  10.304   7.209  0.3691 -1.3433 -2.8501
  789MOL0     H 4092   6.797  10.429   7.241 -1.3200  1.5792  0.8710
  789MOL0     H 4093   6.693  10.567   7.066 -0.4205 -0.0368 -0.7689
  789MOL0     H 4094   6.565  10.527   7.182  0.7333 -0.1316  0.1964
  789MOL0     H 4095   6.485  10.339   7.036  2.2664 -1.0799 -1.4734
  789MOL0     H 4096   6.588  10.414   6.903  0.2036  1.1275 -0.8962
  789MOL0     H 4097   6.404  10.596   7.033 -0.9155 -1.0103  0.4071
  789MOL0     H 4098   6.507  10.602   6.886  0.6842  0.0710  0.7517
  789MOL0     H 4099   6.356  10.377   6.830  0.6029 -0.2814  1.0337
  789MOL0     H 4100   6.324  10.548   6.781  2.3344 -0.6928 -0.2633
  789MOL0     H 4101   6.231  10.264   6.999 -0.8913 -0.3894  2.0791
  789MOL0     H 4102   5.991  10.207   7.161 -1.4764  0.3066  0.2764
  789MOL0     H 4103   5.973  10.141   6.999 -3.1362  0.4388 -2.1961
  789MOL0     H 4104   5.773  10.344   7.112  0.1531  0.7826  0.4928
  789MOL0     H 4105   5.754  10.172   7.126 -1.9561  2.3675  1.8595
  789MOL0     H 4106   5.784  10.324   6.864 -0.2042  1.2063  1.8088
  789MOL0     H 4107   5.755  10.144   6.890  0.7877 -0.3629 -0.4190
  789MOL0     H 4108   5.572  10.383   6.971  1.8047 -1.4061  2.0627
  789MOL0     H 4109   5.554  10.214   7.028  1.9334 -0.4130  1.3011
  789MOL0     H 4110   5.343  10.131   6.670  0.1854 -0.4700  0.5880
  789MOL0     H 4111   5.110  10.136   6.672  1.3634 -0.8566 -0.4954
  789MOL0     H 4112   4.666  10.353   6.838  0.4128 -0.0549 -0.2829
  789MOL0     H 4113   4.438  10.312   6.876  0.7188  0.9269  0.6699
  789MOL0     H 4114   4.302  10.101   7.249 -1.3344  3.2541 -1.0555
  789MOL0     H 4115   4.344   9.957   7.144 -2.2843 -1.1689 -0.7050
  789MOL0     H 4116   4.109   9.935   7.218 -2.5892 -1.3899 -1.0872
  789MOL0     H 4117   4.136   9.931   7.053 -4.7380  1.9358 -2.4599
  789MOL0     H 4118   4.106  10.201   7.064 -0.1961 -1.0678 -2.7810
  789MOL0     H 4119   4.013  10.149   7.211  2.8990  0.8275  2.0959
  789MOL0     H 4120   3.850  10.176   7.057 -0.4045 -0.1678 -1.5026
  789MOL0     H 4121   3.940  10.096   6.934 -0.9061  2.6946 -0.2661
  789MOL0     H 4122   3.866   9.936   7.184  1.1928 -2.3016 -0.4127
  789MOL0     H 4123   3.890   9.868   7.031  0.9691  0.3700 -0.4159
  789MOL0     H 4124   3.638   9.861   7.075 -2.7633  1.0808  1.1910
  789MOL0     H 4125   3.664   9.958   6.934 -2.5026  2.1757  0.2871
  789MOL0     H 4126   3.664  10.163   7.074 -0.9007  0.2301  1.5849
  789MOL0     H 4127   3.506  10.068   7.072 -0.4287  3.7400  2.3870
  789MOL0     H 4128   3.697  10.111   7.286  0.1123  0.1912  3.1912
  789MOL0     H 4129   3.616   9.959   7.294  3.0420  1.3057  2.1820
  789MOL0     H 4130   4.534  10.068   7.223  1.6731 -0.3314  0.9449
  789MOL0     H 4131   4.777  10.145   7.187 -1.5792  0.4773  0.7836
  789MOL0     H 4132   5.101  10.332   7.057  2.6831  2.8047 -0.2054
  789MOL0     H 4133   5.349  10.331   7.056 -0.1115 -0.5321 -0.6210
  789MOL0     H 4134   7.291  10.410   6.881  4.0798  1.6268 -0.0466
  789MOL0     H 4135   7.490  10.346   6.762 -1.1954  1.2030  0.6305
  789MOL0     H 4136   7.860  10.141   6.774  2.0902  0.5453 -2.9813
  789MOL0     H 4137   8.081  10.080   6.756 -0.2654 -1.3590  0.6802
  789MOL0     H 4138   8.256   9.906   6.828  2.5365 -1.5580  0.7841
  789MOL0     H 4139   8.289  10.021   6.693 -1.0801  1.1565  2.8727
  789MOL0     H 4140   8.405   9.750   6.745 -4.5324 -0.7293 -0.9785
  789MOL0     H 4141   8.453   9.860   6.609 -4.1863  1.1159 -1.0627
  789MOL0     H 4142   8.467   9.960   6.898  2.6092  0.2212  1.8227
  789MOL0     H 4143   8.530  10.034   6.745  2.0841 -0.5891 -0.4670
  789MOL0     H 4144   8.631   9.770   6.847 -0.3626  0.1886 -1.7493
  789MOL0     H 4145   8.699   9.866   6.722  2.6913 -0.3931  0.9206
  789MOL0     H 4146   8.877  10.032   7.060  2.5898 -1.6420 -1.6493
  789MOL0     H 4147   7.969   9.722   6.547  1.8494  0.4397  0.2934
  789MOL0     H 4148   7.748   9.765   6.569 -0.4760  0.2615  0.9605
  790MOL0     O 4149   2.044   0.656   8.487 -0.2503 -0.1027 -0.2594
  790MOL0     C 4150   2.042   0.555   8.404  0.5512 -0.0154  0.1014
  790MOL0     O 4151   1.934   0.475   8.375 -1.2516  0.1429  0.5592
  790MOL0     C 4152   1.825   0.472   8.454  0.4262 -0.6350 -0.1503
  790MOL0     C 4153   1.718   0.553   8.418  0.3175 -0.3188 -0.2773
  790MOL0     C 4154   1.599   0.556   8.496  0.7814  0.9768 -0.5933
  790MOL0     C 4155   1.590   0.473   8.608 -0.4290  1.3593  0.3415
  790MOL0     O 4156   1.486   0.492   8.688 -1.0348  0.5705 -0.1719
  790MOL0     C 4157   1.420   0.363   8.684 -0.1221 -1.1411 -0.4000
  790MOL0     C 4158   1.302   0.365   8.782 -0.3815 -0.3210 -0.2237
  790MOL0     C 4159   1.185   0.459   8.730 -0.2005  1.2177 -0.0200
  790MOL0     C 4160   1.068   0.452   8.837 -0.0310  0.9378 -0.2088
  790MOL0     C 4161   0.942   0.505   8.770  0.7923 -0.1297  0.2753
  790MOL0     C 4162   0.841   0.483   8.871  0.1253 -0.1924  0.1241
  790MOL0     C 4163   0.722   0.588   8.865  0.5884  0.0756  0.1131
  790MOL0     C 4164   0.646   0.564   8.729  0.1584 -0.3124 -0.2565
  790MOL0     N 4165   0.512   0.626   8.721 -0.3078  0.2564 -0.8440
  790MOL0     C 4166   0.479   0.744   8.786  0.4975  0.2458  0.5312
  790MOL0     C 4167   0.343   0.752   8.764 -0.2905 -0.0794  1.0134
  790MOL0     C 4168   0.278   0.880   8.800 -0.8652  0.0606 -0.6252
  790MOL0     C 4169   0.131   0.878   8.812 -0.0464 -0.2225  0.1326
  790MOL0     C 4170   0.061   0.911   8.673  0.5295 -0.0345  0.4072
  790MOL0     C 4171  -0.093   0.866   8.661 -0.0629 -0.6266  0.7688
  790MOL0     O 4172  -0.171   0.962   8.740  0.6345 -0.2587  0.1919
  790MOL0     C 4173  -0.291   0.976   8.671 -0.0604 -0.6134 -0.1570
  790MOL0     C 4174  -0.303   1.077   8.578 -0.2582 -0.7119 -0.1023
  790MOL0     C 4175  -0.429   1.091   8.499 -0.7619 -0.1439  0.6113
  790MOL0     C 4176  -0.540   1.014   8.530  0.0625 -1.2780 -0.1848
  790MOL0     C 4177  -0.669   1.040   8.469  0.2508 -0.3514 -0.5104
  790MOL0     O 4178  -0.755   0.930   8.459 -0.1192 -0.0562 -0.4733
  790MOL0     C 4179  -0.879   0.933   8.395  0.1721 -0.8114 -0.3997
  790MOL0     C 4180  -0.902   1.000   8.270 -0.8962  0.4161 -1.1088
  790MOL0     C 4181  -1.015   0.982   8.201  0.2099  0.3392 -0.2427
  790MOL0     C 4182  -1.116   0.895   8.246 -0.6256  0.1691  0.4024
  790MOL0     O 4183  -1.244   0.891   8.197 -0.3534 -0.0245  0.1271
  790MOL0     C 4184  -1.262   0.944   8.067  0.8802  0.9305  0.1205
  790MOL0     C 4185  -1.401   0.913   8.017  0.4115  0.3826 -0.0127
  790MOL0     C 4186  -1.416   0.768   7.971  0.4228 -0.2857 -0.0588
  790MOL0     C 4187  -1.551   0.733   7.904  0.7595  0.0069  0.8171
  790MOL0     C 4188  -1.555   0.582   7.900 -0.5153  0.0035  1.2214
  790MOL0     C 4189  -1.678   0.527   7.834 -0.7518  0.7697 -0.0290
  790MOL0     C 4190  -1.707   0.573   7.697 -0.6895 -0.3327  0.3115
  790MOL0     C 4191  -1.795   0.490   7.613  0.1822  0.1146  0.4930
  790MOL0    Cl 4192  -1.709   0.337   7.598  0.0331 -0.1009 -0.0070
  790MOL0     C 4193  -1.093   0.826   8.365  0.1448 -0.3993  0.1097
  790MOL0     C 4194  -0.983   0.851   8.441 -0.2133  0.3137 -0.7473
  790MOL0     O 4195  -0.699   1.152   8.438  0.3644 -0.9241 -0.0583
  790MOL0     C 4196  -0.522   0.909   8.618  0.5886  0.1598  0.4941
  790MOL0     C 4197  -0.403   0.893   8.691 -0.1232 -0.0307 -0.6722
  790MOL0     N 4198   0.296   0.640   8.703  1.0551  0.0619  0.6653
  790MOL0     N 4199   0.401   0.566   8.672  0.7438  0.1201  0.0573
  790MOL0     C 4200   1.701   0.405   8.648  0.5492  1.4131 -0.2223
  790MOL0     C 4201   1.816   0.401   8.577  0.1759 -0.0463  0.0311
  790MOL0     C 4202   2.174   0.531   8.328  0.3585 -0.3124 -0.2759
  790MOL0     C 4203   2.284   0.623   8.338  0.1109  0.0546 -0.3476
  790MOL0     C 4204   2.411   0.595   8.292 -0.0338 -0.9170  0.3252
  790MOL0     C 4205   2.441   0.470   8.228  0.4434 -0.6354  0.2720
  790MOL0     O 4206   2.573   0.450   8.206  0.3145 -0.3231 -0.6376
  790MOL0     C 4207   2.615   0.346   8.124 -0.4118  0.0972 -0.1472
  790MOL0     C 4208   2.612   0.207   8.197  0.0427 -0.6286 -0.0671
  790MOL0     C 4209   2.736   0.132   8.163  0.2239  0.6827 -0.8663
  790MOL0     C 4210   2.722  -0.002   8.234 -0.6124  0.0389 -0.1018
  790MOL0     C 4211   2.826  -0.094   8.190 -1.0348 -0.4516 -0.0376
  790MOL0     C 4212   2.901  -0.165   8.139 -1.1649 -0.0035  0.5169
  790MOL0     C 4213   2.332   0.381   8.214  0.0176  0.3913  0.2017
  790MOL0     C 4214   2.201   0.414   8.255  0.4902 -0.4906 -0.4528
  790MOL0     H 4215   1.722   0.624   8.336 -0.9352  2.0503  1.6003
  790MOL0     H 4216   1.518   0.621   8.465 -1.1673  1.0664  3.8995
  790MOL0     H 4217   1.480   0.274   8.706  0.4522 -0.7196 -0.2212
  790MOL0     H 4218   1.378   0.349   8.584 -0.0313  0.4687 -0.6862
  790MOL0     H 4219   1.340   0.412   8.873  0.1033  0.8912 -1.0147
  790MOL0     H 4220   1.269   0.262   8.792  0.4694 -0.4534  1.6405
  790MOL0     H 4221   1.147   0.413   8.638  2.5770 -0.0934 -0.6195
  790MOL0     H 4222   1.223   0.559   8.707  1.2106  0.9542  1.0141
  790MOL0     H 4223   1.054   0.349   8.870 -0.2148  1.6745  2.1385
  790MOL0     H 4224   1.092   0.515   8.922 -0.9847  1.1291 -0.0696
  790MOL0     H 4225   0.916   0.442   8.685 -2.3301 -2.0191  2.4381
  790MOL0     H 4226   0.959   0.609   8.740  3.9865 -0.1537  1.5725
  790MOL0     H 4227   0.884   0.484   8.971  0.1643  0.4816  0.1048
  790MOL0     H 4228   0.802   0.381   8.858 -0.6436  0.0542  0.4391
  790MOL0     H 4229   0.656   0.580   8.952 -0.3946 -2.6976 -0.7705
  790MOL0     H 4230   0.755   0.692   8.864 -1.0323  0.6284  0.1571
  790MOL0     H 4231   0.629   0.457   8.713 -2.1332  0.3334 -2.7904
  790MOL0     H 4232   0.710   0.600   8.649  0.9671  1.7191  1.2105
  790MOL0     H 4233   0.542   0.814   8.841  0.4818  0.1465  0.6754
  790MOL0     H 4234   0.319   0.956   8.732  1.2848 -0.2512  0.2591
  790MOL0     H 4235   0.313   0.906   8.900  0.7509 -0.4273 -1.0354
  790MOL0     H 4236   0.087   0.956   8.876 -3.0246  0.9327 -2.9849
  790MOL0     H 4237   0.094   0.784   8.855 -1.0372  0.1114  0.0310
  790MOL0     H 4238   0.067   1.019   8.661 -2.3745  0.4036  1.9755
  790MOL0     H 4239   0.115   0.858   8.594 -1.2189 -2.3028  0.6203
  790MOL0     H 4240  -0.100   0.766   8.706  0.6369 -0.4217  1.3507
  790MOL0     H 4241  -0.121   0.869   8.556  1.0540  3.3001  0.4413
  790MOL0     H 4242  -0.223   1.147   8.558 -2.3931  1.8614 -0.3268
  790MOL0     H 4243  -0.434   1.172   8.427 -1.9620 -0.9558 -0.2557
  790MOL0     H 4244  -0.816   1.060   8.239 -0.5257  0.1086 -0.6909
  790MOL0     H 4245  -1.022   1.030   8.104 -2.0657 -1.8568 -1.2842
  790MOL0     H 4246  -1.186   0.902   8.000 -0.2026 -2.8460  1.0085
  790MOL0     H 4247  -1.253   1.053   8.072 -0.5095  1.0303  1.0021
  790MOL0     H 4248  -1.435   0.978   7.936 -1.1970  1.9134  1.7804
  790MOL0     H 4249  -1.467   0.928   8.103  2.0635  0.2491  1.3266
  790MOL0     H 4250  -1.381   0.710   8.056  1.2069 -1.6077 -1.2294
  790MOL0     H 4251  -1.338   0.761   7.894  0.5908  2.7762 -0.3082
  790MOL0     H 4252  -1.642   0.768   7.953 -0.5541 -0.8169 -0.9211
  790MOL0     H 4253  -1.559   0.772   7.802  1.3693  0.4915  0.9506
  790MOL0     H 4254  -1.559   0.546   8.003 -0.8090 -3.7642  0.0293
  790MOL0     H 4255  -1.469   0.540   7.846 -2.5209  0.0170 -2.2525
  790MOL0     H 4256  -1.775   0.539   7.882 -0.0786 -1.4369  2.0699
  790MOL0     H 4257  -1.663   0.419   7.818 -1.6908  0.5434  0.5349
  790MOL0     H 4258  -1.759   0.669   7.708 -1.5336 -0.7378  0.0010
  790MOL0     H 4259  -1.615   0.596   7.643  0.4937 -2.3142  1.3646
  790MOL0     H 4260  -1.799   0.529   7.511 -0.1042 -0.4990  0.2628
  790MOL0     H 4261  -1.897   0.478   7.648 -0.2098 -0.0526 -0.6600
  790MOL0     H 4262  -1.168   0.761   8.410 -1.0796  0.7814 -0.1548
  790MOL0     H 4263  -0.962   0.804   8.537  0.0023 -1.0379 -1.4290
  790MOL0     H 4264  -0.601   0.835   8.622  1.4712 -0.9517 -1.2853
  790MOL0     H 4265  -0.394   0.803   8.751  0.6866 -2.3089 -3.9147
  790MOL0     H 4266   1.694   0.346   8.738 -1.5647  0.9567 -0.6229
  790MOL0     H 4267   1.905   0.342   8.594 -0.7588 -1.2880  0.7471
  790MOL0     H 4268   2.285   0.711   8.401 -2.1057  0.6910 -1.0833
  790MOL0     H 4269   2.495   0.660   8.313 -0.6446 -0.0375  0.0682
  790MOL0     H 4270   2.714   0.372   8.087  0.7323  0.6882  2.9905
  790MOL0     H 4271   2.551   0.353   8.035 -1.3668  1.9401  0.6262
  790MOL0     H 4272   2.605   0.228   8.304  0.2011 -0.2085 -0.1357
  790MOL0     H 4273   2.518   0.158   8.167  0.3154 -1.7666  0.8768
  790MOL0     H 4274   2.825   0.190   8.189  1.6408 -0.6381 -2.5320
  790MOL0     H 4275   2.738   0.118   8.054  0.4382  1.4110 -0.9599
  790MOL0     H 4276   2.735   0.005   8.343 -1.8475 -1.5420  0.1858
  790MOL0     H 4277   2.622  -0.047   8.225 -0.6965 -0.6842  3.1325
  790MOL0     H 4278   2.965  -0.232   8.084  0.0532  1.1513  0.4780
  790MOL0     H 4279   2.331   0.283   8.167 -0.2163 -0.1278  1.2439
  790MOL0     H 4280   2.125   0.338   8.240 -1.0253  1.2076 -1.7309
  791MOL0     O 4281   3.996   8.819   2.449 -0.4797 -0.0183  0.1584
  791MOL0     C 4282   4.057   8.812   2.344 -0.6401 -0.1440  0.1700
  791MOL0     O 4283   4.003   8.790   2.228  0.6656  0.2262  0.9238
  791MOL0     C 4284   3.869   8.776   2.201 -0.3247  0.0940  0.9990
  791MOL0     C 4285   3.851   8.713   2.074 -0.2253 -0.3338 -1.0895
  791MOL0     C 4286   3.713   8.698   2.027 -0.3769  0.7474  0.1847
  791MOL0     C 4287   3.602   8.738   2.100 -0.2058  0.3481 -0.4749
  791MOL0     O 4288   3.482   8.711   2.052 -0.0177 -0.1135  0.0299
  791MOL0     C 4289   3.365   8.772   2.107  0.6776  0.2396  0.1221
  791MOL0     C 4290   3.247   8.750   2.012 -0.8667 -0.2004 -0.3201
  791MOL0     C 4291   3.246   8.837   1.883 -0.2869 -0.1412 -0.9921
  791MOL0     C 4292   3.121   8.800   1.800 -1.0265  0.2864  0.8975
  791MOL0     C 4293   3.119   8.861   1.657 -0.6664 -0.0944 -0.3428
  791MOL0     C 4294   3.093   9.016   1.674 -1.1605 -0.4843  0.0245
  791MOL0     C 4295   3.027   9.089   1.559 -1.5534  0.2377  0.1233
  791MOL0     C 4296   3.003   9.239   1.584  0.0547 -0.1521 -0.3007
  791MOL0     N 4297   2.893   9.268   1.681 -0.1287 -0.3772 -0.3346
  791MOL0     C 4298   2.765   9.311   1.652 -0.0662 -0.5628  0.3824
  791MOL0     C 4299   2.712   9.319   1.777  0.5997 -1.3721 -0.2394
  791MOL0     C 4300   2.559   9.354   1.802 -0.6190 -0.0839  0.3964
  791MOL0     C 4301   2.533   9.491   1.871  0.1369 -1.1546 -0.2815
  791MOL0     C 4302   2.569   9.480   2.014  0.0522 -0.4342 -0.5788
  791MOL0     C 4303   2.570   9.624   2.069  0.3480 -0.3713  0.3854
  791MOL0     O 4304   2.440   9.674   2.052 -0.1290 -0.8320  0.0164
  791MOL0     C 4305   2.330   9.634   2.125  0.2824 -0.6232 -0.8307
  791MOL0     C 4306   2.346   9.594   2.258  0.0046 -0.1068 -0.0858
  791MOL0     C 4307   2.228   9.578   2.333 -0.1198 -0.4462  0.3727
  791MOL0     C 4308   2.102   9.566   2.264 -0.2339  0.4729 -0.1405
  791MOL0     C 4309   1.979   9.523   2.343 -0.3603 -1.2907  0.7803
  791MOL0     O 4310   1.998   9.486   2.471 -0.3088  0.5165  0.0705
  791MOL0     C 4311   1.883   9.461   2.539  0.1563 -0.1376  0.3574
  791MOL0     C 4312   1.840   9.324   2.555 -0.0812 -0.7348  0.3713
  791MOL0     C 4313   1.732   9.298   2.644  0.2386  0.9152  0.5949
  791MOL0     C 4314   1.677   9.399   2.718  0.1768 -0.3050  0.1885
  791MOL0     O 4315   1.594   9.383   2.823 -0.1934 -0.0542 -0.6023
  791MOL0     C 4316   1.525   9.256   2.855  0.7942  0.0759  0.2232
  791MOL0     C 4317   1.432   9.274   2.968  0.5442  0.2082  0.5357
  791MOL0     C 4318   1.356   9.144   3.002 -0.1648  0.1334 -0.1231
  791MOL0     C 4319   1.287   9.164   3.135 -1.3115  0.2667 -0.5900
  791MOL0     C 4320   1.206   9.039   3.177 -0.1556  0.0621  1.0569
  791MOL0     C 4321   1.081   9.012   3.096 -0.1502  0.1394  0.1471
  791MOL0     C 4322   1.031   8.867   3.104 -0.1676 -0.1045  0.5761
  791MOL0     C 4323   0.920   8.833   3.002  0.1238 -0.3111 -0.0151
  791MOL0    Cl 4324   0.981   8.879   2.830 -0.0464  0.0200 -0.2713
  791MOL0     C 4325   1.721   9.533   2.702  0.4519 -0.2917 -0.9054
  791MOL0     C 4326   1.826   9.563   2.615 -0.2778 -0.4294  0.4750
  791MOL0     O 4327   1.868   9.536   2.285  0.0419 -0.2702  0.4110
  791MOL0     C 4328   2.096   9.586   2.126  0.2383 -0.7344  0.0758
  791MOL0     C 4329   2.212   9.627   2.055 -0.6859 -0.3777  0.0640
  791MOL0     N 4330   2.796   9.269   1.874  0.4413 -0.7210  0.2093
  791MOL0     N 4331   2.904   9.240   1.813  0.3582  0.0238  0.7157
  791MOL0     C 4332   3.623   8.795   2.226  0.3012  0.5561  0.1016
  791MOL0     C 4333   3.748   8.822   2.271  0.5732 -0.3632  0.0282
  791MOL0     C 4334   4.208   8.834   2.351 -0.4624  0.1994  0.6710
  791MOL0     C 4335   4.283   8.765   2.262 -0.4931 -1.2439 -0.1855
  791MOL0     C 4336   4.423   8.771   2.282  0.2805 -0.0255 -0.0600
  791MOL0     C 4337   4.490   8.837   2.391 -0.3090 -1.2632  0.4236
  791MOL0     O 4338   4.626   8.835   2.419  0.0482 -0.2933  0.0644
  791MOL0     C 4339   4.712   8.753   2.338  0.1839  0.6172  0.2385
  791MOL0     C 4340   4.848   8.753   2.402 -0.3245 -0.1212  0.2230
  791MOL0     C 4341   4.959   8.705   2.299  0.3648  0.2021 -0.0734
  791MOL0     C 4342   5.104   8.746   2.328  0.0944  0.2982 -0.3178
  791MOL0     C 4343   5.194   8.717   2.209 -0.2987  0.7173  0.1710
  791MOL0     C 4344   5.279   8.706   2.121  0.2868 -0.2755  0.2948
  791MOL0     C 4345   4.403   8.907   2.472  0.5568 -0.1363  0.4753
  791MOL0     C 4346   4.269   8.900   2.453  0.2891 -0.3726  0.5412
  791MOL0     H 4347   3.935   8.663   2.026  2.0020  0.3802  1.7813
  791MOL0     H 4348   3.685   8.648   1.935 -0.0048  1.2929 -0.2375
  791MOL0     H 4349   3.386   8.878   2.128  2.7468 -0.2450  0.7308
  791MOL0     H 4350   3.337   8.726   2.202 -0.0946  0.8766  0.2139
  791MOL0     H 4351   3.167   8.790   2.075  0.3778  2.0860 -0.0909
  791MOL0     H 4352   3.244   8.644   1.984  0.2680 -1.0810  2.5555
  791MOL0     H 4353   3.338   8.816   1.827  1.3010  0.2161  1.3564
  791MOL0     H 4354   3.251   8.942   1.913  0.9372  0.2696 -2.4979
  791MOL0     H 4355   3.124   8.691   1.786 -0.6739  0.6273 -2.6262
  791MOL0     H 4356   3.026   8.813   1.852 -1.0762  0.6415  0.7219
  791MOL0     H 4357   3.037   8.807   1.609  0.1839  0.1737 -2.1944
  791MOL0     H 4358   3.206   8.851   1.591 -1.4218 -1.1484 -1.2219
  791MOL0     H 4359   3.180   9.079   1.693 -1.5030  0.1811 -0.5455
  791MOL0     H 4360   3.021   9.021   1.756  0.8219 -0.1611  1.7973
  791MOL0     H 4361   3.093   9.079   1.472  0.9338  1.6873  1.7142
  791MOL0     H 4362   2.929   9.043   1.547 -1.3939 -0.0403 -0.1337
  791MOL0     H 4363   2.981   9.297   1.494 -0.3452  1.6314  0.8811
  791MOL0     H 4364   3.090   9.283   1.635  1.3384 -0.7820 -1.8617
  791MOL0     H 4365   2.724   9.337   1.555  1.2474 -0.5169 -0.1905
  791MOL0     H 4366   2.495   9.276   1.846 -0.4918 -2.0672 -2.6189
  791MOL0     H 4367   2.511   9.369   1.704 -0.8241 -0.8851  0.3646
  791MOL0     H 4368   2.424   9.499   1.862  0.0884 -1.1194  0.3052
  791MOL0     H 4369   2.584   9.573   1.818  1.0102 -0.4214  1.5833
  791MOL0     H 4370   2.492   9.424   2.069  1.1185 -1.7222 -0.3572
  791MOL0     H 4371   2.665   9.437   2.044 -1.1267 -1.5194  1.9065
  791MOL0     H 4372   2.651   9.679   2.019  2.5690 -2.4415  1.4669
  791MOL0     H 4373   2.589   9.636   2.176 -3.7605  0.1094  1.2046
  791MOL0     H 4374   2.438   9.609   2.313 -0.5694  1.8262  0.4009
  791MOL0     H 4375   2.226   9.544   2.435  0.3988 -2.1659 -0.1672
  791MOL0     H 4376   1.891   9.241   2.508 -0.0211 -1.6189  1.9071
  791MOL0     H 4377   1.696   9.195   2.645 -0.2980  1.0853  2.3178
  791MOL0     H 4378   1.601   9.181   2.874 -0.2844 -2.3995 -3.9352
  791MOL0     H 4379   1.462   9.220   2.773 -0.2579  3.1912 -0.4670
  791MOL0     H 4380   1.367   9.361   2.961  2.2019  1.9393  4.2426
  791MOL0     H 4381   1.508   9.300   3.043 -0.0534  2.7077  0.3542
  791MOL0     H 4382   1.428   9.063   3.012 -0.2563  0.0481 -0.1678
  791MOL0     H 4383   1.288   9.114   2.921  1.1528 -4.7343  0.2937
  791MOL0     H 4384   1.365   9.185   3.209  1.0994  2.1246 -3.3655
  791MOL0     H 4385   1.217   9.248   3.136 -1.6002  0.0733 -1.9777
  791MOL0     H 4386   1.178   9.043   3.283 -1.0347  1.1889  0.8060
  791MOL0     H 4387   1.264   8.948   3.161 -1.3945 -0.2916 -2.2747
  791MOL0     H 4388   1.086   9.040   2.990  0.0598  1.3140  0.4555
  791MOL0     H 4389   1.003   9.073   3.144  0.9987  0.0239  2.3007
  791MOL0     H 4390   1.115   8.798   3.093  0.8213  0.9108  1.4714
  791MOL0     H 4391   0.990   8.844   3.203 -4.9348 -2.3365 -1.5842
  791MOL0     H 4392   0.834   8.895   3.026  1.0915  1.9646 -2.0188
  791MOL0     H 4393   0.885   8.731   3.021 -3.0432  0.4401 -1.2573
  791MOL0     H 4394   1.684   9.612   2.767 -0.8717 -0.7287 -1.0912
  791MOL0     H 4395   1.870   9.662   2.609  0.8592 -0.9834 -4.2992
  791MOL0     H 4396   2.004   9.561   2.073  0.3987 -2.8291  0.6813
  791MOL0     H 4397   2.210   9.655   1.950  0.3345  3.0433  0.8062
  791MOL0     H 4398   3.542   8.800   2.298  0.5111 -0.6708  0.4545
  791MOL0     H 4399   3.758   8.869   2.369 -1.6683  2.1030 -0.8023
  791MOL0     H 4400   4.240   8.712   2.177 -0.3092  0.1517 -1.1850
  791MOL0     H 4401   4.482   8.711   2.213 -0.0759 -1.3309  0.7472
  791MOL0     H 4402   4.725   8.797   2.239 -0.8596  1.5263  0.4836
  791MOL0     H 4403   4.680   8.649   2.322  2.0076 -0.0984  1.0113
  791MOL0     H 4404   4.877   8.853   2.433  0.4532  0.6881 -2.8224
  791MOL0     H 4405   4.856   8.690   2.491  0.8538 -0.4536 -0.1075
  791MOL0     H 4406   4.940   8.746   2.200 -1.5339 -1.1094 -0.3012
  791MOL0     H 4407   4.952   8.596   2.285 -3.8855  0.2620  0.1483
  791MOL0     H 4408   5.109   8.852   2.355 -0.1053 -0.0033  0.9510
  791MOL0     H 4409   5.146   8.703   2.419  3.3900  1.5719 -1.0824
  791MOL0     H 4410   5.353   8.703   2.044 -0.3036 -0.2855 -0.2718
  791MOL0     H 4411   4.435   8.966   2.557 -2.4968  3.2332 -0.4716
  791MOL0     H 4412   4.205   8.944   2.528 -0.0110  2.1964 -1.0900
  792MOL0     O 4413   4.639   7.670   4.825 -0.6791  0.1212  0.2446
  792MOL0     C 4414   4.594   7.560   4.855 -0.4928  0.7860 -0.6430
  792MOL0     O 4415   4.492   7.501   4.795  0.3238 -0.3504 -0.8110
  792MOL0     C 4416   4.428   7.534   4.684 -0.8505 -0.1135  0.3865
  792MOL0     C 4417   4.357   7.435   4.616  0.0921 -0.7108 -0.7260
  792MOL0     C 4418   4.270   7.452   4.504 -0.2857 -0.7202  0.3274
  792MOL0     C 4419   4.267   7.578   4.452 -0.6470 -0.8267 -0.0607
  792MOL0     O 4420   4.192   7.595   4.336 -0.1588  0.2325  0.0248
  792MOL0     C 4421   4.182   7.728   4.283  0.4423  0.0965 -0.3355
  792MOL0     C 4422   4.100   7.708   4.157 -0.2334  0.2221  0.8744
  792MOL0     C 4423   4.113   7.829   4.061  0.8702 -0.1292 -0.9025
  792MOL0     C 4424   4.010   7.803   3.945 -0.4345  0.5489 -0.8771
  792MOL0     C 4425   4.038   7.895   3.832  0.4037  0.1003 -0.0121
  792MOL0     C 4426   4.030   8.047   3.876  0.1555 -0.5325 -0.1781
  792MOL0     C 4427   3.880   8.090   3.877 -0.2679 -0.7934  0.1819
  792MOL0     C 4428   3.858   8.242   3.841  0.2578  0.4699 -1.3683
  792MOL0     N 4429   3.867   8.270   3.697  1.2021  0.6446  0.6569
  792MOL0     C 4430   3.763   8.254   3.603 -0.1957 -0.3206 -0.4621
  792MOL0     C 4431   3.818   8.296   3.493  0.3955 -0.1597  0.4802
  792MOL0     C 4432   3.740   8.300   3.358 -0.1091  0.5449  0.5802
  792MOL0     C 4433   3.661   8.438   3.345 -0.2984 -0.3920  0.5528
  792MOL0     C 4434   3.568   8.459   3.222 -0.5145  0.4203  0.5406
  792MOL0     C 4435   3.472   8.350   3.179  0.2852 -0.3869  0.2879
  792MOL0     O 4436   3.375   8.345   3.284  0.4097 -0.5270  0.1093
  792MOL0     C 4437   3.244   8.375   3.267  0.5708 -0.4987 -0.3930
  792MOL0     C 4438   3.178   8.395   3.394 -0.7530 -0.3626  1.0474
  792MOL0     C 4439   3.047   8.434   3.413 -0.3432  0.8215 -0.2329
  792MOL0     C 4440   2.969   8.453   3.297  0.3737  0.3445  0.0498
  792MOL0     C 4441   2.827   8.501   3.317 -0.0165 -0.3671  0.4107
  792MOL0     O 4442   2.755   8.546   3.203  0.0294  0.2736 -0.2441
  792MOL0     C 4443   2.620   8.589   3.207 -0.1204  0.0619  0.0039
  792MOL0     C 4444   2.525   8.569   3.309  0.4605 -0.3642  0.3043
  792MOL0     C 4445   2.411   8.644   3.302 -0.0143 -0.2090  0.8137
  792MOL0     C 4446   2.381   8.733   3.198  0.2590 -0.2361  0.0144
  792MOL0     O 4447   2.263   8.808   3.193  0.0403 -0.3267  0.2624
  792MOL0     C 4448   2.254   8.935   3.252  0.4501 -0.9931 -0.6659
  792MOL0     C 4449   2.150   8.938   3.375 -0.7532 -0.3423  0.2468
  792MOL0     C 4450   2.195   9.057   3.468 -0.3710  0.4053 -0.9024
  792MOL0     C 4451   2.108   9.054   3.598 -0.0964  0.1002  0.3397
  792MOL0     C 4452   2.150   9.165   3.694 -0.1241 -0.0034 -0.6683
  792MOL0     C 4453   2.108   9.302   3.634 -0.1439 -0.2721 -0.0148
  792MOL0     C 4454   2.166   9.408   3.722  0.3329  0.0810  0.2588
  792MOL0     C 4455   2.101   9.548   3.687 -0.2382  0.6803  0.1102
  792MOL0    Cl 4456   1.937   9.536   3.740 -0.0636 -0.1034 -0.6487
  792MOL0     C 4457   2.474   8.744   3.091  0.2357  0.2238 -0.3973
  792MOL0     C 4458   2.594   8.676   3.096 -0.2589  0.7095  1.0163
  792MOL0     O 4459   2.784   8.508   3.428 -0.2202  0.0094 -0.5662
  792MOL0     C 4460   3.032   8.423   3.163  1.1572 -0.4195 -0.7099
  792MOL0     C 4461   3.172   8.387   3.150 -0.6126 -0.7306  0.3962
  792MOL0     N 4462   3.952   8.328   3.516  0.8966 -0.4975 -0.4643
  792MOL0     N 4463   3.975   8.326   3.647 -0.6131  0.6692  0.9077
  792MOL0     C 4464   4.344   7.682   4.516 -1.3636  0.0076 -0.1423
  792MOL0     C 4465   4.424   7.661   4.627 -0.8549  0.1980 -0.3040
  792MOL0     C 4466   4.655   7.509   4.979  0.5445  0.6807  0.7956
  792MOL0     C 4467   4.594   7.390   5.034  0.7497  0.1817 -1.3452
  792MOL0     C 4468   4.663   7.322   5.136  0.1548 -0.0540 -0.2705
  792MOL0     C 4469   4.790   7.355   5.180  0.1912  0.1270  0.0814
  792MOL0     O 4470   4.839   7.277   5.280  0.8282 -0.2596  0.1940
  792MOL0     C 4471   4.977   7.251   5.265 -0.6892 -0.1993 -0.4837
  792MOL0     C 4472   5.015   7.115   5.308 -0.0668  0.6894  0.3155
  792MOL0     C 4473   5.156   7.099   5.267 -0.0847 -0.5722  0.5309
  792MOL0     C 4474   5.250   7.074   5.386  0.7062 -0.3063 -0.0041
  792MOL0     C 4475   5.258   7.185   5.475  0.7848  0.3620  0.1306
  792MOL0     C 4476   5.270   7.280   5.550 -0.6830 -0.5603  0.0797
  792MOL0     C 4477   4.850   7.472   5.125  0.2706  0.2048  0.1297
  792MOL0     C 4478   4.777   7.555   5.035 -0.6769 -0.2247 -0.0888
  792MOL0     H 4479   4.351   7.337   4.663  1.1191 -0.2693  0.3686
  792MOL0     H 4480   4.221   7.366   4.459 -0.2488 -0.1767 -0.7796
  792MOL0     H 4481   4.278   7.769   4.251  0.2901 -1.4310 -2.9935
  792MOL0     H 4482   4.129   7.797   4.351 -0.8910 -0.2504 -0.9864
  792MOL0     H 4483   3.997   7.680   4.181 -0.5393  1.4396  1.0338
  792MOL0     H 4484   4.150   7.626   4.105 -3.3138 -0.5986 -1.0836
  792MOL0     H 4485   4.212   7.841   4.016  0.5225 -2.0164 -2.3070
  792MOL0     H 4486   4.073   7.909   4.124 -2.3069 -2.4851  0.3103
  792MOL0     H 4487   4.021   7.701   3.908 -0.9112  0.6843 -1.4049
  792MOL0     H 4488   3.905   7.814   3.974 -0.1952 -2.5962  1.6938
  792MOL0     H 4489   3.972   7.870   3.749  0.6431  0.7297 -0.3952
  792MOL0     H 4490   4.142   7.884   3.800  1.4522  0.9785  2.7880
  792MOL0     H 4491   4.085   8.101   3.799  1.6777  0.3783  1.4765
  792MOL0     H 4492   4.076   8.064   3.974 -0.1692 -1.4244  0.1414
  792MOL0     H 4493   3.822   8.029   3.806 -0.9731 -0.2145  0.2467
  792MOL0     H 4494   3.841   8.069   3.977  2.3316 -2.1574  0.9904
  792MOL0     H 4495   3.938   8.297   3.892 -0.4826 -1.5996  2.4660
  792MOL0     H 4496   3.764   8.267   3.890  1.3129  1.5575  0.2066
  792MOL0     H 4497   3.666   8.208   3.619 -0.6507  0.8381  0.2684
  792MOL0     H 4498   3.665   8.221   3.356 -0.6208  1.0038 -2.2681
  792MOL0     H 4499   3.806   8.281   3.272 -0.0900 -3.2353  1.2891
  792MOL0     H 4500   3.732   8.520   3.339 -1.6550  0.8327  0.8340
  792MOL0     H 4501   3.611   8.466   3.438 -1.7029  1.7818 -0.7743
  792MOL0     H 4502   3.514   8.551   3.243  2.0211  1.5719  2.6407
  792MOL0     H 4503   3.633   8.458   3.134 -0.4442 -2.0402  0.5373
  792MOL0     H 4504   3.519   8.252   3.175 -0.8320 -0.9246 -0.1354
  792MOL0     H 4505   3.439   8.396   3.085  2.0405 -0.9652 -0.6502
  792MOL0     H 4506   3.242   8.378   3.481 -0.1619 -0.1096  0.6662
  792MOL0     H 4507   3.012   8.447   3.515  0.3798  0.1296  0.1152
  792MOL0     H 4508   2.540   8.500   3.391  1.9060 -2.1645 -1.3748
  792MOL0     H 4509   2.336   8.635   3.380  0.3001 -1.4653  0.9988
  792MOL0     H 4510   2.221   9.011   3.180 -0.2624  0.0668  0.7276
  792MOL0     H 4511   2.351   8.974   3.285 -0.2218 -1.0219  1.4311
  792MOL0     H 4512   2.160   8.841   3.425  0.9992  0.2951  1.2359
  792MOL0     H 4513   2.053   8.947   3.327 -0.1865  3.0227 -0.5153
  792MOL0     H 4514   2.178   9.141   3.401  1.7786 -1.5730 -4.1862
  792MOL0     H 4515   2.300   9.046   3.494 -0.5771 -1.2033 -0.6292
  792MOL0     H 4516   2.003   9.074   3.574 -0.9850 -1.9735  2.1852
  792MOL0     H 4517   2.121   8.959   3.650  0.8785  0.8032  1.4700
  792MOL0     H 4518   2.258   9.158   3.709 -0.1118  0.6840 -0.4352
  792MOL0     H 4519   2.097   9.153   3.789 -0.4224  3.8439 -0.2039
  792MOL0     H 4520   2.000   9.318   3.630 -0.2234 -0.3380  1.4094
  792MOL0     H 4521   2.143   9.315   3.531  0.4593 -3.3190 -0.2915
  792MOL0     H 4522   2.150   9.375   3.825 -0.4785 -2.8437 -0.7145
  792MOL0     H 4523   2.274   9.402   3.707  0.4061 -0.0447  0.8382
  792MOL0     H 4524   2.109   9.584   3.584  1.2149  4.8252  1.4791
  792MOL0     H 4525   2.162   9.623   3.737  0.9662  0.5059 -1.0225
  792MOL0     H 4526   2.448   8.801   3.002  0.4663  4.6688  2.1098
  792MOL0     H 4527   2.661   8.685   3.011  0.6453  1.3199  1.7808
  792MOL0     H 4528   2.981   8.441   3.069  2.0651 -0.6876 -1.2712
  792MOL0     H 4529   3.218   8.366   3.054 -1.0339  1.0349 -0.2342
  792MOL0     H 4530   4.343   7.781   4.472 -1.4606  0.4298  0.7814
  792MOL0     H 4531   4.484   7.743   4.662 -0.7553 -0.7023  1.7743
  792MOL0     H 4532   4.497   7.355   5.002  0.8825 -1.3562 -0.1956
  792MOL0     H 4533   4.625   7.231   5.181 -2.6521  0.0096 -2.2807
  792MOL0     H 4534   5.044   7.319   5.318  1.5341 -2.8179  0.2649
  792MOL0     H 4535   5.010   7.274   5.164 -0.1948  1.0712 -0.0627
  792MOL0     H 4536   5.009   7.108   5.417  0.2090  0.3860  0.3123
  792MOL0     H 4537   4.953   7.042   5.256 -0.5763  1.7758 -0.6480
  792MOL0     H 4538   5.201   7.183   5.213 -0.6015 -0.1521  0.7505
  792MOL0     H 4539   5.171   7.022   5.190  2.0808  0.5238 -0.2265
  792MOL0     H 4540   5.221   6.979   5.432 -0.5108  0.7065  1.4128
  792MOL0     H 4541   5.350   7.054   5.345  2.1782  3.5220  1.2914
  792MOL0     H 4542   5.278   7.357   5.624  1.7481 -0.4927 -0.1847
  792MOL0     H 4543   4.942   7.508   5.171  0.0719 -0.1992  0.8592
  792MOL0     H 4544   4.820   7.647   4.996 -0.1479 -0.4126  0.0417
  793MOL0     O 4545  11.103   3.013   9.104 -0.6036 -0.1887 -0.4523
  793MOL0     C 4546  11.065   2.934   9.013 -0.2972  0.2442  0.3324
  793MOL0     O 4547  11.146   2.847   8.946 -0.0998 -0.8453 -0.0302
  793MOL0     C 4548  11.286   2.863   8.962  0.2672  0.9271 -0.4779
  793MOL0     C 4549  11.357   2.745   8.995 -0.2088 -0.4096 -0.6800
  793MOL0     C 4550  11.495   2.752   9.011  0.0995  0.6333 -0.6895
  793MOL0     C 4551  11.562   2.875   8.983 -0.2150 -0.5697  0.3044
  793MOL0     O 4552  11.702   2.873   8.995  0.3647  0.3086 -0.4054
  793MOL0     C 4553  11.772   2.999   9.020 -0.9888  0.1391 -0.4373
  793MOL0     C 4554  11.920   2.960   9.002  0.3699  0.4227 -0.8445
  793MOL0     C 4555  11.979   2.853   9.099 -1.3883 -0.1867 -0.5508
  793MOL0     C 4556  12.124   2.856   9.105 -0.6774 -0.5002  1.5261
  793MOL0     C 4557  12.178   2.725   9.146 -0.8016 -0.0652  0.6338
  793MOL0     C 4558  12.327   2.702   9.094  0.6895 -0.0293 -0.3340
  793MOL0     C 4559  12.430   2.804   9.146 -0.3321  0.1573  0.5157
  793MOL0     C 4560  12.574   2.752   9.132  0.0270 -0.1335 -0.1540
  793MOL0     N 4561  12.608   2.657   9.241 -0.5022  0.1797 -0.6211
  793MOL0     C 4562  12.720   2.660   9.314  0.1162  0.5355 -0.2712
  793MOL0     C 4563  12.716   2.546   9.395  0.8341 -0.2162  1.0624
  793MOL0     C 4564  12.826   2.522   9.500  0.5712 -0.1311  0.2565
  793MOL0     C 4565  12.771   2.462   9.636  0.2368  0.7951 -0.2455
  793MOL0     C 4566  12.697   2.572   9.725 -0.2118 -0.5978  0.3527
  793MOL0     C 4567  12.576   2.630   9.653  0.5888 -0.2766 -0.7415
  793MOL0     O 4568  12.496   2.712   9.742 -0.0186  0.1529  0.7286
  793MOL0     C 4569  12.364   2.721   9.715  0.1404 -0.2001 -0.9645
  793MOL0     C 4570  12.322   2.813   9.613 -0.0785 -0.5240 -0.5929
  793MOL0     C 4571  12.184   2.833   9.586 -0.2007 -1.1397 -0.2571
  793MOL0     C 4572  12.093   2.763   9.665  0.3135  0.2942  0.4493
  793MOL0     C 4573  11.947   2.776   9.652 -0.7680  0.3106  1.1212
  793MOL0     O 4574  11.905   2.879   9.570 -0.2169 -1.1653  0.0823
  793MOL0     C 4575  11.770   2.890   9.540  0.1661 -0.3961  1.0190
  793MOL0     C 4576  11.664   2.908   9.639  0.7225  0.1112  0.4104
  793MOL0     C 4577  11.530   2.938   9.599 -0.1689 -0.7196 -0.3506
  793MOL0     C 4578  11.499   2.954   9.466  0.4205  0.4340 -0.2680
  793MOL0     O 4579  11.370   2.995   9.437 -0.5316 -0.1240 -0.2036
  793MOL0     C 4580  11.295   2.927   9.337  0.3301  0.2944 -0.6244
  793MOL0     C 4581  11.267   2.780   9.385 -0.4734 -0.6310  0.2607
  793MOL0     C 4582  11.163   2.706   9.301  0.4424  0.5931  0.3940
  793MOL0     C 4583  11.020   2.749   9.319 -0.4104 -0.0765  0.4397
  793MOL0     C 4584  10.924   2.665   9.238 -0.4383  0.5657  1.3486
  793MOL0     C 4585  10.790   2.671   9.301  0.6124  0.5676  0.4413
  793MOL0     C 4586  10.692   2.579   9.230  0.1796 -0.5556  0.0481
  793MOL0     C 4587  10.612   2.493   9.326  0.5094 -0.1015 -0.3019
  793MOL0    Cl 4588  10.466   2.439   9.216  0.0865 -0.4595 -0.1021
  793MOL0     C 4589  11.591   2.925   9.368 -0.2844  0.1049 -0.4867
  793MOL0     C 4590  11.726   2.896   9.405  0.0721  0.1511 -0.1445
  793MOL0     O 4591  11.869   2.695   9.696  0.1242  0.0340  0.6153
  793MOL0     C 4592  12.138   2.669   9.761  0.1903 -0.3430 -0.2119
  793MOL0     C 4593  12.275   2.648   9.788  0.1333  0.7456 -0.2914
  793MOL0     N 4594  12.605   2.470   9.365 -0.0740 -0.2466  0.3946
  793MOL0     N 4595  12.544   2.534   9.270 -0.0033 -0.0273  0.2045
  793MOL0     C 4596  11.489   2.993   8.959 -0.2021 -0.0097  0.5821
  793MOL0     C 4597  11.353   2.990   8.946  1.2547 -0.4513 -0.8853
  793MOL0     C 4598  10.937   2.953   8.950 -0.5031  0.6400 -0.1984
  793MOL0     C 4599  10.918   2.939   8.814 -0.3879  0.2660  0.2330
  793MOL0     C 4600  10.789   2.950   8.768  0.1183 -0.2637  0.2757
  793MOL0     C 4601  10.673   2.975   8.849  0.3137 -0.1513  0.6105
  793MOL0     O 4602  10.550   2.999   8.801  0.4604  0.6731 -0.0634
  793MOL0     C 4603  10.503   2.938   8.674 -0.4372  0.2203  0.6164
  793MOL0     C 4604  10.418   3.048   8.608  0.7425 -0.2568 -0.2853
  793MOL0     C 4605  10.288   3.072   8.684 -0.0323  0.1381 -0.5426
  793MOL0     C 4606  10.220   3.190   8.619 -0.5100  0.4784 -0.3568
  793MOL0     C 4607  10.102   3.231   8.700 -0.0642  0.1734 -0.2162
  793MOL0     C 4608   9.994   3.250   8.754  0.3603 -0.4458  0.4928
  793MOL0     C 4609  10.699   2.984   8.984  0.5741 -0.6615 -0.1114
  793MOL0     C 4610  10.829   2.973   9.038 -1.3909  0.0251  0.4979
  793MOL0     H 4611  11.296   2.660   9.022  3.7293 -3.6559 -1.1367
  793MOL0     H 4612  11.538   2.654   9.029 -1.8486 -0.3708 -1.1903
  793MOL0     H 4613  11.763   3.017   9.127 -0.5233 -1.9042 -0.0261
  793MOL0     H 4614  11.741   3.083   8.957 -1.0838 -1.1773 -2.2331
  793MOL0     H 4615  11.978   3.053   9.007 -1.2694  1.4383  0.4628
  793MOL0     H 4616  11.937   2.918   8.902  2.3675  0.0134 -0.3597
  793MOL0     H 4617  11.939   2.754   9.075  0.3641 -0.6452 -1.8201
  793MOL0     H 4618  11.950   2.867   9.203 -1.0001 -0.6126 -0.3854
  793MOL0     H 4619  12.157   2.882   9.004 -1.3987 -3.5355  0.3936
  793MOL0     H 4620  12.142   2.927   9.187 -3.3588 -0.5723  2.2568
  793MOL0     H 4621  12.126   2.650   9.086  1.2368  0.8740 -2.5636
  793MOL0     H 4622  12.176   2.716   9.255 -1.4981  2.7473  0.9160
  793MOL0     H 4623  12.313   2.707   8.986  0.1771  0.9100 -0.2395
  793MOL0     H 4624  12.350   2.598   9.120 -0.9482  0.1378  2.1813
  793MOL0     H 4625  12.421   2.907   9.109 -1.6588  0.7641  2.3532
  793MOL0     H 4626  12.416   2.816   9.254 -2.2819 -2.4376  0.6316
  793MOL0     H 4627  12.642   2.835   9.148  2.2903 -2.0545  0.8376
  793MOL0     H 4628  12.586   2.709   9.031 -0.4235 -2.0482  0.5526
  793MOL0     H 4629  12.782   2.748   9.322 -0.3370  0.6673  2.8736
  793MOL0     H 4630  12.893   2.607   9.515 -0.3726  0.6178  0.3097
  793MOL0     H 4631  12.894   2.448   9.458  1.0583  0.7454 -0.5578
  793MOL0     H 4632  12.855   2.422   9.694  1.6891  1.4035 -1.8359
  793MOL0     H 4633  12.698   2.385   9.615 -0.3599  0.5828  2.2598
  793MOL0     H 4634  12.664   2.523   9.817  0.7462 -0.4436  0.7922
  793MOL0     H 4635  12.773   2.648   9.745 -0.8118  0.6430 -1.8204
  793MOL0     H 4636  12.506   2.557   9.611 -0.6875 -0.3989  1.4905
  793MOL0     H 4637  12.607   2.697   9.572 -3.1663  1.9869 -0.4849
  793MOL0     H 4638  12.403   2.869   9.566 -0.5948  1.9537  1.2425
  793MOL0     H 4639  12.151   2.913   9.521  0.4264 -1.0133 -0.4257
  793MOL0     H 4640  11.684   2.900   9.745  0.0058 -0.8774  0.4835
  793MOL0     H 4641  11.445   2.951   9.665 -1.1456 -0.5125 -1.6133
  793MOL0     H 4642  11.350   2.916   9.243  1.2162  0.3323 -0.1237
  793MOL0     H 4643  11.203   2.982   9.313 -1.4226 -2.6420 -1.0689
  793MOL0     H 4644  11.240   2.779   9.491  1.3263  0.3589  0.7680
  793MOL0     H 4645  11.350   2.710   9.371 -1.6936 -1.9295 -0.8081
  793MOL0     H 4646  11.167   2.599   9.323 -0.4175  0.4245 -0.2280
  793MOL0     H 4647  11.191   2.714   9.195 -1.3103 -0.7904 -0.2186
  793MOL0     H 4648  10.994   2.745   9.425  1.0091 -0.0134  0.8069
  793MOL0     H 4649  11.008   2.853   9.286 -1.4218 -0.0504  0.8571
  793MOL0     H 4650  10.955   2.560   9.239 -2.0382 -0.0094 -0.9074
  793MOL0     H 4651  10.914   2.706   9.137  1.1634 -0.5587  0.6928
  793MOL0     H 4652  10.761   2.776   9.292  2.6246  1.5689  3.7824
  793MOL0     H 4653  10.778   2.653   9.408 -0.4401  0.3221  0.2914
  793MOL0     H 4654  10.635   2.651   9.170  2.8081 -0.2221 -2.2788
  793MOL0     H 4655  10.746   2.513   9.161 -2.4045 -1.1092 -1.5594
  793MOL0     H 4656  10.584   2.556   9.411  1.2167  0.8429 -0.7438
  793MOL0     H 4657  10.657   2.402   9.366  1.6854 -1.1571 -3.6693
  793MOL0     H 4658  11.568   2.934   9.262 -4.0904 -3.4870 -0.2667
  793MOL0     H 4659  11.797   2.873   9.327  0.8306 -1.0502  0.8588
  793MOL0     H 4660  12.071   2.612   9.825  0.8514 -1.5345 -0.5544
  793MOL0     H 4661  12.312   2.600   9.878 -0.1661  1.0150 -0.0235
  793MOL0     H 4662  11.543   3.087   8.946  0.2589 -0.1059  1.6744
  793MOL0     H 4663  11.296   3.081   8.933 -1.4524 -1.7330  1.0996
  793MOL0     H 4664  10.994   2.895   8.751 -0.7808 -1.0635  0.6547
  793MOL0     H 4665  10.768   2.936   8.662 -3.3693  2.5705  0.4218
  793MOL0     H 4666  10.438   2.852   8.689  3.1489 -2.7665  0.5951
  793MOL0     H 4667  10.586   2.902   8.611  1.1268 -1.5984  3.5260
  793MOL0     H 4668  10.479   3.138   8.595 -2.2284  1.4358 -4.4129
  793MOL0     H 4669  10.387   3.007   8.512 -3.3461 -2.3214  1.6589
  793MOL0     H 4670  10.306   3.080   8.792 -3.0112  1.1798 -0.0227
  793MOL0     H 4671  10.223   2.985   8.671 -1.0661  0.3264  2.4160
  793MOL0     H 4672  10.297   3.266   8.606 -0.6589  0.7126  0.0851
  793MOL0     H 4673  10.176   3.166   8.522 -1.1098  1.3770 -0.3204
  793MOL0     H 4674   9.897   3.256   8.800 -0.1168 -0.9125 -0.4311
  793MOL0     H 4675  10.619   3.008   9.053 -0.9326  2.3814 -2.6664
  793MOL0     H 4676  10.844   2.977   9.145  1.7897  1.0352  0.1070
  794MOL0     O 4677  11.006   9.188   3.275 -0.3928  0.4488 -0.0237
  794MOL0     C 4678  11.046   9.078   3.327  0.4197  0.8503 -0.2562
  794MOL0     O 4679  10.972   8.972   3.361 -0.5459 -1.0153 -0.5804
  794MOL0     C 4680  10.832   8.976   3.375 -0.4411  0.1486  0.0331
  794MOL0     C 4681  10.784   8.897   3.482  0.6555  0.5816  0.9386
  794MOL0     C 4682  10.641   8.897   3.505 -0.2223  0.0691  0.0764
  794MOL0     C 4683  10.545   8.953   3.412 -1.0833 -0.2216 -0.6514
  794MOL0     O 4684  10.409   8.937   3.421 -0.5843  0.1772 -0.3695
  794MOL0     C 4685  10.361   8.864   3.530 -0.0116  0.1549 -0.5691
  794MOL0     C 4686  10.220   8.835   3.502  0.8990  0.0313  0.1016
  794MOL0     C 4687  10.174   8.760   3.622 -1.2531  0.2590  0.5746
  794MOL0     C 4688  10.023   8.777   3.643 -0.8392  0.1898  0.3110
  794MOL0     C 4689   9.984   8.704   3.778 -0.1352 -0.8799 -0.3956
  794MOL0     C 4690   9.834   8.655   3.778  0.1021 -0.7304 -0.9956
  794MOL0     C 4691   9.810   8.536   3.688  0.7323  0.5715 -0.3191
  794MOL0     C 4692   9.660   8.509   3.662 -0.6058  0.4048  0.2339
  794MOL0     N 4693   9.601   8.613   3.577  0.2093 -0.4688  0.7233
  794MOL0     C 4694   9.663   8.671   3.463 -0.4765 -0.2343 -0.2827
  794MOL0     C 4695   9.581   8.773   3.428  0.1355 -0.2546 -0.2142
  794MOL0     C 4696   9.580   8.875   3.318 -0.0100  0.0131  0.1105
  794MOL0     C 4697   9.716   8.948   3.285  0.9861 -1.0536 -0.5533
  794MOL0     C 4698   9.698   9.064   3.182 -0.6477  0.6821  0.1197
  794MOL0     C 4699   9.835   9.132   3.168 -0.2107  0.1492 -0.2097
  794MOL0     O 4700   9.951   9.049   3.183  0.5285 -0.0602  0.0759
  794MOL0     C 4701  10.068   9.083   3.114  0.1663  0.1894 -0.2574
  794MOL0     C 4702  10.168   8.983   3.117 -0.1204  0.9134 -0.5600
  794MOL0     C 4703  10.279   8.983   3.040  0.3205 -0.3948  0.0665
  794MOL0     C 4704  10.312   9.099   2.973 -0.6229  0.5887  0.8570
  794MOL0     C 4705  10.446   9.114   2.918 -0.7977 -1.0540 -0.3747
  794MOL0     O 4706  10.544   9.039   2.957 -0.6569 -0.1564 -0.3439
  794MOL0     C 4707  10.660   9.042   2.884  0.1878 -0.0673  0.3912
  794MOL0     C 4708  10.699   8.931   2.810  0.3363  0.3871 -0.0384
  794MOL0     C 4709  10.819   8.942   2.738 -1.3551 -0.4859  0.1018
  794MOL0     C 4710  10.896   9.056   2.730  0.1857  0.7745  0.3666
  794MOL0     O 4711  11.009   9.062   2.645 -0.0489  0.2758  0.2956
  794MOL0     C 4712  11.023   8.972   2.535  0.6053  0.0889  0.2180
  794MOL0     C 4713  11.116   9.022   2.429  0.4343  0.1403  0.0187
  794MOL0     C 4714  11.265   9.012   2.478  0.5889 -0.2915 -0.1626
  794MOL0     C 4715  11.367   9.058   2.377 -0.5467 -0.7498 -0.5763
  794MOL0     C 4716  11.348   8.998   2.240 -0.0488  0.0358 -0.0577
  794MOL0     C 4717  11.463   9.019   2.144 -0.9657  0.4721  0.5572
  794MOL0     C 4718  11.420   8.993   1.992 -0.9927 -0.2545  1.0838
  794MOL0     C 4719  11.543   8.993   1.897 -0.7452 -0.2372 -0.2903
  794MOL0    Cl 4720  11.642   8.846   1.950 -0.0699 -0.1473  0.1480
  794MOL0     C 4721  10.862   9.164   2.804  0.5051 -1.1026 -0.3288
  794MOL0     C 4722  10.743   9.158   2.887 -0.2761 -0.1434  0.2142
  794MOL0     O 4723  10.455   9.199   2.827 -0.2139 -0.2858 -0.2057
  794MOL0     C 4724  10.217   9.200   2.961 -0.3043 -0.2189 -0.7011
  794MOL0     C 4725  10.097   9.192   3.033 -0.7039  0.6660 -0.1153
  794MOL0     N 4726   9.481   8.785   3.526 -0.5983 -0.0331 -0.4530
  794MOL0     N 4727   9.498   8.686   3.607  0.8736 -0.1399 -0.4723
  794MOL0     C 4728  10.606   9.030   3.307  0.4526 -0.6319  0.6841
  794MOL0     C 4729  10.748   9.052   3.294  0.6073  0.2351 -0.5472
  794MOL0     C 4730  11.193   9.058   3.332  0.4704 -0.1275 -0.3821
  794MOL0     C 4731  11.278   9.168   3.311  1.0889 -0.0628  0.5264
  794MOL0     C 4732  11.419   9.155   3.310  0.6076  0.5044  0.0838
  794MOL0     C 4733  11.472   9.025   3.309  0.0759 -0.3092  0.3291
  794MOL0     O 4734  11.608   8.982   3.302 -0.2483  0.3209  0.0292
  794MOL0     C 4735  11.717   9.078   3.280 -0.6660  0.8088 -0.4686
  794MOL0     C 4736  11.845   9.001   3.291  0.0204 -0.4013 -0.0643
  794MOL0     C 4737  11.853   8.913   3.407 -0.5279  0.3150 -0.1677
  794MOL0     C 4738  11.996   8.849   3.432 -0.1521  0.5346 -0.2266
  794MOL0     C 4739  12.025   8.742   3.331 -0.2181  0.6317 -0.0685
  794MOL0     C 4740  12.041   8.649   3.255 -0.3779  0.0823 -0.2414
  794MOL0     C 4741  11.390   8.915   3.323 -0.3074 -0.0390 -0.3931
  794MOL0     C 4742  11.247   8.929   3.341  0.3524 -0.3761 -0.5122
  794MOL0     H 4743  10.860   8.846   3.540 -0.0220 -3.5203 -1.3445
  794MOL0     H 4744  10.612   8.821   3.577  1.4023 -1.6218 -0.9709
  794MOL0     H 4745  10.362   8.928   3.618  1.6893  0.0913 -0.5044
  794MOL0     H 4746  10.408   8.767   3.547 -0.7148  0.1286  1.3932
  794MOL0     H 4747  10.208   8.774   3.412 -0.3071  0.4352 -0.0244
  794MOL0     H 4748  10.167   8.929   3.487  0.8186 -0.0904 -0.3916
  794MOL0     H 4749  10.222   8.787   3.716  0.9882  0.2098 -0.4919
  794MOL0     H 4750  10.199   8.653   3.617 -3.2596 -0.5440  3.8562
  794MOL0     H 4751  10.004   8.883   3.658 -1.4334  0.2047 -0.5013
  794MOL0     H 4752   9.966   8.743   3.556 -1.4775  0.4424  0.6265
  794MOL0     H 4753  10.004   8.773   3.860  0.5008 -0.8213 -0.5949
  794MOL0     H 4754  10.048   8.618   3.796  0.7651 -0.2687 -0.6214
  794MOL0     H 4755   9.789   8.743   3.730 -0.4715 -1.5881 -2.0868
  794MOL0     H 4756   9.789   8.637   3.876  3.0028  1.1518  0.8265
  794MOL0     H 4757   9.867   8.545   3.596  3.1239  0.9718  1.1273
  794MOL0     H 4758   9.855   8.451   3.741  3.4442  1.5251 -0.9593
  794MOL0     H 4759   9.612   8.491   3.758  2.0927 -0.6152  1.4933
  794MOL0     H 4760   9.648   8.413   3.611  1.3130 -1.5710  3.2070
  794MOL0     H 4761   9.749   8.631   3.412 -2.5735 -4.2416 -1.0613
  794MOL0     H 4762   9.510   8.952   3.352 -1.3572 -1.6382  1.2033
  794MOL0     H 4763   9.529   8.825   3.236 -1.4381  0.0272  0.9582
  794MOL0     H 4764   9.790   8.880   3.243  1.0103 -0.3660 -1.6731
  794MOL0     H 4765   9.763   8.992   3.373  0.0566  0.1906 -0.6513
  794MOL0     H 4766   9.675   9.028   3.082  2.6428  0.5231 -0.7009
  794MOL0     H 4767   9.611   9.122   3.214  0.3953  1.2706  2.1101
  794MOL0     H 4768   9.841   9.202   3.253 -2.5593 -0.6170  0.6635
  794MOL0     H 4769   9.842   9.192   3.077 -0.4099  1.4829  0.6249
  794MOL0     H 4770  10.166   8.893   3.179  0.3462  0.5885 -1.0127
  794MOL0     H 4771  10.362   8.914   3.052  0.3933  0.0073  2.4408
  794MOL0     H 4772  10.635   8.843   2.809 -1.1014  1.3966 -1.3349
  794MOL0     H 4773  10.843   8.847   2.689 -1.9244 -2.1515  2.8592
  794MOL0     H 4774  10.929   8.962   2.481  1.8500 -0.5826 -1.9762
  794MOL0     H 4775  11.066   8.875   2.564 -0.4982 -0.5162 -0.0984
  794MOL0     H 4776  11.096   9.129   2.416 -0.4993  0.2705  2.0618
  794MOL0     H 4777  11.093   8.969   2.337 -0.0977 -0.3509  0.4259
  794MOL0     H 4778  11.296   8.907   2.487  1.1544 -0.0326  1.0244
  794MOL0     H 4779  11.276   9.063   2.574 -1.9948 -0.3974  0.2807
  794MOL0     H 4780  11.366   9.167   2.367  0.0233 -0.7703 -0.9367
  794MOL0     H 4781  11.462   9.034   2.426 -0.9791 -0.8819  0.2064
  794MOL0     H 4782  11.259   9.046   2.198  0.6829  3.3269  1.8039
  794MOL0     H 4783  11.322   8.893   2.256 -2.3601  0.4928 -0.4487
  794MOL0     H 4784  11.547   8.952   2.167 -1.1618  0.6324  1.7551
  794MOL0     H 4785  11.503   9.120   2.156  3.1116  0.1546 -5.5523
  794MOL0     H 4786  11.354   8.906   1.991 -1.0101 -0.2597 -0.7421
  794MOL0     H 4787  11.346   9.061   1.950 -0.8824 -0.4506  0.5556
  794MOL0     H 4788  11.610   9.080   1.902 -1.0382 -0.0964  2.5644
  794MOL0     H 4789  11.501   8.977   1.798 -0.8270 -1.2851 -0.0977
  794MOL0     H 4790  10.927   9.250   2.817 -2.5289  1.4453 -0.8834
  794MOL0     H 4791  10.714   9.233   2.960 -2.3777  0.1609 -0.8351
  794MOL0     H 4792  10.246   9.293   2.912  1.9589  0.6643  2.0446
  794MOL0     H 4793  10.028   9.275   3.018 -2.6334 -0.2901  2.5915
  794MOL0     H 4794  10.544   9.078   3.232  1.8880  3.4947  1.8754
  794MOL0     H 4795  10.783   9.119   3.217 -0.0411 -0.0768 -1.1192
  794MOL0     H 4796  11.233   9.267   3.305  1.6758  0.1509 -0.4892
  794MOL0     H 4797  11.490   9.237   3.313 -0.3618  1.5392 -2.5352
  794MOL0     H 4798  11.712   9.145   3.366  0.1845 -0.3857  0.5475
  794MOL0     H 4799  11.718   9.130   3.184  0.2904  0.7966 -0.4757
  794MOL0     H 4800  11.859   8.947   3.197  0.1460  0.5984 -0.6307
  794MOL0     H 4801  11.919   9.081   3.301 -1.3916  1.1146 -1.1703
  794MOL0     H 4802  11.785   8.828   3.393 -0.0380  0.2784 -3.0999
  794MOL0     H 4803  11.827   8.966   3.499  3.5307  0.8195  0.8578
  794MOL0     H 4804  12.074   8.925   3.429 -1.0046  1.4039 -1.2882
  794MOL0     H 4805  11.990   8.813   3.535 -3.7296  0.4730 -0.3244
  794MOL0     H 4806  12.069   8.570   3.189  2.9210  2.4870 -2.0272
  794MOL0     H 4807  11.441   8.820   3.338 -0.2692 -0.0092 -0.3336
  794MOL0     H 4808  11.190   8.840   3.366  0.3265 -0.5344 -1.1104
  795MOL0     O 4809   1.575   8.331   5.675  0.2712  0.6225  0.5474
  795MOL0     C 4810   1.561   8.445   5.704 -0.4889  0.4980 -0.5998
  795MOL0     O 4811   1.476   8.493   5.794 -0.4318 -0.7691 -0.0342
  795MOL0     C 4812   1.374   8.419   5.840 -0.0598 -0.3358 -0.0433
  795MOL0     C 4813   1.354   8.419   5.979  0.2423 -0.3624 -0.4833
  795MOL0     C 4814   1.249   8.350   6.034  0.8742  0.3671 -0.0462
  795MOL0     C 4815   1.159   8.276   5.955 -0.2950  0.4424 -0.8781
  795MOL0     O 4816   1.047   8.201   6.001 -0.3180  0.1270  0.3832
  795MOL0     C 4817   1.009   8.203   6.139  0.2529  0.9516 -0.3980
  795MOL0     C 4818   0.862   8.167   6.160 -0.2472 -0.7981  1.1342
  795MOL0     C 4819   0.837   8.017   6.153  0.5604 -0.6201  0.1041
  795MOL0     C 4820   0.696   7.972   6.206  0.0397 -0.3066 -0.2617
  795MOL0     C 4821   0.580   8.016   6.117 -0.2471  0.7598 -0.0286
  795MOL0     C 4822   0.450   7.951   6.168 -0.0758  0.6015 -0.2992
  795MOL0     C 4823   0.335   7.961   6.065  0.7414 -0.8243  0.1332
  795MOL0     C 4824   0.238   7.849   6.081 -0.2134  0.5328  0.2372
  795MOL0     N 4825   0.143   7.834   5.967  0.1264 -0.3480 -0.3459
  795MOL0     C 4826   0.186   7.837   5.830 -0.3578  0.7554  0.0088
  795MOL0     C 4827   0.069   7.852   5.763  0.5398  0.4154  1.0723
  795MOL0     C 4828   0.068   7.849   5.607 -0.2504 -1.0216 -0.6986
  795MOL0     C 4829  -0.042   7.942   5.549 -0.1288 -0.5837  0.0287
  795MOL0     C 4830  -0.005   7.986   5.401 -0.0117 -0.8074  0.2267
  795MOL0     C 4831  -0.005   7.868   5.305 -0.3983 -0.2695  0.2363
  795MOL0     O 4832   0.043   7.896   5.175  0.1055 -0.2929  0.0810
  795MOL0     C 4833   0.172   7.927   5.146 -0.5250  0.1426  0.8081
  795MOL0     C 4834   0.186   7.945   5.009 -0.1870  0.2883 -0.5340
  795MOL0     C 4835   0.310   7.973   4.946  0.1924 -0.3865  0.6312
  795MOL0     C 4836   0.428   7.974   5.027 -0.8251 -0.3468  0.1288
  795MOL0     C 4837   0.555   8.017   4.966 -0.6367  0.4770 -0.5938
  795MOL0     O 4838   0.654   8.033   5.058  0.1507  0.0507 -0.0565
  795MOL0     C 4839   0.787   8.022   5.015  0.3744 -0.0754 -0.3732
  795MOL0     C 4840   0.852   8.041   4.895 -0.1833 -0.7205  0.4085
  795MOL0     C 4841   0.993   8.020   4.884 -0.1979  0.1560  0.1879
  795MOL0     C 4842   1.073   7.976   4.990  0.2904  0.2347 -0.1660
  795MOL0     O 4843   1.209   7.954   4.984  0.4741 -0.6844  0.0589
  795MOL0     C 4844   1.287   8.028   4.877  0.1208  0.7233 -0.0334
  795MOL0     C 4845   1.436   8.003   4.905 -1.0979  0.2305 -0.2154
  795MOL0     C 4846   1.519   8.070   4.794 -0.3281 -0.1204 -0.7782
  795MOL0     C 4847   1.666   8.041   4.815 -0.1537 -0.4025 -0.3888
  795MOL0     C 4848   1.748   8.111   4.710 -0.3755  0.5366 -0.5825
  795MOL0     C 4849   1.730   8.077   4.566 -0.0988  0.8343 -0.4103
  795MOL0     C 4850   1.823   8.168   4.474  0.5963 -0.1027  0.1383
  795MOL0     C 4851   1.968   8.112   4.456  0.3373 -0.4612 -0.7078
  795MOL0    Cl 4852   2.074   8.105   4.602  0.1180  0.4819 -0.3378
  795MOL0     C 4853   1.004   7.967   5.113 -0.2915 -0.0963 -0.6635
  795MOL0     C 4854   0.868   7.991   5.122  0.0872 -0.6943  0.0454
  795MOL0     O 4855   0.571   8.013   4.841 -0.0374  0.8722 -0.0694
  795MOL0     C 4856   0.415   7.936   5.165  0.2116  0.6477  0.2634
  795MOL0     C 4857   0.284   7.923   5.222  0.2101  0.2135  0.6833
  795MOL0     N 4858  -0.036   7.866   5.853 -0.4255 -0.4632  0.4228
  795MOL0     N 4859   0.012   7.841   5.973  0.0700  0.2054 -1.1332
  795MOL0     C 4860   1.177   8.272   5.815 -0.9221 -0.9178 -0.2118
  795MOL0     C 4861   1.282   8.349   5.753  0.3993  0.7012  0.9316
  795MOL0     C 4862   1.650   8.534   5.635 -0.5774 -1.0202  0.1883
  795MOL0     C 4863   1.761   8.491   5.558  0.5482  0.0943 -0.3648
  795MOL0     C 4864   1.826   8.571   5.470  0.8142 -0.2915 -0.5763
  795MOL0     C 4865   1.807   8.704   5.476  0.5736 -1.3700  0.1120
  795MOL0     O 4866   1.875   8.796   5.400  0.1379  0.7138 -0.2313
  795MOL0     C 4867   1.966   8.756   5.302  0.1692  1.0471 -0.1833
  795MOL0     C 4868   2.107   8.742   5.350  0.1459 -0.1153 -0.8254
  795MOL0     C 4869   2.174   8.868   5.385 -0.8037 -0.7181 -0.4731
  795MOL0     C 4870   2.316   8.840   5.427 -1.0844  0.2678  0.2958
  795MOL0     C 4871   2.423   8.800   5.320 -0.7851 -0.1709 -1.2064
  795MOL0     C 4872   2.506   8.776   5.239  0.3279  0.5035  1.6084
  795MOL0     C 4873   1.700   8.759   5.560 -0.1883  0.1305 -0.0104
  795MOL0     C 4874   1.619   8.677   5.633 -0.6908 -0.2699 -0.3432
  795MOL0     H 4875   1.426   8.466   6.046  0.3841 -3.8609  2.1193
  795MOL0     H 4876   1.238   8.351   6.142 -2.0416  1.7255 -0.2364
  795MOL0     H 4877   1.033   8.298   6.189 -0.9122  2.4520 -2.4934
  795MOL0     H 4878   1.061   8.124   6.193 -4.1316 -1.8167  0.1849
  795MOL0     H 4879   0.799   8.215   6.085  2.4063  2.7888  0.9785
  795MOL0     H 4880   0.829   8.213   6.254 -2.8913  1.0502 -0.5668
  795MOL0     H 4881   0.910   7.962   6.213 -0.6152 -1.3689  0.8878
  795MOL0     H 4882   0.833   7.987   6.048 -0.1931  0.9858 -0.3582
  795MOL0     H 4883   0.698   7.863   6.217  1.8343 -0.4101 -1.2082
  795MOL0     H 4884   0.688   7.999   6.312 -2.6363  0.2275 -0.5206
  795MOL0     H 4885   0.603   7.976   6.018 -0.6736  0.3111  0.0519
  795MOL0     H 4886   0.569   8.125   6.107 -0.5177  0.7442  0.0961
  795MOL0     H 4887   0.418   7.999   6.261 -0.3164 -1.5253  0.7541
  795MOL0     H 4888   0.464   7.843   6.179  1.1724  0.6543 -1.1000
  795MOL0     H 4889   0.273   8.049   6.084  0.3705 -0.5331 -2.2089
  795MOL0     H 4890   0.369   7.960   5.961  2.5882 -0.0519  0.7008
  795MOL0     H 4891   0.182   7.858   6.174  0.1370  0.0849  0.4995
  795MOL0     H 4892   0.294   7.755   6.090 -1.2633 -0.1212  0.0840
  795MOL0     H 4893   0.282   7.833   5.779 -1.0700  0.6449 -1.3397
  795MOL0     H 4894   0.053   7.746   5.576 -1.5911 -1.3126  0.7700
  795MOL0     H 4895   0.167   7.887   5.582 -0.6452 -1.0235 -2.3602
  795MOL0     H 4896  -0.039   8.033   5.609  0.1605 -0.8293  0.3910
  795MOL0     H 4897  -0.133   7.881   5.556 -0.0678 -0.5774  1.0866
  795MOL0     H 4898  -0.074   8.067   5.375  2.5374  1.2405 -0.6260
  795MOL0     H 4899   0.087   8.044   5.393 -0.8651  0.4791 -0.6208
  795MOL0     H 4900  -0.111   7.841   5.301 -1.0175  1.8235  1.0425
  795MOL0     H 4901   0.045   7.785   5.354 -1.1270 -1.1680 -0.4922
  795MOL0     H 4902   0.093   7.946   4.952 -0.8149 -0.8816  0.4172
  795MOL0     H 4903   0.314   7.997   4.841 -0.4052  1.9877  1.0907
  795MOL0     H 4904   0.800   8.060   4.801  0.5300  1.1084  0.3475
  795MOL0     H 4905   1.035   8.031   4.785  0.9225  0.6166  0.6963
  795MOL0     H 4906   1.269   8.136   4.874  0.0674  0.7334  0.6553
  795MOL0     H 4907   1.250   7.992   4.780 -0.5417 -1.4620  0.9627
  795MOL0     H 4908   1.454   7.897   4.891 -1.2508  0.3866 -1.8153
  795MOL0     H 4909   1.454   8.031   5.009 -3.8963  0.5392  0.2770
  795MOL0     H 4910   1.506   8.178   4.780 -2.1091 -0.6016 -3.4825
  795MOL0     H 4911   1.486   8.016   4.705 -1.6174 -0.5836 -0.0475
  795MOL0     H 4912   1.690   8.095   4.908 -1.8668  1.3598 -0.9088
  795MOL0     H 4913   1.699   7.937   4.822 -1.7690 -0.8575  1.2071
  795MOL0     H 4914   1.849   8.083   4.744 -0.5449 -0.6295 -0.9971
  795MOL0     H 4915   1.731   8.219   4.716  0.1076  0.5535  1.0506
  795MOL0     H 4916   1.628   8.089   4.528 -0.5157  0.8054  0.6700
  795MOL0     H 4917   1.745   7.969   4.555 -0.1727  0.4908  2.2241
  795MOL0     H 4918   1.776   8.180   4.377 -2.5905  2.3468  1.7995
  795MOL0     H 4919   1.821   8.271   4.512 -1.8394 -0.0922  0.1462
  795MOL0     H 4920   2.023   8.184   4.395 -1.0949  0.6167 -0.7748
  795MOL0     H 4921   1.966   8.012   4.413 -1.2416 -0.6749 -0.2175
  795MOL0     H 4922   1.054   7.936   5.205 -2.3131  0.6549  0.7731
  795MOL0     H 4923   0.810   7.989   5.214 -1.5700  2.4089 -0.7774
  795MOL0     H 4924   0.495   7.923   5.236 -0.0412 -3.1633  0.0337
  795MOL0     H 4925   0.278   7.907   5.329 -0.4632  1.6240  0.8754
  795MOL0     H 4926   1.106   8.214   5.758  0.7557 -1.7247 -1.5579
  795MOL0     H 4927   1.292   8.346   5.645  0.0138  1.5923  0.8674
  795MOL0     H 4928   1.788   8.386   5.571 -1.4999 -0.2294  1.9135
  795MOL0     H 4929   1.902   8.529   5.404 -1.3499 -0.0285 -3.4080
  795MOL0     H 4930   1.956   8.825   5.217  2.4853  1.1243 -0.4806
  795MOL0     H 4931   1.945   8.659   5.257 -0.1891  1.0590 -0.0414
  795MOL0     H 4932   2.098   8.696   5.449 -0.1196  1.5859 -0.0169
  795MOL0     H 4933   2.168   8.691   5.275 -1.6230 -0.9617 -1.7691
  795MOL0     H 4934   2.120   8.920   5.464 -0.6051  0.9110 -1.3529
  795MOL0     H 4935   2.176   8.928   5.293 -0.2134 -1.9558 -1.2951
  795MOL0     H 4936   2.340   8.937   5.472  1.5672  0.1227 -0.6446
  795MOL0     H 4937   2.316   8.762   5.503 -1.5568 -1.3269 -1.2834
  795MOL0     H 4938   2.589   8.749   5.176 -0.0363 -1.2787  1.8342
  795MOL0     H 4939   1.684   8.866   5.556 -1.5572 -0.0856 -1.9091
  795MOL0     H 4940   1.543   8.721   5.696 -0.8050 -2.8145  1.4628
  796MOL0     O 4941   0.302   6.780   1.156 -0.0329 -0.7902  0.1011
  796MOL0     C 4942   0.308   6.730   1.043  0.8964  0.9156  0.5141
  796MOL0     O 4943   0.197   6.683   0.972  0.5815  0.5393  0.0947
  796MOL0     C 4944   0.075   6.693   1.036  0.5725 -1.2875 -0.2473
  796MOL0     C 4945   0.018   6.591   1.114  0.3526  0.3562 -0.5682
  796MOL0     C 4946  -0.109   6.611   1.181 -1.4911 -0.2590  0.5681
  796MOL0     C 4947  -0.184   6.726   1.165 -0.9884  0.4241  0.6400
  796MOL0     O 4948  -0.308   6.735   1.226 -0.7973  0.0955  0.1821
  796MOL0     C 4949  -0.404   6.751   1.123  0.3761  0.5195  1.2124
  796MOL0     C 4950  -0.548   6.736   1.180 -0.1130  0.6745 -0.2498
  796MOL0     C 4951  -0.654   6.738   1.079  0.0707  0.2008  0.4793
  796MOL0     C 4952  -0.791   6.780   1.139  0.1698  0.1426  0.5046
  796MOL0     C 4953  -0.896   6.734   1.041 -0.1746 -0.2062  0.3701
  796MOL0     C 4954  -1.033   6.788   1.093  0.3685  0.5778 -0.2405
  796MOL0     C 4955  -1.151   6.736   1.004  0.6687  0.0586 -0.1730
  796MOL0     C 4956  -1.277   6.745   1.089  0.4276  0.1426  0.9006
  796MOL0     N 4957  -1.394   6.680   1.020 -0.1320  0.6741 -0.6380
  796MOL0     C 4958  -1.422   6.543   1.001 -1.3936 -0.4129  0.5570
  796MOL0     C 4959  -1.538   6.545   0.930  0.2051  0.3473 -0.3727
  796MOL0     C 4960  -1.624   6.422   0.884 -0.3636 -0.1394 -0.3260
  796MOL0     C 4961  -1.647   6.332   1.010 -0.6308  0.8543  0.1424
  796MOL0     C 4962  -1.775   6.229   1.003  0.0498  0.1620  0.5731
  796MOL0     C 4963  -1.778   6.153   0.878  0.4016 -0.2353 -0.5154
  796MOL0     O 4964  -1.703   6.032   0.895  0.0052  0.3579 -0.6893
  796MOL0     C 4965  -1.781   5.932   0.946  0.4216  0.3790 -0.1457
  796MOL0     C 4966  -1.768   5.913   1.083  0.8875  0.2971 -0.2117
  796MOL0     C 4967  -1.861   5.829   1.150 -1.0259  0.3781  0.0585
  796MOL0     C 4968  -1.964   5.766   1.084  0.3638  0.3785  0.1330
  796MOL0     C 4969  -2.069   5.691   1.155 -0.5846  0.3192  0.7171
  796MOL0     O 4970  -2.101   5.736   1.275  0.4771  0.9441  0.3239
  796MOL0     C 4971  -2.215   5.685   1.323 -0.3824  0.2386 -0.3100
  796MOL0     C 4972  -2.216   5.562   1.392 -0.5197 -0.0295  0.3876
  796MOL0     C 4973  -2.347   5.516   1.431 -0.4111 -0.2833 -0.0716
  796MOL0     C 4974  -2.466   5.584   1.402  0.4862  0.3721 -0.3819
  796MOL0     O 4975  -2.575   5.537   1.456  0.5221  0.0791  0.7493
  796MOL0     C 4976  -2.680   5.505   1.370 -0.4321 -0.4965  0.0406
  796MOL0     C 4977  -2.791   5.409   1.432 -0.4835 -0.5751 -0.1247
  796MOL0     C 4978  -2.932   5.431   1.374 -0.9268 -0.0932  0.6622
  796MOL0     C 4979  -3.044   5.337   1.435  0.3612 -0.6121 -0.3144
  796MOL0     C 4980  -3.188   5.347   1.383 -0.0370  0.1857  0.4509
  796MOL0     C 4981  -3.297   5.330   1.493  0.3563  0.0821  0.9334
  796MOL0     C 4982  -3.454   5.325   1.449 -0.0653  1.2819  0.7207
  796MOL0     C 4983  -3.543   5.358   1.570  0.3015  0.2476 -0.5115
  796MOL0    Cl 4984  -3.506   5.265   1.723  0.5389 -0.0331  0.6302
  796MOL0     C 4985  -2.461   5.709   1.360 -0.8506 -0.9530 -0.1530
  796MOL0     C 4986  -2.338   5.760   1.314 -0.3798 -0.4120  0.2618
  796MOL0     O 4987  -2.121   5.596   1.099  0.0220 -0.2079 -0.0698
  796MOL0     C 4988  -1.973   5.793   0.946 -0.2614 -0.0283 -0.3531
  796MOL0     C 4989  -1.874   5.866   0.874  1.2618 -0.0341  0.3405
  796MOL0     N 4990  -1.576   6.679   0.915  0.2733  0.3709  0.2194
  796MOL0     N 4991  -1.487   6.754   0.960 -0.3373  0.1210  0.0796
  796MOL0     C 4992  -0.131   6.824   1.086  0.0562 -0.0961 -0.7137
  796MOL0     C 4993  -0.004   6.814   1.023 -0.6513  0.2172  0.0855
  796MOL0     C 4994   0.441   6.718   0.978 -0.1733 -0.2914 -0.3880
  796MOL0     C 4995   0.558   6.766   1.040  0.4359  0.3239  0.2753
  796MOL0     C 4996   0.682   6.756   0.988  0.2550  0.4602 -0.0362
  796MOL0     C 4997   0.697   6.706   0.859 -0.0139 -0.3666 -0.1060
  796MOL0     O 4998   0.814   6.705   0.783 -0.3961  0.2985  0.2363
  796MOL0     C 4999   0.942   6.773   0.833  0.1687  0.0092 -0.6487
  796MOL0     C 5000   1.054   6.728   0.736  0.2590  0.6781  0.2532
  796MOL0     C 5001   1.185   6.769   0.801 -1.3775  0.9421  0.2684
  796MOL0     C 5002   1.311   6.713   0.729 -0.7034 -0.5091 -0.1921
  796MOL0     C 5003   1.428   6.804   0.757  0.1879 -0.3679  0.2130
  796MOL0     C 5004   1.514   6.885   0.779 -0.1275 -0.0174 -0.3542
  796MOL0     C 5005   0.583   6.662   0.789  0.5979  0.1017 -0.2368
  796MOL0     C 5006   0.457   6.667   0.845  0.3816  0.5449  0.4244
  796MOL0     H 5007   0.083   6.504   1.125  0.7313  0.6925 -0.1261
  796MOL0     H 5008  -0.152   6.536   1.246  1.6710 -2.6163  0.1591
  796MOL0     H 5009  -0.387   6.683   1.040  0.8375  1.4267  0.5397
  796MOL0     H 5010  -0.397   6.850   1.075 -1.5058 -0.3427 -1.0208
  796MOL0     H 5011  -0.564   6.823   1.243 -2.9702 -1.3712  2.1674
  796MOL0     H 5012  -0.547   6.648   1.246  1.0213 -0.3671 -1.5897
  796MOL0     H 5013  -0.657   6.642   1.026  0.7533 -0.2563  1.2553
  796MOL0     H 5014  -0.634   6.811   1.000 -1.8656  0.7968  0.4816
  796MOL0     H 5015  -0.804   6.732   1.236  2.2147  0.5582  1.0234
  796MOL0     H 5016  -0.801   6.887   1.160 -3.6706 -0.1760  0.9447
  796MOL0     H 5017  -0.899   6.625   1.042  1.5518 -0.2920  0.0657
  796MOL0     H 5018  -0.874   6.771   0.941  0.6401 -2.8320 -0.5005
  796MOL0     H 5019  -1.029   6.897   1.103 -0.8552  0.6645 -0.5488
  796MOL0     H 5020  -1.044   6.742   1.192 -0.8916 -0.0726 -0.6669
  796MOL0     H 5021  -1.161   6.805   0.920 -1.0781  1.0531  0.7781
  796MOL0     H 5022  -1.120   6.638   0.968  0.8152 -0.7386  1.9820
  796MOL0     H 5023  -1.301   6.851   1.100  4.7940  1.3760  0.1365
  796MOL0     H 5024  -1.261   6.705   1.190 -2.0737  0.0603  1.3493
  796MOL0     H 5025  -1.369   6.455   1.036 -1.6444  0.2966  2.8834
  796MOL0     H 5026  -1.571   6.375   0.800 -1.9961 -2.3418 -0.2303
  796MOL0     H 5027  -1.726   6.455   0.860 -1.3453 -0.6738  2.7191
  796MOL0     H 5028  -1.659   6.391   1.101  0.0172 -0.4517  1.1102
  796MOL0     H 5029  -1.556   6.274   1.028 -2.3642 -2.1060  0.0952
  796MOL0     H 5030  -1.761   6.162   1.088 -3.0085 -0.4635  0.6893
  796MOL0     H 5031  -1.863   6.289   1.027 -0.0970 -0.7962  2.6180
  796MOL0     H 5032  -1.725   6.208   0.799  1.1482 -0.6444 -0.3065
  796MOL0     H 5033  -1.880   6.133   0.845  0.3791  0.1583 -0.7012
  796MOL0     H 5034  -1.687   5.954   1.143  0.6450 -0.9381  1.0195
  796MOL0     H 5035  -1.864   5.824   1.258  1.3343  0.3190  0.1616
  796MOL0     H 5036  -2.125   5.507   1.415 -1.5175 -1.6600  0.5774
  796MOL0     H 5037  -2.358   5.418   1.474 -0.0701 -0.0624  0.5214
  796MOL0     H 5038  -2.652   5.453   1.278  1.5383  1.6863 -0.6990
  796MOL0     H 5039  -2.722   5.602   1.343 -0.4471  0.1191  2.1717
  796MOL0     H 5040  -2.804   5.434   1.538  1.2555  1.4047 -0.3264
  796MOL0     H 5041  -2.765   5.304   1.415 -0.3347 -0.4588 -0.6258
  796MOL0     H 5042  -2.919   5.424   1.265  1.0476 -0.1543  0.8590
  796MOL0     H 5043  -2.964   5.533   1.393  0.7992  0.5474  0.2950
  796MOL0     H 5044  -3.014   5.235   1.410  0.0758 -0.5210 -1.0627
  796MOL0     H 5045  -3.043   5.358   1.542 -0.3885  0.6231 -0.5283
  796MOL0     H 5046  -3.193   5.284   1.294  0.4517  1.8630 -0.8276
  796MOL0     H 5047  -3.200   5.447   1.341 -2.3001 -0.1396  0.1983
  796MOL0     H 5048  -3.275   5.407   1.568  0.5825  1.2036 -0.2480
  796MOL0     H 5049  -3.281   5.235   1.546 -0.9429 -1.5675 -1.4447
  796MOL0     H 5050  -3.458   5.395   1.365 -0.5449  1.2730  0.7353
  796MOL0     H 5051  -3.488   5.227   1.415 -1.0826  1.5506  0.9529
  796MOL0     H 5052  -3.642   5.331   1.531  0.6235 -1.3790 -0.2955
  796MOL0     H 5053  -3.546   5.462   1.602 -1.3985 -0.6273  2.5046
  796MOL0     H 5054  -2.545   5.776   1.373  0.6596  1.6845 -2.7324
  796MOL0     H 5055  -2.332   5.860   1.272 -0.2330  0.8118  2.9723
  796MOL0     H 5056  -2.052   5.742   0.892  0.3889 -2.2945  0.7078
  796MOL0     H 5057  -1.894   5.889   0.769 -0.0937  0.5287  0.6918
  796MOL0     H 5058  -0.187   6.916   1.073 -3.1701 -1.8413 -0.2882
  796MOL0     H 5059   0.020   6.902   0.964 -2.9024  0.9930  0.2147
  796MOL0     H 5060   0.554   6.832   1.126  1.4456 -0.6062  1.0516
  796MOL0     H 5061   0.772   6.791   1.038  0.7464  0.5443 -0.9690
  796MOL0     H 5062   0.954   6.730   0.933  0.2491  1.4213 -0.0302
  796MOL0     H 5063   0.932   6.882   0.829  1.1146  0.0721 -2.7513
  796MOL0     H 5064   1.042   6.619   0.735  0.1832  0.5865 -4.1437
  796MOL0     H 5065   1.032   6.752   0.632 -0.3508  1.4026  0.5431
  796MOL0     H 5066   1.183   6.724   0.901  0.9416 -1.7144 -0.7635
  796MOL0     H 5067   1.183   6.877   0.820 -0.3256  1.0999 -0.4549
  796MOL0     H 5068   1.335   6.610   0.756  2.0071  0.0461 -0.1906
  796MOL0     H 5069   1.302   6.717   0.620 -3.0185 -2.4589 -0.1592
  796MOL0     H 5070   1.597   6.945   0.809  0.5075  0.0795 -2.1918
  796MOL0     H 5071   0.600   6.640   0.684  2.1402  0.9705 -0.2006
  796MOL0     H 5072   0.376   6.639   0.779  1.9209 -1.3969 -0.7636
  797MOL0     O 5073   7.872   9.693   7.627 -0.9418 -0.0571 -0.3905
  797MOL0     C 5074   7.925   9.588   7.593  0.0322 -0.1044  0.3761
  797MOL0     O 5075   7.849   9.480   7.548 -0.5401  0.3825 -0.4828
  797MOL0     C 5076   7.722   9.508   7.516  0.0974 -0.0787 -0.3093
  797MOL0     C 5077   7.695   9.529   7.381 -0.8064  0.9458  0.2302
  797MOL0     C 5078   7.567   9.558   7.349 -0.2920  0.0356 -0.4880
  797MOL0     C 5079   7.469   9.576   7.445  0.2565 -0.4444  0.3011
  797MOL0     O 5080   7.349   9.615   7.393 -0.5221  0.3371  0.1046
  797MOL0     C 5081   7.282   9.521   7.303 -0.4596 -0.3502  0.9119
  797MOL0     C 5082   7.156   9.587   7.240  0.2773  0.5188 -0.3226
  797MOL0     C 5083   7.052   9.612   7.352 -0.5112 -0.5641  0.0186
  797MOL0     C 5084   6.912   9.659   7.305  0.0752  0.1084  0.1191
  797MOL0     C 5085   6.861   9.567   7.199 -0.1362  0.1355 -0.2876
  797MOL0     C 5086   6.872   9.407   7.229 -0.4616  0.1356 -0.3414
  797MOL0     C 5087   6.768   9.361   7.327 -0.0531 -0.5041  0.7167
  797MOL0     C 5088   6.771   9.210   7.344 -0.3898  0.4644  0.0444
  797MOL0     N 5089   6.636   9.161   7.345  0.4424  0.4484  0.1896
  797MOL0     C 5090   6.559   9.160   7.454  0.5289 -1.0405  1.1218
  797MOL0     C 5091   6.435   9.130   7.402 -0.4634  1.0365  0.5675
  797MOL0     C 5092   6.302   9.123   7.464 -0.4229 -0.0163  0.0250
  797MOL0     C 5093   6.173   9.147   7.380  0.4360 -0.7919  0.3818
  797MOL0     C 5094   6.038   9.142   7.474 -0.3080 -0.1535 -0.4840
  797MOL0     C 5095   5.905   9.163   7.406  0.1190 -0.1932  0.3839
  797MOL0     O 5096   5.803   9.164   7.514  0.5492  0.2470 -0.1569
  797MOL0     C 5097   5.666   9.150   7.480 -0.1281 -0.1246 -1.1472
  797MOL0     C 5098   5.600   9.191   7.364 -0.1804 -0.8235 -0.0195
  797MOL0     C 5099   5.465   9.175   7.346  0.9995  0.1221 -0.3199
  797MOL0     C 5100   5.391   9.099   7.442 -0.6176  0.4274  0.0408
  797MOL0     C 5101   5.253   9.065   7.412 -0.0550  0.1875  0.0450
  797MOL0     O 5102   5.180   9.012   7.525  0.7431  0.2078  0.3340
  797MOL0     C 5103   5.046   8.984   7.500  0.0528  0.1871  0.6749
  797MOL0     C 5104   4.953   9.018   7.594  0.1735  0.0317 -0.4165
  797MOL0     C 5105   4.813   8.995   7.569 -0.2161  0.0032  0.1476
  797MOL0     C 5106   4.775   8.935   7.452 -0.6287  0.6192  0.1374
  797MOL0     O 5107   4.644   8.898   7.424 -1.0599  0.2221 -0.4554
  797MOL0     C 5108   4.543   8.954   7.510 -0.3250 -0.6125  0.1021
  797MOL0     C 5109   4.404   8.936   7.455 -0.6409  0.5755 -0.1157
  797MOL0     C 5110   4.304   8.994   7.552  0.6994 -0.0787 -0.0118
  797MOL0     C 5111   4.180   9.021   7.473 -0.1919  0.7269  0.7302
  797MOL0     C 5112   4.051   9.057   7.558  0.3053 -0.2718  0.1559
  797MOL0     C 5113   3.919   9.078   7.486  0.1013  0.1325  0.0167
  797MOL0     C 5114   3.802   9.097   7.578 -0.5485  0.6839 -0.0270
  797MOL0     C 5115   3.670   9.144   7.528  0.6665  0.5317  0.3036
  797MOL0    Cl 5116   3.670   9.315   7.483 -0.0711 -0.0809  0.0046
  797MOL0     C 5117   4.875   8.890   7.361  0.2093  0.1178 -0.1656
  797MOL0     C 5118   5.011   8.922   7.388  0.3946  0.7364  0.2438
  797MOL0     O 5119   5.207   9.104   7.301  0.0013 -1.2677 -0.9367
  797MOL0     C 5120   5.453   9.059   7.567 -0.4829 -0.3249 -0.9359
  797MOL0     C 5121   5.586   9.094   7.581 -0.3199  0.1757  0.2057
  797MOL0     N 5122   6.460   9.104   7.272  0.7179 -0.6594 -0.3327
  797MOL0     N 5123   6.577   9.128   7.237 -0.9754 -0.2154  0.0401
  797MOL0     C 5124   7.494   9.556   7.575  0.6892  0.0446  0.4827
  797MOL0     C 5125   7.624   9.514   7.618  0.4361  0.0499 -0.2906
  797MOL0     C 5126   8.068   9.568   7.600  0.1508  0.4291  0.3714
  797MOL0     C 5127   8.155   9.648   7.667  0.5046 -0.8557 -0.9036
  797MOL0     C 5128   8.292   9.634   7.676 -0.6482  0.2555  0.1293
  797MOL0     C 5129   8.343   9.522   7.611 -0.9815 -0.3569  0.8672
  797MOL0     O 5130   8.480   9.479   7.609  0.1191  0.5832 -0.0373
  797MOL0     C 5131   8.571   9.562   7.682 -0.5469 -0.5269 -0.3802
  797MOL0     C 5132   8.713   9.495   7.702  0.1832 -0.4919 -0.0217
  797MOL0     C 5133   8.710   9.359   7.771 -0.8364  0.3008 -0.4306
  797MOL0     C 5134   8.688   9.368   7.915 -0.1799 -0.1822  0.1478
  797MOL0     C 5135   8.695   9.246   7.998 -0.0730 -0.4707 -0.2314
  797MOL0     C 5136   8.718   9.147   8.073  0.5364  0.4794 -0.1240
  797MOL0     C 5137   8.263   9.430   7.544  0.4106 -0.7641  0.4396
  797MOL0     C 5138   8.125   9.455   7.532  1.0804 -0.4163  0.2795
  797MOL0     H 5139   7.761   9.505   7.298 -2.9063 -2.6430 -0.6240
  797MOL0     H 5140   7.556   9.585   7.245 -1.7466  0.8068 -0.1475
  797MOL0     H 5141   7.255   9.428   7.354  2.8804 -0.8282  2.0098
  797MOL0     H 5142   7.352   9.506   7.221 -1.6543  3.3821 -1.0140
  797MOL0     H 5143   7.122   9.524   7.157  2.8511 -1.5276  0.0467
  797MOL0     H 5144   7.179   9.683   7.193 -0.0281 -0.1750 -1.9726
  797MOL0     H 5145   7.088   9.684   7.426 -2.1741 -1.1757  1.4915
  797MOL0     H 5146   7.035   9.519   7.408 -2.2719 -0.7210 -0.7078
  797MOL0     H 5147   6.849   9.653   7.395 -0.3804 -1.0612 -0.2564
  797MOL0     H 5148   6.906   9.763   7.272 -1.5197 -0.3384 -1.1407
  797MOL0     H 5149   6.904   9.578   7.099 -0.4755 -0.9259 -0.5607
  797MOL0     H 5150   6.758   9.597   7.180  0.5359  3.0213  0.1555
  797MOL0     H 5151   6.972   9.375   7.258 -1.3232 -0.4608  2.3311
  797MOL0     H 5152   6.864   9.346   7.139 -1.7523 -0.5108  0.1772
  797MOL0     H 5153   6.766   9.410   7.424 -0.4548  0.4340  0.2527
  797MOL0     H 5154   6.675   9.390   7.275  0.1873 -0.6801  0.1768
  797MOL0     H 5155   6.832   9.176   7.428  0.5416  0.3684 -0.6604
  797MOL0     H 5156   6.820   9.166   7.257 -2.4706 -1.7497 -0.1087
  797MOL0     H 5157   6.588   9.203   7.550 -1.6741 -0.8922  1.7850
  797MOL0     H 5158   6.301   9.199   7.542  0.0857  1.8605 -1.6965
  797MOL0     H 5159   6.291   9.029   7.519 -1.5279  1.9758  3.5316
  797MOL0     H 5160   6.168   9.074   7.299  4.3139 -1.5174  0.5885
  797MOL0     H 5161   6.173   9.247   7.335 -2.2047 -1.5174 -1.4683
  797MOL0     H 5162   6.036   9.042   7.517 -0.2795 -0.6309 -1.5726
  797MOL0     H 5163   6.049   9.221   7.549  2.9398  1.3414 -2.2946
  797MOL0     H 5164   5.888   9.077   7.341 -1.9812 -0.8174  1.6687
  797MOL0     H 5165   5.896   9.247   7.335 -1.0277 -3.7245 -4.1338
  797MOL0     H 5166   5.663   9.229   7.284  0.1714  0.3794  0.7947
  797MOL0     H 5167   5.417   9.211   7.255 -3.5215  0.5905  1.9551
  797MOL0     H 5168   4.976   9.062   7.691 -2.9272 -0.3609  0.6267
  797MOL0     H 5169   4.744   9.026   7.647  0.1229 -0.7182  0.7366
  797MOL0     H 5170   4.553   9.060   7.534 -3.1611  0.0377 -1.1272
  797MOL0     H 5171   4.550   8.895   7.602  1.4311  0.2621  0.5761
  797MOL0     H 5172   4.385   8.829   7.443  0.0526  0.5840 -1.6146
  797MOL0     H 5173   4.398   8.976   7.353  1.8639 -2.2881 -1.5550
  797MOL0     H 5174   4.321   9.092   7.598 -2.1351  1.0643 -1.2214
  797MOL0     H 5175   4.285   8.926   7.636  1.5860  1.0355  1.1426
  797MOL0     H 5176   4.200   9.103   7.404  0.7786  2.3168  2.7824
  797MOL0     H 5177   4.163   8.928   7.418 -0.5244 -0.0707  2.1456
  797MOL0     H 5178   4.075   9.149   7.613  0.6777  0.1923 -0.7578
  797MOL0     H 5179   4.045   8.981   7.636  0.4054 -2.1416 -1.5754
  797MOL0     H 5180   3.894   9.000   7.414  0.5817  1.5094 -1.6937
  797MOL0     H 5181   3.928   9.172   7.431  0.1502 -0.0622 -0.3091
  797MOL0     H 5182   3.779   9.000   7.621 -0.4656 -0.1583 -1.7757
  797MOL0     H 5183   3.832   9.174   7.650  1.4566  0.4450 -0.5465
  797MOL0     H 5184   3.601   9.124   7.610 -0.5163 -3.8697 -1.4844
  797MOL0     H 5185   3.645   9.083   7.440 -0.5979 -2.1837  2.4119
  797MOL0     H 5186   4.837   8.822   7.286  1.1358 -1.9334  1.1397
  797MOL0     H 5187   5.083   8.895   7.311  2.9687  1.4395  2.2396
  797MOL0     H 5188   5.408   9.013   7.655  3.8052 -0.3283  1.5463
  797MOL0     H 5189   5.636   9.051   7.667 -0.7479  0.0932  0.4158
  797MOL0     H 5190   7.412   9.568   7.645 -0.0082  2.1256 -0.6019
  797MOL0     H 5191   7.649   9.511   7.723 -2.1931 -5.3322  0.5018
  797MOL0     H 5192   8.120   9.741   7.709 -0.3869 -0.9982 -1.3129
  797MOL0     H 5193   8.346   9.705   7.738 -0.1636 -0.8137  0.9724
  797MOL0     H 5194   8.532   9.583   7.782 -1.3294 -2.9260 -0.1221
  797MOL0     H 5195   8.585   9.661   7.638 -3.7153  0.0630 -0.2770
  797MOL0     H 5196   8.754   9.478   7.602 -2.9546 -0.8665 -1.3753
  797MOL0     H 5197   8.766   9.567   7.764 -1.5719  1.5353 -0.7305
  797MOL0     H 5198   8.802   9.304   7.751  0.1616  0.6399  2.7286
  797MOL0     H 5199   8.624   9.300   7.735 -0.5794 -0.9901  0.9914
  797MOL0     H 5200   8.767   9.424   7.965  0.0775 -1.8883  1.7820
  797MOL0     H 5201   8.593   9.419   7.933  0.1728 -0.0239  1.7310
  797MOL0     H 5202   8.737   9.065   8.139 -0.2824 -0.8449 -1.4717
  797MOL0     H 5203   8.306   9.337   7.509  0.6369 -0.6898  0.5190
  797MOL0     H 5204   8.065   9.378   7.484  1.3073  0.6014 -1.7586
  798MOL0     O 5205   7.191  10.595   6.634 -0.0514  0.3409 -0.1790
  798MOL0     C 5206   7.235  10.675   6.716  0.2564 -0.1780  0.4238
  798MOL0     O 5207   7.158  10.765   6.787 -0.0294  0.2519  0.1405
  798MOL0     C 5208   7.021  10.750   6.761 -0.4314 -0.3113 -0.6559
  798MOL0     C 5209   6.952  10.638   6.815  0.2315 -0.1973 -0.4595
  798MOL0     C 5210   6.819  10.616   6.787  0.3160 -0.5996 -0.0988
  798MOL0     C 5211   6.742  10.700   6.703  0.5055 -0.0120 -0.3876
  798MOL0     O 5212   6.613  10.672   6.681 -0.3595  0.5072 -0.1573
  798MOL0     C 5213   6.542  10.750   6.577  0.1955  0.5989  0.9038
  798MOL0     C 5214   6.402  10.711   6.537 -0.1081  0.4043  0.7625
  798MOL0     C 5215   6.410  10.572   6.467 -0.5243  0.4724  0.4645
  798MOL0     C 5216   6.278  10.514   6.445 -0.0411  0.1520 -0.4544
  798MOL0     C 5217   6.298  10.369   6.405  0.4678 -0.7636  0.0459
  798MOL0     C 5218   6.172  10.289   6.422  0.4072 -0.3208 -0.3384
  798MOL0     C 5219   6.142  10.251   6.571 -1.3570 -0.2557  0.8919
  798MOL0     C 5220   5.996  10.237   6.596  0.2119 -0.2030  0.6378
  798MOL0     N 5221   5.917  10.356   6.573 -0.1894 -1.0039  0.3356
  798MOL0     C 5222   5.917  10.472   6.639  0.1093 -0.9378 -0.5667
  798MOL0     C 5223   5.824  10.557   6.586 -0.5940  0.5730 -0.0673
  798MOL0     C 5224   5.794  10.694   6.615 -0.0597 -0.6436  0.0765
  798MOL0     C 5225   5.908  10.797   6.616 -0.3039 -0.1600  0.9017
  798MOL0     C 5226   5.990  10.787   6.489  1.2753  0.0026 -0.4919
  798MOL0     C 5227   5.923  10.851   6.373  0.2393  0.2413  0.2364
  798MOL0     O 5228   6.013  10.867   6.265 -0.2423  0.2010 -0.1311
  798MOL0     C 5229   6.034  10.760   6.191 -0.1686  0.0396  0.2913
  798MOL0     C 5230   6.154  10.763   6.120  0.9058  0.7576  0.4782
  798MOL0     C 5231   6.200  10.647   6.041  1.0862  0.1962  0.6961
  798MOL0     C 5232   6.114  10.535   6.028 -0.1319  0.0107 -0.0669
  798MOL0     C 5233   6.145  10.423   5.943  0.4331 -0.2451 -0.1999
  798MOL0     O 5234   6.052  10.328   5.923 -0.0058  0.5545  0.2075
  798MOL0     C 5235   6.054  10.220   5.834 -0.1951  0.7261  1.1741
  798MOL0     C 5236   6.146  10.216   5.722  0.7233 -0.0990 -0.2670
  798MOL0     C 5237   6.130  10.121   5.619  0.5515 -1.0083 -0.0589
  798MOL0     C 5238   6.039  10.019   5.642 -0.2504  0.2136  0.3316
  798MOL0     O 5239   6.016   9.912   5.555  0.0790  0.1348 -0.1844
  798MOL0     C 5240   6.130   9.827   5.556 -0.4172  0.2765  0.3461
  798MOL0     C 5241   6.155   9.767   5.421  0.9262  0.2665 -0.3929
  798MOL0     C 5242   6.161   9.870   5.306  0.4553  0.8235 -0.8277
  798MOL0     C 5243   6.184   9.788   5.174  0.4818 -0.1850  1.0383
  798MOL0     C 5244   6.206   9.882   5.054  0.0954  0.1790 -0.3097
  798MOL0     C 5245   6.078   9.969   5.042 -0.4980 -0.3950  0.2342
  798MOL0     C 5246   6.064  10.059   4.916 -1.0535  0.0312 -0.0045
  798MOL0     C 5247   6.076   9.997   4.776 -0.8343 -0.2636 -0.0503
  798MOL0    Cl 5248   5.918   9.948   4.715 -0.1450 -0.0028 -0.0985
  798MOL0     C 5249   5.950  10.026   5.744  1.2556  0.4626  0.5290
  798MOL0     C 5250   5.958  10.129   5.833 -0.3630  0.3383 -0.3244
  798MOL0     O 5251   6.254  10.423   5.895  0.3093  0.6607  0.4481
  798MOL0     C 5252   5.994  10.532   6.101 -0.2016  0.0722 -0.2761
  798MOL0     C 5253   5.961  10.641   6.188 -0.5381  0.4732 -0.0782
  798MOL0     N 5254   5.765  10.481   6.486 -0.0012  0.0499 -0.5679
  798MOL0     N 5255   5.813  10.362   6.480 -0.5577 -0.2855 -0.4824
  798MOL0     C 5256   6.812  10.807   6.653 -0.1407 -0.9264 -0.0864
  798MOL0     C 5257   6.947  10.832   6.678 -0.3445  0.3898 -0.4569
  798MOL0     C 5258   7.378  10.684   6.732  0.0233  0.4618 -0.3511
  798MOL0     C 5259   7.465  10.601   6.657 -0.4758  0.6653  0.1859
  798MOL0     C 5260   7.604  10.594   6.678  0.6744  0.5970  0.0522
  798MOL0     C 5261   7.658  10.677   6.780 -0.4692  0.0288 -0.1416
  798MOL0     O 5262   7.791  10.656   6.787 -0.9279  0.5237  0.4311
  798MOL0     C 5263   7.863  10.742   6.866 -0.1307 -0.4176 -0.7606
  798MOL0     C 5264   7.883  10.688   7.007 -0.3207 -0.2443 -0.6655
  798MOL0     C 5265   7.995  10.760   7.079 -0.2601 -0.0938  0.4289
  798MOL0     C 5266   8.138  10.708   7.027 -0.2446  0.0939 -0.8080
  798MOL0     C 5267   8.236  10.808   7.071  0.5417  0.7432  0.1993
  798MOL0     C 5268   8.322  10.890   7.105  0.0236  0.0453  0.4058
  798MOL0     C 5269   7.573  10.767   6.850 -0.0971  0.6119  0.3550
  798MOL0     C 5270   7.438  10.772   6.821 -0.4364 -0.1365 -0.3405
  798MOL0     H 5271   7.009  10.566   6.874  0.8603 -0.7624 -1.7199
  798MOL0     H 5272   6.760  10.532   6.823  0.5620 -0.2717  1.1296
  798MOL0     H 5273   6.602  10.759   6.486  0.8108 -1.6793  1.0379
  798MOL0     H 5274   6.526  10.854   6.610  1.0873  1.3121 -0.8048
  798MOL0     H 5275   6.363  10.783   6.465 -1.9761  1.0558  2.3450
  798MOL0     H 5276   6.326  10.711   6.615 -2.4099 -0.1061 -1.3650
  798MOL0     H 5277   6.478  10.508   6.525 -0.7367 -1.9883 -1.8418
  798MOL0     H 5278   6.449  10.585   6.366  0.9604 -2.1243  0.5948
  798MOL0     H 5279   6.224  10.527   6.539  2.5319  1.3139  0.9689
  798MOL0     H 5280   6.217  10.571   6.374 -1.9590  1.2283  1.9087
  798MOL0     H 5281   6.377  10.327   6.467 -0.0470 -2.3279 -0.3294
  798MOL0     H 5282   6.326  10.359   6.299 -1.8687  0.7615 -0.8130
  798MOL0     H 5283   6.189  10.205   6.353  2.0602 -0.9795  0.8018
  798MOL0     H 5284   6.091  10.352   6.385  1.5682  0.6675 -1.2762
  798MOL0     H 5285   6.181  10.151   6.595 -1.3823 -1.0493 -2.0558
  798MOL0     H 5286   6.194  10.308   6.649  0.2094 -1.8238  1.0503
  798MOL0     H 5287   5.971  10.208   6.698 -2.2490  0.9196  0.4209
  798MOL0     H 5288   5.959  10.161   6.527  3.3697 -0.0258 -1.4563
  798MOL0     H 5289   5.982  10.496   6.722 -0.0680  2.5478 -1.3037
  798MOL0     H 5290   5.745  10.694   6.713 -1.3465 -1.8538 -0.5493
  798MOL0     H 5291   5.719  10.733   6.547 -0.8963 -1.6535  0.3934
  798MOL0     H 5292   5.970  10.756   6.696 -4.8198 -1.1489  4.3393
  798MOL0     H 5293   5.886  10.903   6.634  1.3194  0.3687 -0.0932
  798MOL0     H 5294   6.083  10.834   6.520  1.6458 -1.2941  0.4239
  798MOL0     H 5295   6.009  10.687   6.448 -3.1480 -1.5340  0.5824
  798MOL0     H 5296   5.875  10.948   6.391 -2.0234 -0.9826  1.3641
  798MOL0     H 5297   5.824  10.812   6.347  1.0112 -0.6949 -1.4704
  798MOL0     H 5298   6.220  10.847   6.135  2.8169 -0.7703  1.0024
  798MOL0     H 5299   6.299  10.655   5.997  1.9924 -2.1429  2.1470
  798MOL0     H 5300   6.200  10.310   5.707 -0.5412  0.6791 -0.0892
  798MOL0     H 5301   6.191  10.123   5.530 -2.0285  3.8306 -2.0919
  798MOL0     H 5302   6.123   9.741   5.623 -1.2976  0.0658  0.0001
  798MOL0     H 5303   6.217   9.888   5.583 -0.8259  0.8574  0.3667
  798MOL0     H 5304   6.073   9.697   5.402  2.1809 -1.3248 -0.1585
  798MOL0     H 5305   6.243   9.702   5.409  0.9256  0.2505 -0.3121
  798MOL0     H 5306   6.247   9.935   5.325  1.4965 -1.0092  1.0709
  798MOL0     H 5307   6.066   9.924   5.299 -2.2266 -2.9730  2.1269
  798MOL0     H 5308   6.265   9.717   5.190  0.7703  0.2465  1.5236
  798MOL0     H 5309   6.101   9.721   5.150  0.9466 -0.4933  0.2491
  798MOL0     H 5310   6.221   9.812   4.972  2.0602 -2.2386  1.9156
  798MOL0     H 5311   6.298   9.940   5.064 -1.0250  2.4875 -2.4738
  798MOL0     H 5312   6.079  10.035   5.129  0.6263 -1.6409  1.2016
  798MOL0     H 5313   5.987   9.909   5.033 -1.9544  2.0070 -4.0102
  798MOL0     H 5314   5.968  10.110   4.928 -1.7321 -1.4539  1.2606
  798MOL0     H 5315   6.142  10.135   4.924 -0.7520 -0.3663  1.0656
  798MOL0     H 5316   6.144   9.911   4.775  1.6743  1.5767 -2.0654
  798MOL0     H 5317   6.126  10.066   4.707  0.0398  1.3517  2.1149
  798MOL0     H 5318   5.882   9.942   5.753 -0.6611  2.1039  2.2102
  798MOL0     H 5319   5.895  10.131   5.922  2.5642 -1.2812  1.9522
  798MOL0     H 5320   5.938  10.439   6.104 -0.9562  0.5350  1.7926
  798MOL0     H 5321   5.875  10.628   6.253 -1.7854  0.7475 -1.6445
  798MOL0     H 5322   6.770  10.855   6.565  1.4224  0.3149 -0.1905
  798MOL0     H 5323   6.999  10.915   6.631  1.1509 -1.4913 -2.2693
  798MOL0     H 5324   7.421  10.528   6.589  1.2246  0.6782 -0.9865
  798MOL0     H 5325   7.660  10.514   6.630 -0.1744  0.2157 -0.3130
  798MOL0     H 5326   7.828  10.845   6.877  2.4487  0.4695 -0.2727
  798MOL0     H 5327   7.961  10.755   6.819  0.6509 -1.3993  0.5692
  798MOL0     H 5328   7.795  10.701   7.070 -0.1300 -1.5300 -0.0951
  798MOL0     H 5329   7.896  10.580   7.001  0.9852 -0.0804 -1.2136
  798MOL0     H 5330   7.984  10.747   7.187  0.8890 -2.3074  0.3316
  798MOL0     H 5331   7.985  10.869   7.070 -2.5169 -0.1173  1.9328
  798MOL0     H 5332   8.153  10.604   7.058 -3.3022  0.5494  2.9475
  798MOL0     H 5333   8.141  10.718   6.919 -2.8770  2.0216 -0.7850
  798MOL0     H 5334   8.405  10.954   7.128 -1.0993  1.8986 -0.4479
  798MOL0     H 5335   7.623  10.834   6.919  0.3998 -0.2363  0.8431
  798MOL0     H 5336   7.376  10.837   6.881 -0.9450 -1.1467  0.2576
  799MOL0     O 5337   7.226   3.790   4.492  0.4922  0.6877 -0.1845
  799MOL0     C 5338   7.127   3.851   4.535  0.4012  0.8056  0.1299
  799MOL0     O 5339   7.041   3.812   4.632  0.1480 -0.1695 -0.0622
  799MOL0     C 5340   7.064   3.695   4.694 -0.2727  0.4946  0.0708
  799MOL0     C 5341   6.992   3.589   4.636  0.1125  0.4515  0.9255
  799MOL0     C 5342   6.989   3.466   4.692 -0.1969 -0.2064 -0.4536
  799MOL0     C 5343   7.070   3.437   4.806 -1.2613  0.5186  0.3868
  799MOL0     O 5344   7.086   3.314   4.875 -0.5494  0.3983  0.1607
  799MOL0     C 5345   6.990   3.207   4.870  0.2266 -0.3101  0.7879
  799MOL0     C 5346   6.842   3.252   4.897  0.5349 -0.1986 -0.7676
  799MOL0     C 5347   6.748   3.153   4.964  0.2646  0.7222 -0.9268
  799MOL0     C 5348   6.601   3.190   4.940 -0.3473  0.2855  0.9169
  799MOL0     C 5349   6.509   3.081   4.970  0.0371  0.4001  0.2197
  799MOL0     C 5350   6.479   3.045   5.119  0.6031 -0.6424  0.8053
  799MOL0     C 5351   6.372   2.933   5.137 -0.2491 -0.0326  0.6928
  799MOL0     C 5352   6.364   2.887   5.285 -0.2631  0.1026  0.1784
  799MOL0     N 5353   6.327   2.747   5.295  1.0589  0.0225 -0.0562
  799MOL0     C 5354   6.215   2.688   5.229  0.3343 -0.0476 -0.1690
  799MOL0     C 5355   6.214   2.564   5.273  0.3812 -0.2364 -0.0966
  799MOL0     C 5356   6.100   2.467   5.246  0.1082 -0.4996  0.6923
  799MOL0     C 5357   6.107   2.332   5.322  0.2821 -0.6253 -0.2548
  799MOL0     C 5358   5.970   2.252   5.312  0.2027  0.6584 -0.0445
  799MOL0     C 5359   5.845   2.309   5.380 -0.0815 -0.5170 -0.0805
  799MOL0     O 5360   5.788   2.410   5.292 -0.1149  0.2287  0.1226
  799MOL0     C 5361   5.649   2.404   5.276  0.4180 -0.5604  0.1939
  799MOL0     C 5362   5.554   2.391   5.382 -0.0554 -0.2418 -0.2386
  799MOL0     C 5363   5.412   2.385   5.363  0.1913  0.0682  0.0072
  799MOL0     C 5364   5.356   2.410   5.235 -0.3897 -0.4268  0.6906
  799MOL0     C 5365   5.214   2.408   5.206  0.2130 -0.6142 -0.2968
  799MOL0     O 5366   5.131   2.386   5.309  0.5579  0.0632  0.8576
  799MOL0     C 5367   4.996   2.366   5.292  0.6916 -0.0097  1.1974
  799MOL0     C 5368   4.916   2.420   5.396 -0.5729 -0.7058 -0.1806
  799MOL0     C 5369   4.773   2.406   5.391 -0.1317 -0.6811  0.1630
  799MOL0     C 5370   4.715   2.334   5.285  0.1419 -0.7245 -0.5814
  799MOL0     O 5371   4.577   2.318   5.290 -0.4805 -0.1825 -0.5507
  799MOL0     C 5372   4.515   2.218   5.213 -0.9952  0.1334 -0.4251
  799MOL0     C 5373   4.396   2.157   5.292 -0.4504 -0.0290  0.5565
  799MOL0     C 5374   4.260   2.211   5.262 -1.0552 -0.3666  0.0637
  799MOL0     C 5375   4.154   2.157   5.359  0.1159  0.2756  0.1374
  799MOL0     C 5376   4.020   2.189   5.304 -0.2536  0.6291  0.4086
  799MOL0     C 5377   3.922   2.124   5.402  0.8767 -0.6113 -0.0946
  799MOL0     C 5378   3.786   2.151   5.343  1.4424  0.5492 -0.3018
  799MOL0     C 5379   3.668   2.132   5.455  0.2308  0.5016 -0.5980
  799MOL0    Cl 5380   3.702   1.980   5.554 -0.1088 -0.2459  0.0131
  799MOL0     C 5381   4.802   2.281   5.184 -0.0027  0.9698 -0.0566
  799MOL0     C 5382   4.938   2.298   5.185 -0.2020  0.2955  1.0544
  799MOL0     O 5383   5.175   2.430   5.091  0.0751  0.7565  0.0296
  799MOL0     C 5384   5.449   2.425   5.131 -1.0038 -0.2438  0.0754
  799MOL0     C 5385   5.588   2.423   5.156 -0.3177 -0.4649  0.5780
  799MOL0     N 5386   6.315   2.543   5.365 -0.6343 -0.0338  0.1561
  799MOL0     N 5387   6.387   2.657   5.368 -0.2701 -0.3249  0.3627
  799MOL0     C 5388   7.153   3.539   4.853  0.2560  0.0315 -0.0694
  799MOL0     C 5389   7.137   3.668   4.807 -0.0069 -0.1745 -0.0476
  799MOL0     C 5390   7.124   3.994   4.493 -0.4297 -0.4833 -0.8087
  799MOL0     C 5391   7.235   4.054   4.433 -0.6965  0.0040 -0.5677
  799MOL0     C 5392   7.246   4.188   4.415 -0.5149 -0.4494  0.8761
  799MOL0     C 5393   7.132   4.274   4.442  0.1163  0.1655  0.0953
  799MOL0     O 5394   7.126   4.411   4.400 -0.0750  0.9023  0.0729
  799MOL0     C 5395   7.189   4.510   4.480 -0.0275  0.4925 -0.4564
  799MOL0     C 5396   7.282   4.601   4.400  0.0031 -0.3504  0.1523
  799MOL0     C 5397   7.427   4.555   4.405 -0.3422  0.2547 -0.1016
  799MOL0     C 5398   7.514   4.676   4.439 -0.7485 -0.0541 -0.6103
  799MOL0     C 5399   7.655   4.642   4.448 -0.4605 -0.0717  0.5037
  799MOL0     C 5400   7.774   4.621   4.459  0.9853  1.1453 -0.2215
  799MOL0     C 5401   7.020   4.218   4.506 -0.6672  0.1288  0.6460
  799MOL0     C 5402   7.017   4.079   4.526 -0.4875  0.3154 -0.2184
  799MOL0     H 5403   6.942   3.601   4.540  1.1588 -0.5763  0.2334
  799MOL0     H 5404   6.936   3.395   4.630 -0.0303  1.6832 -2.8957
  799MOL0     H 5405   7.014   3.135   4.949 -0.1053 -1.0620  0.2185
  799MOL0     H 5406   7.001   3.155   4.775  1.8327  0.0896  0.7251
  799MOL0     H 5407   6.799   3.268   4.797 -0.2960 -0.7016 -0.5023
  799MOL0     H 5408   6.843   3.339   4.963  1.2688 -2.1730  1.9548
  799MOL0     H 5409   6.774   3.153   5.070 -1.0001  2.9365 -0.5486
  799MOL0     H 5410   6.779   3.054   4.929  2.0405  1.1725 -0.7449
  799MOL0     H 5411   6.583   3.284   4.993  0.7790  0.6488  0.6825
  799MOL0     H 5412   6.588   3.204   4.832  2.2608 -1.8678  0.2178
  799MOL0     H 5413   6.535   2.990   4.915  1.4104 -0.5420  2.3063
  799MOL0     H 5414   6.413   3.110   4.926  1.0936  2.4396 -0.8741
  799MOL0     H 5415   6.450   3.138   5.169  0.7193  1.7302 -3.1098
  799MOL0     H 5416   6.574   3.010   5.160 -0.1419 -5.4913 -0.9810
  799MOL0     H 5417   6.275   2.968   5.102 -0.5060 -0.0134  1.3972
  799MOL0     H 5418   6.406   2.851   5.074  1.3355 -0.2948  1.8230
  799MOL0     H 5419   6.293   2.951   5.337  1.6573  1.8418  0.7675
  799MOL0     H 5420   6.457   2.903   5.340 -0.2933  0.5933  0.0928
  799MOL0     H 5421   6.139   2.732   5.166  1.5937 -0.0846 -1.7812
  799MOL0     H 5422   6.108   2.446   5.139 -1.6281 -3.2401  1.0076
  799MOL0     H 5423   6.006   2.519   5.267 -1.0886 -2.5614  0.7050
  799MOL0     H 5424   6.128   2.363   5.425  1.2144  2.0819 -1.1710
  799MOL0     H 5425   6.191   2.271   5.287 -0.3806 -1.3402 -0.6199
  799MOL0     H 5426   5.943   2.253   5.207  1.5054  0.0703 -0.4103
  799MOL0     H 5427   5.985   2.146   5.335  0.4927  0.3292 -1.6754
  799MOL0     H 5428   5.867   2.353   5.477 -1.4235  1.4758 -0.5888
  799MOL0     H 5429   5.782   2.222   5.398  1.3905 -1.4091  0.9367
  799MOL0     H 5430   5.599   2.390   5.480 -0.7558 -1.3964  0.0843
  799MOL0     H 5431   5.342   2.393   5.446 -2.5663  3.9224 -2.3488
  799MOL0     H 5432   4.968   2.480   5.470  1.5717 -1.9036 -0.6381
  799MOL0     H 5433   4.711   2.439   5.474 -1.9523 -0.9994 -1.0105
  799MOL0     H 5434   4.586   2.139   5.188 -1.8808 -0.1526 -2.2524
  799MOL0     H 5435   4.492   2.271   5.121  0.0904 -1.0942 -1.4509
  799MOL0     H 5436   4.420   2.169   5.398  0.8121 -0.2374  0.3198
  799MOL0     H 5437   4.405   2.050   5.271 -1.4466 -0.1053  0.5011
  799MOL0     H 5438   4.240   2.209   5.154  2.5064  3.0724 -0.9150
  799MOL0     H 5439   4.255   2.318   5.280 -0.9558 -0.4765  0.7513
  799MOL0     H 5440   4.171   2.049   5.370  0.8562  0.3702 -0.0124
  799MOL0     H 5441   4.167   2.200   5.458  1.4097 -2.5158  1.2967
  799MOL0     H 5442   3.994   2.146   5.207 -5.9783  1.5050  1.1745
  799MOL0     H 5443   3.999   2.294   5.283 -0.8402  0.2686 -0.8769
  799MOL0     H 5444   3.922   2.150   5.509  0.5991  0.4431 -0.3354
  799MOL0     H 5445   3.943   2.017   5.390  1.9260 -0.3170 -1.0514
  799MOL0     H 5446   3.782   2.249   5.294 -0.1590  0.6063 -0.0895
  799MOL0     H 5447   3.761   2.078   5.266  2.2213 -1.3129  1.1330
  799MOL0     H 5448   3.575   2.121   5.398 -0.1037  0.4009 -0.0327
  799MOL0     H 5449   3.666   2.221   5.519  1.8945  0.5909 -0.6246
  799MOL0     H 5450   4.754   2.224   5.105 -0.5258  1.9238 -0.4488
  799MOL0     H 5451   4.996   2.249   5.108 -0.2145 -0.6246  1.6174
  799MOL0     H 5452   5.414   2.426   5.029  1.1256  0.0725 -0.7064
  799MOL0     H 5453   5.659   2.435   5.075 -0.0024 -4.5241  0.0375
  799MOL0     H 5454   7.230   3.513   4.925  0.2107 -1.8595 -0.6533
  799MOL0     H 5455   7.196   3.744   4.858 -2.0565  0.4512  1.5400
  799MOL0     H 5456   7.326   4.004   4.401 -0.2402  2.0078 -2.7171
  799MOL0     H 5457   7.331   4.235   4.367 -1.2401 -1.4505 -1.5652
  799MOL0     H 5458   7.242   4.450   4.554 -1.6713 -1.4121 -0.7590
  799MOL0     H 5459   7.116   4.581   4.522 -0.0654  2.1003 -3.0063
  799MOL0     H 5460   7.260   4.600   4.293 -0.5985 -0.1970  0.2749
  799MOL0     H 5461   7.275   4.703   4.438 -3.3114  0.2452 -1.7397
  799MOL0     H 5462   7.472   4.524   4.310 -1.8385 -1.5893 -0.2584
  799MOL0     H 5463   7.442   4.471   4.473  0.3023 -0.2715 -0.8786
  799MOL0     H 5464   7.497   4.749   4.359 -3.5635  0.6946  0.5778
  799MOL0     H 5465   7.480   4.727   4.529  0.6154 -0.5622  0.2240
  799MOL0     H 5466   7.877   4.598   4.479  0.6723  0.7293  0.9609
  799MOL0     H 5467   6.927   4.274   4.511  0.1312  1.8329 -1.8403
  799MOL0     H 5468   6.922   4.044   4.566 -0.3181  0.1785  0.0685
  800MOL0     O 5469   8.593  10.332   2.505  0.4150 -0.2815 -0.1766
  800MOL0     C 5470   8.616  10.400   2.404 -0.0122  0.3551 -0.9127
  800MOL0     O 5471   8.727  10.473   2.389  0.7112 -0.4435  0.3397
  800MOL0     C 5472   8.826  10.451   2.475 -0.5387  0.4292 -0.6035
  800MOL0     C 5473   8.856  10.560   2.554 -0.1204  0.2811 -1.1784
  800MOL0     C 5474   8.966  10.559   2.627 -0.8784 -0.4872  0.2670
  800MOL0     C 5475   9.058  10.451   2.635 -0.1052  0.1396 -0.6167
  800MOL0     O 5476   9.148  10.456   2.735 -0.2953 -0.0888 -0.1442
  800MOL0     C 5477   9.221  10.335   2.777 -0.0145  0.0948  0.4980
  800MOL0     C 5478   9.331  10.375   2.868  0.0345 -0.2894  0.0781
  800MOL0     C 5479   9.390  10.253   2.933  0.0557  0.5607  0.8559
  800MOL0     C 5480   9.507  10.284   3.028 -0.3219 -0.7527  0.1531
  800MOL0     C 5481   9.537  10.176   3.130 -0.1150 -0.1347 -1.0714
  800MOL0     C 5482   9.608  10.056   3.070  0.1082 -0.6904  0.4082
  800MOL0     C 5483   9.753  10.073   3.032  0.8864 -0.0840 -0.3677
  800MOL0     C 5484   9.844   9.943   3.022 -0.3191  0.3803 -0.2574
  800MOL0     N 5485   9.822   9.863   2.894  0.7835 -0.1097 -0.6192
  800MOL0     C 5486   9.827   9.721   2.871  0.7588 -0.1006  0.0924
  800MOL0     C 5487   9.779   9.706   2.746  0.5028  1.1914 -0.1996
  800MOL0     C 5488   9.751   9.578   2.673 -1.2926  0.3070 -0.8780
  800MOL0     C 5489   9.636   9.499   2.739 -0.5667  0.3138 -0.4771
  800MOL0     C 5490   9.686   9.385   2.830 -0.1582 -0.3639  0.1468
  800MOL0     C 5491   9.579   9.321   2.907 -0.4253 -0.1662 -0.7086
  800MOL0     O 5492   9.524   9.416   2.997 -0.3573 -0.1777 -0.4179
  800MOL0     C 5493   9.391   9.390   3.041  0.3896  0.1094  0.4568
  800MOL0     C 5494   9.359   9.360   3.175  0.3052 -0.4571 -0.8635
  800MOL0     C 5495   9.227   9.349   3.210  0.2025  0.3027 -0.6815
  800MOL0     C 5496   9.122   9.361   3.120 -0.0399 -0.2289  0.0848
  800MOL0     C 5497   8.991   9.332   3.170 -0.8519  0.4908  0.0994
  800MOL0     O 5498   8.979   9.276   3.289  0.4061  0.3773 -0.7341
  800MOL0     C 5499   8.849   9.250   3.331  0.2419 -0.0271  0.3115
  800MOL0     C 5500   8.793   9.126   3.289 -0.6709  0.6984  0.1866
  800MOL0     C 5501   8.667   9.083   3.328 -0.2113  0.0629 -0.5222
  800MOL0     C 5502   8.590   9.165   3.411  0.3990 -0.6949  0.2173
  800MOL0     O 5503   8.466   9.127   3.462 -0.1293 -0.1419 -0.6272
  800MOL0     C 5504   8.473   9.053   3.591 -0.0532 -0.3523 -0.4836
  800MOL0     C 5505   8.328   9.023   3.646  0.3467  0.6343 -0.5187
  800MOL0     C 5506   8.253   9.161   3.662 -0.4942  0.1221 -0.0200
  800MOL0     C 5507   8.140   9.143   3.763  0.1565  0.2381  0.5522
  800MOL0     C 5508   8.045   9.270   3.767  0.0461 -0.0315 -0.1185
  800MOL0     C 5509   7.943   9.251   3.883  0.0491 -0.6677 -0.0784
  800MOL0     C 5510   7.837   9.152   3.867 -0.1248  0.2107 -0.0660
  800MOL0     C 5511   7.768   9.145   4.000  0.5010 -0.1696 -0.7747
  800MOL0    Cl 5512   7.857   9.066   4.125  0.1440  0.0695 -0.5235
  800MOL0     C 5513   8.640   9.287   3.457 -0.6309  0.5376  0.0756
  800MOL0     C 5514   8.768   9.329   3.417  0.1506  0.3534 -0.0055
  800MOL0     O 5515   8.896   9.368   3.103  0.3653  0.0003 -0.2277
  800MOL0     C 5516   9.147   9.399   2.988 -0.1801 -0.5341 -0.2504
  800MOL0     C 5517   9.286   9.405   2.946  0.2951  0.6024  0.3733
  800MOL0     N 5518   9.742   9.835   2.696 -0.1854  0.2678 -0.4941
  800MOL0     N 5519   9.779   9.928   2.781  0.4325  0.7924 -0.3898
  800MOL0     C 5520   9.020  10.333   2.559  0.2628  0.7006  0.6001
  800MOL0     C 5521   8.911  10.339   2.470 -0.6482  0.2003  0.4485
  800MOL0     C 5522   8.504  10.413   2.309 -1.1177 -0.0329 -0.6224
  800MOL0     C 5523   8.511  10.513   2.217 -0.3640 -0.0006  0.1904
  800MOL0     C 5524   8.415  10.518   2.117  0.1184 -0.4580  0.6108
  800MOL0     C 5525   8.304  10.435   2.118 -0.0371 -0.0409  0.1951
  800MOL0     O 5526   8.213  10.426   2.018 -0.2124  0.7198 -0.2787
  800MOL0     C 5527   8.174  10.539   1.938  1.1546 -0.1169 -0.5433
  800MOL0     C 5528   8.211  10.512   1.791 -0.1771  1.0192 -0.2002
  800MOL0     C 5529   8.365  10.509   1.780  0.3438  0.2857 -0.6890
  800MOL0     C 5530   8.413  10.521   1.637 -0.7350 -0.5689 -0.5153
  800MOL0     C 5531   8.399  10.384   1.588  0.1988  0.4059  0.2211
  800MOL0     C 5532   8.374  10.266   1.556 -0.1738  0.1799  0.1921
  800MOL0     C 5533   8.297  10.340   2.222  0.6430  0.6758 -0.4701
  800MOL0     C 5534   8.398  10.336   2.320 -0.0945 -0.0562 -0.1039
  800MOL0     H 5535   8.786  10.643   2.554 -0.2591  0.2138  1.0016
  800MOL0     H 5536   8.973  10.645   2.693  1.1544 -0.6784  0.3802
  800MOL0     H 5537   9.257  10.284   2.687 -1.8084 -1.8236  0.7817
  800MOL0     H 5538   9.149  10.272   2.831 -0.6752  1.5190  1.3349
  800MOL0     H 5539   9.297  10.447   2.943 -1.3065 -2.2331  1.4400
  800MOL0     H 5540   9.410  10.423   2.809  2.5773 -2.6910  1.2962
  800MOL0     H 5541   9.415  10.178   2.857 -0.5493 -1.8313  2.8829
  800MOL0     H 5542   9.310  10.204   2.989  0.3476  0.2038  0.9651
  800MOL0     H 5543   9.597  10.306   2.969  0.7137 -2.3261  1.0648
  800MOL0     H 5544   9.469  10.373   3.078 -1.3631 -1.4024  0.5582
  800MOL0     H 5545   9.449  10.136   3.181  1.8582  0.0310  2.8296
  800MOL0     H 5546   9.603  10.206   3.213  0.6778  2.5187 -2.5488
  800MOL0     H 5547   9.551  10.033   2.980 -1.4642  1.8154  0.6449
  800MOL0     H 5548   9.611   9.979   3.148  0.8834 -0.5454  0.5299
  800MOL0     H 5549   9.754  10.123   2.935  0.7240  1.6497  0.4932
  800MOL0     H 5550   9.799  10.142   3.103 -0.5024  1.4053 -0.8587
  800MOL0     H 5551   9.829   9.879   3.109 -0.9807 -0.2828 -0.8419
  800MOL0     H 5552   9.949   9.972   3.010 -0.6809  1.3460 -1.2528
  800MOL0     H 5553   9.866   9.644   2.937 -0.2623  0.2417  1.1209
  800MOL0     H 5554   9.845   9.521   2.673 -1.2305  0.4074 -1.2622
  800MOL0     H 5555   9.710   9.605   2.576 -0.0992  0.5340 -1.3409
  800MOL0     H 5556   9.578   9.449   2.660  1.1816 -0.3966 -1.3562
  800MOL0     H 5557   9.562   9.566   2.784 -2.3580 -0.9354 -1.4167
  800MOL0     H 5558   9.739   9.302   2.783 -1.1264 -2.7944  2.9828
  800MOL0     H 5559   9.745   9.424   2.914  0.1127 -1.5445  0.5161
  800MOL0     H 5560   9.611   9.239   2.972 -1.0326 -0.5996 -0.9408
  800MOL0     H 5561   9.506   9.281   2.836  1.1533 -1.6953 -1.5630
  800MOL0     H 5562   9.434   9.334   3.249 -0.0682  2.3864  0.6455
  800MOL0     H 5563   9.217   9.306   3.309 -1.9669 -1.5002 -1.5948
  800MOL0     H 5564   8.859   9.054   3.241 -0.4748  2.5065 -2.4595
  800MOL0     H 5565   8.618   8.995   3.289 -1.2479  0.3706  0.0580
  800MOL0     H 5566   8.521   9.114   3.668 -1.4557  0.6633 -0.3702
  800MOL0     H 5567   8.529   8.960   3.575  0.2534 -0.3116  0.3200
  800MOL0     H 5568   8.336   8.957   3.732 -2.2316 -0.4003 -0.9681
  800MOL0     H 5569   8.260   8.970   3.578 -0.9230 -0.7274  1.6994
  800MOL0     H 5570   8.219   9.205   3.567 -2.0732  0.3509  0.6236
  800MOL0     H 5571   8.325   9.233   3.702 -1.3842  1.2615 -0.4206
  800MOL0     H 5572   8.078   9.056   3.739 -0.3112  0.2382  1.7172
  800MOL0     H 5573   8.176   9.122   3.864 -0.4215 -1.0556  0.5119
  800MOL0     H 5574   7.998   9.293   3.671  0.8574  0.1529 -0.4832
  800MOL0     H 5575   8.103   9.362   3.771 -0.3249  0.3067 -1.7987
  800MOL0     H 5576   7.890   9.344   3.903 -1.3395 -1.7022  1.2691
  800MOL0     H 5577   8.003   9.231   3.972  1.7896  2.9390 -0.2661
  800MOL0     H 5578   7.766   9.181   3.790  0.1612 -1.2182 -0.8991
  800MOL0     H 5579   7.877   9.054   3.842  0.8248  0.2051  1.3606
  800MOL0     H 5580   7.676   9.088   3.986 -0.3486  0.3588  2.0284
  800MOL0     H 5581   7.728   9.244   4.026  0.6541 -0.6828  1.6559
  800MOL0     H 5582   8.572   9.342   3.522 -2.0568 -1.8104  0.6967
  800MOL0     H 5583   8.819   9.422   3.439 -0.3181  0.3665  1.0819
  800MOL0     H 5584   9.073   9.417   2.911 -1.1459  0.3976  0.8535
  800MOL0     H 5585   9.311   9.428   2.843 -0.3131  1.0930  0.3298
  800MOL0     H 5586   9.076  10.240   2.560 -0.2258  0.3458 -1.2518
  800MOL0     H 5587   8.888  10.255   2.404  0.5633  0.1287  0.0947
  800MOL0     H 5588   8.591  10.586   2.221 -1.5978  1.4125 -0.2989
  800MOL0     H 5589   8.424  10.588   2.034 -1.8214 -2.4035 -1.3937
  800MOL0     H 5590   8.216  10.633   1.974  0.1662  0.8156 -1.7377
  800MOL0     H 5591   8.065  10.540   1.939  1.1147  0.4941  1.9391
  800MOL0     H 5592   8.162  10.418   1.767 -2.0223  1.8449  0.1687
  800MOL0     H 5593   8.165  10.592   1.732  2.3487  0.7490 -2.7925
  800MOL0     H 5594   8.411  10.428   1.838 -0.1248  1.1591  0.9624
  800MOL0     H 5595   8.403  10.598   1.832  2.8419 -1.7977  1.3990
  800MOL0     H 5596   8.365  10.603   1.583  1.8107  1.6650  0.4324
  800MOL0     H 5597   8.519  10.547   1.630 -1.6913  4.5000  0.2851
  800MOL0     H 5598   8.348  10.166   1.527  0.8145 -0.3605  1.0898
  800MOL0     H 5599   8.227  10.256   2.222  3.4480 -1.8455  0.0866
  800MOL0     H 5600   8.391  10.271   2.407  1.7637  0.2613  0.3221
  801MOL0     O 5601   2.463  10.538   7.116  0.0850  0.6166  0.8084
  801MOL0     C 5602   2.474  10.616   7.017 -0.0021  0.8262  0.4217
  801MOL0     O 5603   2.576  10.618   6.929 -0.1516 -0.0273  0.2667
  801MOL0     C 5604   2.666  10.513   6.910  0.1462  0.0481 -0.6389
  801MOL0     C 5605   2.649  10.386   6.947 -0.0165 -0.5728  0.6823
  801MOL0     C 5606   2.754  10.292   6.947 -0.0651  0.1257  0.1756
  801MOL0     C 5607   2.879  10.333   6.904  0.0235  0.4413 -0.1837
  801MOL0     O 5608   2.988  10.249   6.912  0.5652  0.2325 -0.8867
  801MOL0     C 5609   3.003  10.160   7.021  0.1406 -0.1569  0.1485
  801MOL0     C 5610   3.053  10.235   7.146  0.3085  1.1520  0.2312
  801MOL0     C 5611   3.053  10.137   7.267 -0.7235  0.0101  0.5234
  801MOL0     C 5612   3.091  10.212   7.391 -0.5854  0.3264 -1.2255
  801MOL0     C 5613   3.111  10.133   7.517  0.2279 -0.5078 -0.5973
  801MOL0     C 5614   3.116  10.213   7.655  0.5041  0.1920  0.2013
  801MOL0     C 5615   3.157  10.131   7.769  0.8040 -0.7017  0.0167
  801MOL0     C 5616   3.042  10.032   7.796 -0.4459 -0.6372  0.1159
  801MOL0     N 5617   3.080   9.978   7.927 -0.0625  0.4708  0.0140
  801MOL0     C 5618   3.065  10.050   8.043  0.1621 -0.8847 -0.3853
  801MOL0     C 5619   3.117   9.970   8.136 -0.0108 -0.6090 -0.0413
  801MOL0     C 5620   3.103   9.980   8.282  0.2944 -0.6682  0.3144
  801MOL0     C 5621   2.967   9.955   8.347 -1.1105 -0.0028  0.3758
  801MOL0     C 5622   2.906   9.831   8.288 -0.2126 -0.4944  0.3363
  801MOL0     C 5623   2.773   9.792   8.354  0.3857  0.5264 -0.0365
  801MOL0     O 5624   2.682   9.894   8.310 -0.4390  0.6606  0.5596
  801MOL0     C 5625   2.552   9.878   8.331  0.3989 -0.7499  0.3299
  801MOL0     C 5626   2.491   9.789   8.422 -0.3851 -0.1364  0.1163
  801MOL0     C 5627   2.350   9.775   8.426 -0.0372  0.3267  0.8914
  801MOL0     C 5628   2.269   9.854   8.338  0.6497 -0.4044  0.6207
  801MOL0     C 5629   2.116   9.841   8.354 -0.0004 -0.3072  0.7719
  801MOL0     O 5630   2.072   9.733   8.416  0.2311  0.0212 -0.2498
  801MOL0     C 5631   1.943   9.709   8.443  0.3284 -0.7198  0.0313
  801MOL0     C 5632   1.862   9.801   8.508  0.2539 -0.1757  0.4491
  801MOL0     C 5633   1.732   9.768   8.524 -0.1270  0.6605 -0.7016
  801MOL0     C 5634   1.684   9.644   8.490  0.2729  0.8910  1.1909
  801MOL0     O 5635   1.549   9.604   8.489  0.7525  0.7906 -0.4919
  801MOL0     C 5636   1.473   9.635   8.606 -0.3516  0.6105 -0.5467
  801MOL0     C 5637   1.337   9.666   8.546 -0.0671 -0.0746 -0.3052
  801MOL0     C 5638   1.245   9.717   8.660 -0.3831  0.4438 -0.5354
  801MOL0     C 5639   1.097   9.726   8.613 -0.1352 -0.6431 -0.3109
  801MOL0     C 5640   1.006   9.688   8.734 -0.3434  0.1414 -0.2612
  801MOL0     C 5641   1.013   9.785   8.854 -0.0602  1.0528 -0.6035
  801MOL0     C 5642   0.970   9.709   8.982  0.5533  0.4367 -0.2221
  801MOL0     C 5643   0.969   9.807   9.092 -0.7407 -0.3810  0.5044
  801MOL0    Cl 5644   1.125   9.872   9.138 -0.0796  0.2721  0.2672
  801MOL0     C 5645   1.762   9.557   8.416  0.6838  0.1295 -0.5954
  801MOL0     C 5646   1.893   9.587   8.390 -0.0217  0.4197  0.5227
  801MOL0     O 5647   2.051   9.923   8.285 -0.2093  0.8212  0.8979
  801MOL0     C 5648   2.335   9.951   8.262 -0.0856 -0.1528 -0.4228
  801MOL0     C 5649   2.473   9.970   8.254 -0.2760  1.0722  0.2635
  801MOL0     N 5650   3.154   9.855   8.075 -0.0722  0.1818  0.4318
  801MOL0     N 5651   3.132   9.853   7.946 -0.3300  0.1938  0.1497
  801MOL0     C 5652   2.899  10.463   6.855 -1.2491  0.1935  0.3944
  801MOL0     C 5653   2.790  10.549   6.853  0.1525  0.6548 -0.0568
  801MOL0     C 5654   2.350  10.697   6.988  0.4721  0.4604  0.6180
  801MOL0     C 5655   2.353  10.784   6.876 -0.3130  0.6048 -0.4234
  801MOL0     C 5656   2.243  10.856   6.831 -0.3093 -1.0105 -0.5923
  801MOL0     C 5657   2.116  10.836   6.887  0.1539 -0.5038  0.0245
  801MOL0     O 5658   2.004  10.891   6.847 -0.3224  0.3923  0.0077
  801MOL0     C 5659   1.920  10.816   6.760  0.5820  0.8402 -0.3398
  801MOL0     C 5660   1.807  10.901   6.690  0.4936 -0.7498 -0.1764
  801MOL0     C 5661   1.698  10.814   6.627  0.1239  0.2751 -0.0757
  801MOL0     C 5662   1.574  10.897   6.589 -0.2411 -0.3786  0.1030
  801MOL0     C 5663   1.486  10.924   6.700  0.0979 -0.8135 -0.6098
  801MOL0     C 5664   1.424  10.939   6.802  0.2454 -0.0280  0.2574
  801MOL0     C 5665   2.110  10.755   7.000 -0.1336 -0.1526 -1.0249
  801MOL0     C 5666   2.219  10.678   7.051  1.1516 -0.2997  0.1240
  801MOL0     H 5667   2.547  10.374   6.983 -0.2483  3.5654  1.9821
  801MOL0     H 5668   2.719  10.193   6.975 -1.5560  0.1792 -1.3511
  801MOL0     H 5669   3.083  10.092   6.991  0.7351  0.8382 -0.6027
  801MOL0     H 5670   2.909  10.109   7.042 -1.3090  2.2827  0.0283
  801MOL0     H 5671   2.994  10.325   7.167 -0.1777  0.7320  0.6839
  801MOL0     H 5672   3.156  10.265   7.121  1.1913  1.1183  3.3544
  801MOL0     H 5673   3.128  10.061   7.243  0.9670  1.1657  1.8349
  801MOL0     H 5674   2.959  10.083   7.275 -0.6547 -0.5256 -1.6832
  801MOL0     H 5675   3.185  10.267   7.383 -0.2254 -0.0365  0.2658
  801MOL0     H 5676   3.009  10.281   7.414  1.0780  1.2958  2.6282
  801MOL0     H 5677   3.195  10.064   7.516  0.7567  0.1099  0.0663
  801MOL0     H 5678   3.031  10.059   7.517  0.9025 -1.2595 -0.2216
  801MOL0     H 5679   3.025  10.265   7.686  1.6644  2.1434  0.5038
  801MOL0     H 5680   3.189  10.294   7.650  1.4470 -0.4767  2.1174
  801MOL0     H 5681   3.251  10.081   7.744 -1.6529 -4.6529 -2.2902
  801MOL0     H 5682   3.175  10.204   7.848 -2.5531  2.0221 -1.4753
  801MOL0     H 5683   3.039   9.955   7.718  3.5166 -0.4483 -0.4033
  801MOL0     H 5684   2.942  10.072   7.817 -0.7030 -1.8261  1.3279
  801MOL0     H 5685   3.029  10.152   8.056 -0.8817 -1.1268 -1.1944
  801MOL0     H 5686   3.111  10.085   8.310 -3.9197  0.7635 -2.9128
  801MOL0     H 5687   3.177   9.912   8.327  1.7652  1.5170  1.3800
  801MOL0     H 5688   2.910  10.046   8.328  0.3054  1.2194  1.7707
  801MOL0     H 5689   2.975   9.933   8.454  2.0877  0.1332  0.2357
  801MOL0     H 5690   2.882   9.847   8.182 -2.4360  0.2095  0.8998
  801MOL0     H 5691   2.966   9.739   8.292 -0.2991 -0.6540 -1.2526
  801MOL0     H 5692   2.776   9.792   8.463  3.0832  1.4121 -0.0221
  801MOL0     H 5693   2.742   9.697   8.310  1.1295  0.8824 -1.4280
  801MOL0     H 5694   2.556   9.724   8.479  2.0609 -0.3104 -2.6518
  801MOL0     H 5695   2.297   9.697   8.480 -2.6444  1.8046  0.6301
  801MOL0     H 5696   1.899   9.896   8.545 -1.2409  0.6959 -0.1963
  801MOL0     H 5697   1.661   9.828   8.581 -0.1213 -1.7576  2.0895
  801MOL0     H 5698   1.516   9.713   8.668  0.5237 -0.8248  0.7160
  801MOL0     H 5699   1.459   9.553   8.676  0.8682  0.6420 -0.2466
  801MOL0     H 5700   1.303   9.573   8.498  1.3417 -0.9958  0.3914
  801MOL0     H 5701   1.355   9.738   8.466  0.4672 -0.5247 -0.6025
  801MOL0     H 5702   1.281   9.813   8.699 -2.1328  0.8831  0.1174
  801MOL0     H 5703   1.262   9.636   8.731  1.3837 -0.7983 -2.2716
  801MOL0     H 5704   1.074   9.830   8.588  1.3373  0.6267  3.0323
  801MOL0     H 5705   1.089   9.656   8.529  2.3945  0.0564 -1.2193
  801MOL0     H 5706   1.034   9.589   8.770 -0.5284 -0.3952 -1.5170
  801MOL0     H 5707   0.899   9.685   8.711 -1.1369  4.3530  1.9783
  801MOL0     H 5708   0.950   9.874   8.847 -0.1796  1.2225  1.7507
  801MOL0     H 5709   1.113   9.823   8.874 -0.9363  2.4457  1.4395
  801MOL0     H 5710   0.874   9.658   8.976  1.4179 -1.6291  1.6919
  801MOL0     H 5711   1.046   9.630   8.993  0.0870 -0.1032 -0.8367
  801MOL0     H 5712   0.940   9.750   9.180 -5.7754 -1.5127 -1.5810
  801MOL0     H 5713   0.895   9.881   9.059  0.4181 -0.2608 -2.1552
  801MOL0     H 5714   1.725   9.472   8.361  2.2387  0.0064 -1.4769
  801MOL0     H 5715   1.950   9.515   8.333 -0.4833  1.1383 -0.8971
  801MOL0     H 5716   2.274  10.015   8.199  4.0968  1.8755 -2.7967
  801MOL0     H 5717   2.532  10.042   8.199 -0.2280  0.9062  0.0986
  801MOL0     H 5718   2.990  10.491   6.803 -1.3261 -2.3595 -1.2739
  801MOL0     H 5719   2.800  10.644   6.801 -2.1257  1.7199  1.2837
  801MOL0     H 5720   2.447  10.795   6.822 -0.9715 -0.5663 -1.9069
  801MOL0     H 5721   2.265  10.927   6.751  0.4645 -1.4760 -0.8052
  801MOL0     H 5722   1.867  10.746   6.826  1.1125  0.0383 -0.7476
  801MOL0     H 5723   1.976  10.764   6.682 -1.4654  0.3921 -1.5617
  801MOL0     H 5724   1.765  10.961   6.771  3.0730 -1.3254  1.6862
  801MOL0     H 5725   1.859  10.959   6.613 -0.1473 -0.6224 -0.5300
  801MOL0     H 5726   1.673  10.737   6.701  0.4738  0.1772 -0.0578
  801MOL0     H 5727   1.737  10.758   6.542 -1.7131  2.6202 -2.6236
  801MOL0     H 5728   1.606  10.982   6.527  0.5824  0.1173  1.1601
  801MOL0     H 5729   1.513  10.837   6.522 -0.2266 -2.6846  2.0416
  801MOL0     H 5730   1.375  10.954   6.896  3.3424 -2.4869  2.5090
  801MOL0     H 5731   2.014  10.735   7.047  0.3691  0.8293  0.4972
  801MOL0     H 5732   2.211  10.615   7.140 -0.7474 -3.1340 -1.8970
  802MOL0     O 5733   7.628   5.722   1.666  0.3621  0.6534  0.5256
  802MOL0     C 5734   7.669   5.684   1.769  0.3587 -0.5874  0.1730
  802MOL0     O 5735   7.594   5.641   1.873 -0.0676 -0.2844 -0.6320
  802MOL0     C 5736   7.457   5.645   1.887 -0.3288  0.0299  0.3425
  802MOL0     C 5737   7.417   5.589   2.010 -0.8170 -0.3234 -0.1623
  802MOL0     C 5738   7.285   5.575   2.036  1.0252 -0.6560 -1.1184
  802MOL0     C 5739   7.187   5.595   1.940 -0.4348 -0.0760  0.2617
  802MOL0     O 5740   7.059   5.548   1.965  0.1143  0.2046  0.4194
  802MOL0     C 5741   6.967   5.536   1.853 -0.4773  0.9660  0.6061
  802MOL0     C 5742   6.892   5.667   1.840  0.2341 -0.1507  0.1313
  802MOL0     C 5743   6.793   5.654   1.725  0.3544 -0.4476 -0.4302
  802MOL0     C 5744   6.683   5.760   1.757  0.4394  0.3362  0.3662
  802MOL0     C 5745   6.572   5.754   1.641  0.1065 -0.4262  0.2273
  802MOL0     C 5746   6.426   5.780   1.683  0.5307 -0.3173  0.0559
  802MOL0     C 5747   6.365   5.670   1.774  0.2776 -0.0167 -0.1882
  802MOL0     C 5748   6.371   5.532   1.703 -0.0303 -0.2005 -0.2098
  802MOL0     N 5749   6.307   5.536   1.572  0.4731 -0.3248  0.1402
  802MOL0     C 5750   6.168   5.569   1.562 -0.7000  0.3687 -0.4003
  802MOL0     C 5751   6.136   5.555   1.431 -0.9244 -0.8782 -0.3960
  802MOL0     C 5752   6.005   5.594   1.365  0.5860 -0.2409 -0.3067
  802MOL0     C 5753   5.886   5.515   1.420 -0.5860 -0.1296 -0.2044
  802MOL0     C 5754   5.756   5.541   1.346  0.0181  0.4058  0.6025
  802MOL0     C 5755   5.638   5.462   1.407  0.0023  0.1013  0.3335
  802MOL0     O 5756   5.514   5.509   1.350  0.3188 -0.2198 -0.0684
  802MOL0     C 5757   5.397   5.435   1.368 -0.1984 -0.2834 -0.1234
  802MOL0     C 5758   5.298   5.439   1.270  0.6861 -0.8227  0.6326
  802MOL0     C 5759   5.187   5.354   1.267 -0.9692 -0.6516  0.0626
  802MOL0     C 5760   5.164   5.283   1.388 -1.2829  0.9360  0.5332
  802MOL0     C 5761   5.036   5.217   1.404 -0.1720 -0.4140  1.1713
  802MOL0     O 5762   4.950   5.227   1.300 -0.3151  0.3632 -0.2718
  802MOL0     C 5763   4.821   5.176   1.311 -1.0037 -1.2482  0.2132
  802MOL0     C 5764   4.761   5.119   1.196 -1.5081 -0.0835  0.2233
  802MOL0     C 5765   4.631   5.071   1.201 -0.7929  0.4095 -0.6209
  802MOL0     C 5766   4.559   5.089   1.315 -0.0282 -0.4253  1.0218
  802MOL0     O 5767   4.434   5.039   1.317 -0.2284 -0.5409 -0.4363
  802MOL0     C 5768   4.374   4.982   1.434 -0.4182 -0.1153  0.5562
  802MOL0     C 5769   4.293   5.091   1.506 -0.6516 -0.6126 -0.3439
  802MOL0     C 5770   4.148   5.106   1.461  0.1115  0.2692 -0.5737
  802MOL0     C 5771   4.056   5.009   1.546  0.1667  0.7407  0.8543
  802MOL0     C 5772   3.922   4.984   1.468 -0.7090  0.0874 -0.1023
  802MOL0     C 5773   3.847   4.886   1.548 -0.5517 -0.9430 -0.3087
  802MOL0     C 5774   3.706   4.864   1.497 -0.4751 -0.7148  0.3252
  802MOL0     C 5775   3.706   4.769   1.374 -0.8701 -0.6664 -0.6824
  802MOL0    Cl 5776   3.545   4.726   1.336  0.0166 -0.3653 -0.1240
  802MOL0     C 5777   4.608   5.158   1.427 -0.9047  0.6581  0.2310
  802MOL0     C 5778   4.746   5.200   1.424  0.8065  0.0085  0.4692
  802MOL0     O 5779   5.013   5.159   1.511  0.3326 -0.1135  0.4106
  802MOL0     C 5780   5.260   5.283   1.494  0.5776 -0.2012 -0.3292
  802MOL0     C 5781   5.377   5.356   1.478  0.9216 -0.8858 -0.1795
  802MOL0     N 5782   6.243   5.502   1.366 -0.3425 -0.2815 -0.1699
  802MOL0     N 5783   6.349   5.507   1.443  0.0074  0.8005  0.1964
  802MOL0     C 5784   7.224   5.656   1.816 -0.9267 -0.4190 -0.7381
  802MOL0     C 5785   7.364   5.689   1.795 -0.0707  0.1446 -0.0652
  802MOL0     C 5786   7.817   5.686   1.786 -0.4426  0.0652 -0.3367
  802MOL0     C 5787   7.875   5.599   1.873 -0.0687 -0.9160 -0.2055
  802MOL0     C 5788   8.015   5.618   1.889 -0.6731 -0.5693  0.4346
  802MOL0     C 5789   8.094   5.710   1.818 -0.6671 -0.4070  0.5553
  802MOL0     O 5790   8.230   5.723   1.841 -0.1595 -0.1104  0.0254
  802MOL0     C 5791   8.309   5.656   1.750 -1.0801  0.7283 -0.0964
  802MOL0     C 5792   8.459   5.700   1.739 -0.3666 -0.3500 -0.6006
  802MOL0     C 5793   8.553   5.625   1.842  0.5577  0.5100  0.5368
  802MOL0     C 5794   8.687   5.600   1.771  0.3353 -0.4790 -0.0545
  802MOL0     C 5795   8.778   5.551   1.875  0.3982 -0.2237  0.0430
  802MOL0     C 5796   8.856   5.495   1.954  0.2078 -0.1457 -0.2366
  802MOL0     C 5797   8.031   5.788   1.722 -0.5641 -0.1458 -0.8018
  802MOL0     C 5798   7.892   5.780   1.706 -0.1443  0.0852  0.0381
  802MOL0     H 5799   7.500   5.567   2.077  0.4352 -2.3810 -2.2323
  802MOL0     H 5800   7.251   5.543   2.134 -2.1516 -1.2835 -2.3280
  802MOL0     H 5801   6.903   5.452   1.880  1.8102  0.0488  3.7317
  802MOL0     H 5802   7.025   5.506   1.765 -1.3014 -0.3066  0.4811
  802MOL0     H 5803   6.957   5.749   1.808 -1.1649 -0.2179 -3.3809
  802MOL0     H 5804   6.844   5.689   1.936 -0.5962 -2.6040  0.3489
  802MOL0     H 5805   6.740   5.559   1.722 -0.9450  0.2824 -1.5400
  802MOL0     H 5806   6.846   5.666   1.630  0.7337 -3.0906 -0.6179
  802MOL0     H 5807   6.627   5.743   1.850 -2.4654  3.0142 -0.7246
  802MOL0     H 5808   6.728   5.859   1.773 -0.5227  0.7654  0.5207
  802MOL0     H 5809   6.570   5.660   1.584  0.3552  0.0560 -0.6028
  802MOL0     H 5810   6.596   5.827   1.563 -1.5459  0.3624  0.4358
  802MOL0     H 5811   6.366   5.796   1.593  0.8875  1.7018  0.1256
  802MOL0     H 5812   6.428   5.877   1.732  4.7840 -0.3308  0.3472
  802MOL0     H 5813   6.422   5.653   1.866 -1.7856 -1.6978  0.8582
  802MOL0     H 5814   6.265   5.705   1.801  0.5049  0.0886  0.5374
  802MOL0     H 5815   6.323   5.470   1.778 -2.9016  4.3381  2.1519
  802MOL0     H 5816   6.476   5.503   1.688  0.2363  1.3768 -1.8880
  802MOL0     H 5817   6.106   5.609   1.641  1.8634  0.0983  1.8749
  802MOL0     H 5818   6.010   5.583   1.257  0.4382  1.5059 -0.5147
  802MOL0     H 5819   6.003   5.702   1.380  4.7064 -0.0627  0.0181
  802MOL0     H 5820   5.873   5.543   1.524  2.5918 -0.0493  0.2856
  802MOL0     H 5821   5.913   5.409   1.414 -3.1587 -0.8023 -1.2737
  802MOL0     H 5822   5.719   5.643   1.357 -2.0386 -0.4673  2.8736
  802MOL0     H 5823   5.774   5.515   1.242 -0.5548 -4.0121  1.3997
  802MOL0     H 5824   5.643   5.464   1.516 -2.0672 -0.1412  0.4553
  802MOL0     H 5825   5.656   5.355   1.398  0.3555  0.2647 -1.2007
  802MOL0     H 5826   5.309   5.513   1.190 -0.0354  0.0031  1.2727
  802MOL0     H 5827   5.107   5.372   1.195 -0.3932  0.4779 -0.3237
  802MOL0     H 5828   4.814   5.123   1.101  0.6707 -0.1398  1.3806
  802MOL0     H 5829   4.584   5.012   1.123 -0.3145 -0.7196 -0.0657
  802MOL0     H 5830   4.442   4.941   1.510  1.2855 -1.0504 -1.3695
  802MOL0     H 5831   4.316   4.893   1.405  2.1743 -2.1804  1.3104
  802MOL0     H 5832   4.345   5.186   1.489  3.6582 -1.9291  3.4873
  802MOL0     H 5833   4.294   5.088   1.616 -3.3494  0.5119 -0.2175
  802MOL0     H 5834   4.147   5.084   1.354 -1.8356 -0.1683 -0.5076
  802MOL0     H 5835   4.119   5.210   1.480  1.2080  1.1876 -3.4628
  802MOL0     H 5836   4.119   4.920   1.554 -0.2502  0.5763  2.9860
  802MOL0     H 5837   4.042   5.053   1.646  3.5200  1.4506  1.1358
  802MOL0     H 5838   3.935   4.946   1.366 -1.2154  0.2805 -0.2460
  802MOL0     H 5839   3.868   5.078   1.457 -0.9672 -0.1304 -0.7377
  802MOL0     H 5840   3.844   4.924   1.651 -0.6100  3.1343 -1.6347
  802MOL0     H 5841   3.902   4.795   1.524  0.9056 -0.4859  1.1199
  802MOL0     H 5842   3.643   4.817   1.572  0.2020 -2.9070 -0.3999
  802MOL0     H 5843   3.663   4.959   1.464  0.5572 -0.9072 -1.7350
  802MOL0     H 5844   3.752   4.675   1.407  1.0029  0.6344  0.5889
  802MOL0     H 5845   3.758   4.811   1.287 -2.1561 -0.5370 -1.4084
  802MOL0     H 5846   4.541   5.178   1.511 -0.5902  3.6512 -0.1271
  802MOL0     H 5847   4.790   5.259   1.503  3.8849  0.5436 -1.4833
  802MOL0     H 5848   5.261   5.225   1.586 -0.2652 -1.5726 -1.1490
  802MOL0     H 5849   5.454   5.359   1.555  0.4384  0.8674  0.2661
  802MOL0     H 5850   7.162   5.675   1.729 -2.6251 -0.0192  0.5128
  802MOL0     H 5851   7.397   5.740   1.705 -1.7000  3.0368  0.8364
  802MOL0     H 5852   7.818   5.532   1.937  0.2917  0.0475  1.1910
  802MOL0     H 5853   8.076   5.564   1.960  0.7754  2.1509  1.4051
  802MOL0     H 5854   8.263   5.669   1.652 -1.2940 -2.4496 -0.5270
  802MOL0     H 5855   8.312   5.550   1.777  2.2618  0.4015 -1.2223
  802MOL0     H 5856   8.499   5.677   1.640  0.3138  0.8964 -0.6385
  802MOL0     H 5857   8.457   5.809   1.742  0.2396 -0.3546  0.6563
  802MOL0     H 5858   8.516   5.529   1.880  1.5373  0.0362  0.3124
  802MOL0     H 5859   8.560   5.688   1.931 -0.0087 -1.1460  1.8069
  802MOL0     H 5860   8.684   5.527   1.690 -0.5995 -0.2559 -0.2278
  802MOL0     H 5861   8.725   5.694   1.729  0.5113 -0.4536  0.1593
  802MOL0     H 5862   8.918   5.447   2.026  1.3627  2.0521  0.3275
  802MOL0     H 5863   8.080   5.867   1.666 -0.4028 -0.3461 -0.9420
  802MOL0     H 5864   7.829   5.845   1.646 -0.3380  0.5660  0.7527
  803MOL0     O 5865   7.669   0.707   7.743  0.0462  0.2299  0.0815
  803MOL0     C 5866   7.677   0.820   7.796  0.0647 -0.2556 -0.9277
  803MOL0     O 5867   7.565   0.907   7.815  0.7164  0.2723  0.1074
  803MOL0     C 5868   7.452   0.868   7.752  0.7425 -0.8357 -0.2074
  803MOL0     C 5869   7.438   0.886   7.614 -0.5817  0.1803 -0.5068
  803MOL0     C 5870   7.313   0.857   7.551  0.8725 -0.4429  0.2936
  803MOL0     C 5871   7.207   0.805   7.625  0.4609 -0.0624 -0.3414
  803MOL0     O 5872   7.078   0.766   7.586  0.4084  0.3738 -0.0107
  803MOL0     C 5873   7.007   0.827   7.485  1.1471  0.0628  0.2713
  803MOL0     C 5874   6.892   0.738   7.435 -0.7760 -0.6013 -0.1756
  803MOL0     C 5875   6.770   0.727   7.538 -0.0028  0.0245 -0.0706
  803MOL0     C 5876   6.654   0.651   7.468  0.0743 -0.2433  0.3993
  803MOL0     C 5877   6.524   0.648   7.539  0.1070 -0.1459  0.5540
  803MOL0     C 5878   6.517   0.569   7.664  0.7879 -0.2246 -0.2380
  803MOL0     C 5879   6.374   0.548   7.718 -0.2220 -0.7170  0.4262
  803MOL0     C 5880   6.290   0.672   7.743 -0.1882  0.3387 -0.2190
  803MOL0     N 5881   6.147   0.639   7.771  0.1852 -0.2660  0.2119
  803MOL0     C 5882   6.089   0.620   7.898 -0.7735  0.2388  0.1563
  803MOL0     C 5883   5.968   0.561   7.874  0.0488  0.8503 -0.0254
  803MOL0     C 5884   5.867   0.525   7.984 -0.2528  0.9905  0.5525
  803MOL0     C 5885   5.887   0.393   8.060  0.6140  0.6258  0.9605
  803MOL0     C 5886   5.799   0.374   8.192 -0.2787 -0.3299 -0.0199
  803MOL0     C 5887   5.663   0.317   8.149 -0.2507 -0.4194 -0.8426
  803MOL0     O 5888   5.579   0.342   8.256  0.3052 -0.0244 -0.2061
  803MOL0     C 5889   5.449   0.294   8.242  0.4276 -0.1481 -1.2174
  803MOL0     C 5890   5.390   0.231   8.129 -0.6145 -0.1203 -0.4137
  803MOL0     C 5891   5.267   0.170   8.147 -0.5016  0.6429  0.7612
  803MOL0     C 5892   5.197   0.173   8.268 -0.6388  0.1159  0.2648
  803MOL0     C 5893   5.066   0.118   8.278  0.2884  0.7751  0.3388
  803MOL0     O 5894   4.981   0.177   8.360  0.3501 -0.3932  0.1013
  803MOL0     C 5895   4.860   0.136   8.396 -0.8533  0.6215  0.8065
  803MOL0     C 5896   4.843   0.068   8.516  0.0155 -0.2084 -0.2846
  803MOL0     C 5897   4.706   0.042   8.554 -0.2987  0.5363  0.0895
  803MOL0     C 5898   4.594   0.063   8.477  0.1799  0.4916  0.0855
  803MOL0     O 5899   4.466   0.043   8.530  0.1154 -0.0470  0.9538
  803MOL0     C 5900   4.434  -0.018   8.657 -0.8402 -0.7974  0.4593
  803MOL0     C 5901   4.285  -0.055   8.686  0.1964  0.4317 -0.4108
  803MOL0     C 5902   4.187   0.050   8.743  0.1834  0.4407 -0.3524
  803MOL0     C 5903   4.241   0.143   8.853  0.4836  0.2224 -0.1769
  803MOL0     C 5904   4.132   0.217   8.925  0.5815 -0.7181 -0.5064
  803MOL0     C 5905   4.060   0.322   8.827 -0.3574  0.3164  0.7790
  803MOL0     C 5906   3.960   0.409   8.907 -0.1854 -0.0436  0.5467
  803MOL0     C 5907   3.833   0.332   8.959 -0.0649 -0.6741 -0.9396
  803MOL0    Cl 5908   3.736   0.450   9.046 -0.2956  0.1694  0.0482
  803MOL0     C 5909   4.627   0.107   8.349  0.9642 -0.7804 -0.2125
  803MOL0     C 5910   4.751   0.150   8.306 -0.4901  0.0451  0.1099
  803MOL0     O 5911   5.035   0.014   8.222 -0.0809 -0.8662 -0.1078
  803MOL0     C 5912   5.257   0.248   8.373 -0.1701 -0.0187  0.0335
  803MOL0     C 5913   5.376   0.307   8.360  0.0765  0.0396  0.1320
  803MOL0     N 5914   5.958   0.545   7.737  0.0261  0.1309 -0.2836
  803MOL0     N 5915   6.061   0.594   7.674 -0.3721 -0.2960  0.5861
  803MOL0     C 5916   7.231   0.775   7.758 -0.1614 -0.1150  0.1769
  803MOL0     C 5917   7.353   0.800   7.821 -0.2311  0.4084 -1.2179
  803MOL0     C 5918   7.805   0.871   7.855 -0.5360  0.6209 -1.0400
  803MOL0     C 5919   7.913   0.777   7.864 -0.0746 -0.2283  0.5706
  803MOL0     C 5920   8.029   0.813   7.933 -0.7904 -0.4481  0.0210
  803MOL0     C 5921   8.047   0.946   7.979 -1.1898 -0.0309  1.5119
  803MOL0     O 5922   8.152   0.983   8.059 -0.3742 -0.8681 -0.3006
  803MOL0     C 5923   8.280   0.921   8.052 -0.2716 -0.1313 -0.1428
  803MOL0     C 5924   8.349   0.923   7.914 -0.0824 -0.9593  0.1096
  803MOL0     C 5925   8.373   1.061   7.855 -0.0662 -0.5764 -0.4234
  803MOL0     C 5926   8.259   1.141   7.802 -0.0264 -0.4198  0.0957
  803MOL0     C 5927   8.304   1.255   7.718  0.1156 -0.0874  0.8752
  803MOL0     C 5928   8.355   1.333   7.644  0.3253  0.4553  0.4583
  803MOL0     C 5929   7.943   1.038   7.948 -0.7765 -0.2611  0.3088
  803MOL0     C 5930   7.831   1.000   7.892  0.0791 -0.3928  0.4008
  803MOL0     H 5931   7.515   0.943   7.562  0.1013  2.2791  2.5634
  803MOL0     H 5932   7.293   0.869   7.445  0.1269 -0.8840  0.3827
  803MOL0     H 5933   7.062   0.835   7.391 -3.2777 -1.4030 -2.7606
  803MOL0     H 5934   6.971   0.925   7.518  2.4591  1.3503 -1.9243
  803MOL0     H 5935   6.938   0.642   7.409  1.8413  0.6868 -0.6777
  803MOL0     H 5936   6.861   0.774   7.337  2.3852 -0.5576 -1.2858
  803MOL0     H 5937   6.749   0.828   7.574  1.0329  1.4643 -3.1583
  803MOL0     H 5938   6.795   0.671   7.629 -0.3297 -0.1927 -0.1123
  803MOL0     H 5939   6.634   0.691   7.368 -0.8412 -1.6958 -0.0333
  803MOL0     H 5940   6.690   0.548   7.456 -0.1468 -0.5074  1.8505
  803MOL0     H 5941   6.449   0.612   7.468  1.1354 -2.6467  0.6059
  803MOL0     H 5942   6.506   0.751   7.571  0.5685 -0.3736  1.5597
  803MOL0     H 5943   6.584   0.616   7.736  1.1942  1.0616 -1.3992
  803MOL0     H 5944   6.563   0.471   7.647 -0.3886 -0.5436 -1.8395
  803MOL0     H 5945   6.332   0.474   7.649 -0.3950 -1.4009  1.2548
  803MOL0     H 5946   6.369   0.490   7.810 -0.4667 -1.8223 -0.2542
  803MOL0     H 5947   6.274   0.752   7.670  2.3495 -0.1954 -1.4404
  803MOL0     H 5948   6.339   0.727   7.824  3.1648 -2.4171 -0.1861
  803MOL0     H 5949   6.126   0.645   7.996  1.6365 -2.7697  0.1713
  803MOL0     H 5950   5.767   0.519   7.940  0.1176  0.8948 -0.2978
  803MOL0     H 5951   5.869   0.609   8.054 -3.0563  1.1896  0.5258
  803MOL0     H 5952   5.992   0.403   8.088  0.1947 -1.8997  4.0179
  803MOL0     H 5953   5.878   0.302   7.999 -1.6407  0.2554  1.7230
  803MOL0     H 5954   5.858   0.311   8.259  0.3265  0.4056  0.1657
  803MOL0     H 5955   5.783   0.473   8.237  0.1548 -1.2364  2.2704
  803MOL0     H 5956   5.676   0.211   8.125  0.9981 -0.4769 -0.0131
  803MOL0     H 5957   5.625   0.371   8.062  0.3371  1.8306  0.2364
  803MOL0     H 5958   5.435   0.232   8.030 -0.7104  2.1739 -0.5039
  803MOL0     H 5959   5.225   0.106   8.070 -1.3784 -1.1542  2.6308
  803MOL0     H 5960   4.926   0.045   8.582  1.4216 -0.2319 -1.9994
  803MOL0     H 5961   4.687   0.005   8.654  0.4829  0.2043  0.1150
  803MOL0     H 5962   4.465   0.057   8.731 -1.1641 -0.2900  0.0946
  803MOL0     H 5963   4.490  -0.111   8.666 -1.6630 -1.1799  1.8631
  803MOL0     H 5964   4.287  -0.139   8.756 -0.8569  1.0243  0.3724
  803MOL0     H 5965   4.235  -0.089   8.595  0.5139  1.6318 -1.0495
  803MOL0     H 5966   4.104  -0.009   8.784  1.9867 -1.3016  1.0351
  803MOL0     H 5967   4.149   0.116   8.665  0.9016 -0.1798 -1.2466
  803MOL0     H 5968   4.300   0.087   8.926  1.3633 -0.7298 -1.5776
  803MOL0     H 5969   4.300   0.220   8.804  1.9462 -0.8799 -0.2220
  803MOL0     H 5970   4.180   0.273   9.005 -0.9108 -0.8493  0.5029
  803MOL0     H 5971   4.054   0.156   8.971  1.7906 -2.1974 -0.3477
  803MOL0     H 5972   4.009   0.261   8.752  1.4029 -1.3045  0.8138
  803MOL0     H 5973   4.137   0.382   8.778 -0.8702  1.2862  1.1445
  803MOL0     H 5974   4.020   0.432   8.996 -0.5425 -2.1842  1.4091
  803MOL0     H 5975   3.932   0.501   8.856 -2.1542 -1.0363 -0.2727
  803MOL0     H 5976   3.857   0.245   9.021  2.0246  1.7592  1.8956
  803MOL0     H 5977   3.772   0.288   8.879  1.2243 -4.4984 -0.0634
  803MOL0     H 5978   4.545   0.115   8.278  0.7032 -0.0029  0.1666
  803MOL0     H 5979   4.757   0.185   8.203 -1.6256  0.9451  0.3319
  803MOL0     H 5980   5.207   0.242   8.469  1.8531 -2.3803  1.0336
  803MOL0     H 5981   5.413   0.362   8.447 -3.7036 -0.8655  2.5399
  803MOL0     H 5982   7.155   0.721   7.812  0.2731 -1.2263 -0.2904
  803MOL0     H 5983   7.356   0.792   7.930  0.2574  1.9592 -1.0876
  803MOL0     H 5984   7.900   0.678   7.821  0.4842 -0.4206  0.8355
  803MOL0     H 5985   8.097   0.732   7.957  0.6878  0.2271 -1.6878
  803MOL0     H 5986   8.269   0.823   8.099  0.5146 -0.8685 -1.4521
  803MOL0     H 5987   8.355   0.968   8.118  0.5491 -0.6919 -0.6683
  803MOL0     H 5988   8.442   0.867   7.930 -1.2410 -2.7575  0.9974
  803MOL0     H 5989   8.294   0.866   7.838  0.2554 -1.1932  0.0381
  803MOL0     H 5990   8.440   1.047   7.770 -1.6157 -1.1187 -1.6040
  803MOL0     H 5991   8.425   1.117   7.934  1.5959 -0.8182 -1.2908
  803MOL0     H 5992   8.192   1.085   7.736 -0.2701  0.5062 -0.4682
  803MOL0     H 5993   8.203   1.178   7.888  0.3095  1.3751 -0.4108
  803MOL0     H 5994   8.410   1.407   7.590  0.3326  1.1193  1.3329
  803MOL0     H 5995   7.933   1.138   7.988 -0.7178  0.2232 -0.8383
  803MOL0     H 5996   7.745   1.065   7.891 -1.6298 -2.5287 -0.2601
  804MOL0     O 5997   8.587   4.259   1.017  0.1679 -0.8015 -1.0218
  804MOL0     C 5998   8.583   4.298   0.896 -0.4691  1.1541 -0.1567
  804MOL0     O 5999   8.476   4.313   0.830 -0.3750 -0.0784  0.1636
  804MOL0     C 6000   8.359   4.309   0.892 -0.9740 -0.5493  0.2590
  804MOL0     C 6001   8.290   4.423   0.930  0.4415  0.4101  1.2265
  804MOL0     C 6002   8.168   4.421   1.001 -0.1479 -0.5598 -0.1146
  804MOL0     C 6003   8.107   4.301   1.028 -0.0059 -0.0508 -0.7606
  804MOL0     O 6004   7.992   4.284   1.089  0.7322 -0.6445  0.3022
  804MOL0     C 6005   7.878   4.377   1.074  0.3271  0.1624  0.5645
  804MOL0     C 6006   7.832   4.413   1.215  0.4240  0.0878 -0.3979
  804MOL0     C 6007   7.716   4.522   1.207 -0.7785 -0.2873  1.3881
  804MOL0     C 6008   7.673   4.539   1.350 -0.3331 -0.0662 -0.0923
  804MOL0     C 6009   7.524   4.590   1.357  0.9097  0.5955 -0.1555
  804MOL0     C 6010   7.488   4.621   1.504  0.9424  0.1818  0.3116
  804MOL0     C 6011   7.341   4.661   1.531 -0.9568  0.1669  0.5166
  804MOL0     C 6012   7.236   4.547   1.526  0.3277 -0.5281 -0.1927
  804MOL0     N 6013   7.141   4.574   1.632  0.1743 -0.1932 -0.7063
  804MOL0     C 6014   7.043   4.665   1.625  0.0725 -0.5913 -0.4039
  804MOL0     C 6015   6.964   4.640   1.734  0.2399 -0.3084  0.2231
  804MOL0     C 6016   6.857   4.731   1.783 -1.2223  0.9817 -0.0434
  804MOL0     C 6017   6.723   4.660   1.771 -0.3899  0.1166 -0.0380
  804MOL0     C 6018   6.609   4.715   1.848  0.0003  0.1107  1.0397
  804MOL0     C 6019   6.476   4.661   1.808  0.2559 -0.0700 -0.5755
  804MOL0     O 6020   6.371   4.764   1.811 -0.2272  0.0138  0.5407
  804MOL0     C 6021   6.236   4.731   1.830  0.8024  0.1978  0.0347
  804MOL0     C 6022   6.138   4.825   1.781  0.2071 -0.0036 -0.2387
  804MOL0     C 6023   6.001   4.798   1.806  1.1865  0.3308 -0.1784
  804MOL0     C 6024   5.955   4.688   1.876  0.8122  0.0752 -0.2827
  804MOL0     C 6025   5.810   4.673   1.894 -0.2611  0.6823  0.2957
  804MOL0     O 6026   5.778   4.535   1.927 -0.3181 -0.1708  0.3244
  804MOL0     C 6027   5.652   4.498   1.923  0.3799 -1.2542 -0.7816
  804MOL0     C 6028   5.608   4.399   1.831  0.2421 -0.8425 -0.2318
  804MOL0     C 6029   5.468   4.373   1.818 -0.8395  1.3475 -0.3690
  804MOL0     C 6030   5.373   4.443   1.898 -0.7822  0.5393 -0.6513
  804MOL0     O 6031   5.244   4.414   1.864  0.0556 -0.1868 -0.1732
  804MOL0     C 6032   5.141   4.446   1.964 -1.3042 -0.1252  0.3117
  804MOL0     C 6033   5.001   4.410   1.910  0.3358 -0.1265 -0.0027
  804MOL0     C 6034   4.883   4.469   1.987  0.4232  0.1303 -0.0098
  804MOL0     C 6035   4.759   4.443   1.899  0.5133 -0.3333  0.0774
  804MOL0     C 6036   4.625   4.508   1.942 -0.8352 -0.0779  0.3953
  804MOL0     C 6037   4.565   4.447   2.067 -0.7492 -0.3355  0.7614
  804MOL0     C 6038   4.418   4.458   2.060 -0.0894 -0.8090 -0.7870
  804MOL0     C 6039   4.347   4.367   2.149 -0.9923  0.7898 -0.6478
  804MOL0    Cl 6040   4.393   4.411   2.313 -0.2512  0.2243 -0.1013
  804MOL0     C 6041   5.422   4.534   1.993  0.2217 -0.4464 -0.5262
  804MOL0     C 6042   5.560   4.565   2.007 -0.4139  0.4963 -0.3126
  804MOL0     O 6043   5.729   4.764   1.876  0.4283  0.4648 -0.3817
  804MOL0     C 6044   6.053   4.592   1.919  0.2729 -0.0175  0.6797
  804MOL0     C 6045   6.187   4.613   1.886  0.0070  0.4980 -0.9193
  804MOL0     N 6046   7.019   4.527   1.798  0.1320 -1.0063  0.0617
  804MOL0     N 6047   7.126   4.493   1.734 -0.7320 -0.7478 -0.5862
  804MOL0     C 6048   8.168   4.184   0.985 -0.1025 -0.4251  1.1366
  804MOL0     C 6049   8.293   4.186   0.917  0.1614  0.0983 -0.0148
  804MOL0     C 6050   8.707   4.322   0.826 -0.1746  0.1663 -0.1643
  804MOL0     C 6051   8.826   4.353   0.893 -0.6438  0.4845  0.1515
  804MOL0     C 6052   8.947   4.388   0.818 -0.0456  0.4759 -0.5268
  804MOL0     C 6053   8.948   4.404   0.676  0.4432  0.6651 -1.0288
  804MOL0     O 6054   9.062   4.449   0.624  0.1541 -0.3369 -0.2918
  804MOL0     C 6055   9.078   4.456   0.480  0.0859 -0.3867  0.8855
  804MOL0     C 6056   9.124   4.315   0.416 -0.1160  0.5709 -0.5308
  804MOL0     C 6057   9.270   4.284   0.439  0.5115 -0.0796  0.5665
  804MOL0     C 6058   9.313   4.297   0.586 -0.4831 -0.1599  0.7283
  804MOL0     C 6059   9.451   4.235   0.586 -0.0315 -0.1238  0.4173
  804MOL0     C 6060   9.558   4.177   0.595 -0.5480  0.3134 -0.7987
  804MOL0     C 6061   8.828   4.370   0.613 -0.4979 -0.4192 -0.0689
  804MOL0     C 6062   8.716   4.328   0.684  0.0603  0.4713 -0.3113
  804MOL0     H 6063   8.346   4.515   0.912 -1.1286  1.2042  0.1763
  804MOL0     H 6064   8.130   4.515   1.041 -1.6071 -0.7014 -1.0978
  804MOL0     H 6065   7.797   4.329   1.017 -0.0414  2.5136 -1.0552
  804MOL0     H 6066   7.908   4.468   1.022 -1.6643  1.3776  1.4262
  804MOL0     H 6067   7.908   4.456   1.280 -0.6849  0.3947  0.7366
  804MOL0     H 6068   7.792   4.319   1.256  1.6395  0.0567  0.7933
  804MOL0     H 6069   7.629   4.492   1.148 -0.7178  0.1581  1.0628
  804MOL0     H 6070   7.749   4.614   1.157 -0.0273 -1.7295 -0.9735
  804MOL0     H 6071   7.682   4.446   1.407  0.0159 -0.9044 -1.4771
  804MOL0     H 6072   7.733   4.612   1.406  0.7852 -1.1416  0.1482
  804MOL0     H 6073   7.462   4.510   1.316  0.8894 -0.9737  2.6687
  804MOL0     H 6074   7.490   4.672   1.293 -2.4617  1.3043  2.2326
  804MOL0     H 6075   7.548   4.706   1.538  0.2125  0.7026  0.3066
  804MOL0     H 6076   7.516   4.545   1.577 -1.7155  2.8420  4.5010
  804MOL0     H 6077   7.337   4.709   1.629 -1.6289  0.2710  0.4426
  804MOL0     H 6078   7.330   4.741   1.457  3.0569 -1.2682 -1.9317
  804MOL0     H 6079   7.289   4.452   1.539 -0.3747 -0.9806 -0.5608
  804MOL0     H 6080   7.184   4.534   1.430 -0.2114 -0.3816  0.0773
  804MOL0     H 6081   7.019   4.738   1.549 -0.5431 -0.7630 -0.3838
  804MOL0     H 6082   6.853   4.819   1.718 -2.0676  0.3933 -0.8105
  804MOL0     H 6083   6.875   4.774   1.883  2.8229 -0.2196 -0.0471
  804MOL0     H 6084   6.727   4.555   1.800  0.8012  0.5339  1.4231
  804MOL0     H 6085   6.703   4.675   1.664 -0.3128  2.5857  0.2345
  804MOL0     H 6086   6.631   4.687   1.952  0.8216  0.0065  0.8500
  804MOL0     H 6087   6.603   4.824   1.838 -0.9759 -0.1554 -3.2806
  804MOL0     H 6088   6.455   4.589   1.888 -1.6774  1.1815  0.1102
  804MOL0     H 6089   6.481   4.629   1.704 -0.8728  1.8986 -1.2984
  804MOL0     H 6090   6.164   4.918   1.731  0.8994 -0.2930 -0.4284
  804MOL0     H 6091   5.920   4.866   1.782  1.3291  1.0437  1.2543
  804MOL0     H 6092   5.682   4.337   1.780  0.0505 -2.8257  1.7428
  804MOL0     H 6093   5.433   4.303   1.743  0.2894  1.5928 -1.1325
  804MOL0     H 6094   5.144   4.554   1.981  1.2937  0.1341 -1.2966
  804MOL0     H 6095   5.170   4.388   2.052 -1.2987  2.4459  2.1276
  804MOL0     H 6096   4.988   4.302   1.905 -0.2737 -0.1926  2.2311
  804MOL0     H 6097   4.990   4.460   1.813  0.7411 -0.0761 -0.0224
  804MOL0     H 6098   4.895   4.578   1.992 -0.1734  0.2091 -0.2149
  804MOL0     H 6099   4.874   4.429   2.089 -3.3185  1.7382  0.4520
  804MOL0     H 6100   4.781   4.480   1.799  1.3453 -0.3836  0.2335
  804MOL0     H 6101   4.753   4.334   1.894  2.9760 -0.5992  1.1320
  804MOL0     H 6102   4.563   4.496   1.853 -1.7233 -0.0683  0.9956
  804MOL0     H 6103   4.646   4.613   1.964  1.9443 -0.7135  1.1610
  804MOL0     H 6104   4.603   4.498   2.156  0.9135  0.6193 -0.4272
  804MOL0     H 6105   4.591   4.341   2.077 -0.3977 -0.0477  4.8574
  804MOL0     H 6106   4.396   4.557   2.103  3.3933 -1.1019  2.1106
  804MOL0     H 6107   4.387   4.440   1.956 -3.0583 -1.9944  0.2010
  804MOL0     H 6108   4.386   4.267   2.126 -1.5754  0.3242  0.3381
  804MOL0     H 6109   4.239   4.372   2.139 -1.0779 -1.1089 -1.1174
  804MOL0     H 6110   5.354   4.593   2.054 -1.0111 -1.0144 -1.3047
  804MOL0     H 6111   5.596   4.627   2.089  0.9328  1.5259 -1.6447
  804MOL0     H 6112   6.024   4.517   1.991  1.4538  0.1051  1.3081
  804MOL0     H 6113   6.260   4.534   1.905  0.5156  0.7493 -1.8024
  804MOL0     H 6114   8.125   4.085   1.000 -1.5644  0.1425  0.7689
  804MOL0     H 6115   8.341   4.093   0.888 -2.0728 -0.9859 -0.4200
  804MOL0     H 6116   8.841   4.347   1.000  2.6344 -0.8812 -0.2435
  804MOL0     H 6117   9.041   4.403   0.870  0.5185 -2.6172 -0.4660
  804MOL0     H 6118   9.141   4.540   0.447 -0.5138  0.6404  2.2622
  804MOL0     H 6119   8.981   4.476   0.433 -0.2596 -5.1050 -0.9331
  804MOL0     H 6120   9.064   4.231   0.452  1.0376  0.6246  1.6112
  804MOL0     H 6121   9.096   4.319   0.310  0.6923 -0.5204 -0.7974
  804MOL0     H 6122   9.323   4.363   0.386  2.7111 -2.2074 -0.5860
  804MOL0     H 6123   9.292   4.182   0.406 -0.2738 -0.7010  1.8681
  804MOL0     H 6124   9.302   4.403   0.609 -1.7823  0.4859 -2.3015
  804MOL0     H 6125   9.248   4.252   0.661  0.9172  0.1787  2.2143
  804MOL0     H 6126   9.642   4.112   0.604  1.0862  2.3230 -0.7213
  804MOL0     H 6127   8.808   4.380   0.507 -1.9737 -0.1695  0.2221
  804MOL0     H 6128   8.622   4.308   0.633 -0.4369 -1.1109  1.1563
  805MOL0     O 6129   3.537   6.327   4.800 -0.8453  0.3288  0.4986
  805MOL0     C 6130   3.622   6.390   4.855 -0.8475  0.0253 -0.1975
  805MOL0     O 6131   3.624   6.521   4.896  0.2078  0.0197  0.2751
  805MOL0     C 6132   3.501   6.576   4.905 -0.3523  0.2524 -0.5094
  805MOL0     C 6133   3.442   6.631   4.788  0.2198 -0.6327 -0.9648
  805MOL0     C 6134   3.327   6.697   4.795  0.5706 -0.5678  0.2286
  805MOL0     C 6135   3.254   6.699   4.922 -0.1314  0.5598 -0.0033
  805MOL0     O 6136   3.142   6.782   4.923 -0.8074  0.3790  0.3837
  805MOL0     C 6137   3.024   6.727   4.989  0.3863  0.7925  0.8979
  805MOL0     C 6138   2.916   6.690   4.885  0.1067  0.6472  0.4611
  805MOL0     C 6139   2.777   6.683   4.945  0.0372 -1.0744 -0.5415
  805MOL0     C 6140   2.664   6.666   4.840 -1.3424 -0.4244 -0.5636
  805MOL0     C 6141   2.527   6.611   4.896  0.5767  0.3777  0.6000
  805MOL0     C 6142   2.469   6.690   5.013  0.8356  0.6798 -0.5914
  805MOL0     C 6143   2.326   6.657   5.062  0.5262  0.3391  0.2696
  805MOL0     C 6144   2.299   6.501   5.075  0.5511 -0.6557  0.1236
  805MOL0     N 6145   2.381   6.425   5.170 -0.2157 -0.2920  0.0291
  805MOL0     C 6146   2.431   6.476   5.289  0.5450 -0.6770  0.0120
  805MOL0     C 6147   2.477   6.369   5.354  0.1578 -0.1609 -0.2903
  805MOL0     C 6148   2.503   6.355   5.497 -0.1456  0.1004 -0.3076
  805MOL0     C 6149   2.650   6.390   5.529  0.4158  0.4099 -0.6027
  805MOL0     C 6150   2.696   6.536   5.497  0.6133 -0.0273  0.0607
  805MOL0     C 6151   2.846   6.545   5.526 -0.0958 -0.0377  0.1457
  805MOL0     O 6152   2.864   6.548   5.666  0.3924 -0.1089  0.3241
  805MOL0     C 6153   2.993   6.515   5.706  0.3448  0.9142 -1.0317
  805MOL0     C 6154   3.006   6.479   5.842  0.2606 -0.8328  0.0352
  805MOL0     C 6155   3.122   6.432   5.896 -0.7617 -0.8113  0.4236
  805MOL0     C 6156   3.233   6.414   5.815 -0.1864 -0.4021  0.0569
  805MOL0     C 6157   3.360   6.352   5.869 -0.5371  0.4691  0.1276
  805MOL0     O 6158   3.350   6.296   5.986 -0.3998  0.4427  0.1811
  805MOL0     C 6159   3.463   6.255   6.054  0.1744  0.2870 -0.3227
  805MOL0     C 6160   3.569   6.171   6.006  0.2147  0.6822 -0.1617
  805MOL0     C 6161   3.663   6.115   6.089  0.0973  0.4014 -0.2501
  805MOL0     C 6162   3.672   6.148   6.227  0.6475  0.2091 -0.1378
  805MOL0     O 6163   3.757   6.086   6.316 -0.4243  0.3241 -0.7987
  805MOL0     C 6164   3.893   6.117   6.290  0.2311  0.4043 -0.5634
  805MOL0     C 6165   3.976   6.086   6.418  0.4842  0.0165  0.8496
  805MOL0     C 6166   4.119   6.036   6.394 -0.5001  0.3096 -0.3399
  805MOL0     C 6167   4.162   5.977   6.531  0.4277 -0.0243  0.6772
  805MOL0     C 6168   4.311   5.927   6.525 -0.5745 -0.2222 -0.2918
  805MOL0     C 6169   4.363   5.863   6.654  0.0946 -0.6608  0.7811
  805MOL0     C 6170   4.495   5.799   6.649  0.1855  0.2030  0.0027
  805MOL0     C 6171   4.616   5.897   6.650  0.0912  0.4435 -0.0996
  805MOL0    Cl 6172   4.766   5.815   6.714 -0.0003 -0.1796  0.3579
  805MOL0     C 6173   3.570   6.237   6.275  0.1581  0.7283  0.0507
  805MOL0     C 6174   3.468   6.290   6.196 -1.6936 -0.4948  0.0710
  805MOL0     O 6175   3.458   6.343   5.792  0.7258 -0.3580 -0.1456
  805MOL0     C 6176   3.225   6.457   5.678 -1.4393  0.1117 -0.0142
  805MOL0     C 6177   3.102   6.501   5.624  0.7308 -0.3718 -0.1607
  805MOL0     N 6178   2.471   6.258   5.276 -0.2725 -0.0554  0.3172
  805MOL0     N 6179   2.418   6.292   5.166  0.4185 -0.3933  0.1831
  805MOL0     C 6180   3.304   6.627   5.032 -0.1155 -0.1478  0.1380
  805MOL0     C 6181   3.428   6.568   5.021 -0.8806  0.1885  0.5755
  805MOL0     C 6182   3.750   6.320   4.887  0.1545  0.5362  0.1389
  805MOL0     C 6183   3.871   6.394   4.919 -0.1865  0.6020  0.3542
  805MOL0     C 6184   3.992   6.332   4.936 -0.1606 -0.1294  0.3069
  805MOL0     C 6185   4.000   6.193   4.920 -0.0560  0.6678  0.3076
  805MOL0     O 6186   4.117   6.123   4.921  0.0763 -0.0901 -0.2589
  805MOL0     C 6187   4.240   6.187   4.876  0.6503 -0.3128 -0.1339
  805MOL0     C 6188   4.349   6.098   4.900 -0.1245  0.1674 -0.1477
  805MOL0     C 6189   4.493   6.143   4.876  0.2889  0.2914  0.0493
  805MOL0     C 6190   4.582   6.016   4.921 -0.0888 -0.1476 -0.6291
  805MOL0     C 6191   4.714   6.042   4.876 -0.1853 -0.6587  0.3223
  805MOL0     C 6192   4.826   6.072   4.853  0.0415 -0.1766  0.1819
  805MOL0     C 6193   3.885   6.118   4.899 -0.5246  0.1923 -0.9048
  805MOL0     C 6194   3.765   6.179   4.877  0.1647 -0.0141 -0.1223
  805MOL0     H 6195   3.491   6.619   4.692 -1.2384  1.8027 -2.0885
  805MOL0     H 6196   3.301   6.747   4.702  0.0301  0.8818  1.1165
  805MOL0     H 6197   2.992   6.793   5.071 -0.2688  3.1035 -1.1013
  805MOL0     H 6198   3.043   6.632   5.039  1.6019  1.7050  2.2443
  805MOL0     H 6199   2.936   6.587   4.854  0.0044  0.3080  1.4804
  805MOL0     H 6200   2.928   6.766   4.807 -1.6816 -0.0759 -0.5840
  805MOL0     H 6201   2.771   6.780   4.997 -1.1938 -1.2461 -0.3379
  805MOL0     H 6202   2.769   6.603   5.020  0.7484  0.6671  1.5012
  805MOL0     H 6203   2.646   6.764   4.796 -1.0377  0.3847  1.0375
  805MOL0     H 6204   2.695   6.599   4.759 -4.0252 -1.7875 -0.5679
  805MOL0     H 6205   2.533   6.506   4.923 -0.2657  0.2488  0.3160
  805MOL0     H 6206   2.455   6.606   4.814 -2.1570 -0.0530  2.8767
  805MOL0     H 6207   2.471   6.795   4.982 -3.7088  0.2553 -3.2409
  805MOL0     H 6208   2.529   6.673   5.102 -3.3514 -0.8627  2.2182
  805MOL0     H 6209   2.320   6.710   5.157  1.5579  1.5626 -0.3322
  805MOL0     H 6210   2.244   6.693   4.999  0.7115  0.8269  0.3053
  805MOL0     H 6211   2.322   6.457   4.977  1.9327 -0.2456  0.2391
  805MOL0     H 6212   2.195   6.488   5.105  0.9227  0.9175  2.3238
  805MOL0     H 6213   2.419   6.576   5.328 -1.0923 -0.0025 -2.0262
  805MOL0     H 6214   2.489   6.249   5.522  2.1236 -0.1479  0.1148
  805MOL0     H 6215   2.436   6.431   5.537 -0.0330  2.1212 -3.5828
  805MOL0     H 6216   2.707   6.319   5.467  2.5403  2.3197 -0.9702
  805MOL0     H 6217   2.668   6.369   5.635 -0.1494 -0.1984 -0.6193
  805MOL0     H 6218   2.676   6.569   5.395 -2.6830 -2.3695 -0.2159
  805MOL0     H 6219   2.644   6.604   5.565  0.9746 -1.7251  2.1807
  805MOL0     H 6220   2.880   6.637   5.477  2.4186 -1.1357 -0.2935
  805MOL0     H 6221   2.904   6.462   5.486 -1.8249 -1.5940  0.7359
  805MOL0     H 6222   2.924   6.489   5.912 -0.0767 -1.9222 -0.1757
  805MOL0     H 6223   3.123   6.413   6.003  1.1533 -1.1590  0.3820
  805MOL0     H 6224   3.555   6.156   5.899  2.0180  1.8978 -0.6062
  805MOL0     H 6225   3.744   6.049   6.058 -1.6150 -2.3043  0.7012
  805MOL0     H 6226   3.910   6.223   6.272  1.7657  1.0356  3.5315
  805MOL0     H 6227   3.936   6.059   6.208  0.1234 -0.7028  0.1339
  805MOL0     H 6228   3.924   6.001   6.464 -2.2049  1.9859  1.7222
  805MOL0     H 6229   3.974   6.166   6.492  3.3893  0.8156  0.1745
  805MOL0     H 6230   4.182   6.124   6.378  0.8613 -0.6444 -0.4108
  805MOL0     H 6231   4.134   5.959   6.318  0.6742  1.3162 -1.1588
  805MOL0     H 6232   4.141   6.051   6.610  1.4591  1.8966 -0.7534
  805MOL0     H 6233   4.104   5.890   6.563 -2.2698  1.1402 -0.7689
  805MOL0     H 6234   4.387   5.998   6.491  1.0038 -1.8135 -0.2606
  805MOL0     H 6235   4.306   5.845   6.453  3.7658  0.1929 -1.3408
  805MOL0     H 6236   4.296   5.784   6.690 -0.1652 -1.0308 -0.4563
  805MOL0     H 6237   4.360   5.938   6.733 -1.1965 -0.5722  0.6723
  805MOL0     H 6238   4.484   5.744   6.743 -2.7723  1.1378  0.3094
  805MOL0     H 6239   4.500   5.735   6.561 -2.1041  0.3192 -0.2526
  805MOL0     H 6240   4.589   5.972   6.724 -1.4111 -0.6889  0.5505
  805MOL0     H 6241   4.640   5.947   6.556  0.2688  1.1182  0.2981
  805MOL0     H 6242   3.562   6.257   6.382  2.2087  0.3666  0.3277
  805MOL0     H 6243   3.392   6.352   6.241 -0.4944 -1.3763  3.6826
  805MOL0     H 6244   3.315   6.456   5.617 -3.5323  1.7429 -3.4227
  805MOL0     H 6245   3.101   6.544   5.524  0.7067 -0.2443 -0.1057
  805MOL0     H 6246   3.244   6.633   5.122  2.3422  1.9956  1.7988
  805MOL0     H 6247   3.478   6.521   5.105  2.3370 -0.7257 -1.6780
  805MOL0     H 6248   3.865   6.502   4.925 -0.6521  0.6388 -0.5191
  805MOL0     H 6249   4.078   6.390   4.967  0.0296  1.2657 -2.5253
  805MOL0     H 6250   4.260   6.279   4.932  0.3381  0.4457 -1.2222
  805MOL0     H 6251   4.227   6.234   4.778 -2.8970 -0.9177 -0.0863
  805MOL0     H 6252   4.343   6.068   5.005  1.3868 -0.1510 -0.1322
  805MOL0     H 6253   4.331   6.012   4.834  0.0096 -0.5984  0.7903
  805MOL0     H 6254   4.514   6.226   4.943 -0.8063  0.6377 -0.0205
  805MOL0     H 6255   4.512   6.165   4.770 -0.3754  2.0974  0.2743
  805MOL0     H 6256   4.593   6.004   5.029 -0.3677 -1.1208 -0.7019
  805MOL0     H 6257   4.546   5.923   4.877 -0.9235 -0.5011  0.7281
  805MOL0     H 6258   4.928   6.103   4.837  1.1057 -2.5759  1.7473
  805MOL0     H 6259   3.888   6.010   4.890  2.6017  0.2616 -1.8145
  805MOL0     H 6260   3.671   6.130   4.856 -0.3728  0.0390  1.9589
  806MOL0     O 6261   9.419   4.211   3.060  0.6127 -0.0439  0.3845
  806MOL0     C 6262   9.429   4.325   3.010  0.2245  0.2395  0.4318
  806MOL0     O 6263   9.318   4.403   2.968 -0.9517 -0.1920  0.3086
  806MOL0     C 6264   9.187   4.353   2.979 -0.1200 -0.8765  0.5332
  806MOL0     C 6265   9.139   4.263   3.086 -0.1357 -0.0289  0.1762
  806MOL0     C 6266   9.007   4.232   3.100 -0.1466  0.2833  0.0315
  806MOL0     C 6267   8.916   4.292   3.012  0.4818 -0.1130  0.1536
  806MOL0     O 6268   8.783   4.266   2.997 -0.4449 -0.1153 -0.2173
  806MOL0     C 6269   8.729   4.149   3.060 -0.0022 -0.4797 -0.4813
  806MOL0     C 6270   8.580   4.151   3.031  0.3187  1.6909  0.4403
  806MOL0     C 6271   8.506   4.273   3.093  0.2295  0.9058 -0.9420
  806MOL0     C 6272   8.366   4.296   3.030 -0.4196 -0.3149  0.0107
  806MOL0     C 6273   8.274   4.390   3.112 -0.3961  0.4887 -0.0649
  806MOL0     C 6274   8.146   4.426   3.048  0.3905  0.4670  0.5664
  806MOL0     C 6275   8.060   4.315   2.999  0.3814 -0.6580 -1.3823
  806MOL0     C 6276   7.917   4.365   2.976  0.0459  0.1888  0.5217
  806MOL0     N 6277   7.825   4.242   2.954 -0.0091 -0.2499 -0.0957
  806MOL0     C 6278   7.806   4.142   3.048 -0.1332 -0.7100  0.0527
  806MOL0     C 6279   7.692   4.090   2.999 -0.5953  0.1423  0.9012
  806MOL0     C 6280   7.621   3.971   3.057  0.5644  0.4375  0.3294
  806MOL0     C 6281   7.688   3.832   3.048 -0.2183  0.1206  0.2712
  806MOL0     C 6282   7.601   3.723   3.099  0.6612  0.0211 -0.2379
  806MOL0     C 6283   7.552   3.732   3.249 -0.1155 -1.0067 -0.6221
  806MOL0     O 6284   7.655   3.773   3.347 -0.1626  0.3326  0.3738
  806MOL0     C 6285   7.756   3.690   3.395 -0.0449  0.0756 -0.5126
  806MOL0     C 6286   7.735   3.549   3.424  0.0758  0.0294 -0.0256
  806MOL0     C 6287   7.844   3.482   3.477  0.3089  0.7442 -1.4484
  806MOL0     C 6288   7.971   3.543   3.501  0.2976 -0.6709  1.1218
  806MOL0     C 6289   8.085   3.472   3.559 -0.0988 -0.0187  0.0101
  806MOL0     O 6290   8.075   3.337   3.578  0.6420 -0.4642  0.2689
  806MOL0     C 6291   8.175   3.264   3.628  1.1741  0.8566 -0.0168
  806MOL0     C 6292   8.137   3.147   3.705 -0.1301 -0.9035 -0.2958
  806MOL0     C 6293   8.239   3.073   3.771 -0.0011  0.5242  0.1244
  806MOL0     C 6294   8.372   3.118   3.768  0.0457  0.6471 -0.0349
  806MOL0     O 6295   8.459   3.047   3.844  0.1616  0.5203 -0.1196
  806MOL0     C 6296   8.586   3.106   3.881  0.3013 -1.1887  0.3773
  806MOL0     C 6297   8.684   3.043   3.781  0.1764 -0.2225 -0.0570
  806MOL0     C 6298   8.705   2.895   3.804 -0.6437 -0.3982  0.1322
  806MOL0     C 6299   8.739   2.860   3.946  0.4023  0.7648  0.6059
  806MOL0     C 6300   8.791   2.717   3.951  0.3091 -0.0022  0.1592
  806MOL0     C 6301   8.943   2.713   3.931 -0.1167  1.1497  0.6028
  806MOL0     C 6302   9.023   2.774   4.049  0.8372 -0.3851 -0.0286
  806MOL0     C 6303   9.163   2.712   4.041  0.0151 -0.0822 -1.0833
  806MOL0    Cl 6304   9.245   2.831   3.939  0.1122 -0.2366 -0.1103
  806MOL0     C 6305   8.406   3.224   3.680  0.3144 -0.3763 -0.7656
  806MOL0     C 6306   8.312   3.283   3.602  0.5417  0.0876 -0.0608
  806MOL0     O 6307   8.180   3.533   3.595  0.0024  0.1477  0.0928
  806MOL0     C 6308   7.984   3.681   3.476 -0.2467  0.1085  0.5899
  806MOL0     C 6309   7.887   3.755   3.418  0.6067  0.2003 -0.5107
  806MOL0     N 6310   7.651   4.139   2.881 -0.2814 -0.1536  0.3997
  806MOL0     N 6311   7.735   4.230   2.849  0.4123  0.0772  0.5569
  806MOL0     C 6312   8.961   4.377   2.911 -0.5497 -0.1901  0.1897
  806MOL0     C 6313   9.097   4.411   2.895  0.1012 -0.6479 -0.8003
  806MOL0     C 6314   9.565   4.393   3.008 -0.4972  0.2357  0.8320
  806MOL0     C 6315   9.672   4.338   3.074  0.0948  0.1565  0.8901
  806MOL0     C 6316   9.798   4.385   3.057 -0.5949 -0.4272  0.2257
  806MOL0     C 6317   9.827   4.502   2.987 -0.0628  0.6975  0.3121
  806MOL0     O 6318   9.962   4.534   2.970  0.3176 -0.7757 -0.5497
  806MOL0     C 6319   9.998   4.651   2.898 -0.2239  0.6225  0.2963
  806MOL0     C 6320  10.008   4.761   3.010 -0.3482 -0.5044  0.8102
  806MOL0     C 6321  10.096   4.734   3.134  0.3176  0.3991  0.2074
  806MOL0     C 6322  10.241   4.786   3.106 -0.5386 -0.1965 -0.3142
  806MOL0     C 6323  10.247   4.929   3.090  0.1884  0.7294 -0.1260
  806MOL0     C 6324  10.248   5.050   3.058 -0.2276  0.2094  0.4175
  806MOL0     C 6325   9.710   4.569   2.939 -0.8103  0.3725 -0.3476
  806MOL0     C 6326   9.588   4.514   2.939 -0.3347  0.0564  0.6436
  806MOL0     H 6327   9.208   4.227   3.162  1.0283  0.6012 -0.5517
  806MOL0     H 6328   8.968   4.163   3.175 -0.1448 -1.9388 -1.8966
  806MOL0     H 6329   8.732   4.168   3.168  1.3872 -0.3224 -0.5321
  806MOL0     H 6330   8.771   4.051   3.036 -1.7599 -0.8393 -2.3863
  806MOL0     H 6331   8.531   4.060   3.065 -0.7902  1.2788 -2.0397
  806MOL0     H 6332   8.558   4.139   2.924  0.2835 -2.9681  0.7497
  806MOL0     H 6333   8.564   4.366   3.086  2.0689  0.1250  2.0167
  806MOL0     H 6334   8.485   4.250   3.198 -1.1334  0.8543 -1.2119
  806MOL0     H 6335   8.371   4.341   2.931 -2.5527  1.0156  0.4652
  806MOL0     H 6336   8.316   4.199   3.024 -0.2169 -0.5079  1.1583
  806MOL0     H 6337   8.320   4.483   3.147 -0.6676  0.1144  1.3828
  806MOL0     H 6338   8.248   4.340   3.206  0.3595  0.3849  0.0963
  806MOL0     H 6339   8.168   4.480   2.956 -0.2013 -1.1715 -0.5934
  806MOL0     H 6340   8.087   4.504   3.096 -0.9767  0.3894 -0.9296
  806MOL0     H 6341   8.100   4.286   2.901  1.0816 -0.5951 -1.1199
  806MOL0     H 6342   8.062   4.235   3.073 -0.9688 -1.7893 -2.5280
  806MOL0     H 6343   7.908   4.441   2.898 -2.7822 -2.6305 -2.2179
  806MOL0     H 6344   7.883   4.417   3.066  1.7938  0.6682  0.9300
  806MOL0     H 6345   7.864   4.119   3.137 -0.9588 -0.7803  0.5844
  806MOL0     H 6346   7.523   3.956   3.011 -0.2206 -1.0842  2.3444
  806MOL0     H 6347   7.589   3.987   3.161  0.1546 -1.9326  0.6259
  806MOL0     H 6348   7.779   3.838   3.107  0.2219 -1.1958 -0.2385
  806MOL0     H 6349   7.712   3.809   2.943 -1.7715 -1.8404  0.2847
  806MOL0     H 6350   7.518   3.718   3.028  1.2520 -0.6524 -0.8932
  806MOL0     H 6351   7.656   3.630   3.081  1.0503  0.4360 -1.2683
  806MOL0     H 6352   7.507   3.637   3.279 -0.1385 -0.9824 -0.5803
  806MOL0     H 6353   7.475   3.809   3.251 -0.1277 -0.9935 -1.4646
  806MOL0     H 6354   7.643   3.494   3.407 -0.3925  1.3939 -2.4017
  806MOL0     H 6355   7.840   3.376   3.497  1.3816  1.4082  3.4308
  806MOL0     H 6356   8.033   3.127   3.727 -0.1898 -1.0219 -0.6770
  806MOL0     H 6357   8.212   2.980   3.821  1.8587  0.5167  1.2069
  806MOL0     H 6358   8.611   3.087   3.985  2.2497  0.4490  0.2700
  806MOL0     H 6359   8.587   3.216   3.877 -1.7227 -1.0107  2.4774
  806MOL0     H 6360   8.783   3.091   3.784  0.8283 -1.4940 -0.3833
  806MOL0     H 6361   8.637   3.054   3.683 -0.2582  0.7935  0.2553
  806MOL0     H 6362   8.781   2.865   3.732 -1.4026  0.1318 -0.9051
  806MOL0     H 6363   8.618   2.830   3.790  0.7895 -2.6591  1.0819
  806MOL0     H 6364   8.815   2.927   3.987  0.6535  1.0329 -0.2676
  806MOL0     H 6365   8.646   2.857   4.003  1.6832 -1.9325  2.7496
  806MOL0     H 6366   8.750   2.659   3.868  3.0239 -0.1396 -1.1741
  806MOL0     H 6367   8.770   2.672   4.049  1.0534  0.4632  0.5401
  806MOL0     H 6368   8.955   2.779   3.845 -2.9603 -0.7196 -1.3978
  806MOL0     H 6369   8.967   2.608   3.913  2.0910  1.6918  0.0684
  806MOL0     H 6370   9.035   2.881   4.031  1.2235 -0.6495 -1.5201
  806MOL0     H 6371   8.977   2.755   4.146  2.0426  0.3914  0.7228
  806MOL0     H 6372   9.167   2.612   3.996  0.5039 -1.5231  1.9069
  806MOL0     H 6373   9.195   2.709   4.145 -0.2913  0.1099 -0.9840
  806MOL0     H 6374   8.513   3.243   3.672  0.7871 -2.7161 -0.8636
  806MOL0     H 6375   8.344   3.364   3.536  0.9883  1.4604  1.7356
  806MOL0     H 6376   8.082   3.713   3.510  1.1814 -1.9653 -1.3239
  806MOL0     H 6377   7.905   3.862   3.405  3.2611  0.3388  2.7730
  806MOL0     H 6378   8.900   4.423   2.833 -0.5890  1.8668  1.3904
  806MOL0     H 6379   9.129   4.476   2.814 -1.8723 -1.7729 -2.5928
  806MOL0     H 6380   9.651   4.240   3.117 -3.5542  0.2363 -0.3442
  806MOL0     H 6381   9.880   4.336   3.108 -0.0860  0.5815  0.3914
  806MOL0     H 6382   9.925   4.671   2.820 -1.2146 -0.7244  0.8523
  806MOL0     H 6383  10.091   4.629   2.844 -1.1347 -1.5189 -0.4701
  806MOL0     H 6384  10.038   4.859   2.972  0.8224 -1.0009  0.4116
  806MOL0     H 6385   9.908   4.774   3.052  0.2006  0.0555  2.0087
  806MOL0     H 6386  10.093   4.630   3.167 -0.4355 -0.4543 -2.3819
  806MOL0     H 6387  10.051   4.791   3.216 -1.2416 -1.4774  0.7284
  806MOL0     H 6388  10.309   4.764   3.189 -2.5962 -2.3936  0.9280
  806MOL0     H 6389  10.284   4.744   3.015  0.0177  1.2225 -0.7371
  806MOL0     H 6390  10.231   5.156   3.051  0.5945  0.2630 -0.9871
  806MOL0     H 6391   9.721   4.664   2.889 -1.0225  0.3293 -0.4776
  806MOL0     H 6392   9.501   4.561   2.894 -0.7367  0.9737  2.2924
  807MOL0     O 6393   0.070   3.905   8.560 -0.0269  0.5000  0.3781
  807MOL0     C 6394   0.135   3.829   8.631 -0.1351 -0.0276  0.9907
  807MOL0     O 6395   0.088   3.755   8.732  0.7153  0.4138 -0.0586
  807MOL0     C 6396  -0.044   3.762   8.768  0.3342  0.8146 -0.3643
  807MOL0     C 6397  -0.157   3.809   8.696  0.4115 -0.6801  0.0126
  807MOL0     C 6398  -0.284   3.807   8.758 -0.2712  0.7628  0.1807
  807MOL0     C 6399  -0.313   3.775   8.892  0.5706 -0.1622  0.4415
  807MOL0     O 6400  -0.444   3.779   8.947 -0.5685  0.0958 -0.6169
  807MOL0     C 6401  -0.461   3.719   9.077 -0.5084 -0.5210 -0.8049
  807MOL0     C 6402  -0.602   3.726   9.130  0.1691  0.5570  0.1447
  807MOL0     C 6403  -0.649   3.866   9.170  0.1256  0.3766  0.8762
  807MOL0     C 6404  -0.802   3.859   9.196  0.0271 -0.0543  0.0831
  807MOL0     C 6405  -0.868   3.997   9.207 -0.2553 -0.2965 -0.1542
  807MOL0     C 6406  -1.021   3.989   9.210 -0.2742  0.4080 -0.0003
  807MOL0     C 6407  -1.087   4.125   9.180  0.0500 -0.2046  0.8230
  807MOL0     C 6408  -1.066   4.241   9.282 -0.9252  0.9092  0.0404
  807MOL0     N 6409  -1.180   4.335   9.284  0.2026 -0.1889 -0.4414
  807MOL0     C 6410  -1.285   4.336   9.369  0.1820 -0.0209  0.5927
  807MOL0     C 6411  -1.382   4.425   9.318 -0.1747 -0.4053 -0.1701
  807MOL0     C 6412  -1.514   4.455   9.384  0.6276  0.0837  0.6320
  807MOL0     C 6413  -1.628   4.475   9.280 -0.4003 -0.7527  1.3334
  807MOL0     C 6414  -1.752   4.518   9.353 -0.2849  0.3239 -0.0090
  807MOL0     C 6415  -1.873   4.507   9.261  0.1137  0.4151 -0.8238
  807MOL0     O 6416  -1.984   4.565   9.340 -0.3001  0.5528 -0.3045
  807MOL0     C 6417  -2.103   4.499   9.364 -0.5064 -0.0567  0.3073
  807MOL0     C 6418  -2.120   4.360   9.345  0.1642  0.6040  0.1391
  807MOL0     C 6419  -2.242   4.298   9.376 -1.1517 -0.2470  0.3357
  807MOL0     C 6420  -2.352   4.376   9.425  0.1903  0.2056 -0.1294
  807MOL0     C 6421  -2.481   4.312   9.462 -0.1868 -0.4564 -0.0534
  807MOL0     O 6422  -2.546   4.390   9.551  0.6188 -0.3398  0.0021
  807MOL0     C 6423  -2.658   4.332   9.620  0.2239 -1.5985  0.8397
  807MOL0     C 6424  -2.675   4.361   9.759  0.2433  0.4132  0.7341
  807MOL0     C 6425  -2.794   4.336   9.827 -0.1273 -0.3274  0.1214
  807MOL0     C 6426  -2.901   4.274   9.756 -0.3916 -0.8082  0.5035
  807MOL0     O 6427  -3.022   4.259   9.830 -0.0702  0.1301  0.1738
  807MOL0     C 6428  -3.129   4.197   9.756 -0.1475  0.4165  0.0209
  807MOL0     C 6429  -3.266   4.212   9.831  0.0690 -0.9200  0.1728
  807MOL0     C 6430  -3.321   4.357   9.859 -0.1641  0.8311 -0.6853
  807MOL0     C 6431  -3.468   4.350   9.885  0.3294  0.3443 -0.0716
  807MOL0     C 6432  -3.511   4.430  10.009 -0.1180 -0.1470 -0.3159
  807MOL0     C 6433  -3.659   4.467  10.008  0.0432 -0.8847 -0.0741
  807MOL0     C 6434  -3.745   4.348  10.002  1.4055 -0.2623 -0.1843
  807MOL0     C 6435  -3.890   4.384  10.038  0.1136 -0.1000 -0.2377
  807MOL0    Cl 6436  -3.995   4.256  10.071 -0.0810  0.3638  0.3554
  807MOL0     C 6437  -2.891   4.247   9.620 -0.8735 -0.2011 -0.0364
  807MOL0     C 6438  -2.771   4.269   9.556 -0.2985  0.2171  0.1093
  807MOL0     O 6439  -2.517   4.200   9.420 -0.1489 -0.6462  0.2493
  807MOL0     C 6440  -2.329   4.514   9.454  0.5215  1.4169 -0.7116
  807MOL0     C 6441  -2.203   4.565   9.426  1.0110 -0.1274  0.1963
  807MOL0     N 6442  -1.321   4.482   9.202 -0.9838 -0.7686 -0.9822
  807MOL0     N 6443  -1.206   4.424   9.186  0.4185 -0.0183 -0.6001
  807MOL0     C 6444  -0.195   3.736   8.963  1.3481 -0.2765 -0.2949
  807MOL0     C 6445  -0.066   3.734   8.904 -0.6086 -0.7020 -0.0054
  807MOL0     C 6446   0.278   3.825   8.604  0.6177  0.1952 -0.5524
  807MOL0     C 6447   0.366   3.780   8.707 -0.5209  0.2370 -0.9816
  807MOL0     C 6448   0.504   3.792   8.694  0.3431 -0.1380 -0.7487
  807MOL0     C 6449   0.562   3.851   8.582  0.4369  0.4026 -0.5458
  807MOL0     O 6450   0.700   3.865   8.564  0.1844 -0.3873  0.1660
  807MOL0     C 6451   0.800   3.811   8.653  0.0732 -0.1253 -0.1492
  807MOL0     C 6452   0.932   3.814   8.585 -0.3529 -0.4269 -1.0082
  807MOL0     C 6453   1.038   3.761   8.671  0.6436  0.4003 -0.1409
  807MOL0     C 6454   1.160   3.720   8.604  0.5183 -0.2189 -0.4994
  807MOL0     C 6455   1.241   3.628   8.691  0.2317  0.5028 -0.7553
  807MOL0     C 6456   1.305   3.547   8.754  0.5208 -0.0824 -0.2763
  807MOL0     C 6457   0.478   3.876   8.473  0.3459  0.4323 -0.5342
  807MOL0     C 6458   0.332   3.867   8.484 -0.6807 -0.1335 -0.4941
  807MOL0     H 6459  -0.156   3.852   8.596  3.7270 -1.6477 -0.4777
  807MOL0     H 6460  -0.376   3.840   8.713 -0.3584  3.0531  1.8818
  807MOL0     H 6461  -0.398   3.766   9.153 -1.9359 -0.9086  0.6736
  807MOL0     H 6462  -0.445   3.610   9.074 -0.3415 -0.6968  2.6513
  807MOL0     H 6463  -0.628   3.656   9.210 -2.2353 -0.3475 -1.3145
  807MOL0     H 6464  -0.665   3.691   9.048 -0.8411 -0.6017  1.3741
  807MOL0     H 6465  -0.611   3.940   9.100 -0.6886 -0.5035 -0.5520
  807MOL0     H 6466  -0.599   3.885   9.265  1.0786 -2.2712  0.9890
  807MOL0     H 6467  -0.844   3.804   9.111  3.8733 -2.3540 -0.5436
  807MOL0     H 6468  -0.831   3.790   9.275  0.5175 -0.2247  0.1138
  807MOL0     H 6469  -0.845   4.056   9.117  3.2331 -0.5760  0.3969
  807MOL0     H 6470  -0.823   4.052   9.290  1.2229  0.4745 -1.4093
  807MOL0     H 6471  -1.059   3.947   9.303 -4.1761  2.7089 -0.3556
  807MOL0     H 6472  -1.063   3.921   9.136 -0.3611 -0.0320  0.4451
  807MOL0     H 6473  -1.051   4.165   9.085 -2.0668  0.5989  0.3252
  807MOL0     H 6474  -1.193   4.106   9.161 -0.2938  2.1265  0.1414
  807MOL0     H 6475  -0.968   4.289   9.274  0.2901 -1.3209  0.6634
  807MOL0     H 6476  -1.063   4.192   9.380  3.2054  0.6748 -0.0486
  807MOL0     H 6477  -1.305   4.276   9.457  0.2911  0.4691  0.9525
  807MOL0     H 6478  -1.502   4.549   9.438 -0.1757  0.5590  0.0170
  807MOL0     H 6479  -1.541   4.383   9.462  0.1678 -0.1980  0.2189
  807MOL0     H 6480  -1.638   4.396   9.205  2.2228  1.5686 -1.7814
  807MOL0     H 6481  -1.585   4.554   9.218 -0.1532 -2.2782 -0.5314
  807MOL0     H 6482  -1.770   4.449   9.436  0.0931 -0.7613 -0.8056
  807MOL0     H 6483  -1.746   4.619   9.395 -0.4362  0.5051 -0.4241
  807MOL0     H 6484  -1.889   4.409   9.217 -2.2054  0.2898  0.1702
  807MOL0     H 6485  -1.873   4.575   9.175 -1.8176 -0.6353 -1.7101
  807MOL0     H 6486  -2.043   4.302   9.294  0.3779  2.1470 -1.3743
  807MOL0     H 6487  -2.247   4.193   9.346 -0.6226 -0.3509  0.6130
  807MOL0     H 6488  -2.587   4.408   9.802 -0.5040  1.9183  0.6819
  807MOL0     H 6489  -2.796   4.367   9.931  0.5814 -0.2502  0.1201
  807MOL0     H 6490  -3.107   4.093   9.732 -1.1791  1.1064 -4.9122
  807MOL0     H 6491  -3.143   4.249   9.661  0.2568  0.8013  0.1652
  807MOL0     H 6492  -3.265   4.160   9.927  0.0087 -1.2121  0.0172
  807MOL0     H 6493  -3.335   4.159   9.764 -0.6044 -0.7166  0.6976
  807MOL0     H 6494  -3.302   4.435   9.786  2.5674  0.5641 -0.3782
  807MOL0     H 6495  -3.261   4.390   9.945  1.4667 -2.4625 -0.3778
  807MOL0     H 6496  -3.522   4.383   9.795  1.0107  0.5699 -0.4043
  807MOL0     H 6497  -3.495   4.246   9.905 -0.4491  0.3849 -0.8293
  807MOL0     H 6498  -3.458   4.525  10.004 -0.2299  0.0693  1.6359
  807MOL0     H 6499  -3.485   4.384  10.105 -1.5117  0.5280  0.4230
  807MOL0     H 6500  -3.654   4.534   9.921  1.6086  1.1815  1.5042
  807MOL0     H 6501  -3.686   4.527  10.095 -2.5466 -1.4103 -0.4511
  807MOL0     H 6502  -3.742   4.309   9.900  1.5721 -0.9968  0.0969
  807MOL0     H 6503  -3.716   4.264  10.066  1.2208  0.7747  1.3289
  807MOL0     H 6504  -3.939   4.443   9.960 -0.6753  1.8125  1.6256
  807MOL0     H 6505  -3.884   4.447  10.127 -0.7319  0.0399 -0.2677
  807MOL0     H 6506  -2.973   4.204   9.563 -2.2831 -1.5668  2.7925
  807MOL0     H 6507  -2.770   4.237   9.452 -2.3035 -3.5879  1.0595
  807MOL0     H 6508  -2.400   4.591   9.481  1.0221  2.5578 -2.4687
  807MOL0     H 6509  -2.186   4.668   9.455 -1.0482  0.4580 -0.4870
  807MOL0     H 6510  -0.202   3.701   9.066  3.1698 -0.8366 -0.3313
  807MOL0     H 6511   0.024   3.713   8.961  1.5194  1.7075 -2.2228
  807MOL0     H 6512   0.321   3.750   8.801  0.3544  1.0299 -0.2951
  807MOL0     H 6513   0.568   3.756   8.775  0.9587 -1.2919 -1.7144
  807MOL0     H 6514   0.771   3.707   8.674  2.5045 -0.9897 -0.7226
  807MOL0     H 6515   0.801   3.871   8.744  1.6973  0.1405 -0.3212
  807MOL0     H 6516   0.926   3.765   8.487  1.6030 -4.2883  0.6101
  807MOL0     H 6517   0.952   3.919   8.561 -1.2427  0.2241  0.8781
  807MOL0     H 6518   0.992   3.672   8.714 -1.6755 -0.0507 -3.1922
  807MOL0     H 6519   1.063   3.827   8.754 -2.1014 -0.4207  1.4941
  807MOL0     H 6520   1.124   3.669   8.514  1.9976 -2.5713  0.1312
  807MOL0     H 6521   1.221   3.802   8.566  1.2328 -1.8361 -3.0781
  807MOL0     H 6522   1.376   3.480   8.798  0.9425  0.4449 -0.1355
  807MOL0     H 6523   0.528   3.922   8.389 -0.3964 -1.3399 -2.0308
  807MOL0     H 6524   0.261   3.897   8.408 -1.6878 -1.3834 -0.0970
  808MOL0     O 6525  11.061   3.596   7.517  0.5601 -0.4509 -0.1843
  808MOL0     C 6526  11.017   3.607   7.404  0.1022  0.4162 -0.1453
  808MOL0     O 6527  10.889   3.620   7.369  0.2402  0.1345 -0.2535
  808MOL0     C 6528  10.786   3.592   7.454 -0.0512 -0.4371 -0.5635
  808MOL0     C 6529  10.735   3.701   7.525 -0.1929  0.3973  0.2701
  808MOL0     C 6530  10.620   3.676   7.602  0.4325  0.2766 -0.2858
  808MOL0     C 6531  10.557   3.551   7.599 -0.3703 -0.6795 -0.7831
  808MOL0     O 6532  10.440   3.517   7.663 -0.0144  0.3657 -0.4720
  808MOL0     C 6533  10.358   3.616   7.734  0.1516 -0.1239 -0.1522
  808MOL0     C 6534  10.221   3.548   7.771 -0.0280 -0.0572 -0.1008
  808MOL0     C 6535  10.138   3.642   7.860 -0.2915 -0.1806  0.2961
  808MOL0     C 6536  10.038   3.562   7.941 -0.7969  0.3677  0.4577
  808MOL0     C 6537   9.942   3.650   8.018 -1.0779  0.7390 -0.6801
  808MOL0     C 6538   9.843   3.553   8.082 -0.3155  0.5138 -0.8535
  808MOL0     C 6539   9.752   3.617   8.180 -0.2029  0.0349  0.0562
  808MOL0     C 6540   9.658   3.725   8.111  0.2752  0.0999  0.0591
  808MOL0     N 6541   9.528   3.745   8.183 -0.9782  0.5967 -0.0497
  808MOL0     C 6542   9.440   3.645   8.221 -0.5604  0.5660 -0.9468
  808MOL0     C 6543   9.333   3.714   8.265  0.5480  0.4344  0.8372
  808MOL0     C 6544   9.207   3.652   8.316 -0.1667  0.0355  0.4047
  808MOL0     C 6545   9.124   3.597   8.204  0.4429  0.0988  0.4888
  808MOL0     C 6546   9.014   3.506   8.263  0.1302  0.7733  0.2669
  808MOL0     C 6547   8.947   3.435   8.153  0.3678 -0.1794  0.5939
  808MOL0     O 6548   8.856   3.514   8.080  0.5684 -0.0141 -0.3184
  808MOL0     C 6549   8.721   3.510   8.113 -0.3064 -0.7158 -0.1422
  808MOL0     C 6550   8.626   3.528   8.002  0.3579  0.4166 -0.4526
  808MOL0     C 6551   8.490   3.492   8.015  0.6373 -0.4422 -1.0779
  808MOL0     C 6552   8.442   3.431   8.132 -0.0811 -0.2965  0.3090
  808MOL0     C 6553   8.294   3.406   8.154  0.1084 -0.1400 -0.0596
  808MOL0     O 6554   8.260   3.335   8.268 -0.2205 -0.1797  0.4412
  808MOL0     C 6555   8.132   3.302   8.304  0.3231  0.6515  0.0213
  808MOL0     C 6556   8.023   3.390   8.290 -0.6933 -0.5783  1.1096
  808MOL0     C 6557   7.894   3.351   8.328  0.2535 -0.4966 -0.1472
  808MOL0     C 6558   7.870   3.212   8.354 -0.0977  0.1618 -0.7678
  808MOL0     O 6559   7.741   3.171   8.389 -0.2796  0.0927 -0.3766
  808MOL0     C 6560   7.619   3.239   8.343 -1.2229 -0.4413 -0.8621
  808MOL0     C 6561   7.510   3.133   8.362 -0.6474 -0.2125 -0.1792
  808MOL0     C 6562   7.378   3.186   8.303 -0.5903 -0.1353 -0.3376
  808MOL0     C 6563   7.273   3.091   8.358  0.2883 -0.7426  0.3683
  808MOL0     C 6564   7.136   3.146   8.292  0.2109  0.5932  0.4060
  808MOL0     C 6565   7.022   3.083   8.377  0.4842 -0.5754 -0.7764
  808MOL0     C 6566   6.876   3.121   8.328 -0.9137 -0.4183  0.4147
  808MOL0     C 6567   6.852   3.262   8.385  0.0006 -0.4089  0.7963
  808MOL0    Cl 6568   6.683   3.308   8.360  0.4086 -0.2803  0.6316
  808MOL0     C 6569   7.975   3.124   8.350  0.2075  0.5509 -1.0174
  808MOL0     C 6570   8.104   3.173   8.335  0.2832  0.1237 -0.6698
  808MOL0     O 6571   8.211   3.452   8.075 -0.3937  1.0099 -0.7451
  808MOL0     C 6572   8.536   3.401   8.231  0.0404 -1.0610 -0.1593
  808MOL0     C 6573   8.667   3.451   8.226 -0.4443 -0.1485 -0.6047
  808MOL0     N 6574   9.353   3.855   8.251  0.8317  0.7161  0.0988
  808MOL0     N 6575   9.470   3.868   8.210 -0.1710 -0.0994  0.4019
  808MOL0     C 6576  10.617   3.444   7.548  0.2609  0.0921  0.4146
  808MOL0     C 6577  10.734   3.461   7.474 -0.1481 -0.8312  0.0313
  808MOL0     C 6578  11.118   3.611   7.294 -0.0497  0.2633  0.0736
  808MOL0     C 6579  11.077   3.656   7.163 -0.5629  0.3401 -0.4021
  808MOL0     C 6580  11.169   3.660   7.061 -0.3221  0.2149 -0.4282
  808MOL0     C 6581  11.301   3.612   7.074  0.1239 -1.0807 -0.9309
  808MOL0     O 6582  11.377   3.607   6.963  0.2196  1.1898  0.2949
  808MOL0     C 6583  11.504   3.660   6.978  0.5847 -0.0620  0.6012
  808MOL0     C 6584  11.549   3.690   6.837 -0.2299 -0.0305  0.2925
  808MOL0     C 6585  11.698   3.717   6.846 -0.4623  0.9045  0.1847
  808MOL0     C 6586  11.742   3.790   6.710  0.5208 -0.1027 -0.4223
  808MOL0     C 6587  11.885   3.803   6.727 -0.3381  0.5864  1.2291
  808MOL0     C 6588  12.008   3.813   6.741 -0.5958 -0.1266  0.5069
  808MOL0     C 6589  11.340   3.578   7.209 -0.0530  0.0090  0.1834
  808MOL0     C 6590  11.256   3.584   7.321  0.4612  0.0784  0.0297
  808MOL0     H 6591  10.780   3.800   7.520  2.0279 -0.4991  1.0662
  808MOL0     H 6592  10.578   3.758   7.659  0.7845 -0.9845  1.9145
  808MOL0     H 6593  10.327   3.701   7.672 -1.5631  2.0987  3.4531
  808MOL0     H 6594  10.418   3.655   7.816  2.3485  2.4042 -2.7088
  808MOL0     H 6595  10.233   3.454   7.826  0.6420  0.2703  0.3246
  808MOL0     H 6596  10.173   3.529   7.674 -0.6219 -1.9381  0.5167
  808MOL0     H 6597  10.096   3.722   7.798  2.1731 -0.1701 -1.5054
  808MOL0     H 6598  10.195   3.690   7.940 -0.8398 -0.8187  1.0842
  808MOL0     H 6599   9.971   3.500   7.882  2.4277 -1.7051 -1.3166
  808MOL0     H 6600  10.091   3.492   8.007 -1.5077 -0.6584 -0.0421
  808MOL0     H 6601   9.893   3.721   7.951 -1.4259  1.7041  0.5606
  808MOL0     H 6602   9.997   3.712   8.089  4.7257 -2.6469 -1.5404
  808MOL0     H 6603   9.905   3.479   8.134  3.6731  3.4603 -0.9164
  808MOL0     H 6604   9.785   3.500   8.006  1.6819  0.0408 -2.1437
  808MOL0     H 6605   9.696   3.540   8.233 -1.0565  1.1966  0.9054
  808MOL0     H 6606   9.818   3.672   8.247 -0.7374 -2.5267  2.8641
  808MOL0     H 6607   9.650   3.688   8.009  0.0423 -0.4950  0.2893
  808MOL0     H 6608   9.721   3.814   8.098  1.9998 -1.3447 -2.3102
  808MOL0     H 6609   9.447   3.537   8.209 -1.2256  0.0687  2.1705
  808MOL0     H 6610   9.150   3.724   8.375 -0.5002 -0.4832  0.7187
  808MOL0     H 6611   9.238   3.575   8.387 -0.8637 -0.0611  0.6162
  808MOL0     H 6612   9.183   3.543   8.130 -4.0569 -1.1151 -2.6940
  808MOL0     H 6613   9.084   3.682   8.147 -1.6048 -2.4854 -2.2755
  808MOL0     H 6614   9.069   3.434   8.325  2.5839 -0.3651 -2.9312
  808MOL0     H 6615   8.945   3.568   8.321 -0.0456  0.2863  0.5733
  808MOL0     H 6616   8.893   3.346   8.187 -2.7342  0.4608 -2.1592
  808MOL0     H 6617   9.016   3.408   8.072 -0.4099  0.7811 -0.4128
  808MOL0     H 6618   8.673   3.552   7.907  1.6499 -0.6497 -0.1134
  808MOL0     H 6619   8.426   3.515   7.930 -0.1343  1.1349 -0.1198
  808MOL0     H 6620   8.045   3.489   8.253 -0.8415 -0.2812  1.8040
  808MOL0     H 6621   7.817   3.425   8.347 -0.6408 -1.5392  0.3793
  808MOL0     H 6622   7.631   3.266   8.237 -0.1296 -0.5896 -0.7840
  808MOL0     H 6623   7.597   3.329   8.401  0.1157 -0.9008  0.3994
  808MOL0     H 6624   7.500   3.123   8.471 -2.3032 -1.7716 -0.4199
  808MOL0     H 6625   7.534   3.036   8.317  1.3034  0.0177  0.2767
  808MOL0     H 6626   7.383   3.190   8.194 -1.9224 -0.9063 -0.4440
  808MOL0     H 6627   7.368   3.287   8.343 -0.5236  0.2477 -1.2771
  808MOL0     H 6628   7.305   2.992   8.325  2.0849 -0.6165  1.5676
  808MOL0     H 6629   7.273   3.089   8.467 -2.1574 -2.8246  0.3997
  808MOL0     H 6630   7.127   3.125   8.186 -1.1451  3.5547 -0.1759
  808MOL0     H 6631   7.131   3.255   8.291  1.5139  0.7290 -2.9430
  808MOL0     H 6632   7.033   3.125   8.478  1.2629 -0.6084 -0.8395
  808MOL0     H 6633   7.051   2.978   8.387  3.3358  0.1487 -0.3771
  808MOL0     H 6634   6.878   3.117   8.219  1.0278 -1.5587  0.4472
  808MOL0     H 6635   6.800   3.058   8.376 -1.4766  0.5590  0.8167
  808MOL0     H 6636   6.907   3.342   8.336 -0.7128 -0.2720  0.2106
  808MOL0     H 6637   6.876   3.252   8.492 -1.7442 -2.7354  1.0805
  808MOL0     H 6638   7.954   3.018   8.360 -0.7582  0.9880  3.5778
  808MOL0     H 6639   8.185   3.101   8.338 -1.1799 -1.7370 -2.6753
  808MOL0     H 6640   8.503   3.360   8.325  3.0477 -2.5489  0.3684
  808MOL0     H 6641   8.723   3.444   8.319 -0.1519  0.1275 -0.7558
  808MOL0     H 6642  10.582   3.342   7.558  0.1091  0.0523 -0.4968
  808MOL0     H 6643  10.781   3.373   7.432 -0.8242 -1.2854  0.2225
  808MOL0     H 6644  10.977   3.694   7.146 -1.4969 -0.7369  2.1006
  808MOL0     H 6645  11.133   3.702   6.968  1.4896  3.4685  0.1910
  808MOL0     H 6646  11.574   3.582   7.008  0.7902 -0.6401 -1.2968
  808MOL0     H 6647  11.499   3.748   7.044  0.1052  1.3338 -1.2177
  808MOL0     H 6648  11.522   3.615   6.762  0.1650 -0.4553  0.5683
  808MOL0     H 6649  11.492   3.780   6.811  0.7956  0.5962  0.1280
  808MOL0     H 6650  11.757   3.624   6.844 -2.8074 -0.6554 -0.9318
  808MOL0     H 6651  11.727   3.778   6.932  1.0829 -1.5931  1.5627
  808MOL0     H 6652  11.721   3.730   6.621 -1.0596  0.8252 -0.7056
  808MOL0     H 6653  11.695   3.889   6.712 -1.9978 -1.2486  0.1669
  808MOL0     H 6654  12.110   3.832   6.768 -0.6600 -0.2646  0.8573
  808MOL0     H 6655  11.441   3.542   7.224  0.4156  1.0022 -0.4571
  808MOL0     H 6656  11.291   3.546   7.417 -0.6472 -1.1235 -0.0126
  809MOL0     O 6657   0.560   3.481   8.789  0.3883  0.1948  0.0128
  809MOL0     C 6658   0.591   3.368   8.781  0.1115  0.1628 -0.0282
  809MOL0     O 6659   0.505   3.262   8.752  0.5882  0.2731  0.4919
  809MOL0     C 6660   0.366   3.287   8.746  0.4562 -0.7127 -0.5746
  809MOL0     C 6661   0.300   3.222   8.648 -0.6959 -0.3574  0.4284
  809MOL0     C 6662   0.164   3.244   8.633  0.5008  0.5321 -0.4114
  809MOL0     C 6663   0.098   3.330   8.723 -0.4559 -0.0177  0.3275
  809MOL0     O 6664  -0.033   3.364   8.712  0.1546  0.4167  0.1802
  809MOL0     C 6665  -0.114   3.319   8.828  0.4519 -0.3175 -0.4909
  809MOL0     C 6666  -0.266   3.306   8.788 -0.1180 -1.2221  0.2726
  809MOL0     C 6667  -0.321   3.448   8.767 -0.0682 -0.0139  0.3191
  809MOL0     C 6668  -0.467   3.466   8.717  0.1858 -1.0753  0.9210
  809MOL0     C 6669  -0.570   3.467   8.826  0.3321 -0.3966  0.6986
  809MOL0     C 6670  -0.706   3.409   8.782 -0.1007 -0.0408 -0.6666
  809MOL0     C 6671  -0.823   3.433   8.882 -0.0495  0.5882 -0.6370
  809MOL0     C 6672  -0.903   3.553   8.847 -0.2566 -0.2661  0.4445
  809MOL0     N 6673  -1.034   3.565   8.919 -0.0685  1.3238 -0.0194
  809MOL0     C 6674  -1.164   3.558   8.866 -1.3020  1.1013  0.0368
  809MOL0     C 6675  -1.240   3.578   8.980  0.1300  0.2204  0.1038
  809MOL0     C 6676  -1.390   3.578   8.971  0.8301  0.2393 -0.6186
  809MOL0     C 6677  -1.464   3.599   9.102 -0.0591  0.5801 -0.2406
  809MOL0     C 6678  -1.612   3.601   9.080  0.9371  0.3151 -0.5283
  809MOL0     C 6679  -1.689   3.564   9.216 -0.0270  0.3500  0.2715
  809MOL0     O 6680  -1.826   3.606   9.209 -0.2019  0.6146  0.9989
  809MOL0     C 6681  -1.922   3.554   9.289 -0.6414 -0.0422 -0.5096
  809MOL0     C 6682  -1.906   3.493   9.413 -0.2050  0.7127 -0.2580
  809MOL0     C 6683  -2.017   3.443   9.494 -0.0267 -0.1711  0.1164
  809MOL0     C 6684  -2.149   3.465   9.447  0.1426  0.1618  0.2378
  809MOL0     C 6685  -2.253   3.434   9.538 -0.0126 -0.4159  0.2770
  809MOL0     O 6686  -2.219   3.454   9.665  0.1155 -0.9066 -0.3308
  809MOL0     C 6687  -2.321   3.436   9.760 -0.4533  0.4136 -1.0233
  809MOL0     C 6688  -2.281   3.380   9.880  0.2101 -0.1578  0.7217
  809MOL0     C 6689  -2.383   3.354   9.970 -0.5304 -0.5016  0.7722
  809MOL0     C 6690  -2.523   3.381   9.949 -0.5209  0.0475 -0.2205
  809MOL0     O 6691  -2.606   3.354  10.057 -0.2698 -0.1612  0.3237
  809MOL0     C 6692  -2.741   3.316  10.029 -0.0643 -0.2664 -0.1477
  809MOL0     C 6693  -2.814   3.281  10.158  0.1641 -0.0420  0.2367
  809MOL0     C 6694  -2.949   3.226  10.119  0.5917 -0.1792 -0.4271
  809MOL0     C 6695  -3.034   3.220  10.245  0.0991 -0.0869  0.1339
  809MOL0     C 6696  -3.185   3.193  10.193 -0.4354  0.4197  0.3112
  809MOL0     C 6697  -3.255   3.327  10.152  0.0088 -0.3371 -0.0965
  809MOL0     C 6698  -3.408   3.308  10.154  0.5467 -0.5196  0.8628
  809MOL0     C 6699  -3.485   3.421  10.072  0.2316 -0.1881  0.0120
  809MOL0    Cl 6700  -3.454   3.408   9.893  0.0917 -0.1023  0.4325
  809MOL0     C 6701  -2.556   3.440   9.832 -0.4088  0.1633 -0.5776
  809MOL0     C 6702  -2.455   3.471   9.740  0.2418  0.2199 -0.0677
  809MOL0     O 6703  -2.364   3.407   9.496 -0.6150  0.1384  0.0012
  809MOL0     C 6704  -2.163   3.539   9.324  1.0605  0.0474 -0.6986
  809MOL0     C 6705  -2.050   3.583   9.253  1.4869  0.5811 -0.4256
  809MOL0     N 6706  -1.165   3.590   9.092 -0.2747  0.1756  0.4024
  809MOL0     N 6707  -1.042   3.586   9.052  0.0422 -0.2742  0.4986
  809MOL0     C 6708   0.167   3.396   8.820 -0.6443 -0.7109 -0.1459
  809MOL0     C 6709   0.304   3.368   8.848 -0.4810 -0.3927  0.2239
  809MOL0     C 6710   0.742   3.350   8.783  0.4640  0.4292  0.5296
  809MOL0     C 6711   0.831   3.452   8.803  0.1874  1.4698 -1.0026
  809MOL0     C 6712   0.965   3.415   8.824 -0.1154 -0.3294  0.8936
  809MOL0     C 6713   1.027   3.291   8.797  0.9728 -0.3956 -0.0941
  809MOL0     O 6714   1.164   3.284   8.809 -0.2314  0.1747  0.1044
  809MOL0     C 6715   1.232   3.153   8.791  0.5059 -0.2420 -0.4676
  809MOL0     C 6716   1.381   3.180   8.774 -0.7860  0.2810 -0.1358
  809MOL0     C 6717   1.471   3.044   8.797 -0.3139 -0.8179  0.4712
  809MOL0     C 6718   1.416   2.916   8.743  0.6101 -0.2719  0.0219
  809MOL0     C 6719   1.515   2.808   8.771  0.7678  0.0430 -0.2719
  809MOL0     C 6720   1.580   2.709   8.787  1.1466 -0.0181  0.5556
  809MOL0     C 6721   0.929   3.192   8.762 -0.6441  0.2032 -0.8191
  809MOL0     C 6722   0.793   3.224   8.757  0.9981 -0.2397 -1.3001
  809MOL0     H 6723   0.353   3.154   8.583 -1.2239 -1.0190  0.6757
  809MOL0     H 6724   0.100   3.200   8.557  1.8111 -3.5596  0.5972
  809MOL0     H 6725  -0.104   3.398   8.904  1.4720  1.5617 -2.4529
  809MOL0     H 6726  -0.076   3.224   8.866  1.2881 -0.2082 -1.0324
  809MOL0     H 6727  -0.312   3.252   8.872  1.2939 -3.8184 -0.5091
  809MOL0     H 6728  -0.277   3.236   8.704 -0.6612 -0.7599 -0.0532
  809MOL0     H 6729  -0.254   3.502   8.699  0.4447 -1.3010 -0.2275
  809MOL0     H 6730  -0.308   3.498   8.864  2.6887  0.8724 -0.4249
  809MOL0     H 6731  -0.479   3.553   8.652  2.0245 -2.0716 -0.8800
  809MOL0     H 6732  -0.471   3.384   8.645 -0.5149  0.7636 -1.2823
  809MOL0     H 6733  -0.593   3.570   8.851 -0.5694  0.1841 -2.0810
  809MOL0     H 6734  -0.532   3.420   8.917  1.1440 -0.3656  0.3877
  809MOL0     H 6735  -0.692   3.301   8.776 -0.3000 -0.0197 -1.8014
  809MOL0     H 6736  -0.734   3.442   8.681 -0.7063 -3.3170 -1.6829
  809MOL0     H 6737  -0.887   3.345   8.880 -0.9351  0.9986  3.1570
  809MOL0     H 6738  -0.793   3.437   8.987 -1.3123  0.2443 -0.2472
  809MOL0     H 6739  -0.923   3.546   8.740  1.1488 -0.1633  0.1592
  809MOL0     H 6740  -0.845   3.645   8.859 -0.9016  0.3040 -0.6472
  809MOL0     H 6741  -1.192   3.549   8.761  0.6143  1.8508 -0.5788
  809MOL0     H 6742  -1.426   3.487   8.921  0.1364  0.0935  0.1213
  809MOL0     H 6743  -1.423   3.657   8.903 -0.1710  0.9235  0.6192
  809MOL0     H 6744  -1.435   3.685   9.162 -0.0451  0.2427  0.2393
  809MOL0     H 6745  -1.449   3.517   9.172 -1.3297  2.2191  2.1095
  809MOL0     H 6746  -1.636   3.699   9.039 -1.5019  0.0653  0.1464
  809MOL0     H 6747  -1.630   3.525   9.005  2.9466 -1.3635  0.5761
  809MOL0     H 6748  -1.642   3.613   9.302 -0.2757  0.5234  0.3092
  809MOL0     H 6749  -1.688   3.455   9.230  2.4251  0.2183 -0.4594
  809MOL0     H 6750  -1.811   3.468   9.459  0.3304  0.8176 -1.2763
  809MOL0     H 6751  -1.997   3.388   9.586  2.8119  2.9364  1.5850
  809MOL0     H 6752  -2.178   3.353   9.900  0.3128  0.5463  1.2247
  809MOL0     H 6753  -2.349   3.309  10.062  2.0820 -3.2937 -1.3419
  809MOL0     H 6754  -2.741   3.225   9.968 -2.7863 -0.9788  0.7646
  809MOL0     H 6755  -2.797   3.402   9.990 -0.2643 -0.6696 -0.7751
  809MOL0     H 6756  -2.832   3.371  10.217  0.8920 -0.4811  1.1479
  809MOL0     H 6757  -2.767   3.208  10.224 -0.7738  1.0485  2.2024
  809MOL0     H 6758  -2.928   3.128  10.074  1.7643 -1.4671  2.6158
  809MOL0     H 6759  -2.998   3.295  10.050 -1.2503 -1.1776 -0.1755
  809MOL0     H 6760  -2.998   3.147  10.318 -0.4937  2.5687  3.3061
  809MOL0     H 6761  -3.032   3.317  10.296  0.0726 -0.8367  1.6020
  809MOL0     H 6762  -3.249   3.145  10.267 -3.1176 -0.2921 -2.2809
  809MOL0     H 6763  -3.173   3.124  10.108 -0.2986 -0.7705  1.2742
  809MOL0     H 6764  -3.223   3.359  10.053  0.1959  0.2204  0.1356
  809MOL0     H 6765  -3.235   3.409  10.222  2.7684 -1.1289  0.1452
  809MOL0     H 6766  -3.435   3.216  10.102 -0.2945  1.8906 -3.4384
  809MOL0     H 6767  -3.439   3.310  10.259  1.8797  2.3182  1.3071
  809MOL0     H 6768  -3.471   3.525  10.100 -0.2073  0.1211 -0.8733
  809MOL0     H 6769  -3.589   3.388  10.083  0.5895 -2.7886 -2.7823
  809MOL0     H 6770  -2.662   3.462   9.815 -0.5539  0.7590  0.9579
  809MOL0     H 6771  -2.504   3.519   9.656 -2.3520  0.2449  1.3504
  809MOL0     H 6772  -2.261   3.570   9.288  0.2481  0.0528  1.3533
  809MOL0     H 6773  -2.068   3.653   9.172 -0.4234  0.2837 -0.3037
  809MOL0     H 6774   0.117   3.471   8.880  1.4845  0.7132 -0.0408
  809MOL0     H 6775   0.358   3.431   8.918 -0.8342  2.9063 -2.1871
  809MOL0     H 6776   0.795   3.553   8.819 -2.2392  0.4079  0.9019
  809MOL0     H 6777   1.037   3.492   8.850 -0.1342 -1.2097  4.0180
  809MOL0     H 6778   1.193   3.105   8.701  1.2747  0.1822 -1.0391
  809MOL0     H 6779   1.207   3.102   8.885 -2.6306  1.6520 -0.1439
  809MOL0     H 6780   1.400   3.211   8.671  1.3598  0.6168  0.3033
  809MOL0     H 6781   1.421   3.257   8.839 -0.6426 -1.3279  1.7763
  809MOL0     H 6782   1.498   3.040   8.903  1.4346 -0.9709  0.0647
  809MOL0     H 6783   1.566   3.073   8.750 -0.5297  0.3229  0.7221
  809MOL0     H 6784   1.324   2.884   8.794  0.4032 -1.5589 -1.0956
  809MOL0     H 6785   1.410   2.920   8.634  0.9651  1.0481  0.0391
  809MOL0     H 6786   1.626   2.614   8.801  1.3878 -0.1275 -0.8209
  809MOL0     H 6787   0.959   3.090   8.738 -4.3719 -0.8875 -1.4729
  809MOL0     H 6788   0.726   3.143   8.728  0.1397 -0.9864  2.3150
  810MOL0     O 6789   2.984   9.682   7.148 -0.0169  0.3358  0.5994
  810MOL0     C 6790   2.976   9.766   7.056  0.4599  0.9074 -0.9093
  810MOL0     O 6791   2.861   9.829   7.020  0.1925  0.7762  0.6814
  810MOL0     C 6792   2.739   9.796   7.081 -0.3285 -0.2919 -0.2172
  810MOL0     C 6793   2.687   9.669   7.077  0.5181  0.8187  0.7038
  810MOL0     C 6794   2.557   9.644   7.116 -0.5439 -0.5022 -0.4756
  810MOL0     C 6795   2.478   9.753   7.167  0.8225 -0.0485 -0.1896
  810MOL0     O 6796   2.345   9.749   7.212  0.2152 -0.0470 -0.3480
  810MOL0     C 6797   2.286   9.615   7.219  0.2683 -1.1848  0.6219
  810MOL0     C 6798   2.142   9.626   7.258 -0.1252  0.5032 -0.0278
  810MOL0     C 6799   2.078   9.489   7.286 -0.0655  0.2279  0.6471
  810MOL0     C 6800   1.933   9.512   7.341 -0.1731  0.1067  0.0681
  810MOL0     C 6801   1.855   9.378   7.326 -1.0521  0.0274  0.6449
  810MOL0     C 6802   1.730   9.375   7.407  0.3242 -0.4550 -0.1058
  810MOL0     C 6803   1.615   9.469   7.372  0.3231 -0.4223  0.4850
  810MOL0     C 6804   1.485   9.465   7.455 -0.1368 -0.2402 -0.5370
  810MOL0     N 6805   1.383   9.367   7.414  0.2821  0.3607  0.1848
  810MOL0     C 6806   1.366   9.237   7.458 -0.4605 -0.3086  0.4703
  810MOL0     C 6807   1.259   9.197   7.383 -0.1588  0.1530 -0.0023
  810MOL0     C 6808   1.211   9.060   7.385  1.4967 -0.4620 -0.1320
  810MOL0     C 6809   1.059   9.058   7.403 -0.1201  0.1970  0.9767
  810MOL0     C 6810   1.024   8.907   7.419  0.2969  0.3533 -0.7082
  810MOL0     C 6811   0.877   8.864   7.417 -0.1753 -0.9931 -0.3031
  810MOL0     O 6812   0.794   8.945   7.485 -0.1472 -0.0409 -0.3912
  810MOL0     C 6813   0.666   8.912   7.514 -0.1587 -0.1788  0.4224
  810MOL0     C 6814   0.558   8.996   7.483 -0.2549 -0.4171  0.0495
  810MOL0     C 6815   0.426   8.952   7.503 -0.2896  0.6724  0.7035
  810MOL0     C 6816   0.401   8.831   7.564 -0.1751 -0.1137 -0.3775
  810MOL0     C 6817   0.263   8.781   7.589 -0.0735  0.2686  0.3430
  810MOL0     O 6818   0.166   8.871   7.557  0.6688  0.7409  0.0587
  810MOL0     C 6819   0.036   8.846   7.589  0.8897 -0.3397  0.3417
  810MOL0     C 6820  -0.056   8.925   7.510  0.0097  0.1535  1.1731
  810MOL0     C 6821  -0.193   8.919   7.533 -0.2270 -0.7448 -0.5946
  810MOL0     C 6822  -0.245   8.857   7.654 -1.0475 -0.1943  0.5254
  810MOL0     O 6823  -0.375   8.861   7.697  0.0359  0.2242 -0.8600
  810MOL0     C 6824  -0.462   8.965   7.636  0.2765 -0.0885  0.7027
  810MOL0     C 6825  -0.608   8.940   7.680  0.9694 -0.3683 -0.2415
  810MOL0     C 6826  -0.632   8.991   7.822 -0.7878 -0.0319 -0.1194
  810MOL0     C 6827  -0.779   9.006   7.861  0.0396  0.6011 -0.0372
  810MOL0     C 6828  -0.871   8.890   7.825 -0.1871  0.5922  0.5141
  810MOL0     C 6829  -1.012   8.922   7.884 -0.2402 -0.1318  0.5370
  810MOL0     C 6830  -1.115   8.817   7.844 -0.5593 -0.1684 -0.1882
  810MOL0     C 6831  -1.249   8.850   7.906 -0.2569 -0.8119 -0.0049
  810MOL0    Cl 6832  -1.332   8.997   7.835  0.0494  0.3343 -0.4527
  810MOL0     C 6833  -0.156   8.767   7.716  0.7814 -0.2282  0.4819
  810MOL0     C 6834  -0.019   8.769   7.688  0.1994 -1.0139  0.0310
  810MOL0     O 6835   0.253   8.668   7.635  1.3282 -0.3623  0.1107
  810MOL0     C 6836   0.512   8.750   7.604 -0.3987  0.6134  1.7246
  810MOL0     C 6837   0.645   8.797   7.588 -0.2436 -0.2656  0.4345
  810MOL0     N 6838   1.218   9.300   7.301  0.5057  0.6611 -0.0566
  810MOL0     N 6839   1.287   9.397   7.323  0.0638 -0.2830 -0.1788
  810MOL0     C 6840   2.538   9.874   7.171  0.2619 -0.2656 -0.5403
  810MOL0     C 6841   2.661   9.893   7.124  0.5706 -0.2911  0.0061
  810MOL0     C 6842   3.094   9.805   6.979  0.4792 -0.1059 -0.0977
  810MOL0     C 6843   3.074   9.855   6.848 -0.5629 -0.1037 -0.0668
  810MOL0     C 6844   3.191   9.900   6.774  0.6464  0.5847 -0.1696
  810MOL0     C 6845   3.322   9.900   6.824 -0.0437 -0.4087 -0.2977
  810MOL0     O 6846   3.434   9.937   6.757 -0.0438  0.3267  0.2035
  810MOL0     C 6847   3.420  10.039   6.648 -0.0984  0.5469  0.1225
  810MOL0     C 6848   3.558  10.089   6.609 -0.1703  0.3565  0.5910
  810MOL0     C 6849   3.642   9.976   6.541  0.0059 -0.0837 -0.5359
  810MOL0     C 6850   3.768  10.031   6.482 -0.3121 -0.1006 -0.0803
  810MOL0     C 6851   3.741  10.122   6.372  0.7364  0.2358 -0.5260
  810MOL0     C 6852   3.702  10.196   6.283 -1.0857 -0.4183  0.3851
  810MOL0     C 6853   3.342   9.840   6.952  0.0685  0.4323 -0.1887
  810MOL0     C 6854   3.230   9.797   7.024  0.3199  0.0655 -0.0838
  810MOL0     H 6855   2.751   9.592   7.037 -0.9839 -1.0626  1.7768
  810MOL0     H 6856   2.518   9.544   7.132 -1.1356  0.0268  1.8571
  810MOL0     H 6857   2.346   9.551   7.284 -2.1744 -3.0577  1.1227
  810MOL0     H 6858   2.290   9.577   7.117  1.6571 -4.8770  1.8925
  810MOL0     H 6859   2.095   9.681   7.176  0.0758 -0.3235 -0.7067
  810MOL0     H 6860   2.130   9.687   7.349 -2.0049  0.8605 -0.4665
  810MOL0     H 6861   2.139   9.428   7.353  0.0797 -0.5663 -0.1818
  810MOL0     H 6862   2.074   9.423   7.198  1.5317 -2.1812  2.2682
  810MOL0     H 6863   1.946   9.542   7.445 -1.9222  1.2534 -0.0157
  810MOL0     H 6864   1.885   9.592   7.284 -1.2439 -0.4401  0.1938
  810MOL0     H 6865   1.920   9.298   7.363  1.0080  2.1347  1.8542
  810MOL0     H 6866   1.835   9.356   7.221 -3.1841  4.6895 -0.2057
  810MOL0     H 6867   1.759   9.389   7.512 -2.5941  1.0835  0.6176
  810MOL0     H 6868   1.682   9.277   7.399 -0.7632  0.1861 -1.9904
  810MOL0     H 6869   1.653   9.570   7.389  1.6926 -0.8099 -0.1432
  810MOL0     H 6870   1.594   9.454   7.265 -1.5011  0.6450  0.6551
  810MOL0     H 6871   1.439   9.564   7.456  0.9457  0.2890  0.4082
  810MOL0     H 6872   1.516   9.441   7.558  1.2782  1.3989 -0.5329
  810MOL0     H 6873   1.429   9.188   7.531 -2.0859  2.4001  4.0509
  810MOL0     H 6874   1.249   8.990   7.459 -1.4986 -3.1625 -0.8960
  810MOL0     H 6875   1.240   9.013   7.290 -2.2876  0.1351 -1.7918
  810MOL0     H 6876   0.995   9.095   7.323 -0.3341 -1.9949  0.0700
  810MOL0     H 6877   1.030   9.118   7.490 -1.5951  1.6895 -0.4711
  810MOL0     H 6878   1.068   8.847   7.339 -4.9358 -2.2460 -2.1497
  810MOL0     H 6879   1.061   8.875   7.517  1.5110  0.1545 -1.2206
  810MOL0     H 6880   0.882   8.763   7.459 -0.3190  0.5875  4.0324
  810MOL0     H 6881   0.838   8.854   7.316 -2.5442 -0.9106  0.5444
  810MOL0     H 6882   0.579   9.095   7.442 -0.7293 -0.1822  0.3615
  810MOL0     H 6883   0.349   9.028   7.494  0.2085  1.3065  1.6623
  810MOL0     H 6884  -0.019   8.991   7.433 -1.7575 -0.4693 -0.2857
  810MOL0     H 6885  -0.251   8.984   7.467  0.7115  0.2703 -0.4539
  810MOL0     H 6886  -0.453   8.973   7.527  0.9939 -0.6710  0.7065
  810MOL0     H 6887  -0.417   9.062   7.660  0.9996 -0.5909  1.4108
  810MOL0     H 6888  -0.629   8.833   7.670  0.8873 -0.2379 -1.7581
  810MOL0     H 6889  -0.667   9.001   7.610  1.4444  1.6019  0.9750
  810MOL0     H 6890  -0.581   9.087   7.836  3.0076 -1.6707 -1.4308
  810MOL0     H 6891  -0.587   8.915   7.886  2.0120 -0.2903 -2.1818
  810MOL0     H 6892  -0.777   9.013   7.970  2.1291 -3.4300  0.3835
  810MOL0     H 6893  -0.815   9.095   7.810  1.1395 -0.9169 -3.7953
  810MOL0     H 6894  -0.836   8.796   7.868 -1.4453 -0.4812 -0.7302
  810MOL0     H 6895  -0.869   8.876   7.717  1.4054  2.9311  0.1808
  810MOL0     H 6896  -1.046   9.020   7.850 -0.3802 -0.7676 -1.3176
  810MOL0     H 6897  -1.008   8.924   7.993 -2.5796 -0.1167  0.6719
  810MOL0     H 6898  -1.120   8.799   7.737  0.9540 -1.8180 -0.0275
  810MOL0     H 6899  -1.074   8.731   7.898  1.1939  0.8730  0.2024
  810MOL0     H 6900  -1.233   8.871   8.013 -1.7946 -2.0285  0.5009
  810MOL0     H 6901  -1.308   8.758   7.900  1.9368 -2.3023 -0.0281
  810MOL0     H 6902  -0.190   8.704   7.797  0.2188 -1.2687 -0.5394
  810MOL0     H 6903   0.038   8.693   7.741 -0.6322 -1.9942 -0.4383
  810MOL0     H 6904   0.491   8.655   7.652 -0.7157 -0.5141 -0.4786
  810MOL0     H 6905   0.723   8.724   7.607 -0.3583 -0.2521  0.9511
  810MOL0     H 6906   2.478   9.957   7.208  0.0018 -0.8792  0.4269
  810MOL0     H 6907   2.703   9.993   7.133  0.3344 -0.0674 -1.1507
  810MOL0     H 6908   2.974   9.848   6.805 -0.6980  0.2320  0.1922
  810MOL0     H 6909   3.179   9.937   6.673  1.4810 -0.8837 -0.8435
  810MOL0     H 6910   3.360  10.121   6.688  0.4938  0.1740  1.8365
  810MOL0     H 6911   3.370   9.997   6.560  0.3333  1.6662 -0.6862
  810MOL0     H 6912   3.537  10.164   6.532 -4.4365  0.9032  2.0329
  810MOL0     H 6913   3.604  10.137   6.696  1.0485 -0.4858  0.4340
  810MOL0     H 6914   3.577   9.935   6.463  0.2808 -1.9195  0.1674
  810MOL0     H 6915   3.648   9.893   6.611 -3.0202 -0.3756 -0.4788
  810MOL0     H 6916   3.834  10.075   6.558  0.7149 -2.7734  0.7008
  810MOL0     H 6917   3.829   9.952   6.438 -0.6795 -1.1497  1.2213
  810MOL0     H 6918   3.660  10.262   6.210  0.6312 -0.3021 -0.5595
  810MOL0     H 6919   3.443   9.831   6.989 -1.3660 -3.8569  3.6655
  810MOL0     H 6920   3.243   9.754   7.123 -1.7149  0.5711  0.4515
  811MOL0     O 6921   9.262   2.398   2.565 -0.1780  0.6966  0.1244
  811MOL0     C 6922   9.288   2.427   2.679 -0.6816 -0.5402 -0.2674
  811MOL0     O 6923   9.195   2.450   2.775  0.5314 -0.4307  0.1153
  811MOL0     C 6924   9.058   2.442   2.743  0.2643  0.2955  0.6257
  811MOL0     C 6925   8.982   2.398   2.854 -0.2967  0.8306 -0.2313
  811MOL0     C 6926   8.842   2.390   2.840  0.3637 -0.4495 -0.6910
  811MOL0     C 6927   8.774   2.442   2.731 -0.4480 -0.1845 -0.0715
  811MOL0     O 6928   8.636   2.427   2.731 -0.3307 -0.6497 -0.3351
  811MOL0     C 6929   8.553   2.499   2.640 -1.4110  0.7024  0.1999
  811MOL0     C 6930   8.416   2.478   2.680  0.1946 -0.1840 -0.3610
  811MOL0     C 6931   8.315   2.519   2.565 -0.1058  0.5353 -0.6113
  811MOL0     C 6932   8.178   2.495   2.620 -0.6761 -0.1762  0.5021
  811MOL0     C 6933   8.087   2.530   2.495  0.0019 -0.2566 -0.4295
  811MOL0     C 6934   7.942   2.489   2.512  0.4905 -0.0870  0.4011
  811MOL0     C 6935   7.850   2.597   2.577 -0.8373  0.0150 -0.5743
  811MOL0     C 6936   7.707   2.558   2.621 -0.8469 -0.5136 -0.3588
  811MOL0     N 6937   7.641   2.470   2.533 -0.4256  0.4351 -0.2264
  811MOL0     C 6938   7.578   2.520   2.422 -0.3802  0.4360 -0.4502
  811MOL0     C 6939   7.546   2.414   2.345 -0.2684 -0.1184 -0.5758
  811MOL0     C 6940   7.499   2.436   2.209 -0.1045  0.2217  0.2386
  811MOL0     C 6941   7.364   2.504   2.197 -0.8597  0.0867  0.0337
  811MOL0     C 6942   7.319   2.503   2.052  0.9438  0.3924  0.6589
  811MOL0     C 6943   7.208   2.589   2.000  0.8152 -0.1766  0.2358
  811MOL0     O 6944   7.110   2.626   2.097  0.0956  0.7608  0.0658
  811MOL0     C 6945   6.978   2.627   2.039 -0.2727  0.5680  0.1002
  811MOL0     C 6946   6.952   2.668   1.905 -0.5901  1.0825  0.5436
  811MOL0     C 6947   6.820   2.684   1.865  0.2014  0.2112  0.4358
  811MOL0     C 6948   6.707   2.669   1.946 -0.3597 -0.6306  0.4055
  811MOL0     C 6949   6.578   2.696   1.887  0.7571 -0.0117 -0.5403
  811MOL0     O 6950   6.481   2.670   1.983 -0.0030 -0.4701  0.2938
  811MOL0     C 6951   6.348   2.704   1.956 -0.5064  1.2095  0.1087
  811MOL0     C 6952   6.274   2.644   1.851  0.1394 -0.0337 -0.0457
  811MOL0     C 6953   6.138   2.667   1.830 -0.4502  0.1269  0.3504
  811MOL0     C 6954   6.063   2.748   1.913 -0.2689 -0.2513 -0.5573
  811MOL0     O 6955   5.927   2.754   1.896  0.3114 -0.5916  0.4229
  811MOL0     C 6956   5.838   2.773   2.009  0.1964 -0.2295  0.5523
  811MOL0     C 6957   5.694   2.772   1.974 -0.4985  0.0028 -0.3136
  811MOL0     C 6958   5.595   2.766   2.090 -0.2882  0.8572  0.5795
  811MOL0     C 6959   5.458   2.706   2.054  0.9396 -0.4113  0.0848
  811MOL0     C 6960   5.390   2.659   2.186  0.1034 -0.0010  0.4304
  811MOL0     C 6961   5.238   2.630   2.173 -0.2525  0.0127 -0.1911
  811MOL0     C 6962   5.159   2.710   2.072  0.0171 -0.2863 -0.4637
  811MOL0     C 6963   5.016   2.662   2.058  0.2891  0.4765  0.2924
  811MOL0    Cl 6964   4.988   2.513   1.971  0.0968  0.0776  0.1797
  811MOL0     C 6965   6.133   2.813   2.021 -0.1827 -0.5122 -0.6622
  811MOL0     C 6966   6.273   2.789   2.045  0.3727 -0.8437  0.6114
  811MOL0     O 6967   6.563   2.735   1.772 -0.0156 -0.2373  0.7305
  811MOL0     C 6968   6.731   2.619   2.078 -0.1353 -1.0063  0.0948
  811MOL0     C 6969   6.864   2.596   2.122 -0.3028  0.6851  0.2446
  811MOL0     N 6970   7.593   2.299   2.414 -0.0334 -1.0617 -0.1546
  811MOL0     N 6971   7.633   2.334   2.534 -0.4969  0.0804 -0.4387
  811MOL0     C 6972   8.849   2.483   2.622  0.1065  0.4449  0.5118
  811MOL0     C 6973   8.989   2.481   2.626 -0.0592  0.0264  0.4728
  811MOL0     C 6974   9.430   2.431   2.720  0.6618  0.5105 -0.4691
  811MOL0     C 6975   9.463   2.403   2.855  0.4637 -0.5720 -0.7810
  811MOL0     C 6976   9.599   2.415   2.886 -0.2608  0.4511  0.8688
  811MOL0     C 6977   9.699   2.443   2.790 -0.0996 -0.0842 -1.2742
  811MOL0     O 6978   9.822   2.442   2.847  0.2180 -0.1076  0.4054
  811MOL0     C 6979   9.930   2.486   2.769  0.3079 -0.1429 -0.1569
  811MOL0     C 6980  10.023   2.568   2.857 -0.2285  0.6071  0.2130
  811MOL0     C 6981  10.165   2.612   2.821 -0.2952 -0.4508 -0.0995
  811MOL0     C 6982  10.250   2.507   2.752 -0.3315  0.4385 -1.0035
  811MOL0     C 6983  10.271   2.395   2.846  0.4064 -0.3930 -0.5468
  811MOL0     C 6984  10.311   2.295   2.900  0.0865  0.1402 -0.2441
  811MOL0     C 6985   9.671   2.449   2.661 -0.3659 -0.0728  0.2198
  811MOL0     C 6986   9.531   2.445   2.616 -0.3512  0.7108 -0.3713
  811MOL0     H 6987   9.023   2.370   2.950 -0.8798 -1.2476 -0.5422
  811MOL0     H 6988   8.781   2.345   2.918  3.8579  0.5127  2.9140
  811MOL0     H 6989   8.570   2.447   2.545 -0.8499  0.1891  0.5745
  811MOL0     H 6990   8.580   2.605   2.640  2.4122 -0.0973  2.0143
  811MOL0     H 6991   8.402   2.537   2.771  3.0206  0.5130 -0.3075
  811MOL0     H 6992   8.405   2.370   2.693 -2.3720 -0.2216 -2.0030
  811MOL0     H 6993   8.339   2.460   2.476  1.6315  1.8503 -1.0744
  811MOL0     H 6994   8.333   2.625   2.547 -4.3637  1.8650  1.4934
  811MOL0     H 6995   8.166   2.395   2.662  3.6510  0.1061  2.9859
  811MOL0     H 6996   8.147   2.569   2.695 -0.4037  0.5857 -0.1217
  811MOL0     H 6997   8.118   2.461   2.416  1.2843  0.3434 -0.4610
  811MOL0     H 6998   8.092   2.636   2.472 -1.8375 -0.1904 -0.7027
  811MOL0     H 6999   7.933   2.401   2.576  0.5162 -0.6858 -0.4050
  811MOL0     H 7000   7.907   2.465   2.411  0.8555  1.2625 -0.0633
  811MOL0     H 7001   7.906   2.644   2.658 -2.1181 -1.1730  1.0723
  811MOL0     H 7002   7.839   2.680   2.506  2.0095 -1.1986 -2.6242
  811MOL0     H 7003   7.651   2.651   2.631 -0.8863 -0.8007  4.0691
  811MOL0     H 7004   7.714   2.531   2.727  1.4496  1.9206  0.2394
  811MOL0     H 7005   7.582   2.626   2.399  0.1794  0.3291 -0.8556
  811MOL0     H 7006   7.486   2.337   2.163 -1.1257  0.4333  0.0417
  811MOL0     H 7007   7.565   2.489   2.140  0.3837 -2.5206 -1.5674
  811MOL0     H 7008   7.375   2.610   2.221 -1.4599  0.6695 -2.0931
  811MOL0     H 7009   7.283   2.459   2.255  0.5013 -2.6761 -0.0666
  811MOL0     H 7010   7.408   2.519   1.990  1.3926  0.2787  1.2586
  811MOL0     H 7011   7.283   2.401   2.038  0.5464  0.5839  0.2720
  811MOL0     H 7012   7.167   2.532   1.916  1.4295 -0.0090 -0.1845
  811MOL0     H 7013   7.251   2.681   1.961 -1.6359 -0.0804 -2.4895
  811MOL0     H 7014   7.026   2.706   1.836  1.2563 -2.3927  0.3697
  811MOL0     H 7015   6.814   2.716   1.762 -0.6749 -0.1127  0.3786
  811MOL0     H 7016   6.315   2.567   1.786  0.9026  1.6162 -1.6066
  811MOL0     H 7017   6.079   2.620   1.752  1.4936  0.6911 -1.5429
  811MOL0     H 7018   5.866   2.867   2.057 -4.1850  0.8589  1.3871
  811MOL0     H 7019   5.849   2.699   2.089  0.0186  1.7517  2.4957
  811MOL0     H 7020   5.673   2.680   1.918 -2.8990 -0.4189  1.1507
  811MOL0     H 7021   5.666   2.857   1.912 -0.2245 -0.8416 -1.6450
  811MOL0     H 7022   5.587   2.867   2.132 -0.7396  0.5601  1.2175
  811MOL0     H 7023   5.636   2.700   2.167 -0.6160  0.3116  0.2878
  811MOL0     H 7024   5.400   2.776   1.993  1.3299 -2.4240 -2.7731
  811MOL0     H 7025   5.465   2.624   1.982 -3.4593 -1.1438  0.2300
  811MOL0     H 7026   5.399   2.746   2.252 -1.7398  1.3150 -0.9589
  811MOL0     H 7027   5.442   2.575   2.233  0.9569  0.4228  0.2602
  811MOL0     H 7028   5.188   2.634   2.270  1.5604 -0.0131  0.7866
  811MOL0     H 7029   5.231   2.526   2.140  0.2171 -0.4765  1.2101
  811MOL0     H 7030   5.158   2.814   2.106  4.4714 -0.8133  2.1458
  811MOL0     H 7031   5.198   2.705   1.970  3.1565 -0.0100  0.5949
  811MOL0     H 7032   4.953   2.737   2.008 -1.0073 -0.4844  0.4289
  811MOL0     H 7033   4.970   2.651   2.157 -1.1575  1.1098 -0.2842
  811MOL0     H 7034   6.080   2.873   2.094 -0.1886 -3.3356  1.8897
  811MOL0     H 7035   6.314   2.833   2.136 -1.7375  3.6022 -0.3384
  811MOL0     H 7036   6.641   2.602   2.136  0.3495 -1.5407  0.7009
  811MOL0     H 7037   6.880   2.552   2.220  0.1900 -0.7701 -0.4565
  811MOL0     H 7038   8.797   2.516   2.533 -0.1266 -3.0330 -0.8359
  811MOL0     H 7039   9.046   2.512   2.539  0.4561 -0.1674  0.7395
  811MOL0     H 7040   9.393   2.375   2.934  2.1774  1.2084  1.5200
  811MOL0     H 7041   9.635   2.400   2.987 -1.5817  0.5873  1.3767
  811MOL0     H 7042   9.900   2.555   2.690  1.2502 -2.6539 -2.8710
  811MOL0     H 7043   9.972   2.397   2.721 -0.8689 -0.8998  0.1789
  811MOL0     H 7044   9.959   2.650   2.892 -0.3197  1.0925 -1.0554
  811MOL0     H 7045  10.040   2.517   2.953 -1.0977  0.4450  0.2859
  811MOL0     H 7046  10.214   2.645   2.913 -0.3687  0.6715 -0.4376
  811MOL0     H 7047  10.151   2.699   2.755  0.7060 -0.9070 -0.9388
  811MOL0     H 7048  10.207   2.478   2.656  1.0390  1.0932 -1.8553
  811MOL0     H 7049  10.347   2.552   2.728  1.2217 -1.6492  0.8540
  811MOL0     H 7050  10.350   2.205   2.942 -1.6393 -0.9692 -0.8929
  811MOL0     H 7051   9.746   2.466   2.584  0.3713  0.2267  0.9981
  811MOL0     H 7052   9.496   2.458   2.514 -2.6015 -0.2357  0.2145
  812MOL0     O 7053  11.020   9.515   2.946 -0.3196 -1.2761 -0.8454
  812MOL0     C 7054  11.052   9.571   3.054 -0.7712 -0.0247  0.1946
  812MOL0     O 7055  10.974   9.620   3.148  0.8558 -0.0480  0.0436
  812MOL0     C 7056  10.845   9.575   3.175  0.4464 -0.4212 -0.1893
  812MOL0     C 7057  10.782   9.452   3.139 -0.6194 -0.2954  1.0510
  812MOL0     C 7058  10.662   9.413   3.202  0.0190  0.0346  0.0425
  812MOL0     C 7059  10.599   9.493   3.301 -0.1818 -0.0309  0.1462
  812MOL0     O 7060  10.472   9.463   3.330  0.0743  0.0208  0.0993
  812MOL0     C 7061  10.449   9.342   3.399 -0.3252  0.6060  0.1587
  812MOL0     C 7062  10.333   9.275   3.334  0.0310 -0.3775  0.2629
  812MOL0     C 7063  10.201   9.355   3.369  0.1359  0.0632  1.0674
  812MOL0     C 7064  10.134   9.330   3.512  0.3454  0.4292 -0.2406
  812MOL0     C 7065   9.981   9.372   3.517  0.0706  0.9671  0.1504
  812MOL0     C 7066   9.896   9.277   3.605 -0.0269 -0.3065 -0.3286
  812MOL0     C 7067   9.743   9.300   3.580 -0.1921 -0.0639 -0.8356
  812MOL0     C 7068   9.644   9.225   3.674  0.7491 -0.7040 -0.3064
  812MOL0     N 7069   9.511   9.230   3.614  0.3833 -0.0745  0.9709
  812MOL0     C 7070   9.427   9.131   3.614  1.2381  0.6238  0.7765
  812MOL0     C 7071   9.314   9.172   3.550 -0.5720 -0.0780  0.5611
  812MOL0     C 7072   9.204   9.089   3.504 -0.2058 -0.5079 -0.2642
  812MOL0     C 7073   9.143   9.004   3.623  0.1834 -0.5875 -0.5476
  812MOL0     C 7074   9.013   8.940   3.565  0.4740 -0.4558 -1.0936
  812MOL0     C 7075   8.911   8.912   3.678 -0.2976  0.7133  0.5723
  812MOL0     O 7076   8.884   9.037   3.739 -0.0391 -0.1508 -0.2630
  812MOL0     C 7077   8.777   9.055   3.825 -0.3600 -0.2077 -0.3708
  812MOL0     C 7078   8.695   8.959   3.874  0.0669  0.8442  0.2305
  812MOL0     C 7079   8.573   8.995   3.944 -0.5309 -0.8709  1.0922
  812MOL0     C 7080   8.545   9.131   3.964  0.0542  0.7497  0.0330
  812MOL0     C 7081   8.417   9.188   4.032 -0.4993  1.1938 -0.7006
  812MOL0     O 7082   8.417   9.322   4.064 -0.4914 -0.2801 -0.4025
  812MOL0     C 7083   8.314   9.378   4.138 -1.2089  0.5578 -0.7422
  812MOL0     C 7084   8.198   9.411   4.066 -0.2246 -0.3222  0.0683
  812MOL0     C 7085   8.082   9.454   4.129 -0.3711 -1.0236  0.6081
  812MOL0     C 7086   8.072   9.459   4.270  0.2494  0.0280  0.9883
  812MOL0     O 7087   7.962   9.511   4.333 -0.3175 -0.3761 -0.0887
  812MOL0     C 7088   7.896   9.627   4.274 -0.5167  0.4242  1.2229
  812MOL0     C 7089   7.765   9.577   4.211 -0.8135  1.0042  0.1430
  812MOL0     C 7090   7.685   9.695   4.158 -0.3232  0.0169 -0.2866
  812MOL0     C 7091   7.555   9.653   4.101  0.3483 -1.0833  1.8043
  812MOL0     C 7092   7.469   9.778   4.050 -0.7584  0.5407 -0.0361
  812MOL0     C 7093   7.340   9.742   3.973  0.0743 -0.3984  0.0627
  812MOL0     C 7094   7.280   9.869   3.916  0.0825  0.2350  0.4744
  812MOL0     C 7095   7.145   9.834   3.849  0.1253 -0.5398  0.1248
  812MOL0    Cl 7096   7.061   9.963   3.773 -0.1847 -0.2475  0.1468
  812MOL0     C 7097   8.183   9.419   4.342  0.3531  0.3154  0.9621
  812MOL0     C 7098   8.307   9.378   4.280 -0.1624  0.3363 -0.9870
  812MOL0     O 7099   8.322   9.105   4.055 -0.1823 -0.7026  0.6295
  812MOL0     C 7100   8.640   9.223   3.919 -0.8569  0.3842  0.1126
  812MOL0     C 7101   8.758   9.190   3.858 -0.1535  0.4868 -0.2016
  812MOL0     N 7102   9.327   9.310   3.533 -0.2369  0.0750 -0.6105
  812MOL0     N 7103   9.448   9.345   3.574  0.5429 -0.7940 -0.1352
  812MOL0     C 7104  10.652   9.626   3.321 -0.0943  0.4735 -0.2377
  812MOL0     C 7105  10.770   9.663   3.254 -0.3029 -0.4431  0.6945
  812MOL0     C 7106  11.195   9.593   3.061 -0.0557 -0.1504  0.3432
  812MOL0     C 7107  11.293   9.511   2.998  0.1098  0.3320  0.7974
  812MOL0     C 7108  11.434   9.538   3.006 -0.1478 -0.0734 -0.9079
  812MOL0     C 7109  11.484   9.643   3.080 -0.2837  0.1738  0.5147
  812MOL0     O 7110  11.618   9.658   3.096  0.0146  0.3032  0.8267
  812MOL0     C 7111  11.679   9.743   3.193  1.0591 -0.1099 -0.4962
  812MOL0     C 7112  11.829   9.732   3.175  0.8396 -0.4946 -0.4868
  812MOL0     C 7113  11.879   9.590   3.178 -0.8245  0.3848 -0.2086
  812MOL0     C 7114  12.029   9.570   3.198  0.1059 -0.5308  1.1965
  812MOL0     C 7115  12.069   9.432   3.194 -0.5173 -0.2198 -0.2453
  812MOL0     C 7116  12.086   9.316   3.200  0.3152 -0.7035 -0.0750
  812MOL0     C 7117  11.384   9.730   3.145 -0.5936  0.9574  0.1753
  812MOL0     C 7118  11.249   9.710   3.130  0.6774  0.5474 -0.4134
  812MOL0     H 7119  10.834   9.390   3.067  0.0862  0.3684  0.9648
  812MOL0     H 7120  10.612   9.322   3.171 -0.4189  0.6023 -0.9636
  812MOL0     H 7121  10.420   9.359   3.503 -1.4109 -1.9491  0.3236
  812MOL0     H 7122  10.532   9.272   3.398 -1.7565 -1.1969 -2.1555
  812MOL0     H 7123  10.313   9.171   3.362 -0.3475 -0.7313 -1.1973
  812MOL0     H 7124  10.357   9.276   3.227  2.7984  0.2692  0.8293
  812MOL0     H 7125  10.119   9.329   3.302  0.3276  0.7775  0.5456
  812MOL0     H 7126  10.214   9.463   3.358 -1.7628  0.2264 -0.2171
  812MOL0     H 7127  10.146   9.224   3.536  1.4822  0.2945 -1.3002
  812MOL0     H 7128  10.191   9.383   3.589  0.2863  1.0789 -0.6354
  812MOL0     H 7129   9.931   9.353   3.422  1.0550 -2.9860  0.2280
  812MOL0     H 7130   9.971   9.475   3.551  0.1448  1.0621 -0.1134
  812MOL0     H 7131   9.915   9.308   3.708 -1.5378  4.2541 -1.1862
  812MOL0     H 7132   9.930   9.174   3.586  0.4624 -0.0606 -0.8200
  812MOL0     H 7133   9.722   9.407   3.597  0.5285  0.2004 -1.5819
  812MOL0     H 7134   9.711   9.277   3.478 -2.4220  2.5309 -0.8425
  812MOL0     H 7135   9.632   9.277   3.769 -1.0894 -1.6692  0.0486
  812MOL0     H 7136   9.683   9.126   3.697  1.0781 -0.2377  1.2570
  812MOL0     H 7137   9.448   9.031   3.651 -1.0383 -0.1954 -0.0005
  812MOL0     H 7138   9.235   9.027   3.420 -2.6822 -1.3152 -0.6618
  812MOL0     H 7139   9.130   9.160   3.465  1.0143  0.5567 -0.7124
  812MOL0     H 7140   9.114   9.070   3.705 -1.1122 -0.0788 -1.3770
  812MOL0     H 7141   9.202   8.923   3.666  2.5363  2.0401  1.5057
  812MOL0     H 7142   8.961   9.017   3.506  2.6477  1.2923 -0.8450
  812MOL0     H 7143   9.014   8.856   3.494 -2.4166 -0.2965 -1.4771
  812MOL0     H 7144   8.963   8.843   3.745 -1.6762  1.1162  2.1256
  812MOL0     H 7145   8.819   8.865   3.641 -0.5126  1.0161  0.7163
  812MOL0     H 7146   8.733   8.858   3.859  0.3928  0.9711  0.1804
  812MOL0     H 7147   8.502   8.921   3.980 -2.6451 -0.0255 -1.0544
  812MOL0     H 7148   8.193   9.408   3.958  1.6635  1.8397 -0.1493
  812MOL0     H 7149   7.994   9.480   4.070 -0.2775 -0.6090  0.6494
  812MOL0     H 7150   7.956   9.686   4.205 -0.7364  1.3337  1.7927
  812MOL0     H 7151   7.879   9.691   4.361  1.5962  0.6987  1.4728
  812MOL0     H 7152   7.701   9.530   4.287 -2.1961  2.2524 -0.2202
  812MOL0     H 7153   7.778   9.501   4.133 -0.3012  3.4474 -2.2754
  812MOL0     H 7154   7.741   9.750   4.082  1.3058 -0.2706  0.6712
  812MOL0     H 7155   7.675   9.760   4.246  1.0330 -1.0987  0.7379
  812MOL0     H 7156   7.581   9.591   4.014  0.3320 -0.2128  1.1646
  812MOL0     H 7157   7.499   9.605   4.181  1.1915 -0.4433  2.8000
  812MOL0     H 7158   7.536   9.829   3.979 -0.3575  0.0609 -0.0071
  812MOL0     H 7159   7.444   9.840   4.137  0.7912  0.7017  0.3340
  812MOL0     H 7160   7.293   9.674   4.044  5.5279 -3.1767  1.5628
  812MOL0     H 7161   7.369   9.683   3.885  0.3900  1.5521 -1.2179
  812MOL0     H 7162   7.266   9.950   3.989 -0.1588  0.9956 -0.4042
  812MOL0     H 7163   7.350   9.894   3.836 -0.0440 -0.9724 -0.0380
  812MOL0     H 7164   7.079   9.791   3.924  0.2646  1.1382  1.2687
  812MOL0     H 7165   7.165   9.758   3.773  0.8480 -1.6817  1.4330
  812MOL0     H 7166   8.184   9.415   4.450  1.1092 -1.9255  0.9304
  812MOL0     H 7167   8.384   9.346   4.350 -0.6973 -0.6008 -0.8197
  812MOL0     H 7168   8.619   9.328   3.937 -1.6248  0.5278 -1.3885
  812MOL0     H 7169   8.826   9.270   3.829 -0.2531  0.6200 -0.0688
  812MOL0     H 7170  10.589   9.695   3.376 -0.2324  0.6812 -0.6506
  812MOL0     H 7171  10.812   9.759   3.280 -0.3126 -0.2173 -0.1009
  812MOL0     H 7172  11.266   9.427   2.934 -2.4222 -0.0117  2.1955
  812MOL0     H 7173  11.504   9.479   2.949  0.9013 -0.3072  0.5661
  812MOL0     H 7174  11.654   9.719   3.297 -0.6042  0.2021 -0.7931
  812MOL0     H 7175  11.651   9.846   3.170 -1.9597 -0.6491  0.3015
  812MOL0     H 7176  11.856   9.764   3.074  0.0374  0.0853 -0.5288
  812MOL0     H 7177  11.891   9.787   3.246 -0.3644  1.2034 -0.7078
  812MOL0     H 7178  11.847   9.528   3.094  2.0937 -1.8754  0.1729
  812MOL0     H 7179  11.823   9.545   3.261  0.5163 -2.5480 -0.7345
  812MOL0     H 7180  12.086   9.625   3.123 -3.2976  0.6429 -0.7744
  812MOL0     H 7181  12.058   9.617   3.292 -1.1108 -0.8288  1.7410
  812MOL0     H 7182  12.073   9.210   3.202 -4.9902 -0.2817  1.2895
  812MOL0     H 7183  11.404   9.822   3.199 -2.0994 -0.3382  3.1617
  812MOL0     H 7184  11.185   9.790   3.164  1.5595  1.8384 -1.7012
  813MOL0     O 7185   5.735   7.404  10.229 -0.2403  0.8286  0.5111
  813MOL0     C 7186   5.799   7.298  10.250  1.7974 -0.5624 -0.3984
  813MOL0     O 7187   5.742   7.181  10.276 -0.2468  0.2187  0.5249
  813MOL0     C 7188   5.606   7.151  10.263  0.5278  0.4755  0.4906
  813MOL0     C 7189   5.537   7.095  10.368  0.0296  1.0415 -0.1067
  813MOL0     C 7190   5.403   7.065  10.361  0.1699 -0.2154 -0.0731
  813MOL0     C 7191   5.332   7.093  10.246  0.5924  0.6357  0.0515
  813MOL0     O 7192   5.214   7.026  10.234  0.4273 -0.3308  0.5675
  813MOL0     C 7193   5.107   7.080  10.157  0.7049  0.6700 -0.6510
  813MOL0     C 7194   4.966   7.012  10.183  1.6248 -0.1121  0.6344
  813MOL0     C 7195   4.912   7.029  10.326 -0.6738 -0.7536 -0.3442
  813MOL0     C 7196   4.788   6.948  10.350 -0.8583 -0.0875 -0.5399
  813MOL0     C 7197   4.705   7.010  10.460  0.5333  0.4946  0.0892
  813MOL0     C 7198   4.607   6.906  10.516 -0.2252 -1.3193 -0.4143
  813MOL0     C 7199   4.504   6.851  10.410 -0.5616  0.0616 -0.4476
  813MOL0     C 7200   4.423   6.740  10.481  0.6569 -0.5910 -0.2446
  813MOL0     N 7201   4.283   6.737  10.427 -0.8062  0.2176 -0.5692
  813MOL0     C 7202   4.258   6.708  10.295  0.0832  0.2591 -0.4489
  813MOL0     C 7203   4.127   6.729  10.276 -0.2670  0.5160 -0.5442
  813MOL0     C 7204   4.063   6.714  10.139 -0.0356 -0.9522 -0.6130
  813MOL0     C 7205   4.009   6.851  10.081 -0.2665 -0.2441  0.2771
  813MOL0     C 7206   3.970   6.846   9.929  0.2098 -0.5924 -0.9777
  813MOL0     C 7207   3.851   6.758   9.898 -0.2737  0.0004 -0.4902
  813MOL0     O 7208   3.731   6.823   9.941  0.0912 -0.1529  0.6257
  813MOL0     C 7209   3.617   6.752   9.951  0.2403  0.5561 -1.1624
  813MOL0     C 7210   3.509   6.786   9.872  0.1565  0.6713  0.2339
  813MOL0     C 7211   3.384   6.722   9.873  0.3578 -0.0369  0.5326
  813MOL0     C 7212   3.366   6.606   9.952  0.8674  1.1126 -0.1263
  813MOL0     C 7213   3.239   6.533   9.941  0.2650  0.2721  0.0430
  813MOL0     O 7214   3.235   6.438  10.043  0.0924  0.4406 -0.0006
  813MOL0     C 7215   3.122   6.362  10.050 -0.0759 -0.4399  0.0381
  813MOL0     C 7216   3.071   6.279   9.945 -0.2688  0.0409  0.1693
  813MOL0     C 7217   2.963   6.200   9.977  0.6639  0.0515  0.0270
  813MOL0     C 7218   2.885   6.214  10.083  0.3067 -0.6281  0.1344
  813MOL0     O 7219   2.762   6.160  10.083  0.2771 -0.3588  0.6776
  813MOL0     C 7220   2.662   6.263  10.108 -0.1480  0.4578 -0.3713
  813MOL0     C 7221   2.539   6.201  10.161  0.1811 -0.7483  0.3876
  813MOL0     C 7222   2.440   6.303  10.205 -0.2884  0.6185  0.8740
  813MOL0     C 7223   2.317   6.225  10.263  1.0295  0.5708 -0.0030
  813MOL0     C 7224   2.337   6.220  10.420  0.1046 -0.2183  0.9842
  813MOL0     C 7225   2.197   6.191  10.488 -0.3145 -0.2366  0.1046
  813MOL0     C 7226   2.114   6.063  10.419 -0.4714  0.0044 -0.6015
  813MOL0     C 7227   1.981   6.043  10.491  1.2785  0.7571 -0.6157
  813MOL0    Cl 7228   1.896   5.919  10.416 -0.3314  0.1344  0.0752
  813MOL0     C 7229   2.937   6.294  10.183 -0.8763 -0.0296 -0.1707
  813MOL0     C 7230   3.054   6.365  10.173  0.0030  0.3872  0.1017
  813MOL0     O 7231   3.156   6.548   9.853 -0.4953 -0.3194 -0.2182
  813MOL0     C 7232   3.477   6.564  10.035  0.6271  0.1997 -0.3312
  813MOL0     C 7233   3.598   6.639  10.034  0.1185  0.6028 -0.2181
  813MOL0     N 7234   4.073   6.774  10.399  0.0961 -0.1698  0.2967
  813MOL0     N 7235   4.173   6.781  10.489  1.1127  0.4351  0.0548
  813MOL0     C 7236   5.395   7.155  10.139  0.2650  0.1000 -0.1328
  813MOL0     C 7237   5.530   7.192  10.150  1.1201 -0.0608 -0.2476
  813MOL0     C 7238   5.942   7.312  10.239 -0.6589  0.5585 -0.3889
  813MOL0     C 7239   6.011   7.435  10.258 -0.1688 -0.1637  0.1657
  813MOL0     C 7240   6.151   7.429  10.241  0.3768 -0.1207  0.0338
  813MOL0     C 7241   6.221   7.314  10.225 -0.5547 -0.5659  0.1752
  813MOL0     O 7242   6.359   7.323  10.224  0.7130 -0.5762  0.4448
  813MOL0     C 7243   6.403   7.380  10.097  0.0421 -0.0531 -0.0163
  813MOL0     C 7244   6.556   7.355  10.088  0.1874  0.0662  0.4881
  813MOL0     C 7245   6.621   7.436  10.207 -0.1612 -0.3169 -0.3125
  813MOL0     C 7246   6.772   7.453  10.185  0.8545 -0.3304 -0.0705
  813MOL0     C 7247   6.832   7.539  10.287  0.1944  0.4350  0.3884
  813MOL0     C 7248   6.881   7.604  10.379 -0.9598 -0.1057 -0.0539
  813MOL0     C 7249   6.154   7.193  10.209  0.5726  0.2673  0.0162
  813MOL0     C 7250   6.018   7.191  10.212 -0.0653  0.5354  0.1024
  813MOL0     H 7251   5.588   7.065  10.460  0.5454  2.0404 -0.0507
  813MOL0     H 7252   5.351   7.009  10.438 -3.7927  3.6222  0.4542
  813MOL0     H 7253   5.131   7.064  10.052  0.8573  1.8875 -0.8103
  813MOL0     H 7254   5.085   7.187  10.168 -2.1955  0.1376 -0.3626
  813MOL0     H 7255   4.965   6.908  10.149  1.6077 -0.0034  0.2930
  813MOL0     H 7256   4.901   7.055  10.107  0.0271 -0.2017  1.8982
  813MOL0     H 7257   4.888   7.131  10.359  0.2994 -1.0809  1.5088
  813MOL0     H 7258   4.993   6.993  10.390 -1.4333  0.2945  1.2657
  813MOL0     H 7259   4.730   6.945  10.258  0.0863 -0.4860 -1.1374
  813MOL0     H 7260   4.820   6.848  10.381 -0.6385  0.1547  0.0301
  813MOL0     H 7261   4.648   7.092  10.415  0.0288 -0.1645 -0.4747
  813MOL0     H 7262   4.764   7.057  10.540  2.1826  1.4902 -1.6135
  813MOL0     H 7263   4.554   6.937  10.606 -1.7702  0.0573 -1.7288
  813MOL0     H 7264   4.664   6.821  10.556 -0.2777 -1.0247  0.2941
  813MOL0     H 7265   4.425   6.922  10.384 -1.1649 -0.1026  0.8338
  813MOL0     H 7266   4.557   6.818  10.320 -0.7750 -1.3481 -0.0893
  813MOL0     H 7267   4.412   6.761  10.588 -1.0014 -1.0402 -0.3025
  813MOL0     H 7268   4.477   6.650  10.452  0.8083 -0.0088 -1.9049
  813MOL0     H 7269   4.330   6.673  10.221 -0.1649 -3.5259  0.8460
  813MOL0     H 7270   3.976   6.650  10.156 -0.6165 -0.2768 -0.9887
  813MOL0     H 7271   4.128   6.663  10.067  2.3582 -0.8136  1.3351
  813MOL0     H 7272   4.091   6.921  10.098 -0.8785  0.6387 -0.3319
  813MOL0     H 7273   3.916   6.872  10.135  1.3339 -0.4050  3.3311
  813MOL0     H 7274   3.944   6.947   9.896 -0.5529 -1.3828 -2.8960
  813MOL0     H 7275   4.051   6.806   9.867  3.2481  1.1042  1.5559
  813MOL0     H 7276   3.863   6.655   9.935 -0.4081 -0.0426 -0.5630
  813MOL0     H 7277   3.847   6.745   9.789 -0.2727 -0.4912 -0.4355
  813MOL0     H 7278   3.530   6.864   9.801  4.4179  0.4889  1.0139
  813MOL0     H 7279   3.298   6.765   9.822  0.0384  1.7895  2.4601
  813MOL0     H 7280   3.130   6.272   9.855 -0.8317 -1.6244 -0.0959
  813MOL0     H 7281   2.948   6.125   9.900  2.2414  2.1072 -2.4516
  813MOL0     H 7282   2.642   6.332  10.025 -0.1688  0.6665 -0.1934
  813MOL0     H 7283   2.690   6.336  10.184 -0.8146  1.1913 -0.8163
  813MOL0     H 7284   2.557   6.142  10.251 -0.2943  1.6570  2.1783
  813MOL0     H 7285   2.488   6.139  10.087  0.1299  1.3015 -1.3983
  813MOL0     H 7286   2.410   6.369  10.123 -1.5383  0.0434  0.8467
  813MOL0     H 7287   2.487   6.368  10.279  3.0511  0.5652 -0.9665
  813MOL0     H 7288   2.228   6.282  10.236  0.3392 -0.6461 -0.3620
  813MOL0     H 7289   2.289   6.129  10.218 -0.1012  1.0028 -0.2576
  813MOL0     H 7290   2.378   6.314  10.456  0.5055 -0.3319  0.8285
  813MOL0     H 7291   2.408   6.144  10.455 -1.1853 -0.8798  2.2640
  813MOL0     H 7292   2.134   6.280  10.480 -1.6380 -1.2918 -1.6774
  813MOL0     H 7293   2.208   6.164  10.594  0.8944 -1.4978 -0.3165
  813MOL0     H 7294   2.105   6.059  10.310 -0.0714  1.6288 -0.7141
  813MOL0     H 7295   2.173   5.975  10.445 -0.5569 -0.4150 -1.7635
  813MOL0     H 7296   1.923   6.136  10.482 -2.0105 -0.8402  1.9441
  813MOL0     H 7297   1.991   6.023  10.598  0.8197  2.2380 -0.2791
  813MOL0     H 7298   2.888   6.308  10.279 -2.7938  0.9917 -1.2449
  813MOL0     H 7299   3.095   6.425  10.254 -0.0281 -0.6170  0.8762
  813MOL0     H 7300   3.463   6.478  10.099 -2.7748 -0.4659 -1.7722
  813MOL0     H 7301   3.674   6.596  10.098 -1.5879 -3.1184 -0.4332
  813MOL0     H 7302   5.334   7.179  10.052 -1.7330 -0.0314  1.1647
  813MOL0     H 7303   5.570   7.246  10.065  0.1717  1.1984  0.0740
  813MOL0     H 7304   5.958   7.528  10.272  0.6417  0.2384  0.6012
  813MOL0     H 7305   6.198   7.526  10.257  0.5308 -0.2334  0.2692
  813MOL0     H 7306   6.379   7.487  10.097  4.4062  1.1546  0.1625
  813MOL0     H 7307   6.346   7.333  10.017 -0.2239  2.8062 -1.6497
  813MOL0     H 7308   6.584   7.250  10.094  1.2531  0.1986 -1.3705
  813MOL0     H 7309   6.596   7.393   9.994  0.4429 -0.6623  0.2951
  813MOL0     H 7310   6.603   7.373  10.294 -3.1053 -0.4848 -0.9518
  813MOL0     H 7311   6.567   7.530  10.221  0.5696 -0.0034  0.5063
  813MOL0     H 7312   6.816   7.354  10.201  1.9949  0.1362 -0.1692
  813MOL0     H 7313   6.803   7.489  10.086  2.1760 -0.9862  0.0812
  813MOL0     H 7314   6.911   7.650  10.471  1.0551  0.0296 -0.7305
  813MOL0     H 7315   6.200   7.098  10.184 -1.9896 -0.7565 -1.1530
  813MOL0     H 7316   5.973   7.092  10.210  1.4113 -0.2443  2.1419
  814MOL0     O 7317   1.503   7.268   1.506  0.1564  0.8451 -0.5374
  814MOL0     C 7318   1.443   7.182   1.444 -1.0505  0.6138 -0.3189
  814MOL0     O 7319   1.314   7.153   1.449  0.5885 -0.7389  0.2214
  814MOL0     C 7320   1.231   7.215   1.539 -0.5808 -1.5975 -0.5375
  814MOL0     C 7321   1.246   7.339   1.601  0.4045 -1.0852 -0.4641
  814MOL0     C 7322   1.153   7.393   1.691  0.1623 -0.4480  0.1808
  814MOL0     C 7323   1.032   7.329   1.722 -0.1719 -0.6562 -1.2272
  814MOL0     O 7324   0.948   7.378   1.817 -0.7188  0.8499  0.8896
  814MOL0     C 7325   0.871   7.495   1.789  0.3535 -0.2029  0.7527
  814MOL0     C 7326   0.732   7.445   1.755  0.0828 -0.4568 -0.0050
  814MOL0     C 7327   0.638   7.562   1.749  1.0281 -0.0470  0.2267
  814MOL0     C 7328   0.491   7.510   1.719 -0.0083  0.5542 -0.4711
  814MOL0     C 7329   0.393   7.637   1.716  0.1816 -0.0056  0.1247
  814MOL0     C 7330   0.250   7.582   1.699 -0.0650 -0.2460  0.4498
  814MOL0     C 7331   0.148   7.690   1.729 -0.3013 -0.5209  0.1425
  814MOL0     C 7332   0.005   7.636   1.736 -0.7185 -0.4010 -0.2037
  814MOL0     N 7333  -0.095   7.714   1.805  0.9688 -0.6561 -0.4627
  814MOL0     C 7334  -0.103   7.721   1.937  0.0299  0.7977 -0.1445
  814MOL0     C 7335  -0.207   7.800   1.969  0.9212 -0.4245 -0.2211
  814MOL0     C 7336  -0.255   7.810   2.112 -0.6855 -0.1950 -0.3428
  814MOL0     C 7337  -0.393   7.748   2.133 -0.6899 -0.2325  0.1831
  814MOL0     C 7338  -0.493   7.865   2.101 -0.9060 -0.1586 -0.0800
  814MOL0     C 7339  -0.632   7.816   2.075 -0.3386  0.3628 -0.0813
  814MOL0     O 7340  -0.672   7.746   2.187 -0.4339 -0.5346 -0.3740
  814MOL0     C 7341  -0.790   7.681   2.194 -0.2316  0.7546  1.2996
  814MOL0     C 7342  -0.885   7.685   2.095  0.1768  0.6369  0.5236
  814MOL0     C 7343  -1.022   7.645   2.122 -0.0602 -1.2339 -0.0881
  814MOL0     C 7344  -1.067   7.607   2.252 -0.0975  0.0836  0.5508
  814MOL0     C 7345  -1.211   7.585   2.279 -0.2264  0.6655  0.2564
  814MOL0     O 7346  -1.250   7.589   2.408 -0.0745 -0.2833  0.0991
  814MOL0     C 7347  -1.378   7.547   2.430  0.2478  0.3262 -0.8932
  814MOL0     C 7348  -1.482   7.628   2.403 -0.7294  0.0215  0.2868
  814MOL0     C 7349  -1.616   7.579   2.425  0.2166  0.2488 -0.1608
  814MOL0     C 7350  -1.633   7.451   2.477  0.1646 -0.5933  0.4000
  814MOL0     O 7351  -1.764   7.421   2.496 -0.7189  0.1578  0.4629
  814MOL0     C 7352  -1.802   7.305   2.568 -0.1977  0.3534 -0.9621
  814MOL0     C 7353  -1.955   7.303   2.584  0.6430 -0.7713 -0.3215
  814MOL0     C 7354  -2.040   7.284   2.454  0.8306  0.0073 -0.0846
  814MOL0     C 7355  -2.038   7.143   2.398  0.4508  0.0048  0.1400
  814MOL0     C 7356  -2.094   7.133   2.256  0.3490 -0.4026 -0.3527
  814MOL0     C 7357  -2.227   7.209   2.244 -0.4825 -0.3918  0.2034
  814MOL0     C 7358  -2.264   7.200   2.096  0.1438 -0.5594  0.7647
  814MOL0     C 7359  -2.377   7.295   2.050  0.0238  1.0330 -0.4954
  814MOL0    Cl 7360  -2.548   7.223   2.070  0.2117 -0.5539 -0.4524
  814MOL0     C 7361  -1.526   7.369   2.498  0.2547  0.0814  0.1922
  814MOL0     C 7362  -1.400   7.412   2.467 -0.5887  0.3212  0.4510
  814MOL0     O 7363  -1.283   7.558   2.182 -0.3826 -0.2967 -0.6914
  814MOL0     C 7364  -0.966   7.582   2.342  0.1028 -0.1195  0.1036
  814MOL0     C 7365  -0.828   7.619   2.310  0.5631  0.4991  0.7875
  814MOL0     N 7366  -0.253   7.854   1.852 -0.7230 -0.3789 -0.1554
  814MOL0     N 7367  -0.184   7.801   1.750  0.0059  0.8362 -0.5700
  814MOL0     C 7368   1.001   7.212   1.657 -0.8344  0.5588  0.5257
  814MOL0     C 7369   1.102   7.161   1.566 -0.1769  0.2980 -0.4780
  814MOL0     C 7370   1.531   7.099   1.351  0.5948 -1.0078 -0.7854
  814MOL0     C 7371   1.475   7.008   1.255  0.1790  0.4740 -1.2885
  814MOL0     C 7372   1.558   6.930   1.167 -0.2255 -0.7957 -0.6247
  814MOL0     C 7373   1.695   6.937   1.185 -0.2424  0.7591  0.2278
  814MOL0     O 7374   1.766   6.836   1.123  0.2242 -0.2407 -0.2407
  814MOL0     C 7375   1.905   6.830   1.149 -0.6291  0.1836 -0.2793
  814MOL0     C 7376   1.965   6.698   1.091  0.1266 -0.0251 -0.7504
  814MOL0     C 7377   2.104   6.665   1.124 -0.0023  0.6809  0.4407
  814MOL0     C 7378   2.156   6.543   1.050 -0.7077 -0.2484 -0.1743
  814MOL0     C 7379   2.291   6.513   1.093 -0.4009  0.4315  0.2217
  814MOL0     C 7380   2.404   6.489   1.147 -0.7267  0.3408 -0.4633
  814MOL0     C 7381   1.749   7.029   1.278  0.0798  0.2595 -0.2301
  814MOL0     C 7382   1.672   7.103   1.362  0.5230  0.0573 -0.2562
  814MOL0     H 7383   1.339   7.393   1.582  0.4976 -2.0784 -3.3180
  814MOL0     H 7384   1.172   7.485   1.745 -3.7774 -0.3164  1.6492
  814MOL0     H 7385   0.918   7.558   1.713 -1.0229  1.2099  1.0234
  814MOL0     H 7386   0.869   7.547   1.885 -0.6238  1.1858  0.0222
  814MOL0     H 7387   0.696   7.367   1.822  1.2515 -2.6730 -1.8344
  814MOL0     H 7388   0.748   7.392   1.660 -0.0647 -0.1281 -0.2191
  814MOL0     H 7389   0.675   7.626   1.668 -1.7089  0.1693 -0.9924
  814MOL0     H 7390   0.633   7.626   1.838 -0.5870  0.5148 -0.2212
  814MOL0     H 7391   0.481   7.459   1.622  1.0865 -0.4203 -0.0934
  814MOL0     H 7392   0.467   7.438   1.798  0.1563  0.1820 -0.7564
  814MOL0     H 7393   0.412   7.710   1.636 -0.9559  1.7088  1.3633
  814MOL0     H 7394   0.407   7.691   1.810  3.5227  1.4002 -1.0315
  814MOL0     H 7395   0.243   7.491   1.760  1.8782 -2.3259 -2.1742
  814MOL0     H 7396   0.244   7.550   1.594  0.6463 -1.4486  0.7599
  814MOL0     H 7397   0.175   7.728   1.828  0.0784  0.3600 -0.2854
  814MOL0     H 7398   0.156   7.768   1.652 -1.4424 -2.0000 -1.5728
  814MOL0     H 7399   0.015   7.538   1.782  3.1506 -2.4341 -4.5900
  814MOL0     H 7400  -0.027   7.614   1.634 -3.4651 -0.5197  0.6067
  814MOL0     H 7401  -0.050   7.656   2.006 -0.3045  0.4155 -0.2451
  814MOL0     H 7402  -0.249   7.913   2.147  0.8831 -1.0180  2.0343
  814MOL0     H 7403  -0.185   7.762   2.180 -0.7474  5.3032  4.3507
  814MOL0     H 7404  -0.401   7.731   2.241  0.6907  1.3990  0.5920
  814MOL0     H 7405  -0.400   7.670   2.057 -0.0254  0.0664 -0.1955
  814MOL0     H 7406  -0.495   7.933   2.186 -2.1400 -0.6733  0.3172
  814MOL0     H 7407  -0.459   7.926   2.016  2.0231 -1.8689 -0.2765
  814MOL0     H 7408  -0.629   7.753   1.986 -1.4583 -2.7591  1.9273
  814MOL0     H 7409  -0.707   7.895   2.068 -4.6275 -3.3390 -0.2248
  814MOL0     H 7410  -0.868   7.713   1.992 -1.2469 -3.5018 -1.0301
  814MOL0     H 7411  -1.096   7.674   2.047 -0.2632  1.0727  0.9101
  814MOL0     H 7412  -1.465   7.729   2.365 -0.3799  0.1538  0.7808
  814MOL0     H 7413  -1.701   7.641   2.395 -0.2078 -0.1089  0.2880
  814MOL0     H 7414  -1.755   7.301   2.667  0.5477 -0.9505 -1.3470
  814MOL0     H 7415  -1.760   7.212   2.528  3.0453 -0.3639  3.2873
  814MOL0     H 7416  -1.987   7.394   2.637  1.3085 -0.2467 -0.8031
  814MOL0     H 7417  -1.985   7.219   2.647  0.8651 -2.0503 -1.8759
  814MOL0     H 7418  -2.019   7.352   2.370 -3.8022 -0.5597 -2.0026
  814MOL0     H 7419  -2.145   7.306   2.474  0.3878 -2.0572  0.0154
  814MOL0     H 7420  -1.936   7.106   2.387  0.5581 -0.4139  2.1642
  814MOL0     H 7421  -2.091   7.070   2.460 -0.3524 -0.1305 -0.6717
  814MOL0     H 7422  -2.116   7.033   2.217  0.8339 -0.8702  0.5504
  814MOL0     H 7423  -2.015   7.175   2.194  0.1333  2.8174  1.3671
  814MOL0     H 7424  -2.206   7.314   2.268 -0.1291 -0.8943  2.3026
  814MOL0     H 7425  -2.310   7.178   2.308 -0.7789 -0.2987 -0.1393
  814MOL0     H 7426  -2.169   7.228   2.050  1.0732 -1.5827  1.9594
  814MOL0     H 7427  -2.293   7.097   2.072  2.5612 -0.7869 -1.5921
  814MOL0     H 7428  -2.356   7.307   1.943 -1.3075 -0.4619 -0.9743
  814MOL0     H 7429  -2.359   7.390   2.101 -1.5904 -0.4727  3.2257
  814MOL0     H 7430  -1.553   7.266   2.517  0.3980 -0.3320 -1.6287
  814MOL0     H 7431  -1.315   7.345   2.479  0.0184  1.3938  2.5543
  814MOL0     H 7432  -0.987   7.528   2.434  1.4681 -1.3195 -0.2481
  814MOL0     H 7433  -0.754   7.592   2.384  1.6523 -0.3204 -0.5402
  814MOL0     H 7434   0.911   7.153   1.669 -0.1551 -0.4233  0.8886
  814MOL0     H 7435   1.083   7.066   1.517  3.1577 -0.0271 -1.3889
  814MOL0     H 7436   1.367   7.010   1.245  0.0096  1.4382  0.2878
  814MOL0     H 7437   1.501   6.880   1.091 -3.8648 -1.6084  2.3595
  814MOL0     H 7438   1.929   6.847   1.254 -3.9808 -0.3781  0.7264
  814MOL0     H 7439   1.952   6.913   1.097 -0.9701  0.5947  0.0536
  814MOL0     H 7440   1.900   6.614   1.119 -1.3477  0.9871 -0.9924
  814MOL0     H 7441   1.964   6.694   0.982  2.0981  1.4097 -0.8833
  814MOL0     H 7442   2.126   6.661   1.232 -2.1065  1.7197  0.9577
  814MOL0     H 7443   2.168   6.751   1.101 -1.8480  2.6238  2.1188
  814MOL0     H 7444   2.105   6.447   1.061  0.1599 -0.6696  0.2554
  814MOL0     H 7445   2.155   6.568   0.944 -2.5538  1.3908  0.1602
  814MOL0     H 7446   2.497   6.449   1.183 -1.9811 -2.7206 -0.3077
  814MOL0     H 7447   1.856   7.046   1.276  0.3269 -1.2028 -0.7287
  814MOL0     H 7448   1.719   7.168   1.435 -2.6117  0.8104  1.2807
  815MOL0     O 7449   0.863   7.842   3.279  0.7640 -0.0566 -0.8569
  815MOL0     C 7450   0.916   7.897   3.188  0.5850 -0.2611  0.5808
  815MOL0     O 7451   0.850   7.969   3.087  0.8623  0.2132  0.0295
  815MOL0     C 7452   0.714   7.994   3.088  0.3796  0.4229 -0.2962
  815MOL0     C 7453   0.662   8.056   3.200 -0.6024  0.2454 -0.1064
  815MOL0     C 7454   0.531   8.106   3.204 -0.2511 -0.1876 -0.4665
  815MOL0     C 7455   0.445   8.077   3.101 -0.6236 -0.0010  0.4419
  815MOL0     O 7456   0.318   8.126   3.105 -0.1885 -0.0091  0.4123
  815MOL0     C 7457   0.256   8.139   2.978 -0.2122 -0.5444  0.4044
  815MOL0     C 7458   0.149   8.246   2.997 -0.5985 -0.1298 -0.0259
  815MOL0     C 7459   0.011   8.201   3.043  0.3750  0.9171  0.4179
  815MOL0     C 7460  -0.097   8.319   3.034 -0.5738  0.5900  0.0900
  815MOL0     C 7461  -0.231   8.285   3.094 -0.0244 -0.0127  0.4296
  815MOL0     C 7462  -0.308   8.173   3.021  0.4496 -0.0053  0.6260
  815MOL0     C 7463  -0.364   8.232   2.890 -0.4155 -0.0591  0.5381
  815MOL0     C 7464  -0.442   8.130   2.823  0.3699 -0.0058 -0.0164
  815MOL0     N 7465  -0.588   8.123   2.855 -0.4879  0.2614 -0.7867
  815MOL0     C 7466  -0.642   8.184   2.971 -0.2154  0.2449  1.2404
  815MOL0     C 7467  -0.771   8.150   2.964 -0.0152  0.3509  0.0672
  815MOL0     C 7468  -0.874   8.180   3.073 -0.3565  0.0498 -0.2144
  815MOL0     C 7469  -0.979   8.065   3.079  0.6746  0.0795 -0.0448
  815MOL0     C 7470  -1.090   8.090   3.188 -0.2012  0.2157  0.2780
  815MOL0     C 7471  -1.041   8.039   3.321 -0.0997 -0.5629 -0.1131
  815MOL0     O 7472  -1.036   7.892   3.336  0.0844  0.3001 -0.1327
  815MOL0     C 7473  -1.151   7.826   3.360 -0.1211 -0.3889  0.3817
  815MOL0     C 7474  -1.142   7.685   3.358 -0.1225  0.5963 -0.1669
  815MOL0     C 7475  -1.259   7.597   3.379  0.1996 -0.3077 -0.4274
  815MOL0     C 7476  -1.379   7.664   3.413  0.5353  0.3393 -0.1876
  815MOL0     C 7477  -1.499   7.581   3.441 -0.4202 -0.2583  0.3395
  815MOL0     O 7478  -1.631   7.632   3.437  0.1457 -0.3820 -0.3567
  815MOL0     C 7479  -1.738   7.545   3.460  0.4307 -0.3007  0.2079
  815MOL0     C 7480  -1.838   7.586   3.551  0.0345  0.2551 -0.5330
  815MOL0     C 7481  -1.958   7.515   3.571  0.0540 -0.2392 -0.1988
  815MOL0     C 7482  -1.964   7.390   3.507  0.1341 -0.2516  0.4586
  815MOL0     O 7483  -2.059   7.300   3.544  0.1587 -0.5382 -0.5877
  815MOL0     C 7484  -2.020   7.185   3.623 -0.1752  0.6951 -0.1436
  815MOL0     C 7485  -2.145   7.093   3.619 -0.8951  0.0295  0.3329
  815MOL0     C 7486  -2.180   7.046   3.481 -0.6432 -0.0535  0.7758
  815MOL0     C 7487  -2.321   6.975   3.487  0.5611 -0.0827 -0.1225
  815MOL0     C 7488  -2.384   6.951   3.351 -0.5613  0.1167  0.3394
  815MOL0     C 7489  -2.523   6.888   3.363 -0.3303 -0.4718 -0.5407
  815MOL0     C 7490  -2.635   6.983   3.326 -0.2324  0.4917 -0.5938
  815MOL0     C 7491  -2.768   6.910   3.298  0.3152  0.4111 -0.8111
  815MOL0    Cl 7492  -2.875   7.030   3.234 -0.6578  0.1090  0.4613
  815MOL0     C 7493  -1.862   7.353   3.421 -0.5489 -0.5279  1.1414
  815MOL0     C 7494  -1.753   7.424   3.400 -0.1423 -0.0078 -0.0527
  815MOL0     O 7495  -1.468   7.466   3.469 -0.3356 -0.0347  0.4473
  815MOL0     C 7496  -1.392   7.805   3.404 -0.6799  0.7519 -0.5193
  815MOL0     C 7497  -1.275   7.881   3.392 -0.2015  0.1619 -0.5330
  815MOL0     N 7498  -0.789   8.074   2.845  1.0851 -0.1810  0.0844
  815MOL0     N 7499  -0.676   8.056   2.787 -0.2339  0.5047  0.8741
  815MOL0     C 7500   0.499   8.000   2.996  0.2762 -0.2576  0.5243
  815MOL0     C 7501   0.629   7.963   2.980 -0.9166 -0.7169  0.9711
  815MOL0     C 7502   1.058   7.874   3.185  0.2222 -0.3676  0.5200
  815MOL0     C 7503   1.132   7.818   3.297 -0.1790 -0.8020  0.0757
  815MOL0     C 7504   1.267   7.784   3.279 -0.2728  0.0080  0.4033
  815MOL0     C 7505   1.330   7.822   3.159 -0.0630 -0.2941  1.3218
  815MOL0     O 7506   1.465   7.798   3.166  0.0593 -0.8694  1.0066
  815MOL0     C 7507   1.533   7.794   3.033 -0.4447  0.6056 -0.5644
  815MOL0     C 7508   1.679   7.788   3.075  0.0391  0.4913  0.1370
  815MOL0     C 7509   1.719   7.653   3.135  0.4540 -0.4503 -0.1046
  815MOL0     C 7510   1.866   7.655   3.177 -0.0090 -0.4391  0.0709
  815MOL0     C 7511   1.949   7.649   3.056  0.1005 -0.4290 -0.1229
  815MOL0     C 7512   2.021   7.631   2.957 -0.5698 -0.3334  0.5694
  815MOL0     C 7513   1.258   7.895   3.062  0.1779 -0.2062  0.1486
  815MOL0     C 7514   1.122   7.925   3.072 -0.3710  0.8419  0.6829
  815MOL0     H 7515   0.732   8.073   3.282  0.8638 -1.8319 -0.8501
  815MOL0     H 7516   0.507   8.171   3.288  1.0890 -2.1969  1.5749
  815MOL0     H 7517   0.210   8.047   2.940 -0.9354  0.1109 -0.3354
  815MOL0     H 7518   0.324   8.172   2.899 -0.1431 -0.6005  0.4399
  815MOL0     H 7519   0.130   8.297   2.902 -0.9822  1.2855  0.7809
  815MOL0     H 7520   0.187   8.320   3.068 -2.1346 -0.0572  0.7648
  815MOL0     H 7521   0.015   8.169   3.148  1.4981 -2.2269 -0.4649
  815MOL0     H 7522  -0.024   8.115   2.985  1.2196  1.8100 -1.4803
  815MOL0     H 7523  -0.052   8.403   3.087  0.7307 -0.1136  0.1418
  815MOL0     H 7524  -0.109   8.339   2.927  0.8622 -0.9119 -0.3839
  815MOL0     H 7525  -0.294   8.374   3.094 -0.3476 -0.2400  0.8458
  815MOL0     H 7526  -0.229   8.252   3.198  1.6309  0.5175  0.5981
  815MOL0     H 7527  -0.386   8.137   3.089  0.0405 -1.1069 -0.3929
  815MOL0     H 7528  -0.255   8.083   2.989 -1.5614 -1.2487  0.5805
  815MOL0     H 7529  -0.413   8.327   2.912 -0.2171  1.0019 -3.0372
  815MOL0     H 7530  -0.280   8.254   2.824 -0.9752 -0.0199 -0.1738
  815MOL0     H 7531  -0.396   8.030   2.825 -0.7019 -0.5103  0.0957
  815MOL0     H 7532  -0.444   8.149   2.715 -1.7173 -0.2208 -0.0631
  815MOL0     H 7533  -0.591   8.234   3.054  0.2545 -1.0263  1.7431
  815MOL0     H 7534  -0.921   8.277   3.057 -0.4528  0.3954  1.8161
  815MOL0     H 7535  -0.823   8.201   3.168 -0.6562  0.0943 -0.0643
  815MOL0     H 7536  -0.924   7.975   3.107  0.4130 -0.7303 -1.9713
  815MOL0     H 7537  -1.021   8.042   2.980 -0.0903 -0.1383  0.3273
  815MOL0     H 7538  -1.104   8.198   3.186 -0.9250  0.1316  0.6516
  815MOL0     H 7539  -1.179   8.037   3.152  0.5114 -0.1627 -0.9821
  815MOL0     H 7540  -1.098   8.081   3.404 -2.3639  0.8146 -2.1951
  815MOL0     H 7541  -0.941   8.081   3.333 -0.2617 -0.0185 -0.6099
  815MOL0     H 7542  -1.043   7.647   3.336  0.1364  0.7434  0.7006
  815MOL0     H 7543  -1.247   7.491   3.361  2.7089 -0.2733  0.5709
  815MOL0     H 7544  -1.816   7.686   3.589 -0.8763  1.1782 -2.3066
  815MOL0     H 7545  -2.034   7.544   3.643  0.6398  3.2237 -0.8098
  815MOL0     H 7546  -1.998   7.211   3.727 -3.0967 -0.5791  0.9014
  815MOL0     H 7547  -1.938   7.133   3.573 -1.2915 -1.0565 -0.2255
  815MOL0     H 7548  -2.228   7.155   3.656  0.4207  1.6884  0.6131
  815MOL0     H 7549  -2.138   7.005   3.684 -0.9247  1.0499  1.7515
  815MOL0     H 7550  -2.093   6.989   3.445 -1.3372  0.4445 -1.9671
  815MOL0     H 7551  -2.185   7.139   3.424 -0.1128  0.2576  1.2214
  815MOL0     H 7552  -2.317   6.875   3.532  1.4703 -1.4882 -3.0374
  815MOL0     H 7553  -2.395   7.024   3.550 -1.3195 -3.2386  0.3494
  815MOL0     H 7554  -2.323   6.883   3.291 -0.4129 -1.1768  1.9028
  815MOL0     H 7555  -2.389   7.046   3.297 -0.3095 -1.2870 -2.3519
  815MOL0     H 7556  -2.530   6.844   3.462  1.0639 -1.0126 -0.6529
  815MOL0     H 7557  -2.524   6.816   3.281  1.4319  0.3969 -1.3832
  815MOL0     H 7558  -2.651   7.051   3.410 -0.9165 -3.1089  2.4486
  815MOL0     H 7559  -2.607   7.043   3.238  0.3800  1.4755  0.2537
  815MOL0     H 7560  -2.808   6.874   3.393 -0.7060  0.1429 -1.3235
  815MOL0     H 7561  -2.752   6.836   3.219  0.4033  0.9752 -1.3342
  815MOL0     H 7562  -1.863   7.254   3.376  2.0387 -0.2862  0.3540
  815MOL0     H 7563  -1.662   7.393   3.349 -0.9948  0.0236 -1.6600
  815MOL0     H 7564  -1.487   7.840   3.443 -0.0906  0.3436  1.4018
  815MOL0     H 7565  -1.284   7.988   3.403  2.7718  0.5088 -0.5281
  815MOL0     H 7566   0.434   7.970   2.915  2.5697  0.6068 -1.7822
  815MOL0     H 7567   0.668   7.910   2.894  0.0392  2.3147 -0.6038
  815MOL0     H 7568   1.081   7.794   3.389  0.5317  0.0391  0.7123
  815MOL0     H 7569   1.325   7.732   3.355  0.0904  1.3754  1.1109
  815MOL0     H 7570   1.529   7.889   2.979 -0.1373  2.2252  2.0983
  815MOL0     H 7571   1.492   7.710   2.975 -0.7273  1.7877 -2.1380
  815MOL0     H 7572   1.740   7.807   2.985 -3.2586  0.2751 -2.3316
  815MOL0     H 7573   1.700   7.863   3.152  0.1437  0.3034  0.2904
  815MOL0     H 7574   1.715   7.576   3.057 -2.1010  1.6251 -2.2602
  815MOL0     H 7575   1.651   7.631   3.217 -0.3591  0.2246 -0.5737
  815MOL0     H 7576   1.894   7.748   3.229  0.2301 -1.0197  1.0083
  815MOL0     H 7577   1.892   7.570   3.240 -2.7140  0.8591  3.2449
  815MOL0     H 7578   2.081   7.606   2.872 -3.4774  0.4705 -1.8825
  815MOL0     H 7579   1.304   7.938   2.975  1.2248 -1.2665  0.1449
  815MOL0     H 7580   1.071   7.985   2.997 -0.4824 -1.6768 -1.4227
  816MOL0     O 7581   0.892   6.805   8.270 -0.5890 -0.3520 -0.0253
  816MOL0     C 7582   0.901   6.780   8.147  0.4989 -0.7279  0.2852
  816MOL0     O 7583   0.795   6.779   8.067  0.2302 -0.2282  0.0634
  816MOL0     C 7584   0.673   6.779   8.119  0.1049 -0.5684  0.2950
  816MOL0     C 7585   0.597   6.667   8.131 -0.1839  0.2826 -0.4330
  816MOL0     C 7586   0.470   6.674   8.185 -0.2731 -0.3086 -0.3234
  816MOL0     C 7587   0.411   6.793   8.221  0.1718  0.5960  0.3692
  816MOL0     O 7588   0.286   6.778   8.279  0.0613  0.0745  0.1683
  816MOL0     C 7589   0.224   6.888   8.340  0.0508 -0.5620 -0.1322
  816MOL0     C 7590   0.085   6.835   8.396 -0.4216  1.1150 -0.6096
  816MOL0     C 7591  -0.012   6.771   8.284  0.3426 -0.2535 -0.1630
  816MOL0     C 7592  -0.141   6.724   8.345 -0.0644 -0.5587 -0.1568
  816MOL0     C 7593  -0.239   6.680   8.245 -0.2725  0.4288  0.4408
  816MOL0     C 7594  -0.363   6.606   8.310 -0.6487 -0.7012  0.4178
  816MOL0     C 7595  -0.469   6.579   8.195 -0.3737  0.1113 -0.4928
  816MOL0     C 7596  -0.603   6.550   8.268 -0.2250  0.5744  0.5432
  816MOL0     N 7597  -0.616   6.435   8.364 -0.1173  0.4056  0.5092
  816MOL0     C 7598  -0.658   6.309   8.327 -0.4786  0.3083 -0.0563
  816MOL0     C 7599  -0.676   6.247   8.445  0.8087  0.3005 -0.1189
  816MOL0     C 7600  -0.695   6.096   8.454 -0.1203 -0.1753 -0.6594
  816MOL0     C 7601  -0.835   6.046   8.401  0.2276 -0.2079 -0.4683
  816MOL0     C 7602  -0.947   6.096   8.496  0.2029 -0.4213  0.7286
  816MOL0     C 7603  -1.082   6.073   8.441 -0.4627 -0.3078 -0.2563
  816MOL0     O 7604  -1.107   6.144   8.324  0.4687  1.1551 -0.2239
  816MOL0     C 7605  -1.241   6.150   8.294  0.5367 -0.9286 -0.5437
  816MOL0     C 7606  -1.339   6.060   8.335 -0.1073 -0.1711 -0.1485
  816MOL0     C 7607  -1.475   6.081   8.314 -0.1162  0.1352 -0.4731
  816MOL0     C 7608  -1.530   6.190   8.255  0.0516 -0.0286 -0.9755
  816MOL0     C 7609  -1.675   6.208   8.224  0.3334 -0.1968 -0.7250
  816MOL0     O 7610  -1.723   6.336   8.205  0.1790  0.2418  0.1796
  816MOL0     C 7611  -1.859   6.343   8.192 -0.2477  0.1410  1.0479
  816MOL0     C 7612  -1.923   6.354   8.065 -0.5131 -0.5792  0.0158
  816MOL0     C 7613  -2.061   6.361   8.062 -0.0232 -0.1240  0.1421
  816MOL0     C 7614  -2.134   6.356   8.181  0.2491  0.0303 -0.6454
  816MOL0     O 7615  -2.271   6.341   8.193  0.0699  0.1706  0.1309
  816MOL0     C 7616  -2.352   6.387   8.093  0.0883 -0.8256  0.0688
  816MOL0     C 7617  -2.505   6.378   8.125  0.6340  1.0484 -0.2195
  816MOL0     C 7618  -2.563   6.470   8.234 -0.5147  0.5789 -0.6846
  816MOL0     C 7619  -2.692   6.407   8.278  0.2260  0.2936  0.1893
  816MOL0     C 7620  -2.750   6.489   8.398 -0.5814  0.8811  1.0836
  816MOL0     C 7621  -2.867   6.424   8.455  0.2794  0.8442  0.2746
  816MOL0     C 7622  -2.931   6.505   8.559  0.6851 -0.1004 -0.3844
  816MOL0     C 7623  -3.059   6.425   8.606 -0.4108 -0.1171 -0.2797
  816MOL0    Cl 7624  -3.184   6.472   8.487 -0.1517  0.3931 -0.3380
  816MOL0     C 7625  -2.068   6.351   8.299 -0.5299 -0.0763  0.4853
  816MOL0     C 7626  -1.925   6.349   8.308  0.2095  0.7076 -0.7226
  816MOL0     O 7627  -1.745   6.107   8.230  0.1654 -0.1116 -0.2100
  816MOL0     C 7628  -1.431   6.272   8.192  0.6209  0.0718 -0.3106
  816MOL0     C 7629  -1.294   6.257   8.218  0.4386  0.3967 -0.2683
  816MOL0     N 7630  -0.653   6.333   8.555 -0.1855  0.5289  0.4314
  816MOL0     N 7631  -0.623   6.447   8.496  0.5092 -0.2867  0.1568
  816MOL0     C 7632   0.484   6.914   8.207  1.1728  0.9288 -0.1843
  816MOL0     C 7633   0.616   6.897   8.157 -0.5165 -0.1186  0.0716
  816MOL0     C 7634   1.039   6.750   8.094  0.2488 -0.7101 -0.2548
  816MOL0     C 7635   1.146   6.747   8.181 -0.1896  0.0553  0.3555
  816MOL0     C 7636   1.277   6.722   8.137 -0.0426 -0.7647 -0.8958
  816MOL0     C 7637   1.304   6.694   8.005 -0.2082 -0.3650 -0.1299
  816MOL0     O 7638   1.433   6.655   7.979  0.0888  0.0083  0.5209
  816MOL0     C 7639   1.469   6.628   7.840  0.4739  0.6209 -0.1936
  816MOL0     C 7640   1.620   6.579   7.846  0.4804 -0.5502  0.9145
  816MOL0     C 7641   1.675   6.518   7.712  0.0697  0.0304 -0.5723
  816MOL0     C 7642   1.823   6.474   7.715  0.4620  0.3563 -0.7973
  816MOL0     C 7643   1.924   6.585   7.695  0.1099  0.6223  0.9707
  816MOL0     C 7644   2.007   6.671   7.692  0.2208 -0.7253 -0.1321
  816MOL0     C 7645   1.190   6.702   7.921 -0.5362  0.3867  0.6767
  816MOL0     C 7646   1.064   6.739   7.959 -1.1982 -0.6756 -0.3170
  816MOL0     H 7647   0.631   6.570   8.095  0.2923  0.7387 -1.2373
  816MOL0     H 7648   0.415   6.581   8.175 -0.2548 -0.3332 -0.1979
  816MOL0     H 7649   0.200   6.969   8.271 -0.6835  0.7664  1.5972
  816MOL0     H 7650   0.297   6.920   8.416  1.8566 -2.0957 -1.1301
  816MOL0     H 7651   0.038   6.928   8.430  0.2147  2.3154 -2.7819
  816MOL0     H 7652   0.103   6.765   8.478  0.4346  1.0815 -0.8208
  816MOL0     H 7653   0.036   6.681   8.245 -0.5766 -1.3139  1.0535
  816MOL0     H 7654  -0.026   6.844   8.204 -0.8429  0.0602  0.3008
  816MOL0     H 7655  -0.112   6.646   8.416  1.3581  1.6031  1.7669
  816MOL0     H 7656  -0.198   6.800   8.399 -1.1344  0.0643 -2.0553
  816MOL0     H 7657  -0.195   6.599   8.186 -1.0117  0.7308 -0.5462
  816MOL0     H 7658  -0.278   6.763   8.185 -2.4641 -0.7288  0.1710
  816MOL0     H 7659  -0.407   6.672   8.385 -0.1104 -1.7121  1.6653
  816MOL0     H 7660  -0.332   6.509   8.350  0.7690 -1.0571 -1.4488
  816MOL0     H 7661  -0.488   6.672   8.140 -0.2093 -0.2445 -1.1587
  816MOL0     H 7662  -0.429   6.503   8.127  0.3006 -1.5377  1.6174
  816MOL0     H 7663  -0.676   6.528   8.189  1.3756 -0.6931 -0.6610
  816MOL0     H 7664  -0.628   6.635   8.332 -0.1048  1.8955 -1.0999
  816MOL0     H 7665  -0.663   6.265   8.228 -0.1635 -0.5864  0.3179
  816MOL0     H 7666  -0.656   6.061   8.550  0.4655 -0.6582 -1.0733
  816MOL0     H 7667  -0.618   6.060   8.386  0.3292  1.3473 -0.9845
  816MOL0     H 7668  -0.836   5.938   8.383  0.0610  0.1973 -3.4406
  816MOL0     H 7669  -0.848   6.091   8.302 -1.9091  0.7927  0.1976
  816MOL0     H 7670  -0.920   6.058   8.594  2.0619  0.1020  0.4733
  816MOL0     H 7671  -0.937   6.203   8.520 -4.1405 -0.5011  4.1997
  816MOL0     H 7672  -1.150   6.099   8.522  3.0375 -0.8659  3.1280
  816MOL0     H 7673  -1.086   5.966   8.417  0.3922 -0.2556 -0.6791
  816MOL0     H 7674  -1.299   5.967   8.374  0.5583  0.0999 -0.1581
  816MOL0     H 7675  -1.543   6.005   8.351  1.8312 -1.0363  0.8485
  816MOL0     H 7676  -1.866   6.358   7.973  2.8685  0.0955  1.9552
  816MOL0     H 7677  -2.112   6.375   7.967  0.3389  0.6331  0.0505
  816MOL0     H 7678  -2.340   6.328   8.002  0.8628 -1.4622  0.5808
  816MOL0     H 7679  -2.329   6.493   8.075 -2.1791 -0.1563  0.7315
  816MOL0     H 7680  -2.518   6.273   8.151  2.1559  0.7785 -0.4685
  816MOL0     H 7681  -2.569   6.393   8.037 -0.7225 -0.0674  0.5227
  816MOL0     H 7682  -2.580   6.571   8.195  3.6075  1.0160 -1.8649
  816MOL0     H 7683  -2.494   6.479   8.319 -1.3096  1.9447 -0.1367
  816MOL0     H 7684  -2.767   6.405   8.199 -2.7167  3.7031  2.5378
  816MOL0     H 7685  -2.688   6.302   8.305 -0.8413  0.4835  1.1602
  816MOL0     H 7686  -2.790   6.577   8.347 -2.2127 -1.0682 -1.1951
  816MOL0     H 7687  -2.680   6.506   8.480  0.7776 -0.2399  0.1957
  816MOL0     H 7688  -2.833   6.326   8.491  1.0458  0.7797 -0.5867
  816MOL0     H 7689  -2.934   6.399   8.373  2.4382 -0.4037 -1.2109
  816MOL0     H 7690  -2.860   6.518   8.641  2.7240  2.9128 -2.4040
  816MOL0     H 7691  -2.956   6.605   8.522  1.1640 -0.4293 -1.6331
  816MOL0     H 7692  -3.096   6.463   8.702 -0.2963 -1.0391  0.1479
  816MOL0     H 7693  -3.047   6.316   8.610  1.1575  0.0111  3.6822
  816MOL0     H 7694  -2.124   6.345   8.391 -1.0515 -1.8044  0.0801
  816MOL0     H 7695  -1.872   6.336   8.402  1.2765 -0.3554 -1.4478
  816MOL0     H 7696  -1.467   6.350   8.125 -2.7785 -1.0901 -0.0046
  816MOL0     H 7697  -1.226   6.333   8.181  0.5896  0.5140  0.2404
  816MOL0     H 7698   0.447   7.009   8.244 -1.9624 -0.2372 -0.0012
  816MOL0     H 7699   0.672   6.989   8.148  0.9657 -0.9644  0.3260
  816MOL0     H 7700   1.132   6.746   8.288 -2.3347 -0.7554  0.1047
  816MOL0     H 7701   1.360   6.709   8.206  1.0682 -2.6258 -2.4678
  816MOL0     H 7702   1.450   6.718   7.781  0.1543 -1.6399 -3.7895
  816MOL0     H 7703   1.400   6.551   7.805  1.0838  0.0968 -0.2600
  816MOL0     H 7704   1.687   6.657   7.882  2.7099 -1.2072 -1.5023
  816MOL0     H 7705   1.616   6.507   7.929 -1.3783 -0.4618  0.9402
  816MOL0     H 7706   1.656   6.585   7.628 -1.2501  0.5879  0.1450
  816MOL0     H 7707   1.621   6.425   7.692 -0.9550  0.4881  0.0077
  816MOL0     H 7708   1.848   6.423   7.808 -0.8727  1.8054  0.4123
  816MOL0     H 7709   1.828   6.395   7.639 -0.5922 -0.9944  0.4942
  816MOL0     H 7710   2.083   6.747   7.697  0.5597 -1.0150 -0.7459
  816MOL0     H 7711   1.205   6.660   7.822  0.9159 -1.4491  1.5985
  816MOL0     H 7712   0.980   6.746   7.890 -1.6863 -0.2792  0.3050
  817MOL0     O 7713   4.586   8.045   5.252  0.5807  0.5711 -0.1632
  817MOL0     C 7714   4.594   7.921   5.240 -0.2931 -0.1340  0.0898
  817MOL0     O 7715   4.697   7.845   5.279 -0.2048  0.9173 -0.0559
  817MOL0     C 7716   4.816   7.908   5.308  0.3642  0.0283 -0.2424
  817MOL0     C 7717   4.926   7.881   5.238 -1.2115  0.1821  0.1583
  817MOL0     C 7718   5.056   7.934   5.283  0.6585  0.7097 -0.1208
  817MOL0     C 7719   5.066   8.010   5.395 -0.3867  0.4613  0.3828
  817MOL0     O 7720   5.196   8.059   5.416  0.0143  0.4604 -0.6339
  817MOL0     C 7721   5.227   8.100   5.548 -0.3706 -0.0627 -0.8528
  817MOL0     C 7722   5.375   8.111   5.585  0.6789  0.4564 -0.1003
  817MOL0     C 7723   5.470   7.996   5.531 -0.4876 -0.2289 -0.5213
  817MOL0     C 7724   5.415   7.860   5.582 -0.2941  0.9799  0.3820
  817MOL0     C 7725   5.500   7.746   5.511  0.1150  0.1422  0.0148
  817MOL0     C 7726   5.461   7.740   5.360 -0.2305  0.0292 -1.0012
  817MOL0     C 7727   5.480   7.596   5.314  0.1811  0.5957  0.2243
  817MOL0     C 7728   5.483   7.574   5.164 -0.2808 -0.2611 -0.0807
  817MOL0     N 7729   5.358   7.613   5.098 -0.0129 -0.4061 -0.5644
  817MOL0     C 7730   5.361   7.714   5.010 -0.1517 -0.0180  0.1201
  817MOL0     C 7731   5.227   7.742   4.979 -0.7738  0.4902  0.2785
  817MOL0     C 7732   5.186   7.860   4.886  0.5635  0.1955 -0.4222
  817MOL0     C 7733   5.023   7.869   4.891  0.3038  0.4004  0.0022
  817MOL0     C 7734   4.960   7.951   4.778 -0.0035  0.6638 -0.1210
  817MOL0     C 7735   4.808   7.946   4.784 -0.2361  0.5776  0.5893
  817MOL0     O 7736   4.756   8.027   4.676 -0.4930  0.5831  0.0675
  817MOL0     C 7737   4.723   7.982   4.555 -0.0077  0.1142 -0.5305
  817MOL0     C 7738   4.673   8.072   4.461  0.0744  1.0264  0.7792
  817MOL0     C 7739   4.604   8.025   4.342 -0.5898  0.2259  0.9047
  817MOL0     C 7740   4.587   7.888   4.310 -0.1339  0.3077  0.5903
  817MOL0     C 7741   4.508   7.846   4.193 -0.8228 -0.0172 -0.2889
  817MOL0     O 7742   4.517   7.711   4.162  0.1923 -1.1028 -0.5740
  817MOL0     C 7743   4.478   7.671   4.041  0.2744  0.1006 -0.1094
  817MOL0     C 7744   4.386   7.569   4.027  0.4422 -0.5070 -0.3021
  817MOL0     C 7745   4.342   7.535   3.899 -0.5138  0.1736 -0.3136
  817MOL0     C 7746   4.400   7.595   3.787  0.2986 -0.0773  0.1937
  817MOL0     O 7747   4.380   7.559   3.659  0.6692  0.0258 -0.3760
  817MOL0     C 7748   4.244   7.525   3.628  0.2522 -0.0426 -0.1146
  817MOL0     C 7749   4.224   7.514   3.478 -0.4041 -0.0357 -0.0692
  817MOL0     C 7750   4.091   7.482   3.430 -0.1542  0.3534  0.5761
  817MOL0     C 7751   4.075   7.498   3.274  0.2756  0.3040 -0.3565
  817MOL0     C 7752   3.940   7.453   3.234  0.3151 -0.1340  0.6288
  817MOL0     C 7753   3.906   7.503   3.098  1.1060  0.9833  0.2300
  817MOL0     C 7754   3.764   7.456   3.077  0.5246  0.7922 -0.5507
  817MOL0     C 7755   3.721   7.506   2.940 -1.1100 -0.4760 -0.3889
  817MOL0    Cl 7756   3.655   7.674   2.938 -0.1507 -0.4768  0.0557
  817MOL0     C 7757   4.499   7.695   3.804  0.2121  0.7526  0.3564
  817MOL0     C 7758   4.546   7.727   3.928  0.1315  0.7113  0.7279
  817MOL0     O 7759   4.442   7.928   4.134  0.1032 -0.8885 -0.0345
  817MOL0     C 7760   4.644   7.803   4.401 -0.0955 -0.6284 -0.2213
  817MOL0     C 7761   4.714   7.845   4.519 -0.2860 -0.1233  0.1507
  817MOL0     N 7762   5.144   7.646   5.044 -0.1145 -0.5249 -0.6539
  817MOL0     N 7763   5.222   7.569   5.118 -0.1712 -0.5810  0.2296
  817MOL0     C 7764   4.949   8.037   5.468 -0.1753  0.1616  0.3980
  817MOL0     C 7765   4.821   7.980   5.424 -0.5014  0.5764 -1.1100
  817MOL0     C 7766   4.475   7.853   5.185  0.2072  1.2971  1.3349
  817MOL0     C 7767   4.377   7.919   5.122  0.1464  0.0017  0.3373
  817MOL0     C 7768   4.271   7.851   5.063 -0.1341 -0.2330  0.7006
  817MOL0     C 7769   4.265   7.705   5.060  0.4245 -0.9749  0.1006
  817MOL0     O 7770   4.169   7.626   5.010 -0.4243  0.1149  0.7579
  817MOL0     C 7771   4.098   7.694   4.903  0.3852 -0.4841 -0.9757
  817MOL0     C 7772   4.021   7.593   4.815 -0.4935  0.3088  0.5172
  817MOL0     C 7773   3.991   7.674   4.699  0.1133 -0.1167  1.0396
  817MOL0     C 7774   3.920   7.588   4.589 -0.0761  0.7978 -0.1351
  817MOL0     C 7775   3.782   7.560   4.612 -1.1245 -0.4190 -0.7305
  817MOL0     C 7776   3.677   7.517   4.652 -0.0899  0.2906  0.5422
  817MOL0     C 7777   4.376   7.641   5.116  0.7453 -0.0355  0.6024
  817MOL0     C 7778   4.479   7.709   5.180 -0.1106  0.7727 -0.9458
  817MOL0     H 7779   4.932   7.812   5.155 -0.6462  0.1643  0.2099
  817MOL0     H 7780   5.152   7.913   5.237  0.0349  1.0097 -1.6517
  817MOL0     H 7781   5.184   8.026   5.616  0.6325 -0.9655 -1.1736
  817MOL0     H 7782   5.174   8.193   5.568 -2.4173 -1.0264 -1.4703
  817MOL0     H 7783   5.383   8.132   5.692 -3.5738 -1.1404  0.7379
  817MOL0     H 7784   5.413   8.200   5.534 -1.8244  1.1168 -0.9254
  817MOL0     H 7785   5.564   7.999   5.586 -1.2062 -1.0975  0.8029
  817MOL0     H 7786   5.484   8.009   5.423  0.4781  3.8718 -0.0502
  817MOL0     H 7787   5.408   7.867   5.691  0.9505  1.1800  0.4691
  817MOL0     H 7788   5.312   7.845   5.547 -0.5331  0.8985  1.1065
  817MOL0     H 7789   5.467   7.648   5.548 -0.9099  0.9739  1.3998
  817MOL0     H 7790   5.609   7.755   5.508  0.1789 -0.7613 -1.4896
  817MOL0     H 7791   5.521   7.814   5.306  4.2105 -1.4439  1.4618
  817MOL0     H 7792   5.356   7.760   5.336 -0.8244 -2.8689 -1.2271
  817MOL0     H 7793   5.576   7.562   5.356  0.1489 -0.6311 -0.6509
  817MOL0     H 7794   5.396   7.535   5.346  0.5473  0.0149  0.0924
  817MOL0     H 7795   5.491   7.465   5.151 -0.6374 -0.1238 -1.7371
  817MOL0     H 7796   5.566   7.627   5.118 -0.3580 -0.3441 -0.3199
  817MOL0     H 7797   5.445   7.776   4.982 -0.5534  1.3148  1.7160
  817MOL0     H 7798   5.218   7.831   4.785 -0.6537 -0.7748 -0.5529
  817MOL0     H 7799   5.231   7.955   4.919  1.3242 -0.1725 -0.3805
  817MOL0     H 7800   4.977   7.904   4.984 -4.0990  0.3243 -1.9262
  817MOL0     H 7801   4.984   7.771   4.865 -0.0903  0.6050 -0.1843
  817MOL0     H 7802   4.993   8.056   4.781  0.1536  0.5918  1.4188
  817MOL0     H 7803   4.995   7.909   4.683  0.7027 -1.9918  1.2242
  817MOL0     H 7804   4.778   7.980   4.884 -0.3765 -0.7717  1.0281
  817MOL0     H 7805   4.775   7.842   4.792 -0.5389  0.5923 -0.3411
  817MOL0     H 7806   4.673   8.174   4.500 -2.7485 -0.0750  4.2421
  817MOL0     H 7807   4.548   8.091   4.276 -0.9194 -0.7497  0.1937
  817MOL0     H 7808   4.353   7.526   4.121 -0.3964 -2.1843 -1.3150
  817MOL0     H 7809   4.262   7.462   3.891  0.5177 -0.8524 -1.8367
  817MOL0     H 7810   4.180   7.608   3.662  2.9214  2.0994  0.0468
  817MOL0     H 7811   4.221   7.431   3.678 -0.0304 -1.6168 -3.0053
  817MOL0     H 7812   4.297   7.447   3.431 -1.9672 -1.2528 -0.8787
  817MOL0     H 7813   4.249   7.611   3.435 -0.7172 -0.2732 -0.8033
  817MOL0     H 7814   4.018   7.542   3.485 -1.5254 -1.9959  1.4536
  817MOL0     H 7815   4.068   7.379   3.458 -2.1181  0.6365  0.1189
  817MOL0     H 7816   4.071   7.603   3.243 -1.6905  0.4570  0.2856
  817MOL0     H 7817   4.154   7.438   3.228  0.4134 -0.1243  0.4264
  817MOL0     H 7818   3.870   7.494   3.308  0.4989 -1.4993  1.5992
  817MOL0     H 7819   3.938   7.344   3.240 -0.8270 -0.0999  1.1165
  817MOL0     H 7820   3.966   7.446   3.026  1.3250  0.8411  0.5231
  817MOL0     H 7821   3.913   7.612   3.091  0.1826  0.9849 -0.8687
  817MOL0     H 7822   3.756   7.348   3.070  1.1776  0.7810 -1.3267
  817MOL0     H 7823   3.702   7.503   3.154 -2.4866 -1.5685 -1.3436
  817MOL0     H 7824   3.627   7.456   2.913 -1.5690 -0.7218  1.5572
  817MOL0     H 7825   3.805   7.492   2.871  0.2565  1.6704  0.7428
  817MOL0     H 7826   4.548   7.726   3.713 -2.5796 -0.6873 -1.8109
  817MOL0     H 7827   4.623   7.801   3.946 -0.4834  1.6733 -0.4626
  817MOL0     H 7828   4.645   7.695   4.392  0.4819 -0.9651  2.7405
  817MOL0     H 7829   4.748   7.763   4.582 -0.3696 -2.8986 -3.1322
  817MOL0     H 7830   4.941   8.106   5.552  2.6248 -0.2104  1.0602
  817MOL0     H 7831   4.734   8.001   5.486  1.1801  0.6996  1.3534
  817MOL0     H 7832   4.374   8.027   5.113 -1.9460 -0.1047 -0.8060
  817MOL0     H 7833   4.198   7.914   5.013 -0.1141 -0.6953  0.0788
  817MOL0     H 7834   4.174   7.737   4.837  0.1372  0.4327 -0.6692
  817MOL0     H 7835   4.034   7.773   4.944  1.2038  0.3572 -1.2924
  817MOL0     H 7836   4.086   7.509   4.790  0.3728  1.4677 -1.3429
  817MOL0     H 7837   3.926   7.564   4.862  0.0081 -0.8243  0.8537
  817MOL0     H 7838   4.082   7.705   4.647  0.5088 -3.0128 -0.2008
  817MOL0     H 7839   3.927   7.761   4.718  0.1749  0.4102 -0.9529
  817MOL0     H 7840   3.934   7.634   4.491  0.8876 -2.3353 -1.6225
  817MOL0     H 7841   3.960   7.489   4.566 -1.8300 -1.0573  3.7671
  817MOL0     H 7842   3.583   7.477   4.684  0.3162  0.8312  2.5239
  817MOL0     H 7843   4.374   7.534   5.097 -1.1848  0.4934 -3.1406
  817MOL0     H 7844   4.562   7.647   5.212 -3.5014 -2.8550  1.8506
  818MOL0     O 7845   6.132  10.409   9.370  0.0272  0.4001 -0.0367
  818MOL0     C 7846   6.181  10.294   9.362  0.5275  0.0091 -0.4199
  818MOL0     O 7847   6.115  10.173   9.379  0.1128 -0.6183 -0.5579
  818MOL0     C 7848   5.980  10.156   9.417  0.2216 -1.1786 -0.5535
  818MOL0     C 7849   5.942  10.037   9.480  0.2251  0.1516 -0.0225
  818MOL0     C 7850   5.804  10.001   9.500 -0.1083 -0.4073 -0.1195
  818MOL0     C 7851   5.704  10.092   9.457  0.3521  0.5679 -0.2514
  818MOL0     O 7852   5.568  10.074   9.473 -0.4792  0.0580  0.3422
  818MOL0     C 7853   5.519   9.942   9.468 -0.0631  0.0011  0.1639
  818MOL0     C 7854   5.363   9.944   9.479  1.0311 -0.2105 -0.1232
  818MOL0     C 7855   5.295   9.811   9.442 -0.0150  0.1817  0.1088
  818MOL0     C 7856   5.146   9.836   9.448 -0.0064  0.0715 -0.6258
  818MOL0     C 7857   5.077   9.703   9.413 -0.4913 -0.3340 -0.3776
  818MOL0     C 7858   4.925   9.713   9.414  0.4559 -0.1059 -0.2266
  818MOL0     C 7859   4.847   9.602   9.359 -0.3840 -0.0332  0.5241
  818MOL0     C 7860   4.859   9.483   9.442 -1.1785  1.2621  0.9796
  818MOL0     N 7861   4.773   9.373   9.396 -0.4378  0.2510  0.2677
  818MOL0     C 7862   4.790   9.300   9.281 -0.2013 -1.1278  0.7369
  818MOL0     C 7863   4.670   9.246   9.259  0.1025 -0.8145  0.5083
  818MOL0     C 7864   4.620   9.168   9.139 -0.0956  0.0705  0.3494
  818MOL0     C 7865   4.665   9.021   9.135 -0.1608 -0.1992  0.1804
  818MOL0     C 7866   4.616   8.925   9.248 -0.2408  0.6359 -0.9928
  818MOL0     C 7867   4.475   8.889   9.253 -0.8506  0.3023  0.3965
  818MOL0     O 7868   4.434   8.779   9.345 -0.3181 -0.8292  0.2436
  818MOL0     C 7869   4.305   8.780   9.390 -0.2433  0.4983 -0.3728
  818MOL0     C 7870   4.280   8.759   9.528  0.0192  1.0732 -0.4894
  818MOL0     C 7871   4.150   8.746   9.580 -0.0628  0.3928 -0.2189
  818MOL0     C 7872   4.038   8.752   9.490  0.1675 -1.1889  0.0170
  818MOL0     C 7873   3.899   8.729   9.537 -0.1255 -0.3494 -0.4273
  818MOL0     O 7874   3.787   8.766   9.462 -0.7845 -0.5448 -0.7811
  818MOL0     C 7875   3.665   8.703   9.480 -1.1774  0.1141  0.7760
  818MOL0     C 7876   3.602   8.709   9.601  0.9746 -0.6978 -0.3041
  818MOL0     C 7877   3.471   8.658   9.615  0.0896 -0.1115 -1.0799
  818MOL0     C 7878   3.400   8.596   9.514 -0.6090 -0.8494  0.7729
  818MOL0     O 7879   3.272   8.549   9.519 -0.7622  0.1669 -0.3803
  818MOL0     C 7880   3.205   8.537   9.641  0.4583 -0.4677 -0.7196
  818MOL0     C 7881   3.058   8.538   9.608  0.4947  0.3922  0.1171
  818MOL0     C 7882   2.960   8.542   9.732  0.2935 -0.3309  0.5007
  818MOL0     C 7883   2.839   8.446   9.697  0.0479  0.5505 -0.4021
  818MOL0     C 7884   2.728   8.471   9.801  1.1956  0.1698 -0.5153
  818MOL0     C 7885   2.623   8.363   9.787 -0.3054 -0.5938 -0.6626
  818MOL0     C 7886   2.494   8.429   9.868 -0.1295 -0.0917  0.7127
  818MOL0     C 7887   2.382   8.326   9.875  0.7244  0.1504 -0.2372
  818MOL0    Cl 7888   2.437   8.160   9.904  0.0286  0.2432  0.4387
  818MOL0     C 7889   3.460   8.594   9.387 -0.8544 -0.0002  0.8967
  818MOL0     C 7890   3.591   8.648   9.372 -0.2683 -0.4118 -0.7055
  818MOL0     O 7891   3.890   8.661   9.642 -0.5378  0.2009  0.1951
  818MOL0     C 7892   4.061   8.783   9.358 -0.2749  0.5812  0.3771
  818MOL0     C 7893   4.191   8.794   9.306 -0.7397  0.4025  0.3457
  818MOL0     N 7894   4.588   9.261   9.366 -0.1866 -0.2131 -0.2568
  818MOL0     N 7895   4.647   9.342   9.443 -0.1260  0.6836  0.8034
  818MOL0     C 7896   5.741  10.214   9.400 -0.5656  0.5233 -0.2290
  818MOL0     C 7897   5.879  10.251   9.377 -0.2620  1.2696 -0.1202
  818MOL0     C 7898   6.322  10.286   9.321 -0.3423 -1.2900 -0.6064
  818MOL0     C 7899   6.404  10.408   9.323  0.1366  0.1330 -0.0920
  818MOL0     C 7900   6.537  10.400   9.294  1.0322 -0.5037  0.0458
  818MOL0     C 7901   6.598  10.275   9.265  0.0713  0.0452 -0.4424
  818MOL0     O 7902   6.731  10.246   9.259 -0.1896  0.6186  0.0346
  818MOL0     C 7903   6.819  10.346   9.191  0.3460  0.6690  1.0357
  818MOL0     C 7904   6.963  10.302   9.167  0.4743 -0.2293 -0.7397
  818MOL0     C 7905   7.046  10.413   9.101  0.2325  0.3295  0.2835
  818MOL0     C 7906   7.182  10.370   9.043  0.2351 -0.6382 -0.1836
  818MOL0     C 7907   7.294  10.354   9.140  0.3915 -0.1176 -0.9056
  818MOL0     C 7908   7.368  10.348   9.234  0.5201  0.8466  0.5903
  818MOL0     C 7909   6.515  10.159   9.251 -0.4897 -0.5302  0.0844
  818MOL0     C 7910   6.376  10.167   9.285 -0.3641  0.0564 -0.1945
  818MOL0     H 7911   6.005   9.955   9.512 -2.8465 -2.0199  1.0225
  818MOL0     H 7912   5.772   9.906   9.542  0.6492 -0.4198  0.4518
  818MOL0     H 7913   5.564   9.876   9.542 -0.8467 -0.7526 -0.0230
  818MOL0     H 7914   5.552   9.911   9.369 -0.4879 -0.4592  0.1639
  818MOL0     H 7915   5.325  10.022   9.412 -1.7667 -1.3474  0.0034
  818MOL0     H 7916   5.338   9.968   9.583 -1.4836 -1.5153 -0.3386
  818MOL0     H 7917   5.341   9.734   9.504 -2.8016 -2.5894 -0.9868
  818MOL0     H 7918   5.325   9.785   9.340  0.4133  0.3142  0.1946
  818MOL0     H 7919   5.112   9.866   9.548  2.8309  0.9289  0.1808
  818MOL0     H 7920   5.110   9.915   9.382  1.0748 -0.3829 -1.7815
  818MOL0     H 7921   5.115   9.618   9.471  3.1979  1.7446  0.5625
  818MOL0     H 7922   5.100   9.683   9.308 -1.6179 -0.7203 -0.5725
  818MOL0     H 7923   4.900   9.798   9.350 -0.6582  0.1153  0.4751
  818MOL0     H 7924   4.894   9.730   9.517 -0.8540 -0.8000 -0.4734
  818MOL0     H 7925   4.740   9.622   9.356 -0.4994 -0.7530 -1.4959
  818MOL0     H 7926   4.893   9.582   9.262  2.4202 -2.1163  2.1009
  818MOL0     H 7927   4.848   9.507   9.548 -0.8793  0.8216  1.1142
  818MOL0     H 7928   4.961   9.448   9.421 -1.6337 -1.6038  2.9461
  818MOL0     H 7929   4.872   9.302   9.210 -1.5125 -2.0888 -0.8965
  818MOL0     H 7930   4.647   9.211   9.042 -0.0348  0.8770  0.7218
  818MOL0     H 7931   4.513   9.158   9.156  0.1740  0.3949  2.4781
  818MOL0     H 7932   4.774   9.024   9.132 -0.1711 -0.4657 -0.9099
  818MOL0     H 7933   4.630   8.995   9.035 -1.0283 -0.7943  0.6252
  818MOL0     H 7934   4.672   8.831   9.245  0.4130  0.8668  1.6564
  818MOL0     H 7935   4.642   8.972   9.343 -0.8392  0.6584 -0.8373
  818MOL0     H 7936   4.452   8.846   9.155  3.2017  2.1310 -1.5975
  818MOL0     H 7937   4.414   8.977   9.274  0.4357  0.7238  2.7644
  818MOL0     H 7938   4.364   8.741   9.593 -0.0802  3.0425  0.2429
  818MOL0     H 7939   4.131   8.724   9.684  0.2085  1.4177  0.0545
  818MOL0     H 7940   3.654   8.748   9.688 -1.5690  2.4449  0.0032
  818MOL0     H 7941   3.435   8.676   9.716  2.7502  0.6621 -0.1812
  818MOL0     H 7942   3.220   8.611   9.721  1.3944 -0.2594 -1.0750
  818MOL0     H 7943   3.237   8.442   9.682 -0.7883 -1.4045 -1.8304
  818MOL0     H 7944   3.040   8.447   9.549  0.1966 -0.0938  0.9391
  818MOL0     H 7945   3.027   8.621   9.545 -2.7444 -2.7664 -2.9602
  818MOL0     H 7946   2.912   8.640   9.743 -0.9973 -1.1788  3.3152
  818MOL0     H 7947   3.017   8.514   9.821 -0.4863 -0.1612  1.0659
  818MOL0     H 7948   2.794   8.463   9.599 -1.5847  1.9547  0.5087
  818MOL0     H 7949   2.869   8.344   9.719 -1.5170 -0.7919 -3.8306
  818MOL0     H 7950   2.677   8.565   9.774 -3.2019 -2.3068 -1.8194
  818MOL0     H 7951   2.775   8.479   9.900  0.0573 -0.9071  0.1374
  818MOL0     H 7952   2.659   8.281   9.850 -2.7314  1.8524  4.5933
  818MOL0     H 7953   2.604   8.336   9.683  0.3795  0.1636 -1.0017
  818MOL0     H 7954   2.524   8.463   9.967  0.9334 -0.4283  0.5211
  818MOL0     H 7955   2.449   8.516   9.820 -2.6317 -2.3091 -1.3119
  818MOL0     H 7956   2.332   8.321   9.778  0.1988  1.0401 -0.0273
  818MOL0     H 7957   2.305   8.356   9.947 -0.2106  0.9871 -1.5264
  818MOL0     H 7958   3.406   8.559   9.300  1.7441  1.1137 -1.2857
  818MOL0     H 7959   3.628   8.651   9.270 -0.0640 -0.6308 -0.6368
  818MOL0     H 7960   3.970   8.795   9.300 -0.6005  0.5482  0.8748
  818MOL0     H 7961   4.196   8.805   9.198  0.3594  1.7648  0.5064
  818MOL0     H 7962   5.661  10.280   9.367 -1.2787  0.2612  0.9214
  818MOL0     H 7963   5.897  10.342   9.322  1.9930  0.7047 -0.4119
  818MOL0     H 7964   6.358  10.505   9.343 -1.6235 -0.8297  0.7991
  818MOL0     H 7965   6.595  10.492   9.300 -1.7604  1.5230 -1.8877
  818MOL0     H 7966   6.812  10.440   9.247  0.3582  1.8823 -0.8946
  818MOL0     H 7967   6.766  10.386   9.104 -3.3748  0.0257  2.8020
  818MOL0     H 7968   7.012  10.282   9.263  0.7059  0.5412 -0.6897
  818MOL0     H 7969   6.963  10.208   9.110  0.0423 -0.9558  0.4263
  818MOL0     H 7970   7.060  10.503   9.161  0.9779  0.8769 -0.6840
  818MOL0     H 7971   6.985  10.447   9.016 -2.4687  0.0964  2.0084
  818MOL0     H 7972   7.169  10.273   8.993 -1.1466 -0.1422 -0.8236
  818MOL0     H 7973   7.223  10.443   8.972  0.9426 -2.6493 -1.9671
  818MOL0     H 7974   7.426  10.351   9.324  0.8503 -2.2332  0.5724
  818MOL0     H 7975   6.561  10.063   9.230 -1.3873 -0.5310 -2.0818
  818MOL0     H 7976   6.327  10.071   9.289  0.1942 -0.1852  1.5475
  819MOL0     O 7977   1.858   6.428   9.218  0.5390 -0.6818  0.1455
  819MOL0     C 7978   1.930   6.355   9.159  0.1377  0.9491 -0.0198
  819MOL0     O 7979   1.925   6.219   9.176  0.5205  0.2131  0.3891
  819MOL0     C 7980   1.814   6.169   9.250 -0.4156 -0.4731 -0.3846
  819MOL0     C 7981   1.693   6.150   9.188 -0.6473  0.1850  0.6638
  819MOL0     C 7982   1.571   6.112   9.253 -0.2410 -0.3353 -0.1989
  819MOL0     C 7983   1.565   6.108   9.391 -0.4661 -0.1456 -0.2405
  819MOL0     O 7984   1.452   6.066   9.450  0.3622  0.8291  0.2759
  819MOL0     C 7985   1.472   5.987   9.573  0.0947  0.5884 -0.8839
  819MOL0     C 7986   1.338   5.949   9.631 -0.8269 -0.5112  0.4782
  819MOL0     C 7987   1.235   6.064   9.629  0.1847  0.3071 -0.1171
  819MOL0     C 7988   1.304   6.188   9.700 -0.1720 -0.4489 -0.5743
  819MOL0     C 7989   1.192   6.279   9.757  0.0559 -0.1327 -0.7471
  819MOL0     C 7990   1.117   6.352   9.637  0.6487  0.3261 -0.5362
  819MOL0     C 7991   0.988   6.443   9.682 -0.3939  0.4807 -0.0707
  819MOL0     C 7992   1.035   6.571   9.740  1.1253  0.6768 -0.2246
  819MOL0     N 7993   0.927   6.644   9.807  0.2176 -0.6902  0.0046
  819MOL0     C 7994   0.924   6.772   9.852 -0.2872 -0.2255 -0.0882
  819MOL0     C 7995   0.805   6.795   9.916  0.5484  0.7479 -0.4393
  819MOL0     C 7996   0.768   6.923   9.977  0.7730 -0.4516  0.1901
  819MOL0     C 7997   0.682   7.017   9.885  0.2784  0.3478  0.8765
  819MOL0     C 7998   0.608   7.121   9.954 -0.4188 -0.9579  0.2008
  819MOL0     C 7999   0.540   7.215   9.849  0.6464 -0.2176  0.4185
  819MOL0     O 8000   0.502   7.334   9.917  0.6915  0.2927 -0.4657
  819MOL0     C 8001   0.371   7.388   9.932 -0.5466 -0.1044  0.0669
  819MOL0     C 8002   0.251   7.326   9.903 -0.6339  0.1728 -0.0143
  819MOL0     C 8003   0.130   7.382   9.937 -0.2331 -0.0462  0.4686
  819MOL0     C 8004   0.119   7.515   9.988  0.3122  0.5825  0.0136
  819MOL0     C 8005  -0.012   7.575  10.022 -0.5086  0.8353 -0.2996
  819MOL0     O 8006  -0.009   7.703  10.057  0.2415  0.0273  0.1522
  819MOL0     C 8007  -0.126   7.777  10.072 -0.1735 -0.3404  0.3055
  819MOL0     C 8008  -0.243   7.722  10.137  0.3820  0.2682 -0.2725
  819MOL0     C 8009  -0.360   7.800  10.123  0.0383  0.6428 -0.2944
  819MOL0     C 8010  -0.370   7.918  10.051 -1.3859  1.3381  0.1847
  819MOL0     O 8011  -0.480   7.992  10.025  0.2084 -0.4729  0.7128
  819MOL0     C 8012  -0.607   7.960  10.086  0.2655  0.0322 -0.2231
  819MOL0     C 8013  -0.670   7.838  10.021 -0.6115 -0.1491 -0.0730
  819MOL0     C 8014  -0.771   7.784  10.121 -0.4890 -0.3282  0.0644
  819MOL0     C 8015  -0.896   7.876  10.136  0.0987 -0.1262  0.4409
  819MOL0     C 8016  -0.984   7.818  10.245  0.1163  1.1479 -0.2466
  819MOL0     C 8017  -1.056   7.926  10.319  0.5851  0.2625  0.3154
  819MOL0     C 8018  -1.170   7.865  10.401 -0.1667 -0.4543  0.4042
  819MOL0     C 8019  -1.230   7.952  10.511 -0.2354 -0.2936  0.8242
  819MOL0    Cl 8020  -1.123   7.961  10.650  0.2730 -0.2440  0.0398
  819MOL0     C 8021  -0.247   7.979  10.005 -0.5615 -0.2733  0.7591
  819MOL0     C 8022  -0.128   7.904  10.016 -0.3676 -0.9615 -0.3560
  819MOL0     O 8023  -0.113   7.504   9.994 -0.3469 -0.6852 -0.0691
  819MOL0     C 8024   0.245   7.571  10.020 -0.0301 -0.2299  0.4619
  819MOL0     C 8025   0.366   7.514   9.992  0.1699  0.1834 -0.1374
  819MOL0     N 8026   0.733   6.680   9.920  0.6080  0.5489 -0.8034
  819MOL0     N 8027   0.804   6.594   9.848 -0.1527 -0.1926  0.4078
  819MOL0     C 8028   1.688   6.142   9.459  0.7032  0.3105  0.0946
  819MOL0     C 8029   1.810   6.166   9.390 -0.8128  0.2435 -0.7933
  819MOL0     C 8030   2.044   6.417   9.092 -0.0698 -0.4317 -0.4137
  819MOL0     C 8031   2.137   6.330   9.042  0.4225  0.6648  0.4818
  819MOL0     C 8032   2.246   6.391   8.983 -0.6766  0.0721 -0.2095
  819MOL0     C 8033   2.265   6.529   8.987 -0.0455  0.6616  0.9425
  819MOL0     O 8034   2.382   6.578   8.924 -0.3041 -0.0072  0.0573
  819MOL0     C 8035   2.492   6.625   8.998  0.7895 -0.0946 -0.4643
  819MOL0     C 8036   2.548   6.513   9.092  0.1198  0.8703  0.1787
  819MOL0     C 8037   2.598   6.387   9.011 -0.3492  0.3738  0.0891
  819MOL0     C 8038   2.748   6.393   8.986 -0.3869 -0.0318  0.2609
  819MOL0     C 8039   2.821   6.331   9.099 -0.2351 -0.3055 -0.3059
  819MOL0     C 8040   2.878   6.293   9.195 -0.1609 -0.3173 -0.7690
  819MOL0     C 8041   2.177   6.617   9.052  0.0016  0.3691  0.8295
  819MOL0     C 8042   2.053   6.560   9.086 -0.4836 -0.3817 -0.2645
  819MOL0     H 8043   1.691   6.152   9.079  0.0106 -0.4691  0.6299
  819MOL0     H 8044   1.482   6.090   9.195 -3.2921  1.2807  3.4741
  819MOL0     H 8045   1.527   6.044   9.649  1.3584 -2.3919  0.6057
  819MOL0     H 8046   1.520   5.891   9.555 -0.5865  0.4455 -2.0276
  819MOL0     H 8047   1.352   5.904   9.730 -1.0292 -0.7570  0.3972
  819MOL0     H 8048   1.300   5.871   9.565 -2.0448 -0.4664  1.0914
  819MOL0     H 8049   1.152   6.022   9.685  1.2504 -1.2809  0.3362
  819MOL0     H 8050   1.206   6.097   9.529  1.0351  0.4534 -0.3294
  819MOL0     H 8051   1.370   6.155   9.782 -0.8940 -0.2700  0.0945
  819MOL0     H 8052   1.367   6.247   9.633  0.0330  3.1081  2.3838
  819MOL0     H 8053   1.238   6.353   9.823 -1.2003 -0.9887  1.1836
  819MOL0     H 8054   1.108   6.237   9.814 -1.7387  1.6891 -1.9195
  819MOL0     H 8055   1.075   6.281   9.566 -1.2041  0.2870  0.5358
  819MOL0     H 8056   1.182   6.418   9.579  0.8545 -0.8180 -1.6454
  819MOL0     H 8057   0.925   6.457   9.594  0.1370  2.8534 -0.1507
  819MOL0     H 8058   0.933   6.390   9.761  1.1283  2.9099  2.8475
  819MOL0     H 8059   1.086   6.634   9.666 -1.5364  2.3900 -0.7400
  819MOL0     H 8060   1.102   6.540   9.821  1.5579 -0.5883 -1.0377
  819MOL0     H 8061   1.010   6.839   9.849  0.0775 -0.6116  1.2517
  819MOL0     H 8062   0.859   6.968  10.019  0.7493  0.0244 -0.2520
  819MOL0     H 8063   0.699   6.902  10.059  0.3385 -1.4899 -0.4303
  819MOL0     H 8064   0.610   6.958   9.828  0.7987 -0.3210  0.9032
  819MOL0     H 8065   0.753   7.057   9.812  0.1968  0.5753  0.9209
  819MOL0     H 8066   0.531   7.073  10.016 -1.6217 -0.5786 -0.9685
  819MOL0     H 8067   0.671   7.184  10.018  1.0782 -1.7164 -0.4717
  819MOL0     H 8068   0.452   7.176   9.797 -0.8354  2.2392  0.9143
  819MOL0     H 8069   0.613   7.243   9.772  2.1062  2.3377  2.5773
  819MOL0     H 8070   0.252   7.232   9.848 -0.9272  1.2068 -1.8987
  819MOL0     H 8071   0.043   7.322   9.913  0.4793 -0.9882  0.1672
  819MOL0     H 8072  -0.259   7.628  10.189 -1.4448  0.5454 -0.2541
  819MOL0     H 8073  -0.454   7.753  10.149 -0.1863  2.6040  2.9672
  819MOL0     H 8074  -0.677   8.044  10.075 -0.0912  0.6424  4.5899
  819MOL0     H 8075  -0.590   7.941  10.192  1.4975 -1.9414 -0.7218
  819MOL0     H 8076  -0.600   7.755  10.005 -0.9131 -1.1067  3.0187
  819MOL0     H 8077  -0.711   7.860   9.922  1.2795 -1.0070 -1.1210
  819MOL0     H 8078  -0.725   7.764  10.218 -0.2160  0.8447  0.1927
  819MOL0     H 8079  -0.815   7.690  10.087 -0.2794 -0.5360  0.3591
  819MOL0     H 8080  -0.873   7.978  10.169 -0.4254  0.3703 -0.6686
  819MOL0     H 8081  -0.946   7.878  10.039  1.0548 -1.2842 -0.1054
  819MOL0     H 8082  -0.931   7.769  10.328  0.2812 -0.9947 -1.5471
  819MOL0     H 8083  -1.048   7.737  10.210  2.4732 -0.5557 -0.8469
  819MOL0     H 8084  -1.109   7.996  10.253  0.2837 -0.5179 -0.2791
  819MOL0     H 8085  -0.988   7.981  10.385 -2.4162  2.2660  2.0476
  819MOL0     H 8086  -1.243   7.827  10.329  1.7295 -1.1606 -1.2392
  819MOL0     H 8087  -1.138   7.769  10.443 -2.1278 -0.8701  1.0623
  819MOL0     H 8088  -1.329   7.911  10.532 -1.3295  2.8543  2.4501
  819MOL0     H 8089  -1.261   8.045  10.463 -1.6068 -1.0917  0.0921
  819MOL0     H 8090  -0.262   8.077   9.963  0.0920 -0.5172 -0.0643
  819MOL0     H 8091  -0.039   7.950   9.973  1.2680 -2.3136  1.4160
  819MOL0     H 8092   0.247   7.669  10.068  2.3382  0.1320 -0.2582
  819MOL0     H 8093   0.455   7.562  10.033  1.5585 -2.5315  0.2989
  819MOL0     H 8094   1.698   6.148   9.567  1.7714  2.7096 -0.0862
  819MOL0     H 8095   1.896   6.208   9.440 -0.7218  1.9790 -2.2951
  819MOL0     H 8096   2.133   6.221   9.041 -2.4740  0.6772 -0.0388
  819MOL0     H 8097   2.316   6.328   8.929 -1.3831 -1.3134  0.4424
  819MOL0     H 8098   2.460   6.712   9.057  1.9305  1.0056 -1.4127
  819MOL0     H 8099   2.569   6.663   8.930  2.5617  0.1122  1.5214
  819MOL0     H 8100   2.637   6.552   9.143  1.2634 -1.4560  0.0798
  819MOL0     H 8101   2.474   6.477   9.163 -3.4422  2.3331 -2.4552
  819MOL0     H 8102   2.548   6.383   8.914  0.2204  2.8795 -0.3858
  819MOL0     H 8103   2.577   6.293   9.062  2.1337  0.3281  1.2069
  819MOL0     H 8104   2.767   6.334   8.895 -3.0492 -0.9135  0.1980
  819MOL0     H 8105   2.776   6.496   8.961  1.6205 -1.2069 -3.0646
  819MOL0     H 8106   2.938   6.245   9.270  1.8860  0.6529 -1.7131
  819MOL0     H 8107   2.184   6.725   9.049 -2.2909  0.5598 -2.2224
  819MOL0     H 8108   1.959   6.611   9.103 -1.3454 -2.0363  0.1746
  820MOL0     O 8109   3.420   7.410  10.322 -0.2325 -0.2416 -0.0767
  820MOL0     C 8110   3.379   7.481  10.414 -1.3531  0.2132  0.1990
  820MOL0     O 8111   3.423   7.608  10.438 -0.6538 -0.6746  0.3860
  820MOL0     C 8112   3.540   7.662  10.396  0.7603  0.2612  0.1908
  820MOL0     C 8113   3.570   7.804  10.394 -0.7633  0.3289  0.2261
  820MOL0     C 8114   3.695   7.863  10.382  0.0102  0.7995  0.3243
  820MOL0     C 8115   3.801   7.779  10.353  0.0275 -0.0159  0.1030
  820MOL0     O 8116   3.934   7.837  10.350  0.1165 -0.1703 -0.4292
  820MOL0     C 8117   4.047   7.766  10.406  0.1869 -0.1503  1.0305
  820MOL0     C 8118   4.167   7.849  10.370  0.1429  0.3353 -0.6136
  820MOL0     C 8119   4.305   7.803  10.428  0.3848 -0.0505 -0.1536
  820MOL0     C 8120   4.410   7.905  10.411  0.1109 -0.5760  0.8539
  820MOL0     C 8121   4.552   7.859  10.442 -0.1127 -1.3118  0.3407
  820MOL0     C 8122   4.655   7.977  10.446  0.0671  0.4055 -0.5596
  820MOL0     C 8123   4.792   7.919  10.411  0.5166 -0.5771 -0.2212
  820MOL0     C 8124   4.893   8.031  10.403  0.1570 -0.1740  0.0756
  820MOL0     N 8125   5.003   7.994  10.313  0.2044  0.8255 -0.6072
  820MOL0     C 8126   4.982   7.969  10.179 -0.3528 -0.2007 -0.0763
  820MOL0     C 8127   5.106   7.961  10.130 -0.0490 -0.2503  0.3578
  820MOL0     C 8128   5.141   7.948   9.982  0.1620 -0.3477 -0.5404
  820MOL0     C 8129   5.054   7.832   9.932  0.2049 -0.0636 -0.1272
  820MOL0     C 8130   5.094   7.801   9.783 -0.2811 -0.1533 -1.0229
  820MOL0     C 8131   5.028   7.681   9.725 -0.6333  0.5852 -0.2100
  820MOL0     O 8132   4.903   7.651   9.788 -0.7024  0.6291 -0.1321
  820MOL0     C 8133   4.807   7.583   9.730 -0.0658 -1.1342  0.3182
  820MOL0     C 8134   4.823   7.510   9.612 -0.3278 -0.1221  0.4893
  820MOL0     C 8135   4.711   7.442   9.551 -0.3329  0.1108  0.0518
  820MOL0     C 8136   4.581   7.457   9.614 -0.5048 -0.5072  0.2967
  820MOL0     C 8137   4.463   7.389   9.565  0.6282 -0.5589  0.2589
  820MOL0     O 8138   4.354   7.414   9.646  0.5397 -0.0643  0.6564
  820MOL0     C 8139   4.238   7.335   9.637  0.4073  0.4462  0.5412
  820MOL0     C 8140   4.131   7.394   9.582  0.7587  0.0941 -0.9920
  820MOL0     C 8141   4.014   7.318   9.577  0.5134  0.1023  0.1992
  820MOL0     C 8142   4.007   7.178   9.605 -0.1057 -0.4661  0.1289
  820MOL0     O 8143   3.877   7.119   9.592 -0.4405  0.6434 -0.3311
  820MOL0     C 8144   3.886   6.974   9.579  0.0500  0.0913 -0.3600
  820MOL0     C 8145   3.743   6.909   9.561  0.2112 -0.2095  0.0098
  820MOL0     C 8146   3.675   6.942   9.419 -0.0907 -0.0781 -0.6398
  820MOL0     C 8147   3.577   6.839   9.376  0.0198 -0.0771  0.2709
  820MOL0     C 8148   3.477   6.891   9.268 -0.3634 -0.8993  0.1256
  820MOL0     C 8149   3.541   6.899   9.129 -0.0066 -0.2511  0.0594
  820MOL0     C 8150   3.440   6.887   9.012  0.3086 -0.3532  0.5202
  820MOL0     C 8151   3.464   6.971   8.889  0.3739 -0.1797  0.4268
  820MOL0    Cl 8152   3.351   6.907   8.756 -0.5288 -0.1229  0.3184
  820MOL0     C 8153   4.131   7.115   9.644  0.3807 -0.0920 -0.2828
  820MOL0     C 8154   4.240   7.199   9.655 -1.2510 -0.3016 -0.3313
  820MOL0     O 8155   4.467   7.311   9.471 -0.3479  0.1193  0.3643
  820MOL0     C 8156   4.577   7.531   9.733  1.0308  0.4683 -0.0430
  820MOL0     C 8157   4.687   7.586   9.798 -0.6834 -0.1224  0.9681
  820MOL0     N 8158   5.199   7.953  10.241  0.0930 -0.5644  0.4849
  820MOL0     N 8159   5.133   7.991  10.339 -0.7137  0.3471 -0.1572
  820MOL0     C 8160   3.776   7.641  10.351 -0.1806  0.5747 -0.0133
  820MOL0     C 8161   3.652   7.576  10.363 -0.9919 -0.3642  0.7124
  820MOL0     C 8162   3.271   7.434  10.502 -0.1073  0.2653 -0.3020
  820MOL0     C 8163   3.212   7.519  10.596 -0.1277 -0.9065 -0.0085
  820MOL0     C 8164   3.105   7.487  10.677  0.0402  0.5697 -0.1771
  820MOL0     C 8165   3.052   7.356  10.671 -0.4279  0.5062  0.2019
  820MOL0     O 8166   2.952   7.322  10.766 -0.5749  0.0409  0.7600
  820MOL0     C 8167   2.905   7.190  10.774 -0.0993 -0.6612  0.1386
  820MOL0     C 8168   2.783   7.182  10.859  0.9924  1.0645 -0.0869
  820MOL0     C 8169   2.732   7.035  10.835 -0.5473 -0.4778 -0.0939
  820MOL0     C 8170   2.598   7.005  10.914 -0.1015  1.1918 -0.9246
  820MOL0     C 8171   2.472   7.055  10.846 -0.5866  0.3994  0.3123
  820MOL0     C 8172   2.372   7.084  10.781  0.1196  0.4638 -0.4755
  820MOL0     C 8173   3.096   7.273  10.560  0.1353 -0.2596 -1.0677
  820MOL0     C 8174   3.211   7.311  10.483  0.1184  0.2713 -0.0148
  820MOL0     H 8175   3.497   7.878  10.422 -2.1017 -0.7870 -0.2245
  820MOL0     H 8176   3.693   7.971  10.393 -0.9599  0.9263 -0.8470
  820MOL0     H 8177   4.059   7.671  10.352  1.6977  1.1707 -1.1183
  820MOL0     H 8178   4.039   7.750  10.514  3.4045  1.6415  1.6688
  820MOL0     H 8179   4.167   7.950  10.412  3.4811 -0.5005  1.8084
  820MOL0     H 8180   4.169   7.841  10.261 -0.0891 -1.0558 -0.5339
  820MOL0     H 8181   4.319   7.717  10.362  0.7922 -0.7276  0.7936
  820MOL0     H 8182   4.302   7.768  10.532  0.6906 -1.8091 -0.7060
  820MOL0     H 8183   4.399   7.946  10.310  0.3308  1.7459  1.7132
  820MOL0     H 8184   4.380   7.988  10.476 -2.0232 -2.6799  2.7586
  820MOL0     H 8185   4.596   7.787  10.372  2.1693 -0.4752  0.8255
  820MOL0     H 8186   4.545   7.809  10.539 -0.8062 -0.5953  0.6697
  820MOL0     H 8187   4.646   8.028  10.542 -2.9293  1.6141 -1.3636
  820MOL0     H 8188   4.616   8.043  10.369  2.4840  2.3940 -0.1878
  820MOL0     H 8189   4.824   7.844  10.483  0.2930  0.3518  0.8738
  820MOL0     H 8190   4.772   7.868  10.316 -4.0239 -0.2109  0.3234
  820MOL0     H 8191   4.927   8.060  10.503 -1.9081  0.7705  0.5509
  820MOL0     H 8192   4.845   8.112  10.348  0.3555 -0.7697 -1.0252
  820MOL0     H 8193   4.890   7.977  10.121 -0.6638 -1.4404  0.2206
  820MOL0     H 8194   5.249   7.937   9.969  0.3292  2.4887 -2.5160
  820MOL0     H 8195   5.126   8.044   9.932  1.6163 -1.3821 -3.1731
  820MOL0     H 8196   4.946   7.843   9.941  0.4620  3.6870 -0.1074
  820MOL0     H 8197   5.081   7.741   9.987  0.7101 -0.2348 -0.6366
  820MOL0     H 8198   5.076   7.884   9.714 -0.6003 -1.8668 -3.1087
  820MOL0     H 8199   5.202   7.785   9.773 -0.1335 -1.6076  1.8981
  820MOL0     H 8200   5.104   7.603   9.739 -2.2238 -0.9764  0.1214
  820MOL0     H 8201   5.018   7.705   9.619 -1.9084  0.2596 -0.1909
  820MOL0     H 8202   4.923   7.491   9.575 -0.8991 -1.9820 -0.2749
  820MOL0     H 8203   4.735   7.380   9.465  2.3356 -1.8077  2.0342
  820MOL0     H 8204   4.128   7.496   9.544  3.7046  1.0126  0.9134
  820MOL0     H 8205   3.933   7.372   9.529 -0.0311 -1.2775 -0.4979
  820MOL0     H 8206   3.935   6.934   9.668 -0.0278  0.6410 -0.0705
  820MOL0     H 8207   3.950   6.950   9.493  2.2511 -0.2919  1.3038
  820MOL0     H 8208   3.684   6.939   9.648  0.2063 -1.7131  0.5416
  820MOL0     H 8209   3.751   6.800   9.569  1.1793 -0.0737  1.0780
  820MOL0     H 8210   3.754   6.964   9.346 -1.7474  2.6013 -1.7657
  820MOL0     H 8211   3.624   7.038   9.424 -1.3212 -0.6828 -1.1043
  820MOL0     H 8212   3.621   6.745   9.340 -1.0209  0.7527 -3.6751
  820MOL0     H 8213   3.517   6.800   9.458  0.3694  0.4080  0.7615
  820MOL0     H 8214   3.437   6.985   9.306 -1.5506 -2.0893  2.0059
  820MOL0     H 8215   3.395   6.818   9.271 -2.2651  0.9381 -2.2589
  820MOL0     H 8216   3.613   6.819   9.109 -1.4278 -1.9173  1.4002
  820MOL0     H 8217   3.592   6.996   9.117 -3.0376  1.4824  0.1496
  820MOL0     H 8218   3.429   6.783   8.978  1.1787  0.3679 -2.2124
  820MOL0     H 8219   3.342   6.919   9.049 -0.8509  0.0389 -2.6145
  820MOL0     H 8220   3.567   6.964   8.852 -0.4153  2.1375 -2.5563
  820MOL0     H 8221   3.450   7.075   8.917 -0.9257 -0.6332  1.5563
  820MOL0     H 8222   4.145   7.008   9.651  0.4733 -0.1151 -0.7332
  820MOL0     H 8223   4.339   7.154   9.662 -0.6007  1.0645 -0.4219
  820MOL0     H 8224   4.494   7.528   9.802  1.9755 -3.4579  1.1749
  820MOL0     H 8225   4.682   7.648   9.887  1.6725  2.5681 -0.5807
  820MOL0     H 8226   3.851   7.568  10.323 -2.5677 -1.4705 -1.4954
  820MOL0     H 8227   3.657   7.468  10.360  0.4678 -0.2986 -0.5235
  820MOL0     H 8228   3.249   7.617  10.623 -2.7953  1.2462 -3.3054
  820MOL0     H 8229   3.076   7.543  10.765  1.4554 -1.0701  1.4085
  820MOL0     H 8230   2.979   7.117  10.809  0.5461 -0.7653 -1.3587
  820MOL0     H 8231   2.878   7.150  10.676 -2.8422 -0.6173  0.8151
  820MOL0     H 8232   2.807   7.199  10.964 -0.6461  0.2272  0.4578
  820MOL0     H 8233   2.705   7.251  10.827  2.2070  2.1901 -0.7332
  820MOL0     H 8234   2.819   6.974  10.862  2.0738  2.0224 -2.2796
  820MOL0     H 8235   2.709   7.021  10.729 -2.0972  1.1718 -0.0082
  820MOL0     H 8236   2.580   6.897  10.918 -1.8627  1.3955 -2.1723
  820MOL0     H 8237   2.615   7.044  11.015 -1.8581 -1.0914  0.3540
  820MOL0     H 8238   2.289   7.096  10.715  0.5235 -1.9256 -1.5109
  820MOL0     H 8239   3.055   7.175  10.539  1.8058 -1.4735  0.9666
  820MOL0     H 8240   3.250   7.234  10.418 -1.2856 -2.1681  1.8756
  821MOL0     O 8241   4.510  10.650   5.718  0.1313  0.5361  0.8286
  821MOL0     C 8242   4.559  10.749   5.663 -0.1414  0.3443  0.1799
  821MOL0     O 8243   4.486  10.853   5.606 -0.8423  0.3725  0.2929
  821MOL0     C 8244   4.346  10.848   5.597 -0.9445  0.1991  0.0622
  821MOL0     C 8245   4.263  10.809   5.701  0.9203 -0.7896 -0.7616
  821MOL0     C 8246   4.126  10.825   5.698 -0.6010  0.2153  0.1303
  821MOL0     C 8247   4.064  10.885   5.591 -1.0862 -0.6647  0.2643
  821MOL0     O 8248   3.927  10.909   5.579  0.0849 -0.2302  0.3491
  821MOL0     C 8249   3.843  10.814   5.642 -0.2182 -0.0749 -1.0546
  821MOL0     C 8250   3.700  10.831   5.578  0.6649  0.4015 -0.1656
  821MOL0     C 8251   3.589  10.784   5.670  0.0964 -0.4356 -0.7223
  821MOL0     C 8252   3.450  10.768   5.593 -0.4148  0.1009  0.6337
  821MOL0     C 8253   3.337  10.727   5.695 -0.4805  0.3465  0.5356
  821MOL0     C 8254   3.199  10.692   5.633 -0.7236  0.0214 -0.4844
  821MOL0     C 8255   3.088  10.639   5.725  0.1136  0.3888  0.1352
  821MOL0     C 8256   3.147  10.506   5.789 -0.1645  0.1317  0.4208
  821MOL0     N 8257   3.040  10.443   5.868  0.4190  0.1386 -0.6165
  821MOL0     C 8258   3.066  10.375   5.985  0.0482  0.7484 -0.0843
  821MOL0     C 8259   2.960  10.294   6.002  0.0669 -0.1840 -0.3626
  821MOL0     C 8260   2.941  10.198   6.116 -0.8313 -0.3495 -0.5910
  821MOL0     C 8261   2.829  10.233   6.219 -0.5967  0.5175  0.8601
  821MOL0     C 8262   2.692  10.173   6.177 -0.3274 -0.3190  0.4682
  821MOL0     C 8263   2.598  10.207   6.291 -0.1134 -0.3592  0.2622
  821MOL0     O 8264   2.467  10.165   6.252  0.4690 -0.1704  1.1903
  821MOL0     C 8265   2.376  10.262   6.232  1.1960 -0.6787  1.0234
  821MOL0     C 8266   2.400  10.403   6.208  0.0561 -1.2106  0.4546
  821MOL0     C 8267   2.294  10.489   6.171 -0.4671 -0.6924 -0.1704
  821MOL0     C 8268   2.161  10.447   6.182 -1.0109 -0.1775  0.0526
  821MOL0     C 8269   2.051  10.549   6.168 -0.8113  0.4770 -0.7111
  821MOL0     O 8270   1.930  10.526   6.228 -0.2235  0.4946  0.1581
  821MOL0     C 8271   1.817  10.602   6.224 -0.5474  0.5710 -0.5515
  821MOL0     C 8272   1.700  10.531   6.241 -0.1616  0.0834  0.2057
  821MOL0     C 8273   1.579  10.592   6.224  0.4932  0.1063  0.2131
  821MOL0     C 8274   1.556  10.729   6.209  0.6936  0.7614 -0.0308
  821MOL0     O 8275   1.431  10.792   6.207  0.4911  0.0905 -0.3551
  821MOL0     C 8276   1.328  10.718   6.276 -0.2585 -0.7533  0.8152
  821MOL0     C 8277   1.211  10.811   6.306 -0.1986  0.0819 -0.3764
  821MOL0     C 8278   1.151  10.883   6.184  0.5969 -0.3317  0.2066
  821MOL0     C 8279   1.023  10.951   6.220  0.5104  0.0161  1.0278
  821MOL0     C 8280   0.953  11.023   6.096 -0.3169  0.2273 -0.4117
  821MOL0     C 8281   1.017  11.162   6.065  0.0915 -0.1756  0.6737
  821MOL0     C 8282   0.962  11.239   5.945  0.7516  0.0698  0.6091
  821MOL0     C 8283   1.049  11.361   5.906 -0.1278 -1.5493  0.6704
  821MOL0    Cl 8284   1.088  11.470   6.053 -0.0275  0.2085  0.1422
  821MOL0     C 8285   1.673  10.803   6.188 -0.0276 -0.8413  0.3533
  821MOL0     C 8286   1.804  10.742   6.188  0.2411 -0.5917  0.0460
  821MOL0     O 8287   2.075  10.653   6.108  0.1950  0.4105 -0.4540
  821MOL0     C 8288   2.136  10.318   6.208 -0.3721 -0.1776 -0.0036
  821MOL0     C 8289   2.241  10.223   6.227  0.9848 -0.2779 -0.2260
  821MOL0     N 8290   2.871  10.318   5.899 -1.3540  0.4670 -0.6161
  821MOL0     N 8291   2.917  10.406   5.816 -0.5559 -0.0589 -0.1900
  821MOL0     C 8292   4.149  10.933   5.486 -0.1684 -0.2749  0.6879
  821MOL0     C 8293   4.290  10.908   5.487 -0.4969  0.2485 -0.0890
  821MOL0     C 8294   4.709  10.763   5.664  0.2646  0.2932 -0.2317
  821MOL0     C 8295   4.787  10.695   5.765  0.0247  0.0189  0.9129
  821MOL0     C 8296   4.922  10.710   5.765 -0.6777 -0.2083  0.0549
  821MOL0     C 8297   4.989  10.801   5.679 -0.1220 -0.6683  1.2773
  821MOL0     O 8298   5.124  10.824   5.669  0.2369  0.2811 -0.6720
  821MOL0     C 8299   5.207  10.755   5.762  0.3571 -0.6957 -0.1119
  821MOL0     C 8300   5.351  10.781   5.719 -0.2337  0.5342  0.0112
  821MOL0     C 8301   5.400  10.700   5.593  0.5336 -0.5669 -0.1166
  821MOL0     C 8302   5.382  10.536   5.616  0.3503  0.5732  0.4498
  821MOL0     C 8303   5.443  10.461   5.509  0.2518  0.1545 -0.3262
  821MOL0     C 8304   5.466  10.396   5.408  0.8425  0.0394 -0.2759
  821MOL0     C 8305   4.911  10.873   5.584  0.0863 -0.4031 -0.7245
  821MOL0     C 8306   4.777  10.852   5.572 -0.7224 -0.2066 -0.6097
  821MOL0     H 8307   4.294  10.756   5.790  1.6480  1.5540  0.4738
  821MOL0     H 8308   4.070  10.797   5.787  1.6263  0.9327  1.8620
  821MOL0     H 8309   3.849  10.828   5.751  0.2584  1.5931 -1.2635
  821MOL0     H 8310   3.887  10.718   5.616  1.1059  0.3916 -0.5926
  821MOL0     H 8311   3.703  10.764   5.492  1.4459  1.1952 -0.7800
  821MOL0     H 8312   3.683  10.935   5.548  0.2404  0.2412 -0.4840
  821MOL0     H 8313   3.589  10.843   5.762 -1.0162 -3.2678  1.2371
  821MOL0     H 8314   3.622  10.683   5.694  0.2985  0.0404  1.2138
  821MOL0     H 8315   3.437  10.865   5.546  1.6257 -0.1644 -0.6408
  821MOL0     H 8316   3.463  10.704   5.505  1.8802 -1.2086  1.8218
  821MOL0     H 8317   3.314  10.807   5.766 -0.8325  1.6868 -1.0292
  821MOL0     H 8318   3.384  10.642   5.746 -0.2098  1.3039  1.9400
  821MOL0     H 8319   3.218  10.616   5.555 -2.2528  0.0302 -0.8854
  821MOL0     H 8320   3.165  10.777   5.573  0.6746 -0.9648 -2.8341
  821MOL0     H 8321   3.057  10.713   5.800  0.7925 -0.6949  1.5282
  821MOL0     H 8322   2.995  10.624   5.669 -0.2914 -0.5662  1.0204
  821MOL0     H 8323   3.233  10.526   5.853  1.6798 -2.2055 -1.1646
  821MOL0     H 8324   3.182  10.432   5.717  1.9384  1.6255 -0.1819
  821MOL0     H 8325   3.150  10.396   6.051  0.7567  1.0521 -1.0676
  821MOL0     H 8326   3.040  10.209   6.160  1.0583  2.0440 -4.8083
  821MOL0     H 8327   2.935  10.099   6.068 -3.4132  0.9496 -3.2913
  821MOL0     H 8328   2.823  10.341   6.231 -0.2206  0.3953  2.3139
  821MOL0     H 8329   2.855  10.188   6.315  0.6535 -3.1030 -0.9866
  821MOL0     H 8330   2.649  10.206   6.082  0.3884  0.2000  0.3118
  821MOL0     H 8331   2.696  10.064   6.178 -0.2810 -0.3285 -0.3700
  821MOL0     H 8332   2.603  10.311   6.323  3.2322 -0.3139 -0.0542
  821MOL0     H 8333   2.624  10.143   6.377 -2.9840 -1.6889  0.2712
  821MOL0     H 8334   2.498  10.448   6.215 -0.8887  0.8531  1.3679
  821MOL0     H 8335   2.318  10.589   6.138 -1.2583 -0.5407 -0.3143
  821MOL0     H 8336   1.701  10.426   6.269 -0.3401 -0.5451 -1.9207
  821MOL0     H 8337   1.489  10.534   6.239  0.8511 -0.1294  1.5180
  821MOL0     H 8338   1.353  10.691   6.379 -1.1520 -0.3921  1.1364
  821MOL0     H 8339   1.286  10.637   6.216  0.2929  0.2529 -1.0000
  821MOL0     H 8340   1.243  10.882   6.382  3.7742 -1.4222 -0.3869
  821MOL0     H 8341   1.126  10.757   6.349 -0.7366  0.5274 -0.8671
  821MOL0     H 8342   1.114  10.817   6.104 -0.9284  0.4670  0.2110
  821MOL0     H 8343   1.219  10.958   6.143 -1.0007  1.6768  1.0711
  821MOL0     H 8344   0.956  10.871   6.256  0.8392  0.0433  1.7109
  821MOL0     H 8345   1.036  11.025   6.299 -0.0671  0.1749  0.9784
  821MOL0     H 8346   0.851  11.061   6.103 -0.2464  0.5295 -1.0010
  821MOL0     H 8347   0.957  10.958   6.008 -0.2283 -0.4162  0.0628
  821MOL0     H 8348   1.123  11.144   6.045  0.0462  1.2732 -1.1281
  821MOL0     H 8349   1.011  11.217   6.159 -2.6365  2.8369 -1.0396
  821MOL0     H 8350   0.957  11.162   5.867  1.6639  0.0004  0.6140
  821MOL0     H 8351   0.860  11.276   5.961  0.6081  1.4187 -2.7136
  821MOL0     H 8352   1.005  11.411   5.820  0.2437 -0.7966  0.9042
  821MOL0     H 8353   1.146  11.325   5.871  0.9592  0.8356  1.0152
  821MOL0     H 8354   1.671  10.910   6.168  3.9027 -0.6444  0.1106
  821MOL0     H 8355   1.896  10.798   6.173  0.7980 -1.4320  0.2379
  821MOL0     H 8356   2.030  10.291   6.209 -0.3836 -0.5260 -2.7435
  821MOL0     H 8357   2.217  10.119   6.246  1.1271 -0.7378 -2.3396
  821MOL0     H 8358   4.104  10.986   5.402  1.9992 -1.3498 -1.2718
  821MOL0     H 8359   4.356  10.950   5.412  0.3994  2.4579  1.8165
  821MOL0     H 8360   4.737  10.626   5.833  1.0379 -1.3374  0.3099
  821MOL0     H 8361   4.990  10.671   5.841  1.0688  3.0253  0.3400
  821MOL0     H 8362   5.187  10.647   5.760  2.2922 -1.1247  0.8389
  821MOL0     H 8363   5.205  10.783   5.867  2.0865  2.7500 -0.8400
  821MOL0     H 8364   5.368  10.888   5.707  1.0952  0.1229 -2.5707
  821MOL0     H 8365   5.421  10.747   5.796  3.5571  1.1946 -2.8320
  821MOL0     H 8366   5.504  10.725   5.571 -0.3372  1.4633 -2.3211
  821MOL0     H 8367   5.347  10.734   5.504  0.2435 -0.0602  0.2496
  821MOL0     H 8368   5.423  10.503   5.712 -0.0973 -1.1588  0.0899
  821MOL0     H 8369   5.277  10.504   5.615 -0.0527  1.8397 -1.2944
  821MOL0     H 8370   5.502  10.341   5.323  1.9852  2.6944 -1.6224
  821MOL0     H 8371   4.961  10.943   5.517  3.6950 -3.2301 -1.3228
  821MOL0     H 8372   4.720  10.907   5.499  0.3106 -0.2073 -1.4370
  822MOL0     O 8373   1.563   4.280   6.379  0.3100 -0.0151  0.3453
  822MOL0     C 8374   1.622   4.303   6.271  0.2293 -0.4374  0.4350
  822MOL0     O 8375   1.581   4.398   6.182  0.2604  0.8242  0.2629
  822MOL0     C 8376   1.498   4.501   6.210 -0.7442  0.4331 -0.2190
  822MOL0     C 8377   1.473   4.554   6.338  0.3105  0.4221  1.0039
  822MOL0     C 8378   1.385   4.669   6.360  0.0647 -0.3941 -0.1827
  822MOL0     C 8379   1.319   4.723   6.256 -0.2681  0.1042 -0.0940
  822MOL0     O 8380   1.241   4.832   6.280 -0.3031 -0.1989  0.0754
  822MOL0     C 8381   1.103   4.814   6.262  1.0504 -0.3357 -0.2129
  822MOL0     C 8382   1.035   4.755   6.394  0.5740  0.8942  0.6830
  822MOL0     C 8383   0.885   4.773   6.393 -0.6504  0.0299  0.1670
  822MOL0     C 8384   0.808   4.743   6.264  0.3529 -0.0072  1.2884
  822MOL0     C 8385   0.662   4.720   6.257 -0.6384  0.3657 -0.6721
  822MOL0     C 8386   0.595   4.857   6.275  0.4142  0.7825 -0.4305
  822MOL0     C 8387   0.446   4.855   6.308  0.5689 -0.0850 -0.0155
  822MOL0     C 8388   0.384   4.977   6.359  0.8493 -0.3374  0.1096
  822MOL0     N 8389   0.244   4.955   6.397 -0.7049 -0.8829 -0.6993
  822MOL0     C 8390   0.169   5.054   6.460  0.5609 -0.5812  0.7550
  822MOL0     C 8391   0.054   5.000   6.488 -0.7761 -0.3914  0.2990
  822MOL0     C 8392  -0.062   5.070   6.563 -0.2707 -0.3950  1.0741
  822MOL0     C 8393  -0.057   5.040   6.716  0.6484 -0.5731  0.0106
  822MOL0     C 8394  -0.141   5.146   6.786  0.0435 -0.3870 -0.1917
  822MOL0     C 8395  -0.284   5.132   6.769  0.2730 -0.1312 -0.4592
  822MOL0     O 8396  -0.332   5.023   6.845 -0.1310 -0.0334  0.9046
  822MOL0     C 8397  -0.435   4.951   6.794 -0.0899  0.0262  0.0335
  822MOL0     C 8398  -0.564   5.006   6.789  0.7665 -0.0792  0.1633
  822MOL0     C 8399  -0.676   4.933   6.747  0.3067 -0.6899  0.1578
  822MOL0     C 8400  -0.665   4.808   6.709 -0.0950  0.0757  0.1288
  822MOL0     C 8401  -0.784   4.730   6.675 -0.0316 -0.0952 -0.3378
  822MOL0     O 8402  -0.778   4.593   6.679  0.9716  0.4218  0.1103
  822MOL0     C 8403  -0.897   4.527   6.676  0.2925  0.0496  0.3237
  822MOL0     C 8404  -0.958   4.502   6.552 -0.0332  0.4493 -0.5714
  822MOL0     C 8405  -1.080   4.436   6.561  0.1302  0.0935  0.4392
  822MOL0     C 8406  -1.142   4.398   6.672 -0.0191  0.0777 -0.2707
  822MOL0     O 8407  -1.262   4.327   6.675 -0.2549  0.0643 -0.1778
  822MOL0     C 8408  -1.265   4.221   6.764  0.3538 -0.0742 -0.5919
  822MOL0     C 8409  -1.361   4.115   6.705 -0.1317 -0.2608  0.6740
  822MOL0     C 8410  -1.510   4.160   6.706 -0.0118  0.4005 -0.1886
  822MOL0     C 8411  -1.579   4.046   6.625 -0.4673 -0.1638 -0.0956
  822MOL0     C 8412  -1.738   4.052   6.636  0.1535 -0.7925  0.2859
  822MOL0     C 8413  -1.802   3.964   6.523  0.9810 -0.7467  0.3943
  822MOL0     C 8414  -1.954   3.991   6.515  0.2848 -0.4498 -0.4247
  822MOL0     C 8415  -2.028   3.885   6.433  0.2362  0.0821 -0.1060
  822MOL0    Cl 8416  -2.207   3.913   6.402 -0.0638  0.0544 -0.5567
  822MOL0     C 8417  -1.073   4.428   6.795 -0.6920  1.3119  0.9843
  822MOL0     C 8418  -0.950   4.490   6.797  0.4107 -0.0389  0.1551
  822MOL0     O 8419  -0.883   4.802   6.675 -0.3771  0.1725 -0.7612
  822MOL0     C 8420  -0.531   4.760   6.697  0.4987  0.2950  0.3771
  822MOL0     C 8421  -0.417   4.823   6.745 -0.4649 -0.1309  0.0815
  822MOL0     N 8422   0.053   4.880   6.429 -0.2373 -0.0027  0.0334
  822MOL0     N 8423   0.167   4.846   6.378  0.1167 -0.4042  0.5582
  822MOL0     C 8424   1.341   4.671   6.126 -0.3159  0.1348  0.8307
  822MOL0     C 8425   1.426   4.564   6.107 -0.7192  0.7255  0.2549
  822MOL0     C 8426   1.733   4.214   6.248  0.0822 -0.7350  0.7343
  822MOL0     C 8427   1.814   4.169   6.354  0.5639  0.8974  0.0555
  822MOL0     C 8428   1.938   4.107   6.328  0.6031 -0.1187 -0.4327
  822MOL0     C 8429   1.985   4.082   6.195  0.4017  0.1410 -0.3672
  822MOL0     O 8430   2.105   4.028   6.157  0.4495  0.5702 -0.2019
  822MOL0     C 8431   2.171   3.962   6.273 -0.3575  0.7893  0.7362
  822MOL0     C 8432   2.274   3.860   6.211 -0.0496  0.0176  0.5470
  822MOL0     C 8433   2.407   3.923   6.169 -0.1130  0.6083  0.1430
  822MOL0     C 8434   2.501   3.826   6.100  0.3350  0.4601  0.1660
  822MOL0     C 8435   2.475   3.810   5.956  0.0415  0.7779  0.5482
  822MOL0     C 8436   2.451   3.801   5.840 -0.0884  0.2552 -0.0352
  822MOL0     C 8437   1.893   4.115   6.095 -0.0281 -0.8079 -0.3058
  822MOL0     C 8438   1.772   4.193   6.116  0.1359  0.3063  0.2918
  822MOL0     H 8439   1.529   4.515   6.422 -1.2160 -1.6686  1.1288
  822MOL0     H 8440   1.364   4.726   6.450  1.0892  2.7701 -1.7883
  822MOL0     H 8441   1.090   4.756   6.170  0.2484  0.3116 -0.5162
  822MOL0     H 8442   1.051   4.907   6.236  2.5631  0.6835  0.2621
  822MOL0     H 8443   1.082   4.801   6.481 -1.1748  1.3872  1.4138
  822MOL0     H 8444   1.055   4.647   6.403  1.3834  1.1050  1.6571
  822MOL0     H 8445   0.860   4.873   6.429 -1.0644  0.0850 -0.2612
  822MOL0     H 8446   0.847   4.713   6.476 -1.9161  0.3793 -0.1349
  822MOL0     H 8447   0.841   4.817   6.191  3.7876 -1.0361  1.6300
  822MOL0     H 8448   0.856   4.648   6.237  0.4886  0.0941  1.1751
  822MOL0     H 8449   0.638   4.655   6.341 -2.8707  0.6296 -1.0607
  822MOL0     H 8450   0.638   4.686   6.156  0.8228  1.3436 -1.3927
  822MOL0     H 8451   0.609   4.923   6.189  4.4947  0.8863  0.0750
  822MOL0     H 8452   0.637   4.914   6.359  0.9198  0.3582 -0.3932
  822MOL0     H 8453   0.408   4.824   6.210  1.9197 -1.1428 -0.2451
  822MOL0     H 8454   0.442   4.772   6.378 -3.5842  1.3903  1.7864
  822MOL0     H 8455   0.383   5.057   6.285 -3.9855  2.4782  2.6469
  822MOL0     H 8456   0.444   5.013   6.443 -1.1110  1.8214  0.6719
  822MOL0     H 8457   0.198   5.157   6.480 -0.1809 -0.1236 -0.4402
  822MOL0     H 8458  -0.157   5.033   6.523  0.0649  0.5489 -0.6882
  822MOL0     H 8459  -0.070   5.176   6.540 -0.4577 -0.8129 -0.9931
  822MOL0     H 8460   0.041   5.035   6.764 -0.0070  1.3740  1.7066
  822MOL0     H 8461  -0.098   4.940   6.725 -0.7904 -0.0386 -0.3383
  822MOL0     H 8462  -0.115   5.145   6.893 -0.5001  0.6187 -0.0292
  822MOL0     H 8463  -0.112   5.246   6.752 -0.7834  0.6054  1.8164
  822MOL0     H 8464  -0.311   5.126   6.663  0.4326  0.1616 -0.5168
  822MOL0     H 8465  -0.324   5.226   6.808 -1.6358 -1.1732  0.2239
  822MOL0     H 8466  -0.579   5.106   6.830 -0.2590  0.3743 -1.2530
  822MOL0     H 8467  -0.775   4.977   6.755  0.1646 -0.4259 -2.3061
  822MOL0     H 8468  -0.906   4.525   6.459 -2.2892  1.3845 -1.6971
  822MOL0     H 8469  -1.123   4.425   6.461 -2.0844 -1.2573  1.4585
  822MOL0     H 8470  -1.291   4.242   6.868  1.7630  0.3217 -0.3003
  822MOL0     H 8471  -1.164   4.179   6.774 -0.1002 -0.7877  2.0658
  822MOL0     H 8472  -1.348   4.019   6.755 -0.5716  0.2800  1.8669
  822MOL0     H 8473  -1.327   4.099   6.602 -1.5048  2.2155 -0.2449
  822MOL0     H 8474  -1.537   4.254   6.657 -2.2719 -1.0027 -1.8274
  822MOL0     H 8475  -1.550   4.144   6.806  2.2308  1.7926  0.9989
  822MOL0     H 8476  -1.540   4.054   6.523  2.2153  1.8624  0.9641
  822MOL0     H 8477  -1.544   3.952   6.669  0.6190  0.7295  1.0121
  822MOL0     H 8478  -1.770   4.153   6.608 -1.6919 -1.3789  0.1497
  822MOL0     H 8479  -1.788   4.028   6.730 -2.8621  0.8639 -0.7189
  822MOL0     H 8480  -1.789   3.860   6.554  1.2799 -0.8602 -0.1014
  822MOL0     H 8481  -1.755   3.979   6.425  0.1363 -0.5791  0.0020
  822MOL0     H 8482  -2.008   3.981   6.609  0.1185  2.0263 -0.1837
  822MOL0     H 8483  -1.972   4.095   6.484 -1.3166 -1.1068 -1.8835
  822MOL0     H 8484  -2.009   3.783   6.469  2.5793 -0.6839 -3.0332
  822MOL0     H 8485  -1.978   3.894   6.336  1.4240  0.9499  0.5489
  822MOL0     H 8486  -1.114   4.395   6.890 -1.9542 -0.3486 -0.0889
  822MOL0     H 8487  -0.894   4.515   6.887 -0.6531 -0.1008  0.8591
  822MOL0     H 8488  -0.515   4.660   6.658 -1.1229  0.7183 -1.5526
  822MOL0     H 8489  -0.321   4.772   6.741  1.0613  2.6579 -1.0913
  822MOL0     H 8490   1.298   4.721   6.040 -3.0866 -0.5440  1.7270
  822MOL0     H 8491   1.460   4.524   6.012  2.1850  1.6005  0.8102
  822MOL0     H 8492   1.778   4.192   6.453 -1.0879 -2.1716  0.3067
  822MOL0     H 8493   2.001   4.089   6.414  1.3594  1.4239 -0.6316
  822MOL0     H 8494   2.094   3.907   6.328 -0.7821  0.8200  0.1703
  822MOL0     H 8495   2.221   4.038   6.334 -2.9688  2.4140  1.0195
  822MOL0     H 8496   2.288   3.791   6.295 -1.4822  0.4737  1.1903
  822MOL0     H 8497   2.217   3.807   6.133  1.4386  0.0422 -0.6068
  822MOL0     H 8498   2.449   3.945   6.267 -0.8441  2.6910  0.0345
  822MOL0     H 8499   2.388   4.017   6.115 -1.1613 -1.1160 -2.7062
  822MOL0     H 8500   2.600   3.871   6.116 -0.4926  2.2160  0.6119
  822MOL0     H 8501   2.479   3.730   6.147 -6.6037  1.3913 -0.2264
  822MOL0     H 8502   2.438   3.804   5.733  0.5263 -0.7203 -0.1483
  822MOL0     H 8503   1.926   4.089   5.995  2.3332  0.7154  0.0025
  822MOL0     H 8504   1.708   4.222   6.033 -2.0815  1.8257  2.3901
  823MOL0     O 8505   7.600   2.179   3.812 -0.2926 -0.1176  0.0322
  823MOL0     C 8506   7.640   2.136   3.921 -1.1367  0.1357 -0.2026
  823MOL0     O 8507   7.587   2.033   3.988  0.1361  0.0383 -0.5299
  823MOL0     C 8508   7.467   1.978   3.941 -0.3185  0.4971  0.5155
  823MOL0     C 8509   7.448   1.918   3.818 -0.6416 -0.6783  0.5328
  823MOL0     C 8510   7.326   1.851   3.793  0.1106  0.0954  0.4325
  823MOL0     C 8511   7.218   1.855   3.879  0.2666 -0.5145 -0.5223
  823MOL0     O 8512   7.113   1.769   3.857 -0.3753  0.1169 -0.0707
  823MOL0     C 8513   7.086   1.728   3.719  0.1025  0.3107 -0.6380
  823MOL0     C 8514   6.955   1.664   3.700 -0.6908 -0.3988 -0.0328
  823MOL0     C 8515   6.847   1.767   3.729  0.4515  0.2072 -0.0710
  823MOL0     C 8516   6.714   1.695   3.722  0.7007 -0.7273  0.1651
  823MOL0     C 8517   6.596   1.775   3.799 -1.2252  0.4694  0.3910
  823MOL0     C 8518   6.565   1.904   3.736  0.0931 -0.1282 -0.3198
  823MOL0     C 8519   6.433   1.968   3.783 -0.0017 -0.8921  0.0155
  823MOL0     C 8520   6.418   2.108   3.707  0.1055  0.5622 -0.9697
  823MOL0     N 8521   6.353   2.091   3.576 -0.7198  0.6350 -0.1859
  823MOL0     C 8522   6.413   2.099   3.452 -0.9568  0.2682 -0.4680
  823MOL0     C 8523   6.341   2.022   3.367  0.6485  0.1569 -0.4801
  823MOL0     C 8524   6.355   1.989   3.230  0.4370 -0.3172 -0.6058
  823MOL0     C 8525   6.407   1.838   3.231  0.1063 -0.7470  0.0822
  823MOL0     C 8526   6.454   1.783   3.102 -0.1638  0.2122  0.3709
  823MOL0     C 8527   6.349   1.794   2.986 -0.3330  0.5012  0.2544
  823MOL0     O 8528   6.228   1.729   3.038 -0.2586  0.0782  0.2346
  823MOL0     C 8529   6.107   1.779   2.994  0.8618 -0.4434  0.2264
  823MOL0     C 8530   6.080   1.838   2.870  0.6363 -0.0947  0.1590
  823MOL0     C 8531   5.951   1.877   2.832 -0.7401  0.4789 -0.1939
  823MOL0     C 8532   5.846   1.859   2.925 -0.2219  0.7532  0.5373
  823MOL0     C 8533   5.706   1.894   2.896  0.0948 -0.5289  0.5760
  823MOL0     O 8534   5.669   1.952   2.774  0.2940 -0.0704  0.2280
  823MOL0     C 8535   5.542   1.999   2.766 -0.0426 -1.2607  0.3561
  823MOL0     C 8536   5.439   1.912   2.740 -0.0153  0.6576 -0.1591
  823MOL0     C 8537   5.304   1.959   2.735 -0.7034 -0.1313 -0.3467
  823MOL0     C 8538   5.274   2.095   2.754  0.8253  0.7298 -0.3417
  823MOL0     O 8539   5.143   2.144   2.751 -0.2129 -0.9080  0.0158
  823MOL0     C 8540   5.024   2.063   2.731  0.5009  0.8585 -0.5016
  823MOL0     C 8541   4.903   2.162   2.735  0.5875  0.4776  0.1347
  823MOL0     C 8542   4.755   2.110   2.711 -0.4668 -1.1889 -0.4602
  823MOL0     C 8543   4.654   2.228   2.726 -0.2674 -0.2869 -0.0251
  823MOL0     C 8544   4.513   2.195   2.745  0.1104  0.0047  0.4455
  823MOL0     C 8545   4.419   2.320   2.754 -0.7285 -0.0647 -0.1248
  823MOL0     C 8546   4.275   2.279   2.752  1.3168  0.0679 -0.1078
  823MOL0     C 8547   4.243   2.237   2.609  0.3411  0.5241 -0.8340
  823MOL0    Cl 8548   4.058   2.218   2.591  0.1453 -0.1089 -0.0208
  823MOL0     C 8549   5.379   2.181   2.777  0.2265  0.9132  0.2917
  823MOL0     C 8550   5.513   2.132   2.787 -0.0893 -0.0046  1.2087
  823MOL0     O 8551   5.629   1.881   2.988  0.1131 -0.4534 -0.1433
  823MOL0     C 8552   5.879   1.826   3.062  0.4336  0.7070  0.1492
  823MOL0     C 8553   6.003   1.773   3.087 -0.6133  0.3803  1.0764
  823MOL0     N 8554   6.231   1.980   3.434 -0.3009  0.4485 -0.4720
  823MOL0     N 8555   6.236   2.026   3.555 -0.1937  0.8570  0.2638
  823MOL0     C 8556   7.246   1.913   4.005 -0.1090  0.6595 -0.2292
  823MOL0     C 8557   7.364   1.970   4.033  0.0074  0.4204 -0.4250
  823MOL0     C 8558   7.754   2.199   3.992  0.7313  0.7281 -0.0501
  823MOL0     C 8559   7.800   2.319   3.955 -0.2045  0.6131  1.4887
  823MOL0     C 8560   7.917   2.374   4.003 -0.1717  0.1358  0.1498
  823MOL0     C 8561   7.994   2.307   4.110  0.6518 -0.1821  0.3626
  823MOL0     O 8562   8.108   2.359   4.154 -0.3185  0.7148  0.0197
  823MOL0     C 8563   8.146   2.344   4.290  1.0635 -0.0860  0.8764
  823MOL0     C 8564   8.249   2.454   4.336 -0.7451  0.9254  0.6740
  823MOL0     C 8565   8.332   2.526   4.221  0.7413 -0.1397  0.8941
  823MOL0     C 8566   8.253   2.641   4.161 -0.4736 -0.6680 -0.5872
  823MOL0     C 8567   8.292   2.667   4.017  0.0152 -0.7884 -0.8433
  823MOL0     C 8568   8.332   2.701   3.905  0.2541 -0.3461 -0.3114
  823MOL0     C 8569   7.950   2.181   4.146  0.0563 -0.4559 -0.0413
  823MOL0     C 8570   7.834   2.121   4.082  0.3075 -0.2640  0.4899
  823MOL0     H 8571   7.532   1.890   3.756 -1.8984 -1.8860 -0.6859
  823MOL0     H 8572   7.321   1.788   3.705  0.6891 -1.0056  1.1706
  823MOL0     H 8573   7.163   1.659   3.686  1.2144  0.5913  1.2275
  823MOL0     H 8574   7.091   1.810   3.646 -0.3462  0.5756 -0.3768
  823MOL0     H 8575   6.952   1.579   3.769  2.7527  1.4572  2.7216
  823MOL0     H 8576   6.935   1.625   3.600  0.2650  0.0462 -0.4119
  823MOL0     H 8577   6.855   1.851   3.659  3.5677  1.8011  1.9567
  823MOL0     H 8578   6.856   1.806   3.831 -0.8991  1.4584 -0.3963
  823MOL0     H 8579   6.686   1.661   3.622 -0.4397 -0.9178  0.5340
  823MOL0     H 8580   6.718   1.603   3.781 -2.4294 -2.1727 -1.6120
  823MOL0     H 8581   6.637   1.793   3.899  2.7981  0.2925 -1.0150
  823MOL0     H 8582   6.499   1.724   3.797 -0.8140 -0.3256  0.2225
  823MOL0     H 8583   6.565   1.873   3.631 -2.1110 -1.1597 -0.0780
  823MOL0     H 8584   6.654   1.962   3.762  0.2570 -1.2967  2.0003
  823MOL0     H 8585   6.341   1.910   3.777  0.4337 -1.5628 -0.3071
  823MOL0     H 8586   6.454   1.990   3.888  0.2127 -1.8675  0.1845
  823MOL0     H 8587   6.518   2.151   3.694  2.8699 -4.7056  0.0991
  823MOL0     H 8588   6.356   2.173   3.768  3.7893  1.3582  2.3341
  823MOL0     H 8589   6.496   2.163   3.427 -0.1085 -0.7001 -0.1876
  823MOL0     H 8590   6.438   2.043   3.184 -0.9702  1.5758 -0.9979
  823MOL0     H 8591   6.259   2.003   3.181 -0.8614 -1.2978  1.5064
  823MOL0     H 8592   6.331   1.779   3.284 -0.2375 -0.1502  0.2635
  823MOL0     H 8593   6.502   1.832   3.285 -0.3648 -3.2388  0.7970
  823MOL0     H 8594   6.543   1.837   3.070 -0.4825  0.2810 -0.4458
  823MOL0     H 8595   6.482   1.677   3.102  0.1751  0.2031 -2.5580
  823MOL0     H 8596   6.379   1.740   2.895  1.3919  3.0345 -0.7988
  823MOL0     H 8597   6.324   1.898   2.964 -2.7473 -0.6695 -3.5804
  823MOL0     H 8598   6.163   1.849   2.800  0.5901  0.1654  0.1447
  823MOL0     H 8599   5.932   1.908   2.730 -2.2190  0.7902  0.1613
  823MOL0     H 8600   5.461   1.807   2.722 -1.1232  0.1644  1.1757
  823MOL0     H 8601   5.225   1.897   2.694 -1.4641 -0.0840  0.9941
  823MOL0     H 8602   5.009   1.980   2.801 -1.1023  0.0812 -1.7035
  823MOL0     H 8603   5.017   2.021   2.630 -2.5225  0.7484 -0.3130
  823MOL0     H 8604   4.918   2.246   2.667 -0.6102  0.6552  0.0702
  823MOL0     H 8605   4.893   2.210   2.833 -1.4165  1.5415 -0.5264
  823MOL0     H 8606   4.740   2.036   2.790 -3.0372  1.7211  2.0390
  823MOL0     H 8607   4.742   2.068   2.611  0.5677 -0.1766 -1.0481
  823MOL0     H 8608   4.684   2.284   2.815 -0.2866 -2.9969  1.8135
  823MOL0     H 8609   4.668   2.294   2.641 -1.3931 -0.1286 -0.0975
  823MOL0     H 8610   4.499   2.131   2.832 -0.6785 -0.8816 -0.3160
  823MOL0     H 8611   4.479   2.137   2.659  0.9824 -3.1317  2.0626
  823MOL0     H 8612   4.431   2.386   2.667 -3.7070 -1.0717 -1.4363
  823MOL0     H 8613   4.436   2.379   2.845 -0.0287 -0.5285  0.0478
  823MOL0     H 8614   4.260   2.194   2.820 -1.4045 -1.5030 -2.4403
  823MOL0     H 8615   4.209   2.361   2.780  0.7319 -0.4554  0.0668
  823MOL0     H 8616   4.288   2.138   2.594  0.7082 -0.1049  3.2364
  823MOL0     H 8617   4.295   2.308   2.543  0.9479 -1.4012 -2.5640
  823MOL0     H 8618   5.352   2.286   2.788  0.6747  1.1085 -0.3845
  823MOL0     H 8619   5.595   2.189   2.829 -0.0046 -1.1072  2.6170
  823MOL0     H 8620   5.798   1.811   3.133 -0.8366  2.2230 -0.9041
  823MOL0     H 8621   6.033   1.719   3.176  1.3188  0.5323  0.5602
  823MOL0     H 8622   7.169   1.920   4.081  0.1335 -0.5121  0.1392
  823MOL0     H 8623   7.394   2.010   4.130 -2.7874 -0.9566  1.1619
  823MOL0     H 8624   7.754   2.386   3.883  2.2999 -0.0114 -0.8998
  823MOL0     H 8625   7.950   2.472   3.970  1.9487 -0.8618 -0.8659
  823MOL0     H 8626   8.196   2.247   4.302  0.8014 -0.2261  0.8417
  823MOL0     H 8627   8.065   2.335   4.364  1.6006 -3.2015  1.2269
  823MOL0     H 8628   8.191   2.524   4.397 -0.6111 -0.9478  3.0895
  823MOL0     H 8629   8.320   2.416   4.410  0.2840  2.4279  0.4949
  823MOL0     H 8630   8.352   2.448   4.147  0.8347  0.1996  0.5648
  823MOL0     H 8631   8.425   2.574   4.252  0.6564  1.1558 -0.7461
  823MOL0     H 8632   8.147   2.613   4.162 -0.7865  0.1893 -3.1097
  823MOL0     H 8633   8.276   2.729   4.222  0.1161  0.1358 -1.9439
  823MOL0     H 8634   8.367   2.723   3.806  0.1174  1.5927  0.0245
  823MOL0     H 8635   8.014   2.123   4.211  0.7329  0.8508  0.4999
  823MOL0     H 8636   7.806   2.021   4.114 -3.0504 -1.6465 -5.3413
  824MOL0     O 8637   6.665   4.339   6.879 -0.0891  0.1087  0.1358
  824MOL0     C 8638   6.705   4.358   6.763  0.1920 -0.0163 -0.1213
  824MOL0     O 8639   6.643   4.310   6.646 -0.1237  0.4312  0.2233
  824MOL0     C 8640   6.544   4.221   6.651  0.3249  0.3880 -1.0642
  824MOL0     C 8641   6.542   4.108   6.739 -0.2440 -0.3510 -0.1671
  824MOL0     C 8642   6.441   4.007   6.732  0.6408 -0.2881  0.2653
  824MOL0     C 8643   6.338   4.028   6.640  0.2552  0.3145  0.6281
  824MOL0     O 8644   6.228   3.944   6.632  0.6859 -0.2721  0.1602
  824MOL0     C 8645   6.091   4.001   6.627  0.0742 -0.0551 -0.6964
  824MOL0     C 8646   6.047   4.085   6.737 -0.1383  0.1913  0.0194
  824MOL0     C 8647   5.890   4.106   6.740 -0.6973  0.0966  0.5233
  824MOL0     C 8648   5.838   4.154   6.601  0.4603 -0.4437  0.4801
  824MOL0     C 8649   5.698   4.203   6.612 -0.8813  0.6390  0.0409
  824MOL0     C 8650   5.593   4.102   6.658 -0.3292 -0.6377  0.6135
  824MOL0     C 8651   5.460   4.172   6.690 -0.1006  0.5351  0.5615
  824MOL0     C 8652   5.373   4.195   6.565 -0.8717 -0.3192 -0.7733
  824MOL0     N 8653   5.342   4.073   6.484 -0.3788 -0.4875  0.4376
  824MOL0     C 8654   5.302   3.943   6.526  0.2907  0.1787  1.0720
  824MOL0     C 8655   5.272   3.880   6.404 -0.0160  0.1625  0.7581
  824MOL0     C 8656   5.212   3.743   6.383  0.2499  0.1598  0.3691
  824MOL0     C 8657   5.075   3.747   6.431  0.7001 -0.3814 -0.5145
  824MOL0     C 8658   5.015   3.613   6.411  1.3275 -0.0083  0.9503
  824MOL0     C 8659   4.858   3.610   6.400 -0.0972 -0.6648 -0.3279
  824MOL0     O 8660   4.818   3.719   6.315 -0.3737 -0.7126  0.5579
  824MOL0     C 8661   4.690   3.715   6.257 -0.7033  0.3656  0.0069
  824MOL0     C 8662   4.596   3.625   6.301  0.2912 -0.2105 -0.7302
  824MOL0     C 8663   4.467   3.621   6.252 -0.8297 -0.1435 -0.3555
  824MOL0     C 8664   4.432   3.697   6.143  0.6657 -0.1226 -0.5602
  824MOL0     C 8665   4.299   3.698   6.086 -0.1517 -0.2376  0.0563
  824MOL0     O 8666   4.280   3.768   5.981  0.4376  0.3967  0.3792
  824MOL0     C 8667   4.162   3.769   5.910  0.5439  0.0884  0.0431
  824MOL0     C 8668   4.168   3.781   5.773  0.0168 -0.0624  0.6244
  824MOL0     C 8669   4.059   3.796   5.682  0.7699 -0.0618  0.8465
  824MOL0     C 8670   3.934   3.808   5.737 -0.5352  0.4501 -0.3362
  824MOL0     O 8671   3.829   3.810   5.645  0.5598 -0.2386 -0.0754
  824MOL0     C 8672   3.690   3.786   5.690  0.3745  0.5666 -0.7108
  824MOL0     C 8673   3.602   3.752   5.570 -0.4421  0.3758 -0.7030
  824MOL0     C 8674   3.454   3.736   5.603  0.1687  0.5008 -0.0568
  824MOL0     C 8675   3.377   3.694   5.479 -0.1502 -0.1676  0.4208
  824MOL0     C 8676   3.223   3.691   5.496 -0.8127 -0.5510 -0.3013
  824MOL0     C 8677   3.192   3.572   5.589  0.0079  0.1170 -0.3174
  824MOL0     C 8678   3.038   3.566   5.619 -1.2130  0.2557  0.3659
  824MOL0     C 8679   2.953   3.535   5.490 -0.4226 -0.6549  0.3475
  824MOL0    Cl 8680   2.963   3.356   5.468  0.5362  0.2962  0.5048
  824MOL0     C 8681   3.921   3.805   5.882 -0.1395 -0.6027  0.0683
  824MOL0     C 8682   4.031   3.777   5.966 -0.1830 -0.5373  0.4899
  824MOL0     O 8683   4.211   3.620   6.139 -0.0781  0.0748  0.5350
  824MOL0     C 8684   4.535   3.778   6.087 -0.4501 -1.3154 -0.4612
  824MOL0     C 8685   4.660   3.800   6.144 -0.1753  0.0836 -0.2744
  824MOL0     N 8686   5.291   3.973   6.304 -1.2692  0.2143  0.7354
  824MOL0     N 8687   5.338   4.081   6.348 -0.0382  0.4025 -1.4379
  824MOL0     C 8688   6.336   4.138   6.559  0.2345  0.2944  0.7995
  824MOL0     C 8689   6.436   4.232   6.557 -0.2699  0.8143  0.0009
  824MOL0     C 8690   6.841   4.410   6.756  0.2112 -0.5021 -0.5600
  824MOL0     C 8691   6.895   4.480   6.865  0.5236  0.4262 -0.8731
  824MOL0     C 8692   7.021   4.535   6.850 -0.1547 -0.9529  0.6945
  824MOL0     C 8693   7.095   4.528   6.728 -0.2878 -0.3691  0.0297
  824MOL0     O 8694   7.219   4.587   6.715  0.2805  0.0436  0.8456
  824MOL0     C 8695   7.305   4.560   6.820  0.0102 -0.6990  0.0350
  824MOL0     C 8696   7.453   4.562   6.789  0.2761  0.6875 -0.1822
  824MOL0     C 8697   7.498   4.700   6.757 -1.2546 -0.4188  0.4503
  824MOL0     C 8698   7.647   4.723   6.781  0.4465  0.0883 -0.4652
  824MOL0     C 8699   7.688   4.726   6.925 -0.3639 -1.0965 -0.4498
  824MOL0     C 8700   7.727   4.734   7.037 -0.1413 -0.0018  0.2983
  824MOL0     C 8701   7.033   4.478   6.614  0.1197  0.1190  0.3650
  824MOL0     C 8702   6.904   4.424   6.629  0.6797 -0.5444  0.6036
  824MOL0     H 8703   6.622   4.111   6.812 -0.9066  3.3081  0.6356
  824MOL0     H 8704   6.439   3.924   6.801  0.2996  1.1039  1.9857
  824MOL0     H 8705   6.019   3.919   6.631  1.1062 -0.9378  0.7174
  824MOL0     H 8706   6.074   4.041   6.527 -0.8060 -1.7386 -1.2597
  824MOL0     H 8707   6.086   4.186   6.726  0.6190  0.0558  1.3230
  824MOL0     H 8708   6.079   4.042   6.833 -0.6044  3.1020  1.5905
  824MOL0     H 8709   5.863   4.181   6.815 -3.5706  1.1645 -1.4103
  824MOL0     H 8710   5.835   4.019   6.778  0.1670 -0.5814  0.2683
  824MOL0     H 8711   5.906   4.232   6.566  1.5438 -0.2901  2.7481
  824MOL0     H 8712   5.837   4.071   6.529 -2.4392  0.0858 -0.2530
  824MOL0     H 8713   5.682   4.258   6.519  0.5606 -0.8576 -1.1425
  824MOL0     H 8714   5.686   4.278   6.691  2.9224 -0.4451  1.8742
  824MOL0     H 8715   5.627   4.058   6.752 -0.8595  0.9016  1.5707
  824MOL0     H 8716   5.583   4.025   6.581  2.8360 -2.6446  1.9935
  824MOL0     H 8717   5.414   4.107   6.765 -2.4573  2.3963  0.8532
  824MOL0     H 8718   5.481   4.266   6.741 -1.8000  1.1542  0.1673
  824MOL0     H 8719   5.413   4.277   6.504 -2.1597 -0.6677 -2.1375
  824MOL0     H 8720   5.277   4.236   6.597 -1.0781 -1.0550 -0.4513
  824MOL0     H 8721   5.288   3.907   6.627 -3.6880  2.4553  1.5369
  824MOL0     H 8722   5.264   3.673   6.449  2.5547 -1.9211 -3.2502
  824MOL0     H 8723   5.229   3.691   6.288 -0.5710 -2.0512  1.3598
  824MOL0     H 8724   5.017   3.824   6.378 -1.1750 -2.1137 -1.0966
  824MOL0     H 8725   5.060   3.780   6.535 -1.5313 -0.1630 -0.8476
  824MOL0     H 8726   5.053   3.571   6.318 -0.8101  1.9373 -0.9312
  824MOL0     H 8727   5.037   3.548   6.496  0.1603 -4.0078 -1.5586
  824MOL0     H 8728   4.814   3.615   6.500 -0.5376 -0.8995 -0.5085
  824MOL0     H 8729   4.831   3.511   6.362  3.1640 -0.7910 -2.7347
  824MOL0     H 8730   4.605   3.551   6.380  2.8230 -0.5876 -1.2916
  824MOL0     H 8731   4.389   3.562   6.299 -1.0013 -0.4285 -0.9864
  824MOL0     H 8732   4.268   3.792   5.732 -0.4636  1.2396 -0.2832
  824MOL0     H 8733   4.078   3.795   5.575 -0.4171 -0.3017  0.6246
  824MOL0     H 8734   3.660   3.875   5.746  1.3522  0.6878 -0.3596
  824MOL0     H 8735   3.684   3.707   5.766  0.6081  2.9480  1.9611
  824MOL0     H 8736   3.645   3.661   5.527 -0.2123  1.1028 -2.0657
  824MOL0     H 8737   3.610   3.831   5.495 -1.1403  0.6171 -0.5322
  824MOL0     H 8738   3.427   3.837   5.636  3.0725  1.0255  1.0039
  824MOL0     H 8739   3.444   3.671   5.691  0.5147  2.4489  1.4991
  824MOL0     H 8740   3.399   3.765   5.399  0.5265  3.9358  3.9033
  824MOL0     H 8741   3.404   3.595   5.441 -2.9736 -0.6119 -0.7028
  824MOL0     H 8742   3.179   3.664   5.400 -0.4763  0.4527 -0.7456
  824MOL0     H 8743   3.180   3.781   5.542 -3.4363 -2.5136  1.4257
  824MOL0     H 8744   3.240   3.584   5.686  1.2445 -0.2651 -0.8661
  824MOL0     H 8745   3.211   3.476   5.541 -0.0736  0.4614 -1.0646
  824MOL0     H 8746   3.026   3.484   5.690  0.9162  1.0393  1.7019
  824MOL0     H 8747   3.014   3.660   5.668  0.3136 -0.0473  1.8032
  824MOL0     H 8748   2.980   3.597   5.404  2.3573 -0.9720  0.9016
  824MOL0     H 8749   2.849   3.562   5.511 -0.0372 -0.9229  2.8911
  824MOL0     H 8750   3.830   3.825   5.940  1.1764 -1.2464  2.5159
  824MOL0     H 8751   4.010   3.771   6.072 -2.8686  0.9649  0.1146
  824MOL0     H 8752   4.516   3.822   5.990 -0.6106 -1.2391 -0.3941
  824MOL0     H 8753   4.735   3.870   6.107  1.6024  1.6241  5.2226
  824MOL0     H 8754   6.256   4.149   6.486 -1.1815 -0.2897  2.2059
  824MOL0     H 8755   6.442   4.317   6.490  3.6785  0.3144 -0.5322
  824MOL0     H 8756   6.848   4.490   6.962  3.7169 -0.7950  0.9383
  824MOL0     H 8757   7.069   4.592   6.929 -0.6467 -0.8158  0.8967
  824MOL0     H 8758   7.284   4.462   6.864  2.2752 -0.6853  1.2728
  824MOL0     H 8759   7.285   4.636   6.896 -0.4949 -1.5433  0.7653
  824MOL0     H 8760   7.506   4.527   6.879  2.2294  2.0300 -0.7514
  824MOL0     H 8761   7.472   4.496   6.704 -0.2987  1.4173 -0.8864
  824MOL0     H 8762   7.433   4.773   6.808 -1.5859 -0.5371  0.2002
  824MOL0     H 8763   7.485   4.718   6.650 -1.9696 -0.6955  0.4858
  824MOL0     H 8764   7.709   4.645   6.737  0.2747 -0.6629  0.5917
  824MOL0     H 8765   7.686   4.812   6.730  2.9080 -0.2765  0.6533
  824MOL0     H 8766   7.763   4.730   7.138  1.5939 -1.2755 -0.3169
  824MOL0     H 8767   7.092   4.485   6.523 -0.1884  2.9593  0.2759
  824MOL0     H 8768   6.852   4.390   6.540 -0.0921  1.9574  0.0132
  825MOL0     O 8769  10.548   1.040   0.918 -0.0313 -1.0922 -0.1570
  825MOL0     C 8770  10.613   0.952   0.867 -0.2231  0.2846 -0.1417
  825MOL0     O 8771  10.576   0.868   0.756  0.0379  0.1235 -0.2932
  825MOL0     C 8772  10.449   0.865   0.717 -0.7156  0.3083  0.8217
  825MOL0     C 8773  10.443   0.843   0.577  0.1442  1.1456 -0.0288
  825MOL0     C 8774  10.319   0.834   0.515  0.4339 -0.0237  0.3784
  825MOL0     C 8775  10.201   0.847   0.588 -0.4321 -0.2277  0.7298
  825MOL0     O 8776  10.086   0.821   0.515  0.3557 -0.2077 -0.1883
  825MOL0     C 8777   9.957   0.858   0.563 -1.0653 -0.3303  0.8359
  825MOL0     C 8778   9.866   0.738   0.542 -0.3865  0.1245  0.0056
  825MOL0     C 8779   9.720   0.745   0.595 -0.3885 -0.0876 -0.5004
  825MOL0     C 8780   9.625   0.650   0.510 -0.3375  0.1649 -0.9079
  825MOL0     C 8781   9.483   0.647   0.575 -0.1928  0.2189 -0.5924
  825MOL0     C 8782   9.389   0.564   0.479  0.6879 -1.2160 -1.2434
  825MOL0     C 8783   9.248   0.559   0.537  0.9013  0.3141 -0.1115
  825MOL0     C 8784   9.155   0.458   0.459  0.0287  0.0876 -0.4448
  825MOL0     N 8785   9.144   0.494   0.316  0.0744 -0.4804  0.4328
  825MOL0     C 8786   9.218   0.439   0.218  0.4726  0.2587 -0.2548
  825MOL0     C 8787   9.183   0.503   0.104  0.4818  0.1610  0.4268
  825MOL0     C 8788   9.236   0.484  -0.035  0.9150  0.5863 -0.4108
  825MOL0     C 8789   9.222   0.337  -0.075  0.0739 -0.1505  0.1296
  825MOL0     C 8790   9.088   0.262  -0.039 -0.1337  0.3291  0.7764
  825MOL0     C 8791   8.961   0.339  -0.084 -0.0493  0.0530 -0.1642
  825MOL0     O 8792   8.854   0.244  -0.078  0.5691 -0.0807  0.2782
  825MOL0     C 8793   8.730   0.291  -0.082 -0.2901 -0.0670  0.6271
  825MOL0     C 8794   8.682   0.415  -0.131  0.7180  0.1770 -0.5432
  825MOL0     C 8795   8.550   0.446  -0.109 -0.3315 -0.0997  0.8311
  825MOL0     C 8796   8.460   0.362  -0.060  0.0810  0.1212 -0.9864
  825MOL0     C 8797   8.311   0.403  -0.051 -0.7025  0.0040 -0.6205
  825MOL0     O 8798   8.220   0.305  -0.082  0.2419  0.7210  0.0108
  825MOL0     C 8799   8.087   0.318  -0.104  0.8539 -0.5220 -0.2411
  825MOL0     C 8800   8.002   0.437  -0.095  0.0711  0.5069  0.5180
  825MOL0     C 8801   7.864   0.433  -0.138 -1.1035  0.4589 -0.2391
  825MOL0     C 8802   7.817   0.317  -0.195  0.5820  0.1638 -0.0163
  825MOL0     O 8803   7.684   0.316  -0.238 -0.4959 -0.1134 -0.2336
  825MOL0     C 8804   7.591   0.392  -0.156 -0.4705  0.3505  0.0773
  825MOL0     C 8805   7.466   0.306  -0.138 -1.1376 -0.4597 -0.0394
  825MOL0     C 8806   7.362   0.343  -0.026  0.4378 -0.1193 -0.1675
  825MOL0     C 8807   7.239   0.257  -0.057  0.3936 -0.7220 -0.7725
  825MOL0     C 8808   7.137   0.342  -0.143 -0.4464 -0.4749  0.9284
  825MOL0     C 8809   6.998   0.281  -0.131 -0.0370 -0.3987  0.2776
  825MOL0     C 8810   6.991   0.143  -0.201 -0.2335 -0.1180 -0.1173
  825MOL0     C 8811   6.873   0.061  -0.145  0.1729 -0.2303 -0.7964
  825MOL0    Cl 8812   6.717   0.161  -0.160  0.1920 -0.4670 -0.0428
  825MOL0     C 8813   7.897   0.200  -0.212 -0.1575 -0.1920 -0.7970
  825MOL0     C 8814   8.028   0.204  -0.160  0.0441  0.0110  0.0674
  825MOL0     O 8815   8.289   0.523  -0.049  0.3137  0.4236  0.6048
  825MOL0     C 8816   8.506   0.234  -0.019  0.5605  0.6442  0.2265
  825MOL0     C 8817   8.642   0.199  -0.028 -0.1105  0.5902 -0.0645
  825MOL0     N 8818   9.089   0.599   0.139 -0.2905 -0.5203 -0.1975
  825MOL0     N 8819   9.068   0.594   0.266  0.4909 -0.4436  0.4911
  825MOL0     C 8820  10.209   0.871   0.730 -0.2177  0.6965 -0.6512
  825MOL0     C 8821  10.338   0.873   0.795 -0.1589 -0.9449  0.1918
  825MOL0     C 8822  10.749   0.926   0.921  0.0080 -0.8470  0.3708
  825MOL0     C 8823  10.834   0.839   0.856 -0.4975  0.0796 -0.1962
  825MOL0     C 8824  10.954   0.807   0.917 -0.4227 -0.1725  0.3955
  825MOL0     C 8825  10.985   0.869   1.035  0.5524  0.0472 -0.1097
  825MOL0     O 8826  11.091   0.827   1.110  0.0001 -0.3705 -0.3366
  825MOL0     C 8827  11.216   0.798   1.038  1.1678  0.2215 -0.4853
  825MOL0     C 8828  11.334   0.850   1.116  0.4687 -0.3513 -0.2403
  825MOL0     C 8829  11.462   0.829   1.043  0.3248 -0.0251 -0.0820
  825MOL0     C 8830  11.513   0.684   1.045  0.0211  0.8932  0.1917
  825MOL0     C 8831  11.624   0.659   0.950  0.3735 -0.0865 -0.6410
  825MOL0     C 8832  11.710   0.634   0.868  0.3554  0.0900 -0.4192
  825MOL0     C 8833  10.900   0.962   1.096 -0.9665 -0.4087 -0.4246
  825MOL0     C 8834  10.784   0.990   1.041  0.0399  0.4473 -0.0958
  825MOL0     H 8835  10.533   0.820   0.521 -2.2256  0.6247 -3.9534
  825MOL0     H 8836  10.323   0.809   0.410  0.4399 -2.2788  0.8724
  825MOL0     H 8837   9.909   0.946   0.518 -0.7250 -0.2258  0.6764
  825MOL0     H 8838   9.967   0.880   0.670  0.8793  2.0691  0.2375
  825MOL0     H 8839   9.920   0.657   0.591 -0.9792 -0.0906  0.3072
  825MOL0     H 8840   9.864   0.724   0.433 -1.4637 -1.5194  0.2099
  825MOL0     H 8841   9.686   0.849   0.588  0.1021  0.0683 -0.5723
  825MOL0     H 8842   9.725   0.721   0.701 -1.7198  1.1421 -0.1155
  825MOL0     H 8843   9.620   0.680   0.405 -0.0205 -1.6159 -1.4524
  825MOL0     H 8844   9.677   0.554   0.507  2.6298  1.3895  3.1673
  825MOL0     H 8845   9.437   0.746   0.579 -3.0869 -1.0228 -0.6268
  825MOL0     H 8846   9.479   0.596   0.671 -2.8607  0.8033 -0.3041
  825MOL0     H 8847   9.416   0.458   0.469  0.9550 -1.0252 -2.8452
  825MOL0     H 8848   9.385   0.616   0.383  0.9777  0.9424 -0.1516
  825MOL0     H 8849   9.266   0.528   0.641  0.7470  2.2063  0.5092
  825MOL0     H 8850   9.204   0.659   0.539 -2.1453 -0.8195 -2.5960
  825MOL0     H 8851   9.053   0.448   0.497  0.5645  0.9660  1.3187
  825MOL0     H 8852   9.191   0.354   0.463 -0.3458  0.0019  2.1530
  825MOL0     H 8853   9.290   0.359   0.224  1.0413  0.4173 -3.4739
  825MOL0     H 8854   9.342   0.505  -0.017  0.4905  0.4397  2.8125
  825MOL0     H 8855   9.180   0.551  -0.101 -3.1386  0.4744  2.5210
  825MOL0     H 8856   9.310   0.290  -0.030 -0.1019 -2.4990 -1.8132
  825MOL0     H 8857   9.243   0.329  -0.182 -2.2202  1.4623 -0.5177
  825MOL0     H 8858   9.092   0.174  -0.104 -1.3957  2.2985 -2.1574
  825MOL0     H 8859   9.087   0.229   0.065  1.6156  1.9583  1.3562
  825MOL0     H 8860   8.977   0.370  -0.188  1.7309  0.1372  0.1086
  825MOL0     H 8861   8.942   0.435  -0.035  2.8165  1.5353 -1.7057
  825MOL0     H 8862   8.742   0.493  -0.176 -0.3302  1.8605  0.8443
  825MOL0     H 8863   8.502   0.531  -0.157 -0.4831 -1.0169 -0.6948
  825MOL0     H 8864   8.040   0.535  -0.069 -0.0918  1.7541 -3.4273
  825MOL0     H 8865   7.807   0.525  -0.138 -1.2595  0.4262  2.0751
  825MOL0     H 8866   7.552   0.475  -0.215  2.5811  1.6445 -0.2844
  825MOL0     H 8867   7.631   0.409  -0.055 -1.5534 -1.2556  0.8294
  825MOL0     H 8868   7.506   0.207  -0.117  1.6030  0.1828 -1.6279
  825MOL0     H 8869   7.421   0.305  -0.238  0.8359 -1.3134 -0.9734
  825MOL0     H 8870   7.341   0.450  -0.036  1.0526  0.4824  3.4585
  825MOL0     H 8871   7.401   0.327   0.075  2.5535 -1.0587 -1.0653
  825MOL0     H 8872   7.266   0.165  -0.109  2.3576 -0.6282  0.0019
  825MOL0     H 8873   7.184   0.227   0.033  0.5249  0.5024 -0.2693
  825MOL0     H 8874   7.182   0.355  -0.241  0.1024 -0.7956  1.1344
  825MOL0     H 8875   7.122   0.439  -0.093 -2.4416 -0.7379  0.9314
  825MOL0     H 8876   6.916   0.343  -0.167 -0.1689 -0.5243  0.3603
  825MOL0     H 8877   6.976   0.285  -0.024 -1.9149  1.5515 -0.1308
  825MOL0     H 8878   6.973   0.149  -0.309 -2.6426  0.4517  0.2454
  825MOL0     H 8879   7.085   0.089  -0.187  0.6989  0.8707 -2.0664
  825MOL0     H 8880   6.887   0.019  -0.046  3.5581 -1.7616 -1.7893
  825MOL0     H 8881   6.858  -0.022  -0.215  3.1059 -1.4572 -0.0940
  825MOL0     H 8882   7.863   0.117  -0.272  1.3162 -0.3373 -1.4702
  825MOL0     H 8883   8.093   0.118  -0.169  1.0152  0.4362  2.3520
  825MOL0     H 8884   8.428   0.172   0.022 -0.7380  0.1778 -2.6613
  825MOL0     H 8885   8.685   0.102  -0.007  1.7508  1.1836 -0.9798
  825MOL0     H 8886  10.135   0.869   0.809  0.9378  1.2899  0.4782
  825MOL0     H 8887  10.359   0.885   0.901  2.2495  0.2700 -0.3481
  825MOL0     H 8888  10.815   0.821   0.751  2.8034  1.0495 -1.0660
  825MOL0     H 8889  11.017   0.733   0.869 -1.3066  0.7421 -2.3792
  825MOL0     H 8890  11.214   0.846   0.940 -1.6021  1.9621  0.2858
  825MOL0     H 8891  11.227   0.690   1.025  0.2821 -0.0037  0.4673
  825MOL0     H 8892  11.313   0.955   1.136  1.9199 -0.2643  1.0279
  825MOL0     H 8893  11.325   0.806   1.216 -0.5607  0.7583  0.1693
  825MOL0     H 8894  11.539   0.893   1.088 -0.4979  2.9570 -2.5037
  825MOL0     H 8895  11.453   0.858   0.937 -1.3548  2.4683  0.6411
  825MOL0     H 8896  11.547   0.668   1.148 -1.0121  3.2930  0.9780
  825MOL0     H 8897  11.434   0.611   1.025  0.5456  0.1119  0.9229
  825MOL0     H 8898  11.772   0.594   0.791  0.2939 -0.1799 -0.3303
  825MOL0     H 8899  10.926   1.001   1.194 -0.1061 -0.3633 -0.6602
  825MOL0     H 8900  10.715   1.052   1.096 -1.4968  0.3301 -1.8047
  826MOL0     O 8901   0.573   9.100   8.345 -0.4932 -0.2294  0.6652
  826MOL0     C 8902   0.623   9.092   8.457  0.8481  0.7383  0.0479
  826MOL0     O 8903   0.567   9.148   8.570  0.3116  0.0851  0.1070
  826MOL0     C 8904   0.431   9.144   8.593 -0.1820  0.0374  0.0516
  826MOL0     C 8905   0.392   9.199   8.720 -0.4204  0.0472 -0.4096
  826MOL0     C 8906   0.260   9.221   8.757 -0.6663  0.1627 -0.0663
  826MOL0     C 8907   0.162   9.199   8.664 -0.0756  0.0098  0.1714
  826MOL0     O 8908   0.036   9.230   8.705 -0.2772 -0.0483  0.7693
  826MOL0     C 8909  -0.051   9.265   8.602 -0.4511  0.1623  0.7359
  826MOL0     C 8910  -0.172   9.330   8.665  0.0187  0.1169  1.0714
  826MOL0     C 8911  -0.261   9.375   8.548  0.4849  0.1663  0.2370
  826MOL0     C 8912  -0.368   9.471   8.600 -0.3227 -0.7093  0.5022
  826MOL0     C 8913  -0.450   9.409   8.715  0.1250 -0.0547  0.4021
  826MOL0     C 8914  -0.584   9.485   8.706  0.1178  0.7275 -0.1933
  826MOL0     C 8915  -0.678   9.423   8.815 -0.4409  0.4845  0.1050
  826MOL0     C 8916  -0.815   9.494   8.825 -0.6689 -0.0621  0.6306
  826MOL0     N 8917  -0.907   9.446   8.719  0.2161 -0.1539  0.6048
  826MOL0     C 8918  -0.960   9.321   8.718 -0.1585  1.4335 -0.0221
  826MOL0     C 8919  -1.046   9.307   8.613 -0.1597  0.5637  0.6062
  826MOL0     C 8920  -1.130   9.190   8.583  0.3403  0.2580 -0.2294
  826MOL0     C 8921  -1.229   9.158   8.694  0.6346 -1.1155  0.2502
  826MOL0     C 8922  -1.195   9.055   8.800  0.7882  0.0808 -0.5038
  826MOL0     C 8923  -1.302   9.041   8.908 -0.3520  0.2825 -0.1142
  826MOL0     O 8924  -1.424   8.993   8.844 -0.5530  0.1143 -0.0766
  826MOL0     C 8925  -1.524   8.952   8.932 -0.4580  0.2613  0.5795
  826MOL0     C 8926  -1.623   8.871   8.879  0.0965 -0.6762  0.1114
  826MOL0     C 8927  -1.741   8.845   8.945  0.6518 -0.7742  0.5831
  826MOL0     C 8928  -1.767   8.892   9.076  0.3974  0.1022  0.5952
  826MOL0     C 8929  -1.890   8.875   9.133 -0.3803 -0.3113 -0.4192
  826MOL0     O 8930  -1.895   8.864   9.270  1.0242 -0.2465 -0.1849
  826MOL0     C 8931  -2.017   8.847   9.338  0.3121  0.3887  0.0541
  826MOL0     C 8932  -2.040   8.738   9.424 -0.5633  0.1057  0.5591
  826MOL0     C 8933  -2.158   8.720   9.477  0.6793  0.1469  0.8732
  826MOL0     C 8934  -2.274   8.805   9.458 -0.2619  0.8752  0.8147
  826MOL0     O 8935  -2.395   8.770   9.515 -0.1241 -0.9215  0.5563
  826MOL0     C 8936  -2.517   8.818   9.452 -0.6947 -0.2177  0.3256
  826MOL0     C 8937  -2.573   8.938   9.528  0.0879 -1.0118 -0.6446
  826MOL0     C 8938  -2.694   9.010   9.451 -0.1109 -0.3541  0.2779
  826MOL0     C 8939  -2.829   8.952   9.488  0.0697 -0.0577 -0.0628
  826MOL0     C 8940  -2.938   9.049   9.440  1.3676  0.5074 -0.7651
  826MOL0     C 8941  -3.079   8.985   9.463  0.0486 -0.2078  0.8018
  826MOL0     C 8942  -3.189   9.047   9.369  0.1457  0.1863 -0.7602
  826MOL0     C 8943  -3.324   8.989   9.414 -0.2571 -0.9467 -0.0523
  826MOL0    Cl 8944  -3.457   9.072   9.315 -0.1211 -0.0375  0.0508
  826MOL0     C 8945  -2.246   8.914   9.382 -0.5111  0.2136 -1.1220
  826MOL0     C 8946  -2.123   8.928   9.316 -0.4700 -0.0501 -0.9300
  826MOL0     O 8947  -1.988   8.856   9.060 -0.4635  1.0657 -0.0314
  826MOL0     C 8948  -1.663   8.968   9.134 -0.0073 -0.2989 -0.1960
  826MOL0     C 8949  -1.538   8.981   9.069  0.5317  0.5767  0.0897
  826MOL0     N 8950  -1.017   9.417   8.533  0.2950 -0.1151 -0.5545
  826MOL0     N 8951  -0.947   9.503   8.598  0.0014 -0.0308 -0.6119
  826MOL0     C 8952   0.199   9.144   8.534 -0.3178  0.4090  0.2427
  826MOL0     C 8953   0.331   9.105   8.499 -0.1402 -0.1469 -0.3530
  826MOL0     C 8954   0.750   9.015   8.472  0.4285  0.9207 -0.2250
  826MOL0     C 8955   0.806   8.954   8.365 -0.4708 -0.5869  0.0332
  826MOL0     C 8956   0.936   8.897   8.377 -0.1434 -0.0545  0.5438
  826MOL0     C 8957   0.999   8.885   8.498  0.2578 -0.1322  0.6060
  826MOL0     O 8958   1.129   8.833   8.501  0.3431  0.3720 -0.0556
  826MOL0     C 8959   1.199   8.847   8.629  0.4931  0.3031  0.7559
  826MOL0     C 8960   1.346   8.789   8.604 -0.3118 -0.0433  1.0389
  826MOL0     C 8961   1.356   8.641   8.583 -0.0437 -0.9693 -0.0742
  826MOL0     C 8962   1.501   8.590   8.545  0.3380  0.3488 -0.3852
  826MOL0     C 8963   1.540   8.450   8.573 -0.0579 -0.8281 -0.4249
  826MOL0     C 8964   1.572   8.340   8.589 -0.2518  0.7093 -0.0090
  826MOL0     C 8965   0.923   8.935   8.620  0.4854  0.4772  0.6570
  826MOL0     C 8966   0.808   9.005   8.597 -1.0247 -0.3191 -0.3206
  826MOL0     H 8967   0.469   9.221   8.793 -2.1912  0.2971  1.4819
  826MOL0     H 8968   0.242   9.255   8.859  1.4472  4.5755 -0.9391
  826MOL0     H 8969  -0.081   9.182   8.537  1.8176 -0.4147  0.3680
  826MOL0     H 8970  -0.011   9.336   8.529 -1.9635 -0.9430 -1.2852
  826MOL0     H 8971  -0.158   9.420   8.724 -2.3395  1.6564 -0.5258
  826MOL0     H 8972  -0.219   9.256   8.730 -1.0968  0.7267  0.9865
  826MOL0     H 8973  -0.309   9.290   8.498  1.6638  0.5985 -1.6993
  826MOL0     H 8974  -0.196   9.424   8.476  0.6450 -1.0349 -0.4623
  826MOL0     H 8975  -0.323   9.567   8.625  0.0605 -0.6405 -0.4286
  826MOL0     H 8976  -0.436   9.482   8.515 -1.2021  0.5524  1.3389
  826MOL0     H 8977  -0.411   9.432   8.814 -2.6293  2.3029  1.0731
  826MOL0     H 8978  -0.464   9.300   8.710 -0.7125  0.0119  1.1120
  826MOL0     H 8979  -0.638   9.469   8.612  0.9707 -2.5959 -0.2530
  826MOL0     H 8980  -0.570   9.592   8.726  1.7819  0.7946 -1.4983
  826MOL0     H 8981  -0.688   9.315   8.797  0.3891  0.0908  1.7765
  826MOL0     H 8982  -0.629   9.436   8.912  3.5804 -4.8777 -0.7359
  826MOL0     H 8983  -0.793   9.597   8.794  0.6196 -0.0103  1.6304
  826MOL0     H 8984  -0.852   9.480   8.927  5.7919 -2.7107  3.1276
  826MOL0     H 8985  -0.944   9.245   8.794  0.6519  4.4972  3.1593
  826MOL0     H 8986  -1.064   9.107   8.554 -2.3761 -1.8565 -0.8535
  826MOL0     H 8987  -1.193   9.218   8.498 -1.6064 -2.1500  0.3026
  826MOL0     H 8988  -1.317   9.124   8.640 -0.9509  2.6026  0.1967
  826MOL0     H 8989  -1.257   9.249   8.748  0.1166 -1.6934  0.9724
  826MOL0     H 8990  -1.187   8.962   8.742 -0.6540  0.6422 -1.6491
  826MOL0     H 8991  -1.102   9.079   8.853  0.7138  0.8883 -0.7290
  826MOL0     H 8992  -1.309   9.140   8.954 -0.7899  0.6064 -0.8655
  826MOL0     H 8993  -1.282   8.965   8.985 -1.0356  1.6461  1.4714
  826MOL0     H 8994  -1.609   8.824   8.782  1.2852 -0.2015  0.0363
  826MOL0     H 8995  -1.816   8.787   8.892  0.3626 -0.5409  0.7396
  826MOL0     H 8996  -1.956   8.669   9.425  1.3535  2.2037 -1.6551
  826MOL0     H 8997  -2.175   8.630   9.536 -1.6826 -0.8026 -1.0914
  826MOL0     H 8998  -2.591   8.737   9.460  1.0118 -1.7249  1.8876
  826MOL0     H 8999  -2.497   8.834   9.346  2.3189  1.3187  1.0270
  826MOL0     H 9000  -2.498   9.017   9.525 -2.7386  1.9840  1.0213
  826MOL0     H 9001  -2.598   8.911   9.631 -1.7896  0.2514 -0.7176
  826MOL0     H 9002  -2.669   8.996   9.346 -1.6957  0.3961 -0.2293
  826MOL0     H 9003  -2.689   9.117   9.475 -0.7026  0.3254 -2.3325
  826MOL0     H 9004  -2.829   8.846   9.459 -0.5722 -1.3433  3.9792
  826MOL0     H 9005  -2.834   8.957   9.597 -3.3270  1.9346 -0.1750
  826MOL0     H 9006  -2.918   9.077   9.336  3.8645  2.3565  0.1265
  826MOL0     H 9007  -2.942   9.143   9.496 -1.2585  0.0605 -0.0503
  826MOL0     H 9008  -3.104   8.990   9.569 -0.0879  1.1384  0.7274
  826MOL0     H 9009  -3.079   8.884   9.421 -2.1871  0.2781 -0.5434
  826MOL0     H 9010  -3.196   9.156   9.372  0.2010  0.2014 -1.1949
  826MOL0     H 9011  -3.170   9.019   9.265  2.0531 -0.3701 -0.3195
  826MOL0     H 9012  -3.332   9.023   9.517  1.4614  1.4943 -0.6234
  826MOL0     H 9013  -3.327   8.880   9.401 -2.4853 -1.2103  2.1170
  826MOL0     H 9014  -2.325   8.980   9.347  0.0276  0.6791 -1.4835
  826MOL0     H 9015  -2.108   9.019   9.260  1.4767 -0.5926 -1.3620
  826MOL0     H 9016  -1.686   9.008   9.232 -0.1658 -1.0456  0.0761
  826MOL0     H 9017  -1.458   9.030   9.124  1.2414 -0.2694 -0.1752
  826MOL0     H 9018   0.116   9.135   8.465 -0.7127 -1.0685  0.8719
  826MOL0     H 9019   0.352   9.067   8.399  1.4597 -0.2703  0.0072
  826MOL0     H 9020   0.761   8.962   8.266  0.8642  0.3699 -0.5402
  826MOL0     H 9021   0.997   8.858   8.296  3.4536  0.1286  2.9127
  826MOL0     H 9022   1.152   8.779   8.700  0.3664  0.4151  0.7779
  826MOL0     H 9023   1.213   8.950   8.660  0.0899 -0.0866  2.3142
  826MOL0     H 9024   1.377   8.831   8.508 -0.6140 -0.4254  0.7683
  826MOL0     H 9025   1.414   8.825   8.681 -0.4037  2.5171  0.0272
  826MOL0     H 9026   1.283   8.608   8.508  2.8880 -1.6417 -2.8012
  826MOL0     H 9027   1.330   8.588   8.676  1.7020 -1.6417  0.0629
  826MOL0     H 9028   1.505   8.599   8.436 -0.6568 -0.3229 -0.4849
  826MOL0     H 9029   1.579   8.656   8.585 -1.4757  1.0625  2.2270
  826MOL0     H 9030   1.584   8.233   8.583 -4.6335  0.0940 -3.8813
  826MOL0     H 9031   0.953   8.932   8.724 -1.6718  4.5522  1.6290
  826MOL0     H 9032   0.760   9.041   8.687 -2.7561 -2.2090 -0.4281
  827MOL0     O 9033   0.204   0.662   9.090 -0.4279  0.0416 -0.5696
  827MOL0     C 9034   0.210   0.553   9.047 -0.7792  0.7405  0.0212
  827MOL0     O 9035   0.107   0.479   8.988 -0.5259  0.4216  0.4281
  827MOL0     C 9036  -0.014   0.535   8.991 -0.3719 -0.2014  0.1342
  827MOL0     C 9037  -0.077   0.554   9.113  0.5916  0.0354  0.1471
  827MOL0     C 9038  -0.209   0.595   9.115  0.1183  0.2946  0.4430
  827MOL0     C 9039  -0.280   0.612   9.001  0.5872 -0.0112 -0.4457
  827MOL0     O 9040  -0.413   0.664   8.995 -0.4893  0.2803 -0.1496
  827MOL0     C 9041  -0.510   0.595   9.074  0.1633  0.2381 -0.2374
  827MOL0     C 9042  -0.653   0.617   9.019  0.1213 -0.2428 -0.4451
  827MOL0     C 9043  -0.659   0.640   8.870  0.2473  0.1358 -0.7709
  827MOL0     C 9044  -0.798   0.674   8.803  0.4000  0.5956  0.2030
  827MOL0     C 9045  -0.894   0.548   8.817  0.3523 -0.4101  0.4708
  827MOL0     C 9046  -0.994   0.540   8.711  0.4130 -0.3599  0.2691
  827MOL0     C 9047  -1.130   0.472   8.742  0.4784 -0.2107 -0.8092
  827MOL0     C 9048  -1.199   0.523   8.864 -0.0189  0.2195 -0.0239
  827MOL0     N 9049  -1.220   0.672   8.854  0.7790  0.8024 -0.1041
  827MOL0     C 9050  -1.349   0.712   8.845  0.5482 -0.5338 -0.7677
  827MOL0     C 9051  -1.344   0.842   8.870 -0.3745 -0.6907 -0.3326
  827MOL0     C 9052  -1.457   0.946   8.829 -0.5737  1.4873 -0.0706
  827MOL0     C 9053  -1.585   0.921   8.895 -0.0603 -0.1428 -0.0831
  827MOL0     C 9054  -1.687   1.033   8.887  0.1655  0.2644 -0.4818
  827MOL0     C 9055  -1.833   0.980   8.903  0.6045 -0.2699  0.5513
  827MOL0     O 9056  -1.867   0.888   8.795  0.1418  0.0940  0.2364
  827MOL0     C 9057  -1.997   0.834   8.805 -0.6156 -0.4452  0.3737
  827MOL0     C 9058  -2.014   0.738   8.703  0.1806  0.3436  0.3641
  827MOL0     C 9059  -2.138   0.669   8.694 -0.0310  0.3411  0.4569
  827MOL0     C 9060  -2.247   0.701   8.782 -0.2745 -0.4615  0.1068
  827MOL0     C 9061  -2.374   0.637   8.780 -0.3597  0.3739  0.2749
  827MOL0     O 9062  -2.466   0.693   8.861  0.5284  0.3313  0.4827
  827MOL0     C 9063  -2.600   0.644   8.859 -0.9087  0.5609  0.2746
  827MOL0     C 9064  -2.698   0.736   8.875 -0.3769 -0.2536 -0.1011
  827MOL0     C 9065  -2.832   0.700   8.869 -0.1409 -0.6170  0.0816
  827MOL0     C 9066  -2.869   0.565   8.845  0.3218 -0.3016 -0.4525
  827MOL0     O 9067  -3.000   0.520   8.829  0.5000 -0.1425  1.0787
  827MOL0     C 9068  -3.107   0.607   8.813  0.4533  0.2442  0.0206
  827MOL0     C 9069  -3.244   0.530   8.806 -0.0447 -0.4313  0.3919
  827MOL0     C 9070  -3.359   0.632   8.791  0.6513 -0.6465  0.0573
  827MOL0     C 9071  -3.480   0.550   8.760 -0.4198  0.3517  0.5486
  827MOL0     C 9072  -3.616   0.619   8.776  0.0725 -0.1732 -0.3062
  827MOL0     C 9073  -3.625   0.745   8.695  0.8248  0.2775  0.1255
  827MOL0     C 9074  -3.753   0.817   8.728 -0.2340 -0.3903  0.1810
  827MOL0     C 9075  -3.866   0.748   8.664  0.5094 -0.2210  0.4218
  827MOL0    Cl 9076  -4.015   0.834   8.711 -0.3267  0.0736  0.2797
  827MOL0     C 9077  -2.769   0.464   8.834  0.7321 -0.0631 -0.3790
  827MOL0     C 9078  -2.641   0.510   8.844 -0.0416  0.6211  0.9833
  827MOL0     O 9079  -2.395   0.550   8.691  0.0824  0.0021 -0.1853
  827MOL0     C 9080  -2.222   0.800   8.880  0.6429 -0.5816 -0.3431
  827MOL0     C 9081  -2.103   0.868   8.895  0.4998 -0.4139 -0.4468
  827MOL0     N 9082  -1.213   0.879   8.882 -0.4711  0.2039  0.1916
  827MOL0     N 9083  -1.135   0.775   8.883  0.2234  0.2396  0.2478
  827MOL0     C 9084  -0.216   0.586   8.881  0.2519  0.0572 -0.0734
  827MOL0     C 9085  -0.081   0.540   8.873  0.4898  0.1041  0.5726
  827MOL0     C 9086   0.339   0.487   9.061  0.4302  0.3180 -0.5681
  827MOL0     C 9087   0.375   0.411   8.957 -1.2369 -0.4364  0.0560
  827MOL0     C 9088   0.496   0.341   8.976 -0.3724  0.1661 -0.0428
  827MOL0     C 9089   0.565   0.338   9.100  0.8085  0.2689  0.5555
  827MOL0     O 9090   0.676   0.262   9.125 -0.0684 -0.3511 -0.5859
  827MOL0     C 9091   0.697   0.153   9.030 -0.4007 -0.5878 -0.2636
  827MOL0     C 9092   0.811   0.056   9.078 -0.3181  0.2179  0.6972
  827MOL0     C 9093   0.928   0.146   9.115  0.6116  0.7254 -0.1244
  827MOL0     C 9094   1.055   0.064   9.126  1.0100  0.0109 -0.3749
  827MOL0     C 9095   1.180   0.143   9.121  0.2559 -0.1243 -0.0677
  827MOL0     C 9096   1.287   0.195   9.086 -0.0567  0.1297  0.2594
  827MOL0     C 9097   0.527   0.426   9.202 -0.3655  0.5310 -0.0021
  827MOL0     C 9098   0.410   0.501   9.188 -0.9317  0.0391 -1.0275
  827MOL0     H 9099  -0.026   0.539   9.208  1.7507 -0.9972 -0.6044
  827MOL0     H 9100  -0.252   0.627   9.210 -0.3410 -0.3469  0.4602
  827MOL0     H 9101  -0.500   0.616   9.181 -0.4747  3.3382 -0.7121
  827MOL0     H 9102  -0.500   0.490   9.046  0.0117  0.8425 -2.7908
  827MOL0     H 9103  -0.687   0.708   9.068 -0.1725 -0.9617  0.7197
  827MOL0     H 9104  -0.724   0.538   9.047  0.9107 -0.9786 -0.4739
  827MOL0     H 9105  -0.614   0.552   8.822  0.2332 -0.8532  0.9490
  827MOL0     H 9106  -0.601   0.730   8.850 -3.7128  3.1398 -0.0023
  827MOL0     H 9107  -0.847   0.761   8.849 -1.2830  0.5574 -1.4142
  827MOL0     H 9108  -0.780   0.698   8.698 -1.2499  2.4814  0.2863
  827MOL0     H 9109  -0.947   0.552   8.913  0.3517  0.9090  0.4321
  827MOL0     H 9110  -0.831   0.459   8.808 -1.5471 -1.5957 -2.5842
  827MOL0     H 9111  -0.958   0.497   8.618 -1.4606  1.7324 -1.5522
  827MOL0     H 9112  -1.023   0.644   8.693  1.2889  0.0548  1.1180
  827MOL0     H 9113  -1.202   0.476   8.659 -2.7359  0.0321  1.7594
  827MOL0     H 9114  -1.116   0.365   8.763 -1.3063 -0.2403  0.4825
  827MOL0     H 9115  -1.134   0.493   8.947 -1.4953 -0.7919  0.8116
  827MOL0     H 9116  -1.297   0.477   8.877  0.3242 -0.8621 -1.0562
  827MOL0     H 9117  -1.436   0.647   8.839 -0.0868  0.1474  0.6232
  827MOL0     H 9118  -1.465   0.932   8.720 -1.2512  0.4394  0.1044
  827MOL0     H 9119  -1.432   1.050   8.855  0.7132  1.3756 -0.7633
  827MOL0     H 9120  -1.572   0.905   9.002 -0.9159  0.2023  0.0829
  827MOL0     H 9121  -1.639   0.836   8.851 -0.6358  0.5742 -0.8035
  827MOL0     H 9122  -1.676   1.105   8.968 -0.0325 -2.6394  2.3135
  827MOL0     H 9123  -1.670   1.079   8.789  3.3617 -1.2984 -0.7908
  827MOL0     H 9124  -1.902   1.065   8.894  2.4821  1.4122  1.1320
  827MOL0     H 9125  -1.845   0.930   8.999  1.4204  0.8361  1.2575
  827MOL0     H 9126  -1.932   0.724   8.633 -0.8559  0.5831 -0.9256
  827MOL0     H 9127  -2.143   0.592   8.618  1.4823  1.9782 -1.4295
  827MOL0     H 9128  -2.664   0.838   8.888  4.3303 -1.8851  2.6321
  827MOL0     H 9129  -2.906   0.779   8.881 -1.8144 -2.2981  1.3754
  827MOL0     H 9130  -3.094   0.665   8.721 -1.3242  0.9133  0.1592
  827MOL0     H 9131  -3.110   0.689   8.885 -4.4453  0.2478  0.0947
  827MOL0     H 9132  -3.267   0.468   8.893 -1.7341  0.0646  0.3410
  827MOL0     H 9133  -3.241   0.460   8.722 -1.7875 -0.9767  0.7470
  827MOL0     H 9134  -3.335   0.702   8.711  1.8943 -0.1813  0.8230
  827MOL0     H 9135  -3.381   0.689   8.881 -0.6460  0.1219 -0.7099
  827MOL0     H 9136  -3.463   0.509   8.660  2.2641  1.2582  0.5452
  827MOL0     H 9137  -3.481   0.458   8.819  1.2981 -0.4112 -0.5105
  827MOL0     H 9138  -3.629   0.643   8.882  2.3158  0.9641 -0.2289
  827MOL0     H 9139  -3.692   0.546   8.747  1.0871 -2.0325  1.4408
  827MOL0     H 9140  -3.616   0.731   8.587  1.0952  2.3380 -0.1479
  827MOL0     H 9141  -3.540   0.802   8.731  1.3545 -1.1354  1.1838
  827MOL0     H 9142  -3.767   0.822   8.837 -0.8716  0.2568  0.0789
  827MOL0     H 9143  -3.751   0.917   8.684 -1.6379 -0.1869  0.5128
  827MOL0     H 9144  -3.881   0.647   8.704 -0.1181 -0.7216 -0.9905
  827MOL0     H 9145  -3.852   0.753   8.556  0.3919  3.6015  0.4349
  827MOL0     H 9146  -2.805   0.363   8.821  1.6110 -0.4453  0.1254
  827MOL0     H 9147  -2.558   0.439   8.841 -1.0639 -0.6243 -2.4395
  827MOL0     H 9148  -2.297   0.835   8.950  4.1976  3.6007  1.8653
  827MOL0     H 9149  -2.097   0.945   8.971 -1.6201  0.1429 -0.7817
  827MOL0     H 9150  -0.277   0.604   8.793 -2.7832  0.0992  1.8793
  827MOL0     H 9151  -0.034   0.503   8.783 -3.0575 -0.2875 -1.2969
  827MOL0     H 9152   0.324   0.402   8.861  1.9927  2.5288 -2.1753
  827MOL0     H 9153   0.539   0.292   8.890 -0.4823 -0.5674  0.3165
  827MOL0     H 9154   0.726   0.202   8.936 -2.7264  3.2777  0.8268
  827MOL0     H 9155   0.607   0.097   9.002  0.8089 -2.0928 -1.3883
  827MOL0     H 9156   0.775  -0.005   9.162 -2.7027  1.0683  0.3545
  827MOL0     H 9157   0.831  -0.009   8.993  0.2950 -0.3356  1.2523
  827MOL0     H 9158   0.912   0.197   9.210  2.2895  1.6767 -0.3225
  827MOL0     H 9159   0.937   0.223   9.037 -0.5237  0.4696 -0.5291
  827MOL0     H 9160   1.052  -0.004   9.211  1.0208  0.6191  0.1219
  827MOL0     H 9161   1.060   0.012   9.030 -2.2732 -1.8645  0.3043
  827MOL0     H 9162   1.377   0.250   9.069 -0.9148  0.8814 -2.3851
  827MOL0     H 9163   0.590   0.436   9.290  0.4686 -2.0598 -0.2220
  827MOL0     H 9164   0.367   0.565   9.266 -0.1453 -0.2905 -0.3034
  828MOL0     O 9165   7.158   2.299   9.634  0.1105  0.1666 -0.1770
  828MOL0     C 9166   7.180   2.371   9.732 -0.8681  0.3886 -0.3205
  828MOL0     O 9167   7.085   2.428   9.812  0.0418  0.5417 -0.5930
  828MOL0     C 9168   6.950   2.421   9.788  0.4386 -0.7803  0.4273
  828MOL0     C 9169   6.877   2.309   9.751 -0.6632  0.3078  0.1478
  828MOL0     C 9170   6.740   2.307   9.729  0.3304 -0.3793  0.2047
  828MOL0     C 9171   6.666   2.430   9.759 -0.3096  0.4962  0.1246
  828MOL0     O 9172   6.527   2.435   9.757  0.2587 -0.5439 -0.0156
  828MOL0     C 9173   6.455   2.324   9.698  0.1871  0.0107  0.3610
  828MOL0     C 9174   6.305   2.363   9.664 -1.2060 -0.2155 -0.4761
  828MOL0     C 9175   6.224   2.230   9.654  0.4978 -0.4454 -0.6359
  828MOL0     C 9176   6.225   2.173   9.518  0.6318  0.4329  0.7326
  828MOL0     C 9177   6.137   2.047   9.520  0.5717  0.1650  0.1140
  828MOL0     C 9178   6.170   1.948   9.410  0.0085  0.1315 -0.2880
  828MOL0     C 9179   6.188   2.017   9.271 -0.0912  0.0646  0.0635
  828MOL0     C 9180   6.155   1.936   9.151 -0.1635  0.5572 -0.0914
  828MOL0     N 9181   6.009   1.924   9.138  0.1804  0.2320  0.8804
  828MOL0     C 9182   5.942   1.805   9.167  1.1790 -0.0395  0.4024
  828MOL0     C 9183   5.811   1.828   9.116 -0.2663 -0.2070 -0.0791
  828MOL0     C 9184   5.702   1.731   9.121  0.4528  0.3531  0.3117
  828MOL0     C 9185   5.577   1.797   9.176 -0.0194 -0.2390  0.3924
  828MOL0     C 9186   5.464   1.696   9.164  0.9110  0.6336  0.0799
  828MOL0     C 9187   5.325   1.755   9.203  0.6609  0.4717 -0.0096
  828MOL0     O 9188   5.224   1.649   9.204 -0.3858 -0.1521 -0.0818
  828MOL0     C 9189   5.094   1.682   9.239 -0.0430 -0.6237  0.7126
  828MOL0     C 9190   4.998   1.581   9.220  0.7044 -0.3439  0.2612
  828MOL0     C 9191   4.858   1.597   9.252  0.4073 -0.9477  1.9311
  828MOL0     C 9192   4.816   1.719   9.306 -0.1785  0.2324  0.3996
  828MOL0     C 9193   4.675   1.731   9.338 -0.2010 -0.1490  0.6456
  828MOL0     O 9194   4.628   1.863   9.336 -0.4000 -0.5339  0.7471
  828MOL0     C 9195   4.494   1.882   9.348 -0.0151  0.8636 -0.6515
  828MOL0     C 9196   4.410   1.855   9.241  0.7010  0.5327 -0.3157
  828MOL0     C 9197   4.273   1.871   9.251 -0.0120 -0.1818 -0.0488
  828MOL0     C 9198   4.222   1.922   9.375 -0.0623  0.7679 -0.5421
  828MOL0     O 9199   4.090   1.954   9.398 -0.2479  0.8562 -0.4345
  828MOL0     C 9200   4.018   2.021   9.289  0.0270  0.8378  0.3626
  828MOL0     C 9201   3.884   2.073   9.332 -0.4323 -1.1163  0.0669
  828MOL0     C 9202   3.803   2.083   9.208  0.6987  0.4796 -0.2109
  828MOL0     C 9203   3.661   2.138   9.240  0.7837  0.2341 -0.1007
  828MOL0     C 9204   3.568   2.115   9.111 -0.3194 -0.7238 -0.6411
  828MOL0     C 9205   3.432   2.176   9.131  0.4819  0.3625  0.4542
  828MOL0     C 9206   3.346   2.186   9.004 -0.0996 -0.1162 -0.0925
  828MOL0     C 9207   3.224   2.267   9.037 -1.0165 -0.1931 -0.6647
  828MOL0    Cl 9208   3.137   2.288   8.888  0.3566 -0.1614  0.0527
  828MOL0     C 9209   4.313   1.938   9.485  0.3250  0.2442 -0.0366
  828MOL0     C 9210   4.449   1.922   9.467  0.4381  0.0760  1.0538
  828MOL0     O 9211   4.602   1.629   9.339 -0.6489  0.3504  0.5555
  828MOL0     C 9212   4.915   1.816   9.328  0.5407  0.4207 -0.1955
  828MOL0     C 9213   5.048   1.802   9.288 -0.3423  0.1963 -0.6625
  828MOL0     N 9214   5.807   1.958   9.051  0.1291  0.1275  0.2894
  828MOL0     N 9215   5.925   2.013   9.066 -0.3203  0.6425 -0.5456
  828MOL0     C 9216   6.733   2.540   9.788  0.0460 -0.2571  0.6681
  828MOL0     C 9217   6.871   2.542   9.806 -0.6285  0.2319 -0.0890
  828MOL0     C 9218   7.323   2.404   9.767 -0.4234  0.8748 -0.3574
  828MOL0     C 9219   7.371   2.388   9.895  0.2592 -0.2586  0.2344
  828MOL0     C 9220   7.506   2.417   9.930  0.3668  0.9510 -0.1732
  828MOL0     C 9221   7.599   2.449   9.826  0.3270 -0.2475  0.0452
  828MOL0     O 9222   7.731   2.469   9.829 -0.6817 -0.8857 -0.0810
  828MOL0     C 9223   7.785   2.499   9.956 -0.4160  0.0953 -0.4891
  828MOL0     C 9224   7.915   2.579   9.931  0.6965  0.0628  0.9718
  828MOL0     C 9225   7.990   2.620  10.067 -0.2336  0.5732 -0.1136
  828MOL0     C 9226   8.105   2.730  10.066 -0.1712  0.2428 -0.3621
  828MOL0     C 9227   8.188   2.729   9.942 -0.4025  0.4129 -0.2323
  828MOL0     C 9228   8.258   2.751   9.849 -0.6307  0.3108 -0.5636
  828MOL0     C 9229   7.550   2.457   9.696 -0.1581 -0.7200  0.0810
  828MOL0     C 9230   7.410   2.444   9.668 -0.4811  0.1719 -0.4493
  828MOL0     H 9231   6.930   2.219   9.723 -1.8561 -0.3943  0.0451
  828MOL0     H 9232   6.703   2.212   9.691  1.4553 -1.1403  0.9596
  828MOL0     H 9233   6.464   2.237   9.764  0.9613 -0.3978 -0.2667
  828MOL0     H 9234   6.502   2.288   9.606 -1.6867  0.9142 -1.0206
  828MOL0     H 9235   6.295   2.430   9.579 -1.3876 -0.0474 -0.3261
  828MOL0     H 9236   6.277   2.421   9.753  1.3970  0.5627 -0.0848
  828MOL0     H 9237   6.118   2.232   9.680  1.0249  0.7627  1.6509
  828MOL0     H 9238   6.264   2.150   9.718 -0.6096 -1.3206 -1.0046
  828MOL0     H 9239   6.187   2.252   9.453  3.6342  0.7100 -0.8568
  828MOL0     H 9240   6.331   2.162   9.492  0.5001  2.2678 -0.8153
  828MOL0     H 9241   6.030   2.069   9.514  0.3019 -0.7285  1.1918
  828MOL0     H 9242   6.141   1.990   9.613 -0.6674  1.5509  1.0592
  828MOL0     H 9243   6.085   1.880   9.398 -1.1858  1.5733 -0.4756
  828MOL0     H 9244   6.265   1.899   9.432 -0.4096  0.5406  2.8325
  828MOL0     H 9245   6.126   2.106   9.271  1.5163  1.2430 -1.5147
  828MOL0     H 9246   6.290   2.054   9.259 -0.8176  2.2892  0.4172
  828MOL0     H 9247   6.188   1.832   9.157  1.7199  1.0601 -1.1326
  828MOL0     H 9248   6.204   1.979   9.064  0.2055 -0.3342 -0.3300
  828MOL0     H 9249   5.984   1.717   9.215  0.2066 -1.1162 -0.6740
  828MOL0     H 9250   5.733   1.643   9.178 -1.8533 -1.8615 -1.5856
  828MOL0     H 9251   5.679   1.707   9.016  1.5651 -0.3732  0.2144
  828MOL0     H 9252   5.558   1.888   9.118 -0.9779  0.0480  1.1226
  828MOL0     H 9253   5.589   1.816   9.283 -3.3994 -0.1130  0.8725
  828MOL0     H 9254   5.468   1.659   9.061  0.6507  1.8160 -0.3780
  828MOL0     H 9255   5.475   1.617   9.239 -2.8092  0.1247  0.3107
  828MOL0     H 9256   5.293   1.832   9.131 -3.3237 -1.0125 -0.0742
  828MOL0     H 9257   5.333   1.803   9.301 -0.5497  0.9865 -0.1435
  828MOL0     H 9258   5.029   1.480   9.196 -0.7297 -0.6201 -0.5228
  828MOL0     H 9259   4.785   1.520   9.229  0.1714 -0.4327  0.8855
  828MOL0     H 9260   4.447   1.803   9.153 -0.6003 -1.2647  0.1400
  828MOL0     H 9261   4.200   1.848   9.174 -2.5478  2.3479  1.3856
  828MOL0     H 9262   3.997   1.945   9.213 -1.1647  0.2275  1.2662
  828MOL0     H 9263   4.073   2.104   9.243  2.3888  0.2518  1.9138
  828MOL0     H 9264   3.903   2.171   9.376 -0.8068 -1.9419  2.1980
  828MOL0     H 9265   3.845   2.007   9.410  0.4229 -1.3580  0.3004
  828MOL0     H 9266   3.787   1.988   9.155  1.9631 -0.9205  1.7930
  828MOL0     H 9267   3.847   2.146   9.130 -1.0677  1.5053 -0.4564
  828MOL0     H 9268   3.613   2.085   9.322 -2.0035  1.2480 -0.9783
  828MOL0     H 9269   3.665   2.245   9.260 -0.7494  0.2060  0.4710
  828MOL0     H 9270   3.552   2.008   9.101  0.6731 -1.2113  2.1228
  828MOL0     H 9271   3.611   2.160   9.022 -0.9872 -0.7723 -0.9914
  828MOL0     H 9272   3.456   2.280   9.154 -1.5570  0.9396  0.1551
  828MOL0     H 9273   3.377   2.139   9.218 -2.4918  5.0682  0.8987
  828MOL0     H 9274   3.413   2.225   8.926 -1.5169 -1.1752 -1.9216
  828MOL0     H 9275   3.313   2.086   8.976  2.7676 -1.5401  1.2743
  828MOL0     H 9276   3.254   2.364   9.076  1.0536 -1.5793  1.4456
  828MOL0     H 9277   3.166   2.225   9.119  0.4953  2.5058  1.9608
  828MOL0     H 9278   4.281   1.969   9.583  4.4600 -1.7022  2.1903
  828MOL0     H 9279   4.514   1.931   9.554  0.0891  0.4177  1.2822
  828MOL0     H 9280   4.883   1.917   9.354  1.9343  1.2668 -1.5913
  828MOL0     H 9281   5.111   1.890   9.290  2.0488 -1.4215 -0.3825
  828MOL0     H 9282   6.674   2.632   9.785 -0.3222 -0.5197 -0.8757
  828MOL0     H 9283   6.912   2.638   9.834  0.3595 -0.2541  0.1969
  828MOL0     H 9284   7.296   2.357   9.967  1.2122 -1.2431  0.8495
  828MOL0     H 9285   7.539   2.399  10.032 -1.8924 -4.1707 -0.0485
  828MOL0     H 9286   7.815   2.410  10.013  1.9753 -1.3335 -3.6839
  828MOL0     H 9287   7.715   2.552  10.022  2.0166  1.7532  0.9173
  828MOL0     H 9288   7.970   2.510   9.866 -1.4352 -3.2802  2.4165
  828MOL0     H 9289   7.895   2.669   9.871 -1.1542 -2.1765 -2.0866
  828MOL0     H 9290   8.023   2.526  10.112  1.6000 -0.0207 -2.4706
  828MOL0     H 9291   7.917   2.657  10.139 -2.1349 -0.8253 -1.2121
  828MOL0     H 9292   8.053   2.826  10.075 -0.8605 -0.2770  1.9977
  828MOL0     H 9293   8.170   2.733  10.154  2.4815  2.3602 -2.2344
  828MOL0     H 9294   8.299   2.753   9.750 -0.9248 -2.8155 -0.8648
  828MOL0     H 9295   7.616   2.474   9.611 -0.1528 -0.7390  0.0810
  828MOL0     H 9296   7.367   2.461   9.569 -0.6583  4.2271  0.1666
  829MOL0     O 9297   2.463   0.555   9.964 -0.2334 -1.2248 -0.4120
  829MOL0     C 9298   2.495   0.653   9.896  0.6316  0.2119  0.6952
  829MOL0     O 9299   2.431   0.770   9.889  0.0336 -0.2661  0.4132
  829MOL0     C 9300   2.304   0.784   9.945 -0.0740 -1.1093  0.6533
  829MOL0     C 9301   2.269   0.914   9.987 -0.5846  0.0454  0.1378
  829MOL0     C 9302   2.149   0.954  10.042  0.0894  0.0486 -1.3815
  829MOL0     C 9303   2.046   0.862  10.054  0.0798  0.7166 -0.3850
  829MOL0     O 9304   1.930   0.898  10.107 -0.9455  0.3924  0.0863
  829MOL0     C 9305   1.817   0.858  10.039 -0.6217  0.9979  0.5684
  829MOL0     C 9306   1.742   0.757  10.123  0.3721 -0.3884 -1.0551
  829MOL0     C 9307   1.700   0.811  10.257 -0.4112 -0.8148  0.3167
  829MOL0     C 9308   1.721   0.715  10.374 -0.3761 -0.0431 -0.1056
  829MOL0     C 9309   1.662   0.742  10.516  0.1492 -0.3542  0.4989
  829MOL0     C 9310   1.512   0.776  10.514 -0.3919  0.2551  0.6739
  829MOL0     C 9311   1.467   0.825  10.648  0.4125 -0.4587  0.2245
  829MOL0     C 9312   1.315   0.848  10.660 -1.0927  0.0360  0.0895
  829MOL0     N 9313   1.236   0.736  10.713 -0.4867 -0.0426  0.3052
  829MOL0     C 9314   1.118   0.747  10.777 -0.5100 -1.0058 -0.1144
  829MOL0     C 9315   1.060   0.628  10.778 -0.4450  0.4315 -0.3607
  829MOL0     C 9316   0.934   0.580  10.845  0.8655 -0.7097 -0.2813
  829MOL0     C 9317   0.815   0.661  10.800  1.2345 -0.6701 -0.0178
  829MOL0     C 9318   0.687   0.594  10.852  0.4623 -0.0523 -0.1242
  829MOL0     C 9319   0.568   0.681  10.863  0.4826 -0.5197 -0.2558
  829MOL0     O 9320   0.468   0.630  10.963 -0.2804 -0.7654 -0.2179
  829MOL0     C 9321   0.340   0.678  10.950 -0.2777 -0.2008  0.8946
  829MOL0     C 9322   0.246   0.594  11.018 -0.4093 -0.4313  0.6591
  829MOL0     C 9323   0.122   0.652  11.040 -0.5132  0.4308  0.0880
  829MOL0     C 9324   0.073   0.778  10.993 -0.3247  0.7893 -0.4722
  829MOL0     C 9325  -0.064   0.825  11.025  0.5850 -0.1568 -0.1581
  829MOL0     O 9326  -0.108   0.941  10.967  0.3094 -0.0362 -0.5513
  829MOL0     C 9327  -0.239   0.982  10.981 -0.4090 -0.5208 -0.2119
  829MOL0     C 9328  -0.346   0.891  10.974 -0.3528  0.3327 -0.3353
  829MOL0     C 9329  -0.482   0.922  11.010 -0.1831 -0.1612  0.9018
  829MOL0     C 9330  -0.512   1.059  11.036 -0.6538 -0.2649  1.0161
  829MOL0     O 9331  -0.637   1.115  11.048  0.0360  0.1711 -0.3005
  829MOL0     C 9332  -0.751   1.027  11.040 -0.0995 -0.0170  0.7055
  829MOL0     C 9333  -0.871   1.121  11.012 -0.8805  0.5593  0.2395
  829MOL0     C 9334  -0.991   1.040  10.976  0.3111 -0.3958 -0.4948
  829MOL0     C 9335  -1.113   1.123  10.958 -0.0266 -0.1301  0.4687
  829MOL0     C 9336  -1.235   1.025  10.938 -0.2537 -0.4202 -0.7149
  829MOL0     C 9337  -1.366   1.099  10.904 -0.1183  0.6499 -0.1287
  829MOL0     C 9338  -1.480   1.010  10.900  0.9250  0.8627  0.1447
  829MOL0     C 9339  -1.603   1.095  10.867 -0.3554  0.3013  0.0163
  829MOL0    Cl 9340  -1.743   0.998  10.861  0.0024 -0.6054 -0.3139
  829MOL0     C 9341  -0.398   1.146  11.025  0.8147  0.5518 -0.0745
  829MOL0     C 9342  -0.267   1.112  10.996  0.1928 -0.3061  0.1835
  829MOL0     O 9343  -0.137   0.753  11.097  0.2530 -0.0459  0.2024
  829MOL0     C 9344   0.169   0.851  10.931  0.7155 -0.4410 -0.2725
  829MOL0     C 9345   0.296   0.803  10.905 -0.8154  0.6403  0.1825
  829MOL0     N 9346   1.150   0.540  10.716 -0.1535  0.3457  0.5578
  829MOL0     N 9347   1.242   0.607  10.666 -0.0022 -0.0998 -0.2814
  829MOL0     C 9348   2.074   0.728  10.012  0.1108 -0.8027 -0.3158
  829MOL0     C 9349   2.201   0.699   9.962 -0.6189  0.7465 -0.6733
  829MOL0     C 9350   2.611   0.648   9.802  0.1626  0.0534  0.3809
  829MOL0     C 9351   2.596   0.704   9.674 -0.0809 -0.2348  0.0938
  829MOL0     C 9352   2.705   0.714   9.586  0.7097  1.4742 -0.1706
  829MOL0     C 9353   2.832   0.653   9.626  0.6204  0.0213  0.3104
  829MOL0     O 9354   2.950   0.649   9.553 -0.0779  0.1027  0.7008
  829MOL0     C 9355   2.951   0.667   9.422  0.9484  0.0461  0.3126
  829MOL0     C 9356   3.096   0.680   9.371  0.1000  0.5705 -0.7674
  829MOL0     C 9357   3.156   0.549   9.326  1.0738 -0.4063 -1.3769
  829MOL0     C 9358   3.292   0.581   9.275 -0.6343  0.0368 -0.2192
  829MOL0     C 9359   3.304   0.644   9.139  0.0853  0.1261 -0.1693
  829MOL0     C 9360   3.324   0.703   9.037  0.0553  0.2621 -0.0419
  829MOL0     C 9361   2.845   0.596   9.754  0.1753 -0.4240 -0.4406
  829MOL0     C 9362   2.735   0.586   9.837  0.4151 -0.8111  0.5360
  829MOL0     H 9363   2.341   0.995   9.975 -0.9161  0.1429 -1.4172
  829MOL0     H 9364   2.137   1.058  10.074  0.6044 -0.3381  0.1728
  829MOL0     H 9365   1.840   0.808   9.944  3.7409  1.6351  1.0681
  829MOL0     H 9366   1.753   0.946  10.030 -0.8416  0.6950 -1.2983
  829MOL0     H 9367   1.813   0.676  10.141  3.2447  2.0337 -0.6339
  829MOL0     H 9368   1.658   0.728  10.060 -1.9981  0.7218  1.4008
  829MOL0     H 9369   1.597   0.844  10.250  0.5639  2.2805 -0.9980
  829MOL0     H 9370   1.769   0.891  10.286 -1.1193 -0.8497  2.2388
  829MOL0     H 9371   1.665   0.625  10.348 -0.4862 -0.2636  0.8392
  829MOL0     H 9372   1.826   0.686  10.385 -0.5660 -0.0470  2.3503
  829MOL0     H 9373   1.709   0.825  10.569  0.5247 -0.7204  0.7430
  829MOL0     H 9374   1.685   0.650  10.570  2.2086  0.0191  0.3184
  829MOL0     H 9375   1.460   0.682  10.495 -0.9044  0.7743 -0.5790
  829MOL0     H 9376   1.496   0.856  10.442 -0.0205  1.8282  2.2507
  829MOL0     H 9377   1.498   0.759  10.729  1.7448 -1.9322 -1.3941
  829MOL0     H 9378   1.520   0.918  10.668  0.0629 -0.1848 -0.1115
  829MOL0     H 9379   1.277   0.877  10.561  0.5564 -1.1236 -0.9190
  829MOL0     H 9380   1.300   0.933  10.727 -0.9768 -0.0733  0.2523
  829MOL0     H 9381   1.081   0.837  10.825  0.3325 -0.6651 -0.0805
  829MOL0     H 9382   0.949   0.608  10.950  1.3699  0.5876 -0.6855
  829MOL0     H 9383   0.921   0.472  10.834 -0.8462 -0.7656  1.6471
  829MOL0     H 9384   0.818   0.659  10.691  2.6857  0.1231 -0.0136
  829MOL0     H 9385   0.823   0.764  10.836  2.6365 -0.4607 -0.8847
  829MOL0     H 9386   0.666   0.518  10.777  0.0490 -0.8550  0.7807
  829MOL0     H 9387   0.699   0.552  10.953  1.0397 -1.8559 -0.9060
  829MOL0     H 9388   0.520   0.678  10.765 -1.2175  0.7165  0.4851
  829MOL0     H 9389   0.593   0.783  10.891 -1.5343  0.4702 -1.7703
  829MOL0     H 9390   0.280   0.495  11.046 -1.2115 -1.5186 -1.8902
  829MOL0     H 9391   0.055   0.583  11.090 -0.5035 -0.1118 -0.6255
  829MOL0     H 9392  -0.332   0.787  10.947 -3.2241 -0.5667  1.2139
  829MOL0     H 9393  -0.552   0.840  11.004  0.5462 -0.7033 -0.9481
  829MOL0     H 9394  -0.764   0.966  11.130 -1.1216 -1.5647 -0.4279
  829MOL0     H 9395  -0.743   0.957  10.956 -2.2993 -0.8920  1.1615
  829MOL0     H 9396  -0.843   1.181  10.925  0.1101 -0.6240 -0.2956
  829MOL0     H 9397  -0.889   1.193  11.093  1.7195 -0.6592  2.0318
  829MOL0     H 9398  -1.020   0.965  11.051 -2.1893  0.0990 -0.8599
  829MOL0     H 9399  -0.980   0.995  10.876  0.8287  1.0122 -1.0855
  829MOL0     H 9400  -1.131   1.187  11.045 -0.5749 -0.0291  0.2827
  829MOL0     H 9401  -1.110   1.187  10.870  0.8172 -1.9153 -0.8741
  829MOL0     H 9402  -1.253   0.981  11.036 -1.1087 -1.7197 -1.4176
  829MOL0     H 9403  -1.199   0.947  10.869  1.6034  0.0201 -0.2974
  829MOL0     H 9404  -1.347   1.143  10.806  0.9857  0.3223 -0.0761
  829MOL0     H 9405  -1.379   1.172  10.984 -0.1555 -2.1273  2.6292
  829MOL0     H 9406  -1.470   0.936  10.819 -2.8967  0.0162  0.2820
  829MOL0     H 9407  -1.491   0.952  10.991  3.3956 -0.9647 -0.5971
  829MOL0     H 9408  -1.586   1.146  10.771 -1.0413 -0.4354 -0.5097
  829MOL0     H 9409  -1.611   1.176  10.940  0.3967  0.0385  0.4003
  829MOL0     H 9410  -0.427   1.250  11.017 -2.8849 -0.2820  0.4906
  829MOL0     H 9411  -0.187   1.180  10.969 -2.1235  2.2181 -0.9167
  829MOL0     H 9412   0.146   0.951  10.896  0.4632 -0.6089 -0.5948
  829MOL0     H 9413   0.372   0.866  10.860  0.4343 -1.4920 -0.8482
  829MOL0     H 9414   1.995   0.655  10.027  0.7049 -1.0784  1.7747
  829MOL0     H 9415   2.212   0.598   9.924  1.2633 -0.2559  2.2097
  829MOL0     H 9416   2.502   0.749   9.644 -0.1420  1.3581  2.3965
  829MOL0     H 9417   2.696   0.759   9.488  1.3097  2.1214  0.0604
  829MOL0     H 9418   2.894   0.753   9.385  0.8741  0.4005  1.2354
  829MOL0     H 9419   2.905   0.582   9.371 -0.1718  0.1919  1.0569
  829MOL0     H 9420   3.112   0.741   9.281  2.4900 -2.0348 -2.3017
  829MOL0     H 9421   3.144   0.732   9.454 -4.1242  2.6237  0.6658
  829MOL0     H 9422   3.098   0.511   9.241 -1.0458 -1.4628  0.4586
  829MOL0     H 9423   3.155   0.486   9.415 -0.0738  2.0680  0.4411
  829MOL0     H 9424   3.343   0.637   9.355  2.3932 -3.9764  0.9826
  829MOL0     H 9425   3.360   0.495   9.270 -0.5312  0.1125 -0.1499
  829MOL0     H 9426   3.339   0.760   8.947  0.3813  4.4910  2.4410
  829MOL0     H 9427   2.943   0.561   9.785 -0.0445 -4.3711 -3.3373
  829MOL0     H 9428   2.735   0.547   9.938 -2.2694 -1.9534  0.1801
  830MOL0     O 9429   5.399   2.182   0.296  0.2738  0.5107  0.4073
  830MOL0     C 9430   5.413   2.283   0.223  0.5712  0.0003 -0.4043
  830MOL0     O 9431   5.309   2.372   0.187 -0.5694  0.7327  0.0268
  830MOL0     C 9432   5.184   2.376   0.258 -0.2442 -0.2461  0.0943
  830MOL0     C 9433   5.175   2.382   0.393  0.0881  0.0549  0.1356
  830MOL0     C 9434   5.051   2.386   0.459  0.2609  0.1271  0.9567
  830MOL0     C 9435   4.934   2.408   0.381  0.1023 -0.4506 -0.6803
  830MOL0     O 9436   4.815   2.421   0.448 -0.0486  0.8768 -0.2062
  830MOL0     C 9437   4.732   2.526   0.402 -0.1653  0.0894  0.2475
  830MOL0     C 9438   4.615   2.560   0.499  0.6603  1.1582  0.1628
  830MOL0     C 9439   4.510   2.657   0.434  0.4971  0.1658  0.8310
  830MOL0     C 9440   4.370   2.649   0.504 -0.3394  0.2040 -0.4163
  830MOL0     C 9441   4.290   2.778   0.465 -0.4229 -0.2849  0.0790
  830MOL0     C 9442   4.169   2.778   0.541  0.3454 -0.3936  0.0276
  830MOL0     C 9443   4.110   2.916   0.521 -0.0514  0.1345  0.3613
  830MOL0     C 9444   3.969   2.914   0.583 -0.2647 -0.1171 -0.9065
  830MOL0     N 9445   3.880   3.027   0.565  0.0189  0.2407 -0.7664
  830MOL0     C 9446   3.911   3.161   0.571 -0.5710 -0.7097 -0.4503
  830MOL0     C 9447   3.795   3.227   0.544 -0.5190 -0.0134 -0.1661
  830MOL0     C 9448   3.780   3.369   0.528  0.2229 -0.5678  0.1970
  830MOL0     C 9449   3.633   3.420   0.543 -0.2411  0.0286 -0.1285
  830MOL0     C 9450   3.585   3.421   0.684 -0.4096  0.1170  0.0347
  830MOL0     C 9451   3.435   3.453   0.691  0.0965 -0.0079 -0.7276
  830MOL0     O 9452   3.412   3.582   0.620 -0.2933 -0.0613 -0.6010
  830MOL0     C 9453   3.290   3.619   0.590  0.4951 -0.1106  0.1498
  830MOL0     C 9454   3.182   3.573   0.663 -0.7305  0.7127 -0.3273
  830MOL0     C 9455   3.048   3.620   0.629 -0.7823 -0.1112 -1.1490
  830MOL0     C 9456   3.031   3.704   0.518 -0.1445  0.1682  0.2964
  830MOL0     C 9457   2.897   3.761   0.478  0.3668  0.1321 -0.1886
  830MOL0     O 9458   2.889   3.823   0.354  0.2508  0.2155  0.0674
  830MOL0     C 9459   2.760   3.833   0.301 -0.9178 -0.5958 -0.1524
  830MOL0     C 9460   2.666   3.731   0.283  0.0431  0.1978  0.1302
  830MOL0     C 9461   2.546   3.760   0.219  0.4062  0.5608  0.2313
  830MOL0     C 9462   2.526   3.889   0.154  0.1930  1.0647  0.0159
  830MOL0     O 9463   2.409   3.918   0.077  0.5482  0.4475 -0.3887
  830MOL0     C 9464   2.310   3.819   0.040 -0.2715  0.7135  0.7608
  830MOL0     C 9465   2.198   3.895  -0.028  0.2127  0.2161  0.4881
  830MOL0     C 9466   2.099   3.961   0.075 -1.3361  0.0950  0.9374
  830MOL0     C 9467   1.981   4.019  -0.011  0.2380  0.8700 -0.5438
  830MOL0     C 9468   1.872   4.068   0.077  0.7187  0.4343 -0.0045
  830MOL0     C 9469   1.759   4.111  -0.007 -0.9355 -0.1459  0.2167
  830MOL0     C 9470   1.782   4.239  -0.085  0.1295 -1.3065  0.0882
  830MOL0     C 9471   1.647   4.265  -0.153  0.6093  0.2710 -0.3742
  830MOL0    Cl 9472   1.608   4.443  -0.177 -0.2456  0.0265 -0.5545
  830MOL0     C 9473   2.617   3.987   0.172 -0.1806 -0.0801 -0.5426
  830MOL0     C 9474   2.732   3.963   0.245 -0.0948 -0.7353 -0.2548
  830MOL0     O 9475   2.801   3.727   0.551 -0.0404 -0.3102  0.3017
  830MOL0     C 9476   3.146   3.744   0.446 -0.7412  0.4762 -0.1998
  830MOL0     C 9477   3.272   3.709   0.480  0.6290 -0.0558 -0.3779
  830MOL0     N 9478   3.704   3.133   0.504 -0.6810  0.1537 -0.7703
  830MOL0     N 9479   3.752   3.013   0.528 -0.6823  0.7579  0.8293
  830MOL0     C 9480   4.948   2.403   0.246  0.0465 -0.6004 -0.1099
  830MOL0     C 9481   5.070   2.387   0.179  0.7635  0.1048  0.2682
  830MOL0     C 9482   5.542   2.322   0.191  0.0899 -0.5951 -0.7742
  830MOL0     C 9483   5.640   2.224   0.164  0.6249  0.5555 -0.0091
  830MOL0     C 9484   5.764   2.251   0.117  0.0374  0.8071  0.4974
  830MOL0     C 9485   5.807   2.386   0.093 -0.6362 -0.5452  0.8280
  830MOL0     O 9486   5.932   2.426   0.043  0.3153  0.2479 -0.3120
  830MOL0     C 9487   6.025   2.322   0.008 -0.2182  0.5664  0.0244
  830MOL0     C 9488   6.140   2.400  -0.065  0.2135 -0.6755  1.7882
  830MOL0     C 9489   6.271   2.417   0.016 -0.5720  0.1274  0.4070
  830MOL0     C 9490   6.358   2.528  -0.048 -0.8798  0.0930 -0.1037
  830MOL0     C 9491   6.501   2.527  -0.001  0.5731 -0.3399 -0.1193
  830MOL0     C 9492   6.621   2.538   0.018  0.6539 -0.2745 -0.0167
  830MOL0     C 9493   5.718   2.490   0.120  0.0769 -0.9620 -0.7363
  830MOL0     C 9494   5.587   2.456   0.169  0.0866  1.1649  0.4762
  830MOL0     H 9495   5.263   2.360   0.451 -0.8635 -6.4182 -0.1327
  830MOL0     H 9496   5.057   2.370   0.566 -0.9825 -4.3744  0.5353
  830MOL0     H 9497   4.686   2.506   0.304 -0.1123  0.9104  0.0476
  830MOL0     H 9498   4.798   2.613   0.400 -1.7496  1.3894 -2.0608
  830MOL0     H 9499   4.651   2.608   0.590  0.8845  1.7004 -0.2040
  830MOL0     H 9500   4.569   2.464   0.523 -2.1325  2.2710 -0.3943
  830MOL0     H 9501   4.488   2.622   0.332  1.2872  0.3484  0.5890
  830MOL0     H 9502   4.561   2.753   0.436  1.5242 -0.3764  1.8902
  830MOL0     H 9503   4.317   2.556   0.484  1.3545 -1.1048  0.9367
  830MOL0     H 9504   4.388   2.636   0.611  0.4597 -3.4219 -0.8636
  830MOL0     H 9505   4.264   2.778   0.359  0.5341 -1.1964 -0.1663
  830MOL0     H 9506   4.347   2.867   0.493 -0.9061 -0.2179  0.8976
  830MOL0     H 9507   4.188   2.767   0.648  1.5267 -0.4886 -0.1769
  830MOL0     H 9508   4.110   2.693   0.504 -0.2267 -1.3838  2.9526
  830MOL0     H 9509   4.161   3.000   0.570 -1.3796  0.6923  0.8544
  830MOL0     H 9510   4.093   2.944   0.417 -0.5401  0.2139  0.4609
  830MOL0     H 9511   3.982   2.901   0.691 -1.6251  0.2653 -0.6776
  830MOL0     H 9512   3.916   2.832   0.534 -2.1123  1.1551 -1.1396
  830MOL0     H 9513   4.009   3.196   0.599 -0.6854 -1.8229  1.5513
  830MOL0     H 9514   3.817   3.391   0.428  2.3213 -0.4690  0.9380
  830MOL0     H 9515   3.845   3.423   0.598 -1.2847 -0.9396  1.9606
  830MOL0     H 9516   3.568   3.368   0.473 -0.2453 -0.5004  0.2647
  830MOL0     H 9517   3.650   3.524   0.511  0.8296 -0.9615 -3.1283
  830MOL0     H 9518   3.608   3.325   0.733  0.6767  1.8769  3.2701
  830MOL0     H 9519   3.626   3.505   0.739 -1.3424  1.6051 -1.4548
  830MOL0     H 9520   3.396   3.446   0.793  1.1716 -1.5592 -0.3979
  830MOL0     H 9521   3.377   3.377   0.639 -1.6898 -0.2080  1.4267
  830MOL0     H 9522   3.203   3.516   0.753  0.6265 -0.5937 -1.4216
  830MOL0     H 9523   2.966   3.596   0.695 -0.7039  0.0705 -0.9851
  830MOL0     H 9524   2.682   3.631   0.321 -0.7600 -0.6899 -1.7162
  830MOL0     H 9525   2.468   3.684   0.216  1.9719 -1.1296  1.1447
  830MOL0     H 9526   2.268   3.759   0.120 -1.4511  2.5669  1.5903
  830MOL0     H 9527   2.359   3.752  -0.032 -0.8697 -0.5742  1.5297
  830MOL0     H 9528   2.141   3.824  -0.089 -0.2853  0.1179  1.0510
  830MOL0     H 9529   2.236   3.971  -0.096 -0.6990  0.0630 -0.2233
  830MOL0     H 9530   2.164   4.031   0.129  0.9522  0.8194 -2.4437
  830MOL0     H 9531   2.065   3.888   0.149 -0.7142 -0.8933  0.2732
  830MOL0     H 9532   2.008   4.096  -0.083 -2.1872  0.5986 -1.8473
  830MOL0     H 9533   1.941   3.935  -0.068  1.2944 -1.1737  1.5505
  830MOL0     H 9534   1.919   4.149   0.133  2.2206 -1.2808  1.3196
  830MOL0     H 9535   1.835   3.991   0.145 -3.8056  0.6580 -1.8643
  830MOL0     H 9536   1.674   4.117   0.063 -1.6104  0.8194 -0.6531
  830MOL0     H 9537   1.724   4.031  -0.072 -0.9392  1.1933 -1.4871
  830MOL0     H 9538   1.804   4.321  -0.015 -1.2245 -0.6769 -0.1903
  830MOL0     H 9539   1.868   4.238  -0.153  1.0875  1.6347  1.0893
  830MOL0     H 9540   1.572   4.227  -0.083  2.2502 -3.3438 -0.3362
  830MOL0     H 9541   1.646   4.207  -0.246  0.6314 -0.5335  0.1157
  830MOL0     H 9542   2.593   4.088   0.140  1.0354  1.2646  2.4102
  830MOL0     H 9543   2.801   4.045   0.267 -1.2717  0.0055  0.8335
  830MOL0     H 9544   3.137   3.795   0.351  1.6205  3.9751  1.2389
  830MOL0     H 9545   3.356   3.741   0.418  0.8579  1.0345  0.4675
  830MOL0     H 9546   4.861   2.413   0.181  1.6045 -2.8023 -2.7349
  830MOL0     H 9547   5.079   2.377   0.071 -1.7372  3.3342 -0.3832
  830MOL0     H 9548   5.604   2.121   0.164  0.2656  0.6071 -2.4422
  830MOL0     H 9549   5.830   2.168   0.094  3.1581  2.9711  1.0385
  830MOL0     H 9550   5.975   2.253  -0.061 -0.4738 -3.1244  3.5211
  830MOL0     H 9551   6.050   2.269   0.100 -1.0868 -0.1243 -0.1251
  830MOL0     H 9552   6.180   2.354  -0.156  1.4853  1.2560  1.2957
  830MOL0     H 9553   6.104   2.499  -0.094  2.1610 -0.4732 -0.2037
  830MOL0     H 9554   6.333   2.327   0.014 -0.5773  0.1141 -2.0968
  830MOL0     H 9555   6.243   2.443   0.119 -2.8745 -0.3079 -0.0579
  830MOL0     H 9556   6.364   2.519  -0.156 -2.5318  2.0857 -0.4096
  830MOL0     H 9557   6.316   2.626  -0.026 -1.7469 -1.1425  5.2119
  830MOL0     H 9558   6.727   2.539   0.035  0.4313 -1.3883  1.6836
  830MOL0     H 9559   5.742   2.596   0.108  2.1098 -1.5533 -2.9094
  830MOL0     H 9560   5.503   2.524   0.181 -1.5141 -0.5371 -0.4934
  831MOL0     O 9561   0.293   9.421   2.574 -0.2117 -0.3790  0.7733
  831MOL0     C 9562   0.300   9.490   2.477  0.1889 -0.4737  0.0799
  831MOL0     O 9563   0.194   9.539   2.408  0.4762  0.0406 -0.1090
  831MOL0     C 9564   0.066   9.553   2.454  0.0018  0.5749 -0.4638
  831MOL0     C 9565  -0.007   9.630   2.376 -0.3214 -0.0570  0.0957
  831MOL0     C 9566  -0.131   9.680   2.412  0.2063  0.6316  0.4980
  831MOL0     C 9567  -0.197   9.640   2.531  0.1461  0.0267 -0.9906
  831MOL0     O 9568  -0.332   9.685   2.563  0.0234 -0.3977  0.0251
  831MOL0     C 9569  -0.380   9.623   2.688  1.2467 -0.4289 -0.5467
  831MOL0     C 9570  -0.526   9.653   2.697  0.6656  0.2476  0.3226
  831MOL0     C 9571  -0.583   9.594   2.828 -0.1235 -0.1399  0.3246
  831MOL0     C 9572  -0.736   9.608   2.819 -0.1988  0.4121  0.4963
  831MOL0     C 9573  -0.811   9.562   2.948  0.8488 -0.6430 -0.0785
  831MOL0     C 9574  -0.815   9.669   3.056  0.4583 -0.1873 -0.5690
  831MOL0     C 9575  -0.939   9.667   3.146 -0.0313  0.6703 -0.0073
  831MOL0     C 9576  -1.068   9.701   3.079  0.0987  0.1063  0.2211
  831MOL0     N 9577  -1.172   9.631   3.158 -0.4025 -0.6264  0.3683
  831MOL0     C 9578  -1.245   9.688   3.258  0.4070 -0.0670  1.0571
  831MOL0     C 9579  -1.346   9.606   3.280  0.2401  0.0076 -0.5956
  831MOL0     C 9580  -1.452   9.639   3.383 -0.0248  0.3468  0.2958
  831MOL0     C 9581  -1.539   9.748   3.321 -0.0077 -0.1182  0.4804
  831MOL0     C 9582  -1.642   9.793   3.425  0.0450 -0.2842 -0.0415
  831MOL0     C 9583  -1.763   9.704   3.455  0.4460  0.2811  0.3606
  831MOL0     O 9584  -1.858   9.790   3.525  0.0595  0.3890  0.1552
  831MOL0     C 9585  -1.976   9.748   3.573  0.6486 -0.8775 -0.5717
  831MOL0     C 9586  -2.026   9.617   3.555 -0.7258  0.3185 -0.4986
  831MOL0     C 9587  -2.149   9.578   3.607 -0.3304 -0.5887 -0.1268
  831MOL0     C 9588  -2.224   9.674   3.681 -0.4834  0.0136  0.3341
  831MOL0     C 9589  -2.359   9.644   3.723  0.9328  0.8465 -0.7032
  831MOL0     O 9590  -2.419   9.740   3.807  0.0306  0.0844  0.2134
  831MOL0     C 9591  -2.556   9.724   3.822  0.0196 -0.6214 -0.0948
  831MOL0     C 9592  -2.636   9.699   3.714  0.3310 -0.2309  0.9038
  831MOL0     C 9593  -2.774   9.689   3.722  0.1538  1.1284  0.0434
  831MOL0     C 9594  -2.837   9.700   3.847  0.3940 -0.1351 -0.2160
  831MOL0     O 9595  -2.976   9.686   3.853  0.2702 -0.1951  0.2438
  831MOL0     C 9596  -3.049   9.802   3.885 -0.3747 -0.2956  0.9466
  831MOL0     C 9597  -3.034   9.916   3.790 -0.1408  0.3957 -0.7445
  831MOL0     C 9598  -3.061   9.874   3.640 -0.4666  0.5299 -0.5388
  831MOL0     C 9599  -3.082  10.013   3.568  0.4292  1.1142  0.0426
  831MOL0     C 9600  -3.223  10.070   3.586  0.4601  0.4815 -0.6727
  831MOL0     C 9601  -3.340   9.986   3.552 -0.2626  0.0893 -0.2675
  831MOL0     C 9602  -3.458  10.069   3.514 -1.2116  0.1812 -0.3691
  831MOL0     C 9603  -3.574   9.976   3.455 -0.0770 -0.4136  0.4511
  831MOL0    Cl 9604  -3.666   9.900   3.587  0.1114  0.7170 -0.0332
  831MOL0     C 9605  -2.754   9.737   3.956 -0.0280 -0.0641 -0.4807
  831MOL0     C 9606  -2.612   9.750   3.944 -0.1872 -0.4890 -0.3491
  831MOL0     O 9607  -2.403   9.533   3.696  0.2402  0.6708  0.4434
  831MOL0     C 9608  -2.167   9.801   3.708  0.5451  0.4373  0.0118
  831MOL0     C 9609  -2.046   9.838   3.655  0.1620  0.5171 -0.2995
  831MOL0     N 9610  -1.325   9.494   3.191 -1.0929 -0.9480  0.5319
  831MOL0     N 9611  -1.221   9.509   3.118  0.7499  0.0930  0.5609
  831MOL0     C 9612  -0.114   9.560   2.618 -0.4128  0.4874  0.2464
  831MOL0     C 9613   0.013   9.513   2.580 -0.0847 -0.5014  0.5009
  831MOL0     C 9614   0.439   9.518   2.426  0.1850 -0.4186  0.1572
  831MOL0     C 9615   0.558   9.484   2.492  0.7224 -0.2777 -0.1532
  831MOL0     C 9616   0.675   9.487   2.422 -0.1841  0.2831 -0.4623
  831MOL0     C 9617   0.685   9.552   2.305 -0.5092  0.0194  0.0818
  831MOL0     O 9618   0.819   9.577   2.263  0.0153  0.1302 -0.4055
  831MOL0     C 9619   0.830   9.626   2.128 -0.7428  1.3098 -0.4467
  831MOL0     C 9620   0.979   9.607   2.073  0.3529 -0.3888  0.0773
  831MOL0     C 9621   1.028   9.474   2.045  0.2114 -0.8407 -0.2718
  831MOL0     C 9622   1.183   9.465   2.037 -0.4428  1.4212  0.2578
  831MOL0     C 9623   1.236   9.565   1.945 -0.3784 -0.0028  0.0082
  831MOL0     C 9624   1.272   9.662   1.875 -0.2218  0.3289 -0.6389
  831MOL0     C 9625   0.575   9.598   2.245  0.0839  0.2338 -0.0313
  831MOL0     C 9626   0.451   9.585   2.301  0.8603  0.5455  0.3982
  831MOL0     H 9627   0.046   9.672   2.291  0.3797  0.5208  0.7973
  831MOL0     H 9628  -0.181   9.751   2.347  1.0100  2.7579  2.0728
  831MOL0     H 9629  -0.340   9.675   2.776 -0.9131 -0.8871  0.7661
  831MOL0     H 9630  -0.362   9.515   2.690 -0.9622 -0.8512  1.3598
  831MOL0     H 9631  -0.577   9.620   2.606  3.2700 -2.1134 -0.4325
  831MOL0     H 9632  -0.535   9.762   2.701 -1.2325  0.1159  0.5624
  831MOL0     H 9633  -0.545   9.648   2.915 -0.1166 -0.6593  0.6537
  831MOL0     H 9634  -0.565   9.487   2.847  0.7391  0.2411  1.8184
  831MOL0     H 9635  -0.764   9.708   2.782  2.4766 -0.1539 -3.7503
  831MOL0     H 9636  -0.766   9.548   2.732  0.6095  2.9757 -1.7096
  831MOL0     H 9637  -0.781   9.468   2.995 -0.9049  0.4111  3.4580
  831MOL0     H 9638  -0.910   9.543   2.905  2.0552 -0.6524 -3.0775
  831MOL0     H 9639  -0.826   9.763   3.001  1.6633 -0.1536 -0.7793
  831MOL0     H 9640  -0.719   9.674   3.110  0.9083  2.8173 -1.4675
  831MOL0     H 9641  -0.955   9.567   3.185  1.6128 -0.4949 -2.1087
  831MOL0     H 9642  -0.925   9.721   3.240  1.0432 -1.1147  0.8939
  831MOL0     H 9643  -1.068   9.667   2.975 -1.9132  1.9546 -0.4502
  831MOL0     H 9644  -1.074   9.810   3.089  3.1040  0.2319  1.9268
  831MOL0     H 9645  -1.227   9.785   3.304  2.5224 -0.1891  0.5845
  831MOL0     H 9646  -1.395   9.679   3.467  1.7255 -1.6648  0.1760
  831MOL0     H 9647  -1.514   9.551   3.403  0.7999 -1.0141 -2.5282
  831MOL0     H 9648  -1.579   9.705   3.229  0.2145 -1.3233  0.9236
  831MOL0     H 9649  -1.478   9.829   3.280 -1.3185 -0.8919 -3.3187
  831MOL0     H 9650  -1.595   9.826   3.518  0.6264  3.1179 -1.3943
  831MOL0     H 9651  -1.683   9.882   3.377  0.5117 -1.2021 -2.2673
  831MOL0     H 9652  -1.728   9.622   3.519  0.0126 -0.5754 -0.4728
  831MOL0     H 9653  -1.810   9.660   3.366 -0.8757 -0.9013  1.6011
  831MOL0     H 9654  -1.966   9.555   3.489  0.4135  0.0078  0.7885
  831MOL0     H 9655  -2.189   9.479   3.587  1.2798 -0.8629 -2.3546
  831MOL0     H 9656  -2.591   9.702   3.615  4.1951 -0.2334  2.4787
  831MOL0     H 9657  -2.838   9.673   3.636  0.4723 -0.0696  0.0085
  831MOL0     H 9658  -3.029   9.837   3.986 -1.1802  1.7327  0.4459
  831MOL0     H 9659  -3.155   9.775   3.892 -0.4638 -0.0467  0.5781
  831MOL0     H 9660  -2.938   9.967   3.802  0.4847 -0.5666 -1.5115
  831MOL0     H 9661  -3.114   9.983   3.822 -0.6076 -0.6988  0.4564
  831MOL0     H 9662  -3.149   9.810   3.628 -1.7414  2.0905 -0.0667
  831MOL0     H 9663  -2.967   9.829   3.608 -0.0752  0.5110  0.5769
  831MOL0     H 9664  -3.003  10.083   3.596  0.1148  2.6708 -2.6536
  831MOL0     H 9665  -3.077   9.990   3.462  0.1611 -0.5836  0.3649
  831MOL0     H 9666  -3.232  10.158   3.522 -1.1378  1.7002  1.0802
  831MOL0     H 9667  -3.232  10.108   3.689  0.5627 -1.6117  0.1617
  831MOL0     H 9668  -3.366   9.919   3.634 -2.9950 -2.2327 -2.8040
  831MOL0     H 9669  -3.321   9.928   3.461  1.1637  1.3272 -0.8087
  831MOL0     H 9670  -3.496  10.141   3.587 -1.9624  0.5771 -1.1449
  831MOL0     H 9671  -3.418  10.124   3.429  2.3619 -0.8078  0.4780
  831MOL0     H 9672  -3.532   9.901   3.388  1.0929  0.6250 -0.0392
  831MOL0     H 9673  -3.631  10.045   3.392 -2.6693 -0.5567  2.4985
  831MOL0     H 9674  -2.790   9.751   4.058 -2.2953  1.1504 -1.3663
  831MOL0     H 9675  -2.552   9.772   4.032 -2.0940  2.1406  0.4193
  831MOL0     H 9676  -2.228   9.878   3.755  0.6816  0.5980 -0.0739
  831MOL0     H 9677  -2.012   9.940   3.666 -0.1731  0.7454 -1.2340
  831MOL0     H 9678  -0.146   9.532   2.718  0.7871  2.7676  1.3657
  831MOL0     H 9679   0.072   9.464   2.657  0.5299  1.4355  1.3105
  831MOL0     H 9680   0.559   9.422   2.581 -1.5264 -2.3673 -1.4570
  831MOL0     H 9681   0.761   9.447   2.475 -1.1820 -0.2940  0.7717
  831MOL0     H 9682   0.821   9.734   2.137  1.1878  1.4555  0.2390
  831MOL0     H 9683   0.765   9.567   2.064  0.1762  0.1606 -0.3713
  831MOL0     H 9684   0.989   9.662   1.980  0.6957 -1.6661 -0.6734
  831MOL0     H 9685   1.043   9.655   2.148 -0.6834  1.0400  0.0772
  831MOL0     H 9686   0.982   9.445   1.950 -2.1942 -0.4453  0.7082
  831MOL0     H 9687   0.991   9.408   2.124 -2.1015  1.5889  0.8247
  831MOL0     H 9688   1.237   9.483   2.131  0.4490 -0.6916  0.1927
  831MOL0     H 9689   1.202   9.364   2.002 -1.5104  1.0099  0.8193
  831MOL0     H 9690   1.304   9.750   1.823  4.2595 -0.4519  0.3137
  831MOL0     H 9691   0.582   9.648   2.150 -1.3616 -1.4133 -1.0617
  831MOL0     H 9692   0.361   9.614   2.247  0.7500  0.7083  0.6686
  832MOL0     O 9693   5.197   9.501   0.808  0.9359  0.9293  0.1520
  832MOL0     C 9694   5.233   9.415   0.732  0.5592  1.1075 -1.0824
  832MOL0     O 9695   5.143   9.347   0.656 -0.3143  0.3700  0.1743
  832MOL0     C 9696   5.006   9.354   0.687  0.2514  0.0909  0.6138
  832MOL0     C 9697   4.936   9.304   0.799 -0.1416  0.3466  0.1616
  832MOL0     C 9698   4.799   9.315   0.819  0.1460 -0.4455  0.0069
  832MOL0     C 9699   4.723   9.378   0.713  0.3901 -0.3003 -0.5803
  832MOL0     O 9700   4.589   9.408   0.727  0.6029 -0.1356  0.4671
  832MOL0     C 9701   4.517   9.322   0.820 -0.0519  0.2333  1.3581
  832MOL0     C 9702   4.374   9.365   0.829  0.5845 -0.1642  0.2170
  832MOL0     C 9703   4.312   9.340   0.689  0.1650  1.1530  0.4385
  832MOL0     C 9704   4.174   9.407   0.686 -0.5120  0.6096  0.2245
  832MOL0     C 9705   4.088   9.366   0.566  1.1431 -0.1367  0.5008
  832MOL0     C 9706   3.948   9.418   0.591 -0.0855  0.2730 -0.4185
  832MOL0     C 9707   3.863   9.384   0.474  0.2551  0.4904 -0.4755
  832MOL0     C 9708   3.727   9.436   0.499 -0.0266 -0.6524  0.9234
  832MOL0     N 9709   3.651   9.424   0.368 -0.0170  0.1990 -0.5244
  832MOL0     C 9710   3.580   9.319   0.328 -0.1989 -0.4683  0.0023
  832MOL0     C 9711   3.523   9.346   0.207  0.2475  0.2730  0.1116
  832MOL0     C 9712   3.441   9.258   0.112 -0.1370  0.4424  0.5821
  832MOL0     C 9713   3.307   9.322   0.082  0.5721 -0.6385  0.4097
  832MOL0     C 9714   3.217   9.222   0.009  0.6217  0.3791  1.0434
  832MOL0     C 9715   3.079   9.278  -0.026  0.2457  0.1951  0.2760
  832MOL0     O 9716   2.989   9.281   0.090 -0.0124 -0.8363 -0.3578
  832MOL0     C 9717   2.857   9.331   0.065 -0.9596 -0.7625  0.1365
  832MOL0     C 9718   2.824   9.471   0.064  0.1790 -0.3418  0.0402
  832MOL0     C 9719   2.695   9.506   0.024 -0.0210 -0.0230 -0.3557
  832MOL0     C 9720   2.595   9.404   0.017 -0.0311  1.0173  0.6997
  832MOL0     C 9721   2.451   9.442  -0.004 -0.3059 -0.2538  0.1944
  832MOL0     O 9722   2.354   9.338  -0.012  0.1025 -0.5240 -0.5108
  832MOL0     C 9723   2.224   9.365   0.023 -0.6161 -0.5219  0.0717
  832MOL0     C 9724   2.152   9.243   0.041  0.6184 -0.9229  0.3899
  832MOL0     C 9725   2.019   9.244   0.084 -0.3065  0.4166 -0.2754
  832MOL0     C 9726   1.952   9.364   0.103 -0.1712  0.0985  0.0968
  832MOL0     O 9727   1.822   9.359   0.147  0.2202 -0.5401  0.8122
  832MOL0     C 9728   1.722   9.463   0.123 -0.0659  0.6803  0.3792
  832MOL0     C 9729   1.591   9.395   0.096  1.0697 -0.2768 -0.6839
  832MOL0     C 9730   1.485   9.494   0.045  0.0236  1.1315 -0.0971
  832MOL0     C 9731   1.353   9.423   0.004  0.6008  1.2400  0.0956
  832MOL0     C 9732   1.261   9.528  -0.057  0.4685 -0.2138  0.6631
  832MOL0     C 9733   1.128   9.462  -0.096  0.1191 -0.0406  0.5332
  832MOL0     C 9734   1.047   9.564  -0.166 -0.1023 -0.7483  0.2374
  832MOL0     C 9735   0.939   9.495  -0.255 -0.1009 -0.4380 -0.3747
  832MOL0    Cl 9736   0.883   9.619  -0.367 -0.3803  0.1008  0.0050
  832MOL0     C 9737   2.022   9.489   0.081 -0.6949 -0.3422  0.5104
  832MOL0     C 9738   2.156   9.489   0.042 -0.6941  0.2787  0.9794
  832MOL0     O 9739   2.436   9.552  -0.036 -0.3567 -0.6024 -0.0449
  832MOL0     C 9740   2.626   9.269   0.046 -0.5722 -0.2522  0.7638
  832MOL0     C 9741   2.761   9.235   0.064  0.2235  0.8342 -0.3638
  832MOL0     N 9742   3.566   9.471   0.173  0.4998 -0.4338  0.3154
  832MOL0     N 9743   3.633   9.526   0.273  1.2149  0.0334 -0.7365
  832MOL0     C 9744   4.796   9.416   0.598 -0.6113 -0.2906 -0.2371
  832MOL0     C 9745   4.932   9.409   0.584  0.7469 -0.6701  0.5255
  832MOL0     C 9746   5.372   9.378   0.719 -0.1339 -0.3026  0.8016
  832MOL0     C 9747   5.403   9.266   0.648 -0.1718  0.2279  0.5326
  832MOL0     C 9748   5.535   9.237   0.620 -0.2448  0.3298  0.4004
  832MOL0     C 9749   5.637   9.308   0.676  0.8554  0.4095 -0.5761
  832MOL0     O 9750   5.761   9.264   0.665 -0.3994  0.5839  0.6632
  832MOL0     C 9751   5.792   9.121   0.636  0.5372 -1.0941  0.1872
  832MOL0     C 9752   5.752   9.038   0.759  0.8978  0.3896 -0.1666
  832MOL0     C 9753   5.811   8.903   0.744 -0.0825 -0.1499 -0.1934
  832MOL0     C 9754   5.755   8.814   0.636 -0.3296 -0.5522  1.2994
  832MOL0     C 9755   5.608   8.802   0.660 -0.5830 -0.1763  0.3504
  832MOL0     C 9756   5.488   8.809   0.672  0.2639  0.8285  0.0803
  832MOL0     C 9757   5.604   9.408   0.764 -0.1132  0.4312  0.1372
  832MOL0     C 9758   5.471   9.450   0.776 -0.0149  0.4388 -0.0995
  832MOL0     H 9759   4.990   9.252   0.878  1.5623  4.1200  1.7476
  832MOL0     H 9760   4.754   9.283   0.912 -1.1360  1.7017  0.1979
  832MOL0     H 9761   4.565   9.331   0.918  3.3806  0.6065 -0.2198
  832MOL0     H 9762   4.515   9.217   0.790 -0.0206  0.7422 -0.5176
  832MOL0     H 9763   4.360   9.471   0.848 -3.4003 -0.0770 -2.0470
  832MOL0     H 9764   4.313   9.302   0.895  0.5150  0.6074  0.8945
  832MOL0     H 9765   4.299   9.233   0.671 -0.2178  1.8027 -4.6364
  832MOL0     H 9766   4.378   9.371   0.607 -1.2440 -1.0301 -1.6476
  832MOL0     H 9767   4.135   9.380   0.785 -1.4462 -0.9713 -0.5404
  832MOL0     H 9768   4.191   9.515   0.687  2.4374  0.2239  1.9459
  832MOL0     H 9769   4.086   9.258   0.546  0.9003 -0.5251  2.4044
  832MOL0     H 9770   4.123   9.415   0.475  2.6845 -0.3340  0.9594
  832MOL0     H 9771   3.944   9.527   0.593 -0.7784  0.3797 -3.4537
  832MOL0     H 9772   3.906   9.382   0.685 -3.0792 -0.4502 -1.9085
  832MOL0     H 9773   3.902   9.426   0.381  0.9722  2.7778  0.7739
  832MOL0     H 9774   3.858   9.275   0.472 -2.8704  0.5135  0.1717
  832MOL0     H 9775   3.720   9.542   0.525 -1.0199 -0.0334 -1.6196
  832MOL0     H 9776   3.665   9.383   0.572 -1.8264 -0.8787 -0.7005
  832MOL0     H 9777   3.570   9.230   0.389 -0.2807  0.1857  0.9743
  832MOL0     H 9778   3.423   9.159   0.154  0.5656  0.5011  1.0472
  832MOL0     H 9779   3.502   9.252   0.022 -1.3700 -2.8506 -0.1669
  832MOL0     H 9780   3.325   9.406   0.015  0.6594  0.0951  1.3264
  832MOL0     H 9781   3.252   9.359   0.170 -0.5048 -1.0182 -0.0838
  832MOL0     H 9782   3.277   9.205  -0.081  1.2932  3.6066  0.7785
  832MOL0     H 9783   3.204   9.129   0.066 -1.1497  0.1518  0.3409
  832MOL0     H 9784   3.035   9.204  -0.093  0.5810  0.4763 -0.2640
  832MOL0     H 9785   3.085   9.367  -0.088 -0.4038 -1.2321 -1.9285
  832MOL0     H 9786   2.909   9.537   0.048 -1.7060  2.3439  0.4399
  832MOL0     H 9787   2.681   9.613   0.011  3.4677  0.5386 -0.4773
  832MOL0     H 9788   2.208   9.154   0.014 -2.0024 -1.8198 -2.8966
  832MOL0     H 9789   1.985   9.144   0.109 -0.8563  0.9019  1.0078
  832MOL0     H 9790   1.749   9.512   0.029 -4.8826  1.2230 -1.0020
  832MOL0     H 9791   1.707   9.549   0.189  0.5690 -0.4909  2.1355
  832MOL0     H 9792   1.555   9.346   0.187  0.3123  1.8396  0.2231
  832MOL0     H 9793   1.616   9.323   0.017 -1.1987 -0.9174 -0.8861
  832MOL0     H 9794   1.522   9.551  -0.041 -0.5797  1.5190 -0.1081
  832MOL0     H 9795   1.471   9.578   0.114  0.7969  1.1085  0.1030
  832MOL0     H 9796   1.375   9.341  -0.064 -0.7458  0.5076  0.5091
  832MOL0     H 9797   1.299   9.383   0.090  0.8362  0.3869 -0.1444
  832MOL0     H 9798   1.308   9.565  -0.148  1.4036 -0.7302  0.9198
  832MOL0     H 9799   1.252   9.615   0.009 -0.3651  1.0242 -1.0089
  832MOL0     H 9800   1.073   9.423  -0.010 -1.0400  1.2392  0.4184
  832MOL0     H 9801   1.149   9.374  -0.157  0.5611  1.2556 -1.3030
  832MOL0     H 9802   0.992   9.619  -0.089  1.3407 -2.7870  2.8529
  832MOL0     H 9803   1.112   9.632  -0.222  0.8135 -0.7060  1.3108
  832MOL0     H 9804   0.851   9.458  -0.201 -0.0848 -1.8707 -1.2667
  832MOL0     H 9805   0.969   9.411  -0.318  0.1643 -1.7211  1.3818
  832MOL0     H 9806   1.969   9.584   0.077 -3.4707 -1.8368 -1.3966
  832MOL0     H 9807   2.202   9.585   0.021  2.3954 -1.2086  0.3956
  832MOL0     H 9808   2.557   9.185   0.047  0.8488 -1.5683 -1.3239
  832MOL0     H 9809   2.793   9.135   0.093  1.0307  0.8749 -1.0530
  832MOL0     H 9810   4.729   9.466   0.529 -1.4107  0.9639  1.4059
  832MOL0     H 9811   4.974   9.445   0.491 -0.6749  3.5106  1.3169
  832MOL0     H 9812   5.338   9.204   0.588  1.4431 -2.2327  1.1761
  832MOL0     H 9813   5.563   9.153   0.557  0.6971  0.4091  0.7024
  832MOL0     H 9814   5.902   9.123   0.632  0.5572 -1.3331  0.5888
  832MOL0     H 9815   5.755   9.094   0.537  0.2239  1.6883 -0.5421
  832MOL0     H 9816   5.793   9.085   0.849 -1.0375 -0.0568  1.0050
  832MOL0     H 9817   5.645   9.033   0.782  0.8185 -1.8068 -0.7948
  832MOL0     H 9818   5.810   8.860   0.845 -1.9325  1.4744  0.5623
  832MOL0     H 9819   5.918   8.918   0.726 -0.4333  3.0796 -0.1409
  832MOL0     H 9820   5.776   8.854   0.537  3.4511 -4.7001  0.0500
  832MOL0     H 9821   5.804   8.716   0.638  2.0689  0.5863  2.3358
  832MOL0     H 9822   5.381   8.816   0.669  0.2958  1.2298 -0.3022
  832MOL0     H 9823   5.685   9.448   0.824 -0.0350 -0.5619  0.6991
  832MOL0     H 9824   5.445   9.534   0.841  0.8404  1.0936 -0.5806
  833MOL0     O 9825  10.699   2.963  10.829 -0.4085 -0.5451  0.1633
  833MOL0     C 9826  10.685   3.084  10.816 -0.0106  0.0617 -0.0727
  833MOL0     O 9827  10.789   3.174  10.814  0.8318 -0.5805  0.2152
  833MOL0     C 9828  10.913   3.139  10.832 -0.2660 -0.9723 -0.5148
  833MOL0     C 9829  10.983   3.192  10.947  0.5075 -0.0838  0.7119
  833MOL0     C 9830  11.120   3.176  10.956 -0.7192 -0.2602  0.3929
  833MOL0     C 9831  11.194   3.108  10.854 -0.0288 -0.7115 -0.6632
  833MOL0     O 9832  11.321   3.070  10.868  0.3232  0.0103 -0.3563
  833MOL0     C 9833  11.423   3.090  10.770 -0.0850 -0.2558 -0.2714
  833MOL0     C 9834  11.534   3.175  10.831 -0.7403  0.1462  0.5292
  833MOL0     C 9835  11.636   3.206  10.722  0.5553 -0.0475  0.0992
  833MOL0     C 9836  11.731   3.318  10.762 -0.3963 -0.0113  0.2356
  833MOL0     C 9837  11.835   3.367  10.659 -0.4950  0.2208 -0.0101
  833MOL0     C 9838  11.852   3.520  10.676  0.1610 -0.5400  0.2624
  833MOL0     C 9839  11.968   3.567  10.597 -1.6750  0.3515 -0.3218
  833MOL0     C 9840  12.005   3.715  10.593 -0.0591 -0.1783 -0.5013
  833MOL0     N 9841  11.889   3.803  10.592 -0.0290  0.8156  0.5946
  833MOL0     C 9842  11.800   3.817  10.486 -0.2022 -0.0752 -1.4046
  833MOL0     C 9843  11.739   3.940  10.521  1.4673 -0.2682 -0.2811
  833MOL0     C 9844  11.627   4.014  10.445 -0.1954 -0.2473  0.3984
  833MOL0     C 9845  11.489   3.950  10.423  0.6530 -0.6272  0.0073
  833MOL0     C 9846  11.430   3.876  10.545  0.0587 -0.4793 -0.9784
  833MOL0     C 9847  11.397   3.988  10.649  0.1942 -0.3185 -1.0935
  833MOL0     O 9848  11.376   3.932  10.780  0.4203  0.2992 -0.0723
  833MOL0     C 9849  11.260   3.871  10.806  0.4339 -0.0563  0.3956
  833MOL0     C 9850  11.147   3.890  10.728  0.2707  0.9640  0.3725
  833MOL0     C 9851  11.027   3.824  10.764  0.8430  0.4149 -0.4502
  833MOL0     C 9852  11.007   3.753  10.885 -0.6910 -0.3964 -0.3648
  833MOL0     C 9853  10.881   3.684  10.937 -1.1122 -0.1569  0.1730
  833MOL0     O 9854  10.897   3.587  11.039  0.1030  0.2252  0.0975
  833MOL0     C 9855  10.771   3.533  11.077 -0.9363 -0.3411  0.4431
  833MOL0     C 9856  10.688   3.455  10.997 -0.5661  0.1345 -0.5064
  833MOL0     C 9857  10.572   3.395  11.043  0.6037 -0.4006 -0.2457
  833MOL0     C 9858  10.549   3.399  11.182 -0.1657 -0.2882  0.6635
  833MOL0     O 9859  10.433   3.349  11.227  0.4029  1.1936 -0.8715
  833MOL0     C 9860  10.302   3.384  11.175 -0.2559 -0.1200 -0.0102
  833MOL0     C 9861  10.211   3.264  11.188  0.2911  0.6029  0.0806
  833MOL0     C 9862  10.068   3.310  11.217 -0.0152  0.5367  0.0580
  833MOL0     C 9863   9.962   3.193  11.200 -0.1996  0.2158 -0.1088
  833MOL0     C 9864   9.824   3.252  11.198 -0.3792  0.1015  0.8184
  833MOL0     C 9865   9.779   3.344  11.315 -0.1864  0.5932  0.9706
  833MOL0     C 9866   9.633   3.385  11.299 -0.3501  0.2798 -1.1678
  833MOL0     C 9867   9.598   3.499  11.399 -1.1785  0.4172 -0.5502
  833MOL0    Cl 9868   9.592   3.427  11.570  0.0732 -0.3147 -0.0129
  833MOL0     C 9869  10.634   3.482  11.266 -0.5468  0.3465 -0.5118
  833MOL0     C 9870  10.741   3.545  11.212  0.0756 -0.1735  0.1960
  833MOL0     O 9871  10.774   3.727  10.892 -0.1276  0.5375  0.4629
  833MOL0     C 9872  11.120   3.743  10.961 -0.7803  0.6256  0.3124
  833MOL0     C 9873  11.244   3.802  10.924 -0.2429  0.8697 -0.3242
  833MOL0     N 9874  11.788   3.987  10.640  0.0709 -0.1920 -1.0983
  833MOL0     N 9875  11.872   3.896  10.685  0.2524  0.2059  0.8969
  833MOL0     C 9876  11.127   3.052  10.755  0.4980 -0.7641  0.4742
  833MOL0     C 9877  10.990   3.064  10.739 -0.2256 -0.2653 -0.3960
  833MOL0     C 9878  10.547   3.127  10.802 -0.0852  0.1717  0.1795
  833MOL0     C 9879  10.526   3.253  10.747  0.5289 -1.5104 -0.5682
  833MOL0     C 9880  10.397   3.296  10.720  0.2099 -0.0547 -0.1882
  833MOL0     C 9881  10.289   3.219  10.769  1.1722  0.8657  0.2448
  833MOL0     O 9882  10.153   3.260  10.769 -0.5942 -0.1700  0.4116
  833MOL0     C 9883  10.111   3.398  10.742 -1.2145  0.0162 -1.0369
  833MOL0     C 9884   9.963   3.430  10.761 -0.4539  0.3303 -1.2183
  833MOL0     C 9885   9.861   3.365  10.675 -0.2909  0.0982  1.0497
  833MOL0     C 9886   9.716   3.425  10.700 -0.7104  0.1982 -0.1281
  833MOL0     C 9887   9.619   3.368  10.609  0.3122 -0.5837  0.2539
  833MOL0     C 9888   9.548   3.315  10.529  0.0594 -0.0085  0.1614
  833MOL0     C 9889  10.309   3.092  10.820  1.1522  0.8285  0.0196
  833MOL0     C 9890  10.438   3.042  10.834  0.5628 -0.2970 -0.3370
  833MOL0     H 9891  10.938   3.245  11.030 -0.2346  0.3240  0.0678
  833MOL0     H 9892  11.162   3.216  11.048 -2.8397  2.2755  0.3734
  833MOL0     H 9893  11.389   3.137  10.677  0.4815  1.1579  0.1985
  833MOL0     H 9894  11.465   2.992  10.748 -2.3295 -1.3802  0.2469
  833MOL0     H 9895  11.573   3.123  10.919 -2.4364  1.1637  1.9491
  833MOL0     H 9896  11.499   3.271  10.869 -2.4201  0.6738 -2.1009
  833MOL0     H 9897  11.573   3.232  10.636  3.0421  0.5642 -1.6363
  833MOL0     H 9898  11.682   3.113  10.687 -1.3515 -0.9345 -0.2116
  833MOL0     H 9899  11.663   3.396  10.797 -1.1032 -0.6194  0.2320
  833MOL0     H 9900  11.794   3.286  10.845  1.1631  0.9614 -0.5181
  833MOL0     H 9901  11.812   3.348  10.554  1.4560  0.7793 -0.5747
  833MOL0     H 9902  11.922   3.301  10.663 -0.8611 -0.3107 -0.6603
  833MOL0     H 9903  11.865   3.551  10.780 -0.0761 -0.3571  0.2383
  833MOL0     H 9904  11.761   3.566  10.635  1.3293  0.2172 -1.5999
  833MOL0     H 9905  12.057   3.513  10.631 -0.5846  0.9117 -2.1593
  833MOL0     H 9906  11.962   3.537  10.492  2.5020 -2.1840 -0.0942
  833MOL0     H 9907  12.063   3.731  10.501  2.6405 -2.2706  0.6952
  833MOL0     H 9908  12.064   3.735  10.682  2.1245 -1.6800 -1.5348
  833MOL0     H 9909  11.786   3.758  10.396  0.1324 -1.8301 -0.3488
  833MOL0     H 9910  11.666   4.023  10.343 -1.3520 -0.8933 -0.1277
  833MOL0     H 9911  11.610   4.112  10.491  2.3742  0.1792  0.5349
  833MOL0     H 9912  11.507   3.869  10.352  0.7687  0.3991 -1.1723
  833MOL0     H 9913  11.424   4.017  10.367  0.5561 -0.2187  0.5956
  833MOL0     H 9914  11.334   3.831  10.518  1.9071 -5.0833 -0.7620
  833MOL0     H 9915  11.488   3.795  10.590  2.3935  2.3612  1.5580
  833MOL0     H 9916  11.309   4.048  10.624 -1.1433 -1.2669  1.0593
  833MOL0     H 9917  11.498   4.032  10.652  0.7423 -1.5644 -0.2486
  833MOL0     H 9918  11.139   3.934  10.630  1.5353  1.6360  0.5600
  833MOL0     H 9919  10.940   3.841  10.701 -0.5840  2.7430  1.9364
  833MOL0     H 9920  10.713   3.434  10.893  1.1737 -2.1223  0.2805
  833MOL0     H 9921  10.493   3.358  10.979  0.1285  3.0947 -1.9164
  833MOL0     H 9922  10.307   3.407  11.069 -1.3072  0.4854  0.0588
  833MOL0     H 9923  10.261   3.472  11.225  0.7327  0.5989 -0.4399
  833MOL0     H 9924  10.246   3.205  11.273  0.7563  1.3630  0.4210
  833MOL0     H 9925  10.232   3.199  11.102  2.3260  1.4491 -0.1121
  833MOL0     H 9926  10.051   3.391  11.146 -0.7868 -0.6142 -1.1253
  833MOL0     H 9927  10.070   3.360  11.314  3.7784  0.8357 -0.0417
  833MOL0     H 9928   9.978   3.143  11.105 -0.0608 -0.8368  0.4590
  833MOL0     H 9929   9.982   3.118  11.277  1.0426  1.8842  1.3002
  833MOL0     H 9930   9.753   3.168  11.197  1.5342 -1.6125 -1.1415
  833MOL0     H 9931   9.817   3.309  11.105  1.8773 -1.8319 -0.6524
  833MOL0     H 9932   9.852   3.426  11.311 -0.2257  0.5939 -1.8156
  833MOL0     H 9933   9.793   3.276  11.400 -0.5031 -0.9877 -0.2044
  833MOL0     H 9934   9.610   3.403  11.194  0.7318 -2.2128 -1.8957
  833MOL0     H 9935   9.566   3.305  11.333  1.6075 -0.6277  0.8132
  833MOL0     H 9936   9.503   3.549  11.374 -1.8696  0.2005  1.3977
  833MOL0     H 9937   9.677   3.574  11.400  0.8330 -1.6075  0.7314
  833MOL0     H 9938  10.623   3.489  11.374  0.5407  0.8243 -0.4189
  833MOL0     H 9939  10.818   3.586  11.277 -0.8752 -1.5001  2.2703
  833MOL0     H 9940  11.111   3.696  11.058 -0.2544  2.2071  1.1645
  833MOL0     H 9941  11.335   3.788  10.981  0.4301  0.5375 -1.4453
  833MOL0     H 9942  11.188   3.000  10.682  1.1971 -0.8969  1.1437
  833MOL0     H 9943  10.945   3.012  10.655 -0.4230  1.2779 -1.2739
  833MOL0     H 9944  10.601   3.323  10.710  0.2184 -0.9557 -0.1604
  833MOL0     H 9945  10.373   3.389  10.668 -0.1315 -1.5144 -2.8670
  833MOL0     H 9946  10.144   3.420  10.640  0.1922  0.0008 -0.6048
  833MOL0     H 9947  10.172   3.461  10.808 -1.0982  0.8021 -1.8825
  833MOL0     H 9948   9.936   3.400  10.862  1.9158  2.0586  0.0029
  833MOL0     H 9949   9.945   3.537  10.771 -1.2343  0.0045  1.4509
  833MOL0     H 9950   9.879   3.258  10.690 -0.6001 -0.2728 -1.0175
  833MOL0     H 9951   9.884   3.387  10.571 -0.1457 -3.9809  0.0153
  833MOL0     H 9952   9.682   3.408  10.803  1.5503  1.5355  0.9139
  833MOL0     H 9953   9.727   3.534  10.700  1.7088  0.0017  0.9004
  833MOL0     H 9954   9.480   3.261  10.467  0.4092 -1.4061  0.9393
  833MOL0     H 9955  10.232   3.027  10.862  0.7563  0.4894 -1.1745
  833MOL0     H 9956  10.454   2.953  10.893  0.8627 -1.3778 -1.9797
  834MOL0     O 9957   8.279   8.180   3.608  0.4755 -0.0645  0.2607
  834MOL0     C 9958   8.189   8.097   3.624  0.8016  0.4106  0.1563
  834MOL0     O 9959   8.186   7.999   3.723  0.2768  0.2869 -0.1089
  834MOL0     C 9960   8.288   7.999   3.821 -0.5866  0.6177 -0.0960
  834MOL0     C 9961   8.309   7.875   3.879 -0.7620 -0.1737 -0.7358
  834MOL0     C 9962   8.403   7.853   3.972  0.9698  0.0455  0.1694
  834MOL0     C 9963   8.481   7.959   4.020 -0.4649 -0.2311 -0.0139
  834MOL0     O 9964   8.572   7.925   4.124  0.1625  0.1928  0.1665
  834MOL0     C 9965   8.623   8.039   4.194  0.4495 -0.6385  0.3665
  834MOL0     C 9966   8.729   7.999   4.301  0.0126  0.5054  0.0666
  834MOL0     C 9967   8.666   7.920   4.418  0.1263  0.4083 -0.5762
  834MOL0     C 9968   8.772   7.902   4.532  0.8568 -0.0826 -0.0406
  834MOL0     C 9969   8.723   7.834   4.657 -0.8654  0.1022  0.1669
  834MOL0     C 9970   8.815   7.840   4.785  0.1536  0.1394  0.0606
  834MOL0     C 9971   8.733   7.802   4.914 -0.4630  0.8942  0.1497
  834MOL0     C 9972   8.831   7.773   5.029 -0.0494 -0.6183  0.5636
  834MOL0     N 9973   8.957   7.859   5.031 -0.1347  0.3537 -0.6004
  834MOL0     C 9974   8.939   7.993   5.051  0.3916 -0.0315 -0.2657
  834MOL0     C 9975   9.046   8.052   4.995  0.6849  0.4569  0.1893
  834MOL0     C 9976   9.082   8.205   4.985 -0.6183 -0.1991 -0.2513
  834MOL0     C 9977   9.089   8.261   4.843 -0.3848  0.5150 -0.4524
  834MOL0     C 9978   8.974   8.358   4.806  0.4350  0.7725 -0.2316
  834MOL0     C 9979   8.841   8.280   4.768  0.1151 -0.8970 -0.0889
  834MOL0     O 9980   8.794   8.227   4.887  0.1414 -0.2190  0.0808
  834MOL0     C 9981   8.665   8.169   4.895 -0.0093 -0.4408  0.4304
  834MOL0     C 9982   8.615   8.152   5.019  0.1322 -0.4041 -0.5027
  834MOL0     C 9983   8.486   8.094   5.035  1.0648  0.2836  1.3203
  834MOL0     C 9984   8.411   8.063   4.919 -0.9194  0.1937  0.0737
  834MOL0     C 9985   8.278   7.993   4.938 -0.0756  0.0890 -0.1366
  834MOL0     O 9986   8.250   7.904   4.838  0.4699  0.3938  0.9850
  834MOL0     C 9987   8.136   7.832   4.839  0.5723  0.8384 -0.1933
  834MOL0     C 9988   8.128   7.723   4.937 -0.0829 -0.3339  0.7432
  834MOL0     C 9989   8.017   7.638   4.939 -0.5201 -0.7948 -0.2914
  834MOL0     C 9990   7.901   7.662   4.861 -0.4201 -0.6316  0.4242
  834MOL0     O 9991   7.788   7.587   4.877  1.1240  0.3516  0.4382
  834MOL0     C 9992   7.665   7.634   4.810 -0.2971  0.3068 -0.2788
  834MOL0     C 9993   7.545   7.546   4.853  0.3832  0.4097 -0.3113
  834MOL0     C 9994   7.470   7.590   4.984  0.3959  0.9086  0.4708
  834MOL0     C 9995   7.410   7.724   4.976 -0.4942 -0.2301  0.1188
  834MOL0     C 9996   7.323   7.758   5.108 -0.3629  0.5147 -0.1376
  834MOL0     C 9997   7.318   7.916   5.131  0.7985  0.2718  1.0106
  834MOL0     C 9998   7.237   8.002   5.029 -0.4327 -0.1907  0.8624
  834MOL0     C 9999   7.095   7.952   5.010  0.0113 -0.0342 -0.3828
  834MOL0    Cl10000   7.006   8.073   4.918  0.1520  0.2930 -0.3806
  834MOL0     C10001   7.905   7.775   4.778 -0.2754 -0.3673 -0.6087
  834MOL0     C10002   8.014   7.863   4.774  0.2726 -0.1326 -0.0875
  834MOL0     O10003   8.206   8.017   5.033  0.3979  0.0480 -0.1204
  834MOL0     C10004   8.460   8.085   4.789  0.0065 -0.0242 -0.1540
  834MOL0     C10005   8.583   8.150   4.782 -0.3774  0.0388  0.3914
  834MOL0     N10006   9.134   7.947   4.951 -0.8955 -0.3374  0.3573
  834MOL0     N10007   9.082   7.831   4.967 -0.5100 -0.1590 -0.1311
  834MOL0     C10008   8.464   8.087   3.967  0.2729 -0.4517 -0.1122
  834MOL0     C10009   8.370   8.104   3.866  0.7885  0.1137  0.0012
  834MOL0     C10010   8.085   8.107   3.517  0.2841 -0.6760 -0.0162
  834MOL0     C10011   8.063   8.219   3.445  0.3774 -0.0791  0.3404
  834MOL0     C10012   7.950   8.222   3.362 -0.0682 -1.1033 -0.0105
  834MOL0     C10013   7.860   8.117   3.348 -0.0864 -0.5290 -0.2524
  834MOL0     O10014   7.741   8.122   3.281  0.7470  0.1206 -0.6165
  834MOL0     C10015   7.696   8.243   3.214  0.0339  0.3021  0.2926
  834MOL0     C10016   7.742   8.216   3.070 -0.0757 -0.0010 -0.9950
  834MOL0     C10017   7.729   8.340   2.982 -0.1791 -0.9526 -0.6039
  834MOL0     C10018   7.854   8.437   2.978 -0.1596 -0.1579  0.6628
  834MOL0     C10019   7.863   8.534   3.095 -0.0090 -0.8362  0.2289
  834MOL0     C10020   7.870   8.609   3.194  0.2587  0.1896  0.1466
  834MOL0     C10021   7.889   8.004   3.422  0.4134  0.6918  0.8425
  834MOL0     C10022   7.995   8.001   3.509  0.3978 -0.0793 -0.9686
  834MOL0     H10023   8.245   7.799   3.836 -2.5938 -0.0122  1.5259
  834MOL0     H10024   8.397   7.753   4.014 -2.1304  0.8098  1.9447
  834MOL0     H10025   8.535   8.078   4.245  1.1814 -0.6965  1.7250
  834MOL0     H10026   8.673   8.117   4.136 -0.6368 -0.4094 -0.2838
  834MOL0     H10027   8.776   8.091   4.337 -0.1907  0.1143  1.3987
  834MOL0     H10028   8.798   7.935   4.247  0.6951  1.4473 -0.1901
  834MOL0     H10029   8.627   7.825   4.381 -0.3406  1.1476 -2.1197
  834MOL0     H10030   8.581   7.979   4.455  0.2455 -1.0201  2.2118
  834MOL0     H10031   8.862   7.848   4.499  0.7053  0.5160 -1.4918
  834MOL0     H10032   8.811   7.995   4.574  3.4111 -1.5296  1.1035
  834MOL0     H10033   8.715   7.725   4.646  1.6674  0.0260 -1.7800
  834MOL0     H10034   8.624   7.871   4.683 -1.1950 -0.5975 -0.0660
  834MOL0     H10035   8.850   7.943   4.799 -2.3591  0.9187  1.0649
  834MOL0     H10036   8.903   7.776   4.778 -0.8069 -1.1433 -0.7392
  834MOL0     H10037   8.674   7.894   4.923 -2.0303  0.5061 -3.7589
  834MOL0     H10038   8.668   7.717   4.893 -1.0560  1.4153 -0.1781
  834MOL0     H10039   8.861   7.669   5.015 -2.7855 -1.2507 -1.4148
  834MOL0     H10040   8.781   7.795   5.124  0.9952  3.0103  0.4205
  834MOL0     H10041   8.856   8.042   5.100  0.5898  0.1012 -0.0604
  834MOL0     H10042   9.180   8.214   5.033 -1.2485  0.1098  1.0334
  834MOL0     H10043   9.011   8.269   5.039  1.2652  1.1926  0.7198
  834MOL0     H10044   9.090   8.180   4.770  0.0438  0.1002  0.0089
  834MOL0     H10045   9.185   8.312   4.832 -0.9703  1.7234 -0.1823
  834MOL0     H10046   8.955   8.439   4.877 -0.3666  1.0571 -0.7516
  834MOL0     H10047   9.011   8.393   4.709 -3.9244 -2.1415 -3.3269
  834MOL0     H10048   8.862   8.197   4.699  1.7841 -0.4288 -0.1680
  834MOL0     H10049   8.763   8.345   4.727 -1.6695 -2.1138  1.1789
  834MOL0     H10050   8.680   8.173   5.104  1.7478 -4.6303 -0.4545
  834MOL0     H10051   8.444   8.071   5.133 -2.1169 -0.7330 -0.1491
  834MOL0     H10052   8.215   7.704   5.000  0.4948  2.3095  0.8628
  834MOL0     H10053   8.015   7.560   5.015  2.8970 -0.6943  0.0662
  834MOL0     H10054   7.672   7.627   4.701  0.5619 -0.5080 -0.1831
  834MOL0     H10055   7.648   7.739   4.838 -0.1261  0.5189 -0.9510
  834MOL0     H10056   7.569   7.442   4.875 -0.1596  0.8213  2.6457
  834MOL0     H10057   7.474   7.543   4.770  1.4923 -1.9739 -1.2523
  834MOL0     H10058   7.546   7.595   5.062 -1.1259 -0.1998  2.0839
  834MOL0     H10059   7.405   7.511   5.023  2.4585 -1.7170 -1.0516
  834MOL0     H10060   7.483   7.803   4.958 -1.2138  0.4318  0.0639
  834MOL0     H10061   7.339   7.725   4.894 -1.5358  0.8957  0.9991
  834MOL0     H10062   7.365   7.717   5.200  0.2675  1.3296 -0.0505
  834MOL0     H10063   7.225   7.710   5.101 -0.2386  0.2870 -0.3342
  834MOL0     H10064   7.413   7.968   5.145  0.6122  0.9192 -0.0552
  834MOL0     H10065   7.267   7.934   5.226  0.7612 -0.4422  1.1379
  834MOL0     H10066   7.225   8.103   5.068 -2.1867  0.1575 -0.4872
  834MOL0     H10067   7.289   8.010   4.933  0.6600 -1.0631  1.3593
  834MOL0     H10068   7.050   7.941   5.109 -0.4962  0.6389 -0.5331
  834MOL0     H10069   7.104   7.856   4.957 -0.6466  0.3444 -1.2030
  834MOL0     H10070   7.824   7.823   4.723  1.0500  2.1044 -0.5685
  834MOL0     H10071   8.011   7.947   4.706 -1.8537  0.2924  0.4476
  834MOL0     H10072   8.386   8.074   4.711 -1.0907 -0.3881  0.9043
  834MOL0     H10073   8.617   8.182   4.684  2.5225  0.3293  1.4088
  834MOL0     H10074   8.525   8.174   3.988  1.5646 -0.5965 -2.8561
  834MOL0     H10075   8.355   8.206   3.831  1.2873 -0.9707 -3.8590
  834MOL0     H10076   8.138   8.297   3.453  1.2597 -0.7023 -1.2981
  834MOL0     H10077   7.929   8.316   3.311  1.8858 -0.0648  0.9590
  834MOL0     H10078   7.732   8.337   3.257  0.1789 -1.2556  4.0127
  834MOL0     H10079   7.589   8.266   3.207  0.3374  1.1231 -4.1198
  834MOL0     H10080   7.845   8.178   3.073 -0.0184  0.1693  1.7296
  834MOL0     H10081   7.678   8.137   3.031 -1.9200  0.2474  1.2830
  834MOL0     H10082   7.646   8.407   3.007 -0.9057 -1.9851 -0.1780
  834MOL0     H10083   7.705   8.292   2.887  0.7638 -2.0976 -0.2953
  834MOL0     H10084   7.949   8.383   2.981  0.4860  0.8016 -0.8701
  834MOL0     H10085   7.843   8.501   2.890  1.4182  1.0274  1.2869
  834MOL0     H10086   7.874   8.680   3.273  1.3915 -1.2345  1.4333
  834MOL0     H10087   7.826   7.916   3.425  0.0946  0.9443  2.3316
  834MOL0     H10088   8.001   7.919   3.579 -3.3013  2.4666  2.7927
  835MOL0     O10089   3.847   3.806   7.389  0.3559  0.5327  0.4086
  835MOL0     C10090   3.919   3.903   7.376 -0.8018 -0.1190 -0.0042
  835MOL0     O10091   3.884   4.017   7.312  0.8145 -0.5085 -0.2272
  835MOL0     C10092   3.765   4.034   7.240  0.4317  0.2431 -0.8876
  835MOL0     C10093   3.643   3.982   7.281 -0.5598  0.0004  0.1130
  835MOL0     C10094   3.531   4.003   7.196  0.5444 -0.2976 -1.2746
  835MOL0     C10095   3.546   4.072   7.079  0.0328  0.8483  0.2534
  835MOL0     O10096   3.429   4.086   7.006 -0.5951 -0.2683  0.5871
  835MOL0     C10097   3.443   4.113   6.861 -0.1740 -0.0351 -0.9389
  835MOL0     C10098   3.329   4.048   6.791  0.6391 -0.0847 -0.8302
  835MOL0     C10099   3.197   4.117   6.825 -0.6480  0.0599 -0.5079
  835MOL0     C10100   3.087   4.073   6.734 -0.3950 -0.5726 -0.2331
  835MOL0     C10101   2.949   4.133   6.757 -0.4342 -0.0098 -0.5019
  835MOL0     C10102   2.957   4.281   6.731 -0.2166 -0.1514 -0.0632
  835MOL0     C10103   2.828   4.364   6.744  0.1912  0.1180 -0.1970
  835MOL0     C10104   2.770   4.366   6.883  1.1337  0.6418 -0.5577
  835MOL0     N10105   2.653   4.457   6.884 -0.1667 -0.4328 -0.3875
  835MOL0     C10106   2.660   4.599   6.894 -0.2931  0.1939 -0.6769
  835MOL0     C10107   2.536   4.651   6.900 -0.1520  1.4693  0.0842
  835MOL0     C10108   2.488   4.799   6.919 -0.8878  0.4713  0.0874
  835MOL0     C10109   2.402   4.856   6.809 -0.2970  0.0079 -0.4709
  835MOL0     C10110   2.367   5.006   6.830 -0.0681 -0.1642 -1.0426
  835MOL0     C10111   2.257   5.055   6.734 -0.9256  0.7100  0.3325
  835MOL0     O10112   2.214   5.193   6.759  0.3413  0.2045  0.2900
  835MOL0     C10113   2.110   5.235   6.679  0.1452  0.1052 -0.1481
  835MOL0     C10114   2.097   5.376   6.663 -0.2981 -0.2846 -0.1341
  835MOL0     C10115   2.011   5.434   6.567 -0.4772  0.2556 -0.2119
  835MOL0     C10116   1.931   5.346   6.486 -0.4051  0.2868 -0.5218
  835MOL0     C10117   1.851   5.408   6.377 -0.1742 -0.1296  0.9711
  835MOL0     O10118   1.895   5.523   6.322 -0.0217  0.6163 -0.3596
  835MOL0     C10119   1.810   5.596   6.247 -0.0186 -0.6856 -0.6096
  835MOL0     C10120   1.712   5.545   6.162  0.1551 -0.6654 -0.3595
  835MOL0     C10121   1.622   5.630   6.092 -0.0716  0.1001  0.3122
  835MOL0     C10122   1.628   5.770   6.113  0.2279  0.2241 -0.1833
  835MOL0     O10123   1.529   5.848   6.057  0.7776 -0.0625  0.2869
  835MOL0     C10124   1.466   5.943   6.144 -0.4837 -0.1032  0.0013
  835MOL0     C10125   1.341   5.986   6.084 -0.0009 -0.3997  0.4482
  835MOL0     C10126   1.232   6.034   6.185  0.3904  0.3274  0.0950
  835MOL0     C10127   1.094   6.052   6.121 -0.2005  0.1618  0.5020
  835MOL0     C10128   0.976   6.090   6.213  0.1287 -0.2239  0.2930
  835MOL0     C10129   0.852   6.120   6.137 -0.1298 -0.7433 -0.4772
  835MOL0     C10130   0.738   6.173   6.222  0.8418  0.5260  0.4081
  835MOL0     C10131   0.647   6.272   6.151  0.0970 -0.2854 -0.1850
  835MOL0    Cl10132   0.494   6.296   6.229  0.1827 -0.8613 -0.0196
  835MOL0     C10133   1.739   5.822   6.181  0.1599 -0.4418  0.8581
  835MOL0     C10134   1.832   5.730   6.244  0.1928  0.0127 -0.6748
  835MOL0     O10135   1.743   5.349   6.357 -0.0577 -0.6274  0.1040
  835MOL0     C10136   1.930   5.206   6.509  0.8578 -0.0241 -0.3032
  835MOL0     C10137   2.025   5.155   6.598  0.3911  0.5077 -0.2532
  835MOL0     N10138   2.453   4.534   6.886  0.5705  0.4489  0.5348
  835MOL0     N10139   2.524   4.427   6.884 -0.4942  0.0641 -0.2311
  835MOL0     C10140   3.671   4.119   7.037  0.1890 -0.3377  1.0042
  835MOL0     C10141   3.775   4.099   7.124 -0.2146  0.2052 -0.0235
  835MOL0     C10142   4.064   3.895   7.421 -0.1363 -0.1523 -0.2729
  835MOL0     C10143   4.161   3.985   7.380  0.2223  0.9666  0.0303
  835MOL0     C10144   4.300   3.954   7.401  0.6089  0.4997  0.2838
  835MOL0     C10145   4.342   3.842   7.471  0.1611  0.3358  0.8247
  835MOL0     O10146   4.478   3.835   7.508 -0.1155  0.0463  0.4536
  835MOL0     C10147   4.535   3.723   7.582 -0.3804  0.0189  0.2565
  835MOL0     C10148   4.677   3.746   7.611 -0.7373  0.1737  0.4330
  835MOL0     C10149   4.745   3.619   7.652  0.5660  0.1873 -0.2249
  835MOL0     C10150   4.865   3.639   7.736 -0.2209 -0.4229 -0.1820
  835MOL0     C10151   4.952   3.531   7.776 -0.1415 -0.0405 -0.9328
  835MOL0     C10152   5.015   3.424   7.779 -0.2284 -0.1537  0.7470
  835MOL0     C10153   4.247   3.743   7.516  0.1269 -0.8762 -0.1508
  835MOL0     C10154   4.110   3.777   7.488  0.8255  0.4324  0.1679
  835MOL0     H10155   3.618   3.938   7.377 -2.8623  1.1731  0.1334
  835MOL0     H10156   3.440   3.965   7.241  0.3889  0.8551 -0.5747
  835MOL0     H10157   3.534   4.060   6.830  0.1764  0.1042 -0.1557
  835MOL0     H10158   3.439   4.220   6.838 -1.0116  0.1077 -0.1576
  835MOL0     H10159   3.323   3.946   6.830 -4.0840  0.6777  1.1729
  835MOL0     H10160   3.342   4.051   6.682 -3.0754  0.1028 -1.4090
  835MOL0     H10161   3.212   4.223   6.801  2.0875 -0.1553 -0.0569
  835MOL0     H10162   3.168   4.120   6.930 -1.3854  1.5040 -0.7294
  835MOL0     H10163   3.120   4.104   6.635  0.7558 -0.4667  0.1749
  835MOL0     H10164   3.087   3.963   6.741 -0.4162 -0.4552  2.8126
  835MOL0     H10165   2.911   4.111   6.857 -0.4212  1.8451 -0.0603
  835MOL0     H10166   2.874   4.100   6.684  2.9482 -1.3313 -3.7355
  835MOL0     H10167   3.002   4.303   6.634 -2.5846 -3.6202 -2.1660
  835MOL0     H10168   3.017   4.319   6.814 -1.0502 -1.9776  1.4468
  835MOL0     H10169   2.849   4.463   6.701 -1.7604  0.5013 -0.3542
  835MOL0     H10170   2.746   4.326   6.682 -0.2978 -3.0547  2.1689
  835MOL0     H10171   2.845   4.406   6.951  0.4120 -0.7874  1.1602
  835MOL0     H10172   2.736   4.270   6.922 -0.8407  1.1368 -0.9572
  835MOL0     H10173   2.753   4.654   6.892  0.3868 -0.8458  0.8001
  835MOL0     H10174   2.576   4.863   6.930 -2.1945  2.2966  0.3667
  835MOL0     H10175   2.442   4.798   7.019  3.1307 -1.0661  2.1621
  835MOL0     H10176   2.310   4.797   6.811  0.9373 -2.0197  1.0890
  835MOL0     H10177   2.445   4.837   6.711 -0.4006 -2.6745 -0.0892
  835MOL0     H10178   2.323   5.012   6.930  1.8821 -0.2824 -0.1392
  835MOL0     H10179   2.452   5.073   6.819 -1.0430  1.6210  1.2851
  835MOL0     H10180   2.171   4.990   6.752 -0.4919 -0.9055 -2.6406
  835MOL0     H10181   2.303   5.049   6.635  0.5765  0.8006  1.0024
  835MOL0     H10182   2.171   5.439   6.711  0.4365  0.6910 -2.3710
  835MOL0     H10183   2.019   5.539   6.540 -0.6689  1.1498  2.8481
  835MOL0     H10184   1.686   5.441   6.147  0.9279 -0.8036 -0.7942
  835MOL0     H10185   1.559   5.586   6.017  1.0567  1.1473 -1.3320
  835MOL0     H10186   1.538   6.025   6.158  0.7591 -1.2420  0.5037
  835MOL0     H10187   1.443   5.903   6.243 -2.5595  0.5618 -0.1633
  835MOL0     H10188   1.307   5.898   6.029 -0.2180  0.2509 -0.5045
  835MOL0     H10189   1.369   6.067   6.016 -0.4708 -1.3355 -0.8974
  835MOL0     H10190   1.265   6.123   6.240 -1.0184  2.2167 -1.9391
  835MOL0     H10191   1.224   5.957   6.263  1.0807 -0.0360 -0.1794
  835MOL0     H10192   1.096   6.131   6.046 -2.0420  1.8000  2.0615
  835MOL0     H10193   1.072   5.961   6.066  0.9585 -2.2454  3.7133
  835MOL0     H10194   1.010   6.171   6.279  1.1836  0.2943 -0.8551
  835MOL0     H10195   0.950   6.009   6.281 -1.6270  0.4371  0.4690
  835MOL0     H10196   0.828   6.031   6.077 -2.0332 -0.1293 -0.6932
  835MOL0     H10197   0.880   6.191   6.060  0.3821  2.4173  2.4106
  835MOL0     H10198   0.675   6.092   6.260  0.0707  1.9090  2.2231
  835MOL0     H10199   0.769   6.235   6.307  1.2963  0.4407  0.3058
  835MOL0     H10200   0.623   6.235   6.051 -0.2903 -1.3041  0.2732
  835MOL0     H10201   0.694   6.368   6.126 -0.8099 -0.7029 -4.1625
  835MOL0     H10202   1.741   5.927   6.206 -2.9569 -0.4485  1.5876
  835MOL0     H10203   1.918   5.773   6.293 -0.6506  0.0535  0.8219
  835MOL0     H10204   1.876   5.132   6.450  3.1946 -2.9709  0.9928
  835MOL0     H10205   2.028   5.046   6.601 -0.4175  0.4771 -0.3317
  835MOL0     H10206   3.682   4.176   6.945  3.0956  0.5643  1.8216
  835MOL0     H10207   3.871   4.134   7.088  0.8757 -3.1513 -0.7192
  835MOL0     H10208   4.141   4.081   7.335  3.0891  0.3240 -2.9758
  835MOL0     H10209   4.372   4.025   7.361  0.4487  0.2838 -0.4033
  835MOL0     H10210   4.530   3.638   7.513  0.0879 -0.1685  0.4508
  835MOL0     H10211   4.486   3.704   7.678 -0.8313  2.2950  0.5301
  835MOL0     H10212   4.726   3.785   7.521  0.6379  2.8809  2.1898
  835MOL0     H10213   4.694   3.822   7.688  1.1537 -0.9542  1.1904
  835MOL0     H10214   4.783   3.570   7.561  0.9654  1.7788 -0.9508
  835MOL0     H10215   4.683   3.553   7.713  1.4658 -1.0929 -0.6579
  835MOL0     H10216   4.936   3.701   7.680 -0.3613 -0.3631 -0.2949
  835MOL0     H10217   4.854   3.711   7.818  0.7004 -3.4340  2.7767
  835MOL0     H10218   5.067   3.331   7.782  0.9729  0.3565 -1.7600
  835MOL0     H10219   4.281   3.654   7.569 -0.7635 -1.9831 -1.3703
  835MOL0     H10220   4.034   3.707   7.523 -0.0858  1.5750  0.5582
  836MOL0     O10221   0.330   4.945   1.984 -0.0626 -0.0731  0.2976
  836MOL0     C10222   0.406   4.942   1.882 -0.6829 -0.2258 -0.0782
  836MOL0     O10223   0.373   4.891   1.762  0.0452  0.3079 -0.1656
  836MOL0     C10224   0.269   4.810   1.753  0.1566  0.6044  0.2185
  836MOL0     C10225   0.146   4.857   1.781  0.3077  0.0614  0.7436
  836MOL0     C10226   0.036   4.775   1.735 -0.3391  0.0592 -0.8066
  836MOL0     C10227   0.061   4.638   1.706 -0.2666 -0.3969 -1.6577
  836MOL0     O10228  -0.029   4.546   1.667 -0.0684 -0.5115  0.2375
  836MOL0     C10229  -0.137   4.591   1.595  0.4395  0.7981 -0.3643
  836MOL0     C10230  -0.214   4.469   1.546  1.2833  0.2842 -0.1353
  836MOL0     C10231  -0.265   4.376   1.658  0.8325  0.5110 -0.0148
  836MOL0     C10232  -0.402   4.421   1.700 -0.6351 -0.6018  0.3367
  836MOL0     C10233  -0.464   4.328   1.811 -0.0179  1.4708 -0.2278
  836MOL0     C10234  -0.602   4.376   1.859  0.1589 -0.5626  0.0740
  836MOL0     C10235  -0.673   4.306   1.970 -0.6264  0.6948  0.6172
  836MOL0     C10236  -0.792   4.390   2.025 -0.5734 -0.4935  1.0971
  836MOL0     N10237  -0.856   4.326   2.140  0.6370 -0.1839 -0.1441
  836MOL0     C10238  -0.990   4.306   2.140  0.9496  0.0041 -0.0002
  836MOL0     C10239  -1.019   4.260   2.267 -0.4322 -0.0280 -0.8153
  836MOL0     C10240  -1.153   4.226   2.309  0.6261  0.1958 -0.0713
  836MOL0     C10241  -1.198   4.108   2.227  0.6429  0.0484  0.5813
  836MOL0     C10242  -1.295   4.009   2.301  0.2941  0.5782  0.1077
  836MOL0     C10243  -1.432   4.066   2.335 -0.3248  0.2824 -0.5029
  836MOL0     O10244  -1.509   4.081   2.218  0.0644  0.5015  0.5259
  836MOL0     C10245  -1.645   4.114   2.235 -0.1642 -0.2002  0.5335
  836MOL0     C10246  -1.699   4.153   2.361 -0.1283  0.3142  0.2457
  836MOL0     C10247  -1.836   4.182   2.367  0.1577 -0.2607 -0.7508
  836MOL0     C10248  -1.923   4.174   2.257  0.0141 -0.0231  0.9212
  836MOL0     C10249  -2.066   4.189   2.267 -0.5496  0.8911 -0.4100
  836MOL0     O10250  -2.117   4.200   2.395 -0.0899  0.3343  0.3765
  836MOL0     C10251  -2.245   4.251   2.432  0.3282 -0.3422 -0.0069
  836MOL0     C10252  -2.289   4.259   2.567 -0.8948  0.8355 -0.2991
  836MOL0     C10253  -2.413   4.307   2.599 -0.7322  0.3646 -1.2076
  836MOL0     C10254  -2.500   4.349   2.497 -0.7401  0.7684 -0.5430
  836MOL0     O10255  -2.622   4.412   2.512 -0.0595  0.5019 -0.2961
  836MOL0     C10256  -2.645   4.478   2.644  0.5993  0.6726 -0.3314
  836MOL0     C10257  -2.752   4.588   2.622 -0.7882  0.4099 -0.0587
  836MOL0     C10258  -2.877   4.521   2.557  0.6220 -0.3661  0.1360
  836MOL0     C10259  -2.938   4.403   2.637 -0.5305 -0.0867 -0.1639
  836MOL0     C10260  -3.076   4.356   2.585 -0.1778 -0.0676  0.4489
  836MOL0     C10261  -3.179   4.469   2.599 -0.6165  0.3605  0.8199
  836MOL0     C10262  -3.322   4.425   2.586 -0.4111 -0.1272  0.1685
  836MOL0     C10263  -3.371   4.436   2.447  0.5566  0.4282 -0.5988
  836MOL0    Cl10264  -3.370   4.623   2.399  0.0845  0.3424  0.1729
  836MOL0     C10265  -2.454   4.348   2.358 -0.4009  0.4763 -0.5658
  836MOL0     C10266  -2.332   4.297   2.337 -0.4887 -1.0567 -0.1056
  836MOL0     O10267  -2.131   4.200   2.166 -0.0629 -0.5858 -0.0442
  836MOL0     C10268  -1.859   4.140   2.139  0.2978  0.5589  1.5954
  836MOL0     C10269  -1.726   4.114   2.124 -0.2924 -0.4494  0.0419
  836MOL0     N10270  -0.901   4.242   2.334  0.1314 -0.0685  0.2433
  836MOL0     N10271  -0.805   4.292   2.260  0.5414 -0.8229  0.2114
  836MOL0     C10272   0.187   4.596   1.693 -0.2826  0.2597 -0.3501
  836MOL0     C10273   0.293   4.681   1.723  1.0217 -0.2298  0.9382
  836MOL0     C10274   0.551   4.984   1.887  0.9404  0.9340 -0.2902
  836MOL0     C10275   0.639   4.943   1.777  0.2280  0.1703 -0.0805
  836MOL0     C10276   0.779   4.972   1.785 -0.2184  0.8859 -0.5671
  836MOL0     C10277   0.834   5.045   1.890 -0.1255  0.2689 -0.3973
  836MOL0     O10278   0.960   5.074   1.898 -0.0771  0.8590  0.4624
  836MOL0     C10279   1.031   5.122   1.780  0.4441 -0.2587 -0.4153
  836MOL0     C10280   1.077   5.260   1.817  0.2290 -0.9575  0.2297
  836MOL0     C10281   1.194   5.302   1.724  0.6431  1.9702  0.6564
  836MOL0     C10282   1.258   5.427   1.770  0.3695 -0.7994  0.4778
  836MOL0     C10283   1.376   5.465   1.699  0.0309 -0.5955 -0.5345
  836MOL0     C10284   1.476   5.485   1.626 -0.1750 -1.1285 -0.3552
  836MOL0     C10285   0.743   5.089   1.989  0.6704  0.6613 -0.1031
  836MOL0     C10286   0.604   5.048   2.002 -0.3209 -0.8016 -0.0210
  836MOL0     H10287   0.119   4.956   1.816 -0.6943 -0.8595  2.7783
  836MOL0     H10288  -0.064   4.816   1.744 -1.0012 -1.2520 -1.9456
  836MOL0     H10289  -0.084   4.646   1.516  1.4099  0.5425  0.0964
  836MOL0     H10290  -0.203   4.668   1.636  0.8182  0.5975  0.6574
  836MOL0     H10291  -0.149   4.413   1.479 -1.0394 -1.6136 -0.9715
  836MOL0     H10292  -0.292   4.502   1.477 -0.1268 -0.2647  1.1317
  836MOL0     H10293  -0.197   4.361   1.742  0.6400 -2.0839 -0.2578
  836MOL0     H10294  -0.283   4.281   1.608 -0.8075 -0.5750  2.4187
  836MOL0     H10295  -0.391   4.523   1.737  1.3843 -0.3866 -0.7258
  836MOL0     H10296  -0.468   4.419   1.612 -0.2041  1.3971 -0.0930
  836MOL0     H10297  -0.391   4.306   1.889 -0.7711  0.4966  0.2406
  836MOL0     H10298  -0.479   4.239   1.749 -0.4584  1.2099  0.2396
  836MOL0     H10299  -0.676   4.386   1.778 -1.6537 -0.8815  1.6186
  836MOL0     H10300  -0.578   4.475   1.898  2.2783  0.5398 -3.5215
  836MOL0     H10301  -0.706   4.209   1.931  0.9675  0.3709  0.0207
  836MOL0     H10302  -0.601   4.294   2.052 -1.5382  2.4729  1.7381
  836MOL0     H10303  -0.869   4.427   1.957  0.3844 -0.0329  0.2414
  836MOL0     H10304  -0.753   4.482   2.070 -1.8546  1.0015 -0.7040
  836MOL0     H10305  -1.065   4.326   2.064  0.2786 -2.0656  0.0477
  836MOL0     H10306  -1.227   4.304   2.291  0.7034  0.6467  1.3962
  836MOL0     H10307  -1.152   4.205   2.417 -0.0245  0.1049 -0.0805
  836MOL0     H10308  -1.116   4.041   2.201  0.9154  0.2133  1.0030
  836MOL0     H10309  -1.246   4.136   2.133 -0.4951 -1.9227  0.5238
  836MOL0     H10310  -1.314   3.919   2.243 -0.0317  0.0341  1.0350
  836MOL0     H10311  -1.240   3.983   2.393  1.6418  0.8480 -0.5967
  836MOL0     H10312  -1.424   4.166   2.377 -0.4041  0.2254 -0.3494
  836MOL0     H10313  -1.482   3.998   2.404 -0.4647 -1.9441 -2.6344
  836MOL0     H10314  -1.641   4.172   2.450 -2.5468 -0.6888  2.1755
  836MOL0     H10315  -1.868   4.219   2.464  1.6286  2.1714 -1.1281
  836MOL0     H10316  -2.229   4.218   2.647 -1.5363  2.0907  0.8584
  836MOL0     H10317  -2.452   4.316   2.700 -1.1212 -0.1210 -1.3129
  836MOL0     H10318  -2.548   4.516   2.678  2.3919 -3.3966 -0.2031
  836MOL0     H10319  -2.678   4.396   2.709 -0.4667 -0.8482 -2.6521
  836MOL0     H10320  -2.711   4.669   2.561  0.8284 -0.7464 -0.5621
  836MOL0     H10321  -2.790   4.630   2.716  0.3681  2.5845 -0.5011
  836MOL0     H10322  -2.852   4.482   2.458  1.8851 -2.8530  1.3185
  836MOL0     H10323  -2.951   4.600   2.546  0.5541 -0.1864  1.6767
  836MOL0     H10324  -2.864   4.323   2.633  1.5500  1.7785 -0.5915
  836MOL0     H10325  -2.952   4.431   2.742 -2.8241 -1.9330  0.1073
  836MOL0     H10326  -3.116   4.270   2.640 -1.0588  0.3506  0.4799
  836MOL0     H10327  -3.073   4.332   2.478  0.2304 -0.1122  0.4715
  836MOL0     H10328  -3.136   4.531   2.520  4.3523 -2.7630  0.6219
  836MOL0     H10329  -3.162   4.501   2.702 -0.1389 -0.4252  0.9961
  836MOL0     H10330  -3.325   4.322   2.623  3.3605  0.0906  1.5825
  836MOL0     H10331  -3.389   4.487   2.647 -3.5881 -1.1219 -2.0578
  836MOL0     H10332  -3.478   4.413   2.444  0.5002  0.5000  0.6560
  836MOL0     H10333  -3.317   4.375   2.374  0.7703  1.2127 -1.1090
  836MOL0     H10334  -2.510   4.388   2.274 -0.7547 -0.7749 -0.9456
  836MOL0     H10335  -2.314   4.327   2.234 -1.7163 -0.1281 -0.0626
  836MOL0     H10336  -1.920   4.122   2.051 -2.3650  0.5413  3.2987
  836MOL0     H10337  -1.693   4.084   2.025 -1.4719 -0.9535 -0.2027
  836MOL0     H10338   0.195   4.490   1.674 -0.5973  0.1695  0.0236
  836MOL0     H10339   0.394   4.641   1.722  0.2131 -2.3995  0.3889
  836MOL0     H10340   0.604   4.895   1.686  1.2643  0.2826 -0.5515
  836MOL0     H10341   0.851   4.946   1.708  0.2167  3.0636 -0.9511
  836MOL0     H10342   0.981   5.103   1.684  1.4182  4.5798 -2.1776
  836MOL0     H10343   1.123   5.065   1.769  0.6784 -1.5921  5.3563
  836MOL0     H10344   0.996   5.333   1.810  0.8428 -0.4325 -2.4123
  836MOL0     H10345   1.113   5.263   1.921 -0.0866 -2.2141  0.3939
  836MOL0     H10346   1.167   5.296   1.618  3.4400 -3.6078 -0.1015
  836MOL0     H10347   1.275   5.231   1.743 -0.6088  0.8516  2.1514
  836MOL0     H10348   1.176   5.500   1.771 -0.4327 -1.6128 -1.0602
  836MOL0     H10349   1.294   5.417   1.873  0.4526  0.0284  0.5351
  836MOL0     H10350   1.568   5.499   1.572  0.2892 -0.2774  0.6117
  836MOL0     H10351   0.767   5.166   2.061 -0.8504  1.5711 -0.5266
  836MOL0     H10352   0.547   5.073   2.091  0.4539 -2.2558  0.9272
  837MOL0     O10353   3.459   6.772   1.300  0.0401  0.2282 -0.0224
  837MOL0     C10354   3.477   6.726   1.192 -0.0397  0.1975  0.5548
  837MOL0     O10355   3.374   6.690   1.110 -0.2491 -0.0736  0.2953
  837MOL0     C10356   3.246   6.696   1.157 -0.5922  0.4995 -0.0040
  837MOL0     C10357   3.213   6.632   1.277 -1.3642  0.3186  0.0444
  837MOL0     C10358   3.077   6.629   1.320  0.5944 -0.0813  0.1132
  837MOL0     C10359   2.976   6.683   1.241 -0.1159  0.2046  0.0685
  837MOL0     O10360   2.843   6.693   1.280 -0.3743  0.2670  0.1168
  837MOL0     C10361   2.797   6.651   1.408 -0.8632 -0.5905  0.2475
  837MOL0     C10362   2.648   6.686   1.401  0.0126 -0.2945  0.7489
  837MOL0     C10363   2.561   6.598   1.488 -0.6734  0.0057 -0.3072
  837MOL0     C10364   2.417   6.653   1.511 -0.7112  0.8432 -0.4437
  837MOL0     C10365   2.353   6.578   1.630 -0.5272  0.4631 -0.4897
  837MOL0     C10366   2.302   6.665   1.744 -0.1197  0.1112  0.6466
  837MOL0     C10367   2.421   6.713   1.831  1.1247 -0.0740  0.2203
  837MOL0     C10368   2.421   6.870   1.857 -0.0547  0.6220 -0.9975
  837MOL0     N10369   2.307   6.925   1.934 -0.0100  1.1247  0.1093
  837MOL0     C10370   2.184   6.939   1.879 -0.0209 -0.3019  0.7464
  837MOL0     C10371   2.109   6.976   1.988 -0.3812 -0.0250  0.3494
  837MOL0     C10372   1.968   7.019   1.978  0.0342 -0.4027  0.7257
  837MOL0     C10373   1.870   6.906   2.016  0.8947  0.3810 -0.8224
  837MOL0     C10374   1.882   6.864   2.163  0.0364 -0.2766  0.2625
  837MOL0     C10375   1.796   6.753   2.214  0.1568  0.2702  1.0037
  837MOL0     O10376   1.671   6.765   2.136 -0.1251 -0.0743 -0.6587
  837MOL0     C10377   1.569   6.678   2.159 -0.1957 -0.1325  0.2791
  837MOL0     C10378   1.579   6.542   2.190  0.1014 -0.7465  0.4694
  837MOL0     C10379   1.466   6.456   2.205 -0.6289 -0.4705 -0.3429
  837MOL0     C10380   1.339   6.519   2.209  0.1630 -0.8204 -0.0076
  837MOL0     C10381   1.219   6.439   2.240  0.2520 -0.2632 -0.9028
  837MOL0     O10382   1.088   6.498   2.227  0.4965 -0.1692  0.4528
  837MOL0     C10383   0.981   6.441   2.290  0.5942 -0.8304 -0.3957
  837MOL0     C10384   0.981   6.344   2.396 -0.2207  0.1301  0.1956
  837MOL0     C10385   0.862   6.284   2.440 -0.4592  0.1365 -0.5819
  837MOL0     C10386   0.742   6.327   2.392 -0.4763 -1.2877 -0.6603
  837MOL0     O10387   0.629   6.273   2.436  0.1680 -0.1274 -0.3294
  837MOL0     C10388   0.614   6.231   2.575 -0.3584  0.0632 -0.0706
  837MOL0     C10389   0.457   6.199   2.600  0.5980 -0.6776 -0.0761
  837MOL0     C10390   0.372   6.325   2.602  0.8000  0.3325 -0.5633
  837MOL0     C10391   0.225   6.291   2.640  0.2045  0.3008  0.9902
  837MOL0     C10392   0.149   6.415   2.682  0.2996  0.0553 -0.1661
  837MOL0     C10393   0.008   6.393   2.739  0.0311 -0.5873  0.1109
  837MOL0     C10394  -0.042   6.525   2.787  0.2925  0.0869  0.3890
  837MOL0     C10395  -0.160   6.513   2.880 -0.4229  0.2393 -0.4564
  837MOL0    Cl10396  -0.313   6.451   2.800 -0.6746 -0.1019  0.0187
  837MOL0     C10397   0.732   6.427   2.298 -0.2656 -0.0602  0.4115
  837MOL0     C10398   0.847   6.481   2.243  0.3730  0.6874 -1.0518
  837MOL0     O10399   1.240   6.326   2.273  0.1849 -0.7512  0.2858
  837MOL0     C10400   1.325   6.655   2.177 -0.0723  0.8229  1.3786
  837MOL0     C10401   1.438   6.735   2.139 -0.1858 -0.1287 -1.1621
  837MOL0     N10402   2.198   6.998   2.095  0.0607  0.6158 -0.1104
  837MOL0     N10403   2.314   6.966   2.059 -0.2347  0.7996 -0.4322
  837MOL0     C10404   3.007   6.749   1.124  0.3549 -0.0428 -0.8195
  837MOL0     C10405   3.136   6.754   1.084 -0.7178 -0.4995 -0.1431
  837MOL0     C10406   3.616   6.687   1.155 -0.6116  1.1870  0.6426
  837MOL0     C10407   3.633   6.621   1.026  0.8349 -0.4566 -0.2881
  837MOL0     C10408   3.760   6.582   0.978  0.5826 -0.0416 -0.0201
  837MOL0     C10409   3.879   6.590   1.063  1.0436  0.9117 -1.0105
  837MOL0     O10410   4.010   6.551   1.018 -0.4494 -0.5660 -0.2302
  837MOL0     C10411   4.107   6.499   1.118 -0.3585 -0.2153 -0.4075
  837MOL0     C10412   4.152   6.368   1.059  0.0179  0.0685  0.0313
  837MOL0     C10413   4.211   6.376   0.917 -0.3374 -0.5675  0.7332
  837MOL0     C10414   4.315   6.483   0.889 -0.5337 -0.3500  0.1893
  837MOL0     C10415   4.427   6.468   0.976  0.0881  0.3618  0.0283
  837MOL0     C10416   4.506   6.448   1.060 -0.2390  1.0184  0.3890
  837MOL0     C10417   3.863   6.654   1.194  0.1062 -0.6877 -0.5653
  837MOL0     C10418   3.731   6.696   1.231  0.3791 -0.2733  0.4956
  837MOL0     H10419   3.285   6.569   1.329 -0.4922 -1.5242 -3.0825
  837MOL0     H10420   3.046   6.582   1.413 -1.8898 -1.5358 -1.3589
  837MOL0     H10421   2.840   6.715   1.486  0.7634  1.1129 -1.8950
  837MOL0     H10422   2.816   6.548   1.437 -1.1008  0.0416  2.8731
  837MOL0     H10423   2.619   6.665   1.298 -2.9218 -0.5860  1.5631
  837MOL0     H10424   2.631   6.792   1.422  0.8409  0.3793 -1.6511
  837MOL0     H10425   2.602   6.593   1.590  1.7920  2.4475 -1.0779
  837MOL0     H10426   2.560   6.496   1.449  0.4183 -0.2020  0.1784
  837MOL0     H10427   2.422   6.761   1.526 -0.1619  0.6608  0.8292
  837MOL0     H10428   2.354   6.642   1.422 -1.9525 -0.4732  0.5570
  837MOL0     H10429   2.427   6.504   1.664  1.6587  1.2908 -3.0528
  837MOL0     H10430   2.267   6.523   1.592 -1.3838  1.9457 -0.7656
  837MOL0     H10431   2.237   6.609   1.812  2.3451 -2.8014  0.8139
  837MOL0     H10432   2.243   6.753   1.717 -1.0696 -0.2698  1.4436
  837MOL0     H10433   2.422   6.667   1.930 -3.3446 -1.5313 -0.1802
  837MOL0     H10434   2.517   6.687   1.786  1.1176  0.5270 -0.1592
  837MOL0     H10435   2.414   6.914   1.757  0.8059  0.8409 -0.9742
  837MOL0     H10436   2.523   6.880   1.897 -0.6056  0.7400  0.4440
  837MOL0     H10437   2.155   6.946   1.775  0.9186  0.9012  0.5418
  837MOL0     H10438   1.950   7.062   1.879 -0.4633 -0.1142  0.9398
  837MOL0     H10439   1.952   7.108   2.039 -3.1615  0.0604 -0.6133
  837MOL0     H10440   1.880   6.823   1.946 -1.0659  0.7878 -1.6648
  837MOL0     H10441   1.767   6.942   2.001  0.7356  0.4308  0.3075
  837MOL0     H10442   1.986   6.832   2.177  0.2385  0.2258 -0.0296
  837MOL0     H10443   1.851   6.943   2.233 -0.2685 -1.2118  1.2071
  837MOL0     H10444   1.770   6.769   2.319 -1.5657  2.9583  0.2852
  837MOL0     H10445   1.838   6.655   2.190 -1.8414 -0.6544  1.0829
  837MOL0     H10446   1.678   6.500   2.205  0.4384 -0.4727 -0.9014
  837MOL0     H10447   1.476   6.352   2.235 -0.9802 -0.4238 -0.0503
  837MOL0     H10448   1.074   6.321   2.447 -0.8579  1.5326  2.1252
  837MOL0     H10449   0.878   6.201   2.508 -1.7491  0.5275  0.2372
  837MOL0     H10450   0.636   6.317   2.639 -1.2793  1.1472 -1.1463
  837MOL0     H10451   0.677   6.145   2.596 -1.3515 -0.6415  0.0961
  837MOL0     H10452   0.456   6.151   2.698 -0.5824 -0.7712 -0.1188
  837MOL0     H10453   0.424   6.120   2.532 -1.2797 -1.2498  1.4212
  837MOL0     H10454   0.372   6.365   2.501  3.9941  0.7362 -0.5121
  837MOL0     H10455   0.407   6.398   2.676 -0.1245 -0.3243  0.5450
  837MOL0     H10456   0.182   6.252   2.547 -0.3689  1.4209  0.7624
  837MOL0     H10457   0.217   6.212   2.715  0.5352  0.5115  1.2476
  837MOL0     H10458   0.148   6.488   2.600  0.7372 -0.5561 -0.7254
  837MOL0     H10459   0.208   6.471   2.756  2.1771  2.2273 -3.0814
  837MOL0     H10460   0.003   6.316   2.817  0.1092  0.9987  1.7423
  837MOL0     H10461  -0.055   6.360   2.656  1.2473  0.8026 -1.4249
  837MOL0     H10462   0.035   6.568   2.852 -0.8374  1.2785  1.0094
  837MOL0     H10463  -0.060   6.592   2.702  1.3515 -0.2162 -0.0832
  837MOL0     H10464  -0.195   6.609   2.921 -2.1336 -0.5945  0.1358
  837MOL0     H10465  -0.156   6.445   2.966  1.7763 -0.5827 -1.1510
  837MOL0     H10466   0.630   6.453   2.270 -0.3937 -1.2899 -0.3426
  837MOL0     H10467   0.839   6.553   2.163  0.0507  1.8027 -0.0440
  837MOL0     H10468   1.232   6.710   2.177 -1.4091 -1.3038  1.0629
  837MOL0     H10469   1.434   6.842   2.121  0.8157 -0.0483 -0.9405
  837MOL0     H10470   2.929   6.809   1.079 -0.5520 -0.5960  0.0001
  837MOL0     H10471   3.165   6.819   1.001 -1.0522  0.2212  0.2913
  837MOL0     H10472   3.543   6.617   0.966  1.3386  1.2792 -1.2455
  837MOL0     H10473   3.771   6.542   0.878 -1.9322 -0.3857 -0.2230
  837MOL0     H10474   4.059   6.480   1.215  1.9199 -3.0731  0.3098
  837MOL0     H10475   4.184   6.575   1.132 -2.6046  2.8622 -3.1812
  837MOL0     H10476   4.229   6.333   1.128 -0.5058 -1.9350 -0.3156
  837MOL0     H10477   4.075   6.290   1.070 -0.7525  0.9480  1.0351
  837MOL0     H10478   4.126   6.406   0.855 -1.3140 -0.9273  1.8550
  837MOL0     H10479   4.243   6.278   0.881  1.3113  0.7653 -1.7491
  837MOL0     H10480   4.349   6.479   0.785 -3.5301 -0.2532 -0.8792
  837MOL0     H10481   4.274   6.582   0.911 -1.5526 -1.0226  1.4226
  837MOL0     H10482   4.584   6.436   1.132 -0.1574  2.3095  0.5417
  837MOL0     H10483   3.933   6.679   1.273 -2.4400 -2.1334  2.3423
  837MOL0     H10484   3.738   6.748   1.326  1.0819 -1.6205  1.2229
  838MOL0     O10485   8.840   1.497   4.605  0.2891 -0.0223  0.1946
  838MOL0     C10486   8.862   1.451   4.492  0.5247  0.0057  0.2064
  838MOL0     O10487   8.967   1.362   4.465  0.0601 -0.6207 -0.6440
  838MOL0     C10488   9.070   1.325   4.540 -1.1631  0.8737  0.4731
  838MOL0     C10489   9.156   1.226   4.483 -0.6877 -0.4552  0.3246
  838MOL0     C10490   9.269   1.176   4.546  0.9279 -0.0002 -0.1837
  838MOL0     C10491   9.304   1.223   4.676 -0.1339 -0.5888  0.2825
  838MOL0     O10492   9.415   1.169   4.746 -0.5313 -0.3301  0.1055
  838MOL0     C10493   9.537   1.150   4.673 -0.1246  0.5567 -0.7457
  838MOL0     C10494   9.663   1.151   4.772 -0.5386  0.1979  0.5056
  838MOL0     C10495   9.711   1.289   4.807  0.0731  0.4791  0.6378
  838MOL0     C10496   9.798   1.291   4.934 -0.7321  0.0606 -0.5915
  838MOL0     C10497   9.847   1.435   4.956  0.4562 -0.7845  0.8751
  838MOL0     C10498   9.981   1.430   5.032  0.2950 -0.7862 -0.5082
  838MOL0     C10499   9.945   1.372   5.171 -0.1145  0.2176  0.1455
  838MOL0     C10500  10.050   1.388   5.277  0.0117 -0.0401  0.5874
  838MOL0     N10501  10.001   1.333   5.403 -0.0803 -0.2047  0.6433
  838MOL0     C10502   9.905   1.398   5.476 -0.0061 -0.7443 -0.7830
  838MOL0     C10503   9.834   1.301   5.544  0.4031 -0.1464 -0.5197
  838MOL0     C10504   9.714   1.340   5.636 -1.2295 -0.9091 -0.3027
  838MOL0     C10505   9.588   1.275   5.608 -0.4997  0.0236  0.0112
  838MOL0     C10506   9.557   1.283   5.467  0.2021 -0.4339  0.2180
  838MOL0     C10507   9.420   1.214   5.457 -0.8895 -0.7705  0.4035
  838MOL0     O10508   9.380   1.205   5.319  0.4069 -0.5352 -0.0940
  838MOL0     C10509   9.243   1.206   5.302 -0.1393 -0.2744  0.6371
  838MOL0     C10510   9.141   1.201   5.405  0.1708  0.6813 -0.1230
  838MOL0     C10511   9.009   1.200   5.375 -0.1443  0.1450  0.3349
  838MOL0     C10512   8.974   1.190   5.236 -0.3911  0.3102  0.0419
  838MOL0     C10513   8.831   1.183   5.204  0.3928 -0.1599 -0.1409
  838MOL0     O10514   8.797   1.204   5.073 -0.2354  0.0646 -0.1242
  838MOL0     C10515   8.672   1.168   5.026  0.5112 -0.5150  0.2192
  838MOL0     C10516   8.669   1.092   4.906 -0.7929  0.4291  0.2377
  838MOL0     C10517   8.553   1.040   4.857  0.0407  0.0403  0.1911
  838MOL0     C10518   8.430   1.060   4.916 -0.0821  0.9571  0.6101
  838MOL0     O10519   8.312   1.004   4.871 -0.1321 -0.6166 -0.8911
  838MOL0     C10520   8.239   1.090   4.779 -0.2298  0.4328  0.0981
  838MOL0     C10521   8.150   1.011   4.690  0.2496 -0.3285  0.6303
  838MOL0     C10522   8.034   1.109   4.641 -0.6080 -0.1972 -0.0077
  838MOL0     C10523   7.951   1.030   4.531  0.3031  0.8242  0.4217
  838MOL0     C10524   7.849   1.113   4.454  0.3452 -0.1140 -0.6104
  838MOL0     C10525   7.920   1.210   4.354 -0.1175  0.0622  0.4297
  838MOL0     C10526   7.824   1.306   4.304 -0.2289 -0.1066 -0.0543
  838MOL0     C10527   7.724   1.255   4.207  0.2476  0.6550 -0.6862
  838MOL0    Cl10528   7.795   1.246   4.043 -0.1101 -0.1854 -0.0582
  838MOL0     C10529   8.432   1.129   5.040 -0.1110 -0.2805  0.0488
  838MOL0     C10530   8.549   1.187   5.091  0.7166 -0.5249 -0.0166
  838MOL0     O10531   8.756   1.151   5.295  0.4919 -0.1352 -0.1039
  838MOL0     C10532   9.074   1.185   5.133 -0.0395 -0.9254  0.6833
  838MOL0     C10533   9.203   1.192   5.166 -0.6339  0.0577 -0.9039
  838MOL0     N10534   9.892   1.181   5.514 -0.0057  0.0836 -0.2311
  838MOL0     N10535   9.987   1.196   5.426 -0.3125 -0.2512 -0.5321
  838MOL0     C10536   9.220   1.323   4.736 -0.5923 -0.2370  0.5857
  838MOL0     C10537   9.109   1.373   4.670  0.9360  0.4842 -0.2551
  838MOL0     C10538   8.770   1.493   4.377 -0.1131  0.2286 -0.6630
  838MOL0     C10539   8.788   1.418   4.251  0.4592 -0.0261 -1.2464
  838MOL0     C10540   8.721   1.459   4.136  0.4428 -0.4738 -0.0971
  838MOL0     C10541   8.625   1.561   4.150  0.2027  0.6591 -0.4543
  838MOL0     O10542   8.539   1.594   4.045  0.6744 -0.2196 -0.3561
  838MOL0     C10543   8.566   1.556   3.906 -0.9828  0.1112 -0.1659
  838MOL0     C10544   8.477   1.636   3.804  0.4659  0.5342 -0.4265
  838MOL0     C10545   8.469   1.575   3.665 -0.0495  0.3800 -0.2190
  838MOL0     C10546   8.607   1.543   3.595 -0.1305  0.1055 -0.2307
  838MOL0     C10547   8.590   1.532   3.452 -0.4482 -0.6281  0.7280
  838MOL0     C10548   8.574   1.511   3.338  0.3303  0.4286 -0.3721
  838MOL0     C10549   8.608   1.635   4.271  1.0470 -0.4775  0.4472
  838MOL0     C10550   8.679   1.601   4.385 -0.4398  0.2443 -1.2948
  838MOL0     H10551   9.120   1.183   4.390 -1.9390  0.1013  0.5402
  838MOL0     H10552   9.324   1.098   4.493  0.1409 -1.0550  0.5197
  838MOL0     H10553   9.554   1.233   4.605  2.2358  0.7907  0.0216
  838MOL0     H10554   9.533   1.057   4.615 -0.1864 -0.0808  0.2429
  838MOL0     H10555   9.747   1.089   4.738 -0.8923 -0.9512  1.6343
  838MOL0     H10556   9.626   1.106   4.865 -2.6877 -0.0260 -0.3992
  838MOL0     H10557   9.624   1.350   4.835 -0.5172  0.3419 -0.8287
  838MOL0     H10558   9.761   1.335   4.721 -0.1566 -0.1629  0.1613
  838MOL0     H10559   9.741   1.244   5.015  0.6451 -3.4536 -1.4571
  838MOL0     H10560   9.883   1.228   4.904  0.0643  1.3082 -1.0151
  838MOL0     H10561   9.770   1.502   4.998 -0.3746 -1.9757  1.3028
  838MOL0     H10562   9.862   1.491   4.863  1.1674 -2.1163  0.1669
  838MOL0     H10563  10.022   1.531   5.038 -0.4701 -0.5269  0.5191
  838MOL0     H10564  10.052   1.361   4.984  2.2955  0.8826 -0.0555
  838MOL0     H10565   9.851   1.410   5.214  0.0058 -0.6609  1.2188
  838MOL0     H10566   9.941   1.263   5.166 -0.2183 -0.2095  4.7797
  838MOL0     H10567  10.072   1.495   5.285  0.2838 -0.2523  4.2547
  838MOL0     H10568  10.145   1.338   5.253  1.0221  1.1421  1.9476
  838MOL0     H10569   9.895   1.506   5.479 -0.4952 -0.7875 -0.7630
  838MOL0     H10570   9.689   1.446   5.624 -4.0880 -1.2188  1.7617
  838MOL0     H10571   9.743   1.323   5.740 -1.3021  1.4222  0.1579
  838MOL0     H10572   9.517   1.322   5.678 -0.4150  1.7500 -1.0010
  838MOL0     H10573   9.593   1.168   5.630 -1.4484  0.0762  0.5719
  838MOL0     H10574   9.556   1.385   5.427 -1.9700 -1.9826 -4.3105
  838MOL0     H10575   9.637   1.237   5.408  1.9877  0.2326  1.9577
  838MOL0     H10576   9.342   1.269   5.511 -2.1423 -0.2469 -1.8152
  838MOL0     H10577   9.437   1.112   5.490  2.5520  0.8569  4.6308
  838MOL0     H10578   9.150   1.199   5.513  0.0919 -2.5770 -0.0992
  838MOL0     H10579   8.932   1.188   5.451 -0.5175 -2.5333 -0.3665
  838MOL0     H10580   8.765   1.068   4.862 -0.5982  1.0849  0.2887
  838MOL0     H10581   8.581   0.981   4.771  1.6221  0.9076  0.0694
  838MOL0     H10582   8.311   1.147   4.719  1.1490  0.6770  1.9104
  838MOL0     H10583   8.183   1.170   4.827  0.4387  2.4498 -2.2935
  838MOL0     H10584   8.109   0.919   4.732  0.1928 -1.4974 -1.8034
  838MOL0     H10585   8.219   0.983   4.609  2.2965  1.0046  1.7991
  838MOL0     H10586   8.077   1.194   4.586 -0.5696 -2.0033 -3.0202
  838MOL0     H10587   7.966   1.127   4.724 -0.2742 -0.6345  0.3634
  838MOL0     H10588   8.017   0.980   4.459 -1.2165  1.4254 -1.4501
  838MOL0     H10589   7.903   0.947   4.585 -0.7062  0.3701 -1.1208
  838MOL0     H10590   7.799   1.183   4.521  0.1109  1.5518 -2.4514
  838MOL0     H10591   7.769   1.050   4.414 -1.1479  0.5889  1.1278
  838MOL0     H10592   7.967   1.150   4.275  1.6646 -0.7821  2.0216
  838MOL0     H10593   7.998   1.266   4.407 -1.6924  1.5417  1.2406
  838MOL0     H10594   7.771   1.347   4.390  1.6710 -1.0701  1.6562
  838MOL0     H10595   7.883   1.387   4.261 -0.2216  0.4421  0.9715
  838MOL0     H10596   7.644   1.330   4.204 -0.3240  0.0483 -0.6919
  838MOL0     H10597   7.678   1.165   4.249  1.0922  1.0564  1.2187
  838MOL0     H10598   8.343   1.137   5.102 -2.5827  3.1521 -3.4614
  838MOL0     H10599   8.552   1.238   5.187  0.0228 -1.9565  0.8136
  838MOL0     H10600   9.051   1.176   5.027 -0.1588 -3.9758  0.8880
  838MOL0     H10601   9.269   1.182   5.080 -0.7652  0.5165 -1.0622
  838MOL0     H10602   9.249   1.355   4.836 -1.7975  0.3321  0.7752
  838MOL0     H10603   9.050   1.450   4.719  0.0058 -1.2593  1.4714
  838MOL0     H10604   8.863   1.339   4.250  1.3963  0.8057  0.1708
  838MOL0     H10605   8.734   1.405   4.042 -0.5580  1.5384 -1.4476
  838MOL0     H10606   8.567   1.449   3.888 -0.0184  0.5047 -2.8812
  838MOL0     H10607   8.671   1.577   3.885 -1.1368 -0.5631 -1.7539
  838MOL0     H10608   8.376   1.644   3.846  0.3892 -1.1579 -0.2330
  838MOL0     H10609   8.510   1.740   3.795 -0.7868  1.1682  1.6210
  838MOL0     H10610   8.421   1.644   3.596 -0.1328  1.5961  1.0310
  838MOL0     H10611   8.410   1.483   3.671  0.6437 -0.1094 -0.6362
  838MOL0     H10612   8.667   1.632   3.617  0.5037  0.0612 -1.6541
  838MOL0     H10613   8.662   1.456   3.632  0.5299  1.3866  2.0253
  838MOL0     H10614   8.548   1.488   3.237  0.8130 -0.4472 -0.3032
  838MOL0     H10615   8.539   1.718   4.260  1.5171 -0.3967 -3.3723
  838MOL0     H10616   8.662   1.653   4.479  3.1937 -1.8044  0.7359
  839MOL0     O10617   1.144   8.882   1.189 -0.4681  0.8636  0.2014
  839MOL0     C10618   1.137   9.005   1.203 -0.6857  0.3263  0.4547
  839MOL0     O10619   1.019   9.075   1.200 -0.2204  0.6616 -0.8610
  839MOL0     C10620   0.890   9.023   1.209 -0.9490  0.7126 -1.1422
  839MOL0     C10621   0.865   8.894   1.256 -0.0617  1.7375  0.1707
  839MOL0     C10622   0.738   8.839   1.276  0.7196  0.2733 -0.8124
  839MOL0     C10623   0.625   8.922   1.260  0.7204 -0.2268  0.5159
  839MOL0     O10624   0.491   8.888   1.288  0.0916 -0.1490  0.5746
  839MOL0     C10625   0.406   8.992   1.342 -0.3910  0.0866  0.5301
  839MOL0     C10626   0.310   8.916   1.435 -0.0321 -0.9271  1.2206
  839MOL0     C10627   0.194   9.018   1.467 -0.6831  0.3895  0.1894
  839MOL0     C10628   0.075   8.950   1.530 -0.4652  0.2277  0.1464
  839MOL0     C10629  -0.042   9.038   1.575 -0.0915  0.1033 -0.6610
  839MOL0     C10630  -0.171   8.951   1.601 -0.0191 -0.1960 -0.2691
  839MOL0     C10631  -0.298   9.012   1.683  0.1945 -0.5471  0.3434
  839MOL0     C10632  -0.348   9.143   1.611  0.3792  1.4772  0.0788
  839MOL0     N10633  -0.444   9.219   1.693  0.0269  0.0418 -0.2798
  839MOL0     C10634  -0.579   9.199   1.689 -0.2793  0.7150  0.3678
  839MOL0     C10635  -0.621   9.260   1.801 -0.0669  0.0738 -0.9047
  839MOL0     C10636  -0.765   9.285   1.838  0.7188  0.2460  0.4980
  839MOL0     C10637  -0.792   9.324   1.979  0.2926  0.0801 -0.6315
  839MOL0     C10638  -0.938   9.359   2.020  0.4049 -0.4654  0.0098
  839MOL0     C10639  -1.046   9.283   1.959  0.2434  0.7691  0.7165
  839MOL0     O10640  -1.175   9.332   2.013  0.7732 -0.5389  0.2155
  839MOL0     C10641  -1.261   9.267   2.098  0.0777 -0.2882 -0.0519
  839MOL0     C10642  -1.248   9.129   2.118  0.0587  0.1265  0.1497
  839MOL0     C10643  -1.329   9.065   2.213 -0.2534  0.0664 -0.1474
  839MOL0     C10644  -1.419   9.133   2.294  0.0373 -0.9765 -0.6842
  839MOL0     C10645  -1.504   9.062   2.405  0.5155  0.0528  0.7203
  839MOL0     O10646  -1.560   9.142   2.494 -0.3153  0.0371  0.1025
  839MOL0     C10647  -1.636   9.094   2.591 -0.1508 -0.8930 -0.5964
  839MOL0     C10648  -1.775   9.118   2.599 -0.5882  0.0763  0.6244
  839MOL0     C10649  -1.849   9.068   2.709 -0.4798 -0.5454 -0.0428
  839MOL0     C10650  -1.785   9.005   2.822 -0.1064 -0.2957 -0.2502
  839MOL0     O10651  -1.853   8.947   2.930 -0.7515  0.4600 -0.5516
  839MOL0     C10652  -1.923   9.032   3.023 -0.7461 -0.1159  1.2385
  839MOL0     C10653  -2.026   8.961   3.112  0.4954 -0.3908  1.3521
  839MOL0     C10654  -2.127   8.874   3.026  0.6434  0.1363 -0.6807
  839MOL0     C10655  -2.196   8.951   2.908 -0.5791  0.6091 -0.8843
  839MOL0     C10656  -2.303   9.064   2.933 -0.7811  0.1937 -0.2634
  839MOL0     C10657  -2.410   9.076   2.826 -0.2569 -0.3993 -0.0603
  839MOL0     C10658  -2.511   9.188   2.862  0.4379 -0.1556  0.7197
  839MOL0     C10659  -2.602   9.201   2.731  1.4061 -0.0140 -0.4048
  839MOL0    Cl10660  -2.711   9.054   2.731 -0.4359  0.6718  0.2132
  839MOL0     C10661  -1.648   8.985   2.814 -0.6493  0.4725 -0.0985
  839MOL0     C10662  -1.575   9.026   2.702  0.0597  0.6235  0.5048
  839MOL0     O10663  -1.510   8.937   2.405  0.9509  0.1331  0.4744
  839MOL0     C10664  -1.428   9.275   2.279  1.0577 -0.3418  0.4780
  839MOL0     C10665  -1.345   9.344   2.180 -0.4412  0.6126  0.9255
  839MOL0     N10666  -0.514   9.328   1.861  1.0244 -0.5102 -0.1535
  839MOL0     N10667  -0.406   9.296   1.799  0.0012  0.0603  0.8451
  839MOL0     C10668   0.652   9.040   1.188  0.2788 -0.4332 -0.6386
  839MOL0     C10669   0.781   9.096   1.173  0.1738  0.2385 -0.1356
  839MOL0     C10670   1.266   9.074   1.207 -0.2500 -0.0440 -1.0359
  839MOL0     C10671   1.394   9.007   1.213 -0.2790  0.2211  0.7159
  839MOL0     C10672   1.518   9.067   1.236  0.0570 -0.3924 -0.0715
  839MOL0     C10673   1.520   9.206   1.239 -0.1604 -0.1832 -0.3643
  839MOL0     O10674   1.632   9.286   1.276  0.0511 -1.0136  0.1551
  839MOL0     C10675   1.754   9.226   1.322 -0.0922 -0.2887 -0.2462
  839MOL0     C10676   1.852   9.352   1.304  0.0479  0.2922  0.0717
  839MOL0     C10677   1.816   9.461   1.413 -0.4153  0.5986 -0.7947
  839MOL0     C10678   1.871   9.439   1.554  0.3836  0.1596 -0.3794
  839MOL0     C10679   1.838   9.566   1.630 -0.7961 -0.3974 -0.4595
  839MOL0     C10680   1.830   9.675   1.683 -0.2065 -0.0107  0.8080
  839MOL0     C10681   1.402   9.273   1.237 -0.2741 -0.0762  0.4404
  839MOL0     C10682   1.283   9.213   1.222 -0.5526  0.4142  0.1914
  839MOL0     H10683   0.944   8.825   1.282 -1.1072  0.2392 -0.4825
  839MOL0     H10684   0.723   8.739   1.315  2.2642  1.0122  1.9161
  839MOL0     H10685   0.348   9.042   1.265  0.5134 -1.7112 -1.4315
  839MOL0     H10686   0.462   9.065   1.401  0.4540 -2.6687  3.4242
  839MOL0     H10687   0.357   8.874   1.524 -0.1925 -1.6452  0.9764
  839MOL0     H10688   0.264   8.838   1.374  0.7192 -1.6917  1.6118
  839MOL0     H10689   0.159   9.051   1.369 -2.9572  3.2241  1.7753
  839MOL0     H10690   0.235   9.108   1.514  2.0135  0.6752 -2.4386
  839MOL0     H10691   0.025   8.878   1.465  0.4627  0.0675 -0.3929
  839MOL0     H10692   0.117   8.901   1.619  2.9972 -0.9543 -1.9678
  839MOL0     H10693  -0.064   9.112   1.497  1.0265 -1.5456 -2.6500
  839MOL0     H10694   0.004   9.095   1.656  1.3799  1.2444 -2.2130
  839MOL0     H10695  -0.133   8.858   1.645  0.8940  0.1650 -0.2778
  839MOL0     H10696  -0.217   8.924   1.505  0.6234 -1.3199 -0.2908
  839MOL0     H10697  -0.377   8.937   1.691 -0.1371 -0.3261 -0.7881
  839MOL0     H10698  -0.260   9.032   1.784 -1.0026  1.1576  0.5003
  839MOL0     H10699  -0.384   9.108   1.514 -0.3580 -4.2954  2.0856
  839MOL0     H10700  -0.270   9.219   1.599 -0.5888  2.4285 -0.4216
  839MOL0     H10701  -0.645   9.141   1.626  1.4392 -0.5567 -0.3042
  839MOL0     H10702  -0.821   9.194   1.813 -0.4679  0.7782  1.1202
  839MOL0     H10703  -0.803   9.362   1.771  1.9500 -1.2137 -2.0409
  839MOL0     H10704  -0.740   9.419   1.994  0.4298  0.2091 -1.8041
  839MOL0     H10705  -0.746   9.241   2.034 -0.8064 -0.7974 -0.9993
  839MOL0     H10706  -0.953   9.355   2.128 -3.1716 -3.2956 -0.3852
  839MOL0     H10707  -0.965   9.461   1.991 -0.5445 -0.2742  1.4539
  839MOL0     H10708  -1.028   9.177   1.974 -0.7770  0.0525 -2.2702
  839MOL0     H10709  -1.064   9.293   1.851 -1.4401 -1.6743  0.6755
  839MOL0     H10710  -1.182   9.067   2.059  0.4390  0.4526  0.2317
  839MOL0     H10711  -1.315   8.958   2.224  0.7318  0.2496  0.5668
  839MOL0     H10712  -1.830   9.163   2.518 -0.3094 -2.2971 -0.9785
  839MOL0     H10713  -1.957   9.074   2.712 -0.4266  0.4155  0.2894
  839MOL0     H10714  -1.970   9.111   2.965  1.5849  2.1056  2.1567
  839MOL0     H10715  -1.849   9.079   3.089  1.1115 -0.9567 -0.1357
  839MOL0     H10716  -2.086   9.032   3.169  2.9883  0.5079  3.0143
  839MOL0     H10717  -1.984   8.892   3.185  2.9475  0.0482  0.4487
  839MOL0     H10718  -2.212   8.844   3.088 -0.0881  1.3094 -1.0822
  839MOL0     H10719  -2.084   8.783   2.983 -1.3960 -1.2321 -0.0099
  839MOL0     H10720  -2.116   8.990   2.844  0.3161 -2.4757 -1.8238
  839MOL0     H10721  -2.253   8.874   2.853 -0.9557  0.0001  0.3246
  839MOL0     H10722  -2.252   9.160   2.947 -2.0242  0.7652  0.5300
  839MOL0     H10723  -2.360   9.042   3.023 -1.4294  0.1430 -0.6737
  839MOL0     H10724  -2.460   8.980   2.815 -1.4960  0.2681 -0.4569
  839MOL0     H10725  -2.344   9.104   2.743  3.8008  1.0888  3.3469
  839MOL0     H10726  -2.574   9.154   2.945  1.8891  0.5593  2.1635
  839MOL0     H10727  -2.465   9.283   2.888  1.5862  0.2316 -2.2261
  839MOL0     H10728  -2.536   9.198   2.644 -0.8788 -1.0586 -2.2119
  839MOL0     H10729  -2.674   9.284   2.733 -0.3341 -1.0879 -4.9517
  839MOL0     H10730  -1.600   8.930   2.894 -0.9072  0.6266  0.1640
  839MOL0     H10731  -1.468   9.013   2.693  0.4959  3.7687  0.3194
  839MOL0     H10732  -1.502   9.334   2.333  0.6846  1.4455 -1.8442
  839MOL0     H10733  -1.331   9.451   2.165  0.6837  0.1245 -2.2408
  839MOL0     H10734   0.560   9.092   1.162  0.9128  2.4001  2.1459
  839MOL0     H10735   0.787   9.194   1.127  0.5983  0.1400 -0.2917
  839MOL0     H10736   1.400   8.898   1.218  0.8787  0.3075  1.8683
  839MOL0     H10737   1.608   9.014   1.267  0.9113  1.9789  1.8087
  839MOL0     H10738   1.783   9.144   1.255  0.5957  1.2706 -1.9538
  839MOL0     H10739   1.735   9.184   1.421 -5.4358  1.5180 -0.1873
  839MOL0     H10740   1.957   9.323   1.314 -0.4212 -2.1019 -1.2265
  839MOL0     H10741   1.839   9.396   1.204 -0.1834  1.2098  0.4962
  839MOL0     H10742   1.706   9.461   1.414 -0.4584 -1.7197  0.1595
  839MOL0     H10743   1.852   9.556   1.370  0.5520  0.4008 -0.4433
  839MOL0     H10744   1.832   9.349   1.601  1.5854 -0.3417 -0.3096
  839MOL0     H10745   1.979   9.425   1.546  0.0971 -2.9482 -0.2245
  839MOL0     H10746   1.818   9.776   1.717 -2.9967 -0.5586  1.8041
  839MOL0     H10747   1.406   9.382   1.243  0.2922 -0.0905  0.3837
  839MOL0     H10748   1.195   9.275   1.213  0.0823  1.5069  1.1907
  840MOL0     O10749   2.366   8.312   3.363  0.2008 -0.4390  0.5776
  840MOL0     C10750   2.388   8.211   3.429  0.5823 -0.5526 -1.2387
  840MOL0     O10751   2.298   8.162   3.520  0.1589  0.1292  0.0104
  840MOL0     C10752   2.182   8.238   3.551  0.0450 -0.1503  0.1092
  840MOL0     C10753   2.057   8.229   3.484 -0.7985 -0.3830 -0.6829
  840MOL0     C10754   1.952   8.305   3.532  0.3040  0.0577  0.9830
  840MOL0     C10755   1.957   8.381   3.641 -0.1593 -0.1026 -1.0280
  840MOL0     O10756   1.848   8.441   3.692  0.2416 -0.6426  0.1393
  840MOL0     C10757   1.734   8.362   3.692  0.1345  0.0834 -0.4104
  840MOL0     C10758   1.633   8.424   3.793 -0.3902 -0.5621  0.6080
  840MOL0     C10759   1.492   8.365   3.786 -0.0232  0.1362 -0.6044
  840MOL0     C10760   1.403   8.440   3.892  0.2230  0.4458  0.8529
  840MOL0     C10761   1.252   8.441   3.853 -0.5298  1.1805 -0.4185
  840MOL0     C10762   1.166   8.508   3.956  0.0772  0.3799  0.0784
  840MOL0     C10763   1.020   8.511   3.908  0.1033  0.3582  0.4365
  840MOL0     C10764   0.919   8.566   4.018  0.4861 -0.0260 -0.0514
  840MOL0     N10765   0.778   8.556   3.971 -0.0697  0.3199 -1.1567
  840MOL0     C10766   0.733   8.648   3.884  0.1673 -0.6576  0.4003
  840MOL0     C10767   0.606   8.603   3.848 -0.5280  0.3521  0.1912
  840MOL0     C10768   0.492   8.663   3.760  0.6133  0.1961  0.1979
  840MOL0     C10769   0.479   8.809   3.751 -0.8703  0.3277  0.0220
  840MOL0     C10770   0.332   8.842   3.744  0.4699 -0.8079 -0.6064
  840MOL0     C10771   0.315   8.996   3.740 -0.0134 -0.4412 -0.5687
  840MOL0     O10772   0.375   9.080   3.845 -0.3989  0.6418  0.2871
  840MOL0     C10773   0.302   9.158   3.932 -0.2333  0.7733  0.2796
  840MOL0     C10774   0.342   9.284   3.971  0.6540 -0.2359  0.7714
  840MOL0     C10775   0.267   9.367   4.057  0.5165  0.7512  0.2512
  840MOL0     C10776   0.149   9.312   4.120  1.0485  0.8099 -0.8874
  840MOL0     C10777   0.064   9.393   4.220  0.4039  0.7758  0.6259
  840MOL0     O10778  -0.022   9.316   4.296 -0.1951 -1.0829  0.1528
  840MOL0     C10779  -0.118   9.384   4.377 -0.7437  0.3108 -0.1924
  840MOL0     C10780  -0.065   9.456   4.482  0.8567 -0.6554 -0.4897
  840MOL0     C10781  -0.156   9.530   4.565 -0.1122  0.0510  0.3901
  840MOL0     C10782  -0.292   9.527   4.529 -0.1409  0.6172 -1.0281
  840MOL0     O10783  -0.388   9.608   4.593 -0.1134 -0.0777  0.1663
  840MOL0     C10784  -0.342   9.713   4.681  0.6119 -1.0988 -0.1190
  840MOL0     C10785  -0.457   9.817   4.689  0.7524  0.0674 -0.0768
  840MOL0     C10786  -0.594   9.742   4.697  0.6666 -0.3149  0.8307
  840MOL0     C10787  -0.714   9.829   4.753  0.2720 -0.0255  0.2302
  840MOL0     C10788  -0.848   9.772   4.692 -0.4209  0.4282  0.1780
  840MOL0     C10789  -0.972   9.873   4.714  0.6633 -0.1019 -0.0502
  840MOL0     C10790  -1.088   9.871   4.603 -0.3210  0.6669 -0.4543
  840MOL0     C10791  -1.192   9.969   4.642 -1.1962  0.3902 -0.0430
  840MOL0    Cl10792  -1.338   9.959   4.524  0.2802  0.0923 -0.0218
  840MOL0     C10793  -0.339   9.438   4.429  0.0796 -0.0964 -1.0064
  840MOL0     C10794  -0.249   9.366   4.354  0.8472 -0.8984  0.2287
  840MOL0     O10795   0.075   9.512   4.221  0.3993  0.7327  0.2074
  840MOL0     C10796   0.110   9.181   4.077  0.2105 -0.7545 -0.5134
  840MOL0     C10797   0.189   9.106   3.991 -0.5998  0.1337  0.7416
  840MOL0     N10798   0.588   8.481   3.913  0.0780  0.1836 -0.3809
  840MOL0     N10799   0.686   8.454   3.989 -0.3827 -0.4317  0.3407
  840MOL0     C10800   2.081   8.394   3.701 -0.2680  0.7515 -0.4647
  840MOL0     C10801   2.197   8.328   3.659  0.2981 -0.1710  0.6319
  840MOL0     C10802   2.518   8.140   3.411  0.0299 -0.1534  0.0840
  840MOL0     C10803   2.555   8.029   3.496  0.4878  0.2371 -0.0771
  840MOL0     C10804   2.681   7.979   3.489  0.3271  0.5274  0.2438
  840MOL0     C10805   2.771   8.020   3.388  0.5582 -0.6048 -0.0931
  840MOL0     O10806   2.884   7.957   3.365  0.0638  0.0777  0.6820
  840MOL0     C10807   2.998   8.012   3.435 -0.4274  0.4981  0.3701
  840MOL0     C10808   3.123   8.020   3.344 -0.3773 -0.5545 -0.0485
  840MOL0     C10809   3.209   7.894   3.327  0.1550  0.1717 -0.5206
  840MOL0     C10810   3.337   7.942   3.259  0.0923  0.7019  0.2318
  840MOL0     C10811   3.446   7.840   3.252  0.2923  0.4285 -0.1428
  840MOL0     C10812   3.532   7.753   3.256  0.0082  0.4536  0.0561
  840MOL0     C10813   2.736   8.127   3.300 -0.3594  0.1694 -1.0570
  840MOL0     C10814   2.610   8.183   3.317 -0.0905 -0.2260  0.7823
  840MOL0     H10815   2.052   8.167   3.395  2.8199 -0.0829 -1.2465
  840MOL0     H10816   1.858   8.289   3.480 -0.0931  2.0788  1.0037
  840MOL0     H10817   1.750   8.267   3.743 -3.2975 -0.5018 -0.1265
  840MOL0     H10818   1.684   8.354   3.595  0.5884 -1.7486 -0.5279
  840MOL0     H10819   1.625   8.531   3.771  2.0937  0.2986  3.2480
  840MOL0     H10820   1.670   8.422   3.896 -0.1804 -2.4463  0.5209
  840MOL0     H10821   1.481   8.258   3.809  1.9916  0.2761  1.3388
  840MOL0     H10822   1.455   8.374   3.683 -0.1096 -0.0484 -0.5907
  840MOL0     H10823   1.396   8.378   3.982 -2.8035 -0.3206  0.2213
  840MOL0     H10824   1.432   8.542   3.915 -0.4377  0.7771  0.2689
  840MOL0     H10825   1.217   8.338   3.839 -0.9206  1.6762 -3.9198
  840MOL0     H10826   1.240   8.480   3.751 -0.2740 -0.8886 -1.2831
  840MOL0     H10827   1.196   8.613   3.959  0.1284  0.5176 -2.6904
  840MOL0     H10828   1.172   8.446   4.046  2.6706 -0.9267 -0.8784
  840MOL0     H10829   1.013   8.565   3.814 -1.9032 -1.8301 -0.7938
  840MOL0     H10830   0.988   8.411   3.878  1.4343  0.4679 -1.5221
  840MOL0     H10831   0.943   8.669   4.047 -1.0707  0.6206 -0.9270
  840MOL0     H10832   0.930   8.499   4.103 -1.2096 -1.1950 -0.7150
  840MOL0     H10833   0.779   8.738   3.844 -0.7207 -0.9399 -1.3582
  840MOL0     H10834   0.408   8.616   3.811  0.9029  1.2684  1.7337
  840MOL0     H10835   0.506   8.617   3.662 -0.4688  1.1207 -0.4290
  840MOL0     H10836   0.539   8.842   3.666  2.0140 -2.1165  0.9196
  840MOL0     H10837   0.526   8.849   3.842  1.9378  1.3074 -1.7173
  840MOL0     H10838   0.290   8.796   3.654 -0.1165 -0.0674 -0.7154
  840MOL0     H10839   0.273   8.809   3.831  1.1887  0.8264  0.5679
  840MOL0     H10840   0.209   9.023   3.735  0.0131 -0.4369 -1.2088
  840MOL0     H10841   0.360   9.032   3.647  0.3277  0.3760 -0.0990
  840MOL0     H10842   0.439   9.310   3.929 -0.2501 -0.0011 -1.2927
  840MOL0     H10843   0.292   9.467   4.092  1.3903  1.1636 -1.4234
  840MOL0     H10844   0.038   9.464   4.513  0.2277 -0.6059  1.7583
  840MOL0     H10845  -0.119   9.599   4.641  0.7104  3.0113 -2.4776
  840MOL0     H10846  -0.246   9.755   4.650 -0.1487  0.8721  0.0532
  840MOL0     H10847  -0.345   9.672   4.783 -1.7344  0.0256  0.3369
  840MOL0     H10848  -0.451   9.890   4.608 -0.2388 -0.3020 -0.5052
  840MOL0     H10849  -0.453   9.879   4.779 -1.5822  2.2396 -1.3503
  840MOL0     H10850  -0.584   9.660   4.769  0.8211 -1.5488 -0.5489
  840MOL0     H10851  -0.610   9.709   4.594 -1.4474  2.7336  0.0492
  840MOL0     H10852  -0.716   9.825   4.863 -4.6904  0.7447  0.4213
  840MOL0     H10853  -0.693   9.931   4.722 -0.3613  0.8306  2.4375
  840MOL0     H10854  -0.878   9.674   4.730 -2.1231  1.3059  1.2733
  840MOL0     H10855  -0.836   9.769   4.584 -0.4703 -0.3792  0.1882
  840MOL0     H10856  -0.940   9.978   4.715  0.9957 -0.2044  0.2869
  840MOL0     H10857  -1.012   9.854   4.815  1.1209 -2.7644 -0.2974
  840MOL0     H10858  -1.048   9.901   4.506 -0.9986  2.9505 -0.0871
  840MOL0     H10859  -1.128   9.769   4.595  0.8357 -0.2159  3.0976
  840MOL0     H10860  -1.161  10.074   4.643  0.1050  0.0892  2.7625
  840MOL0     H10861  -1.227   9.953   4.744 -1.3029 -1.6325 -0.3654
  840MOL0     H10862  -0.447   9.437   4.416 -0.2251  2.0545  0.6191
  840MOL0     H10863  -0.284   9.310   4.268 -2.4138  1.5868 -0.2599
  840MOL0     H10864   0.033   9.112   4.108  0.1776 -2.1644 -3.3593
  840MOL0     H10865   0.169   9.002   3.971  2.3468 -0.3665 -0.0362
  840MOL0     H10866   2.089   8.454   3.792 -0.0026  0.1968 -0.1191
  840MOL0     H10867   2.293   8.337   3.709  0.3560  1.0232  0.3480
  840MOL0     H10868   2.477   7.987   3.558 -0.4814  3.7852  1.3622
  840MOL0     H10869   2.705   7.890   3.546  4.1181  1.2116 -0.0012
  840MOL0     H10870   3.021   7.940   3.514  1.7666  1.5075  0.7200
  840MOL0     H10871   2.974   8.110   3.479  0.5669  1.5072 -1.2325
  840MOL0     H10872   3.113   8.068   3.246 -0.1825 -1.3364 -0.4644
  840MOL0     H10873   3.177   8.090   3.408 -1.7011  1.1160 -0.6690
  840MOL0     H10874   3.156   7.822   3.263  2.2833 -0.6395 -1.5036
  840MOL0     H10875   3.231   7.852   3.426 -0.1999  0.3295 -0.3742
  840MOL0     H10876   3.319   7.969   3.154  1.5626 -0.2303 -0.2894
  840MOL0     H10877   3.378   8.030   3.308 -0.5675  0.5373  1.1082
  840MOL0     H10878   3.604   7.676   3.272 -0.0624  0.6805  1.5657
  840MOL0     H10879   2.809   8.175   3.236  1.4343  1.7089  1.9789
  840MOL0     H10880   2.579   8.269   3.260 -1.6554 -0.7806  0.7431
  841MOL0     O10881   0.518   1.997   7.561 -0.5143 -1.2289 -0.1809
  841MOL0     C10882   0.547   1.902   7.636 -0.4503  0.1408 -0.3730
  841MOL0     O10883   0.464   1.817   7.693 -0.5261  0.1629  0.1024
  841MOL0     C10884   0.340   1.810   7.630  0.2270  0.2676  0.8917
  841MOL0     C10885   0.224   1.839   7.700  1.3677 -0.6086  0.5031
  841MOL0     C10886   0.093   1.824   7.655  0.0643  0.2255 -0.2367
  841MOL0     C10887   0.082   1.784   7.520 -0.2770  0.1076 -0.6382
  841MOL0     O10888  -0.051   1.775   7.488  0.3947 -0.3497  0.0088
  841MOL0     C10889  -0.087   1.716   7.362 -0.4618  0.0962  0.5021
  841MOL0     C10890  -0.247   1.714   7.365 -0.3463 -0.4733  0.2537
  841MOL0     C10891  -0.296   1.636   7.248  1.0965  0.2133 -0.2594
  841MOL0     C10892  -0.455   1.618   7.266  0.4114  0.1193 -0.1157
  841MOL0     C10893  -0.513   1.524   7.160 -0.1389  0.3764 -0.8074
  841MOL0     C10894  -0.496   1.379   7.189 -0.6255 -1.0070 -0.7275
  841MOL0     C10895  -0.542   1.290   7.082 -0.4336  0.6886 -0.3815
  841MOL0     C10896  -0.568   1.144   7.130 -0.3290 -0.4363  0.2574
  841MOL0     N10897  -0.453   1.094   7.200  0.1148  0.1556 -0.3807
  841MOL0     C10898  -0.427   1.122   7.333 -0.3189  0.0675 -0.7047
  841MOL0     C10899  -0.299   1.086   7.355 -0.7675  0.3106 -0.5637
  841MOL0     C10900  -0.229   1.110   7.483 -0.2856 -0.0937 -0.5580
  841MOL0     C10901  -0.204   1.263   7.510  0.5801  1.0296  0.0793
  841MOL0     C10902  -0.094   1.323   7.419  0.0447 -0.0674  0.2374
  841MOL0     C10903   0.038   1.251   7.431  0.4011  0.5976  0.5483
  841MOL0     O10904   0.141   1.326   7.367  0.2525  0.0413  0.3171
  841MOL0     C10905   0.266   1.294   7.425  0.1164 -0.1602 -0.1506
  841MOL0     C10906   0.337   1.379   7.512 -0.0427  0.1530  0.3149
  841MOL0     C10907   0.470   1.354   7.558  0.0931  0.1586  0.0803
  841MOL0     C10908   0.525   1.225   7.527  0.6783 -0.2213  0.2868
  841MOL0     C10909   0.663   1.177   7.571  1.7213  0.0285  0.5270
  841MOL0     O10910   0.726   1.244   7.672 -0.5924 -0.3264 -0.1062
  841MOL0     C10911   0.839   1.207   7.742  0.2768  0.0815  0.2670
  841MOL0     C10912   0.868   1.076   7.781 -0.0579 -0.2402 -0.2398
  841MOL0     C10913   1.000   1.048   7.834 -0.4257  0.1378  0.0829
  841MOL0     C10914   1.092   1.152   7.850  0.7351  0.3111  0.7639
  841MOL0     O10915   1.221   1.126   7.902  0.1622  0.2543 -0.1651
  841MOL0     C10916   1.295   1.019   7.842 -1.4871  0.1785 -0.0863
  841MOL0     C10917   1.450   1.032   7.840  0.6072 -0.5624  0.3796
  841MOL0     C10918   1.509   0.980   7.963 -0.6749 -0.6198  0.3906
  841MOL0     C10919   1.659   1.011   7.973  0.3845  1.1733  0.0076
  841MOL0     C10920   1.716   0.974   8.105  0.1659 -0.5596 -0.5775
  841MOL0     C10921   1.860   0.951   8.096 -0.3584 -0.4579 -0.1010
  841MOL0     C10922   1.924   0.919   8.230 -0.7269 -0.1376 -0.2162
  841MOL0     C10923   2.065   0.859   8.230  0.1137 -0.1036 -0.2831
  841MOL0    Cl10924   2.184   0.975   8.161  0.0300  0.3487  0.5130
  841MOL0     C10925   1.058   1.286   7.823  0.5046  0.2534  0.6644
  841MOL0     C10926   0.927   1.312   7.774 -1.0820  0.9125 -1.3270
  841MOL0     O10927   0.698   1.066   7.521 -0.1898 -0.2178 -0.3481
  841MOL0     C10928   0.450   1.149   7.429 -0.7280 -0.2771  0.2551
  841MOL0     C10929   0.321   1.181   7.382 -0.8958 -0.0743 -0.2274
  841MOL0     N10930  -0.257   1.025   7.234  0.0816  0.4960  0.1308
  841MOL0     N10931  -0.344   1.045   7.140 -0.6293  0.4494  0.6172
  841MOL0     C10932   0.201   1.757   7.445 -0.0544  0.1982 -0.0121
  841MOL0     C10933   0.333   1.763   7.502 -0.0350  0.7864 -0.6327
  841MOL0     C10934   0.695   1.878   7.661  0.4848  0.0700  0.0090
  841MOL0     C10935   0.754   1.753   7.687  0.0956 -0.0702  0.3386
  841MOL0     C10936   0.895   1.748   7.713  0.0606  0.6402  0.6420
  841MOL0     C10937   0.964   1.870   7.720 -0.7357  0.2462 -0.1133
  841MOL0     O10938   1.090   1.865   7.776 -0.0183 -0.4552 -0.2654
  841MOL0     C10939   1.186   1.833   7.684  0.3881  0.6517  0.7219
  841MOL0     C10940   1.312   1.818   7.758 -0.8163 -0.4426 -0.4399
  841MOL0     C10941   1.420   1.758   7.681 -1.4164 -0.7173  1.0195
  841MOL0     C10942   1.546   1.719   7.770  0.0286 -0.4071 -1.3354
  841MOL0     C10943   1.681   1.749   7.727  0.1558  0.6773 -0.1875
  841MOL0     C10944   1.797   1.767   7.682  0.4527 -0.5232 -1.4597
  841MOL0     C10945   0.909   1.995   7.681 -0.4837  0.1609 -0.5585
  841MOL0     C10946   0.773   1.993   7.657 -0.0608  0.3844 -0.7340
  841MOL0     H10947   0.238   1.868   7.804  0.7599  0.2399  0.3542
  841MOL0     H10948   0.001   1.847   7.707 -0.4696  1.4278 -1.6384
  841MOL0     H10949  -0.045   1.615   7.352 -2.7399 -0.7444 -1.5796
  841MOL0     H10950  -0.052   1.768   7.273 -1.0378 -2.5143 -1.3705
  841MOL0     H10951  -0.279   1.817   7.346  1.5164 -0.1296 -1.2982
  841MOL0     H10952  -0.284   1.676   7.461 -1.5810  2.1680  0.9352
  841MOL0     H10953  -0.245   1.539   7.247 -0.2084 -0.6372  2.6387
  841MOL0     H10954  -0.284   1.699   7.160 -1.7868  1.2030 -0.0638
  841MOL0     H10955  -0.472   1.589   7.371  0.1755  4.5299  1.2536
  841MOL0     H10956  -0.500   1.717   7.272 -1.8004 -0.8247 -0.1209
  841MOL0     H10957  -0.467   1.550   7.064 -2.5522  2.8485 -1.4294
  841MOL0     H10958  -0.622   1.529   7.150 -0.4228  2.0817  1.9256
  841MOL0     H10959  -0.557   1.355   7.276 -0.1979  1.0185  0.1873
  841MOL0     H10960  -0.392   1.366   7.219 -0.0540  1.2333 -1.5138
  841MOL0     H10961  -0.635   1.335   7.046 -2.4616 -0.5448  2.8106
  841MOL0     H10962  -0.472   1.290   6.998 -1.8928 -1.7139 -1.7183
  841MOL0     H10963  -0.586   1.085   7.040 -2.6842  0.7031 -0.0935
  841MOL0     H10964  -0.665   1.131   7.179 -2.9643 -0.5507 -4.3646
  841MOL0     H10965  -0.504   1.158   7.401 -2.9433 -0.4923 -3.1862
  841MOL0     H10966  -0.143   1.043   7.495 -0.1827 -0.0059 -0.8005
  841MOL0     H10967  -0.300   1.070   7.556  0.7095 -1.0175 -0.0679
  841MOL0     H10968  -0.190   1.279   7.617  1.0639 -1.1202  0.3909
  841MOL0     H10969  -0.291   1.323   7.483  0.6790  1.5265  0.8592
  841MOL0     H10970  -0.127   1.316   7.315 -2.8756  3.9237  0.6518
  841MOL0     H10971  -0.073   1.426   7.449  0.1009 -0.7438  2.7510
  841MOL0     H10972   0.037   1.155   7.379  2.3220  0.6205  0.3655
  841MOL0     H10973   0.061   1.216   7.532 -1.4044 -2.7549 -0.0391
  841MOL0     H10974   0.281   1.467   7.543 -3.1300 -1.4789 -0.2256
  841MOL0     H10975   0.520   1.428   7.619 -1.2703  0.2069  1.1993
  841MOL0     H10976   0.790   1.003   7.762  0.0063 -0.5614  0.6943
  841MOL0     H10977   1.035   0.949   7.861 -0.1549  0.5058  1.1281
  841MOL0     H10978   1.258   1.015   7.739 -1.9521  0.2510  0.0752
  841MOL0     H10979   1.266   0.930   7.898 -1.8342  2.4179  3.5814
  841MOL0     H10980   1.484   1.136   7.827 -0.9203 -0.0742  0.0838
  841MOL0     H10981   1.477   0.966   7.757 -0.2848  0.3654 -0.6860
  841MOL0     H10982   1.483   0.875   7.974  0.0632 -0.8596 -0.1299
  841MOL0     H10983   1.464   1.028   8.051 -0.8785 -1.8537  0.9827
  841MOL0     H10984   1.724   0.960   7.902 -1.4991 -0.7212 -0.4601
  841MOL0     H10985   1.674   1.116   7.944 -0.5466  0.5494 -3.0399
  841MOL0     H10986   1.659   0.889   8.146 -0.1826  0.3992  0.9956
  841MOL0     H10987   1.694   1.050   8.180  4.9788 -0.6002  1.2501
  841MOL0     H10988   1.918   1.035   8.056 -0.3333  0.2462  1.3577
  841MOL0     H10989   1.877   0.866   8.029  0.4313 -1.6025  1.4906
  841MOL0     H10990   1.931   1.008   8.292 -0.0357 -0.0376 -0.4236
  841MOL0     H10991   1.855   0.851   8.281  1.1447 -1.5388  0.6068
  841MOL0     H10992   2.065   0.761   8.182  1.9683 -0.5028  0.4283
  841MOL0     H10993   2.098   0.844   8.333 -1.9259 -1.4343  0.2390
  841MOL0     H10994   1.129   1.369   7.826 -0.5792  1.1639  1.9910
  841MOL0     H10995   0.910   1.417   7.754 -0.3137  1.7587  1.9201
  841MOL0     H10996   0.490   1.051   7.405  2.5525  0.8277  0.7913
  841MOL0     H10997   0.275   1.106   7.317 -0.1222 -2.2768  1.6277
  841MOL0     H10998   0.183   1.719   7.345 -2.1434  1.1078 -0.0259
  841MOL0     H10999   0.424   1.740   7.447  1.3851  0.5708  1.6701
  841MOL0     H11000   0.679   1.675   7.684 -0.5321  0.5506 -1.0218
  841MOL0     H11001   0.952   1.658   7.727  0.7748  0.3963 -2.8662
  841MOL0     H11002   1.185   1.914   7.610 -0.5006 -0.3939 -0.4712
  841MOL0     H11003   1.159   1.738   7.638 -0.5510 -0.4091  3.3194
  841MOL0     H11004   1.341   1.911   7.808  1.2325 -0.8043 -0.8766
  841MOL0     H11005   1.289   1.747   7.838 -2.5544  1.0969  0.4918
  841MOL0     H11006   1.434   1.843   7.613 -1.4432  0.3049  2.2696
  841MOL0     H11007   1.394   1.673   7.617  3.9762 -0.7573 -1.6730
  841MOL0     H11008   1.544   1.766   7.869  3.4227  0.7860 -1.6897
  841MOL0     H11009   1.533   1.611   7.783 -1.4373 -0.2654 -1.4555
  841MOL0     H11010   1.893   1.800   7.648  0.5236  0.4572 -0.3749
  841MOL0     H11011   0.957   2.092   7.678  0.6791 -0.4096 -0.7382
  841MOL0     H11012   0.733   2.090   7.631 -0.5863  0.2942 -0.2720
  842MOL0     O11013   0.706   4.810   3.722 -0.2097 -0.4330  0.0074
  842MOL0     C11014   0.780   4.838   3.815  0.6042  0.4628  0.2516
  842MOL0     O11015   0.757   4.926   3.914  0.2859 -0.7314 -0.2882
  842MOL0     C11016   0.638   4.991   3.912  0.4868  0.7408 -0.7294
  842MOL0     C11017   0.642   5.131   3.897  0.8477 -0.0504  0.4679
  842MOL0     C11018   0.518   5.199   3.897 -0.0111  0.0610  0.0051
  842MOL0     C11019   0.398   5.136   3.935  0.0068  0.3909 -0.0406
  842MOL0     O11020   0.284   5.212   3.929  0.3565  0.0774  0.2621
  842MOL0     C11021   0.153   5.158   3.975 -0.5887  0.6732 -0.2005
  842MOL0     C11022   0.049   5.270   3.984 -0.2324  0.3215 -0.1781
  842MOL0     C11023  -0.065   5.208   4.066  0.1562 -0.3721  0.2927
  842MOL0     C11024  -0.164   5.319   4.088  0.8721 -0.5066 -0.1864
  842MOL0     C11025  -0.268   5.288   4.191  0.3350  0.5629 -0.2120
  842MOL0     C11026  -0.377   5.379   4.231 -0.3054  0.1661  0.6091
  842MOL0     C11027  -0.491   5.309   4.308 -0.3319 -0.5768  0.5835
  842MOL0     C11028  -0.604   5.405   4.329  0.3073 -0.1083 -0.6380
  842MOL0     N11029  -0.720   5.345   4.392  0.7328 -0.0764  0.2496
  842MOL0     C11030  -0.713   5.284   4.518 -0.3747 -0.5048 -0.8505
  842MOL0     C11031  -0.831   5.228   4.543  0.9171  0.5561  0.0933
  842MOL0     C11032  -0.863   5.149   4.665  0.0169 -0.3090  0.6363
  842MOL0     C11033  -1.007   5.130   4.714  1.1854  0.1705  0.5490
  842MOL0     C11034  -1.002   5.026   4.817 -0.2458 -0.3021 -0.1548
  842MOL0     C11035  -1.132   5.007   4.901 -0.1565 -0.2166  1.1713
  842MOL0     O11036  -1.135   4.896   4.992  0.3325  0.5591  0.0254
  842MOL0     C11037  -1.247   4.869   5.070  0.7103 -0.5772 -0.0328
  842MOL0     C11038  -1.380   4.923   5.033 -0.2581  0.5873  0.2000
  842MOL0     C11039  -1.489   4.888   5.118  0.5735  0.5751 -0.0457
  842MOL0     C11040  -1.470   4.812   5.239 -0.4781 -0.2468 -0.1200
  842MOL0     C11041  -1.588   4.764   5.328 -0.2215  0.4358  0.3419
  842MOL0     O11042  -1.713   4.746   5.270  0.3492 -0.2111 -0.2277
  842MOL0     C11043  -1.809   4.678   5.345  0.8546 -0.4205  0.4448
  842MOL0     C11044  -1.905   4.753   5.425 -1.0160 -0.0734 -0.4669
  842MOL0     C11045  -2.012   4.687   5.486  0.0926  0.1451 -1.2422
  842MOL0     C11046  -2.022   4.546   5.471  0.4245 -0.2472  0.6850
  842MOL0     O11047  -2.136   4.465   5.505 -0.2403  0.3210 -0.0437
  842MOL0     C11048  -2.232   4.533   5.581  0.1642 -0.0668 -0.4268
  842MOL0     C11049  -2.327   4.429   5.643  0.5075 -0.3804 -0.6153
  842MOL0     C11050  -2.443   4.499   5.723  0.1578  1.0534 -0.1074
  842MOL0     C11051  -2.518   4.398   5.790 -0.3114 -1.2622  0.2917
  842MOL0     C11052  -2.649   4.454   5.841  0.1831  0.8337  0.2864
  842MOL0     C11053  -2.732   4.354   5.927 -0.0104 -0.0921 -0.3974
  842MOL0     C11054  -2.866   4.414   5.991 -0.5369 -0.3319 -0.4524
  842MOL0     C11055  -2.837   4.509   6.109  0.0378 -0.7598 -0.2137
  842MOL0    Cl11056  -2.998   4.569   6.163  0.1652 -0.0636  0.1164
  842MOL0     C11057  -1.927   4.482   5.394  0.1630  0.4588 -0.3575
  842MOL0     C11058  -1.825   4.542   5.323  0.8574 -0.1485 -0.2079
  842MOL0     O11059  -1.565   4.745   5.449 -0.3541  0.5305 -1.3246
  842MOL0     C11060  -1.337   4.775   5.276  0.5636  0.1086 -0.3833
  842MOL0     C11061  -1.233   4.802   5.195 -0.4464 -0.2639  0.2829
  842MOL0     N11062  -0.913   5.255   4.431  0.4957  0.4181 -0.3983
  842MOL0     N11063  -0.848   5.325   4.340  0.7989  0.0682  0.2305
  842MOL0     C11064   0.394   4.998   3.958  0.2867 -0.6449  0.0403
  842MOL0     C11065   0.520   4.923   3.942  0.6918  0.0537 -0.2506
  842MOL0     C11066   0.912   4.770   3.816 -0.4710 -0.4283  0.5263
  842MOL0     C11067   0.933   4.659   3.735  0.1343 -0.2194 -0.0884
  842MOL0     C11068   1.057   4.593   3.727  0.4583 -0.3782 -0.6315
  842MOL0     C11069   1.158   4.634   3.808 -0.3612  0.6711  0.3517
  842MOL0     O11070   1.278   4.583   3.826 -0.4248  0.7385  0.4658
  842MOL0     C11071   1.310   4.476   3.734  0.7495  0.7185  0.3847
  842MOL0     C11072   1.447   4.421   3.759  0.7664  0.4326 -0.2312
  842MOL0     C11073   1.482   4.379   3.903 -0.4765  0.3398 -0.1440
  842MOL0     C11074   1.597   4.282   3.911  0.0021  0.6438  0.1691
  842MOL0     C11075   1.726   4.321   3.856 -0.3460 -0.3209 -0.3665
  842MOL0     C11076   1.826   4.340   3.795 -0.4560 -0.0362  0.0084
  842MOL0     C11077   1.135   4.738   3.903  0.4410 -0.2621 -0.2413
  842MOL0     C11078   1.015   4.808   3.910  0.8133  0.4429  0.4319
  842MOL0     H11079   0.735   5.187   3.888  0.6600  0.7681  2.9357
  842MOL0     H11080   0.524   5.305   3.876 -2.7345  0.5405  1.1997
  842MOL0     H11081   0.159   5.121   4.078  0.0366  2.7068  0.5600
  842MOL0     H11082   0.117   5.083   3.904 -1.0621  1.1745 -0.4968
  842MOL0     H11083   0.019   5.305   3.885 -1.2186 -1.4938 -0.5664
  842MOL0     H11084   0.088   5.363   4.026  0.2221  0.7186 -1.4450
  842MOL0     H11085  -0.037   5.176   4.167 -2.7041 -1.8065  0.7232
  842MOL0     H11086  -0.100   5.117   4.015 -0.4443  0.3810 -0.6584
  842MOL0     H11087  -0.114   5.410   4.124  1.3886 -0.7504 -0.2840
  842MOL0     H11088  -0.209   5.341   3.991  0.7695 -0.9636 -0.2450
  842MOL0     H11089  -0.221   5.266   4.287 -2.2259 -1.5297  0.6810
  842MOL0     H11090  -0.323   5.198   4.163 -1.1910  1.3188  0.2472
  842MOL0     H11091  -0.414   5.427   4.140  0.8158 -0.2696 -0.0874
  842MOL0     H11092  -0.329   5.460   4.286  3.3217 -1.2150 -0.2264
  842MOL0     H11093  -0.526   5.225   4.248 -1.9945  1.0068 -0.7730
  842MOL0     H11094  -0.460   5.282   4.410 -1.3377  1.7123  1.5699
  842MOL0     H11095  -0.640   5.444   4.234  0.4698  0.1977 -0.5747
  842MOL0     H11096  -0.562   5.488   4.386 -0.8967  0.2548 -0.2743
  842MOL0     H11097  -0.636   5.299   4.594 -2.6329 -0.0022  1.4980
  842MOL0     H11098  -0.809   5.200   4.746 -1.2792  1.2145  0.6072
  842MOL0     H11099  -0.820   5.051   4.642  1.6593  0.8358 -1.4972
  842MOL0     H11100  -1.074   5.090   4.638  0.1024 -1.8017  2.4203
  842MOL0     H11101  -1.055   5.219   4.755 -0.6649 -1.9852  3.5503
  842MOL0     H11102  -0.969   4.935   4.767  0.9454 -0.1953  0.4078
  842MOL0     H11103  -0.918   5.044   4.885 -1.3568 -0.4249  1.3194
  842MOL0     H11104  -1.218   5.002   4.834  1.5114  0.1787 -1.1138
  842MOL0     H11105  -1.144   5.097   4.961 -0.8866  1.8950 -1.9214
  842MOL0     H11106  -1.398   4.977   4.941  1.6286  1.1395  0.1052
  842MOL0     H11107  -1.588   4.917   5.085  0.6369  1.6294  0.6450
  842MOL0     H11108  -1.875   4.855   5.447  3.3364 -1.5002  1.3137
  842MOL0     H11109  -2.072   4.746   5.555  1.2901 -1.1517  1.0234
  842MOL0     H11110  -2.290   4.604   5.521 -1.1984  0.0014  0.8845
  842MOL0     H11111  -2.188   4.586   5.666  1.7422 -1.0756 -0.5770
  842MOL0     H11112  -2.271   4.374   5.720  0.4104  1.2164  0.6608
  842MOL0     H11113  -2.354   4.361   5.562  2.0195 -0.3373 -1.1966
  842MOL0     H11114  -2.492   4.556   5.644  1.5143  1.5788 -0.6122
  842MOL0     H11115  -2.400   4.569   5.796 -1.4298  4.2478 -2.0120
  842MOL0     H11116  -2.544   4.309   5.731  1.7059 -0.1101 -2.5323
  842MOL0     H11117  -2.464   4.358   5.877  1.9900  0.0494 -0.4619
  842MOL0     H11118  -2.709   4.482   5.754  0.6629  1.0914  0.0344
  842MOL0     H11119  -2.629   4.542   5.903  1.9346  1.2811 -0.8394
  842MOL0     H11120  -2.667   4.338   6.014  0.3353  1.2049 -0.3989
  842MOL0     H11121  -2.754   4.259   5.877  0.4207 -1.7509  2.3567
  842MOL0     H11122  -2.920   4.463   5.909  0.0892  0.0556 -0.6412
  842MOL0     H11123  -2.931   4.337   6.032 -0.7890 -0.9914 -2.0033
  842MOL0     H11124  -2.787   4.602   6.082 -1.7554  1.5992  3.6890
  842MOL0     H11125  -2.775   4.453   6.180 -0.3661 -0.7444  0.1526
  842MOL0     H11126  -1.941   4.377   5.373  1.8053  0.2630 -0.6074
  842MOL0     H11127  -1.755   4.497   5.253  3.0112  1.6835  0.6475
  842MOL0     H11128  -1.318   4.726   5.371 -1.2385  0.1965  0.0621
  842MOL0     H11129  -1.133   4.782   5.233 -0.5924 -2.2134 -0.2964
  842MOL0     H11130   0.303   4.950   3.993 -0.2230 -0.3237 -0.8104
  842MOL0     H11131   0.532   4.816   3.949  0.3224 -0.0841 -1.5535
  842MOL0     H11132   0.863   4.629   3.658  2.7625 -1.0321 -2.3418
  842MOL0     H11133   1.067   4.511   3.657 -0.9324 -0.0856 -1.2025
  842MOL0     H11134   1.327   4.520   3.635  0.2650 -0.0634 -0.0536
  842MOL0     H11135   1.233   4.399   3.724  0.3147  1.3482 -1.4903
  842MOL0     H11136   1.466   4.343   3.684  0.0689 -0.4946  0.5281
  842MOL0     H11137   1.500   4.512   3.729 -1.2493  1.3008 -1.4223
  842MOL0     H11138   1.396   4.328   3.947  0.4834 -0.4602  0.8873
  842MOL0     H11139   1.503   4.464   3.968 -1.6713  0.6498 -0.1422
  842MOL0     H11140   1.616   4.254   4.015 -3.9396  1.9785  1.4451
  842MOL0     H11141   1.562   4.188   3.867  2.2250 -2.2808  3.9728
  842MOL0     H11142   1.909   4.362   3.730 -1.4130  3.8173 -0.1151
  842MOL0     H11143   1.207   4.770   3.977 -1.1961  1.1075  0.8304
  842MOL0     H11144   0.996   4.888   3.981  1.6298  3.3227 -2.3390
  843MOL0     O11145   8.598   3.502  10.407 -0.6267 -0.0405 -0.0939
  843MOL0     C11146   8.663   3.599  10.438 -0.0055  0.3605 -0.2347
  843MOL0     O11147   8.663   3.674  10.557  0.1333 -0.0013  0.4849
  843MOL0     C11148   8.577   3.633  10.653 -0.3438 -0.4232 -1.4222
  843MOL0     C11149   8.553   3.503  10.691  0.5845 -0.2553 -0.3041
  843MOL0     C11150   8.466   3.475  10.802 -0.5208  0.3930  0.6633
  843MOL0     C11151   8.409   3.576  10.877  0.3200  0.4547 -0.0423
  843MOL0     O11152   8.337   3.537  10.990  0.1358 -0.4702 -0.1522
  843MOL0     C11153   8.268   3.647  11.055 -0.7719 -0.0173  0.0508
  843MOL0     C11154   8.159   3.582  11.148 -0.2551  0.0417  0.6710
  843MOL0     C11155   8.048   3.501  11.075 -0.6999  0.5960 -0.3535
  843MOL0     C11156   7.942   3.422  11.160 -0.4397 -0.1466 -0.6395
  843MOL0     C11157   7.796   3.416  11.102  0.2126  0.0548 -0.5314
  843MOL0     C11158   7.723   3.544  11.138 -0.3911 -0.0382  0.1657
  843MOL0     C11159   7.577   3.535  11.115 -0.1539 -0.5712  0.4205
  843MOL0     C11160   7.507   3.667  11.155  0.1744 -0.1056  0.5274
  843MOL0     N11161   7.360   3.642  11.143 -0.0618 -0.2004 -0.5211
  843MOL0     C11162   7.277   3.671  11.040 -0.1738 -0.1152  0.6054
  843MOL0     C11163   7.157   3.640  11.082 -0.2300 -0.3104 -0.2582
  843MOL0     C11164   7.029   3.645  11.016 -0.6122  0.5994 -0.4504
  843MOL0     C11165   7.015   3.572  10.879 -0.6910  0.4967 -0.4078
  843MOL0     C11166   6.918   3.636  10.787 -0.2838 -0.4171 -0.0337
  843MOL0     C11167   6.772   3.630  10.827  0.1298  0.2655  0.0960
  843MOL0     O11168   6.729   3.488  10.837 -0.5026 -0.0772 -0.5220
  843MOL0     C11169   6.597   3.453  10.845  0.3730 -0.0180 -0.1246
  843MOL0     C11170   6.564   3.321  10.863 -0.5824  0.2073  0.6992
  843MOL0     C11171   6.434   3.272  10.848 -0.2408 -0.1150 -0.1380
  843MOL0     C11172   6.328   3.367  10.822 -0.5314 -0.0885 -0.5463
  843MOL0     C11173   6.188   3.322  10.832  0.2236 -0.9193 -0.1060
  843MOL0     O11174   6.094   3.396  10.887 -0.0080  0.6675 -0.5970
  843MOL0     C11175   5.958   3.359  10.891  0.8060 -0.0986 -0.3151
  843MOL0     C11176   5.883   3.387  11.005  0.0557 -0.5274  0.7114
  843MOL0     C11177   5.753   3.352  11.021 -0.4101  0.0424 -1.0932
  843MOL0     C11178   5.687   3.282  10.926  1.1694  0.7326  0.0543
  843MOL0     O11179   5.555   3.244  10.945  0.3021 -0.5987 -0.1434
  843MOL0     C11180   5.468   3.338  11.009  0.5460 -0.1381 -1.3252
  843MOL0     C11181   5.332   3.342  10.948 -0.2444 -0.0315 -0.7300
  843MOL0     C11182   5.226   3.242  11.000 -0.0923 -0.2189  0.3034
  843MOL0     C11183   5.084   3.258  10.952  0.0548 -1.2268  0.3293
  843MOL0     C11184   4.973   3.208  11.050 -0.4946 -0.7186 -0.7801
  843MOL0     C11185   4.834   3.204  10.987 -0.1573  0.1855 -0.2280
  843MOL0     C11186   4.716   3.180  11.083 -0.6130 -0.1072  0.4610
  843MOL0     C11187   4.589   3.146  11.009  0.0105  0.8959  0.1973
  843MOL0    Cl11188   4.591   2.990  10.915  0.0779  0.5321 -0.3432
  843MOL0     C11189   5.757   3.240  10.803  0.1700  0.4007 -0.0487
  843MOL0     C11190   5.893   3.280  10.796  0.3168  0.7749 -0.3216
  843MOL0     O11191   6.173   3.207  10.803 -0.1092  0.8363 -0.0979
  843MOL0     C11192   6.360   3.497  10.827  0.2553 -0.5283 -0.3255
  843MOL0     C11193   6.494   3.544  10.827 -0.1390  0.5927  0.1646
  843MOL0     N11194   7.167   3.575  11.207  0.7765 -0.7293  0.4502
  843MOL0     N11195   7.290   3.589  11.244 -0.5399  0.3463 -0.9262
  843MOL0     C11196   8.430   3.704  10.839 -0.7493  0.1210 -0.8548
  843MOL0     C11197   8.517   3.737  10.731  0.8829  1.2392  0.1865
  843MOL0     C11198   8.749   3.645  10.331 -0.0259  0.1644 -0.2186
  843MOL0     C11199   8.871   3.712  10.358 -1.0316 -0.3481  0.1900
  843MOL0     C11200   8.965   3.750  10.257 -0.5664  0.4146 -0.5551
  843MOL0     C11201   8.936   3.735  10.123 -0.5932  0.6088 -0.8612
  843MOL0     O11202   9.043   3.773  10.040  0.5928 -0.2953  0.3730
  843MOL0     C11203   9.046   3.733   9.903 -0.0687  0.1568 -0.1922
  843MOL0     C11204   9.158   3.786   9.811  0.9138 -0.4560 -0.0881
  843MOL0     C11205   9.297   3.740   9.841 -0.8830  0.2538  0.2871
  843MOL0     C11206   9.401   3.813   9.747 -0.1859  0.4203 -0.3997
  843MOL0     C11207   9.534   3.765   9.781  0.1394 -0.0212 -0.0415
  843MOL0     C11208   9.652   3.746   9.794  0.7283 -0.4595 -0.0595
  843MOL0     C11209   8.810   3.681  10.101  0.0032  0.1202 -0.2337
  843MOL0     C11210   8.720   3.639  10.196  0.1538  0.2154  0.2849
  843MOL0     H11211   8.595   3.414  10.643  1.0377 -1.1571  1.6773
  843MOL0     H11212   8.450   3.368  10.804  0.9097  0.0553 -2.0451
  843MOL0     H11213   8.212   3.699  10.977 -1.1819 -1.1076 -0.4125
  843MOL0     H11214   8.340   3.709  11.107  0.2073 -0.8010 -0.3372
  843MOL0     H11215   8.112   3.665  11.202 -2.2063  0.7312 -1.8980
  843MOL0     H11216   8.198   3.519  11.228 -0.8518  1.6256  2.2820
  843MOL0     H11217   8.100   3.427  11.014  0.7464  0.3830  1.0677
  843MOL0     H11218   7.994   3.562  11.002 -0.4055  1.3863  0.0685
  843MOL0     H11219   7.970   3.321  11.190 -1.2699 -0.2243 -0.0937
  843MOL0     H11220   7.941   3.472  11.258 -0.6751 -2.5885  0.6941
  843MOL0     H11221   7.741   3.334  11.149  0.7129 -0.5940 -1.0508
  843MOL0     H11222   7.813   3.404  10.994  3.8938  2.5001 -0.3905
  843MOL0     H11223   7.768   3.622  11.076 -0.9821 -0.4335 -0.7858
  843MOL0     H11224   7.736   3.565  11.244 -0.7235 -0.3753  0.2780
  843MOL0     H11225   7.558   3.511  11.011  2.7307 -2.8867  0.3162
  843MOL0     H11226   7.531   3.454  11.172 -2.0086  1.2950  1.7650
  843MOL0     H11227   7.526   3.750  11.087 -3.2797 -0.2109 -0.7804
  843MOL0     H11228   7.520   3.690  11.261 -0.6384  0.6811  0.4693
  843MOL0     H11229   7.301   3.703  10.939 -1.3540 -2.5665 -0.5509
  843MOL0     H11230   6.991   3.748  11.017 -1.4878  0.3010  0.9986
  843MOL0     H11231   6.958   3.589  11.078  1.6988 -0.1431  1.6903
  843MOL0     H11232   7.003   3.465  10.897  3.1085  0.2782  2.1091
  843MOL0     H11233   7.111   3.574  10.825  0.5932 -3.8222  1.3356
  843MOL0     H11234   6.943   3.741  10.767 -0.2280 -0.3830  0.2066
  843MOL0     H11235   6.924   3.585  10.691  1.0977 -0.1651 -0.1075
  843MOL0     H11236   6.718   3.689  10.752  0.3577  0.4142  0.0498
  843MOL0     H11237   6.757   3.672  10.926  1.1579 -0.5422  0.6107
  843MOL0     H11238   6.639   3.243  10.868 -0.8968 -0.0639  1.1642
  843MOL0     H11239   6.415   3.167  10.865 -2.1790 -0.1553 -2.1185
  843MOL0     H11240   5.923   3.454  11.081 -1.0158  2.5475 -1.2814
  843MOL0     H11241   5.698   3.383  11.108  0.0421 -2.3708  0.1408
  843MOL0     H11242   5.501   3.443  11.016 -1.1510  0.3244  0.7071
  843MOL0     H11243   5.460   3.306  11.113 -2.3325  0.8631 -1.1629
  843MOL0     H11244   5.341   3.328  10.840  0.6435 -1.6217 -0.4857
  843MOL0     H11245   5.295   3.441  10.978  1.2362 -0.3732  2.7370
  843MOL0     H11246   5.223   3.255  11.108  0.4271  0.1261  0.2815
  843MOL0     H11247   5.254   3.139  10.975 -2.1379 -1.0898  1.3641
  843MOL0     H11248   5.050   3.356  10.918 -1.3867 -2.7434 -3.0710
  843MOL0     H11249   5.080   3.201  10.858 -1.4020 -3.0320  1.4049
  843MOL0     H11250   4.966   3.273  11.137  0.2695 -0.4315 -0.9261
  843MOL0     H11251   5.001   3.109  11.088 -2.2664 -1.3651 -1.0488
  843MOL0     H11252   4.832   3.117  10.921 -1.1354  0.8050 -1.0438
  843MOL0     H11253   4.802   3.290  10.928  0.8239 -0.1791 -1.3371
  843MOL0     H11254   4.740   3.101  11.156 -2.5119  0.1472  1.4182
  843MOL0     H11255   4.709   3.271  11.143 -0.1031  0.3572 -0.1802
  843MOL0     H11256   4.571   3.223  10.933 -1.4206  0.3109 -0.0951
  843MOL0     H11257   4.501   3.145  11.074 -1.4009  0.8498 -1.6313
  843MOL0     H11258   5.704   3.193  10.721 -0.4513  0.1664  0.4769
  843MOL0     H11259   5.940   3.264  10.700  0.9918  0.5474  0.0400
  843MOL0     H11260   6.280   3.570  10.817  1.8128  0.9404 -5.5104
  843MOL0     H11261   6.510   3.652  10.822  1.2736  0.3544 -2.3475
  843MOL0     H11262   8.377   3.790  10.881 -2.1691 -1.5985  1.1008
  843MOL0     H11263   8.546   3.839  10.706  1.9659  1.2533  1.3930
  843MOL0     H11264   8.898   3.728  10.463 -4.0307  0.0071  0.9957
  843MOL0     H11265   9.066   3.778  10.282 -0.3435  0.6686 -1.6939
  843MOL0     H11266   8.947   3.755   9.863 -0.7276  0.6005  1.6037
  843MOL0     H11267   9.052   3.625   9.913  1.7112  0.4309  2.7063
  843MOL0     H11268   9.138   3.748   9.710 -2.6641  2.4050 -0.6447
  843MOL0     H11269   9.141   3.893   9.823  0.9425 -0.4535 -0.0713
  843MOL0     H11270   9.308   3.633   9.824  2.9208  0.8315 -2.0015
  843MOL0     H11271   9.326   3.772   9.942  2.7300  2.2642 -1.1650
  843MOL0     H11272   9.361   3.777   9.652  0.3489 -1.4139  0.0337
  843MOL0     H11273   9.399   3.921   9.763 -0.3906  0.5898 -1.4915
  843MOL0     H11274   9.750   3.746   9.836  0.5833  1.0761  0.3308
  843MOL0     H11275   8.783   3.649  10.001  0.0770  0.1429 -0.2612
  843MOL0     H11276   8.632   3.588  10.157 -0.2853 -0.5667  2.1658
  844MOL0     O11277   8.336   0.340   5.827 -0.2690  0.5578 -0.1065
  844MOL0     C11278   8.348   0.448   5.881  0.8389  1.1540  0.3346
  844MOL0     O11279   8.261   0.556   5.880  0.5540 -0.0887 -0.2489
  844MOL0     C11280   8.141   0.532   5.816  0.0508  0.1180  0.0172
  844MOL0     C11281   8.035   0.471   5.883 -0.1779  0.4284 -1.0984
  844MOL0     C11282   7.921   0.432   5.819  0.6251  0.6439 -0.8718
  844MOL0     C11283   7.904   0.457   5.688  0.2793 -0.6057  0.4227
  844MOL0     O11284   7.783   0.418   5.636  0.0859  0.0168 -0.0596
  844MOL0     C11285   7.780   0.394   5.495 -0.1747  0.0010 -0.6588
  844MOL0     C11286   7.673   0.284   5.464  0.6041  0.1295  0.4715
  844MOL0     C11287   7.528   0.319   5.516 -0.5887 -0.3318  0.0061
  844MOL0     C11288   7.417   0.231   5.467  0.0977  0.1057  0.2298
  844MOL0     C11289   7.288   0.306   5.489  0.1669 -0.1232  0.4786
  844MOL0     C11290   7.256   0.355   5.633  0.3365 -0.0796  0.1889
  844MOL0     C11291   7.108   0.397   5.644 -0.1417 -0.5845 -0.2072
  844MOL0     C11292   7.009   0.273   5.677  0.2039  0.2379  0.2730
  844MOL0     N11293   7.023   0.231   5.816  0.7717 -0.2669  0.6607
  844MOL0     C11294   7.057   0.295   5.929  0.3804  0.5722 -0.6113
  844MOL0     C11295   7.049   0.198   6.032 -0.8282  0.1019  0.0151
  844MOL0     C11296   7.084   0.213   6.174  0.2236  0.2904  0.6809
  844MOL0     C11297   7.228   0.153   6.190  1.0563 -0.4021  0.0847
  844MOL0     C11298   7.258   0.143   6.338 -0.4043  1.1275  0.5358
  844MOL0     C11299   7.390   0.082   6.365 -0.4738  0.7751  0.5170
  844MOL0     O11300   7.385   0.030   6.497  0.1125  0.7650  0.4840
  844MOL0     C11301   7.507   0.013   6.541  0.2658  0.0200 -1.3372
  844MOL0     C11302   7.560  -0.117   6.551 -0.5261  0.9946  0.1817
  844MOL0     C11303   7.685  -0.150   6.598  0.4742 -0.1760 -0.2109
  844MOL0     C11304   7.763  -0.045   6.652 -0.0732  0.4422 -0.0629
  844MOL0     C11305   7.897  -0.068   6.704 -0.7078 -0.4087  0.5333
  844MOL0     O11306   7.974   0.043   6.743  0.6258 -0.3470 -0.2128
  844MOL0     C11307   8.091   0.023   6.808 -0.5168  0.9516 -0.1050
  844MOL0     C11308   8.201  -0.028   6.746 -0.5134  0.2452 -0.3481
  844MOL0     C11309   8.313  -0.066   6.815  0.8920  0.2463  0.5180
  844MOL0     C11310   8.330  -0.016   6.944 -0.0994 -0.4785 -0.5345
  844MOL0     O11311   8.447  -0.028   7.009  0.1553  0.2414 -0.5083
  844MOL0     C11312   8.563  -0.076   6.948 -0.2689  0.2534 -0.4916
  844MOL0     C11313   8.676  -0.108   7.047  0.5572 -0.5467 -0.4424
  844MOL0     C11314   8.723   0.025   7.119  0.0091 -0.2346  0.0196
  844MOL0     C11315   8.782   0.004   7.257  0.3863  0.3499  0.3835
  844MOL0     C11316   8.829   0.129   7.316  0.0126  0.3925  0.1921
  844MOL0     C11317   8.850   0.124   7.473  0.2283  0.3762 -0.2173
  844MOL0     C11318   8.982   0.064   7.523 -0.1825  0.7541  1.0861
  844MOL0     C11319   9.108   0.141   7.505 -0.7405  0.2610  0.4269
  844MOL0    Cl11320   9.083   0.297   7.594 -0.3584 -0.3807 -0.3031
  844MOL0     C11321   8.227   0.043   7.006  0.0433 -0.0303 -0.5927
  844MOL0     C11322   8.105   0.056   6.940  0.9463 -0.2267  0.3295
  844MOL0     O11323   7.933  -0.181   6.702  0.2062  0.0957  0.6234
  844MOL0     C11324   7.707   0.087   6.646 -0.5183  1.1613 -0.7579
  844MOL0     C11325   7.577   0.106   6.592 -0.3970  0.0164  0.0101
  844MOL0     N11326   7.014   0.077   5.967 -0.5216 -0.2957 -0.3416
  844MOL0     N11327   6.987   0.106   5.848  0.1533 -0.7362  0.4725
  844MOL0     C11328   8.008   0.523   5.615  0.2061  0.8169  0.3265
  844MOL0     C11329   8.132   0.558   5.676  0.1298 -0.1864 -0.5183
  844MOL0     C11330   8.479   0.480   5.926  0.7838 -0.3875 -0.2763
  844MOL0     C11331   8.501   0.583   6.024  0.2026  0.0247  0.6087
  844MOL0     C11332   8.627   0.615   6.065 -0.5673 -0.7264 -0.7979
  844MOL0     C11333   8.738   0.548   6.014  1.0375  0.3423  0.3577
  844MOL0     O11334   8.861   0.580   6.053  0.0977  0.4837 -0.3887
  844MOL0     C11335   8.911   0.693   5.977 -0.1302 -0.3351  0.6347
  844MOL0     C11336   9.061   0.684   5.945 -0.3482 -0.4331  0.6260
  844MOL0     C11337   9.113   0.812   5.885  0.5466 -0.4391 -0.4298
  844MOL0     C11338   9.248   0.802   5.806  0.0271  0.2952  0.0874
  844MOL0     C11339   9.356   0.817   5.900  0.2410  0.3459 -0.2661
  844MOL0     C11340   9.446   0.820   5.980  0.5811 -0.1271  0.2465
  844MOL0     C11341   8.713   0.439   5.932  0.6343 -0.3852 -0.7516
  844MOL0     C11342   8.587   0.404   5.891  0.4718  0.5358 -0.6940
  844MOL0     H11343   8.040   0.430   5.984 -0.1598 -4.1031 -2.7243
  844MOL0     H11344   7.847   0.377   5.876 -0.8977  1.8930 -1.5607
  844MOL0     H11345   7.871   0.344   5.460  0.3289 -0.3294  1.0251
  844MOL0     H11346   7.752   0.484   5.440 -1.3169 -0.8988 -1.6186
  844MOL0     H11347   7.707   0.199   5.524 -0.8014 -1.3373 -0.7229
  844MOL0     H11348   7.677   0.265   5.356 -0.9229 -1.6830  0.6927
  844MOL0     H11349   7.509   0.420   5.479  2.7192 -0.1122 -1.3934
  844MOL0     H11350   7.526   0.317   5.625 -0.9777 -1.4185 -0.0047
  844MOL0     H11351   7.432   0.206   5.362 -1.4613  1.4781 -0.3686
  844MOL0     H11352   7.418   0.145   5.535  1.6361 -0.4064 -0.3965
  844MOL0     H11353   7.215   0.229   5.463  0.6485 -0.0614 -1.1462
  844MOL0     H11354   7.275   0.389   5.419  2.3295 -0.6185 -0.5787
  844MOL0     H11355   7.324   0.436   5.660  0.0810  0.5433 -1.0154
  844MOL0     H11356   7.271   0.278   5.710  0.5580 -1.3996 -1.1416
  844MOL0     H11357   7.103   0.486   5.707  0.7968 -1.0333  0.5300
  844MOL0     H11358   7.085   0.441   5.547  3.2723  3.3758  0.5084
  844MOL0     H11359   7.044   0.185   5.622  2.4357  1.0609  0.2792
  844MOL0     H11360   6.903   0.296   5.664 -0.5826 -2.5267  1.1587
  844MOL0     H11361   7.085   0.399   5.934 -0.6576  0.8016  2.4116
  844MOL0     H11362   7.009   0.149   6.221  0.6059 -0.6121  0.0906
  844MOL0     H11363   7.080   0.312   6.221  0.9955  0.9679 -0.6341
  844MOL0     H11364   7.304   0.218   6.144  0.8950  1.9161  2.8058
  844MOL0     H11365   7.223   0.055   6.142  1.0555  0.3623 -1.5339
  844MOL0     H11366   7.236   0.234   6.396 -1.9083  0.5303  0.9662
  844MOL0     H11367   7.184   0.070   6.375  0.3655  0.3493  0.5542
  844MOL0     H11368   7.460   0.163   6.347  2.2148 -1.1501  1.7201
  844MOL0     H11369   7.412  -0.000   6.296  1.0425  1.8011 -0.2600
  844MOL0     H11370   7.506  -0.203   6.514  2.0849  0.7692 -3.6840
  844MOL0     H11371   7.718  -0.253   6.607 -1.2324 -0.9739 -2.0988
  844MOL0     H11372   8.193  -0.063   6.644 -0.4647  1.3865 -0.7599
  844MOL0     H11373   8.379  -0.119   6.747  0.8114  0.7629  0.0327
  844MOL0     H11374   8.599  -0.003   6.874  3.2061 -2.6777 -2.0492
  844MOL0     H11375   8.540  -0.165   6.888  0.9217 -0.9877  0.8081
  844MOL0     H11376   8.756  -0.143   6.981  0.1451  1.9506 -2.4491
  844MOL0     H11377   8.641  -0.170   7.130 -1.1308 -0.2519 -0.8894
  844MOL0     H11378   8.641   0.096   7.127 -0.1144 -0.3223 -0.4292
  844MOL0     H11379   8.784   0.084   7.049 -1.2041 -1.0567 -1.8102
  844MOL0     H11380   8.696  -0.034   7.312 -1.3188  2.2272 -0.8287
  844MOL0     H11381   8.868  -0.064   7.253 -0.6841 -1.1994  2.2794
  844MOL0     H11382   8.740   0.190   7.302 -0.2509 -0.4230 -2.0617
  844MOL0     H11383   8.909   0.185   7.267  1.4221 -2.0554 -0.4968
  844MOL0     H11384   8.764   0.067   7.509 -0.5108  1.7122  0.2324
  844MOL0     H11385   8.836   0.225   7.513  0.8142  1.3603 -2.3659
  844MOL0     H11386   8.968   0.025   7.624 -3.0264 -0.0782  0.4676
  844MOL0     H11387   8.978  -0.033   7.472 -1.5774  1.0465  0.5788
  844MOL0     H11388   9.103   0.161   7.397 -3.8434  0.9412  0.5944
  844MOL0     H11389   9.197   0.084   7.532  0.7389  1.1137 -2.2477
  844MOL0     H11390   8.250   0.075   7.107  4.2735 -2.6233 -0.4869
  844MOL0     H11391   8.012   0.088   6.988  0.9184 -2.3339  1.8032
  844MOL0     H11392   7.752   0.169   6.701  0.1739 -1.0591  2.2451
  844MOL0     H11393   7.539   0.207   6.578  1.6905  0.9306  0.4906
  844MOL0     H11394   7.998   0.556   5.513  1.9816  2.2988  0.5690
  844MOL0     H11395   8.217   0.587   5.616  1.3042 -1.7734  0.3111
  844MOL0     H11396   8.427   0.644   6.075  0.7936 -0.0363  1.5619
  844MOL0     H11397   8.650   0.695   6.134  0.7083 -0.4755 -1.4996
  844MOL0     H11398   8.891   0.789   6.025 -0.2919  1.1919 -2.3087
  844MOL0     H11399   8.861   0.702   5.880  0.6282 -2.2717 -0.0022
  844MOL0     H11400   9.118   0.653   6.032  0.6265 -0.5384 -0.0313
  844MOL0     H11401   9.090   0.610   5.869 -2.8203 -1.7968  0.8991
  844MOL0     H11402   9.133   0.895   5.954  3.7199 -0.6900 -0.8960
  844MOL0     H11403   9.037   0.852   5.817 -1.3017  0.7493  2.1567
  844MOL0     H11404   9.268   0.709   5.752 -1.5990 -1.5970  2.5249
  844MOL0     H11405   9.279   0.888   5.745  3.2489  0.9069  2.3113
  844MOL0     H11406   9.528   0.804   6.047 -0.1518 -2.3494  0.7181
  844MOL0     H11407   8.792   0.370   5.902  0.9137 -0.7858  0.7943
  844MOL0     H11408   8.581   0.306   5.845  0.5945  0.0958  0.1935
  845MOL0     O11409   3.754   9.696   4.431  0.1158 -0.4950  0.3560
  845MOL0     C11410   3.780   9.799   4.496 -1.7026  0.4997  0.1412
  845MOL0     O11411   3.698   9.855   4.584 -1.0016 -0.5127  0.1760
  845MOL0     C11412   3.573   9.808   4.605 -0.1212  0.3031 -1.3253
  845MOL0     C11413   3.479   9.759   4.510  0.1534 -0.8206 -0.4226
  845MOL0     C11414   3.355   9.714   4.549 -0.7723 -0.4444 -0.6100
  845MOL0     C11415   3.321   9.699   4.685 -0.1126  0.3490 -0.3053
  845MOL0     O11416   3.199   9.664   4.728 -0.4064 -0.1558  0.1359
  845MOL0     C11417   3.086   9.734   4.668 -0.1265  0.8765 -0.3234
  845MOL0     C11418   2.976   9.721   4.773  0.0750 -0.2443  0.1576
  845MOL0     C11419   2.882   9.598   4.745 -0.7844  0.7284  0.1543
  845MOL0     C11420   2.815   9.547   4.873 -0.8781  0.1788  0.4924
  845MOL0     C11421   2.690   9.635   4.909  0.8824  0.0956  0.7984
  845MOL0     C11422   2.576   9.635   4.802 -0.7752  0.0063 -0.7750
  845MOL0     C11423   2.454   9.694   4.858  0.9317 -0.3870  0.2866
  845MOL0     C11424   2.380   9.609   4.972 -0.6958  0.6172  0.7158
  845MOL0     N11425   2.237   9.618   4.963  0.1376 -0.2429 -1.0766
  845MOL0     C11426   2.147   9.547   5.035 -0.2683 -0.2639  0.0936
  845MOL0     C11427   2.025   9.609   5.027 -0.0520  0.8293  0.1778
  845MOL0     C11428   1.901   9.548   5.093 -0.1305 -0.6694  0.1245
  845MOL0     C11429   1.819   9.645   5.177  0.1324 -0.6532 -0.9964
  845MOL0     C11430   1.701   9.587   5.250 -0.1523  0.5202 -0.0336
  845MOL0     C11431   1.587   9.533   5.152 -0.2170 -0.5563 -0.3015
  845MOL0     O11432   1.499   9.451   5.225  0.2381  0.3202 -0.0755
  845MOL0     C11433   1.385   9.516   5.272 -0.2409 -0.6574 -0.3427
  845MOL0     C11434   1.365   9.656   5.281 -0.9453 -0.0848  1.2907
  845MOL0     C11435   1.258   9.716   5.343 -0.6940  0.3374  0.6029
  845MOL0     C11436   1.155   9.638   5.391  0.5727  0.2982  0.2428
  845MOL0     C11437   1.043   9.703   5.455  0.2677 -0.1577 -0.5736
  845MOL0     O11438   0.958   9.620   5.527  0.4770 -0.3649  0.1484
  845MOL0     C11439   0.852   9.664   5.589 -0.4910 -0.3756 -0.7137
  845MOL0     C11440   0.836   9.785   5.649 -0.2614  0.1529  0.5977
  845MOL0     C11441   0.708   9.840   5.677 -0.3307  0.2056 -0.0851
  845MOL0     C11442   0.594   9.769   5.655  0.7385 -0.6924 -0.2075
  845MOL0     O11443   0.470   9.812   5.686  0.2309 -0.3610 -0.5895
  845MOL0     C11444   0.453   9.907   5.783 -1.1928 -0.1631  0.3346
  845MOL0     C11445   0.309   9.933   5.797  0.1772 -0.2214 -0.9897
  845MOL0     C11446   0.219   9.815   5.826  1.0613  0.4601  0.1112
  845MOL0     C11447   0.069   9.842   5.806  0.7524 -0.2302 -0.3528
  845MOL0     C11448   0.002   9.936   5.899  0.3566 -0.3155  0.1291
  845MOL0     C11449  -0.130   9.980   5.853  0.2779  0.1903  0.4373
  845MOL0     C11450  -0.175  10.086   5.950 -0.3485  0.2967  0.0840
  845MOL0     C11451  -0.331  10.110   5.931 -0.1075  0.3989  0.3547
  845MOL0    Cl11452  -0.408  10.215   6.050  0.1838 -0.2278  0.0468
  845MOL0     C11453   0.610   9.639   5.605  0.4633  0.2730  0.5034
  845MOL0     C11454   0.739   9.587   5.567  0.5512 -0.0949 -0.3327
  845MOL0     O11455   1.032   9.823   5.426 -0.0253  0.2820  0.4150
  845MOL0     C11456   1.168   9.497   5.401  0.0703  0.2849  0.5859
  845MOL0     C11457   1.282   9.443   5.339 -0.3364  0.9198 -0.1015
  845MOL0     N11458   2.041   9.709   4.939  0.2845 -0.4090 -0.0900
  845MOL0     N11459   2.163   9.714   4.898 -0.3277  1.0060 -0.1241
  845MOL0     C11460   3.408   9.754   4.785 -0.2079 -1.2205  0.4394
  845MOL0     C11461   3.527   9.816   4.744 -0.2387 -0.1263 -0.0862
  845MOL0     C11462   3.907   9.875   4.468  0.0100 -0.2234 -0.6851
  845MOL0     C11463   3.947   9.975   4.562 -0.0129  0.2502 -0.4236
  845MOL0     C11464   4.072  10.036   4.541 -0.2221 -0.4585 -0.3315
  845MOL0     C11465   4.154   9.995   4.439  0.4775 -0.1682 -0.4985
  845MOL0     O11466   4.287  10.039   4.449 -0.0934  0.1492  0.2818
  845MOL0     C11467   4.378   9.994   4.346 -0.0196 -0.0193 -0.2288
  845MOL0     C11468   4.523  10.026   4.395  0.5564 -0.5814  0.5507
  845MOL0     C11469   4.558  10.170   4.361  1.0234  0.4915 -0.0309
  845MOL0     C11470   4.684  10.212   4.431 -0.6597 -0.1484 -0.5654
  845MOL0     C11471   4.724  10.338   4.370  0.2864 -0.1618  0.4693
  845MOL0     C11472   4.766  10.435   4.306  0.6871 -0.1643  0.4180
  845MOL0     C11473   4.103   9.913   4.343  0.7443 -0.2976  0.6871
  845MOL0     C11474   3.980   9.857   4.353 -0.4073  0.7037 -0.4162
  845MOL0     H11475   3.513   9.773   4.408 -1.2878 -0.1241 -0.8444
  845MOL0     H11476   3.282   9.682   4.475  0.3735  0.0311 -1.9923
  845MOL0     H11477   3.064   9.693   4.570  2.3898 -1.8879  0.1037
  845MOL0     H11478   3.105   9.840   4.651  4.1586  0.4919  0.7108
  845MOL0     H11479   2.911   9.810   4.775 -1.0526 -1.0597  1.9082
  845MOL0     H11480   3.020   9.709   4.872  0.2370 -1.1022 -0.0136
  845MOL0     H11481   2.952   9.523   4.705 -1.7777  0.9138 -2.0566
  845MOL0     H11482   2.808   9.621   4.668 -1.5995  0.8661  0.9580
  845MOL0     H11483   2.782   9.443   4.859 -0.5505 -0.0803  1.5822
  845MOL0     H11484   2.884   9.543   4.958 -0.3277 -1.5221  0.0023
  845MOL0     H11485   2.726   9.739   4.909 -0.4829  0.6992 -2.7085
  845MOL0     H11486   2.646   9.611   5.006  1.6516  3.4225  2.1418
  845MOL0     H11487   2.568   9.530   4.772 -0.0516 -0.1295 -0.5008
  845MOL0     H11488   2.611   9.691   4.714 -0.4167  1.9016  0.5057
  845MOL0     H11489   2.484   9.790   4.901  0.8733 -0.4072  0.3736
  845MOL0     H11490   2.388   9.710   4.772  0.9483 -1.8581 -0.0152
  845MOL0     H11491   2.414   9.627   5.074  4.1313 -0.7213 -0.3741
  845MOL0     H11492   2.410   9.506   4.948 -2.6397  0.7321 -2.9210
  845MOL0     H11493   2.166   9.454   5.088  0.0079  0.9119  2.1959
  845MOL0     H11494   1.939   9.470   5.159  0.5621 -0.2945  0.1839
  845MOL0     H11495   1.846   9.506   5.008  2.4708 -0.5299 -1.7588
  845MOL0     H11496   1.785   9.732   5.119 -1.4757 -0.0736  0.7359
  845MOL0     H11497   1.885   9.684   5.255  0.4759 -1.0044 -1.1092
  845MOL0     H11498   1.739   9.504   5.310  0.0263  1.9365  1.8967
  845MOL0     H11499   1.650   9.656   5.317  0.1488 -0.1633  0.9210
  845MOL0     H11500   1.623   9.469   5.071  1.8296  0.9968 -0.6838
  845MOL0     H11501   1.538   9.618   5.103  1.6771 -0.0611 -1.4526
  845MOL0     H11502   1.441   9.729   5.256 -0.3407 -1.9784 -3.2220
  845MOL0     H11503   1.255   9.824   5.346 -1.1858  0.4704 -2.3359
  845MOL0     H11504   0.930   9.835   5.666  1.2815 -1.4563 -2.3512
  845MOL0     H11505   0.705   9.936   5.728  0.6145  1.4806 -2.2955
  845MOL0     H11506   0.495  10.003   5.752  2.2253 -0.3072  3.7667
  845MOL0     H11507   0.511   9.893   5.875  0.6116  2.2813 -0.3371
  845MOL0     H11508   0.284   9.991   5.708  1.2524  0.6417 -0.7582
  845MOL0     H11509   0.303  10.003   5.882  0.1105 -2.9991  1.4524
  845MOL0     H11510   0.243   9.780   5.926 -2.9965 -0.8022  0.8111
  845MOL0     H11511   0.245   9.735   5.756 -1.3430  0.2547 -0.6225
  845MOL0     H11512   0.059   9.869   5.701 -1.6710 -0.9472 -0.3552
  845MOL0     H11513   0.014   9.747   5.809 -1.1348  0.5571 -4.1726
  845MOL0     H11514   0.071  10.019   5.918  1.9294 -2.0182  2.4497
  845MOL0     H11515   0.002   9.880   5.993  0.1375 -3.4211 -1.5730
  845MOL0     H11516  -0.191   9.889   5.848  3.3198 -1.9289 -1.2803
  845MOL0     H11517  -0.115  10.030   5.758  0.7663 -0.5120  0.1342
  845MOL0     H11518  -0.163  10.056   6.054  0.4924  1.0676  0.2289
  845MOL0     H11519  -0.120  10.180   5.939 -0.5115  0.3902  0.0737
  845MOL0     H11520  -0.374  10.010   5.934  0.0116  0.2321 -1.6846
  845MOL0     H11521  -0.357  10.148   5.831 -2.8435 -1.8947  0.0663
  845MOL0     H11522   0.521   9.582   5.582 -1.1402  2.6049  0.4696
  845MOL0     H11523   0.746   9.484   5.534  3.6161  0.8295 -3.1958
  845MOL0     H11524   1.079   9.441   5.428  0.6744 -1.3478 -0.6249
  845MOL0     H11525   1.305   9.337   5.337  1.7865  1.3232 -1.8452
  845MOL0     H11526   3.380   9.754   4.890  0.2302  1.1977  0.6097
  845MOL0     H11527   3.588   9.871   4.815  1.3368 -0.2986 -1.2427
  845MOL0     H11528   3.889  10.016   4.644  0.7731 -2.2600  1.5086
  845MOL0     H11529   4.117  10.105   4.611  0.8412  0.1493 -1.5857
  845MOL0     H11530   4.362  10.061   4.261 -1.8180 -0.5043 -0.3124
  845MOL0     H11531   4.369   9.896   4.299  1.0831 -0.1135 -0.2620
  845MOL0     H11532   4.532   9.995   4.499 -1.5284 -0.6036  0.7686
  845MOL0     H11533   4.596   9.969   4.338 -0.7477 -2.3778  0.5904
  845MOL0     H11534   4.470  10.230   4.385  0.2332  0.3136 -2.1695
  845MOL0     H11535   4.576  10.183   4.253 -3.0596  2.3486 -0.6636
  845MOL0     H11536   4.658  10.216   4.537 -0.9262  2.3505 -0.6816
  845MOL0     H11537   4.765  10.141   4.410 -0.5991  0.0853 -1.1340
  845MOL0     H11538   4.817  10.519   4.264  2.0690  0.0252  2.3067
  845MOL0     H11539   4.152   9.897   4.248  2.1727  1.2796  1.1093
  845MOL0     H11540   3.934   9.789   4.281  2.0897  0.7005 -2.1101
  846MOL0     O11541  10.689   2.395  10.981  0.3628 -0.4480 -0.1794
  846MOL0     C11542  10.716   2.509  10.949  0.2719 -0.1886 -0.2140
  846MOL0     O11543  10.627   2.597  10.890 -0.7007  0.2052 -0.1113
  846MOL0     C11544  10.493   2.584  10.925  0.5398  0.4968  0.1490
  846MOL0     C11545  10.448   2.554  11.055 -0.4361 -0.5888 -0.1049
  846MOL0     C11546  10.317   2.515  11.080 -0.3064  0.3727 -0.8357
  846MOL0     C11547  10.214   2.515  10.974 -0.5630  0.9348 -1.0143
  846MOL0     O11548  10.079   2.490  10.988 -0.3884 -0.5280 -0.3282
  846MOL0     C11549  10.038   2.429  11.115  0.2593  0.3817 -0.0958
  846MOL0     C11550   9.906   2.359  11.084 -0.4235 -0.6617  0.5907
  846MOL0     C11551   9.798   2.473  11.063 -0.4632  0.7601 -0.0618
  846MOL0     C11552   9.670   2.412  11.025  0.2045 -0.3883  0.0466
  846MOL0     C11553   9.557   2.521  11.035 -0.1785  0.8468  0.2806
  846MOL0     C11554   9.414   2.458  11.014 -0.2354  0.3472  0.3717
  846MOL0     C11555   9.343   2.425  11.148 -0.4571 -0.3874 -0.0753
  846MOL0     C11556   9.203   2.370  11.120  0.0248 -0.1054  1.0808
  846MOL0     N11557   9.116   2.354  11.238 -0.2975  0.0437 -0.0647
  846MOL0     C11558   9.014   2.263  11.266 -0.6971 -0.0845 -1.1467
  846MOL0     C11559   8.961   2.310  11.383  0.2698 -0.2378 -0.0574
  846MOL0     C11560   8.832   2.244  11.426 -0.5406 -0.7351  0.3058
  846MOL0     C11561   8.830   2.214  11.575  0.2050 -0.2094  0.5480
  846MOL0     C11562   8.700   2.153  11.612  0.4855  0.2926 -0.5985
  846MOL0     C11563   8.671   2.147  11.756  0.5039  0.8937  0.4891
  846MOL0     O11564   8.548   2.081  11.786  0.8390 -0.2208  0.2584
  846MOL0     C11565   8.425   2.147  11.774  1.2129  0.1088  0.0225
  846MOL0     C11566   8.309   2.068  11.802 -0.0987 -0.0060  0.5634
  846MOL0     C11567   8.186   2.126  11.807 -0.8186 -0.1178  0.3159
  846MOL0     C11568   8.160   2.257  11.759  0.2163  0.7164  0.2519
  846MOL0     C11569   8.020   2.295  11.725 -0.3426  0.7181 -0.7190
  846MOL0     O11570   7.925   2.253  11.809  0.0961  0.0535  0.0225
  846MOL0     C11571   7.799   2.288  11.778  0.0238 -0.0421 -0.0944
  846MOL0     C11572   7.762   2.412  11.740  0.2985  0.6895  0.2106
  846MOL0     C11573   7.637   2.431  11.680 -0.2537 -0.2535 -0.5215
  846MOL0     C11574   7.546   2.333  11.673  0.2035  0.4745 -0.0266
  846MOL0     O11575   7.426   2.377  11.638  0.1864 -0.1246  0.0274
  846MOL0     C11576   7.313   2.298  11.626  1.2557 -0.1391  0.7256
  846MOL0     C11577   7.178   2.356  11.580 -0.1956 -0.5080 -0.1350
  846MOL0     C11578   7.093   2.247  11.499 -0.2132 -0.8601 -0.7801
  846MOL0     C11579   6.942   2.277  11.486  0.5614 -0.4558 -0.0050
  846MOL0     C11580   6.912   2.407  11.406  0.7486  0.0852  0.1967
  846MOL0     C11581   6.951   2.398  11.255  0.4818 -0.4511 -0.1205
  846MOL0     C11582   6.868   2.279  11.193  0.0678 -0.5737  0.6427
  846MOL0     C11583   6.853   2.312  11.048  0.3462 -1.1225 -0.1641
  846MOL0    Cl11584   6.805   2.173  10.956  0.3770  0.1252 -0.0271
  846MOL0     C11585   7.572   2.206  11.720 -0.1804 -0.7022  0.1607
  846MOL0     C11586   7.704   2.183  11.766 -0.8937 -0.3293  0.5300
  846MOL0     O11587   8.009   2.350  11.616 -0.0074  0.2140 -0.0058
  846MOL0     C11588   8.271   2.339  11.713  0.8103  0.3536  1.1006
  846MOL0     C11589   8.403   2.284  11.725  1.0730 -1.1480  0.0598
  846MOL0     N11590   9.039   2.418  11.428 -0.6908  0.7592  0.4373
  846MOL0     N11591   9.129   2.446  11.339  0.3175  0.3114  0.5105
  846MOL0     C11592  10.255   2.548  10.842  0.0216 -0.3657  0.0983
  846MOL0     C11593  10.395   2.571  10.822 -0.7469 -1.2766 -0.1979
  846MOL0     C11594  10.856   2.548  10.968 -0.0162 -0.0480 -0.5354
  846MOL0     C11595  10.942   2.459  11.035  0.5665 -0.4593 -0.3280
  846MOL0     C11596  11.074   2.499  11.046 -0.9522 -0.3231  0.4503
  846MOL0     C11597  11.131   2.618  10.988 -0.5490 -0.2094  0.5970
  846MOL0     O11598  11.271   2.634  11.009 -0.0072  0.1135  0.1560
  846MOL0     C11599  11.334   2.757  10.941 -0.4785 -0.2851 -0.0908
  846MOL0     C11600  11.476   2.734  10.915  0.2792  0.5563  1.1198
  846MOL0     C11601  11.541   2.698  11.046  0.4338  0.0291 -0.3647
  846MOL0     C11602  11.692   2.679  11.038 -0.1624  0.3673 -0.1315
  846MOL0     C11603  11.766   2.800  11.016  0.2728 -0.2566 -1.0873
  846MOL0     C11604  11.826   2.903  11.024 -0.9131 -0.2818  0.7401
  846MOL0     C11605  11.038   2.711  10.945  0.3787  0.5715  0.4140
  846MOL0     C11606  10.900   2.674  10.932 -0.5722 -0.0817  0.1534
  846MOL0     H11607  10.518   2.555  11.138 -0.2879 -2.8187 -0.1531
  846MOL0     H11608  10.296   2.490  11.184 -2.6530 -0.4143 -1.4358
  846MOL0     H11609  10.027   2.499  11.198  0.8353 -1.6383  1.8095
  846MOL0     H11610  10.113   2.353  11.140  0.8350  0.9139 -0.1713
  846MOL0     H11611   9.865   2.294  11.161 -2.2166 -1.1523 -0.7056
  846MOL0     H11612   9.925   2.310  10.988 -0.0028 -1.9983  1.3316
  846MOL0     H11613   9.826   2.551  10.992 -2.0485  0.3350 -1.1964
  846MOL0     H11614   9.787   2.527  11.157 -1.5492  1.0183 -0.3328
  846MOL0     H11615   9.669   2.372  10.924 -1.4297  0.2941 -0.2354
  846MOL0     H11616   9.653   2.323  11.086 -2.2373 -0.4906 -0.6786
  846MOL0     H11617   9.581   2.599  10.962  0.1391  1.0630  0.6137
  846MOL0     H11618   9.552   2.564  11.135 -0.9680 -1.6554  1.3962
  846MOL0     H11619   9.420   2.368  10.953 -0.2507  0.3261  0.4013
  846MOL0     H11620   9.354   2.531  10.959  0.6555  0.0906 -0.9859
  846MOL0     H11621   9.402   2.347  11.197 -0.5433 -1.1422 -1.1373
  846MOL0     H11622   9.359   2.516  11.207  5.4385 -1.5775  0.8225
  846MOL0     H11623   9.215   2.280  11.060  0.3469  1.1767 -0.8666
  846MOL0     H11624   9.154   2.440  11.052 -1.7475 -0.6590  1.7470
  846MOL0     H11625   8.981   2.182  11.201 -1.3071 -0.7398 -0.0422
  846MOL0     H11626   8.821   2.157  11.360 -0.3352  0.5672 -1.5375
  846MOL0     H11627   8.750   2.315  11.408  1.9711  2.0048 -1.2569
  846MOL0     H11628   8.846   2.308  11.628 -2.2121 -0.5169  1.9820
  846MOL0     H11629   8.912   2.144  11.597 -0.5613 -0.9744  1.0142
  846MOL0     H11630   8.625   2.215  11.563 -0.3207  1.8986  2.4350
  846MOL0     H11631   8.686   2.052  11.573  0.2827 -0.7199  1.9302
  846MOL0     H11632   8.668   2.246  11.802 -0.8478  0.2161  1.9730
  846MOL0     H11633   8.748   2.081  11.795  1.0628  1.2239 -0.0449
  846MOL0     H11634   8.325   1.961  11.811 -0.4881 -0.6489 -3.9330
  846MOL0     H11635   8.106   2.059  11.839 -1.2427  0.8241  1.2647
  846MOL0     H11636   7.833   2.494  11.746  0.9029  0.2708 -0.8223
  846MOL0     H11637   7.607   2.526  11.638 -0.4503  0.5578  1.3693
  846MOL0     H11638   7.295   2.255  11.725  1.4403 -0.5985  0.5649
  846MOL0     H11639   7.329   2.214  11.557 -1.6713  0.4531 -0.8463
  846MOL0     H11640   7.209   2.436  11.512  4.3231 -0.9344  1.0886
  846MOL0     H11641   7.122   2.399  11.663 -2.0745 -1.5802 -0.7964
  846MOL0     H11642   7.100   2.151  11.551 -1.5183  0.1113  1.3244
  846MOL0     H11643   7.143   2.239  11.402 -0.1192  2.3101 -1.0832
  846MOL0     H11644   6.881   2.195  11.446 -1.6104  0.2959  1.5540
  846MOL0     H11645   6.913   2.295  11.590 -0.2722  3.6275 -0.7958
  846MOL0     H11646   6.968   2.487  11.456  0.2571  0.3762  0.2900
  846MOL0     H11647   6.807   2.427  11.432  1.3460  0.7180  2.3683
  846MOL0     H11648   7.056   2.372  11.240  0.9500  0.5092  1.2919
  846MOL0     H11649   6.925   2.496  11.215  1.1579 -0.9540 -1.9214
  846MOL0     H11650   6.919   2.183  11.208 -0.8417 -0.8444  2.3093
  846MOL0     H11651   6.773   2.282  11.248  0.8983  1.4283  2.0869
  846MOL0     H11652   6.951   2.338  11.006 -0.9469  2.1546 -1.4715
  846MOL0     H11653   6.788   2.399  11.043 -0.0937 -1.3103  1.5991
  846MOL0     H11654   7.503   2.122  11.712  0.6850 -1.3439 -0.8017
  846MOL0     H11655   7.718   2.084  11.809  2.3291  0.6279  1.9810
  846MOL0     H11656   8.267   2.444  11.686  1.1708 -0.1123 -0.8876
  846MOL0     H11657   8.483   2.351  11.697 -1.0032  0.3609 -2.6784
  846MOL0     H11658  10.181   2.567  10.765  1.0270  1.3592 -0.5041
  846MOL0     H11659  10.436   2.596  10.725  2.8837 -0.2469  1.4190
  846MOL0     H11660  10.914   2.358  11.063 -0.3490  0.5957  3.0490
  846MOL0     H11661  11.147   2.433  11.091 -0.0683  0.2346 -0.1303
  846MOL0     H11662  11.319   2.834  11.017 -0.0373 -0.1941 -0.0965
  846MOL0     H11663  11.288   2.799  10.850  3.2661  1.6387 -1.2859
  846MOL0     H11664  11.501   2.656  10.843  1.1116  2.2665 -0.5123
  846MOL0     H11665  11.513   2.828  10.874  0.9488  0.3480  1.2300
  846MOL0     H11666  11.502   2.604  11.086 -0.8935 -0.1998 -2.0922
  846MOL0     H11667  11.522   2.780  11.116 -3.7805  0.7215 -2.0200
  846MOL0     H11668  11.741   2.629  11.122  0.4844  1.1528 -0.0292
  846MOL0     H11669  11.705   2.607  10.956  4.4108 -0.4615  1.0308
  846MOL0     H11670  11.888   2.989  11.038  0.4731 -1.4363  2.2397
  846MOL0     H11671  11.060   2.810  10.907 -3.9357  1.0469 -1.5104
  846MOL0     H11672  10.827   2.741  10.886  0.6935 -0.8662 -3.3234
  847MOL0     O11673   4.220   3.687   1.850 -0.5244 -0.0988  0.7257
  847MOL0     C11674   4.213   3.563   1.848  1.0932 -0.4263  0.4824
  847MOL0     O11675   4.093   3.491   1.867 -0.4807 -0.3066  0.0255
  847MOL0     C11676   3.969   3.553   1.874 -0.0602 -0.6777  0.3222
  847MOL0     C11677   3.940   3.696   1.858  0.3280  0.5366  0.0993
  847MOL0     C11678   3.810   3.740   1.864 -0.2341  0.1475  0.5169
  847MOL0     C11679   3.699   3.650   1.872 -0.0757  0.6484  0.1889
  847MOL0     O11680   3.574   3.689   1.891  0.7132  0.0774  0.4412
  847MOL0     C11681   3.519   3.784   1.782  0.2852 -0.8390  0.6205
  847MOL0     C11682   3.379   3.827   1.809  0.2399 -0.5419 -0.8314
  847MOL0     C11683   3.277   3.715   1.841 -0.6126  0.1561  0.1996
  847MOL0     C11684   3.149   3.785   1.887  0.7536 -0.2333  0.9476
  847MOL0     C11685   3.068   3.845   1.777 -0.9811 -0.0984 -0.3306
  847MOL0     C11686   2.938   3.905   1.820 -0.0488 -0.4232  0.3795
  847MOL0     C11687   2.869   4.001   1.720 -0.9365 -0.0313 -0.2447
  847MOL0     C11688   2.720   4.011   1.761  0.2370  0.3034  0.1239
  847MOL0     N11689   2.651   4.086   1.651  0.2543 -0.4806 -0.0873
  847MOL0     C11690   2.547   4.037   1.576  0.5461 -0.4507  0.2802
  847MOL0     C11691   2.486   4.150   1.524 -0.1665 -0.1963  0.2809
  847MOL0     C11692   2.366   4.152   1.435  0.3760 -0.9129  0.5342
  847MOL0     C11693   2.260   4.065   1.501  0.5263  0.2175  0.3207
  847MOL0     C11694   2.121   4.112   1.434 -0.3775  0.7454  0.0443
  847MOL0     C11695   2.001   4.034   1.486 -0.4235 -0.2340 -0.2945
  847MOL0     O11696   1.888   4.079   1.416  0.1545 -0.4688 -0.0626
  847MOL0     C11697   1.765   4.042   1.468 -0.6367  0.1366  0.4633
  847MOL0     C11698   1.661   4.092   1.408 -0.4263  0.1133  0.6129
  847MOL0     C11699   1.529   4.070   1.456 -0.2019 -0.1809  0.4469
  847MOL0     C11700   1.506   3.999   1.578  0.1322 -0.1474 -0.0994
  847MOL0     C11701   1.365   3.975   1.635 -1.1616  0.7450  0.4001
  847MOL0     O11702   1.273   3.993   1.540 -0.2267  0.1506  0.2058
  847MOL0     C11703   1.141   3.982   1.570 -0.6105  0.1406  0.3121
  847MOL0     C11704   1.060   4.099   1.564  1.6352 -0.1320  0.0922
  847MOL0     C11705   0.917   4.091   1.594  0.7133 -0.3411 -1.1396
  847MOL0     C11706   0.858   3.961   1.628 -0.1590  0.1980  0.2614
  847MOL0     O11707   0.730   3.945   1.659 -0.2550  0.2222 -0.1737
  847MOL0     C11708   0.638   4.045   1.684  0.6329 -0.4913 -0.6293
  847MOL0     C11709   0.498   3.986   1.680 -0.1033 -0.5444 -0.1789
  847MOL0     C11710   0.397   4.090   1.706 -0.5252  0.0344  0.0434
  847MOL0     C11711   0.255   4.030   1.703 -0.1686  0.3946  0.4624
  847MOL0     C11712   0.142   4.135   1.682  0.3081 -0.4333 -0.1883
  847MOL0     C11713   0.003   4.104   1.738  0.0898  0.0855  0.5455
  847MOL0     C11714  -0.054   3.975   1.678 -0.0560 -0.3953 -0.3949
  847MOL0     C11715  -0.184   3.941   1.726 -0.2186 -0.3771 -0.5266
  847MOL0    Cl11716  -0.181   3.899   1.901  0.2942 -0.4414  0.3415
  847MOL0     C11717   0.943   3.849   1.628  0.7768  0.2906  0.0164
  847MOL0     C11718   1.082   3.855   1.597 -0.1022 -0.7165 -0.8111
  847MOL0     O11719   1.349   3.944   1.757 -0.1113 -0.3453  0.5898
  847MOL0     C11720   1.617   3.953   1.645 -0.2848 -0.4353 -1.0193
  847MOL0     C11721   1.740   3.969   1.586  0.1238  0.0144  0.1887
  847MOL0     N11722   2.561   4.260   1.567  0.3518  0.3924  0.0113
  847MOL0     N11723   2.659   4.215   1.640 -0.0078 -0.2894  0.2438
  847MOL0     C11724   3.730   3.514   1.901  0.1834 -0.1033 -0.0971
  847MOL0     C11725   3.861   3.464   1.892 -0.3117 -0.7870 -0.4541
  847MOL0     C11726   4.336   3.490   1.826 -0.2557  0.5827  0.0064
  847MOL0     C11727   4.347   3.353   1.865  0.1547 -0.3788 -0.7299
  847MOL0     C11728   4.468   3.284   1.856 -0.7010  0.5660 -0.9529
  847MOL0     C11729   4.590   3.350   1.818  0.2475 -0.3364 -0.0769
  847MOL0     O11730   4.713   3.294   1.838  0.4194 -0.4673 -0.3093
  847MOL0     C11731   4.832   3.363   1.794  0.3135 -0.1812 -0.6371
  847MOL0     C11732   4.939   3.255   1.775  0.0784 -0.1707  0.8515
  847MOL0     C11733   5.078   3.310   1.746  0.2310 -0.2055  0.1638
  847MOL0     C11734   5.136   3.389   1.858  0.3148 -0.5645  0.5885
  847MOL0     C11735   5.279   3.416   1.845 -0.4999 -0.1076 -0.7183
  847MOL0     C11736   5.402   3.439   1.845 -0.9398  0.5535  0.4174
  847MOL0     C11737   4.578   3.486   1.775  0.2728  0.3278  0.7076
  847MOL0     C11738   4.453   3.550   1.774  0.5740 -0.4584  0.7263
  847MOL0     H11739   4.012   3.776   1.843 -0.4671  1.6660  1.9586
  847MOL0     H11740   3.808   3.848   1.855 -2.9012  0.2470  1.3046
  847MOL0     H11741   3.525   3.741   1.682 -0.2540  0.6842 -0.1127
  847MOL0     H11742   3.572   3.880   1.776  0.5645 -0.9282  1.5011
  847MOL0     H11743   3.358   3.890   1.722  0.3157 -0.2446 -0.6353
  847MOL0     H11744   3.392   3.888   1.899 -0.6168 -1.3624 -0.1317
  847MOL0     H11745   3.324   3.646   1.911  2.0399 -0.0472 -1.6260
  847MOL0     H11746   3.260   3.662   1.747 -1.3513  0.2645  0.2647
  847MOL0     H11747   3.078   3.720   1.939  1.7459 -1.7243  0.4950
  847MOL0     H11748   3.179   3.870   1.949 -0.4363  2.4957 -1.9438
  847MOL0     H11749   3.043   3.779   1.694  1.1038  2.5314 -3.3092
  847MOL0     H11750   3.133   3.921   1.733 -1.7346  1.2538  0.8081
  847MOL0     H11751   2.955   3.958   1.914 -0.0065 -1.2972  0.8753
  847MOL0     H11752   2.870   3.822   1.840 -0.0584 -1.1788 -2.3411
  847MOL0     H11753   2.910   4.102   1.735 -0.0352 -0.5690  1.0831
  847MOL0     H11754   2.883   3.979   1.614  0.6764 -3.0906  0.5000
  847MOL0     H11755   2.720   4.068   1.855 -0.7988  0.1630  0.2201
  847MOL0     H11756   2.673   3.915   1.784  0.1534  0.0415 -1.1055
  847MOL0     H11757   2.507   3.941   1.544  1.6365  0.0820 -3.1306
  847MOL0     H11758   2.385   4.119   1.332 -4.0353  4.5511 -2.5754
  847MOL0     H11759   2.345   4.258   1.419  2.7715  0.1482  3.5325
  847MOL0     H11760   2.260   4.087   1.608 -0.4936  0.2976  0.3185
  847MOL0     H11761   2.277   3.959   1.483  1.0023  0.6641 -2.3204
  847MOL0     H11762   2.110   4.219   1.453  0.0366  0.8080 -0.0532
  847MOL0     H11763   2.132   4.098   1.326  0.6540 -0.4636  0.2769
  847MOL0     H11764   1.991   4.067   1.590  0.2642  3.1138 -1.1811
  847MOL0     H11765   2.017   3.926   1.479  1.6615  0.0640 -0.9813
  847MOL0     H11766   1.674   4.150   1.316 -2.2307 -2.5949 -1.5106
  847MOL0     H11767   1.436   4.109   1.415 -0.0868  0.1568  0.5025
  847MOL0     H11768   1.098   4.199   1.543  0.0115  0.2081 -1.5011
  847MOL0     H11769   0.854   4.180   1.589  2.5608  1.0769 -0.3799
  847MOL0     H11770   0.638   4.133   1.618  1.7675 -0.7035 -0.9262
  847MOL0     H11771   0.654   4.072   1.788 -0.4838 -1.6816 -0.1137
  847MOL0     H11772   0.478   3.906   1.752  0.2031  0.3634  0.9432
  847MOL0     H11773   0.481   3.939   1.582  1.6393  1.5306 -1.5672
  847MOL0     H11774   0.407   4.164   1.626 -1.3283 -0.4106 -0.4802
  847MOL0     H11775   0.411   4.144   1.800  2.5057 -1.2365  0.4277
  847MOL0     H11776   0.245   3.952   1.628 -0.4269  1.6605 -0.8723
  847MOL0     H11777   0.238   4.003   1.808 -2.2958  0.6961  0.2328
  847MOL0     H11778   0.134   4.149   1.574  0.8781 -0.2572 -0.2150
  847MOL0     H11779   0.180   4.228   1.727 -0.8429 -0.1135  0.1666
  847MOL0     H11780  -0.073   4.180   1.718 -1.1909 -1.6360 -1.6134
  847MOL0     H11781   0.014   4.086   1.845 -0.1085 -2.3529  0.2117
  847MOL0     H11782  -0.062   3.965   1.570 -1.6857  0.4320 -0.3696
  847MOL0     H11783   0.002   3.888   1.715  2.1487  0.7634 -0.8635
  847MOL0     H11784  -0.216   3.852   1.671  2.4187 -0.6606 -1.7664
  847MOL0     H11785  -0.259   4.015   1.694  2.0374  0.4712 -4.6570
  847MOL0     H11786   0.893   3.755   1.647 -2.1109  1.1041 -2.6407
  847MOL0     H11787   1.134   3.760   1.588  2.3061  0.5099 -0.7120
  847MOL0     H11788   1.616   3.892   1.735 -0.2388  0.6697 -0.2524
  847MOL0     H11789   1.831   3.923   1.625  0.4737  0.3858 -0.1856
  847MOL0     H11790   3.647   3.444   1.906  0.2286 -0.0827  0.9920
  847MOL0     H11791   3.892   3.362   1.911  1.3847 -0.3145 -0.5471
  847MOL0     H11792   4.259   3.295   1.892  0.3552 -0.2530  0.2330
  847MOL0     H11793   4.470   3.176   1.868 -1.7578  0.5505 -0.8289
  847MOL0     H11794   4.863   3.444   1.861 -0.1453  1.9432 -2.8209
  847MOL0     H11795   4.817   3.402   1.693 -1.0949 -2.8054 -1.5348
  847MOL0     H11796   4.942   3.193   1.865  1.6775  1.3813  1.9305
  847MOL0     H11797   4.897   3.201   1.690 -4.1054  2.8171  0.7492
  847MOL0     H11798   5.068   3.377   1.661 -0.0830  0.4837  0.7364
  847MOL0     H11799   5.135   3.224   1.710 -1.1011 -0.8784 -0.4016
  847MOL0     H11800   5.085   3.486   1.857  1.1538 -0.1222  0.4877
  847MOL0     H11801   5.124   3.326   1.947 -0.3775 -1.7785 -0.3269
  847MOL0     H11802   5.504   3.454   1.873 -0.0452 -0.4004 -2.1028
  847MOL0     H11803   4.668   3.537   1.744  2.1304 -1.4892  2.7135
  847MOL0     H11804   4.454   3.652   1.737  0.1027 -1.3901 -2.0633
  848MOL0     O11805   2.779  11.215   0.501 -0.0736  0.0325 -0.0593
  848MOL0     C11806   2.799  11.214   0.624  0.2392 -1.1032  0.3302
  848MOL0     O11807   2.728  11.285   0.714  0.2364  0.1215  0.4342
  848MOL0     C11808   2.605  11.327   0.666  0.0841  0.5904  0.7954
  848MOL0     C11809   2.505  11.240   0.619 -1.0861  0.2063 -0.3846
  848MOL0     C11810   2.387  11.287   0.560  0.8261 -0.1494  0.1957
  848MOL0     C11811   2.367  11.422   0.552  0.4127  0.0494  0.4733
  848MOL0     O11812   2.254  11.482   0.510  0.3535  0.4384 -0.5923
  848MOL0     C11813   2.131  11.407   0.529  0.3529 -1.0720 -0.1685
  848MOL0     C11814   2.009  11.497   0.490 -0.1691 -0.1904  0.1421
  848MOL0     C11815   1.874  11.420   0.513 -0.7234  0.2256  0.5824
  848MOL0     C11816   1.751  11.497   0.466 -0.6272 -1.1678 -0.0475
  848MOL0     C11817   1.629  11.449   0.546  0.5990  0.2853  0.0645
  848MOL0     C11818   1.498  11.523   0.512  0.5666 -0.7725 -0.0235
  848MOL0     C11819   1.382  11.491   0.600 -0.1261  0.4182  0.2162
  848MOL0     C11820   1.338  11.341   0.610  0.2422 -0.4614  0.7897
  848MOL0     N11821   1.234  11.330   0.704 -0.5818 -0.1310 -0.5044
  848MOL0     C11822   1.104  11.365   0.681 -0.2950 -0.1723  0.4798
  848MOL0     C11823   1.045  11.377   0.804 -0.6425  0.4552 -0.0294
  848MOL0     C11824   0.920  11.448   0.835  1.4013 -0.3106 -0.2697
  848MOL0     C11825   0.796  11.362   0.818  0.0806  0.2647  0.9452
  848MOL0     C11826   0.664  11.439   0.830 -0.1910 -0.1462 -0.8258
  848MOL0     C11827   0.549  11.342   0.811  0.6155  0.2178  0.0729
  848MOL0     O11828   0.520  11.313   0.674  0.4290  0.8866 -0.5220
  848MOL0     C11829   0.388  11.280   0.643 -0.5101 -0.5029 -0.6091
  848MOL0     C11830   0.283  11.265   0.740  0.1715  0.7492 -0.2919
  848MOL0     C11831   0.148  11.241   0.706  0.4347 -0.3622  1.1777
  848MOL0     C11832   0.120  11.230   0.566 -0.1983 -1.0210  0.1538
  848MOL0     C11833  -0.018  11.195   0.530 -0.2326 -0.4416 -0.6381
  848MOL0     O11834  -0.120  11.205   0.622  0.4504  0.1443 -0.3528
  848MOL0     C11835  -0.256  11.182   0.588  0.7172 -0.6594 -0.4090
  848MOL0     C11836  -0.349  11.264   0.650 -0.1206  0.1897 -0.1271
  848MOL0     C11837  -0.490  11.257   0.617  0.3379  0.2624 -0.0490
  848MOL0     C11838  -0.541  11.165   0.531  0.0839 -0.7776  0.8749
  848MOL0     O11839  -0.664  11.154   0.485  0.2021  0.2667 -0.6182
  848MOL0     C11840  -0.759  11.141   0.598 -1.0101 -1.3110  0.1235
  848MOL0     C11841  -0.901  11.080   0.567 -0.4398  0.1915 -0.3770
  848MOL0     C11842  -0.960  11.154   0.449 -0.1092  0.1636  0.5482
  848MOL0     C11843  -1.074  11.080   0.381 -0.1108  1.1782  0.3836
  848MOL0     C11844  -1.213  11.135   0.419  0.4495  0.1564 -0.0465
  848MOL0     C11845  -1.334  11.060   0.372 -0.0348 -0.7713 -0.2384
  848MOL0     C11846  -1.318  10.978   0.253  0.2088  0.1165  0.1841
  848MOL0     C11847  -1.450  10.943   0.191  0.3265  0.0682 -0.1897
  848MOL0    Cl11848  -1.416  10.853   0.041  0.3670 -0.3755 -0.1512
  848MOL0     C11849  -0.449  11.076   0.481 -0.0027 -0.7095 -0.5717
  848MOL0     C11850  -0.311  11.086   0.507 -0.0319 -0.9931  0.3090
  848MOL0     O11851  -0.039  11.173   0.414 -0.6617 -0.5675  0.4687
  848MOL0     C11852   0.217  11.250   0.467 -0.2827 -0.0772 -0.4470
  848MOL0     C11853   0.353  11.277   0.506  0.5106 -0.1467 -0.5265
  848MOL0     N11854   1.132  11.342   0.899  0.0704  0.0210  0.0760
  848MOL0     N11855   1.246  11.312   0.838  0.2952 -0.0864 -0.0931
  848MOL0     C11856   2.469  11.509   0.590  0.0561  0.2133 -0.3737
  848MOL0     C11857   2.585  11.458   0.650 -0.0680  0.2330  0.3240
  848MOL0     C11858   2.926  11.156   0.669  0.6900 -0.8687 -0.2688
  848MOL0     C11859   2.983  11.193   0.794  0.0044 -0.0042  0.1986
  848MOL0     C11860   3.084  11.114   0.857  0.9725  0.1613  0.9739
  848MOL0     C11861   3.136  11.012   0.789 -0.7892  0.6929  0.1704
  848MOL0     O11862   3.237  10.947   0.859 -0.0293  0.6871  1.1325
  848MOL0     C11863   3.321  10.854   0.788 -0.2001 -0.2872  0.0673
  848MOL0     C11864   3.429  10.793   0.880 -0.0736 -0.1153 -0.0831
  848MOL0     C11865   3.538  10.892   0.923 -0.4775  0.3608  0.2555
  848MOL0     C11866   3.655  10.812   0.983 -0.5600 -0.4603 -0.3398
  848MOL0     C11867   3.735  10.764   0.870  0.2388  0.2651  0.5080
  848MOL0     C11868   3.784  10.738   0.759 -0.3391 -0.4219  0.8367
  848MOL0     C11869   3.091  10.990   0.654 -0.0872 -0.1121  0.4620
  848MOL0     C11870   2.990  11.066   0.593 -0.9685  0.9654 -0.3913
  848MOL0     H11871   2.518  11.133   0.630 -0.8309  0.4250  1.9727
  848MOL0     H11872   2.315  11.208   0.541  0.3368 -0.4290  2.8786
  848MOL0     H11873   2.109  11.385   0.633 -0.4217  0.3463 -0.0098
  848MOL0     H11874   2.139  11.320   0.463  2.1697  0.7281 -2.5012
  848MOL0     H11875   2.013  11.524   0.384  0.4698  2.7962  0.8380
  848MOL0     H11876   2.012  11.590   0.546  0.6622  0.4066 -0.8504
  848MOL0     H11877   1.865  11.392   0.618  0.3083  0.9722  0.8865
  848MOL0     H11878   1.881  11.322   0.464 -0.6615 -1.0262  2.9526
  848MOL0     H11879   1.774  11.602   0.487 -1.4497 -0.9081 -0.4275
  848MOL0     H11880   1.742  11.489   0.357  1.7300  1.2004 -0.5309
  848MOL0     H11881   1.648  11.475   0.651  1.1952 -0.0108  0.0355
  848MOL0     H11882   1.612  11.341   0.538 -4.4011  0.7379  1.2151
  848MOL0     H11883   1.471  11.511   0.406 -0.6532 -3.1975  0.4808
  848MOL0     H11884   1.524  11.629   0.512  0.2413 -0.6412  2.3482
  848MOL0     H11885   1.404  11.521   0.703  0.4132 -0.0660  0.2474
  848MOL0     H11886   1.297  11.552   0.566 -0.6981  0.0884  1.0049
  848MOL0     H11887   1.424  11.290   0.654 -0.3356 -3.2738 -1.0754
  848MOL0     H11888   1.306  11.292   0.518  0.2305  0.6302  0.1890
  848MOL0     H11889   1.072  11.385   0.580 -0.2407 -1.7854  0.1215
  848MOL0     H11890   0.906  11.529   0.762 -1.4664 -0.3331  0.1438
  848MOL0     H11891   0.915  11.502   0.930 -2.2178  0.5441 -0.7978
  848MOL0     H11892   0.793  11.282   0.893 -2.2750 -0.1369  0.5012
  848MOL0     H11893   0.805  11.310   0.722 -0.8404  1.3996  0.2276
  848MOL0     H11894   0.651  11.487   0.928 -2.5084  1.0712 -1.6515
  848MOL0     H11895   0.646  11.517   0.755 -2.3152 -1.1339 -1.4349
  848MOL0     H11896   0.466  11.391   0.864  0.5171  0.3174 -0.1724
  848MOL0     H11897   0.564  11.249   0.865 -1.8286 -0.2198  0.1484
  848MOL0     H11898   0.314  11.255   0.843  1.1104 -0.5719 -0.6690
  848MOL0     H11899   0.069  11.231   0.780 -1.6237 -0.2666 -0.8812
  848MOL0     H11900  -0.317  11.328   0.732  1.2156  0.6784 -0.9920
  848MOL0     H11901  -0.559  11.316   0.677  0.2992 -1.3250  1.5810
  848MOL0     H11902  -0.782  11.243   0.632 -0.1641 -0.9847 -0.2619
  848MOL0     H11903  -0.725  11.093   0.690  1.2645  1.2500  0.7433
  848MOL0     H11904  -0.964  11.090   0.656  0.5319  0.6416  0.2807
  848MOL0     H11905  -0.890  10.973   0.548  1.1637  0.3797 -0.6238
  848MOL0     H11906  -0.872  11.156   0.383  0.6439  0.4119  1.5364
  848MOL0     H11907  -0.998  11.254   0.471 -0.8828 -0.0739  0.2994
  848MOL0     H11908  -1.069  11.097   0.273 -0.4303  2.1998  0.5209
  848MOL0     H11909  -1.062  10.972   0.392  1.7177  1.4701  1.7640
  848MOL0     H11910  -1.217  11.240   0.388  0.5507  0.1247 -0.1651
  848MOL0     H11911  -1.201  11.137   0.528  1.1278  0.3273 -0.1200
  848MOL0     H11912  -1.419  11.129   0.371 -0.9568 -1.8693  0.4212
  848MOL0     H11913  -1.354  10.983   0.447  1.0005 -1.9357 -1.1281
  848MOL0     H11914  -1.253  11.035   0.187 -0.3099 -0.4192 -0.8115
  848MOL0     H11915  -1.263  10.892   0.295  1.1497  0.9491  0.7100
  848MOL0     H11916  -1.498  11.034   0.155  1.4396  0.6306 -0.2882
  848MOL0     H11917  -1.503  10.882   0.265 -0.2238  2.6203  1.6458
  848MOL0     H11918  -0.483  10.993   0.420 -2.6973 -0.0049 -0.1420
  848MOL0     H11919  -0.234  11.019   0.470  0.6890  0.5910 -1.1701
  848MOL0     H11920   0.188  11.254   0.362 -1.1862  0.7321 -0.1745
  848MOL0     H11921   0.435  11.292   0.437 -1.2382  1.2050 -2.4022
  848MOL0     H11922   2.440  11.613   0.583 -1.5683 -0.3258 -2.7574
  848MOL0     H11923   2.669  11.520   0.679  0.2555  0.1859 -0.4782
  848MOL0     H11924   2.935  11.277   0.844 -2.3087 -0.4797 -1.0783
  848MOL0     H11925   3.092  11.127   0.964 -1.2703  0.0729  1.1991
  848MOL0     H11926   3.357  10.896   0.693 -1.9143  1.4657  0.1258
  848MOL0     H11927   3.253  10.771   0.765  0.2586  0.2451 -3.9282
  848MOL0     H11928   3.384  10.762   0.975  0.5136  0.8643  0.5316
  848MOL0     H11929   3.468  10.702   0.832  0.0900 -0.1112  0.0426
  848MOL0     H11930   3.495  10.958   1.000 -2.2041 -0.6911  0.2414
  848MOL0     H11931   3.579  10.956   0.845  0.1218  0.7229  0.8443
  848MOL0     H11932   3.710  10.885   1.043 -1.1473 -0.3856  0.1034
  848MOL0     H11933   3.622  10.733   1.051  2.5074 -1.3408  0.2809
  848MOL0     H11934   3.841  10.711   0.672 -2.2061  0.8633 -0.8699
  848MOL0     H11935   3.144  10.907   0.608  0.1271  1.1474 -1.6679
  848MOL0     H11936   2.965  11.044   0.490  0.0427 -0.5917 -0.3244
  849MOL0     O11937   4.755  10.911   4.977  1.1325  0.3696 -0.1787
  849MOL0     C11938   4.781  10.857   5.082  0.8000  0.1700  0.1646
  849MOL0     O11939   4.709  10.882   5.193 -0.4218  0.1123 -0.4631
  849MOL0     C11940   4.593  10.963   5.190  0.1064 -0.4750 -0.2124
  849MOL0     C11941   4.479  10.916   5.133 -0.3595 -1.6380  0.1671
  849MOL0     C11942   4.362  11.002   5.132 -0.1682  1.1750  0.0331
  849MOL0     C11943   4.364  11.126   5.200 -0.0842  1.0891  0.1703
  849MOL0     O11944   4.238  11.191   5.196 -0.5153  0.4190  0.2524
  849MOL0     C11945   4.219  11.292   5.298  0.0343  0.6659 -0.3220
  849MOL0     C11946   4.065  11.339   5.292  0.1062 -0.0386 -0.1771
  849MOL0     C11947   3.963  11.222   5.307  0.1996 -0.9857 -0.4198
  849MOL0     C11948   3.807  11.262   5.280 -0.0979 -0.3955 -0.4255
  849MOL0     C11949   3.712  11.142   5.273  0.0205 -0.6600 -0.2928
  849MOL0     C11950   3.581  11.179   5.205  0.3863 -1.2199  0.4685
  849MOL0     C11951   3.484  11.058   5.233  0.1902 -0.0804 -0.0977
  849MOL0     C11952   3.335  11.095   5.191 -0.8832  0.5654 -0.7936
  849MOL0     N11953   3.238  10.997   5.237 -0.3689  0.6550 -0.2908
  849MOL0     C11954   3.117  10.982   5.165 -0.7142  0.6437  0.1847
  849MOL0     C11955   3.030  10.916   5.240 -0.2780 -0.9848 -0.1191
  849MOL0     C11956   2.892  10.875   5.217  0.7650  0.5776  0.3477
  849MOL0     C11957   2.815  10.830   5.352  0.2513  0.0472  0.5152
  849MOL0     C11958   2.666  10.795   5.329 -0.4660  0.4962 -0.4278
  849MOL0     C11959   2.596  10.760   5.458  0.3289 -0.6023 -0.1567
  849MOL0     O11960   2.466  10.707   5.442  0.5817  0.1325 -0.0822
  849MOL0     C11961   2.350  10.781   5.411  0.1887 -0.2158  0.0579
  849MOL0     C11962   2.342  10.914   5.366 -1.0104  0.2606 -0.3024
  849MOL0     C11963   2.220  10.966   5.340  1.0553 -0.0773 -0.1250
  849MOL0     C11964   2.097  10.894   5.352 -0.1493 -0.4783  0.3497
  849MOL0     C11965   1.968  10.958   5.312 -0.1068  0.4763  0.2513
  849MOL0     O11966   1.864  10.873   5.289 -0.5878  0.4756  0.1256
  849MOL0     C11967   1.739  10.924   5.247  0.8219 -0.2302  0.0586
  849MOL0     C11968   1.628  10.898   5.330 -0.2217 -0.7759  0.8326
  849MOL0     C11969   1.501  10.946   5.292 -0.0972  0.0337  0.5657
  849MOL0     C11970   1.484  11.019   5.171 -0.2221  0.6540 -0.5579
  849MOL0     O11971   1.365  11.074   5.127  0.1366  0.1790  0.5659
  849MOL0     C11972   1.245  11.026   5.191 -1.0730  1.1319  0.3089
  849MOL0     C11973   1.116  11.062   5.122  0.1424 -1.1362 -0.9011
  849MOL0     C11974   1.010  11.002   5.215  0.0526  0.2092 -0.5402
  849MOL0     C11975   0.871  11.040   5.160  0.0057  0.6110 -0.5157
  849MOL0     C11976   0.837  10.978   5.024 -0.2420 -0.0710  0.8729
  849MOL0     C11977   0.709  11.042   4.966 -0.4116 -0.1971 -0.0107
  849MOL0     C11978   0.588  11.060   5.056  0.2633 -0.8717 -0.6302
  849MOL0     C11979   0.468  10.994   4.993  0.0690  0.5144 -0.1468
  849MOL0    Cl11980   0.331  10.963   5.103 -0.5517  0.1227 -0.0163
  849MOL0     C11981   1.594  11.047   5.094 -0.4414 -0.2177  0.3201
  849MOL0     C11982   1.719  10.994   5.125 -0.6931 -0.4946  0.1381
  849MOL0     O11983   1.971  11.070   5.275  0.0691 -0.1495 -0.5162
  849MOL0     C11984   2.109  10.771   5.402 -1.4338 -0.0192  0.0673
  849MOL0     C11985   2.225  10.712   5.423  0.3777  0.0013 -0.2617
  849MOL0     N11986   3.092  10.904   5.363  0.5910 -0.5036 -0.7760
  849MOL0     N11987   3.215  10.946   5.365 -0.1765 -0.3343  0.1364
  849MOL0     C11988   4.480  11.159   5.277 -0.5493  0.3110 -0.3063
  849MOL0     C11989   4.600  11.088   5.260  0.5340  0.6011 -0.0929
  849MOL0     C11990   4.904  10.783   5.102 -1.2205 -0.0888 -0.0600
  849MOL0     C11991   4.965  10.765   5.224  0.4884  0.8456 -0.8902
  849MOL0     C11992   5.084  10.687   5.224  0.6928  0.5255  0.5567
  849MOL0     C11993   5.148  10.642   5.112  0.4837 -1.0288  0.4849
  849MOL0     O11994   5.262  10.574   5.127  0.4533  0.6174 -0.3287
  849MOL0     C11995   5.337  10.552   5.001 -0.8595 -0.3673 -0.5104
  849MOL0     C11996   5.469  10.507   5.045 -0.0220  0.7286  0.2842
  849MOL0     C11997   5.559  10.468   4.920 -0.3535  0.1370 -0.2254
  849MOL0     C11998   5.699  10.420   4.964 -0.4351 -0.4208  0.3575
  849MOL0     C11999   5.769  10.343   4.853  0.5409  0.6484  0.2805
  849MOL0     C12000   5.829  10.281   4.764 -0.0399  0.0087  0.3209
  849MOL0     C12001   5.083  10.661   4.984  0.2951 -0.0614  0.0246
  849MOL0     C12002   4.961  10.734   4.984  0.7182  0.7486 -0.2557
  849MOL0     H12003   4.474  10.825   5.075  0.1764 -0.0314 -2.5357
  849MOL0     H12004   4.273  10.955   5.091 -1.4166  1.8233  1.8680
  849MOL0     H12005   4.290  11.375   5.294 -0.1375  0.8470  0.2733
  849MOL0     H12006   4.231  11.245   5.396  0.9307 -2.1744 -1.6773
  849MOL0     H12007   4.058  11.388   5.194 -0.3162 -0.0857 -0.1728
  849MOL0     H12008   4.054  11.413   5.371  0.0812  2.0118 -1.9902
  849MOL0     H12009   3.965  11.186   5.410 -1.4675  0.7688  0.3093
  849MOL0     H12010   3.999  11.144   5.239  1.4693 -0.7749 -0.0168
  849MOL0     H12011   3.762  11.332   5.352 -0.2844  0.0198 -0.9396
  849MOL0     H12012   3.815  11.314   5.184  2.3738 -1.9879 -1.1682
  849MOL0     H12013   3.699  11.115   5.378 -0.0862  2.0274  0.4808
  849MOL0     H12014   3.772  11.076   5.210  1.3640  0.4025 -0.1971
  849MOL0     H12015   3.597  11.187   5.097  0.8132 -2.3581  0.4296
  849MOL0     H12016   3.551  11.274   5.250  0.2877 -1.1968  0.3552
  849MOL0     H12017   3.526  10.971   5.181  0.4228 -1.0631  1.6725
  849MOL0     H12018   3.490  11.029   5.338  1.3103 -1.8375 -0.5882
  849MOL0     H12019   3.338  11.110   5.083  1.1248 -0.2619 -0.8992
  849MOL0     H12020   3.308  11.188   5.241  0.3023  0.6402 -0.2439
  849MOL0     H12021   3.090  11.015   5.065 -0.9508 -1.7457 -0.5951
  849MOL0     H12022   2.895  10.785   5.154  1.3501 -1.0329  2.5420
  849MOL0     H12023   2.832  10.947   5.159  2.5012  0.3250 -1.9120
  849MOL0     H12024   2.831  10.904   5.432  0.6572 -0.7065  1.1537
  849MOL0     H12025   2.855  10.734   5.385  0.4190 -0.2525 -0.5326
  849MOL0     H12026   2.613  10.877   5.280 -1.6708 -0.4372 -0.7171
  849MOL0     H12027   2.669  10.717   5.253  0.1456  1.9806 -1.9860
  849MOL0     H12028   2.584  10.844   5.527 -0.9241 -2.4520  2.0240
  849MOL0     H12029   2.650  10.679   5.508 -1.6249 -1.7039  0.2407
  849MOL0     H12030   2.431  10.974   5.347 -0.8915  0.5907  1.1704
  849MOL0     H12031   2.224  11.060   5.286  4.1375 -1.2547 -2.1902
  849MOL0     H12032   1.635  10.843   5.424  0.7028 -0.8074  0.7483
  849MOL0     H12033   1.411  10.927   5.349 -0.9525  0.8812 -0.4412
  849MOL0     H12034   1.238  11.067   5.292 -1.7835  0.3065  0.6056
  849MOL0     H12035   1.251  10.917   5.196  1.2888  1.2269  0.5382
  849MOL0     H12036   1.110  11.023   5.020  3.9680 -0.3626 -1.5716
  849MOL0     H12037   1.097  11.170   5.120 -1.7893 -1.4600 -2.2042
  849MOL0     H12038   1.030  11.031   5.318  0.5034 -3.2273  0.4627
  849MOL0     H12039   1.022  10.894   5.222 -0.4975  0.1709 -0.1163
  849MOL0     H12040   0.797  11.001   5.230 -1.8172  0.3370 -2.4980
  849MOL0     H12041   0.857  11.148   5.158 -2.7184  0.3133 -0.9153
  849MOL0     H12042   0.812  10.874   5.049  3.4623 -0.9828  1.2560
  849MOL0     H12043   0.911  10.979   4.944  0.0839  0.5566  1.1700
  849MOL0     H12044   0.681  10.982   4.879  2.7762  0.0041 -1.3189
  849MOL0     H12045   0.741  11.136   4.920  2.3150 -0.5822  0.9426
  849MOL0     H12046   0.602  11.012   5.154  2.7816 -2.0467 -1.4860
  849MOL0     H12047   0.552  11.161   5.074 -2.4830 -1.9439  0.4695
  849MOL0     H12048   0.496  10.898   4.948  1.7655  0.8478  0.1130
  849MOL0     H12049   0.442  11.048   4.902 -1.9242  2.3215  1.3757
  849MOL0     H12050   1.584  11.109   5.005 -1.7098  0.0747  0.6558
  849MOL0     H12051   1.802  11.000   5.055 -1.7978 -1.2392 -1.2867
  849MOL0     H12052   2.022  10.707   5.413 -1.6960  0.2694 -0.3201
  849MOL0     H12053   2.226  10.612   5.464  1.8648 -0.1359 -0.5656
  849MOL0     H12054   4.478  11.249   5.338  1.1867 -1.0755  1.9643
  849MOL0     H12055   4.692  11.120   5.309  2.5526 -0.3960 -2.9809
  849MOL0     H12056   4.916  10.789   5.318 -0.0228 -2.3538 -0.2264
  849MOL0     H12057   5.130  10.659   5.318  2.0132  0.6970 -0.0114
  849MOL0     H12058   5.335  10.647   4.947  1.9384  0.6919  0.9853
  849MOL0     H12059   5.302  10.473   4.935  1.8071 -2.9603  0.9412
  849MOL0     H12060   5.521  10.571   5.117 -1.2144  0.7317  1.1719
  849MOL0     H12061   5.442  10.410   5.087 -1.5794 -0.6241 -3.4027
  849MOL0     H12062   5.578  10.555   4.856 -1.2407  0.7734  0.3604
  849MOL0     H12063   5.509  10.397   4.852 -0.3429 -0.9597  0.8896
  849MOL0     H12064   5.760  10.505   4.997 -0.5458  0.9518 -2.6490
  849MOL0     H12065   5.690  10.356   5.052  1.9963 -1.6981 -0.2321
  849MOL0     H12066   5.881  10.238   4.681  0.6767  4.1816 -1.6341
  849MOL0     H12067   5.113  10.618   4.889  1.1894  1.8005 -0.6000
  849MOL0     H12068   4.922  10.749   4.884  2.1354 -5.3723 -2.1672
  850MOL0     O12069   8.088   8.463   9.189 -0.7007 -0.0561 -0.0010
  850MOL0     C12070   8.192   8.517   9.153  0.5161 -0.8750  0.5562
  850MOL0     O12071   8.194   8.640   9.087  0.0457  0.2659 -0.0904
  850MOL0     C12072   8.074   8.684   9.043 -0.2993 -0.4221  0.7736
  850MOL0     C12073   7.984   8.752   9.123  0.2430 -0.0041 -0.0506
  850MOL0     C12074   7.870   8.796   9.071  0.2895 -0.1516  0.6193
  850MOL0     C12075   7.823   8.755   8.949 -0.3009  0.4806  0.1022
  850MOL0     O12076   7.687   8.774   8.924  0.4405  0.1821  0.0630
  850MOL0     C12077   7.648   8.765   8.777  1.4130 -0.2836  0.7334
  850MOL0     C12078   7.507   8.823   8.752 -0.8762  0.1593 -0.5789
  850MOL0     C12079   7.388   8.739   8.817 -0.4389 -1.2086 -0.5850
  850MOL0     C12080   7.259   8.788   8.768 -0.3701 -0.3932  0.4117
  850MOL0     C12081   7.142   8.731   8.846  0.4571 -0.2395  0.0137
  850MOL0     C12082   7.080   8.607   8.784 -0.3108 -0.4192  0.6510
  850MOL0     C12083   6.953   8.575   8.864 -0.1703  0.3440 -0.2120
  850MOL0     C12084   6.873   8.483   8.780 -0.0014 -0.7137  0.8746
  850MOL0     N12085   6.741   8.447   8.838  0.0654 -0.7350  0.5670
  850MOL0     C12086   6.640   8.545   8.823 -0.0865 -0.0948  0.3669
  850MOL0     C12087   6.533   8.503   8.905 -0.0537  0.1097 -0.3293
  850MOL0     C12088   6.402   8.575   8.929  0.3839 -0.0111  0.2334
  850MOL0     C12089   6.281   8.480   8.905  0.3302 -0.1037  0.4205
  850MOL0     C12090   6.157   8.538   8.977 -0.0105  0.0113 -0.3048
  850MOL0     C12091   6.047   8.438   8.971  0.1976  0.0841  0.5152
  850MOL0     O12092   5.924   8.508   8.988  0.5734 -0.1095 -0.8819
  850MOL0     C12093   5.810   8.441   8.945 -0.2231  0.4460 -0.2295
  850MOL0     C12094   5.805   8.390   8.812 -0.0739  0.6963  0.1335
  850MOL0     C12095   5.682   8.326   8.757 -0.5706 -0.9822 -0.0027
  850MOL0     C12096   5.574   8.321   8.841 -0.6682  0.4139  0.0806
  850MOL0     C12097   5.448   8.262   8.785  0.8469 -0.7511  1.0731
  850MOL0     O12098   5.442   8.222   8.654  0.2502  0.3679  0.9491
  850MOL0     C12099   5.318   8.194   8.607 -0.0658  0.3224 -0.1848
  850MOL0     C12100   5.240   8.081   8.646  0.1312 -0.1788 -0.2413
  850MOL0     C12101   5.122   8.046   8.577 -0.4663 -0.5538  0.4623
  850MOL0     C12102   5.062   8.144   8.491  0.2917 -0.4522  0.7039
  850MOL0     O12103   4.941   8.132   8.417 -0.3402 -0.3038 -0.3378
  850MOL0     C12104   4.844   8.053   8.487  0.6273  0.8361  1.4216
  850MOL0     C12105   4.721   8.027   8.395 -0.6958  0.0203 -0.7562
  850MOL0     C12106   4.621   7.919   8.437 -0.7118  0.2865 -0.7798
  850MOL0     C12107   4.496   7.918   8.347 -0.0998 -0.1183 -0.1185
  850MOL0     C12108   4.388   7.814   8.406 -0.4827 -0.3410  0.7777
  850MOL0     C12109   4.285   7.763   8.305 -0.3208 -0.5944 -0.3940
  850MOL0     C12110   4.191   7.879   8.257  0.6068 -0.8022  0.9183
  850MOL0     C12111   4.083   7.818   8.156  0.2131 -0.3579  0.2075
  850MOL0    Cl12112   3.985   7.705   8.252 -0.0254 -0.3223 -0.1568
  850MOL0     C12113   5.137   8.265   8.458  0.4717  0.3276 -0.2992
  850MOL0     C12114   5.257   8.288   8.524  0.2495 -0.8248  0.9731
  850MOL0     O12115   5.363   8.231   8.871 -0.8097 -0.1278  0.9726
  850MOL0     C12116   5.579   8.380   8.962  0.4681 -0.0894 -0.1028
  850MOL0     C12117   5.693   8.435   9.015  0.7158 -0.1424  0.1595
  850MOL0     N12118   6.580   8.397   8.982 -0.1085 -0.4028  0.0374
  850MOL0     N12119   6.703   8.362   8.944 -0.7108  0.0232  0.1114
  850MOL0     C12120   7.908   8.691   8.866 -0.2936  0.3699 -0.5965
  850MOL0     C12121   8.033   8.655   8.908 -0.2967 -0.3688 -0.5378
  850MOL0     C12122   8.322   8.450   9.174  0.0487  0.0147 -0.4805
  850MOL0     C12123   8.335   8.321   9.221  0.3158  0.2595 -0.2380
  850MOL0     C12124   8.463   8.264   9.236 -1.1891  0.3392  0.1299
  850MOL0     C12125   8.577   8.332   9.200 -0.0170  0.1878 -0.1537
  850MOL0     O12126   8.694   8.267   9.223  0.3673  0.7387 -0.6426
  850MOL0     C12127   8.827   8.323   9.202  0.1897 -0.1139  0.5125
  850MOL0     C12128   8.927   8.275   9.308  0.0160  0.9234 -0.4797
  850MOL0     C12129   9.023   8.386   9.342 -0.3686  0.6280  0.2602
  850MOL0     C12130   9.145   8.336   9.428  0.3756  0.0222 -0.8587
  850MOL0     C12131   9.090   8.252   9.537 -0.0903  0.2837 -0.8935
  850MOL0     C12132   9.052   8.175   9.625  0.0485 -0.5311 -0.1074
  850MOL0     C12133   8.566   8.455   9.144 -1.1236 -0.0073  1.2606
  850MOL0     C12134   8.442   8.518   9.139  0.1249  0.1323  0.0569
  850MOL0     H12135   8.022   8.785   9.220 -0.0570  0.4180 -0.0738
  850MOL0     H12136   7.798   8.856   9.126  1.2046 -1.2138  3.1212
  850MOL0     H12137   7.644   8.659   8.753 -0.5145 -0.3112  1.0078
  850MOL0     H12138   7.726   8.815   8.719 -1.0244  1.3575 -1.3144
  850MOL0     H12139   7.490   8.830   8.644  1.1834 -2.1117 -1.1565
  850MOL0     H12140   7.504   8.917   8.807 -0.1115  0.0211 -0.2919
  850MOL0     H12141   7.400   8.753   8.925 -0.6184  3.3421 -0.9372
  850MOL0     H12142   7.383   8.635   8.786 -1.3569 -1.2952 -0.1771
  850MOL0     H12143   7.256   8.896   8.787 -0.1687 -0.9681  4.8884
  850MOL0     H12144   7.242   8.767   8.662  0.7347  0.3342  0.0682
  850MOL0     H12145   7.067   8.810   8.842 -0.1454 -0.7940  0.3553
  850MOL0     H12146   7.179   8.703   8.945  1.4857 -0.6836 -0.4809
  850MOL0     H12147   7.151   8.525   8.799 -1.4773 -1.8605 -1.2651
  850MOL0     H12148   7.061   8.619   8.677 -0.7558 -0.4424  0.7243
  850MOL0     H12149   6.969   8.523   8.959 -3.3508 -0.3011  0.0803
  850MOL0     H12150   6.888   8.659   8.888 -2.0356 -1.6998  2.6260
  850MOL0     H12151   6.918   8.385   8.761 -1.1489 -0.9782 -0.7627
  850MOL0     H12152   6.862   8.532   8.682  1.8037 -0.0618  0.9632
  850MOL0     H12153   6.636   8.634   8.761  0.4647 -1.3488 -1.5339
  850MOL0     H12154   6.392   8.653   8.853  0.5152 -1.3868 -1.2420
  850MOL0     H12155   6.393   8.616   9.030 -0.5852  0.3453  0.0130
  850MOL0     H12156   6.308   8.385   8.953  2.4881  1.0796  1.6744
  850MOL0     H12157   6.256   8.468   8.799 -1.5789  1.6594  0.6178
  850MOL0     H12158   6.178   8.570   9.079  2.2277 -0.4544 -0.5619
  850MOL0     H12159   6.138   8.629   8.920 -0.6586 -0.5187 -0.9624
  850MOL0     H12160   6.056   8.373   9.059  1.4474  2.0929  1.9696
  850MOL0     H12161   6.059   8.374   8.883  0.7236 -2.3539  2.2603
  850MOL0     H12162   5.896   8.384   8.754  1.5117 -0.4948  2.5742
  850MOL0     H12163   5.673   8.289   8.655 -4.2178  3.8745 -1.8210
  850MOL0     H12164   5.288   8.023   8.724  3.0118  1.3980 -0.7183
  850MOL0     H12165   5.071   7.954   8.603 -0.7311 -0.6994 -0.5130
  850MOL0     H12166   4.806   8.110   8.572 -0.1531 -0.7460  2.1796
  850MOL0     H12167   4.879   7.955   8.523  2.1861  0.1458 -1.6388
  850MOL0     H12168   4.767   8.005   8.298  1.8223 -0.1107  0.3788
  850MOL0     H12169   4.661   8.119   8.391  1.8776  1.7848 -1.9759
  850MOL0     H12170   4.588   7.932   8.541  4.2747  0.3545  1.0584
  850MOL0     H12171   4.667   7.819   8.436  1.3600  1.2017 -2.0086
  850MOL0     H12172   4.450   8.017   8.338  2.7512  1.4770  1.4386
  850MOL0     H12173   4.521   7.883   8.247  0.8008 -1.8341  0.6549
  850MOL0     H12174   4.327   7.857   8.486 -0.7809 -0.6475  0.7171
  850MOL0     H12175   4.443   7.730   8.450 -3.5597 -3.6036 -1.0523
  850MOL0     H12176   4.237   7.675   8.348  0.6933  0.7169  3.9134
  850MOL0     H12177   4.340   7.733   8.216  0.8760 -0.8830  0.4129
  850MOL0     H12178   4.157   7.949   8.334 -1.4267  0.7471 -1.2453
  850MOL0     H12179   4.238   7.944   8.183 -0.2748  0.3822  1.3604
  850MOL0     H12180   4.126   7.766   8.070 -1.7018  1.1423 -1.7725
  850MOL0     H12181   4.021   7.897   8.112 -0.7877  0.0348  2.1992
  850MOL0     H12182   5.099   8.343   8.394 -0.7294  0.7224  0.8555
  850MOL0     H12183   5.308   8.381   8.505 -0.6252 -0.2699  1.2984
  850MOL0     H12184   5.497   8.384   9.032  0.9536 -1.7650  0.6024
  850MOL0     H12185   5.695   8.459   9.121  1.2692 -0.5779  0.2510
  850MOL0     H12186   7.882   8.662   8.764  0.2225 -0.2266 -0.5620
  850MOL0     H12187   8.091   8.597   8.837 -0.1169  1.1086 -1.6381
  850MOL0     H12188   8.244   8.263   9.239 -0.1052  0.9761 -0.0352
  850MOL0     H12189   8.468   8.161   9.269 -3.3080 -0.2346 -1.1858
  850MOL0     H12190   8.822   8.430   9.222  0.8808 -0.0205  0.2395
  850MOL0     H12191   8.870   8.311   9.102  0.6496 -1.6027  0.8481
  850MOL0     H12192   8.869   8.238   9.393 -1.5343  0.2347 -1.8009
  850MOL0     H12193   8.987   8.192   9.272  0.3921  1.7336 -1.7979
  850MOL0     H12194   8.975   8.460   9.407  0.7578  1.2390  0.4108
  850MOL0     H12195   9.063   8.429   9.250  1.9802 -0.8691  0.4921
  850MOL0     H12196   9.209   8.268   9.370  2.4465  1.1330  0.0300
  850MOL0     H12197   9.214   8.416   9.458 -1.5544  0.7852  1.9123
  850MOL0     H12198   9.012   8.097   9.687 -1.9072  0.1363 -0.4536
  850MOL0     H12199   8.653   8.511   9.112 -0.8957 -0.9855  0.1132
  850MOL0     H12200   8.444   8.620   9.102 -1.4674  0.3717  0.5578
  851MOL0     O12201   1.685   3.359   3.935 -0.3450  0.7075 -0.3687
  851MOL0     C12202   1.737   3.469   3.902 -0.4281 -0.5516  0.3949
  851MOL0     O12203   1.712   3.541   3.791  0.0509 -0.1007  0.3986
  851MOL0     C12204   1.593   3.522   3.714 -0.4174 -0.8419 -0.6605
  851MOL0     C12205   1.602   3.582   3.592 -0.2155 -0.6632  0.4620
  851MOL0     C12206   1.483   3.585   3.510  0.0221  0.4722 -0.2698
  851MOL0     C12207   1.359   3.537   3.559  0.0199  0.4725  0.0367
  851MOL0     O12208   1.236   3.541   3.499  0.4706 -0.6664 -0.2608
  851MOL0     C12209   1.228   3.565   3.354 -0.0147  0.0189 -0.8400
  851MOL0     C12210   1.218   3.714   3.303  0.2126  0.8624 -0.1566
  851MOL0     C12211   1.134   3.806   3.398 -0.0303 -0.0575  0.2329
  851MOL0     C12212   0.983   3.763   3.379 -0.0077 -1.1453  0.3507
  851MOL0     C12213   0.879   3.867   3.431  0.3266  0.3717 -1.2104
  851MOL0     C12214   0.725   3.818   3.437  0.5300  0.2974  0.6627
  851MOL0     C12215   0.664   3.785   3.297  0.7750 -0.3855 -0.4747
  851MOL0     C12216   0.513   3.730   3.316 -1.3217  0.3538  0.6258
  851MOL0     N12217   0.420   3.835   3.356  0.3907 -0.7151  0.4602
  851MOL0     C12218   0.373   3.866   3.483 -1.0896 -0.3545  0.1364
  851MOL0     C12219   0.275   3.955   3.464 -0.2421 -0.3624  0.2585
  851MOL0     C12220   0.209   4.050   3.570 -0.7568 -0.1733  0.4493
  851MOL0     C12221   0.227   4.195   3.517  0.5969  0.1305  0.1768
  851MOL0     C12222   0.116   4.242   3.428  0.1095 -0.2925  0.5127
  851MOL0     C12223   0.126   4.391   3.422 -0.0198  0.4698  0.1377
  851MOL0     O12224   0.009   4.440   3.356 -0.4601 -0.2805  0.0107
  851MOL0     C12225  -0.106   4.450   3.427 -0.4835  1.2282 -0.3300
  851MOL0     C12226  -0.213   4.468   3.350  0.6550 -0.0994  0.1333
  851MOL0     C12227  -0.344   4.478   3.396 -0.6326 -1.2016 -0.8572
  851MOL0     C12228  -0.368   4.493   3.536  0.1830  0.1852  0.9188
  851MOL0     C12229  -0.499   4.531   3.589  0.7283  0.7843  0.2332
  851MOL0     O12230  -0.510   4.521   3.728  0.5641  0.4931  0.3598
  851MOL0     C12231  -0.635   4.529   3.782 -0.2233  0.0637  0.2609
  851MOL0     C12232  -0.738   4.447   3.743  0.2407  0.1001  0.5203
  851MOL0     C12233  -0.868   4.463   3.801  0.8775 -0.1953 -0.6001
  851MOL0     C12234  -0.894   4.568   3.896  0.4160  0.1033  1.2217
  851MOL0     O12235  -1.023   4.592   3.936 -0.0719  0.8341 -1.1170
  851MOL0     C12236  -1.138   4.505   3.896 -0.4161  0.1122  1.0973
  851MOL0     C12237  -1.269   4.556   3.923  0.1225 -0.0796  0.1734
  851MOL0     C12238  -1.311   4.560   4.071 -0.4534 -0.2696 -0.0925
  851MOL0     C12239  -1.362   4.426   4.119  1.0220  0.3971  0.0997
  851MOL0     C12240  -1.419   4.419   4.256 -0.0979  1.2778 -0.2289
  851MOL0     C12241  -1.463   4.274   4.285 -0.6567 -0.5082 -0.2439
  851MOL0     C12242  -1.491   4.265   4.440 -0.1223 -0.0317  0.0932
  851MOL0     C12243  -1.560   4.137   4.464  1.0466  0.0365  0.0914
  851MOL0    Cl12244  -1.645   4.151   4.627 -0.5296 -0.1920  0.0556
  851MOL0     C12245  -0.783   4.651   3.928 -0.0010  0.8864  0.2598
  851MOL0     C12246  -0.659   4.638   3.865  0.0071 -0.2462 -0.0374
  851MOL0     O12247  -0.587   4.572   3.514 -0.1626 -0.0392 -0.7120
  851MOL0     C12248  -0.258   4.479   3.621 -0.3842 -0.1484 -0.3180
  851MOL0     C12249  -0.127   4.452   3.569 -0.0008  0.3937 -0.2313
  851MOL0     N12250   0.256   3.973   3.325 -0.8465 -0.0376  0.2483
  851MOL0     N12251   0.353   3.913   3.265 -0.2130 -0.4865 -0.0300
  851MOL0     C12252   1.361   3.485   3.682  0.3349  0.1152 -0.6191
  851MOL0     C12253   1.473   3.480   3.761 -0.2605  0.0766  0.0227
  851MOL0     C12254   1.843   3.519   3.990  0.3933  0.0337 -0.0070
  851MOL0     C12255   1.846   3.473   4.120 -0.6396 -0.6320 -0.6985
  851MOL0     C12256   1.953   3.519   4.195  0.4398  0.2527 -0.3655
  851MOL0     C12257   2.056   3.605   4.143 -0.1362 -0.2181  0.3185
  851MOL0     O12258   2.150   3.652   4.234 -0.6488 -0.0762 -0.2059
  851MOL0     C12259   2.235   3.763   4.205  0.0384 -0.6138  0.0937
  851MOL0     C12260   2.353   3.721   4.124 -0.8721  0.7484 -0.4488
  851MOL0     C12261   2.442   3.837   4.103  0.1923  0.2068  0.1847
  851MOL0     C12262   2.574   3.830   4.183  0.3029 -0.0233 -0.1835
  851MOL0     C12263   2.552   3.828   4.329  0.1072 -0.0187  0.0710
  851MOL0     C12264   2.531   3.818   4.450  0.7863  0.8310 -0.3800
  851MOL0     C12265   2.036   3.653   4.016  0.2475  0.0823 -0.3716
  851MOL0     C12266   1.938   3.610   3.938  1.4049 -0.1500 -0.4610
  851MOL0     H12267   1.695   3.629   3.562  1.3992 -2.3041  2.5910
  851MOL0     H12268   1.482   3.634   3.413 -0.4802  0.7932 -0.1090
  851MOL0     H12269   1.140   3.515   3.313  1.6532 -0.6283 -3.9550
  851MOL0     H12270   1.313   3.518   3.303 -1.9920 -2.8505 -1.7447
  851MOL0     H12271   1.170   3.730   3.206  2.2218  1.0373 -1.1832
  851MOL0     H12272   1.315   3.764   3.308 -0.1299  1.5071  0.3431
  851MOL0     H12273   1.137   3.912   3.370 -1.5826 -0.2815 -0.9369
  851MOL0     H12274   1.169   3.800   3.501  2.8412 -1.8393 -0.7233
  851MOL0     H12275   0.962   3.759   3.272  2.4394 -0.5204 -0.2296
  851MOL0     H12276   0.970   3.669   3.434 -2.3167 -0.3486  1.2664
  851MOL0     H12277   0.886   3.954   3.365 -0.6903  0.1315 -1.6459
  851MOL0     H12278   0.914   3.895   3.531  0.3345  1.5781 -1.5306
  851MOL0     H12279   0.660   3.890   3.487  1.7423  1.3328  0.7997
  851MOL0     H12280   0.719   3.729   3.501 -0.7914  0.7335  1.1684
  851MOL0     H12281   0.671   3.877   3.238  2.8414 -0.6886 -0.7747
  851MOL0     H12282   0.719   3.701   3.252 -1.1092 -2.3055  0.6290
  851MOL0     H12283   0.520   3.652   3.393 -0.9807 -0.4636 -0.2186
  851MOL0     H12284   0.469   3.686   3.226 -0.5151  0.5053  0.1473
  851MOL0     H12285   0.420   3.823   3.571 -0.1980  0.8580  0.2703
  851MOL0     H12286   0.268   4.033   3.661 -1.1354  1.5220  1.0504
  851MOL0     H12287   0.105   4.021   3.588 -1.5418  1.2532 -1.4878
  851MOL0     H12288   0.320   4.211   3.461  0.1276  3.1919  0.0952
  851MOL0     H12289   0.235   4.267   3.600 -1.0908  2.0856 -1.2557
  851MOL0     H12290   0.116   4.198   3.328  2.8276  0.7620 -0.0439
  851MOL0     H12291   0.025   4.221   3.484 -0.8877 -0.0534 -0.9804
  851MOL0     H12292   0.208   4.418   3.354 -0.0670 -0.8660 -0.4813
  851MOL0     H12293   0.144   4.436   3.520  0.2337  2.8857 -0.9598
  851MOL0     H12294  -0.188   4.472   3.245  2.1315 -0.1929  0.4595
  851MOL0     H12295  -0.424   4.506   3.328 -0.6386 -1.5041 -0.9742
  851MOL0     H12296  -0.713   4.383   3.659  2.7300  0.9062  0.5786
  851MOL0     H12297  -0.949   4.396   3.775 -1.6091  1.3585  2.4097
  851MOL0     H12298  -1.123   4.399   3.918  1.4674  0.7681  3.4150
  851MOL0     H12299  -1.137   4.519   3.787  3.6286  1.7543  1.1322
  851MOL0     H12300  -1.345   4.501   3.867 -1.2018  1.0127  0.8535
  851MOL0     H12301  -1.264   4.654   3.875  2.7234 -0.1306  0.2011
  851MOL0     H12302  -1.392   4.634   4.071  1.3161  1.7936 -1.7113
  851MOL0     H12303  -1.232   4.596   4.137 -0.0043 -1.0466 -0.1922
  851MOL0     H12304  -1.439   4.405   4.045 -0.7445  1.7971  1.4720
  851MOL0     H12305  -1.281   4.352   4.113  2.5204  2.0512 -1.1173
  851MOL0     H12306  -1.502   4.490   4.259 -0.2692  1.0665  1.7911
  851MOL0     H12307  -1.343   4.440   4.332  0.1458 -0.1670 -0.0336
  851MOL0     H12308  -1.388   4.203   4.250 -0.1895  0.9287 -2.3250
  851MOL0     H12309  -1.553   4.244   4.231  1.0050 -1.5323 -2.6302
  851MOL0     H12310  -1.398   4.265   4.498  0.2613 -4.1192 -0.2666
  851MOL0     H12311  -1.554   4.349   4.470  0.2559  0.7699 -1.2770
  851MOL0     H12312  -1.488   4.055   4.455  2.0970  0.8720  0.6506
  851MOL0     H12313  -1.643   4.117   4.395  1.2412 -0.3559 -0.0324
  851MOL0     H12314  -0.797   4.729   4.001 -3.2517 -0.1492  0.8908
  851MOL0     H12315  -0.572   4.699   3.889  0.1795 -1.1167  1.7582
  851MOL0     H12316  -0.272   4.470   3.728 -0.5352 -2.2744 -0.4726
  851MOL0     H12317  -0.047   4.429   3.638 -1.5890 -2.6759  0.7186
  851MOL0     H12318   1.267   3.456   3.726  1.4578  1.6374  3.1518
  851MOL0     H12319   1.462   3.449   3.865 -1.5957  1.8880  0.4687
  851MOL0     H12320   1.770   3.414   4.170  0.3265  0.0439  1.7088
  851MOL0     H12321   1.976   3.489   4.297  0.6767  0.2625 -0.4158
  851MOL0     H12322   2.267   3.797   4.304 -0.8203  0.6959 -0.0477
  851MOL0     H12323   2.184   3.847   4.156  0.4111 -1.4819 -1.8796
  851MOL0     H12324   2.402   3.635   4.172  0.4085  2.1923  0.9659
  851MOL0     H12325   2.323   3.692   4.023 -1.8612  1.4669 -0.3669
  851MOL0     H12326   2.390   3.928   4.134  0.0424  1.0562 -2.3895
  851MOL0     H12327   2.455   3.845   3.995 -0.5546 -0.5081  0.0338
  851MOL0     H12328   2.620   3.737   4.148 -0.3285 -0.6538  0.6182
  851MOL0     H12329   2.646   3.907   4.157 -0.1239  0.3684 -0.2206
  851MOL0     H12330   2.493   3.800   4.548 -0.0713  2.3955 -0.3854
  851MOL0     H12331   2.099   3.735   3.981 -0.7404  1.5593  1.1358
  851MOL0     H12332   1.910   3.640   3.838  0.2059  1.1490  0.2459
  852MOL0     O12333   1.355   2.711   0.305 -0.6431  0.2187  0.2287
  852MOL0     C12334   1.391   2.607   0.251  0.6348 -0.1377  0.2955
  852MOL0     O12335   1.312   2.502   0.224 -0.0186 -0.2790 -1.1893
  852MOL0     C12336   1.175   2.528   0.241 -1.4698 -0.5204 -0.6215
  852MOL0     C12337   1.100   2.508   0.130 -0.1431 -0.7883 -0.0544
  852MOL0     C12338   0.964   2.531   0.131  0.5023  0.6794  0.1502
  852MOL0     C12339   0.899   2.555   0.251  0.3541  0.1808 -0.0904
  852MOL0     O12340   0.764   2.551   0.238  0.4489 -0.4730  0.0149
  852MOL0     C12341   0.693   2.554   0.361  0.3502 -0.3493 -0.2891
  852MOL0     C12342   0.538   2.541   0.334 -0.3985  0.3722 -0.5417
  852MOL0     C12343   0.444   2.581   0.449 -0.2186 -0.2096 -0.7347
  852MOL0     C12344   0.299   2.587   0.407  0.4458  0.6007 -0.1014
  852MOL0     C12345   0.201   2.635   0.515  0.1905  0.7578 -0.0824
  852MOL0     C12346   0.064   2.650   0.440  0.0201  0.0221 -1.0818
  852MOL0     C12347  -0.049   2.671   0.548  0.3574  0.2929  0.7256
  852MOL0     C12348  -0.177   2.660   0.475 -0.2281 -0.4250  0.3428
  852MOL0     N12349  -0.209   2.533   0.411  0.3999 -0.3069  0.3472
  852MOL0     C12350  -0.257   2.518   0.282 -0.6655 -0.8288  0.9012
  852MOL0     C12351  -0.256   2.383   0.260  0.3640 -0.1687  0.1492
  852MOL0     C12352  -0.303   2.313   0.138  0.3653 -0.2902  0.0097
  852MOL0     C12353  -0.455   2.331   0.118  0.6907 -0.1812  0.9003
  852MOL0     C12354  -0.547   2.272   0.231  0.1084  0.2052 -0.9600
  852MOL0     C12355  -0.540   2.119   0.256  0.1772 -0.1677 -0.1007
  852MOL0     O12356  -0.611   2.099   0.377 -0.3661 -0.5419 -0.0329
  852MOL0     C12357  -0.726   2.028   0.372  0.0471 -0.0063  0.2046
  852MOL0     C12358  -0.732   1.933   0.474  0.0380  0.0828  0.5860
  852MOL0     C12359  -0.850   1.864   0.488  0.1125 -0.2033 -1.1135
  852MOL0     C12360  -0.951   1.863   0.390 -0.2398 -0.5224  0.0687
  852MOL0     C12361  -1.068   1.782   0.424  0.7003  1.1456 -0.2272
  852MOL0     O12362  -1.154   1.749   0.324  0.2351  0.2911  0.2462
  852MOL0     C12363  -1.273   1.687   0.351  0.6836 -0.0735  0.7254
  852MOL0     C12364  -1.386   1.736   0.291  0.2448  0.3418 -0.1098
  852MOL0     C12365  -1.508   1.672   0.318  0.1952 -0.5135  0.0286
  852MOL0     C12366  -1.520   1.561   0.402 -0.7305 -0.3447 -0.3670
  852MOL0     O12367  -1.632   1.497   0.439 -0.2084 -0.8414 -0.8909
  852MOL0     C12368  -1.747   1.524   0.366  0.5955 -0.3228 -0.1030
  852MOL0     C12369  -1.870   1.488   0.448 -0.4553  0.4646  0.7210
  852MOL0     C12370  -1.998   1.497   0.359 -0.0568  0.1603 -0.1664
  852MOL0     C12371  -2.011   1.405   0.239 -0.6206  0.7850  0.0400
  852MOL0     C12372  -2.021   1.247   0.266 -0.1759  0.4512 -0.0219
  852MOL0     C12373  -2.126   1.221   0.380  0.0575  1.3394  0.1912
  852MOL0     C12374  -2.132   1.071   0.403 -0.1121 -0.1969 -0.0139
  852MOL0     C12375  -2.253   1.033   0.490  0.5205 -0.0531  0.1103
  852MOL0    Cl12376  -2.246   0.854   0.528 -0.0107 -0.1966 -0.9741
  852MOL0     C12377  -1.403   1.512   0.454  0.5712 -0.5781  0.4085
  852MOL0     C12378  -1.284   1.577   0.439  0.2212 -0.3987  0.1273
  852MOL0     O12379  -1.080   1.752   0.543  0.2657 -0.2686  0.0825
  852MOL0     C12380  -0.943   1.951   0.281 -0.4271  0.6826  0.3686
  852MOL0     C12381  -0.828   2.031   0.272 -0.2143  0.2308 -0.4707
  852MOL0     N12382  -0.226   2.321   0.380  0.6015 -0.5286  0.6217
  852MOL0     N12383  -0.204   2.413   0.470  1.0020  0.5092  0.0144
  852MOL0     C12384   0.976   2.571   0.366  0.5854 -0.1797 -0.7648
  852MOL0     C12385   1.109   2.552   0.370  0.3331  0.4899 -0.6106
  852MOL0     C12386   1.536   2.592   0.234  1.3830 -0.4083  0.3523
  852MOL0     C12387   1.629   2.660   0.306 -0.0721 -1.2110 -0.7967
  852MOL0     C12388   1.771   2.644   0.297 -0.0911 -0.4049 -0.3761
  852MOL0     C12389   1.826   2.556   0.201 -0.0670  0.8885  0.1102
  852MOL0     O12390   1.959   2.547   0.185 -0.2941 -0.2809  0.0486
  852MOL0     C12391   2.016   2.500   0.065  1.3566 -0.2167 -0.2093
  852MOL0     C12392   2.095   2.612   0.006  0.7399 -0.1469  0.2916
  852MOL0     C12393   2.173   2.574  -0.120 -0.9822  0.2353  0.6515
  852MOL0     C12394   2.292   2.477  -0.104 -0.1182  0.4203  0.8311
  852MOL0     C12395   2.372   2.454  -0.232  0.0756 -0.1956  0.0188
  852MOL0     C12396   2.438   2.427  -0.329  0.0622 -0.0220  0.2765
  852MOL0     C12397   1.723   2.477   0.136 -0.2465 -0.1534 -0.6759
  852MOL0     C12398   1.590   2.499   0.150  0.9496  0.2337 -0.3336
  852MOL0     H12399   1.143   2.496   0.031  1.7669  0.8605  0.5232
  852MOL0     H12400   0.908   2.517   0.039  0.1798 -1.0267  0.5756
  852MOL0     H12401   0.724   2.649   0.406  2.5973 -1.4603  0.6735
  852MOL0     H12402   0.733   2.469   0.418  1.6585  0.0361 -0.5861
  852MOL0     H12403   0.527   2.436   0.305 -2.7364  0.8329 -1.4578
  852MOL0     H12404   0.512   2.599   0.246 -0.4388  1.0590 -0.0846
  852MOL0     H12405   0.463   2.685   0.476  0.2988  0.3250 -2.9602
  852MOL0     H12406   0.463   2.515   0.534 -1.7339  1.2677  0.8414
  852MOL0     H12407   0.293   2.637   0.310  0.5755 -0.0820 -0.4649
  852MOL0     H12408   0.264   2.483   0.398  1.5359 -0.1255  2.7777
  852MOL0     H12409   0.225   2.735   0.555 -0.4290  0.6802  0.5008
  852MOL0     H12410   0.189   2.566   0.599 -2.6883  2.6696  1.2607
  852MOL0     H12411   0.044   2.561   0.380  1.9275 -0.0727 -1.6652
  852MOL0     H12412   0.074   2.736   0.373  1.7613  0.5034 -0.2561
  852MOL0     H12413  -0.038   2.586   0.615  0.6593 -1.1640 -1.0918
  852MOL0     H12414  -0.041   2.759   0.612 -0.2953  0.6610  0.3099
  852MOL0     H12415  -0.190   2.741   0.403 -0.2874  2.4081  3.2859
  852MOL0     H12416  -0.264   2.679   0.540 -1.8861  0.9085 -2.1268
  852MOL0     H12417  -0.282   2.599   0.215  0.0955 -1.3661 -0.0552
  852MOL0     H12418  -0.280   2.208   0.156 -4.3105 -1.5004  0.3534
  852MOL0     H12419  -0.239   2.343   0.055 -0.0129  0.9247  0.1280
  852MOL0     H12420  -0.480   2.289   0.021 -1.4481 -0.9907  1.7473
  852MOL0     H12421  -0.485   2.436   0.113  0.4952 -0.2878 -0.7505
  852MOL0     H12422  -0.518   2.318   0.326 -1.7526 -2.4632  1.0475
  852MOL0     H12423  -0.650   2.289   0.199 -0.6363 -0.9731  0.6731
  852MOL0     H12424  -0.435   2.094   0.276 -0.0806  1.2680  4.2489
  852MOL0     H12425  -0.569   2.053   0.174  1.4674 -0.6446 -0.1986
  852MOL0     H12426  -0.643   1.920   0.534  0.1875 -0.1767  0.3134
  852MOL0     H12427  -0.856   1.816   0.584 -1.8559  2.1994  0.0658
  852MOL0     H12428  -1.375   1.825   0.230 -1.2661 -0.2478 -1.3023
  852MOL0     H12429  -1.599   1.713   0.276 -0.9840 -1.0835  1.8782
  852MOL0     H12430  -1.742   1.472   0.270  3.0632  3.2588 -2.1661
  852MOL0     H12431  -1.772   1.629   0.347 -0.4025 -0.5147  0.0660
  852MOL0     H12432  -1.879   1.545   0.541  0.4182  0.0802  1.0485
  852MOL0     H12433  -1.859   1.382   0.470 -1.9040 -0.0905 -0.9280
  852MOL0     H12434  -1.990   1.603   0.333  3.2720 -0.3606 -1.7894
  852MOL0     H12435  -2.081   1.487   0.431  1.2043  1.8288  1.6295
  852MOL0     H12436  -2.104   1.428   0.188 -0.0018  1.4255 -0.8322
  852MOL0     H12437  -1.930   1.426   0.168 -1.1953  0.9312 -0.5793
  852MOL0     H12438  -1.923   1.208   0.297  0.0388 -0.1092 -1.3212
  852MOL0     H12439  -2.039   1.185   0.177  1.9352 -0.9035  0.4210
  852MOL0     H12440  -2.226   1.247   0.343 -0.1566 -2.1360 -2.1609
  852MOL0     H12441  -2.105   1.265   0.478 -0.2082 -0.8441  1.2887
  852MOL0     H12442  -2.129   1.020   0.306 -1.4065  2.1703 -1.3982
  852MOL0     H12443  -2.046   1.044   0.466  0.9733  1.4588 -0.7205
  852MOL0     H12444  -2.339   1.058   0.426  0.4756  1.3473  0.6809
  852MOL0     H12445  -2.270   1.104   0.571 -0.1159  0.4896 -0.4705
  852MOL0     H12446  -1.406   1.423   0.518 -0.8278 -1.3904 -0.7176
  852MOL0     H12447  -1.201   1.545   0.501  0.9837  0.5416 -0.3812
  852MOL0     H12448  -1.018   1.948   0.203  1.4066  0.2989 -1.4652
  852MOL0     H12449  -0.816   2.091   0.182  2.7329  0.6864  0.1125
  852MOL0     H12450   0.936   2.576   0.466  1.5966 -0.2579 -0.3397
  852MOL0     H12451   1.165   2.554   0.463  1.0025  0.9065 -1.0144
  852MOL0     H12452   1.591   2.726   0.384  1.5636 -4.0099  2.6732
  852MOL0     H12453   1.837   2.705   0.357  0.3203  1.0974 -2.2437
  852MOL0     H12454   1.935   2.473  -0.004  0.3668 -0.9513  1.2044
  852MOL0     H12455   2.072   2.411   0.093  1.6163  0.7097  2.4522
  852MOL0     H12456   2.023   2.693  -0.009 -1.9102 -1.8889  2.5973
  852MOL0     H12457   2.165   2.643   0.084  1.5403 -1.4718  0.1195
  852MOL0     H12458   2.222   2.670  -0.140  0.5358  0.2276  3.7716
  852MOL0     H12459   2.102   2.542  -0.198 -0.8605 -2.6147  1.6068
  852MOL0     H12460   2.357   2.512  -0.023  0.7223 -2.1486  1.3372
  852MOL0     H12461   2.257   2.380  -0.069  0.6551 -0.6451 -1.2022
  852MOL0     H12462   2.508   2.401  -0.406  0.8219 -0.0064  0.9374
  852MOL0     H12463   1.749   2.399   0.066 -3.1486 -3.8558  1.9197
  852MOL0     H12464   1.517   2.435   0.102  0.6765 -2.0893  2.8808
  853MOL0     O12465   8.241   0.022   0.111 -0.4907  0.6349 -0.0218
  853MOL0     C12466   8.151   0.077   0.178 -0.9564  0.1679  0.1714
  853MOL0     O12467   8.179   0.146   0.295  0.5817  0.4440 -0.0911
  853MOL0     C12468   8.304   0.200   0.315  0.4734  0.2855  0.4522
  853MOL0     C12469   8.420   0.134   0.354  0.2745  0.2895 -0.9061
  853MOL0     C12470   8.538   0.207   0.361  0.2563  0.7079 -0.5194
  853MOL0     C12471   8.540   0.345   0.325 -0.4937  0.4553  0.4101
  853MOL0     O12472   8.659   0.406   0.365 -0.2360  0.0842  0.3804
  853MOL0     C12473   8.703   0.539   0.333 -0.4399  0.8328 -0.4522
  853MOL0     C12474   8.643   0.648   0.425  0.0155 -0.6161 -0.2358
  853MOL0     C12475   8.668   0.625   0.574 -0.0812  0.4776  1.1834
  853MOL0     C12476   8.585   0.719   0.656 -0.7056 -0.0327 -0.7376
  853MOL0     C12477   8.616   0.676   0.802 -0.3469 -0.5179 -1.1259
  853MOL0     C12478   8.520   0.748   0.902  0.2895 -0.0460  0.1935
  853MOL0     C12479   8.566   0.896   0.912 -0.3391 -0.3871 -0.1741
  853MOL0     C12480   8.489   0.940   1.046 -0.1960 -0.2150  1.3231
  853MOL0     N12481   8.352   0.986   1.018  0.2125 -0.0213  0.3212
  853MOL0     C12482   8.322   1.103   0.957 -0.1889 -0.8332 -0.2264
  853MOL0     C12483   8.188   1.096   0.938  0.5483 -0.2319 -0.0093
  853MOL0     C12484   8.117   1.196   0.857 -0.1306  0.2891  0.5708
  853MOL0     C12485   8.125   1.161   0.701 -0.4965 -0.2545  0.0935
  853MOL0     C12486   8.042   1.230   0.598  0.0301 -0.4195 -0.3737
  853MOL0     C12487   7.885   1.217   0.612 -0.4222 -0.7486 -0.2210
  853MOL0     O12488   7.845   1.083   0.606  0.3989 -0.4391 -0.4544
  853MOL0     C12489   7.710   1.050   0.573 -0.3463  0.2617 -0.5301
  853MOL0     C12490   7.675   0.915   0.563  0.1453 -0.7041 -0.5839
  853MOL0     C12491   7.547   0.867   0.544 -0.1086 -0.0539 -0.4394
  853MOL0     C12492   7.439   0.952   0.525 -0.3587 -0.1323 -0.3658
  853MOL0     C12493   7.307   0.896   0.494  0.4446 -0.7090 -0.2757
  853MOL0     O12494   7.209   0.987   0.474  0.6614  0.2999  0.5778
  853MOL0     C12495   7.075   0.957   0.444 -0.1350 -1.6679  0.5654
  853MOL0     C12496   7.015   0.841   0.485  0.3317  0.5919 -0.3133
  853MOL0     C12497   6.876   0.821   0.468 -0.4342  0.4868  0.0774
  853MOL0     C12498   6.797   0.915   0.407  0.6717  1.3271 -1.3609
  853MOL0     O12499   6.660   0.907   0.380 -0.6062  0.5768  0.7993
  853MOL0     C12500   6.599   0.777   0.425  0.4192  0.4191 -0.8199
  853MOL0     C12501   6.460   0.786   0.375  0.5140  0.0391  0.0704
  853MOL0     C12502   6.385   0.654   0.394  0.1204  0.0218 -0.0750
  853MOL0     C12503   6.423   0.549   0.276 -0.3517 -0.8004 -0.4427
  853MOL0     C12504   6.406   0.580   0.131 -0.8030  0.7969 -0.4818
  853MOL0     C12505   6.447   0.451   0.062 -0.2868  0.0281  0.0746
  853MOL0     C12506   6.490   0.466  -0.083  0.1771 -0.2297  0.1561
  853MOL0     C12507   6.636   0.506  -0.095 -0.2003 -0.1164 -0.0004
  853MOL0    Cl12508   6.681   0.519  -0.262 -0.3193 -0.4484  0.4367
  853MOL0     C12509   6.860   1.029   0.368 -0.8056 -0.4109  0.0648
  853MOL0     C12510   6.994   1.061   0.387 -0.3752  0.0915 -0.0030
  853MOL0     O12511   7.302   0.777   0.463 -0.6103  0.2785  0.9896
  853MOL0     C12512   7.465   1.093   0.523  0.4654  0.3084  0.3223
  853MOL0     C12513   7.597   1.141   0.562 -0.6289  0.3102 -0.4698
  853MOL0     N12514   8.134   0.974   0.987 -0.0949  0.1818  0.2605
  853MOL0     N12515   8.231   0.917   1.031 -0.2770  0.4827 -0.4620
  853MOL0     C12516   8.425   0.404   0.280  0.8390  0.1419 -0.3985
  853MOL0     C12517   8.303   0.334   0.275  0.2143 -0.0714 -0.5643
  853MOL0     C12518   8.015   0.051   0.140  0.2783 -0.6485 -0.5567
  853MOL0     C12519   7.912   0.141   0.179  0.4926 -0.3071  0.2298
  853MOL0     C12520   7.778   0.116   0.145 -0.5984  0.2598  0.4508
  853MOL0     C12521   7.742   0.011   0.056  1.0043 -0.3090 -0.9201
  853MOL0     O12522   7.605  -0.003   0.036  0.1458 -0.6726  0.4159
  853MOL0     C12523   7.557  -0.123  -0.021  0.1047  0.0197 -0.5586
  853MOL0     C12524   7.412  -0.093  -0.053 -0.4817 -0.0184  0.0091
  853MOL0     C12525   7.336  -0.214  -0.085  0.1796 -0.0154  0.7099
  853MOL0     C12526   7.311  -0.314   0.034 -0.1270  0.6978  0.3246
  853MOL0     C12527   7.199  -0.399   0.002 -0.4041  0.5544  0.1229
  853MOL0     C12528   7.100  -0.465  -0.026  1.4205  0.2046 -1.0805
  853MOL0     C12529   7.846  -0.070   0.009  0.2756 -0.6770  0.1551
  853MOL0     C12530   7.981  -0.054   0.051  0.4893  0.5362  0.3446
  853MOL0     H12531   8.414   0.030   0.386  3.0844 -0.3819 -2.2826
  853MOL0     H12532   8.629   0.161   0.397 -0.0489 -0.3904 -1.0955
  853MOL0     H12533   8.666   0.553   0.231 -1.8116  1.9014  0.1530
  853MOL0     H12534   8.812   0.544   0.341 -0.0374 -3.3335 -1.0165
  853MOL0     H12535   8.536   0.658   0.401  0.6784 -0.7796 -3.9218
  853MOL0     H12536   8.686   0.743   0.390 -0.3947  0.9966  3.2299
  853MOL0     H12537   8.775   0.629   0.594 -0.1056 -1.2733  1.8092
  853MOL0     H12538   8.639   0.521   0.591  1.2800 -0.2085 -0.4036
  853MOL0     H12539   8.620   0.821   0.640 -0.0447 -0.2931 -1.0033
  853MOL0     H12540   8.479   0.701   0.636 -0.4931 -0.7870 -1.2326
  853MOL0     H12541   8.718   0.707   0.827 -1.1477  0.5607  1.0641
  853MOL0     H12542   8.608   0.570   0.825 -0.3990 -0.1487  0.6584
  853MOL0     H12543   8.519   0.706   1.002 -1.7533  2.7872  1.5111
  853MOL0     H12544   8.425   0.728   0.851  0.2901 -1.5596  0.7367
  853MOL0     H12545   8.674   0.908   0.925 -0.4046 -0.1811  0.1972
  853MOL0     H12546   8.537   0.952   0.823 -2.3307 -2.1517 -0.7296
  853MOL0     H12547   8.526   1.033   1.090 -0.3438 -0.0380  1.0749
  853MOL0     H12548   8.490   0.859   1.120  3.7137 -1.4559  0.1625
  853MOL0     H12549   8.378   1.187   0.918 -3.9512  0.6035 -3.1413
  853MOL0     H12550   8.157   1.294   0.885 -2.0257  0.9140  1.2036
  853MOL0     H12551   8.014   1.186   0.892  0.2920  0.0968  1.8318
  853MOL0     H12552   8.109   1.055   0.679 -2.6872  0.5420 -2.7286
  853MOL0     H12553   8.228   1.183   0.673 -0.6861 -0.5929 -0.9055
  853MOL0     H12554   8.059   1.338   0.606  0.6338 -0.4473 -1.2081
  853MOL0     H12555   8.075   1.189   0.502  0.4058 -2.4069  0.5651
  853MOL0     H12556   7.842   1.271   0.527  1.7817  0.7280 -0.4961
  853MOL0     H12557   7.847   1.268   0.701 -1.8096  0.1348 -1.2688
  853MOL0     H12558   7.747   0.834   0.573 -1.8031 -2.6918 -1.5418
  853MOL0     H12559   7.529   0.761   0.556  0.7147 -0.2476 -0.8566
  853MOL0     H12560   7.083   0.774   0.536 -1.5094 -0.8825  0.3271
  853MOL0     H12561   6.828   0.735   0.513  2.1760 -1.4292 -0.5925
  853MOL0     H12562   6.596   0.759   0.533 -1.9876  0.3897 -0.8227
  853MOL0     H12563   6.643   0.686   0.384  1.5431 -1.1739  3.4296
  853MOL0     H12564   6.470   0.804   0.267  0.7589 -2.3249 -0.3677
  853MOL0     H12565   6.405   0.869   0.420 -2.2001 -1.3491 -0.4876
  853MOL0     H12566   6.279   0.681   0.391  0.5869  1.8610 -1.3170
  853MOL0     H12567   6.410   0.615   0.493  2.6346  3.3294  0.7531
  853MOL0     H12568   6.529   0.525   0.287 -0.4331 -1.0125 -0.0828
  853MOL0     H12569   6.366   0.457   0.292  1.0749 -2.0339 -2.1064
  853MOL0     H12570   6.474   0.663   0.109 -1.7621  2.4027  2.1353
  853MOL0     H12571   6.305   0.614   0.109 -0.3722  0.5209 -3.2736
  853MOL0     H12572   6.360   0.385   0.058 -2.3626  2.6075 -0.4056
  853MOL0     H12573   6.514   0.383   0.115  0.3944  1.1698  0.7356
  853MOL0     H12574   6.477   0.371  -0.135 -0.6008 -1.1988  2.0117
  853MOL0     H12575   6.426   0.542  -0.129 -0.3371  0.5291  2.0307
  853MOL0     H12576   6.702   0.432  -0.050  1.2768 -0.9694 -3.3046
  853MOL0     H12577   6.661   0.601  -0.046  0.9859 -0.7538  0.6496
  853MOL0     H12578   6.799   1.111   0.332 -1.3476 -0.7281  0.2512
  853MOL0     H12579   7.042   1.157   0.369 -1.3217  0.3945 -0.9604
  853MOL0     H12580   7.390   1.167   0.498  0.7141  1.4676  2.6637
  853MOL0     H12581   7.615   1.246   0.580  0.8905  0.1505 -0.8930
  853MOL0     H12582   8.428   0.511   0.260  0.4619  0.4207  0.9403
  853MOL0     H12583   8.204   0.378   0.264 -0.4083 -0.7087  2.0038
  853MOL0     H12584   7.936   0.229   0.238 -3.1699 -0.2291  1.8603
  853MOL0     H12585   7.704   0.188   0.179 -2.2541 -1.7731  1.3551
  853MOL0     H12586   7.575  -0.203   0.052  2.9057  0.2536 -0.8677
  853MOL0     H12587   7.618  -0.139  -0.111  4.7845  2.1087  1.8587
  853MOL0     H12588   7.363  -0.065   0.041  0.7969  1.8748  0.1802
  853MOL0     H12589   7.406  -0.013  -0.127  0.6826 -1.3353 -1.5576
  853MOL0     H12590   7.373  -0.273  -0.169  2.9555 -0.1497  1.8965
  853MOL0     H12591   7.238  -0.180  -0.120  0.2380 -0.6680 -0.1021
  853MOL0     H12592   7.406  -0.364   0.055 -1.3675 -1.7509  0.4653
  853MOL0     H12593   7.287  -0.259   0.126 -2.0513 -1.0025  0.9172
  853MOL0     H12594   7.007  -0.505  -0.061  0.7711  1.5434 -0.9506
  853MOL0     H12595   7.835  -0.148  -0.065  1.5284 -0.9063  0.1799
  853MOL0     H12596   8.040  -0.135   0.009  0.2018 -0.9397  2.6327
  854MOL0     O12597   3.492   1.138   8.535 -0.4177 -0.0586 -0.2647
  854MOL0     C12598   3.548   1.221   8.616  0.0261 -0.0453  1.1188
  854MOL0     O12599   3.488   1.265   8.731 -0.0996  0.2956 -0.4736
  854MOL0     C12600   3.357   1.219   8.753  0.4359  0.0297  1.1598
  854MOL0     C12601   3.251   1.264   8.669 -0.1034 -0.2526 -0.0411
  854MOL0     C12602   3.119   1.219   8.704 -0.3457 -0.1983 -0.3613
  854MOL0     C12603   3.092   1.129   8.817 -0.1796 -0.0967  0.4718
  854MOL0     O12604   2.972   1.078   8.848  0.0466  1.0554 -0.8927
  854MOL0     C12605   2.852   1.145   8.806 -0.9912  0.0273  0.5541
  854MOL0     C12606   2.753   1.139   8.915 -0.6824  0.4199  0.2712
  854MOL0     C12607   2.636   1.225   8.886  0.6142  0.3256  0.2116
  854MOL0     C12608   2.514   1.225   8.984 -0.0113  0.5292  0.4036
  854MOL0     C12609   2.400   1.317   8.948  0.7742  0.3069  0.3551
  854MOL0     C12610   2.263   1.258   8.990  0.2750  0.0225 -0.3634
  854MOL0     C12611   2.253   1.224   9.136 -0.4799 -0.1893 -0.7668
  854MOL0     C12612   2.112   1.193   9.192  0.5298 -0.2203  0.3002
  854MOL0     N12613   2.106   1.233   9.331  0.0612 -0.3320 -0.5770
  854MOL0     C12614   2.106   1.158   9.447 -0.1160  0.0264  0.0862
  854MOL0     C12615   2.104   1.253   9.543 -0.2436 -0.0678 -0.8409
  854MOL0     C12616   2.092   1.227   9.694 -0.6813  0.4073 -1.0278
  854MOL0     C12617   1.945   1.243   9.723 -0.1950 -1.1872  0.6958
  854MOL0     C12618   1.919   1.231   9.876  0.2613 -0.3215 -0.3715
  854MOL0     C12619   1.769   1.243   9.907  0.1808  0.3830 -1.1483
  854MOL0     O12620   1.764   1.231  10.052  0.0419 -0.0379 -0.3044
  854MOL0     C12621   1.646   1.203  10.115 -0.2420 -0.0003  0.0508
  854MOL0     C12622   1.523   1.185  10.051  0.3008 -0.0433 -0.0297
  854MOL0     C12623   1.406   1.160  10.126  0.4045  0.1262 -0.5668
  854MOL0     C12624   1.411   1.155  10.271 -0.2835  0.3674 -0.1745
  854MOL0     C12625   1.294   1.106  10.346 -1.2205  0.4489 -0.2375
  854MOL0     O12626   1.299   1.147  10.482  0.1758  0.0323  0.4080
  854MOL0     C12627   1.195   1.137  10.573 -0.6560  0.7409 -0.6369
  854MOL0     C12628   1.076   1.070  10.561  0.3976  0.6710  0.2457
  854MOL0     C12629   0.994   1.038  10.673  0.9604  0.0760 -0.0303
  854MOL0     C12630   1.019   1.095  10.803 -0.5996  0.2042  1.2751
  854MOL0     O12631   0.938   1.056  10.907  0.1813  0.1614 -0.2833
  854MOL0     C12632   0.943   1.132  11.028 -1.0016  0.0724  0.5614
  854MOL0     C12633   0.818   1.120  11.117  0.1000 -0.1964  0.7162
  854MOL0     C12634   0.695   1.187  11.043  0.3769  0.2384 -0.4919
  854MOL0     C12635   0.567   1.152  11.116  0.5918  0.3897 -0.4612
  854MOL0     C12636   0.445   1.234  11.065 -0.4259 -0.7058 -0.3247
  854MOL0     C12637   0.317   1.183  11.139 -0.5493 -0.1238 -0.6282
  854MOL0     C12638   0.203   1.276  11.085 -0.8198  0.1330  0.2720
  854MOL0     C12639   0.109   1.324  11.196 -0.5449  0.9022  0.1623
  854MOL0    Cl12640  -0.047   1.393  11.134 -0.6806  0.1276 -0.2046
  854MOL0     C12641   1.141   1.165  10.812  1.0486  0.4520  0.0848
  854MOL0     C12642   1.229   1.181  10.702  0.3473 -0.2500 -0.5330
  854MOL0     O12643   1.200   1.054  10.286  0.1769  0.4962  1.0358
  854MOL0     C12644   1.535   1.180  10.332  0.1044 -0.0240  0.1144
  854MOL0     C12645   1.658   1.190  10.258 -0.3580  0.0858 -0.5827
  854MOL0     N12646   2.104   1.382   9.491  0.0489  0.6042  0.2048
  854MOL0     N12647   2.089   1.366   9.357 -0.6176  0.8415 -0.7490
  854MOL0     C12648   3.200   1.086   8.891 -1.3321 -0.6167  0.5214
  854MOL0     C12649   3.332   1.142   8.870  0.1417 -0.5810  0.8621
  854MOL0     C12650   3.674   1.287   8.568  1.0800 -0.1682 -0.0520
  854MOL0     C12651   3.742   1.378   8.646 -0.2132 -0.6184 -0.8004
  854MOL0     C12652   3.868   1.420   8.609 -0.2785 -0.4763 -0.1336
  854MOL0     C12653   3.925   1.370   8.485  0.2073  0.1143  0.5561
  854MOL0     O12654   4.049   1.420   8.446  0.7516  0.3425 -0.1413
  854MOL0     C12655   4.128   1.321   8.370  0.0068 -0.0535 -0.0682
  854MOL0     C12656   4.278   1.370   8.371  0.1487 -0.0284  1.0641
  854MOL0     C12657   4.362   1.278   8.294 -0.2242 -0.4711  0.1883
  854MOL0     C12658   4.498   1.338   8.239  1.3287  0.4704 -0.3058
  854MOL0     C12659   4.574   1.224   8.194 -0.2397 -0.4704  0.1288
  854MOL0     C12660   4.634   1.129   8.140  0.6365 -0.5974 -0.1261
  854MOL0     C12661   3.846   1.290   8.404  0.2141  0.0830  0.0255
  854MOL0     C12662   3.722   1.245   8.446 -0.4009  0.1001 -0.2316
  854MOL0     H12663   3.267   1.322   8.579  0.9228 -1.2394 -0.5316
  854MOL0     H12664   3.028   1.243   8.650 -1.4231  0.2976  1.5781
  854MOL0     H12665   2.821   1.092   8.715 -2.2188 -0.7248  1.3826
  854MOL0     H12666   2.878   1.248   8.779  1.5607 -1.1055 -1.9566
  854MOL0     H12667   2.798   1.172   9.009  1.8194  1.5046 -1.2100
  854MOL0     H12668   2.719   1.035   8.922 -0.2301  0.1957 -0.6176
  854MOL0     H12669   2.595   1.200   8.788  0.8962 -0.9617  0.3985
  854MOL0     H12670   2.660   1.330   8.874 -0.3903  0.4595 -0.7894
  854MOL0     H12671   2.471   1.125   8.992 -0.9649  0.8053 -0.9771
  854MOL0     H12672   2.563   1.252   9.079  1.3678  1.4359 -0.5316
  854MOL0     H12673   2.395   1.321   8.838  1.2032  0.7461  0.3456
  854MOL0     H12674   2.410   1.415   8.997  0.2257  1.6868 -2.0833
  854MOL0     H12675   2.249   1.161   8.941 -0.6837 -1.8915  3.3233
  854MOL0     H12676   2.176   1.310   8.950  0.6506  0.5950 -0.4534
  854MOL0     H12677   2.314   1.135   9.158 -0.9781 -0.4147 -0.2662
  854MOL0     H12678   2.300   1.297   9.202 -1.4578 -1.5713  1.5854
  854MOL0     H12679   2.091   1.085   9.194  2.0518 -0.5353  0.7702
  854MOL0     H12680   2.037   1.249   9.135 -0.1777  0.0078  1.4294
  854MOL0     H12681   2.095   1.051   9.456 -0.2293 -0.1570 -1.8078
  854MOL0     H12682   2.150   1.299   9.752  0.9913  0.5881 -2.8055
  854MOL0     H12683   2.106   1.120   9.711 -2.7627  0.1975 -0.3965
  854MOL0     H12684   1.879   1.183   9.659 -4.3563  1.9800  1.5584
  854MOL0     H12685   1.919   1.347   9.698  0.9550 -1.4791 -2.0136
  854MOL0     H12686   1.961   1.136   9.910 -0.2224  0.1759  1.7050
  854MOL0     H12687   1.979   1.311   9.920 -0.4025 -0.1277  0.1833
  854MOL0     H12688   1.715   1.161   9.860  1.6530 -2.4877  1.7711
  854MOL0     H12689   1.732   1.339   9.870  0.5374  0.8332 -0.3575
  854MOL0     H12690   1.516   1.188   9.943  1.2310  0.4017 -0.0936
  854MOL0     H12691   1.309   1.152  10.077 -0.0531 -1.6893  0.5190
  854MOL0     H12692   1.041   1.032  10.465  0.3257 -2.0097  1.2680
  854MOL0     H12693   0.896   0.993  10.658  0.9395 -0.9824  2.7073
  854MOL0     H12694   0.959   1.239  11.016 -1.4503 -0.0490 -1.3709
  854MOL0     H12695   1.031   1.095  11.081 -1.1424  1.9552  2.2368
  854MOL0     H12696   0.832   1.170  11.213 -0.3776  1.7177 -0.1828
  854MOL0     H12697   0.802   1.012  11.130 -0.4224 -0.2378 -0.1549
  854MOL0     H12698   0.681   1.147  10.943  0.8787  0.1510 -0.5263
  854MOL0     H12699   0.708   1.296  11.037 -0.8649  0.6509  2.4818
  854MOL0     H12700   0.548   1.044  11.105  0.2794  0.5122 -1.2435
  854MOL0     H12701   0.585   1.173  11.221 -2.5624 -2.9023  0.9790
  854MOL0     H12702   0.431   1.225  10.957  2.8869  0.4403 -0.9873
  854MOL0     H12703   0.469   1.338  11.088  0.7429 -0.7742 -1.1334
  854MOL0     H12704   0.332   1.195  11.247 -2.1395 -1.5215 -0.2052
  854MOL0     H12705   0.292   1.081  11.108 -1.4339 -0.1237  0.0515
  854MOL0     H12706   0.241   1.366  11.035 -1.4103 -0.8859 -2.1721
  854MOL0     H12707   0.141   1.222  11.013 -2.7036  3.3802 -0.7396
  854MOL0     H12708   0.150   1.396  11.267  0.6299 -0.9995  1.4649
  854MOL0     H12709   0.065   1.244  11.256 -1.4027  1.1238 -0.1537
  854MOL0     H12710   1.184   1.197  10.906  2.4131 -1.7283  0.2716
  854MOL0     H12711   1.320   1.239  10.709  1.1777 -1.2057 -2.4905
  854MOL0     H12712   1.546   1.167  10.440  0.5476 -2.4556 -0.1656
  854MOL0     H12713   1.751   1.184  10.315  0.5191  0.5826 -1.9119
  854MOL0     H12714   3.194   1.011   8.970 -0.2527 -1.0212  0.2427
  854MOL0     H12715   3.421   1.111   8.924  0.1268 -1.8061  0.2376
  854MOL0     H12716   3.699   1.415   8.739 -0.8256  1.0381 -1.7091
  854MOL0     H12717   3.926   1.487   8.670  0.5975  0.9945 -2.4789
  854MOL0     H12718   4.105   1.314   8.263  2.3827  1.8774 -0.7975
  854MOL0     H12719   4.118   1.221   8.414 -2.8647 -0.9361 -2.3748
  854MOL0     H12720   4.263   1.466   8.319  1.6794 -0.4947 -0.3586
  854MOL0     H12721   4.319   1.384   8.471  1.3941  2.0215  0.3366
  854MOL0     H12722   4.311   1.239   8.205 -0.3573  0.6284 -0.2285
  854MOL0     H12723   4.379   1.181   8.341 -1.1935 -0.7814 -0.0594
  854MOL0     H12724   4.473   1.397   8.150  2.7697  1.0193 -0.3804
  854MOL0     H12725   4.557   1.397   8.310  2.3990 -1.0833  0.1310
  854MOL0     H12726   4.688   1.055   8.085  3.1024  1.1461 -0.1841
  854MOL0     H12727   3.884   1.258   8.307  0.5943 -1.2608  0.5868
  854MOL0     H12728   3.666   1.184   8.376 -0.8206  0.5786 -0.3113
  855MOL0     O12729   4.273   9.842   5.494  0.0098  1.2271  0.8606
  855MOL0     C12730   4.290   9.936   5.417  0.3995  0.6183 -0.4961
  855MOL0     O12731   4.187  10.005   5.355 -0.2107 -0.0132  0.4442
  855MOL0     C12732   4.065   9.937   5.353 -0.3273 -0.4853  0.1013
  855MOL0     C12733   4.011   9.872   5.238 -0.2368  0.2779 -0.3879
  855MOL0     C12734   3.890   9.808   5.237  0.0205 -0.2466 -0.5349
  855MOL0     C12735   3.804   9.817   5.347 -0.4897  1.6289 -0.2700
  855MOL0     O12736   3.679   9.762   5.324  0.3072  0.1112 -0.5714
  855MOL0     C12737   3.585   9.744   5.432 -0.7161 -0.0838 -0.5052
  855MOL0     C12738   3.478   9.659   5.377 -0.2911 -0.3583 -0.0449
  855MOL0     C12739   3.394   9.730   5.272  0.1920 -0.5840 -0.2070
  855MOL0     C12740   3.284   9.641   5.205  0.3581 -0.0603 -0.7320
  855MOL0     C12741   3.151   9.675   5.266  0.4119  0.0390  0.4450
  855MOL0     C12742   3.144   9.616   5.405 -0.1246 -0.0944  0.1489
  855MOL0     C12743   3.007   9.568   5.445  0.5193  0.2489 -0.2217
  855MOL0     C12744   3.027   9.491   5.578  0.3072 -0.4365 -0.4831
  855MOL0     N12745   2.888   9.447   5.624 -0.2484 -0.4184  0.2054
  855MOL0     C12746   2.768   9.514   5.619  0.1276 -0.3105 -0.7883
  855MOL0     C12747   2.677   9.431   5.682 -0.6053 -0.4608 -0.9103
  855MOL0     C12748   2.530   9.467   5.717 -0.3236  0.1674  0.5767
  855MOL0     C12749   2.520   9.585   5.821 -0.0331  0.7058  0.7929
  855MOL0     C12750   2.372   9.624   5.829 -0.3987  0.2970 -0.0897
  855MOL0     C12751   2.302   9.536   5.929  0.6356  0.2078  0.3456
  855MOL0     O12752   2.179   9.608   5.960 -0.2064  0.2752 -0.3930
  855MOL0     C12753   2.101   9.538   6.056 -0.3623 -0.2357 -0.1102
  855MOL0     C12754   2.127   9.412   6.117  0.5946  0.1039  0.7780
  855MOL0     C12755   2.035   9.358   6.212 -0.0508 -0.2201 -0.9327
  855MOL0     C12756   1.923   9.429   6.257  0.1949 -0.7916  0.3754
  855MOL0     C12757   1.836   9.375   6.361 -0.0069  0.0664 -0.4493
  855MOL0     O12758   1.762   9.467   6.428 -0.5849  0.5641 -0.8269
  855MOL0     C12759   1.647   9.431   6.505 -0.7841  0.8969 -0.1782
  855MOL0     C12760   1.540   9.530   6.501  0.9671  0.3304 -1.1240
  855MOL0     C12761   1.421   9.504   6.575  0.2579 -0.3070  0.2025
  855MOL0     C12762   1.418   9.387   6.660 -0.7967 -0.7475 -0.4621
  855MOL0     O12763   1.302   9.352   6.722 -0.3807 -0.0953  0.0804
  855MOL0     C12764   1.178   9.431   6.737 -0.5872  0.3824 -0.0065
  855MOL0     C12765   1.084   9.353   6.830 -0.4928  0.9483  0.4698
  855MOL0     C12766   1.035   9.216   6.766 -0.1317  0.1958  0.3865
  855MOL0     C12767   0.913   9.175   6.851  0.1625 -0.0549 -0.5131
  855MOL0     C12768   0.814   9.082   6.776 -0.7409  0.8098  0.2304
  855MOL0     C12769   0.686   9.053   6.850 -0.8893 -0.1880  0.2037
  855MOL0     C12770   0.606   8.937   6.782  0.2180  0.8815  0.0753
  855MOL0     C12771   0.479   8.889   6.855  0.0270 -0.3743  0.0482
  855MOL0    Cl12772   0.348   9.018   6.829  0.4418 -0.5098  0.1702
  855MOL0     C12773   1.533   9.302   6.668  0.3344  0.1887  0.2129
  855MOL0     C12774   1.639   9.319   6.587  0.2441  0.7582 -0.2507
  855MOL0     O12775   1.816   9.254   6.356  0.2807  0.4782  0.6563
  855MOL0     C12776   1.912   9.556   6.203  0.0290  0.2321  0.5490
  855MOL0     C12777   1.992   9.613   6.102 -0.2714 -0.3288 -0.2377
  855MOL0     N12778   2.741   9.310   5.717 -0.6402  0.0427  0.7988
  855MOL0     N12779   2.869   9.322   5.683  0.4743  0.1009  0.0909
  855MOL0     C12780   3.857   9.870   5.460 -1.1007 -0.5543  0.9331
  855MOL0     C12781   3.983   9.936   5.462 -1.3265  0.0627 -0.2538
  855MOL0     C12782   4.428   9.983   5.397  0.8286 -0.6979  0.4464
  855MOL0     C12783   4.534   9.942   5.468 -0.0613  0.2841  0.3218
  855MOL0     C12784   4.672   9.978   5.441 -0.0691 -0.5173 -0.4373
  855MOL0     C12785   4.700  10.083   5.350 -0.6560 -0.5523 -1.0469
  855MOL0     O12786   4.821  10.133   5.318  0.2337 -0.1379  0.1010
  855MOL0     C12787   4.918  10.133   5.426 -0.3418 -0.5715 -0.0938
  855MOL0     C12788   5.029  10.239   5.401  1.6499  0.7956  0.2671
  855MOL0     C12789   4.983  10.386   5.400  0.0152 -0.2523  0.9621
  855MOL0     C12790   4.887  10.417   5.521 -0.0017 -0.1697 -0.0589
  855MOL0     C12791   4.943  10.380   5.654 -0.0099  0.1762  0.5048
  855MOL0     C12792   4.982  10.347   5.762  0.7095 -0.2975 -0.4384
  855MOL0     C12793   4.589  10.119   5.268 -0.7957  0.0675 -0.3323
  855MOL0     C12794   4.459  10.066   5.289 -0.9284  0.5222 -0.8287
  855MOL0     H12795   4.074   9.855   5.151  1.2616 -1.6993  1.0062
  855MOL0     H12796   3.870   9.750   5.147  1.5207 -1.1376 -0.3260
  855MOL0     H12797   3.556   9.842   5.471  0.0711 -0.4103  0.9837
  855MOL0     H12798   3.625   9.684   5.515  2.3435  1.8491 -0.3995
  855MOL0     H12799   3.416   9.622   5.459  2.8644 -0.4140  2.5054
  855MOL0     H12800   3.523   9.577   5.319 -1.3118 -1.5716  0.8473
  855MOL0     H12801   3.464   9.772   5.198 -1.5326  2.5680 -0.2440
  855MOL0     H12802   3.345   9.821   5.308  0.4865 -0.6688  0.4249
  855MOL0     H12803   3.272   9.663   5.099  0.3059 -2.1343 -1.1898
  855MOL0     H12804   3.325   9.540   5.201  0.6996  0.1102 -2.4538
  855MOL0     H12805   3.079   9.623   5.202  1.2403  0.9779 -1.3242
  855MOL0     H12806   3.130   9.782   5.266 -3.2360 -0.5203 -0.1401
  855MOL0     H12807   3.178   9.685   5.483  0.2572 -1.8511  1.6012
  855MOL0     H12808   3.214   9.533   5.414  1.8108  1.5881  1.6897
  855MOL0     H12809   2.937   9.652   5.454 -0.9864 -0.9044 -0.8033
  855MOL0     H12810   2.971   9.510   5.360 -2.0075 -1.9123  2.1244
  855MOL0     H12811   3.090   9.546   5.648  3.7845 -3.1176 -1.2513
  855MOL0     H12812   3.088   9.406   5.548  1.4304  1.1421 -3.0663
  855MOL0     H12813   2.753   9.609   5.568  2.8422 -0.1343 -1.4049
  855MOL0     H12814   2.480   9.375   5.747  0.0304 -0.0623  0.4746
  855MOL0     H12815   2.486   9.503   5.624 -3.1718 -2.7303  0.6363
  855MOL0     H12816   2.579   9.669   5.783  1.3021 -0.4036  0.3144
  855MOL0     H12817   2.573   9.545   5.908  0.8140  1.5238  0.6706
  855MOL0     H12818   2.364   9.727   5.868  0.5924  0.4397 -0.2214
  855MOL0     H12819   2.323   9.632   5.732  0.7781 -0.1312 -0.7350
  855MOL0     H12820   2.353   9.513   6.023 -1.2140  0.2736  1.3985
  855MOL0     H12821   2.281   9.438   5.886  3.6839 -1.0353  1.3973
  855MOL0     H12822   2.206   9.346   6.084 -0.7368 -1.0557 -0.1783
  855MOL0     H12823   2.049   9.259   6.254 -0.5380 -0.0832 -0.4394
  855MOL0     H12824   1.548   9.622   6.443  2.2245  0.9612 -0.0050
  855MOL0     H12825   1.341   9.577   6.567  1.8839  1.4503 -0.7411
  855MOL0     H12826   1.127   9.449   6.642 -1.3254 -1.8544 -0.0859
  855MOL0     H12827   1.193   9.529   6.784  0.3084  0.0106  0.5076
  855MOL0     H12828   0.998   9.419   6.846  0.3832  2.9285 -2.2899
  855MOL0     H12829   1.140   9.331   6.922  3.1800 -2.8104 -2.2820
  855MOL0     H12830   1.107   9.135   6.775 -1.1995 -0.6262  2.0377
  855MOL0     H12831   1.003   9.223   6.662 -0.3277 -0.2882  0.4122
  855MOL0     H12832   0.948   9.125   6.943  0.3708  0.1782 -0.4646
  855MOL0     H12833   0.856   9.259   6.891  1.8483 -0.3500  2.9193
  855MOL0     H12834   0.869   8.991   6.749 -2.1851 -1.0405  3.0463
  855MOL0     H12835   0.779   9.131   6.684 -2.1880 -0.9255 -0.2229
  855MOL0     H12836   0.627   9.145   6.850  1.0880  1.1660 -1.2595
  855MOL0     H12837   0.721   9.030   6.951  1.8249 -3.7303 -1.3042
  855MOL0     H12838   0.574   8.975   6.685 -1.6547  3.0530  1.4301
  855MOL0     H12839   0.676   8.855   6.765  0.1362  1.0031 -0.8976
  855MOL0     H12840   0.492   8.874   6.962  0.0635 -0.2618  0.0604
  855MOL0     H12841   0.439   8.797   6.812 -0.3792 -0.7853  1.2845
  855MOL0     H12842   1.549   9.210   6.724  2.7982 -0.1039 -0.8018
  855MOL0     H12843   1.725   9.252   6.585  0.0690  0.4453  1.4705
  855MOL0     H12844   1.830   9.614   6.244  0.3348  0.0780  1.3858
  855MOL0     H12845   1.986   9.717   6.072 -0.6792 -0.7962 -1.8519
  855MOL0     H12846   3.799   9.868   5.552 -1.5486 -1.9745  0.6395
  855MOL0     H12847   4.007   9.989   5.554 -3.9375 -1.3831  1.4024
  855MOL0     H12848   4.507   9.862   5.536 -0.9827 -0.3118 -0.7396
  855MOL0     H12849   4.757   9.927   5.486  0.5867  0.9764  0.0670
  855MOL0     H12850   4.963  10.033   5.437 -2.1248 -1.4719 -0.6335
  855MOL0     H12851   4.869  10.152   5.522  0.1606  1.7143 -0.2326
  855MOL0     H12852   5.111  10.221   5.471  1.3722  0.4672  0.5115
  855MOL0     H12853   5.078  10.224   5.304 -1.6386  2.6756 -1.8869
  855MOL0     H12854   4.932  10.394   5.303  2.9397 -3.5414 -1.1121
  855MOL0     H12855   5.066  10.457   5.402 -0.7108  0.6166  0.6947
  855MOL0     H12856   4.867  10.525   5.527  1.0275 -0.0110  0.7984
  855MOL0     H12857   4.786  10.376   5.508 -0.0641 -0.8699  2.2560
  855MOL0     H12858   5.011  10.309   5.858  0.3303  0.7341  0.1080
  855MOL0     H12859   4.610  10.186   5.185 -1.9763 -1.2294 -1.7489
  855MOL0     H12860   4.381  10.100   5.222 -0.1428  2.4041 -0.8275
  856MOL0     O12861   1.643   7.716   5.292  0.1531 -0.4656 -0.2579
  856MOL0     C12862   1.661   7.642   5.199 -0.5226  0.7462 -0.7020
  856MOL0     O12863   1.577   7.543   5.156  0.8087 -0.1428 -1.2374
  856MOL0     C12864   1.446   7.562   5.207 -0.2719  0.7070 -0.0227
  856MOL0     C12865   1.402   7.487   5.311 -0.0344 -0.2336 -0.2518
  856MOL0     C12866   1.265   7.494   5.354 -1.3933 -0.7355 -0.1423
  856MOL0     C12867   1.177   7.583   5.297 -0.4185  0.1538  0.0302
  856MOL0     O12868   1.048   7.592   5.339  0.1720 -0.2000 -0.6813
  856MOL0     C12869   0.957   7.633   5.245  0.8301  0.7031  0.5011
  856MOL0     C12870   0.817   7.580   5.286 -0.4426  0.6025  0.3931
  856MOL0     C12871   0.713   7.643   5.193  0.0813  0.3939  0.1628
  856MOL0     C12872   0.569   7.615   5.247  0.3994  0.2326  0.7899
  856MOL0     C12873   0.465   7.597   5.125  0.7906  0.6869 -0.0297
  856MOL0     C12874   0.324   7.582   5.168 -0.1478  0.5472 -0.1518
  856MOL0     C12875   0.220   7.588   5.052 -0.0677  0.7027 -0.3439
  856MOL0     C12876   0.083   7.556   5.115  0.2631 -0.2358  0.5275
  856MOL0     N12877  -0.030   7.582   5.026 -0.5843  0.2014 -0.4030
  856MOL0     C12878  -0.028   7.639   4.897 -1.1547 -0.4284  0.0333
  856MOL0     C12879  -0.151   7.623   4.845 -0.0002 -0.1717 -0.4428
  856MOL0     C12880  -0.185   7.674   4.706 -0.2156 -0.0642  0.3743
  856MOL0     C12881  -0.326   7.644   4.662  0.2282 -0.8308 -0.4582
  856MOL0     C12882  -0.420   7.751   4.718  0.3076  0.7668  0.0213
  856MOL0     C12883  -0.561   7.691   4.708  0.3379  0.3905  0.0181
  856MOL0     O12884  -0.652   7.791   4.755  0.8479  0.6698 -0.9238
  856MOL0     C12885  -0.787   7.750   4.764  1.0432  0.3343 -0.5341
  856MOL0     C12886  -0.836   7.620   4.724  0.3766  0.0387 -0.0174
  856MOL0     C12887  -0.970   7.583   4.740 -0.6583  0.7852  1.0657
  856MOL0     C12888  -1.051   7.684   4.786 -0.7793 -0.2670 -0.8011
  856MOL0     C12889  -1.198   7.669   4.792 -0.7464 -0.2168 -0.4985
  856MOL0     O12890  -1.248   7.564   4.720  0.7925  0.2001 -0.0209
  856MOL0     C12891  -1.382   7.549   4.712  0.1250  0.0033 -0.5517
  856MOL0     C12892  -1.446   7.440   4.775 -0.8640 -0.8134 -0.4736
  856MOL0     C12893  -1.582   7.417   4.768  1.3178  0.0101 -0.2791
  856MOL0     C12894  -1.661   7.503   4.692 -0.5763 -0.9952  0.0651
  856MOL0     O12895  -1.789   7.464   4.687  0.3278  0.4612  0.5019
  856MOL0     C12896  -1.889   7.565   4.676 -0.3254 -0.9902  0.4279
  856MOL0     C12897  -2.025   7.504   4.717  0.3316  0.0959 -0.3268
  856MOL0     C12898  -2.091   7.437   4.602 -0.1864 -0.1584  0.0416
  856MOL0     C12899  -2.227   7.383   4.644 -0.4130 -0.5091  0.2102
  856MOL0     C12900  -2.293   7.338   4.518  0.5014  0.0032  0.2854
  856MOL0     C12901  -2.329   7.464   4.437 -0.7882 -0.5655  0.1593
  856MOL0     C12902  -2.451   7.437   4.347 -0.2496  0.5651  0.0854
  856MOL0     C12903  -2.500   7.546   4.249 -0.2352 -0.6405 -0.5676
  856MOL0    Cl12904  -2.387   7.569   4.114  0.2153 -0.3700  0.3057
  856MOL0     C12905  -1.602   7.601   4.612 -0.3632 -0.2389 -0.2334
  856MOL0     C12906  -1.465   7.620   4.621 -0.4130  0.5706  0.5314
  856MOL0     O12907  -1.267   7.748   4.855  0.1949  0.0633 -0.1832
  856MOL0     C12908  -1.008   7.808   4.834 -0.0657  0.0653 -0.8329
  856MOL0     C12909  -0.873   7.837   4.825 -0.0301 -0.1688  0.0658
  856MOL0     N12910  -0.225   7.549   4.944 -0.3085  0.3836 -0.1528
  856MOL0     N12911  -0.146   7.513   5.046  0.3267  0.3529  0.6922
  856MOL0     C12912   1.230   7.666   5.196 -0.2684 -1.0634 -0.6140
  856MOL0     C12913   1.361   7.647   5.143  0.8081  0.2638  0.3873
  856MOL0     C12914   1.787   7.640   5.127 -0.1977 -0.7733  0.3965
  856MOL0     C12915   1.901   7.709   5.178 -0.1509 -0.1344  0.2569
  856MOL0     C12916   2.024   7.697   5.117  0.2476 -0.2132 -0.8027
  856MOL0     C12917   2.039   7.633   4.999  0.0087  0.1366  0.5165
  856MOL0     O12918   2.163   7.620   4.949  0.2275  0.2375 -0.2934
  856MOL0     C12919   2.290   7.670   5.003 -0.2690 -0.2958 -0.1797
  856MOL0     C12920   2.400   7.581   4.946 -0.1579 -0.6833 -0.1740
  856MOL0     C12921   2.539   7.650   4.961  0.5320  0.4603 -0.3359
  856MOL0     C12922   2.555   7.790   4.889  1.2933 -0.4134 -0.2819
  856MOL0     C12923   2.681   7.859   4.903  0.1280 -0.1281 -0.7090
  856MOL0     C12924   2.790   7.906   4.932 -0.0829 -0.9312 -0.2130
  856MOL0     C12925   1.931   7.564   4.943  0.0078 -0.2690 -0.3978
  856MOL0     C12926   1.806   7.561   5.006 -0.4346 -0.4676 -0.5079
  856MOL0     H12927   1.470   7.414   5.354  0.8473  0.7272  0.0237
  856MOL0     H12928   1.236   7.445   5.446  2.5915  1.8458  2.8647
  856MOL0     H12929   0.970   7.589   5.146 -1.6634  1.5129 -0.2520
  856MOL0     H12930   0.945   7.742   5.247 -1.5139  0.4804  0.5005
  856MOL0     H12931   0.805   7.604   5.392 -1.4121  0.1455  0.3950
  856MOL0     H12932   0.819   7.472   5.274  1.2315  0.6202  0.2400
  856MOL0     H12933   0.718   7.606   5.091 -2.2348  0.4143  0.0005
  856MOL0     H12934   0.741   7.748   5.182 -0.1958  0.5687  0.9971
  856MOL0     H12935   0.560   7.522   5.303 -1.4224 -2.5585 -3.6000
  856MOL0     H12936   0.536   7.702   5.303  1.5181 -0.4115  2.5318
  856MOL0     H12937   0.493   7.510   5.064  3.5764 -0.4756  2.6431
  856MOL0     H12938   0.463   7.681   5.055 -2.1744 -0.1393 -1.1024
  856MOL0     H12939   0.295   7.660   5.239 -0.1714  4.5457 -4.0831
  856MOL0     H12940   0.312   7.486   5.218  0.9677 -2.5421 -5.0252
  856MOL0     H12941   0.224   7.679   4.991 -0.2523  0.8336 -0.1612
  856MOL0     H12942   0.238   7.502   4.987 -0.0753 -0.5616  1.2542
  856MOL0     H12943   0.064   7.620   5.202  1.6031  1.3564 -0.2853
  856MOL0     H12944   0.094   7.454   5.150  0.7448 -1.1339 -2.0401
  856MOL0     H12945   0.053   7.700   4.858 -1.7189  1.3088  1.4753
  856MOL0     H12946  -0.115   7.627   4.635 -0.5933  0.8966 -0.6768
  856MOL0     H12947  -0.171   7.782   4.707 -0.8905  0.0551 -0.6785
  856MOL0     H12948  -0.352   7.540   4.681 -4.9403  0.0090 -1.5350
  856MOL0     H12949  -0.324   7.652   4.552  2.1529  3.3660 -0.3400
  856MOL0     H12950  -0.389   7.777   4.819  0.2187  2.9678 -0.4830
  856MOL0     H12951  -0.416   7.831   4.644 -2.7170  0.2362 -0.8865
  856MOL0     H12952  -0.552   7.604   4.773 -1.8429 -0.7776 -1.1353
  856MOL0     H12953  -0.582   7.664   4.604 -0.5736  0.2909  0.2205
  856MOL0     H12954  -0.776   7.540   4.680 -1.4212 -0.7203 -1.2040
  856MOL0     H12955  -1.005   7.483   4.714  2.5400 -0.6645  1.9249
  856MOL0     H12956  -1.385   7.373   4.835 -0.5360  1.4518  1.9274
  856MOL0     H12957  -1.621   7.343   4.837  0.8170  0.5756  0.0535
  856MOL0     H12958  -1.887   7.603   4.574 -0.1662 -0.9184  0.4577
  856MOL0     H12959  -1.870   7.643   4.750 -0.4015 -1.9547  1.5092
  856MOL0     H12960  -2.086   7.588   4.750  0.7552  0.8157 -1.3501
  856MOL0     H12961  -2.003   7.437   4.801  2.3911  2.0862  0.8237
  856MOL0     H12962  -2.026   7.359   4.561  3.5287  3.4364 -1.6387
  856MOL0     H12963  -2.091   7.513   4.523  1.2246 -1.1070 -0.9083
  856MOL0     H12964  -2.223   7.295   4.709 -1.2886 -0.0825  0.8597
  856MOL0     H12965  -2.284   7.459   4.698 -1.8407 -0.9408 -0.6533
  856MOL0     H12966  -2.391   7.299   4.550  0.1413  0.1663 -0.5939
  856MOL0     H12967  -2.243   7.258   4.463 -1.7406 -0.4784 -1.2121
  856MOL0     H12968  -2.247   7.517   4.388 -2.3467 -0.8143 -3.0177
  856MOL0     H12969  -2.362   7.535   4.513 -0.5682  1.1963 -1.3089
  856MOL0     H12970  -2.436   7.345   4.290  0.8075  0.3148  0.7515
  856MOL0     H12971  -2.532   7.417   4.419  0.9030 -0.9908  1.0137
  856MOL0     H12972  -2.517   7.638   4.306 -3.4870  0.6281 -3.2214
  856MOL0     H12973  -2.599   7.531   4.205 -0.7047 -1.8821  0.8395
  856MOL0     H12974  -1.659   7.651   4.535  0.3024 -0.4605 -0.8821
  856MOL0     H12975  -1.427   7.689   4.546 -2.8004  2.6020  1.0526
  856MOL0     H12976  -1.070   7.865   4.902  0.3405  0.7315 -1.0106
  856MOL0     H12977  -0.838   7.927   4.876 -4.2281  2.4798 -1.1986
  856MOL0     H12978   1.180   7.754   5.157  0.7986  0.5117  1.3584
  856MOL0     H12979   1.391   7.718   5.066 -1.0313  2.8081  1.8742
  856MOL0     H12980   1.898   7.771   5.267  0.7065 -1.6611  1.4009
  856MOL0     H12981   2.109   7.751   5.157 -0.0514  1.7072 -2.6001
  856MOL0     H12982   2.297   7.662   5.112  1.9512 -0.3369 -0.2805
  856MOL0     H12983   2.298   7.775   4.972  0.3537 -1.0948 -2.9887
  856MOL0     H12984   2.423   7.489   5.001  3.2634 -1.4297 -2.5010
  856MOL0     H12985   2.377   7.558   4.841  0.4840 -0.7772 -0.2968
  856MOL0     H12986   2.617   7.584   4.920  2.6176  4.2560 -3.0589
  856MOL0     H12987   2.578   7.660   5.063 -0.8636 -1.8176  0.5038
  856MOL0     H12988   2.528   7.779   4.784  0.4527  0.8070 -0.2099
  856MOL0     H12989   2.478   7.855   4.932  1.6187 -0.7469  0.8310
  856MOL0     H12990   2.887   7.943   4.959 -0.2683 -1.7937  1.7189
  856MOL0     H12991   1.944   7.510   4.850 -0.7614  0.3906 -0.9017
  856MOL0     H12992   1.725   7.507   4.957 -2.9803  2.1351  0.5617
  857MOL0     O12993   0.996   3.473   1.891 -0.0239 -0.4931  0.6017
  857MOL0     C12994   1.047   3.361   1.895 -0.1576  0.4607 -0.7062
  857MOL0     O12995   0.978   3.244   1.910  0.0329 -0.1961 -0.3516
  857MOL0     C12996   0.844   3.241   1.931 -1.0611 -0.0109 -0.1580
  857MOL0     C12997   0.774   3.151   1.857  0.2154  0.9293  0.5053
  857MOL0     C12998   0.632   3.123   1.864 -0.5578 -0.0692  0.3095
  857MOL0     C12999   0.556   3.206   1.951 -0.3520  0.7645  0.7501
  857MOL0     O13000   0.430   3.174   1.976  0.1668 -0.2693  0.2999
  857MOL0     C13001   0.335   3.264   2.045  1.1428 -0.4933 -0.5967
  857MOL0     C13002   0.224   3.169   2.071 -0.1701  0.3091 -0.3877
  857MOL0     C13003   0.104   3.242   2.140 -0.3754 -0.1189  0.1958
  857MOL0     C13004  -0.011   3.140   2.160 -0.5457 -0.1119  0.3255
  857MOL0     C13005  -0.113   3.213   2.257  0.5737  0.3836  1.1065
  857MOL0     C13006  -0.231   3.117   2.291  0.8426 -0.8744  0.0585
  857MOL0     C13007  -0.315   3.188   2.397 -0.6118  0.1149 -0.4615
  857MOL0     C13008  -0.240   3.190   2.530  0.3840  0.6458  0.1556
  857MOL0     N13009  -0.232   3.050   2.590 -0.1625 -1.8394  0.4211
  857MOL0     C13010  -0.329   3.000   2.672  0.9132  0.2672 -0.0534
  857MOL0     C13011  -0.296   2.874   2.687  0.4355 -0.3107  0.5235
  857MOL0     C13012  -0.372   2.765   2.761  0.0373 -0.3393 -0.0313
  857MOL0     C13013  -0.521   2.781   2.785  0.0581 -0.3305  0.0588
  857MOL0     C13014  -0.585   2.685   2.894  1.1502  0.3671 -0.3357
  857MOL0     C13015  -0.553   2.723   3.043  0.0596  1.2991  0.3878
  857MOL0     O13016  -0.618   2.628   3.135  0.1721  0.1553  0.5876
  857MOL0     C13017  -0.751   2.650   3.168  0.0393  0.1674 -0.5257
  857MOL0     C13018  -0.829   2.539   3.146 -0.2656  0.1635 -0.2236
  857MOL0     C13019  -0.970   2.557   3.178  0.0230  0.4153 -0.1112
  857MOL0     C13020  -1.021   2.684   3.211  0.1669  0.1259 -0.0309
  857MOL0     C13021  -1.164   2.705   3.244  0.2444  0.2260 -0.0647
  857MOL0     O13022  -1.247   2.595   3.216 -0.4221 -0.1096  0.1371
  857MOL0     C13023  -1.385   2.596   3.216 -0.8310  0.3198 -0.4603
  857MOL0     C13024  -1.451   2.476   3.260  0.1159 -0.0798  0.8339
  857MOL0     C13025  -1.592   2.474   3.258 -0.9760 -0.4160 -0.5013
  857MOL0     C13026  -1.665   2.580   3.206 -0.9490 -0.0701  0.0546
  857MOL0     O13027  -1.798   2.559   3.196  0.0488 -0.7995  0.5543
  857MOL0     C13028  -1.872   2.657   3.112  0.3962 -0.2733 -0.5003
  857MOL0     C13029  -2.017   2.611   3.111  0.5309 -0.3003 -0.7668
  857MOL0     C13030  -2.101   2.719   3.043  0.6524 -0.3469  0.1488
  857MOL0     C13031  -2.252   2.689   3.058  0.7889 -0.5200 -0.6735
  857MOL0     C13032  -2.335   2.792   2.982 -0.5178 -0.3301 -0.4872
  857MOL0     C13033  -2.472   2.751   2.937  0.1386 -0.7348 -0.4572
  857MOL0     C13034  -2.571   2.748   3.056 -0.0552 -0.3447  0.4615
  857MOL0     C13035  -2.712   2.734   3.008 -0.1299  0.2264  0.7257
  857MOL0    Cl13036  -2.778   2.867   2.921 -0.1649 -0.0839 -0.5079
  857MOL0     C13037  -1.594   2.694   3.165  0.8817 -1.4060 -0.3730
  857MOL0     C13038  -1.459   2.711   3.175 -0.5782 -0.1192  0.5010
  857MOL0     O13039  -1.196   2.816   3.297 -0.6529  0.3752 -0.4110
  857MOL0     C13040  -0.929   2.786   3.222  0.2634 -0.5208  0.6480
  857MOL0     C13041  -0.796   2.771   3.201 -0.4543  0.4570 -0.2218
  857MOL0     N13042  -0.175   2.851   2.619 -0.5196  0.3089 -0.7440
  857MOL0     N13043  -0.133   2.956   2.564 -0.6504  0.6144  0.5450
  857MOL0     C13044   0.628   3.310   2.011  0.7727  0.5790  0.5833
  857MOL0     C13045   0.768   3.324   2.014  0.4220 -0.9711  0.0290
  857MOL0     C13046   1.196   3.346   1.882  0.0930 -0.0959 -0.6404
  857MOL0     C13047   1.254   3.222   1.850 -0.7206 -0.0300 -0.1858
  857MOL0     C13048   1.396   3.203   1.857 -0.4176 -0.0928 -0.2162
  857MOL0     C13049   1.487   3.312   1.885  0.1405  0.3650  1.4771
  857MOL0     O13050   1.630   3.293   1.883 -0.2420  0.3118  0.5756
  857MOL0     C13051   1.693   3.169   1.918  0.1088  0.3461  0.2218
  857MOL0     C13052   1.756   3.178   2.058 -0.8238  0.5563  0.9065
  857MOL0     C13053   1.873   3.271   2.077  0.5560 -1.0959  0.5566
  857MOL0     C13054   1.993   3.236   1.993 -0.9198  0.1965 -0.5092
  857MOL0     C13055   2.107   3.323   2.009  0.3604 -0.2648 -0.4053
  857MOL0     C13056   2.189   3.412   2.022  0.3653 -0.6159 -0.6663
  857MOL0     C13057   1.424   3.440   1.897  0.7221  0.1417 -0.0634
  857MOL0     C13058   1.284   3.458   1.902 -0.5426  0.4149 -0.6546
  857MOL0     H13059   0.836   3.083   1.799 -1.3637 -1.2094  1.1909
  857MOL0     H13060   0.589   3.036   1.817  0.4069  0.5344 -1.7876
  857MOL0     H13061   0.296   3.345   1.983  1.7777  1.4290  1.3594
  857MOL0     H13062   0.368   3.307   2.140  0.2051  1.1016 -0.9516
  857MOL0     H13063   0.269   3.089   2.131 -3.4142 -0.3045  1.4455
  857MOL0     H13064   0.182   3.122   1.982 -0.1606  1.8591 -1.2461
  857MOL0     H13065   0.076   3.325   2.074  2.0765 -0.2134 -1.1011
  857MOL0     H13066   0.150   3.299   2.221  1.2942  2.0566 -2.1247
  857MOL0     H13067  -0.045   3.103   2.063  1.2011 -2.5735  0.5481
  857MOL0     H13068   0.024   3.046   2.204  0.9035 -0.1266 -0.7748
  857MOL0     H13069  -0.140   3.308   2.209  0.3170 -0.8402 -1.3403
  857MOL0     H13070  -0.049   3.237   2.342 -0.0183  2.4520  1.0328
  857MOL0     H13071  -0.188   3.025   2.333 -0.1428 -1.7050 -0.7028
  857MOL0     H13072  -0.292   3.085   2.206  0.8293  0.3487 -0.4124
  857MOL0     H13073  -0.325   3.291   2.361  2.0970  0.2229 -1.1014
  857MOL0     H13074  -0.414   3.141   2.401 -1.1960  0.9605 -3.0720
  857MOL0     H13075  -0.304   3.246   2.599 -0.5871 -0.5174  0.2068
  857MOL0     H13076  -0.147   3.248   2.524 -0.2781  1.5760 -2.3838
  857MOL0     H13077  -0.412   3.044   2.727  0.1067 -1.5938  0.3026
  857MOL0     H13078  -0.325   2.760   2.860  0.5788  2.3987 -0.0683
  857MOL0     H13079  -0.351   2.667   2.717 -0.8164 -0.6134  0.1594
  857MOL0     H13080  -0.578   2.777   2.692  0.2198  0.9025 -0.1018
  857MOL0     H13081  -0.548   2.878   2.827  0.9290  0.1539 -0.4854
  857MOL0     H13082  -0.693   2.698   2.886  0.2343 -3.8787  1.8647
  857MOL0     H13083  -0.563   2.578   2.885 -0.7216 -0.1529  0.6652
  857MOL0     H13084  -0.597   2.822   3.053 -1.0501  1.2328 -2.9781
  857MOL0     H13085  -0.444   2.729   3.053  0.3237  0.1671 -1.4512
  857MOL0     H13086  -0.788   2.442   3.122 -0.2621 -0.2037  1.1661
  857MOL0     H13087  -1.027   2.464   3.172  0.5418  0.0200  0.9478
  857MOL0     H13088  -1.409   2.384   3.301 -2.0966 -0.8446  1.4906
  857MOL0     H13089  -1.657   2.395   3.293 -0.0339 -1.6621 -1.4560
  857MOL0     H13090  -1.839   2.652   3.008  1.1212 -1.4658 -0.2300
  857MOL0     H13091  -1.866   2.759   3.152  1.8843 -1.4211  2.5237
  857MOL0     H13092  -2.053   2.596   3.213 -0.3910 -1.5813 -1.2457
  857MOL0     H13093  -2.028   2.512   3.065 -0.1332  0.3988 -2.1888
  857MOL0     H13094  -2.073   2.716   2.937  0.5820 -0.8734  0.1415
  857MOL0     H13095  -2.072   2.819   3.078  1.1928 -0.5018  0.1491
  857MOL0     H13096  -2.277   2.590   3.019  2.4782 -2.0564  1.8366
  857MOL0     H13097  -2.286   2.689   3.162 -0.8953  0.9471 -1.1710
  857MOL0     H13098  -2.278   2.815   2.892 -1.2553 -0.4267 -0.9890
  857MOL0     H13099  -2.340   2.887   3.036 -0.7739 -1.0681  0.8405
  857MOL0     H13100  -2.471   2.651   2.895 -3.8646 -1.4662  0.7776
  857MOL0     H13101  -2.502   2.833   2.871 -0.7689  0.4847  1.3727
  857MOL0     H13102  -2.537   2.675   3.130 -0.2003 -0.0664  0.8058
  857MOL0     H13103  -2.569   2.846   3.105 -1.7625 -1.4320  2.9044
  857MOL0     H13104  -2.776   2.719   3.095  0.6237  0.2608  1.2918
  857MOL0     H13105  -2.717   2.645   2.945  2.4936  1.1016 -0.8534
  857MOL0     H13106  -1.644   2.784   3.131  1.1216 -1.4329 -0.8141
  857MOL0     H13107  -1.398   2.795   3.144 -1.6130  0.8918  1.1152
  857MOL0     H13108  -0.968   2.886   3.239  1.2769  1.0169 -4.4887
  857MOL0     H13109  -0.721   2.849   3.211  0.8141 -1.0106  3.3263
  857MOL0     H13110   0.564   3.372   2.073 -1.8274  0.5571 -1.8523
  857MOL0     H13111   0.812   3.396   2.082 -1.5014 -0.2434  0.5801
  857MOL0     H13112   1.204   3.133   1.812  1.4207 -1.3475 -0.0647
  857MOL0     H13113   1.450   3.113   1.828  1.7773  1.0509  0.1400
  857MOL0     H13114   1.777   3.138   1.854  1.2128  0.0025  1.7710
  857MOL0     H13115   1.622   3.087   1.929 -0.0339  0.5363  0.7304
  857MOL0     H13116   1.673   3.201   2.126 -3.4422 -0.7011 -1.6483
  857MOL0     H13117   1.788   3.077   2.085 -1.0509  0.6159  1.4020
  857MOL0     H13118   1.898   3.283   2.183 -0.1500 -0.9717  0.7138
  857MOL0     H13119   1.843   3.371   2.045  0.3233 -0.4363  2.6550
  857MOL0     H13120   2.027   3.135   2.017  3.3159  1.6740  0.5238
  857MOL0     H13121   1.960   3.231   1.889  2.0175 -2.9579 -1.4586
  857MOL0     H13122   2.258   3.493   2.033 -1.1790  0.4171  3.0300
  857MOL0     H13123   1.480   3.532   1.914 -0.4962  0.8367  0.3437
  857MOL0     H13124   1.242   3.558   1.905 -2.6835 -0.4207 -1.1133
  858MOL0     O13125   1.057   7.113   4.679 -0.6226  0.4409  0.3584
  858MOL0     C13126   1.069   7.013   4.756  0.0566 -0.3954 -0.1240
  858MOL0     O13127   0.965   6.945   4.812  0.3014  0.4986  0.2316
  858MOL0     C13128   0.843   6.961   4.746  0.1765  0.1238  0.2527
  858MOL0     C13129   0.751   7.057   4.786 -0.0243  0.4117 -0.2134
  858MOL0     C13130   0.620   7.051   4.738 -0.4446  0.2136 -0.4172
  858MOL0     C13131   0.584   6.942   4.650  0.3858  0.2813  0.1002
  858MOL0     O13132   0.463   6.949   4.592 -0.0289  0.0079  0.7424
  858MOL0     C13133   0.356   6.891   4.667  0.2597 -1.0423 -0.3272
  858MOL0     C13134   0.266   7.013   4.727  0.1072  0.4538  0.4077
  858MOL0     C13135   0.131   6.978   4.790 -0.8881  0.1080  0.5983
  858MOL0     C13136   0.042   6.921   4.672  0.5032  0.0093  0.3482
  858MOL0     C13137  -0.103   6.890   4.726 -0.2130 -0.2349 -0.6511
  858MOL0     C13138  -0.214   6.877   4.624  0.3638  0.7835 -0.5133
  858MOL0     C13139  -0.357   6.885   4.690  0.3692  0.1291 -0.8264
  858MOL0     C13140  -0.389   6.742   4.753 -0.4567  0.1019 -0.4795
  858MOL0     N13141  -0.521   6.730   4.823  0.0340  0.9210  1.3391
  858MOL0     C13142  -0.569   6.612   4.867  0.1496  0.7126  0.0391
  858MOL0     C13143  -0.688   6.644   4.922  0.2850 -0.1537  0.9980
  858MOL0     C13144  -0.796   6.569   4.994 -0.0893  0.1144 -0.2688
  858MOL0     C13145  -0.747   6.496   5.125 -0.1781  1.0753  0.5718
  858MOL0     C13146  -0.828   6.366   5.166  0.1711 -0.2368 -0.2643
  858MOL0     C13147  -0.980   6.393   5.184 -1.0046  0.1330 -0.2415
  858MOL0     O13148  -1.021   6.285   5.274  0.2048  0.5855  0.2228
  858MOL0     C13149  -1.150   6.250   5.277  0.0021  1.1555 -0.0250
  858MOL0     C13150  -1.257   6.311   5.210 -0.1614  0.5602 -0.4073
  858MOL0     C13151  -1.383   6.278   5.235  0.1109 -0.2334  0.9534
  858MOL0     C13152  -1.421   6.171   5.316 -0.2915 -0.3423 -1.7066
  858MOL0     C13153  -1.559   6.139   5.346  0.0929 -0.1885 -0.3813
  858MOL0     O13154  -1.575   6.057   5.447  0.0764 -0.0139 -0.0316
  858MOL0     C13155  -1.704   6.033   5.489 -0.5495 -0.5930  0.4871
  858MOL0     C13156  -1.756   6.073   5.616 -0.0173 -0.3772  0.3754
  858MOL0     C13157  -1.889   6.039   5.645 -0.1173  0.1234 -0.4280
  858MOL0     C13158  -1.971   5.966   5.563  0.6387  0.4470  0.0595
  858MOL0     O13159  -2.086   5.927   5.626  0.1522 -0.2797 -0.4939
  858MOL0     C13160  -2.203   5.984   5.574 -0.0986 -0.3314  0.1098
  858MOL0     C13161  -2.322   5.905   5.626 -1.0035  0.0031  0.0297
  858MOL0     C13162  -2.461   5.982   5.619 -0.3807  0.1584 -0.2033
  858MOL0     C13163  -2.557   5.899   5.695  0.3131 -0.8940  0.2395
  858MOL0     C13164  -2.695   5.956   5.668  0.5042 -0.3272  0.1887
  858MOL0     C13165  -2.795   5.894   5.772  0.2388  0.1723  0.7884
  858MOL0     C13166  -2.946   5.926   5.749  0.5014 -0.6610 -0.4453
  858MOL0     C13167  -3.028   5.826   5.821  0.0760 -0.2491  0.9943
  858MOL0    Cl13168  -3.012   5.847   6.001  0.4883  0.1388 -0.0683
  858MOL0     C13169  -1.927   5.941   5.435  0.5228 -1.1533 -0.2280
  858MOL0     C13170  -1.794   5.972   5.403 -0.3665  0.5903 -0.0067
  858MOL0     O13171  -1.650   6.207   5.285 -0.9507  0.1314 -0.1219
  858MOL0     C13172  -1.321   6.102   5.390 -0.4726 -0.5312 -0.3398
  858MOL0     C13173  -1.187   6.143   5.362  0.0517  0.4797 -0.8215
  858MOL0     N13174  -0.705   6.777   4.891 -0.0726 -0.0648  0.3206
  858MOL0     N13175  -0.609   6.828   4.835  0.2538  0.5871 -0.2583
  858MOL0     C13176   0.672   6.839   4.627 -0.8218 -0.1753 -0.5898
  858MOL0     C13177   0.802   6.849   4.675 -0.4958 -0.7372  0.1606
  858MOL0     C13178   1.206   6.962   4.778  0.2649  0.2924  1.6908
  858MOL0     C13179   1.245   6.867   4.866  0.1568  0.4740  0.1451
  858MOL0     C13180   1.370   6.812   4.870  0.5609 -0.3338  0.4288
  858MOL0     C13181   1.473   6.863   4.790 -0.0342 -0.4551 -0.6529
  858MOL0     O13182   1.602   6.802   4.805 -0.3902 -1.0656  0.3998
  858MOL0     C13183   1.714   6.868   4.754 -0.3176 -0.1528  0.6385
  858MOL0     C13184   1.846   6.805   4.809  0.4576 -0.0635 -0.3636
  858MOL0     C13185   1.869   6.660   4.749  0.6657 -0.1323 -0.7039
  858MOL0     C13186   2.013   6.614   4.783  0.3338 -0.1803  0.2501
  858MOL0     C13187   2.051   6.488   4.720  0.2124 -0.4389  0.6229
  858MOL0     C13188   2.084   6.386   4.669  0.9290  1.0353 -0.2150
  858MOL0     C13189   1.443   6.967   4.697 -0.2754 -0.4853  0.2359
  858MOL0     C13190   1.314   7.019   4.694 -0.0451 -0.3008 -0.2340
  858MOL0     H13191   0.784   7.129   4.860  0.8305 -1.0628  0.9204
  858MOL0     H13192   0.542   7.126   4.751 -0.8981 -0.4788  0.9909
  858MOL0     H13193   0.378   6.825   4.752 -4.7695 -1.5898  0.8891
  858MOL0     H13194   0.296   6.834   4.596  1.5084 -1.0894 -1.3713
  858MOL0     H13195   0.268   7.092   4.652 -0.7432 -0.5798 -0.7535
  858MOL0     H13196   0.325   7.057   4.808  0.7890  0.0337  0.1429
  858MOL0     H13197   0.079   7.070   4.821 -1.9392 -0.7800  1.5593
  858MOL0     H13198   0.141   6.900   4.865 -0.6704 -2.3391 -1.8318
  858MOL0     H13199   0.030   6.998   4.596 -3.7150 -0.7384  0.0283
  858MOL0     H13200   0.082   6.830   4.626 -0.5853  0.6787 -2.0726
  858MOL0     H13201  -0.123   6.957   4.809  4.0344 -2.6183  2.7355
  858MOL0     H13202  -0.101   6.792   4.774  0.6449 -1.1791 -2.5062
  858MOL0     H13203  -0.212   6.791   4.556 -1.8845  0.8295 -0.7032
  858MOL0     H13204  -0.200   6.956   4.550 -2.6203  1.0449 -0.9230
  858MOL0     H13205  -0.338   6.969   4.757  1.9501 -1.4627  0.8629
  858MOL0     H13206  -0.433   6.906   4.614 -0.6874  1.2855  0.5003
  858MOL0     H13207  -0.316   6.714   4.829 -1.1798 -2.2178 -0.5390
  858MOL0     H13208  -0.385   6.678   4.663  1.8438 -0.6313  0.0747
  858MOL0     H13209  -0.515   6.518   4.870  0.7932  1.0561 -0.4025
  858MOL0     H13210  -0.837   6.491   4.929  1.1113  0.4478 -1.4520
  858MOL0     H13211  -0.877   6.640   5.015 -0.5412 -0.1054 -1.1986
  858MOL0     H13212  -0.754   6.576   5.200 -1.9112 -0.5662  2.2687
  858MOL0     H13213  -0.641   6.472   5.111  0.0566  0.8419  2.4426
  858MOL0     H13214  -0.821   6.302   5.078  0.5738  2.1345 -2.0816
  858MOL0     H13215  -0.793   6.313   5.255  0.8793 -0.7786 -0.8613
  858MOL0     H13216  -1.020   6.383   5.083 -3.2824 -2.1489  0.7722
  858MOL0     H13217  -1.005   6.492   5.222  2.9401  0.6867  1.4022
  858MOL0     H13218  -1.232   6.379   5.130  1.6273 -0.7929 -1.0745
  858MOL0     H13219  -1.455   6.338   5.179  1.5828  1.4870  0.8011
  858MOL0     H13220  -1.697   6.125   5.691  0.2615  0.6061 -0.5002
  858MOL0     H13221  -1.923   6.060   5.746  1.1202 -1.7377  0.4351
  858MOL0     H13222  -2.198   5.988   5.465 -0.6015  1.9106  0.1099
  858MOL0     H13223  -2.216   6.089   5.604 -0.1092  0.9718 -3.8379
  858MOL0     H13224  -2.295   5.884   5.730  1.4725  1.7341 -0.1751
  858MOL0     H13225  -2.330   5.807   5.577  0.1645 -0.2413  0.3052
  858MOL0     H13226  -2.496   5.996   5.516  0.6755 -1.5154 -0.8324
  858MOL0     H13227  -2.449   6.077   5.671 -0.5775 -0.2925  0.6790
  858MOL0     H13228  -2.560   5.794   5.665 -2.9504 -0.8115 -0.1347
  858MOL0     H13229  -2.543   5.900   5.803 -2.6871 -0.0241  0.7174
  858MOL0     H13230  -2.724   5.919   5.569  0.9739  2.5366 -1.0972
  858MOL0     H13231  -2.700   6.065   5.668  0.7198 -0.3186  0.4670
  858MOL0     H13232  -2.761   5.916   5.874 -3.8496  0.9105  2.1629
  858MOL0     H13233  -2.787   5.786   5.757 -0.3414 -0.1334  2.4051
  858MOL0     H13234  -2.982   6.022   5.788 -1.2532 -1.2966 -0.4156
  858MOL0     H13235  -2.950   5.914   5.640 -0.2404  1.0361 -0.6461
  858MOL0     H13236  -3.013   5.723   5.789  0.6939  0.0583  0.2168
  858MOL0     H13237  -3.131   5.850   5.794  0.0699 -1.2968  0.0158
  858MOL0     H13238  -1.985   5.889   5.359 -0.8351 -0.5696  0.3796
  858MOL0     H13239  -1.766   5.955   5.299  2.1729  0.1018  0.6970
  858MOL0     H13240  -1.348   6.029   5.465 -1.1365 -1.3197 -1.3101
  858MOL0     H13241  -1.114   6.077   5.409 -0.9982  0.0166  0.1981
  858MOL0     H13242   0.643   6.758   4.562 -1.3574 -0.8394  0.4508
  858MOL0     H13243   0.868   6.767   4.648  1.5068  0.7192  0.4157
  858MOL0     H13244   1.170   6.824   4.932 -1.2097  2.1530 -0.2494
  858MOL0     H13245   1.399   6.727   4.931  1.5532  0.1045  0.5830
  858MOL0     H13246   1.713   6.971   4.791  0.0568  0.7248 -1.6626
  858MOL0     H13247   1.721   6.865   4.645  2.6767 -0.6125  0.7590
  858MOL0     H13248   1.928   6.869   4.774  0.2571  1.0106  1.0696
  858MOL0     H13249   1.854   6.796   4.917 -0.9645  0.1185 -0.2226
  858MOL0     H13250   1.849   6.661   4.642  0.2816 -1.1940 -0.6543
  858MOL0     H13251   1.799   6.585   4.789  2.4509 -2.0857 -1.0578
  858MOL0     H13252   2.082   6.693   4.753 -0.5094  0.2316 -0.6511
  858MOL0     H13253   2.028   6.599   4.891  2.4089 -0.4016 -0.0284
  858MOL0     H13254   2.124   6.301   4.617 -1.5447 -0.5551  0.3443
  858MOL0     H13255   1.517   7.018   4.636 -2.1567  0.3753 -1.4525
  858MOL0     H13256   1.305   7.102   4.624  1.7855 -1.1310 -1.5374
  859MOL0     O13257   5.451   0.152   1.489  0.3634  0.1346 -0.4375
  859MOL0     C13258   5.470   0.126   1.607  0.5372  0.4994 -0.6829
  859MOL0     O13259   5.375   0.060   1.679  0.8625 -0.5238 -0.4790
  859MOL0     C13260   5.244   0.081   1.639 -0.3337  0.3807 -0.5029
  859MOL0     C13261   5.183   0.188   1.706 -0.4736  0.7426 -0.2915
  859MOL0     C13262   5.045   0.202   1.689 -0.5676 -0.2772  0.0884
  859MOL0     C13263   4.972   0.109   1.607  0.1263 -0.1330  0.6240
  859MOL0     O13264   4.836   0.137   1.585  0.8595 -0.2769  0.2441
  859MOL0     C13265   4.747   0.021   1.602 -0.5198 -0.0552  0.2045
  859MOL0     C13266   4.614   0.067   1.567 -0.0050  0.1104 -0.1984
  859MOL0     C13267   4.548   0.143   1.684 -0.4587  0.0601  0.1555
  859MOL0     C13268   4.418   0.210   1.636  0.0622 -0.2132  0.5663
  859MOL0     C13269   4.323   0.220   1.747  0.4252  0.6398 -0.0684
  859MOL0     C13270   4.176   0.231   1.716  1.1869 -0.2477 -0.3269
  859MOL0     C13271   4.145   0.348   1.618  0.3940  0.6361 -0.3959
  859MOL0     C13272   3.991   0.356   1.591 -0.5648 -0.0587  0.9703
  859MOL0     N13273   3.904   0.398   1.700  0.3849 -0.8601  0.1005
  859MOL0     C13274   3.852   0.525   1.732  0.1160  0.7751 -0.0864
  859MOL0     C13275   3.757   0.497   1.825  0.0263  0.5671 -0.1254
  859MOL0     C13276   3.666   0.605   1.883 -0.6470  0.7941  0.2026
  859MOL0     C13277   3.524   0.591   1.826 -0.0350  0.0988 -0.4715
  859MOL0     C13278   3.408   0.649   1.899  1.0911 -0.1770 -0.7034
  859MOL0     C13279   3.436   0.807   1.905 -0.0730 -0.0034  0.1310
  859MOL0     O13280   3.434   0.867   1.779 -0.5357  0.6872 -0.5997
  859MOL0     C13281   3.327   0.873   1.701  0.5029  0.0892 -0.1011
  859MOL0     C13282   3.193   0.857   1.741  0.2355  0.6710  1.3391
  859MOL0     C13283   3.088   0.859   1.646 -0.3921 -0.1603 -1.0505
  859MOL0     C13284   3.115   0.882   1.509 -0.7491 -1.0053 -1.4627
  859MOL0     C13285   3.002   0.903   1.413  0.2818 -0.7249  0.3889
  859MOL0     O13286   3.029   0.913   1.279  0.2907 -0.6506  0.2399
  859MOL0     C13287   2.935   0.937   1.187 -0.4445 -0.4763  0.6413
  859MOL0     C13288   2.797   0.913   1.203 -0.3367  0.0448  0.4415
  859MOL0     C13289   2.707   0.953   1.106  0.8080 -0.3030 -0.1799
  859MOL0     C13290   2.748   1.001   0.980 -0.0067  0.3850  0.2407
  859MOL0     O13291   2.647   1.018   0.886  0.0742  0.0411 -0.4624
  859MOL0     C13292   2.669   1.028   0.750 -0.5349 -1.1746  0.6439
  859MOL0     C13293   2.683   1.174   0.723 -0.8183  0.3557  0.5835
  859MOL0     C13294   2.575   1.268   0.776  0.0695  0.2205  0.6019
  859MOL0     C13295   2.568   1.387   0.685  0.2159 -0.1529  0.5117
  859MOL0     C13296   2.447   1.484   0.707 -0.2225 -0.3317  0.4024
  859MOL0     C13297   2.311   1.409   0.678  0.7059 -0.6895 -0.3347
  859MOL0     C13298   2.191   1.512   0.673  0.4682 -0.2248 -0.0952
  859MOL0     C13299   2.065   1.443   0.625 -0.0270 -0.1855  0.0156
  859MOL0    Cl13300   1.944   1.572   0.600 -0.1906 -0.1592  0.0917
  859MOL0     C13301   2.883   1.029   0.959  1.5281 -0.1098 -0.6629
  859MOL0     C13302   2.974   1.004   1.064 -0.1107  0.4076  0.1253
  859MOL0     O13303   2.897   0.917   1.469 -0.0394 -0.3546  0.5089
  859MOL0     C13304   3.252   0.883   1.472  0.3485 -0.6030 -0.0747
  859MOL0     C13305   3.354   0.880   1.563 -0.7277  0.1223 -0.5871
  859MOL0     N13306   3.739   0.358   1.838  0.2646  0.2290 -0.4902
  859MOL0     N13307   3.822   0.302   1.768 -0.2410  0.0755 -0.6015
  859MOL0     C13308   5.041   0.013   1.547  0.5186 -0.7329  0.4021
  859MOL0     C13309   5.170  -0.006   1.562  0.3164  0.6718  0.1647
  859MOL0     C13310   5.600   0.149   1.673 -0.5931 -0.9154  0.0053
  859MOL0     C13311   5.617   0.129   1.814 -0.0735 -0.5251 -0.1713
  859MOL0     C13312   5.743   0.137   1.873 -0.2401  0.3686  0.1802
  859MOL0     C13313   5.858   0.169   1.797 -0.2697  0.1406 -0.4577
  859MOL0     O13314   5.983   0.184   1.856  0.7384 -0.0205 -0.3298
  859MOL0     C13315   6.102   0.162   1.779 -0.1285  0.0262  0.4725
  859MOL0     C13316   6.225   0.207   1.857  0.1812 -0.3670  0.4156
  859MOL0     C13317   6.262   0.132   1.989  0.1558 -0.4431 -0.2122
  859MOL0     C13318   6.219  -0.011   1.979 -0.3841  0.4681  0.1364
  859MOL0     C13319   6.288  -0.098   1.880  0.2384  0.2670  0.6135
  859MOL0     C13320   6.348  -0.170   1.799  0.7508 -0.3085  0.5353
  859MOL0     C13321   5.836   0.189   1.660 -0.6149 -0.0514  0.5170
  859MOL0     C13322   5.708   0.194   1.599 -0.2226  0.0319 -0.4241
  859MOL0     H13323   5.249   0.253   1.762 -0.0725 -1.4868  1.9667
  859MOL0     H13324   4.988   0.276   1.744  0.8002  0.2868  0.7853
  859MOL0     H13325   4.749  -0.020   1.703 -0.7481  3.3019  1.7018
  859MOL0     H13326   4.782  -0.051   1.527  3.4242  1.2024  0.5866
  859MOL0     H13327   4.550  -0.017   1.535 -1.7721  1.0299  0.7517
  859MOL0     H13328   4.612   0.135   1.481  0.1595 -1.0136 -1.1159
  859MOL0     H13329   4.606   0.227   1.724 -2.4984  0.7895  1.7612
  859MOL0     H13330   4.534   0.065   1.759  1.2088 -0.3932  0.0300
  859MOL0     H13331   4.439   0.303   1.582  1.5899 -0.2765  1.0127
  859MOL0     H13332   4.368   0.139   1.569 -1.2953 -0.0819  1.3992
  859MOL0     H13333   4.351   0.310   1.804  1.6449  1.9875 -2.5994
  859MOL0     H13334   4.337   0.133   1.812 -1.4306  2.4649  3.0310
  859MOL0     H13335   4.113   0.243   1.805  0.2284 -0.3217 -0.9767
  859MOL0     H13336   4.154   0.133   1.673  1.6516  0.4392 -2.2316
  859MOL0     H13337   4.185   0.437   1.668  0.0944  1.4769 -1.5772
  859MOL0     H13338   4.200   0.353   1.523  0.5575  2.9201 -0.2413
  859MOL0     H13339   3.959   0.259   1.553  1.7522 -0.3489 -0.4494
  859MOL0     H13340   3.976   0.443   1.526 -1.3758  1.1941  2.7783
  859MOL0     H13341   3.884   0.619   1.689 -0.0103  0.2548 -1.3513
  859MOL0     H13342   3.716   0.699   1.858 -0.4234  0.8168  0.7331
  859MOL0     H13343   3.675   0.607   1.992  1.9747 -0.5299  0.0861
  859MOL0     H13344   3.497   0.485   1.821 -1.4373  0.3831  0.4517
  859MOL0     H13345   3.518   0.619   1.721  3.9272 -1.5534 -1.3269
  859MOL0     H13346   3.312   0.623   1.854  1.7264  1.0838 -2.9352
  859MOL0     H13347   3.408   0.620   2.005 -1.3801 -1.9001 -1.0961
  859MOL0     H13348   3.520   0.839   1.966  0.1228 -1.3937  0.6295
  859MOL0     H13349   3.349   0.840   1.962 -0.0314  0.0954  0.1384
  859MOL0     H13350   3.177   0.838   1.846  1.1359  2.4485  1.8536
  859MOL0     H13351   2.991   0.834   1.688 -0.0301 -0.0049 -0.1001
  859MOL0     H13352   2.747   0.872   1.290  1.0866 -0.3543  1.0957
  859MOL0     H13353   2.602   0.945   1.134  0.8273  2.9255  1.2570
  859MOL0     H13354   2.591   0.996   0.681  0.6639  0.8945 -1.8183
  859MOL0     H13355   2.754   0.969   0.715  0.2995  1.0787 -1.3478
  859MOL0     H13356   2.681   1.174   0.614 -0.8891  1.3858  0.5802
  859MOL0     H13357   2.783   1.209   0.751 -0.8536  2.1749 -1.3160
  859MOL0     H13358   2.583   1.296   0.882 -1.9187  2.3401  0.2701
  859MOL0     H13359   2.478   1.218   0.779 -0.3276  0.9820  0.7653
  859MOL0     H13360   2.657   1.450   0.683  0.2805 -0.1102 -3.3224
  859MOL0     H13361   2.553   1.343   0.586 -1.6085  0.7954  0.3150
  859MOL0     H13362   2.455   1.573   0.645  0.8743 -0.6795  0.0203
  859MOL0     H13363   2.459   1.525   0.808 -1.1948  3.6462 -0.9136
  859MOL0     H13364   2.296   1.337   0.759  1.8641 -0.4314  0.1232
  859MOL0     H13365   2.314   1.355   0.583  1.7974 -2.0891  0.4597
  859MOL0     H13366   2.170   1.558   0.770  0.8708  0.6412 -0.4097
  859MOL0     H13367   2.222   1.597   0.612  1.1509 -0.7242 -0.4591
  859MOL0     H13368   2.043   1.359   0.691 -0.4135 -0.4937 -0.4878
  859MOL0     H13369   2.082   1.406   0.523 -0.4416 -1.8231  0.5158
  859MOL0     H13370   2.903   1.083   0.867 -0.4239  0.1832 -0.9629
  859MOL0     H13371   3.076   1.036   1.042 -0.2932  0.2092 -1.0533
  859MOL0     H13372   3.265   0.888   1.364 -2.4976  0.6497 -0.4471
  859MOL0     H13373   3.454   0.884   1.522 -1.0899 -0.2297 -1.5290
  859MOL0     H13374   4.983  -0.054   1.484  0.6277 -1.0536  0.6426
  859MOL0     H13375   5.218  -0.084   1.505 -0.3739  0.4294 -0.0866
  859MOL0     H13376   5.537   0.095   1.878 -2.0540  0.4236 -2.0351
  859MOL0     H13377   5.757   0.141   1.980 -1.9063  2.6500  0.3927
  859MOL0     H13378   6.094   0.213   1.682  1.2192 -1.8269 -0.6698
  859MOL0     H13379   6.106   0.056   1.753 -0.6156  0.0174  0.4217
  859MOL0     H13380   6.296   0.189   1.776 -2.9025 -2.3760 -2.0868
  859MOL0     H13381   6.228   0.315   1.870 -0.4709 -0.0141 -1.8331
  859MOL0     H13382   6.210   0.180   2.073 -0.3115 -1.2333 -0.0406
  859MOL0     H13383   6.369   0.120   2.010  0.6129 -1.0854 -2.5959
  859MOL0     H13384   6.242  -0.055   2.077  0.0818 -1.1364 -0.6680
  859MOL0     H13385   6.112  -0.014   1.959 -0.1390 -1.6043 -1.0868
  859MOL0     H13386   6.416  -0.227   1.739  2.2976  0.0516  1.8712
  859MOL0     H13387   5.919   0.202   1.592  0.0569 -1.0843  1.1090
  859MOL0     H13388   5.713   0.220   1.494  0.4843  1.2997 -0.1000
  860MOL0     O13389   3.933   5.637   6.775  0.5399  0.2027  0.2982
  860MOL0     C13390   4.005   5.574   6.695  0.1173 -0.3072  0.4132
  860MOL0     O13391   3.961   5.506   6.576  0.1368 -0.9263 -0.1329
  860MOL0     C13392   3.847   5.542   6.508  0.2499  0.3960  0.4174
  860MOL0     C13393   3.797   5.443   6.418  0.2277  0.2488  0.7206
  860MOL0     C13394   3.687   5.476   6.341 -0.3729 -0.5763  0.6344
  860MOL0     C13395   3.639   5.611   6.331  0.1418 -0.1623  0.6591
  860MOL0     O13396   3.545   5.642   6.237 -0.2363  0.0915  0.0660
  860MOL0     C13397   3.481   5.770   6.227  0.4187  0.9395  0.4984
  860MOL0     C13398   3.368   5.763   6.119 -0.9508  0.4428 -0.5237
  860MOL0     C13399   3.313   5.895   6.060 -0.4881 -0.0517 -0.4739
  860MOL0     C13400   3.199   5.862   5.956  0.0127  0.1587  0.1385
  860MOL0     C13401   3.156   5.993   5.897  0.4330 -0.4042 -0.1437
  860MOL0     C13402   3.044   5.972   5.789  0.0820 -0.9677 -0.4001
  860MOL0     C13403   3.035   6.106   5.714  0.3344  0.2173  0.6920
  860MOL0     C13404   2.893   6.129   5.659  0.7611 -0.6136  1.0018
  860MOL0     N13405   2.875   6.055   5.538  0.2355  0.6575 -0.0778
  860MOL0     C13406   2.793   5.940   5.516  0.5381 -0.1360 -0.7213
  860MOL0     C13407   2.783   5.931   5.379  0.0593 -0.0097  0.4607
  860MOL0     C13408   2.696   5.835   5.305 -0.1363  0.7066 -0.2820
  860MOL0     C13409   2.552   5.874   5.271  0.3339 -0.4962  0.0625
  860MOL0     C13410   2.469   5.904   5.399  0.7860 -0.7160  0.2473
  860MOL0     C13411   2.423   5.781   5.482  0.2244 -0.1619 -0.6717
  860MOL0     O13412   2.388   5.824   5.612 -0.2701 -0.6202  0.0720
  860MOL0     C13413   2.256   5.865   5.635  0.2128 -0.3216 -0.5118
  860MOL0     C13414   2.155   5.903   5.540  0.2816 -0.5871 -0.7338
  860MOL0     C13415   2.026   5.948   5.578 -0.4334 -0.3850 -0.0762
  860MOL0     C13416   1.994   5.950   5.714 -0.3784  0.2625 -1.0207
  860MOL0     C13417   1.876   6.019   5.771  0.2886 -0.6699 -0.4419
  860MOL0     O13418   1.776   6.061   5.683 -0.3075  0.6161 -0.2407
  860MOL0     C13419   1.677   6.146   5.706  0.2699  0.1437 -0.3635
  860MOL0     C13420   1.558   6.106   5.654  0.1033  0.4051 -0.2677
  860MOL0     C13421   1.442   6.188   5.656 -0.2986 -0.0983 -0.4030
  860MOL0     C13422   1.456   6.313   5.725 -0.0632  0.3354  0.9054
  860MOL0     O13423   1.351   6.393   5.764  0.2032  0.8704  0.0842
  860MOL0     C13424   1.214   6.358   5.746  1.7496 -0.9610 -0.0669
  860MOL0     C13425   1.116   6.471   5.775  0.7232 -0.3608 -0.1784
  860MOL0     C13426   0.981   6.419   5.765  0.7601  0.3982 -0.2071
  860MOL0     C13427   0.869   6.513   5.813  0.2235 -0.2701 -0.3065
  860MOL0     C13428   0.732   6.447   5.788 -0.3479  0.1534 -0.4032
  860MOL0     C13429   0.608   6.532   5.825 -0.8446 -0.0510  1.2841
  860MOL0     C13430   0.475   6.442   5.825 -0.1770  0.6651  1.0653
  860MOL0     C13431   0.358   6.497   5.902 -0.1967 -0.1652  0.1870
  860MOL0    Cl13432   0.313   6.653   5.824  0.1854  0.1269  0.6080
  860MOL0     C13433   1.584   6.345   5.784 -0.5578  0.0328  0.3677
  860MOL0     C13434   1.691   6.262   5.777 -0.2591  0.7127 -0.2723
  860MOL0     O13435   1.873   6.040   5.894  0.5326  0.0634 -0.4095
  860MOL0     C13436   2.092   5.908   5.810  0.2757  0.7475 -0.2694
  860MOL0     C13437   2.222   5.867   5.769 -0.6061  1.0243 -0.1489
  860MOL0     N13438   2.868   6.023   5.325  0.7299 -0.1433 -0.8735
  860MOL0     N13439   2.928   6.097   5.414 -0.1681  0.1747 -0.5532
  860MOL0     C13440   3.685   5.699   6.427  0.6265 -0.0189  0.6912
  860MOL0     C13441   3.788   5.668   6.509  1.2812 -0.3560 -0.0545
  860MOL0     C13442   4.140   5.540   6.734  0.5755  0.0503 -0.2277
  860MOL0     C13443   4.230   5.495   6.645 -0.3627 -0.3521 -0.0944
  860MOL0     C13444   4.362   5.470   6.684 -0.3598 -0.1689 -0.3604
  860MOL0     C13445   4.406   5.502   6.815  0.0395 -0.0270  0.0935
  860MOL0     O13446   4.528   5.456   6.841 -0.0578 -0.1679 -0.2091
  860MOL0     C13447   4.584   5.495   6.968 -0.1730  0.1282  0.9620
  860MOL0     C13448   4.733   5.457   6.974  0.1805 -0.3220  0.0662
  860MOL0     C13449   4.806   5.546   7.072  0.0260  0.4995 -0.4818
  860MOL0     C13450   4.947   5.504   7.108  0.1550 -0.0427  0.6745
  860MOL0     C13451   5.043   5.544   6.996  0.1280 -0.5468  0.9846
  860MOL0     C13452   5.113   5.568   6.901 -0.3521  0.1644 -0.2878
  860MOL0     C13453   4.318   5.547   6.910 -0.1509 -0.0996  0.2808
  860MOL0     C13454   4.186   5.571   6.864 -0.3022  0.5344  0.2842
  860MOL0     H13455   3.839   5.343   6.418 -2.6522 -1.1124 -1.0253
  860MOL0     H13456   3.655   5.401   6.270  3.1021 -0.1913 -1.5647
  860MOL0     H13457   3.544   5.853   6.194 -1.0183  1.6801 -0.4945
  860MOL0     H13458   3.430   5.795   6.320  0.7883 -0.1824  1.0305
  860MOL0     H13459   3.290   5.712   6.175 -0.3290 -1.1736 -1.0745
  860MOL0     H13460   3.413   5.701   6.041  2.9990  1.2885  0.8297
  860MOL0     H13461   3.394   5.949   6.011  0.3195 -2.0486 -1.4550
  860MOL0     H13462   3.270   5.950   6.144 -1.8612  1.1383 -1.8823
  860MOL0     H13463   3.242   5.795   5.880  1.2163 -0.3999  1.2622
  860MOL0     H13464   3.116   5.815   6.009 -0.3443 -0.3367 -0.8383
  860MOL0     H13465   3.240   6.039   5.843 -0.1135  0.3657 -0.3607
  860MOL0     H13466   3.118   6.062   5.973  1.7497  0.9850 -0.6842
  860MOL0     H13467   2.947   5.952   5.837  0.6315 -1.5146  0.5103
  860MOL0     H13468   3.082   5.896   5.720 -0.7122 -1.9483  0.2115
  860MOL0     H13469   3.049   6.185   5.788 -1.2356  0.7302  0.4838
  860MOL0     H13470   3.116   6.118   5.642 -0.6648 -0.7669 -0.6522
  860MOL0     H13471   2.880   6.234   5.632  0.0510 -1.0040 -0.2322
  860MOL0     H13472   2.821   6.107   5.738  0.8512 -2.6756  0.5631
  860MOL0     H13473   2.742   5.887   5.596 -1.6402 -1.7342 -3.0030
  860MOL0     H13474   2.685   5.743   5.363  1.5006 -0.4226 -1.6568
  860MOL0     H13475   2.746   5.803   5.213 -0.6855 -2.1065  0.3061
  860MOL0     H13476   2.498   5.802   5.210  2.1202 -1.2902 -0.6370
  860MOL0     H13477   2.557   5.966   5.212  1.4288  0.0136  0.8956
  860MOL0     H13478   2.516   5.984   5.456 -2.0279  2.0847 -1.0332
  860MOL0     H13479   2.390   5.973   5.367  0.6309 -0.8012  0.4402
  860MOL0     H13480   2.509   5.713   5.485  0.0218 -0.3846  2.1579
  860MOL0     H13481   2.337   5.731   5.435  0.6610 -1.4711 -0.1114
  860MOL0     H13482   2.177   5.904   5.433  1.5426  3.6545 -0.6242
  860MOL0     H13483   1.951   5.977   5.506  0.2859  0.6333 -0.4507
  860MOL0     H13484   1.567   6.006   5.612  1.8128  0.8365 -1.0045
  860MOL0     H13485   1.348   6.139   5.635  0.2243 -2.3745  2.0332
  860MOL0     H13486   1.195   6.275   5.813  2.9961 -2.2642 -1.2668
  860MOL0     H13487   1.189   6.329   5.643 -0.0989  0.9142 -0.2302
  860MOL0     H13488   1.129   6.560   5.712  0.0945 -0.3777 -0.3321
  860MOL0     H13489   1.136   6.509   5.876  0.2368  0.4309 -0.3659
  860MOL0     H13490   0.974   6.333   5.832 -1.8433  0.7351  0.0547
  860MOL0     H13491   0.953   6.381   5.666  0.5993 -1.4628  0.5096
  860MOL0     H13492   0.874   6.534   5.921 -0.6209  0.3960 -0.3806
  860MOL0     H13493   0.873   6.610   5.761  2.1353 -0.8365 -1.2765
  860MOL0     H13494   0.729   6.356   5.849 -0.5024 -1.9583 -3.3781
  860MOL0     H13495   0.728   6.405   5.687 -1.5610  0.0927 -0.3517
  860MOL0     H13496   0.595   6.604   5.744  0.9474 -0.4873  0.5747
  860MOL0     H13497   0.628   6.586   5.917  1.3167 -0.3510  1.0231
  860MOL0     H13498   0.440   6.409   5.726 -0.2313  2.6997  0.3513
  860MOL0     H13499   0.506   6.347   5.868  0.4051  0.2224 -0.2613
  860MOL0     H13500   0.385   6.511   6.007 -0.5934 -0.9050  0.3918
  860MOL0     H13501   0.275   6.426   5.900  1.0027 -1.5923 -1.1256
  860MOL0     H13502   1.593   6.440   5.836  0.5571  0.5794 -0.7665
  860MOL0     H13503   1.784   6.304   5.815 -1.3862  0.9288  2.4371
  860MOL0     H13504   2.081   5.893   5.917 -1.8541  1.0116 -0.3955
  860MOL0     H13505   2.301   5.831   5.834 -1.4040  1.3489  1.0358
  860MOL0     H13506   3.645   5.799   6.435 -0.6807 -0.4959  0.3870
  860MOL0     H13507   3.825   5.749   6.570  1.9803 -0.1711 -0.7038
  860MOL0     H13508   4.204   5.483   6.540  0.0252 -0.1080 -0.2233
  860MOL0     H13509   4.439   5.428   6.620 -0.1085 -1.5042  0.7722
  860MOL0     H13510   4.537   5.439   7.049  1.5398  0.5736  2.3168
  860MOL0     H13511   4.572   5.603   6.976 -2.9973  0.7680 -5.3053
  860MOL0     H13512   4.728   5.351   7.004 -1.2817 -1.1740 -2.7850
  860MOL0     H13513   4.783   5.458   6.877  1.6418 -4.0760  0.5816
  860MOL0     H13514   4.758   5.542   7.170  0.5421  0.0405 -0.2450
  860MOL0     H13515   4.810   5.647   7.031  0.4792  0.2928 -0.9552
  860MOL0     H13516   4.983   5.568   7.189  2.3766 -0.4078  0.0475
  860MOL0     H13517   4.952   5.395   7.124 -0.3236 -0.8429 -3.4373
  860MOL0     H13518   5.177   5.590   6.817 -1.2817  1.2631 -0.7300
  860MOL0     H13519   4.351   5.557   7.013 -0.7128  1.1339  0.3566
  860MOL0     H13520   4.116   5.613   6.936  0.2322 -1.5328  2.1408
  861MOL0     O13521   0.241   2.083   0.496 -0.0295 -0.8276  0.0572
  861MOL0     C13522   0.228   1.964   0.476 -0.5366 -0.6436 -0.5694
  861MOL0     O13523   0.329   1.875   0.456  0.7165  0.2086  0.4179
  861MOL0     C13524   0.447   1.928   0.429  0.3681  0.6261  0.6480
  861MOL0     C13525   0.534   1.973   0.531  0.6538  0.5804 -0.2969
  861MOL0     C13526   0.658   2.014   0.492  0.2946  0.0412  0.0961
  861MOL0     C13527   0.704   2.009   0.361 -0.3502  0.5290 -0.1569
  861MOL0     O13528   0.831   2.044   0.344 -0.0090  0.5781 -0.0634
  861MOL0     C13529   0.879   2.060   0.211 -0.4025  0.6226  0.4427
  861MOL0     C13530   1.004   2.154   0.229  1.1134  0.9028  0.2026
  861MOL0     C13531   1.139   2.083   0.256 -0.2195  0.5864  0.8099
  861MOL0     C13532   1.240   2.193   0.260  0.3557  0.5457  0.4074
  861MOL0     C13533   1.385   2.140   0.286 -0.2440 -0.2860  0.0982
  861MOL0     C13534   1.424   2.117   0.434 -0.6316  1.0920 -0.0789
  861MOL0     C13535   1.393   2.222   0.541 -0.2760 -0.1627 -0.3631
  861MOL0     C13536   1.470   2.354   0.512 -0.3919  0.0062 -0.5391
  861MOL0     N13537   1.609   2.354   0.555  0.4726  0.9374 -0.0917
  861MOL0     C13538   1.709   2.301   0.480 -0.4887 -0.6135 -0.9059
  861MOL0     C13539   1.818   2.308   0.565  0.0060 -0.8955  0.2150
  861MOL0     C13540   1.957   2.245   0.547  0.5400 -0.4839 -0.1266
  861MOL0     C13541   2.031   2.356   0.462 -0.1541  0.9351 -1.1847
  861MOL0     C13542   2.169   2.319   0.410 -0.7566 -0.7024 -0.2749
  861MOL0     C13543   2.254   2.439   0.366 -0.7169  0.2355 -0.5960
  861MOL0     O13544   2.384   2.396   0.331 -0.2707 -0.9276 -0.1128
  861MOL0     C13545   2.470   2.363   0.441  0.4478  0.7359 -0.0521
  861MOL0     C13546   2.595   2.308   0.404 -0.2535  0.1792 -0.4821
  861MOL0     C13547   2.692   2.289   0.503 -1.2342  0.3957  0.4482
  861MOL0     C13548   2.655   2.304   0.641 -1.0256  0.0345  0.2402
  861MOL0     C13549   2.759   2.282   0.749 -0.6070  0.0253  0.2651
  861MOL0     O13550   2.725   2.292   0.878 -1.2280  0.4499 -0.7628
  861MOL0     C13551   2.831   2.267   0.972 -1.1896  1.2947 -0.3283
  861MOL0     C13552   2.832   2.154   1.057 -0.1290  0.0578  0.0773
  861MOL0     C13553   2.956   2.134   1.128  0.2016  0.3672 -0.4250
  861MOL0     C13554   3.069   2.215   1.115 -0.0159  0.4317 -0.0570
  861MOL0     O13555   3.178   2.173   1.190  0.5452 -0.2652 -0.2406
  861MOL0     C13556   3.286   2.259   1.198  0.3290 -0.3172  0.2582
  861MOL0     C13557   3.390   2.202   1.293 -1.0574 -0.1290  0.2609
  861MOL0     C13558   3.511   2.298   1.300  0.2247  0.9705  0.0537
  861MOL0     C13559   3.637   2.219   1.331 -0.4652  0.0573  0.0205
  861MOL0     C13560   3.750   2.316   1.394  0.3523 -0.4511  0.2794
  861MOL0     C13561   3.846   2.387   1.288 -0.5501  0.5801 -0.8500
  861MOL0     C13562   3.957   2.284   1.252  0.2897 -0.2430  0.1824
  861MOL0     C13563   4.045   2.327   1.132  0.0197  0.4248 -0.3324
  861MOL0    Cl13564   4.148   2.192   1.075  0.2369 -0.0597 -0.0737
  861MOL0     C13565   3.063   2.329   1.036  0.6718  0.1017  0.1809
  861MOL0     C13566   2.942   2.359   0.974  0.1416  0.2020  0.0378
  861MOL0     O13567   2.873   2.250   0.717 -0.1114  0.6078  0.3252
  861MOL0     C13568   2.527   2.354   0.671 -0.3666  0.7212  0.5222
  861MOL0     C13569   2.433   2.376   0.577 -0.4201 -0.4326  0.2508
  861MOL0     N13570   1.772   2.364   0.690  0.5460  0.4526 -0.1966
  861MOL0     N13571   1.652   2.392   0.681 -0.0395  0.4690  1.1014
  861MOL0     C13572   0.618   1.946   0.266 -0.7440 -0.6248  0.1538
  861MOL0     C13573   0.486   1.921   0.294 -0.2505  0.5955 -0.9419
  861MOL0     C13574   0.087   1.918   0.467 -0.7160 -0.4195  0.4401
  861MOL0     C13575   0.052   1.784   0.485 -0.3708 -0.6646  0.1305
  861MOL0     C13576  -0.088   1.745   0.480  0.7240 -0.7227  0.3305
  861MOL0     C13577  -0.185   1.834   0.443 -1.0530 -0.3236  0.8321
  861MOL0     O13578  -0.311   1.798   0.424  0.4101 -0.8500  0.7258
  861MOL0     C13579  -0.383   1.731   0.526  0.0821  0.6700 -0.2812
  861MOL0     C13580  -0.426   1.598   0.464 -0.5597  1.0914 -0.0163
  861MOL0     C13581  -0.520   1.512   0.551  0.0924 -0.5851 -0.4155
  861MOL0     C13582  -0.654   1.584   0.584 -0.0572  0.3678 -1.4203
  861MOL0     C13583  -0.734   1.509   0.687 -0.1616  0.3498  0.9089
  861MOL0     C13584  -0.790   1.441   0.768 -0.0210 -0.3497 -0.3829
  861MOL0     C13585  -0.148   1.963   0.425 -0.3539  0.2335 -0.1485
  861MOL0     C13586  -0.015   2.008   0.442 -1.1582 -0.1242  0.8853
  861MOL0     H13587   0.519   1.977   0.638  0.7953  1.4195 -0.3067
  861MOL0     H13588   0.725   2.063   0.562  0.8938  1.0219 -1.1119
  861MOL0     H13589   0.803   2.099   0.143 -2.1794  0.1286  2.0589
  861MOL0     H13590   0.913   1.964   0.170  1.7788  1.5536 -0.1106
  861MOL0     H13591   0.990   2.225   0.311 -1.0441  0.9246 -0.1396
  861MOL0     H13592   1.007   2.209   0.134  1.5456 -0.7309 -0.7639
  861MOL0     H13593   1.168   2.007   0.183 -3.6399  1.2742 -1.4651
  861MOL0     H13594   1.139   2.045   0.359 -0.4458 -0.5968  0.3950
  861MOL0     H13595   1.231   2.243   0.163  1.9840  1.3618  0.6519
  861MOL0     H13596   1.214   2.268   0.335  0.9237  2.2736 -1.0589
  861MOL0     H13597   1.454   2.220   0.259  0.4346 -0.7062  0.5482
  861MOL0     H13598   1.421   2.054   0.228 -1.8475 -0.8219 -0.1634
  861MOL0     H13599   1.532   2.103   0.439 -0.5230  1.6680 -0.6825
  861MOL0     H13600   1.380   2.025   0.474  1.1244 -0.3863 -1.3247
  861MOL0     H13601   1.287   2.236   0.563 -0.2637 -1.7533  0.8121
  861MOL0     H13602   1.424   2.179   0.636  1.1608 -0.6712 -1.0188
  861MOL0     H13603   1.418   2.429   0.572  0.6040  0.5944 -0.3936
  861MOL0     H13604   1.462   2.371   0.404  2.4808 -2.6599 -1.3040
  861MOL0     H13605   1.707   2.249   0.385 -1.8512 -1.9113 -0.2101
  861MOL0     H13606   1.941   2.155   0.486  1.5347 -1.2446  0.7154
  861MOL0     H13607   2.002   2.227   0.644  2.8164 -0.8761 -1.1842
  861MOL0     H13608   2.054   2.437   0.532  6.8349 -0.2106 -1.4536
  861MOL0     H13609   1.959   2.395   0.389 -0.4150 -1.8313 -2.5261
  861MOL0     H13610   2.224   2.264   0.486  1.8193 -0.7251 -2.0281
  861MOL0     H13611   2.163   2.254   0.322  4.1841  1.3177 -2.4546
  861MOL0     H13612   2.271   2.524   0.433  2.5146  1.4508 -2.7333
  861MOL0     H13613   2.213   2.488   0.278  1.1430 -0.5301 -1.9499
  861MOL0     H13614   2.622   2.285   0.301  1.6318  2.6115 -0.6205
  861MOL0     H13615   2.795   2.264   0.480 -1.6672  0.4811 -1.8420
  861MOL0     H13616   2.741   2.095   1.063 -1.5071  2.2371  2.3397
  861MOL0     H13617   2.964   2.043   1.187 -0.8396 -0.4350 -1.4779
  861MOL0     H13618   3.252   2.351   1.247 -0.0413  0.9967 -2.2658
  861MOL0     H13619   3.343   2.269   1.104  0.6705  1.3784  0.6102
  861MOL0     H13620   3.425   2.111   1.242  0.5959  1.1649 -1.0382
  861MOL0     H13621   3.347   2.175   1.390 -1.7146 -2.1273 -0.5365
  861MOL0     H13622   3.490   2.373   1.377 -0.9691  0.8949 -0.1868
  861MOL0     H13623   3.536   2.346   1.205  1.2720  1.2086  0.4323
  861MOL0     H13624   3.625   2.134   1.399 -0.2137  0.1028  0.1252
  861MOL0     H13625   3.677   2.164   1.245 -2.4731  0.3295 -1.1557
  861MOL0     H13626   3.818   2.261   1.459 -0.9203 -0.7453  1.4100
  861MOL0     H13627   3.694   2.396   1.443 -1.0626  1.1626 -3.5751
  861MOL0     H13628   3.887   2.482   1.321  0.5532 -0.1288 -0.1404
  861MOL0     H13629   3.795   2.411   1.194  2.1596  1.6423 -2.1381
  861MOL0     H13630   4.030   2.275   1.333 -0.0645 -2.4645  0.3345
  861MOL0     H13631   3.909   2.188   1.231 -1.3299  0.1864  1.6334
  861MOL0     H13632   4.120   2.402   1.156  1.9229 -0.6798 -2.5083
  861MOL0     H13633   3.970   2.358   1.058  1.1003  3.5521 -0.2369
  861MOL0     H13634   3.142   2.403   1.031 -0.4579  1.4476  1.1048
  861MOL0     H13635   2.925   2.453   0.923  0.1004  0.3212  0.2682
  861MOL0     H13636   2.499   2.375   0.774  1.0460 -0.5763  1.2047
  861MOL0     H13637   2.338   2.415   0.613 -1.4383  1.3369 -3.6980
  861MOL0     H13638   0.658   1.919   0.170 -1.3048  0.6370 -0.4574
  861MOL0     H13639   0.427   1.870   0.219  0.4632 -0.4221 -0.8426
  861MOL0     H13640   0.126   1.711   0.514  2.1174  0.4392 -2.8059
  861MOL0     H13641  -0.112   1.642   0.506  0.1570  0.1433  3.7396
  861MOL0     H13642  -0.472   1.780   0.567  0.4792 -0.6933  2.4422
  861MOL0     H13643  -0.321   1.729   0.616 -2.7529 -0.4317  1.7890
  861MOL0     H13644  -0.479   1.633   0.375 -1.8815  1.3163  0.8235
  861MOL0     H13645  -0.337   1.536   0.453 -0.6500  0.8092  0.7324
  861MOL0     H13646  -0.470   1.493   0.647 -0.7567  4.8014  1.4617
  861MOL0     H13647  -0.538   1.411   0.515 -2.4367 -0.2682 -0.2191
  861MOL0     H13648  -0.646   1.687   0.619 -1.9609  0.5963 -1.5847
  861MOL0     H13649  -0.709   1.593   0.490  2.8542  1.3591 -3.1685
  861MOL0     H13650  -0.846   1.385   0.840 -0.4589  1.4257  0.7242
  861MOL0     H13651  -0.207   2.043   0.382 -2.4021 -1.9342 -1.6563
  861MOL0     H13652  -0.004   2.114   0.420  1.7392 -0.5240  0.0081
  862MOL0     O13653   1.589   2.666   7.990  0.5862  0.2506 -0.3689
  862MOL0     C13654   1.620   2.784   8.004 -0.7267  0.7967  0.2986
  862MOL0     O13655   1.538   2.890   8.014 -0.1582 -0.5981  0.3187
  862MOL0     C13656   1.406   2.879   8.034 -0.5615  0.4366  0.8228
  862MOL0     C13657   1.347   2.795   8.131 -0.3062 -0.9544 -0.3913
  862MOL0     C13658   1.210   2.795   8.147  0.2471  0.3832 -0.4398
  862MOL0     C13659   1.136   2.885   8.076 -0.1155  0.2494 -0.3891
  862MOL0     O13660   0.999   2.872   8.090 -0.0251 -1.2403 -0.4630
  862MOL0     C13661   0.914   2.900   7.968  0.5501 -1.0707  0.5463
  862MOL0     C13662   0.774   2.846   7.994 -1.2239 -0.7086  0.1397
  862MOL0     C13663   0.699   2.936   8.102  0.4046  0.7095 -0.1460
  862MOL0     C13664   0.637   3.070   8.064  0.0864 -0.1384 -0.3137
  862MOL0     C13665   0.525   3.119   8.166 -0.1872  0.0243  0.6994
  862MOL0     C13666   0.392   3.053   8.155 -1.2667 -0.6937  0.1168
  862MOL0     C13667   0.284   3.130   8.223  0.9145 -0.1740  0.0088
  862MOL0     C13668   0.148   3.077   8.174  0.6069  0.2628 -0.6668
  862MOL0     N13669   0.048   3.127   8.272 -0.4989 -0.9253  0.3033
  862MOL0     C13670   0.002   3.256   8.260  0.0084  0.6494  0.7855
  862MOL0     C13671  -0.095   3.258   8.356 -0.4630  1.0311  0.2781
  862MOL0     C13672  -0.182   3.373   8.398  0.5427  0.0048  0.4886
  862MOL0     C13673  -0.119   3.515   8.357 -0.3229 -0.6773 -0.7969
  862MOL0     C13674   0.014   3.536   8.434  0.6003 -0.1064 -0.3802
  862MOL0     C13675   0.100   3.627   8.353  0.2866 -0.2098 -1.0568
  862MOL0     O13676   0.169   3.562   8.246 -0.1630 -0.7498 -0.0204
  862MOL0     C13677   0.298   3.528   8.261 -0.3940  0.0244  0.6538
  862MOL0     C13678   0.344   3.458   8.368  0.3248  0.5088 -0.5803
  862MOL0     C13679   0.472   3.416   8.384  0.9063  0.1869 -0.1299
  862MOL0     C13680   0.570   3.471   8.301 -0.2023  0.6178 -0.4703
  862MOL0     C13681   0.718   3.444   8.330  0.7170 -0.2275  0.4919
  862MOL0     O13682   0.747   3.345   8.411  0.6434  0.5727  0.2529
  862MOL0     C13683   0.879   3.305   8.423 -0.2574 -0.0648  0.0101
  862MOL0     C13684   0.913   3.174   8.375 -0.6487  0.6762 -0.1680
  862MOL0     C13685   1.045   3.130   8.380  0.4159  0.1120 -0.2513
  862MOL0     C13686   1.139   3.212   8.442  0.0237  0.4381 -0.6541
  862MOL0     O13687   1.267   3.163   8.454 -0.0827  0.5808 -0.2488
  862MOL0     C13688   1.318   3.115   8.324 -0.7060  0.6553 -0.0942
  862MOL0     C13689   1.449   3.196   8.291 -0.4864  0.2853  0.6160
  862MOL0     C13690   1.566   3.151   8.369 -0.3679  0.2452  0.5788
  862MOL0     C13691   1.694   3.196   8.305  0.0328  0.7310  0.5265
  862MOL0     C13692   1.821   3.117   8.361  0.9194  0.3740 -0.2486
  862MOL0     C13693   1.939   3.187   8.310 -0.7769  0.1113  0.7424
  862MOL0     C13694   2.066   3.132   8.368  0.2429  0.1505 -0.4064
  862MOL0     C13695   2.185   3.217   8.344  0.7655 -0.5904  0.4809
  862MOL0    Cl13696   2.344   3.140   8.410 -0.0630  0.0192  0.0782
  862MOL0     C13697   1.107   3.340   8.478 -0.6282 -0.9313 -0.1179
  862MOL0     C13698   0.980   3.388   8.470  0.3135 -0.1384  0.7044
  862MOL0     O13699   0.796   3.522   8.271  0.2316 -0.2598  0.0141
  862MOL0     C13700   0.530   3.546   8.189 -0.6597 -0.2606  0.0644
  862MOL0     C13701   0.398   3.578   8.170 -0.1470  1.0752  0.0431
  862MOL0     N13702  -0.112   3.135   8.401 -0.0587 -0.0751  0.6350
  862MOL0     N13703  -0.032   3.052   8.352 -0.6392 -0.2869  0.9381
  862MOL0     C13704   1.193   2.975   7.979  0.6418  0.2502 -0.1437
  862MOL0     C13705   1.324   2.969   7.957  0.0468  0.6514  0.6588
  862MOL0     C13706   1.766   2.817   8.007  1.0758 -0.8606 -0.2440
  862MOL0     C13707   1.861   2.722   8.039 -0.3944 -0.1602 -0.5566
  862MOL0     C13708   1.990   2.756   8.058  0.3545 -0.5388  0.0670
  862MOL0     C13709   2.035   2.891   8.047  0.2665  0.3605  0.4791
  862MOL0     O13710   2.163   2.929   8.073  0.8839 -0.3043 -0.0888
  862MOL0     C13711   2.260   2.831   8.112 -0.3151  0.0652 -0.0442
  862MOL0     C13712   2.396   2.900   8.139  0.8186 -0.3199  0.2914
  862MOL0     C13713   2.505   2.857   8.243  0.2419 -0.5839 -0.1203
  862MOL0     C13714   2.625   2.951   8.235  0.6052  0.5986  0.2328
  862MOL0     C13715   2.734   2.894   8.310  0.2229  0.0533  0.6063
  862MOL0     C13716   2.817   2.842   8.380 -0.5250  0.4781 -0.5776
  862MOL0     C13717   1.942   2.993   8.006  0.1315  1.3019  0.0227
  862MOL0     C13718   1.810   2.956   7.989 -0.1694 -0.0013  0.4341
  862MOL0     H13719   1.412   2.729   8.187  0.0760  2.2908  3.3799
  862MOL0     H13720   1.169   2.716   8.210  1.2506 -1.4787 -2.0021
  862MOL0     H13721   0.958   2.844   7.886  1.0265 -0.3704  0.3131
  862MOL0     H13722   0.900   3.006   7.944 -0.6273 -1.2535  0.3677
  862MOL0     H13723   0.788   2.744   8.029 -0.0832 -1.2913 -1.8598
  862MOL0     H13724   0.720   2.850   7.899 -0.2326 -0.2652 -0.4266
  862MOL0     H13725   0.756   2.948   8.195 -3.8467 -0.2501  2.8824
  862MOL0     H13726   0.618   2.865   8.120  1.3266 -0.4703 -0.4912
  862MOL0     H13727   0.710   3.150   8.051 -0.5819  0.3286 -1.3945
  862MOL0     H13728   0.598   3.053   7.963  1.8252  1.1391 -1.2555
  862MOL0     H13729   0.508   3.223   8.136 -0.2642 -0.0291  0.5536
  862MOL0     H13730   0.566   3.119   8.267 -0.6426  0.1878  0.8899
  862MOL0     H13731   0.388   2.955   8.205  0.8466 -0.1970  1.4017
  862MOL0     H13732   0.381   3.031   8.048 -0.6797 -0.6121  0.0386
  862MOL0     H13733   0.296   3.109   8.329  1.5590  0.5664  0.0905
  862MOL0     H13734   0.280   3.239   8.213  0.3545 -0.2229 -0.3674
  862MOL0     H13735   0.154   2.968   8.175  1.5247  0.2925  0.8479
  862MOL0     H13736   0.130   3.111   8.072 -2.6512 -0.2614 -0.3604
  862MOL0     H13737   0.029   3.342   8.200 -0.0878  1.2171  1.5425
  862MOL0     H13738  -0.210   3.370   8.504  1.2446  2.5412  0.8146
  862MOL0     H13739  -0.276   3.362   8.344  0.7347 -0.5897  0.2712
  862MOL0     H13740  -0.188   3.590   8.396  2.8264  3.0396 -1.8605
  862MOL0     H13741  -0.105   3.514   8.249  1.8141 -0.2026 -0.5723
  862MOL0     H13742  -0.011   3.593   8.523 -0.5406 -0.2188 -0.6166
  862MOL0     H13743   0.062   3.443   8.466  0.2379 -0.5498 -1.0877
  862MOL0     H13744   0.168   3.684   8.417 -0.0225  0.7979 -1.5907
  862MOL0     H13745   0.043   3.708   8.306  2.4608  2.5613  0.7739
  862MOL0     H13746   0.273   3.418   8.440 -1.3092 -0.5683 -2.6554
  862MOL0     H13747   0.503   3.361   8.472  2.4352 -0.2480 -0.9054
  862MOL0     H13748   0.834   3.122   8.320  1.0070  1.5279 -3.6176
  862MOL0     H13749   1.072   3.029   8.351  3.1801  0.3199  1.3137
  862MOL0     H13750   1.260   3.132   8.232 -1.4990  3.4671  0.8324
  862MOL0     H13751   1.354   3.012   8.317  1.2583  1.2290  0.9367
  862MOL0     H13752   1.427   3.302   8.300  0.7793  0.7225 -0.9229
  862MOL0     H13753   1.474   3.167   8.189  0.0981 -1.9178  1.3262
  862MOL0     H13754   1.548   3.044   8.382 -2.2654  0.4977  0.3346
  862MOL0     H13755   1.565   3.199   8.468 -0.0618 -0.4802  0.9404
  862MOL0     H13756   1.689   3.191   8.196 -2.7314 -2.3278  0.6393
  862MOL0     H13757   1.708   3.302   8.328  1.7421  0.4335  1.0466
  862MOL0     H13758   1.807   3.010   8.343 -5.4572  0.7477  0.1261
  862MOL0     H13759   1.820   3.132   8.470 -3.3631  0.2017 -0.0733
  862MOL0     H13760   1.927   3.292   8.337 -2.2704  0.1559 -0.0538
  862MOL0     H13761   1.936   3.173   8.202  0.4056 -0.6759  0.7926
  862MOL0     H13762   2.069   3.123   8.477  4.7952 -1.5606 -0.4431
  862MOL0     H13763   2.085   3.029   8.335  1.8340  1.0433 -2.4852
  862MOL0     H13764   2.174   3.314   8.392 -3.7801  0.9118 -2.8786
  862MOL0     H13765   2.210   3.245   8.241  1.3134 -1.4131  0.3796
  862MOL0     H13766   1.189   3.404   8.511  0.3401 -1.2480 -1.7799
  862MOL0     H13767   0.959   3.493   8.485 -0.5479  0.0656 -1.4799
  862MOL0     H13768   0.612   3.563   8.120  1.9756 -0.3897  2.9483
  862MOL0     H13769   0.369   3.622   8.075 -1.8534  2.5339  1.1828
  862MOL0     H13770   1.135   3.051   7.929 -0.4084  1.9837  3.4107
  862MOL0     H13771   1.378   3.038   7.893  1.8138 -1.8774 -0.7830
  862MOL0     H13772   1.831   2.619   8.052  0.8816 -0.4541  0.2774
  862MOL0     H13773   2.042   2.681   8.117  2.6267  1.1898  0.4237
  862MOL0     H13774   2.263   2.756   8.032 -2.8688 -2.2979  1.8712
  862MOL0     H13775   2.219   2.779   8.199 -0.8214 -0.4141 -0.5551
  862MOL0     H13776   2.455   2.901   8.047  3.5450 -4.4364  1.6928
  862MOL0     H13777   2.376   3.004   8.166 -1.0396 -0.9421  1.5237
  862MOL0     H13778   2.533   2.759   8.204  1.1503 -0.6868  0.7605
  862MOL0     H13779   2.468   2.854   8.346 -2.4245  1.4107 -0.8919
  862MOL0     H13780   2.662   2.961   8.132  0.6278 -0.5165  0.1209
  862MOL0     H13781   2.612   3.048   8.283 -0.7979  0.2483  0.6045
  862MOL0     H13782   2.878   2.810   8.462  1.4563 -0.4383 -2.3149
  862MOL0     H13783   1.979   3.094   7.995  0.0095  1.1966 -1.5297
  862MOL0     H13784   1.736   3.033   7.970  0.2321 -0.2823 -2.7543
  863MOL0     O13785   5.898   4.538  10.750 -0.4678 -0.8262  0.0212
  863MOL0     C13786   5.858   4.469  10.656  0.1072  0.9723  0.9300
  863MOL0     O13787   5.730   4.427  10.633  0.0286  0.0355 -0.3262
  863MOL0     C13788   5.638   4.419  10.733  0.0195 -0.2920 -0.4209
  863MOL0     C13789   5.662   4.429  10.872 -0.7930 -0.2775 -0.4621
  863MOL0     C13790   5.562   4.442  10.970  0.2245 -0.4923  0.3493
  863MOL0     C13791   5.432   4.438  10.927  0.7472  0.0572  0.2680
  863MOL0     O13792   5.333   4.449  11.019  0.8692 -0.1918  0.4050
  863MOL0     C13793   5.249   4.326  11.035 -0.5640 -0.0167 -0.4097
  863MOL0     C13794   5.092   4.352  11.047 -0.0487  0.3113 -0.2133
  863MOL0     C13795   5.009   4.384  10.921  0.8888  0.4393 -1.1207
  863MOL0     C13796   4.860   4.359  10.931 -0.5063  0.3618 -0.1500
  863MOL0     C13797   4.772   4.397  10.811 -0.5292  0.4946  0.3332
  863MOL0     C13798   4.624   4.379  10.844  0.0305  0.4186  0.1549
  863MOL0     C13799   4.520   4.386  10.726  0.9556  0.3292 -0.9753
  863MOL0     C13800   4.377   4.375  10.788 -0.2659 -0.2456 -0.1025
  863MOL0     N13801   4.286   4.329  10.676  0.7083  0.3749  0.3658
  863MOL0     C13802   4.222   4.420  10.588 -0.8003  0.5556 -0.7204
  863MOL0     C13803   4.169   4.334  10.502  0.3608 -0.2396 -0.4230
  863MOL0     C13804   4.109   4.375  10.374  0.1083  0.6686 -0.1256
  863MOL0     C13805   4.006   4.264  10.326  0.8765 -0.7724 -0.4521
  863MOL0     C13806   3.874   4.266  10.408  0.7510 -0.7328  0.0390
  863MOL0     C13807   3.800   4.134  10.408 -0.1066  0.3003  0.3067
  863MOL0     O13808   3.669   4.155  10.472  0.4556  0.0698  0.3094
  863MOL0     C13809   3.564   4.180  10.389 -0.0890 -0.9190 -0.1664
  863MOL0     C13810   3.442   4.156  10.454  0.4428  0.9429 -0.7396
  863MOL0     C13811   3.319   4.193  10.393  0.8484  0.8673 -0.2438
  863MOL0     C13812   3.319   4.235  10.263 -0.5177 -1.0729  0.0007
  863MOL0     C13813   3.197   4.285  10.195 -0.2927  0.3061 -0.1564
  863MOL0     O13814   3.086   4.265  10.266  0.0228  0.6279  0.0504
  863MOL0     C13815   2.972   4.330  10.217  0.0871  1.0677 -0.6385
  863MOL0     C13816   2.968   4.468  10.177  0.1464 -0.0941  0.5190
  863MOL0     C13817   2.852   4.522  10.124  0.0962 -0.1722 -0.1505
  863MOL0     C13818   2.731   4.455  10.119  0.3816 -0.8926  0.2503
  863MOL0     O13819   2.611   4.522  10.090 -0.1865  0.1295 -0.5563
  863MOL0     C13820   2.486   4.473  10.129  0.4110 -0.1318  0.4410
  863MOL0     C13821   2.377   4.576  10.091  1.0741  0.4733  0.2562
  863MOL0     C13822   2.250   4.494  10.049  0.9117  0.7646 -0.2889
  863MOL0     C13823   2.211   4.397  10.157  0.3809  0.5514 -0.3086
  863MOL0     C13824   2.086   4.304  10.128 -0.0311 -0.1821 -0.2595
  863MOL0     C13825   1.972   4.394  10.087 -0.1741 -0.2027  0.3991
  863MOL0     C13826   1.834   4.336  10.084 -1.0521 -0.5111 -0.3955
  863MOL0     C13827   1.734   4.448  10.067 -0.1544 -0.6370 -0.1681
  863MOL0    Cl13828   1.569   4.377  10.030  0.1342 -0.2662 -0.2264
  863MOL0     C13829   2.730   4.321  10.169 -0.1237 -0.3853 -0.1762
  863MOL0     C13830   2.848   4.263  10.212 -0.2384  0.7579 -0.3115
  863MOL0     O13831   3.205   4.318  10.070  0.1511 -0.0844 -0.9638
  863MOL0     C13832   3.443   4.245  10.194  0.1753 -0.2902 -0.0726
  863MOL0     C13833   3.567   4.210  10.255  0.0330 -0.1260  0.2436
  863MOL0     N13834   4.190   4.206  10.550 -0.0283 -0.6701 -0.1458
  863MOL0     N13835   4.277   4.202  10.640  0.4167  1.0986  0.0050
  863MOL0     C13836   5.402   4.439  10.794  0.3194 -0.0036  0.5297
  863MOL0     C13837   5.503   4.425  10.697  1.1799  0.2141  0.1266
  863MOL0     C13838   5.952   4.433  10.550 -0.4243 -0.0257 -0.7630
  863MOL0     C13839   5.919   4.344  10.443 -0.6495 -0.7242 -0.6809
  863MOL0     C13840   6.014   4.310  10.351  0.3116  0.2363  0.4501
  863MOL0     C13841   6.140   4.375  10.348  0.5789  0.0100 -0.1831
  863MOL0     O13842   6.227   4.349  10.241  0.8176 -0.3260 -0.7278
  863MOL0     C13843   6.301   4.228  10.267 -0.5282 -0.1823 -0.0468
  863MOL0     C13844   6.435   4.265  10.334 -0.0271 -0.8450  0.2446
  863MOL0     C13845   6.514   4.139  10.353  0.3407  0.0440 -0.0335
  863MOL0     C13846   6.654   4.190  10.405 -0.0281  0.2032 -0.5472
  863MOL0     C13847   6.745   4.218  10.291  0.1130  1.0133 -0.3706
  863MOL0     C13848   6.824   4.232  10.198  0.1753 -0.2182 -0.2118
  863MOL0     C13849   6.169   4.472  10.443  0.2093  1.0328  0.0810
  863MOL0     C13850   6.076   4.499  10.544  0.9950  0.1991  1.0746
  863MOL0     H13851   5.764   4.430  10.908 -0.8770 -0.0093 -0.2244
  863MOL0     H13852   5.581   4.453  11.077  1.3754 -4.6488  0.7241
  863MOL0     H13853   5.282   4.276  11.126  2.1355 -0.1390 -1.3756
  863MOL0     H13854   5.266   4.262  10.948  2.4296  1.2715 -0.9116
  863MOL0     H13855   5.083   4.431  11.122  1.3172  0.2866  0.0098
  863MOL0     H13856   5.040   4.262  11.083 -1.2620  1.2822  0.5444
  863MOL0     H13857   5.057   4.331  10.839 -1.1121 -0.2721 -1.8974
  863MOL0     H13858   5.023   4.489  10.893  1.2687  1.2666  1.8190
  863MOL0     H13859   4.847   4.251  10.947  2.0986  0.0137 -0.0658
  863MOL0     H13860   4.815   4.418  11.011  0.1808 -0.3302  0.7686
  863MOL0     H13861   4.798   4.332  10.727  0.7713  0.9002  0.4027
  863MOL0     H13862   4.798   4.496  10.773 -1.2978 -0.1113 -1.9469
  863MOL0     H13863   4.608   4.453  10.923  2.3859  0.7817  0.3442
  863MOL0     H13864   4.626   4.277  10.883  0.6976  0.0487 -0.8082
  863MOL0     H13865   4.524   4.483  10.675 -0.7978  1.7269  1.3264
  863MOL0     H13866   4.537   4.302  10.659 -1.2202  0.8400 -2.2716
  863MOL0     H13867   4.348   4.471  10.833 -0.5911 -0.3126 -0.1691
  863MOL0     H13868   4.368   4.295  10.862  0.1643 -1.5822 -1.4457
  863MOL0     H13869   4.230   4.528  10.593 -1.4442  0.6631  5.0359
  863MOL0     H13870   4.189   4.380  10.299 -0.4113 -0.1575 -0.7490
  863MOL0     H13871   4.053   4.468  10.386  0.6478  0.7681  1.8757
  863MOL0     H13872   4.057   4.167  10.326  0.5150 -0.9820 -1.5141
  863MOL0     H13873   3.985   4.270  10.219 -0.8076 -3.1013 -0.3359
  863MOL0     H13874   3.902   4.287  10.511  1.9339 -2.8318  0.1763
  863MOL0     H13875   3.808   4.341  10.363 -1.7730 -1.5869  2.0645
  863MOL0     H13876   3.863   4.063  10.462  0.6238  1.1533  0.6105
  863MOL0     H13877   3.790   4.099  10.305 -0.6687  3.4725 -0.8347
  863MOL0     H13878   3.447   4.120  10.557  1.5484 -0.1609 -1.1531
  863MOL0     H13879   3.222   4.190  10.443  1.0284  1.2706  0.1246
  863MOL0     H13880   3.056   4.532  10.178  0.4442 -0.4976  0.1976
  863MOL0     H13881   2.853   4.628  10.100 -0.4808  0.2748  1.6846
  863MOL0     H13882   2.483   4.451  10.236  2.1329  0.1865  0.5911
  863MOL0     H13883   2.479   4.380  10.074  3.3419 -1.4010  1.9576
  863MOL0     H13884   2.409   4.627   9.999  0.1747 -1.4802 -1.2042
  863MOL0     H13885   2.354   4.647  10.171 -0.3438  1.4208 -0.9323
  863MOL0     H13886   2.271   4.440   9.957 -1.4422 -1.6717  0.4552
  863MOL0     H13887   2.172   4.564  10.019  0.0855 -0.0879 -0.1836
  863MOL0     H13888   2.288   4.322  10.181 -1.0059 -0.5445  0.8744
  863MOL0     H13889   2.195   4.452  10.250 -0.0787 -1.2059  0.6977
  863MOL0     H13890   2.059   4.241  10.213 -0.2817  1.6203  1.0651
  863MOL0     H13891   2.118   4.237  10.048  0.2231 -0.1287 -0.2047
  863MOL0     H13892   1.983   4.440   9.988 -1.6665  3.0716  1.5929
  863MOL0     H13893   1.968   4.477  10.158 -1.1230  0.5923 -0.5428
  863MOL0     H13894   1.830   4.265  10.001 -0.7405 -0.3649 -0.5362
  863MOL0     H13895   1.814   4.275  10.173  1.4852 -0.4973  0.2488
  863MOL0     H13896   1.760   4.521   9.990 -2.3465  1.5829  1.0183
  863MOL0     H13897   1.731   4.503  10.162 -1.5400  0.9161 -1.0430
  863MOL0     H13898   2.635   4.271  10.188 -0.5296  1.0822  1.9873
  863MOL0     H13899   2.832   4.158  10.237 -3.6914  1.0726 -0.6805
  863MOL0     H13900   3.449   4.285  10.093  1.9745  0.0322  0.1166
  863MOL0     H13901   3.662   4.224  10.204  0.1252 -1.7488 -0.0927
  863MOL0     H13902   5.299   4.449  10.760 -0.2180 -1.6967  1.5501
  863MOL0     H13903   5.478   4.446  10.594 -0.0626  2.0065  0.7495
  863MOL0     H13904   5.825   4.291  10.431 -0.9006  0.0066 -2.1519
  863MOL0     H13905   5.976   4.248  10.270 -0.6946  0.3654  0.8016
  863MOL0     H13906   6.318   4.176  10.172  2.3203 -0.4597  0.5180
  863MOL0     H13907   6.247   4.157  10.329  1.1297 -0.9703  0.5618
  863MOL0     H13908   6.491   4.327  10.263 -0.7096 -0.5353 -0.0376
  863MOL0     H13909   6.416   4.332  10.419  1.4135  0.2470 -0.2563
  863MOL0     H13910   6.520   4.072  10.267 -1.6738 -0.9784  0.5533
  863MOL0     H13911   6.466   4.075  10.427  0.0185 -1.2680 -1.3256
  863MOL0     H13912   6.657   4.276  10.472  0.5491  0.0811 -0.4096
  863MOL0     H13913   6.686   4.095  10.449 -2.1020 -2.0395 -3.4451
  863MOL0     H13914   6.905   4.249  10.130  2.2314 -3.7930  1.0164
  863MOL0     H13915   6.259   4.533  10.430  0.8648  0.2900  1.0240
  863MOL0     H13916   6.096   4.570  10.623  3.1483  2.1210 -1.0228
  864MOL0     O13917   0.728   4.128   9.355 -0.0882 -0.4511 -0.1190
  864MOL0     C13918   0.804   4.224   9.365  0.2178 -0.3206 -0.3092
  864MOL0     O13919   0.776   4.349   9.332 -0.3455  0.5585 -0.0439
  864MOL0     C13920   0.652   4.381   9.300 -0.6658 -0.3538  0.9141
  864MOL0     C13921   0.619   4.434   9.176  0.9354  0.4918 -0.7431
  864MOL0     C13922   0.490   4.452   9.131  0.8530  0.2121  0.5469
  864MOL0     C13923   0.385   4.416   9.215 -0.2577 -0.6109 -0.0987
  864MOL0     O13924   0.250   4.443   9.185 -0.2216 -0.8136  0.5658
  864MOL0     C13925   0.225   4.495   9.053 -0.4091  0.3269  0.3089
  864MOL0     C13926   0.082   4.495   9.026 -0.4029  0.0752 -0.2534
  864MOL0     C13927  -0.004   4.598   9.096 -0.1651  0.0667 -0.8109
  864MOL0     C13928  -0.150   4.603   9.044 -0.5118 -0.3359  0.2359
  864MOL0     C13929  -0.218   4.730   9.097 -0.1561 -0.1116  0.3680
  864MOL0     C13930  -0.170   4.859   9.039 -0.7617  0.0958  0.1351
  864MOL0     C13931  -0.272   4.970   9.063  0.3948  0.6293 -0.1142
  864MOL0     C13932  -0.277   5.002   9.217  0.2116 -0.3678  0.5735
  864MOL0     N13933  -0.377   5.111   9.237 -0.2439 -0.0778  0.4025
  864MOL0     C13934  -0.508   5.102   9.185 -0.2744  0.7943  0.0137
  864MOL0     C13935  -0.554   5.214   9.241  0.8861 -0.2751  0.2204
  864MOL0     C13936  -0.694   5.264   9.206  0.1704  0.1213 -0.0093
  864MOL0     C13937  -0.798   5.206   9.290  0.5157 -0.0946  0.9293
  864MOL0     C13938  -0.938   5.237   9.239  0.4995  0.8753 -0.1766
  864MOL0     C13939  -1.062   5.165   9.288  0.6502 -0.3028 -0.2222
  864MOL0     O13940  -1.080   5.215   9.424  1.1286 -0.1816  0.3817
  864MOL0     C13941  -1.206   5.247   9.466 -0.3300 -0.0589 -0.5570
  864MOL0     C13942  -1.325   5.183   9.423 -0.0324  0.6387 -0.2537
  864MOL0     C13943  -1.453   5.222   9.478 -0.4329  0.6213 -1.1222
  864MOL0     C13944  -1.462   5.329   9.564 -0.4159 -0.4834 -0.8648
  864MOL0     C13945  -1.584   5.375   9.622  0.3311 -1.5267  0.3893
  864MOL0     O13946  -1.701   5.329   9.555  0.0947 -0.6427 -0.0506
  864MOL0     C13947  -1.819   5.385   9.588 -0.5538  0.3076  0.0947
  864MOL0     C13948  -1.868   5.393   9.718 -0.6842 -0.1340 -0.6319
  864MOL0     C13949  -1.989   5.449   9.743  0.0865 -0.2286 -0.2719
  864MOL0     C13950  -2.063   5.505   9.643  0.7158 -0.2729 -0.5517
  864MOL0     O13951  -2.176   5.570   9.680 -0.1275 -0.4036  0.9082
  864MOL0     C13952  -2.281   5.554   9.582 -0.5981  0.7645  0.3987
  864MOL0     C13953  -2.416   5.598   9.622  0.3110  0.1829 -0.4728
  864MOL0     C13954  -2.427   5.743   9.649 -0.7003  0.2566 -0.7082
  864MOL0     C13955  -2.559   5.784   9.721 -0.0732 -0.7439  0.7419
  864MOL0     C13956  -2.566   5.943   9.710  0.5115 -0.3791 -0.4291
  864MOL0     C13957  -2.458   6.035   9.763 -0.1732  0.5639  0.3013
  864MOL0     C13958  -2.395   5.995   9.888  0.4226  0.5887  0.7898
  864MOL0     C13959  -2.492   6.015  10.008 -0.4259 -0.3156  0.0413
  864MOL0    Cl13960  -2.549   6.180  10.024 -0.2253  0.2860 -0.1052
  864MOL0     C13961  -2.011   5.506   9.519  0.1366 -0.5769  0.0712
  864MOL0     C13962  -1.891   5.445   9.488 -0.4347  0.5753  0.0734
  864MOL0     O13963  -1.585   5.468   9.702 -0.4478  1.1735 -0.3474
  864MOL0     C13964  -1.342   5.396   9.602  0.0372 -0.2392  0.1118
  864MOL0     C13965  -1.217   5.357   9.560  0.0819 -0.3058  0.4474
  864MOL0     N13966  -0.455   5.288   9.308 -0.2222 -0.1499 -0.3192
  864MOL0     N13967  -0.346   5.224   9.300  0.7109 -0.1067 -0.8745
  864MOL0     C13968   0.412   4.369   9.344  0.2366  0.4892  0.4583
  864MOL0     C13969   0.540   4.346   9.383  0.4280 -0.3257 -0.2646
  864MOL0     C13970   0.934   4.192   9.427 -1.2090 -0.0155  0.3730
  864MOL0     C13971   0.962   4.070   9.483  0.4135 -0.2035  0.1083
  864MOL0     C13972   1.083   4.047   9.544 -1.8398  0.2759  1.3423
  864MOL0     C13973   1.188   4.144   9.548 -0.1257  0.6266  0.3040
  864MOL0     O13974   1.302   4.133   9.624 -0.0374 -0.2902  0.6020
  864MOL0     C13975   1.337   4.236   9.723 -0.6846  0.3844  0.0017
  864MOL0     C13976   1.447   4.328   9.674  0.3194 -0.2481 -0.2685
  864MOL0     C13977   1.584   4.250   9.690 -0.3132  0.2945 -0.0488
  864MOL0     C13978   1.707   4.338   9.676 -0.5324 -0.2149 -0.7454
  864MOL0     C13979   1.830   4.266   9.683 -0.5585  0.1289 -0.0080
  864MOL0     C13980   1.940   4.223   9.708  0.3386  0.1087 -0.4694
  864MOL0     C13981   1.160   4.261   9.468  0.1341 -0.8172  0.2595
  864MOL0     C13982   1.040   4.284   9.403 -0.4839  0.3792  0.2329
  864MOL0     H13983   0.703   4.457   9.111 -0.2789  0.0607 -2.5141
  864MOL0     H13984   0.476   4.490   9.030  0.2769  0.4249  0.7020
  864MOL0     H13985   0.273   4.427   8.982  1.6516 -0.7422  2.5431
  864MOL0     H13986   0.275   4.587   9.022  0.5161 -0.0922  0.5045
  864MOL0     H13987   0.030   4.402   9.049  0.1517 -0.3450 -0.6616
  864MOL0     H13988   0.066   4.510   8.919 -0.3926 -0.5294 -0.3409
  864MOL0     H13989   0.050   4.689   9.068 -0.4458  0.3050 -0.5766
  864MOL0     H13990   0.005   4.585   9.204  1.0330 -2.1577 -1.0964
  864MOL0     H13991  -0.144   4.602   8.934  0.9406  1.4619  0.2476
  864MOL0     H13992  -0.207   4.516   9.078 -1.6022  0.7098  1.1398
  864MOL0     H13993  -0.216   4.736   9.206 -1.6469  1.7618  0.3539
  864MOL0     H13994  -0.320   4.718   9.058 -0.2095 -0.8178  0.7194
  864MOL0     H13995  -0.159   4.841   8.931 -2.4999 -0.7013  0.0598
  864MOL0     H13996  -0.076   4.891   9.084 -1.8851  2.2921  1.0332
  864MOL0     H13997  -0.227   5.060   9.020  1.0228  2.4342  3.8791
  864MOL0     H13998  -0.364   4.944   9.010  1.6866 -1.8493 -1.3450
  864MOL0     H13999  -0.183   5.045   9.254 -0.3874  1.8141 -0.2694
  864MOL0     H14000  -0.312   4.916   9.273 -3.0892  1.3002  1.3116
  864MOL0     H14001  -0.565   5.034   9.123  1.4684 -1.2972  0.5851
  864MOL0     H14002  -0.703   5.227   9.104 -2.9423 -2.4546  1.0714
  864MOL0     H14003  -0.698   5.374   9.208  1.0014  0.1829 -0.8221
  864MOL0     H14004  -0.785   5.231   9.396  2.7208  0.1617  0.6517
  864MOL0     H14005  -0.792   5.098   9.271 -0.2294  0.4778 -3.5397
  864MOL0     H14006  -0.957   5.342   9.261  0.4701  0.9701 -0.6297
  864MOL0     H14007  -0.934   5.218   9.131  0.1692 -0.3299  0.0068
  864MOL0     H14008  -1.043   5.058   9.290 -1.4761 -0.7523 -0.7697
  864MOL0     H14009  -1.146   5.192   9.223 -1.9459  0.4239  3.1406
  864MOL0     H14010  -1.320   5.111   9.341 -0.3909  0.4574 -0.1198
  864MOL0     H14011  -1.540   5.159   9.466 -0.8935  0.9442  0.3998
  864MOL0     H14012  -1.809   5.352   9.800 -3.6100 -0.9755  1.2044
  864MOL0     H14013  -2.029   5.456   9.844  0.2330 -0.8356 -0.1674
  864MOL0     H14014  -2.284   5.450   9.549  0.7769  0.2128  1.9204
  864MOL0     H14015  -2.251   5.607   9.491 -0.2833 -0.2160 -0.0887
  864MOL0     H14016  -2.428   5.538   9.712  0.9414  1.8693  0.7794
  864MOL0     H14017  -2.493   5.573   9.548 -0.1337 -0.4281  0.1894
  864MOL0     H14018  -2.417   5.782   9.547 -0.2738 -3.4208 -2.2338
  864MOL0     H14019  -2.346   5.793   9.703  0.3129 -0.8270 -1.1861
  864MOL0     H14020  -2.640   5.727   9.674 -0.4644  0.4468 -0.0512
  864MOL0     H14021  -2.561   5.754   9.827  3.5169 -1.1338  0.8280
  864MOL0     H14022  -2.654   5.978   9.765  0.5294 -0.3298 -0.4321
  864MOL0     H14023  -2.589   5.973   9.608  0.3050  2.4625  0.3722
  864MOL0     H14024  -2.502   6.134   9.778  0.6053  0.3757  5.3921
  864MOL0     H14025  -2.387   6.045   9.680  0.3640  0.3616  0.7351
  864MOL0     H14026  -2.366   5.890   9.884 -0.5118  0.3336  0.5996
  864MOL0     H14027  -2.301   6.049   9.902  0.4150  0.9992 -0.5506
  864MOL0     H14028  -2.445   5.992  10.104  2.8341 -0.3112 -1.4217
  864MOL0     H14029  -2.571   5.941   9.995 -0.7388 -0.0182  0.2225
  864MOL0     H14030  -2.052   5.564   9.437 -0.3780 -1.6547 -0.4561
  864MOL0     H14031  -1.845   5.460   9.391  0.4368 -1.6015  0.1028
  864MOL0     H14032  -1.335   5.474   9.678  1.0671  0.3565 -0.5702
  864MOL0     H14033  -1.131   5.410   9.599 -1.1226  2.6770 -0.6592
  864MOL0     H14034   0.336   4.352   9.420  1.3571 -2.9850  0.9792
  864MOL0     H14035   0.558   4.291   9.475 -0.9100 -1.0280 -0.4028
  864MOL0     H14036   0.883   3.999   9.501 -0.5357 -0.2860 -3.5927
  864MOL0     H14037   1.103   3.951   9.592 -0.8246 -0.0787  0.2510
  864MOL0     H14038   1.372   4.192   9.817  5.4954 -0.8633 -2.3875
  864MOL0     H14039   1.247   4.297   9.727 -0.2618  1.4873 -3.4984
  864MOL0     H14040   1.427   4.360   9.571  0.7631 -0.1430 -0.3259
  864MOL0     H14041   1.447   4.414   9.742  1.1292 -1.5190  1.3980
  864MOL0     H14042   1.578   4.168   9.618 -1.2713 -0.8444  1.2647
  864MOL0     H14043   1.593   4.204   9.789  2.3407  0.7998  0.0144
  864MOL0     H14044   1.703   4.387   9.578  0.1764 -1.7001 -1.5545
  864MOL0     H14045   1.717   4.420   9.748  0.1709 -0.9238 -0.0228
  864MOL0     H14046   2.038   4.184   9.727 -0.0816  0.0614  1.9990
  864MOL0     H14047   1.235   4.339   9.456  0.7518 -1.8045 -3.6915
  864MOL0     H14048   1.027   4.377   9.348  0.0547  0.9078  0.9739
  865MOL0     O14049  10.174   2.655   1.409  0.0263 -0.3411 -0.3182
  865MOL0     C14050  10.199   2.732   1.315 -0.7634  0.3604 -0.0380
  865MOL0     O14051  10.105   2.799   1.243  0.0650 -0.4978 -0.0570
  865MOL0     C14052   9.980   2.780   1.290  0.4624 -0.8481 -1.1330
  865MOL0     C14053   9.927   2.854   1.397  0.3222 -0.8163  0.3040
  865MOL0     C14054   9.795   2.847   1.434 -0.9388 -0.5988 -0.7565
  865MOL0     C14055   9.714   2.753   1.377  0.0447  0.2980  0.3689
  865MOL0     O14056   9.580   2.761   1.416  0.7435  0.1086 -0.5770
  865MOL0     C14057   9.511   2.636   1.405 -0.3457  0.2628  0.0029
  865MOL0     C14058   9.375   2.637   1.470  1.1230 -1.0261  0.0865
  865MOL0     C14059   9.370   2.657   1.622  0.3685 -0.6561 -0.5553
  865MOL0     C14060   9.232   2.654   1.688 -0.6831  0.6456 -0.0286
  865MOL0     C14061   9.170   2.507   1.679 -0.2921 -0.3946 -1.0784
  865MOL0     C14062   9.035   2.516   1.755 -0.1967  0.4176 -0.2156
  865MOL0     C14063   9.004   2.378   1.804  0.1112 -0.9375  0.3506
  865MOL0     C14064   8.867   2.367   1.864  0.2374 -0.2213  0.3998
  865MOL0     N14065   8.764   2.358   1.761  0.6673 -0.2472  0.0061
  865MOL0     C14066   8.783   2.292   1.638  0.0667 -0.0259 -0.3573
  865MOL0     C14067   8.669   2.316   1.568 -0.0881  0.4306 -0.6103
  865MOL0     C14068   8.627   2.263   1.437 -0.6792  0.3783  0.4724
  865MOL0     C14069   8.479   2.297   1.407  0.2783 -0.4061 -0.0459
  865MOL0     C14070   8.386   2.193   1.466  0.3361  0.1391  0.3390
  865MOL0     C14071   8.247   2.214   1.408  0.2368 -0.4602  0.0053
  865MOL0     O14072   8.184   2.329   1.466  0.1334 -0.5762  0.6979
  865MOL0     C14073   8.046   2.337   1.437  0.0741  0.7253  0.0828
  865MOL0     C14074   7.980   2.454   1.466 -0.0448  0.2436  0.8872
  865MOL0     C14075   7.857   2.484   1.407  0.3430 -0.5890 -0.4553
  865MOL0     C14076   7.774   2.380   1.353 -0.0204 -0.2699  0.6250
  865MOL0     C14077   7.632   2.404   1.316 -0.1378  0.1730 -0.1725
  865MOL0     O14078   7.590   2.337   1.214  0.2793 -0.4004  0.3554
  865MOL0     C14079   7.458   2.325   1.197  0.4948  0.2812 -0.0676
  865MOL0     C14080   7.364   2.435   1.205  0.3104  0.8529  0.5911
  865MOL0     C14081   7.223   2.412   1.190 -0.2205 -0.5034 -0.1143
  865MOL0     C14082   7.181   2.288   1.150  0.4131 -0.3986 -1.2517
  865MOL0     O14083   7.052   2.254   1.132  0.7860 -0.3897 -0.2962
  865MOL0     C14084   6.945   2.355   1.128  0.0609 -0.3068 -0.5820
  865MOL0     C14085   6.826   2.286   1.059  1.0950 -1.0818  0.3521
  865MOL0     C14086   6.698   2.380   1.066  0.5471  0.2538  0.9031
  865MOL0     C14087   6.581   2.308   0.995 -0.5319  0.5631 -0.5870
  865MOL0     C14088   6.451   2.396   0.988  0.5035  0.3090 -0.0710
  865MOL0     C14089   6.335   2.326   0.907  0.1463  0.3170  0.6982
  865MOL0     C14090   6.261   2.221   0.990 -0.0560 -0.0333  0.4112
  865MOL0     C14091   6.136   2.158   0.913 -0.4710  0.4026 -1.1671
  865MOL0    Cl14092   6.193   2.096   0.759  0.2082 -0.3161 -0.1614
  865MOL0     C14093   7.274   2.176   1.138 -0.2252 -0.6007 -0.9606
  865MOL0     C14094   7.414   2.200   1.159  0.6244 -0.2710  0.1163
  865MOL0     O14095   7.557   2.466   1.394  0.0838  0.0819  0.4711
  865MOL0     C14096   7.829   2.251   1.339  0.0094 -0.0886 -0.9580
  865MOL0     C14097   7.973   2.237   1.372 -0.8103  0.7478  0.2857
  865MOL0     N14098   8.588   2.382   1.662  0.2855 -0.2782  0.1866
  865MOL0     N14099   8.645   2.417   1.769 -0.9792 -0.6548 -0.6830
  865MOL0     C14100   9.773   2.662   1.282  0.2814  0.2053 -0.3237
  865MOL0     C14101   9.901   2.680   1.238  0.0032 -0.0740  0.2668
  865MOL0     C14102  10.342   2.760   1.280 -0.0150 -0.6751 -0.5237
  865MOL0     C14103  10.394   2.874   1.210 -0.1054  0.1931 -0.5227
  865MOL0     C14104  10.532   2.919   1.207  0.6471 -0.2682 -0.3411
  865MOL0     C14105  10.623   2.842   1.275  0.0744 -1.4836 -0.9388
  865MOL0     O14106  10.745   2.902   1.285  0.0169  0.6212 -1.1670
  865MOL0     C14107  10.856   2.828   1.333  0.1545  0.5354 -0.3161
  865MOL0     C14108  10.969   2.919   1.363  0.9335  0.4119  0.5699
  865MOL0     C14109  11.026   2.976   1.237 -0.3080 -0.6575  0.3455
  865MOL0     C14110  11.165   3.062   1.246 -0.4008  0.3236  0.4470
  865MOL0     C14111  11.282   2.980   1.281  0.7284  0.0688  0.0933
  865MOL0     C14112  11.373   2.910   1.321  0.0253  0.3340 -0.4563
  865MOL0     C14113  10.577   2.727   1.337  0.0621  0.8364 -1.3771
  865MOL0     C14114  10.446   2.679   1.330  0.8194 -0.9399 -0.2280
  865MOL0     H14115   9.983   2.932   1.448  0.8295 -1.5379  0.8614
  865MOL0     H14116   9.761   2.916   1.511  2.2766 -0.7184  0.9328
  865MOL0     H14117   9.570   2.556   1.451 -0.1390 -0.6465 -1.7387
  865MOL0     H14118   9.501   2.607   1.300 -1.1288  0.6368 -0.0351
  865MOL0     H14119   9.330   2.540   1.445  0.7244 -1.5921  2.7084
  865MOL0     H14120   9.315   2.717   1.426  2.8145  1.2661  1.7773
  865MOL0     H14121   9.422   2.750   1.644  1.5322 -0.7581 -2.5924
  865MOL0     H14122   9.421   2.569   1.662  0.0516 -0.9722 -0.8361
  865MOL0     H14123   9.240   2.688   1.792  3.0846  0.9425 -0.2879
  865MOL0     H14124   9.173   2.731   1.636  0.1837  1.5451  0.2964
  865MOL0     H14125   9.220   2.440   1.750 -2.3378 -0.8938 -0.0388
  865MOL0     H14126   9.154   2.464   1.580 -0.8996 -0.4490 -0.9593
  865MOL0     H14127   8.953   2.548   1.691  1.4765  0.4652 -2.4412
  865MOL0     H14128   9.049   2.585   1.838 -1.1302  1.8932 -1.2509
  865MOL0     H14129   9.025   2.304   1.727 -0.6879  0.1940 -1.0017
  865MOL0     H14130   9.074   2.358   1.886  1.7913  0.0577 -0.7973
  865MOL0     H14131   8.836   2.447   1.933  0.1043  0.4457 -0.4137
  865MOL0     H14132   8.863   2.271   1.916 -2.4695 -0.8912 -0.8501
  865MOL0     H14133   8.870   2.234   1.608  0.0114 -0.3383  0.0777
  865MOL0     H14134   8.626   2.154   1.443 -1.0118  0.2974 -0.6948
  865MOL0     H14135   8.688   2.300   1.354 -2.2738  0.5979 -0.6369
  865MOL0     H14136   8.466   2.303   1.299 -0.1912  2.3065  0.1098
  865MOL0     H14137   8.464   2.398   1.446 -0.6331 -0.6773  0.3269
  865MOL0     H14138   8.422   2.093   1.440  0.6140 -0.4655  2.8143
  865MOL0     H14139   8.394   2.183   1.575 -3.2409 -3.0712  0.5023
  865MOL0     H14140   8.191   2.124   1.437 -0.2448 -0.8369 -1.9719
  865MOL0     H14141   8.248   2.212   1.299 -2.7571  1.5977 -0.1812
  865MOL0     H14142   8.025   2.543   1.511  1.3523 -0.6146  1.2449
  865MOL0     H14143   7.814   2.583   1.414 -0.6928 -0.7386 -3.2689
  865MOL0     H14144   7.396   2.536   1.227  1.5795  0.0184  2.9397
  865MOL0     H14145   7.156   2.495   1.208  0.8831  0.7912 -1.6456
  865MOL0     H14146   6.988   2.445   1.082  3.3471 -1.2125  0.3897
  865MOL0     H14147   6.922   2.384   1.231 -2.9445  1.3630 -1.5917
  865MOL0     H14148   6.799   2.192   1.108  1.1988 -1.8731 -1.0634
  865MOL0     H14149   6.843   2.262   0.954 -1.9173 -2.2556  0.0102
  865MOL0     H14150   6.718   2.475   1.016  1.5657  0.3545  1.4728
  865MOL0     H14151   6.680   2.391   1.174 -1.4632  0.1072  0.6356
  865MOL0     H14152   6.598   2.288   0.889 -0.0845  2.4607 -0.9129
  865MOL0     H14153   6.561   2.218   1.054  0.7683  0.3621 -0.4225
  865MOL0     H14154   6.498   2.478   0.932  1.4219  0.1262  0.4068
  865MOL0     H14155   6.415   2.430   1.085 -1.5697 -1.3700 -0.1721
  865MOL0     H14156   6.381   2.275   0.822  3.5360  1.4750  1.7136
  865MOL0     H14157   6.270   2.406   0.869  0.1418  1.1333  2.3417
  865MOL0     H14158   6.330   2.143   1.021  0.2373  0.5934  1.4105
  865MOL0     H14159   6.224   2.263   1.085  1.1676  0.5698  0.6412
  865MOL0     H14160   6.060   2.235   0.894 -0.0452  1.6941  1.8280
  865MOL0     H14161   6.078   2.082   0.966 -2.2523  3.1661  1.2048
  865MOL0     H14162   7.242   2.079   1.104  0.8918 -1.5246  0.4850
  865MOL0     H14163   7.483   2.117   1.155 -1.5578 -2.2520  1.4072
  865MOL0     H14164   7.767   2.178   1.288 -1.1790  1.8708 -2.4312
  865MOL0     H14165   8.008   2.135   1.356  1.8968  1.7471 -0.6293
  865MOL0     H14166   9.729   2.576   1.231  1.4689 -0.6726  0.0761
  865MOL0     H14167   9.941   2.616   1.160 -0.1821  0.9025 -0.6618
  865MOL0     H14168  10.322   2.941   1.166  0.6400  0.3304 -1.5762
  865MOL0     H14169  10.557   3.015   1.164  1.5901 -0.8659 -1.1694
  865MOL0     H14170  10.888   2.759   1.254  2.0431  2.0932 -0.9774
  865MOL0     H14171  10.831   2.769   1.422  0.5048  1.5673  0.4896
  865MOL0     H14172  10.934   2.999   1.429  3.4156  1.4026  0.8068
  865MOL0     H14173  11.049   2.868   1.418 -0.5045 -0.6170  1.7773
  865MOL0     H14174  10.951   3.034   1.182 -0.7324 -0.9001  0.6695
  865MOL0     H14175  11.056   2.894   1.170 -0.2692 -0.4263  0.0756
  865MOL0     H14176  11.187   3.103   1.147  2.1323 -0.9030  0.4177
  865MOL0     H14177  11.154   3.136   1.326 -3.0710  1.4185 -0.8271
  865MOL0     H14178  11.463   2.865   1.358  0.9974 -1.3765 -4.3436
  865MOL0     H14179  10.637   2.662   1.400  0.5427 -0.1242 -2.7587
  865MOL0     H14180  10.428   2.580   1.368 -1.4876 -0.5506 -0.1958
  866MOL0     O14181   8.127   0.351   1.846  0.2443  0.2263  0.4147
  866MOL0     C14182   8.144   0.253   1.773  0.6670 -0.3100 -0.6133
  866MOL0     O14183   8.042   0.197   1.691  0.2304  0.2639 -0.3996
  866MOL0     C14184   7.919   0.260   1.687  0.0775  0.6085  0.4530
  866MOL0     C14185   7.805   0.184   1.710 -0.8009  0.4149  0.3020
  866MOL0     C14186   7.682   0.241   1.690  0.8566 -0.3820  2.0207
  866MOL0     C14187   7.667   0.378   1.658  0.0036 -0.2074  0.8953
  866MOL0     O14188   7.546   0.438   1.648 -0.5216 -0.6013 -1.0802
  866MOL0     C14189   7.421   0.386   1.691  0.5274 -0.2019  0.7699
  866MOL0     C14190   7.311   0.497   1.683 -0.2153  0.0155  0.3028
  866MOL0     C14191   7.185   0.462   1.749  0.6639  0.3501  0.1836
  866MOL0     C14192   7.069   0.564   1.718  0.0395 -0.0816 -0.2931
  866MOL0     C14193   6.936   0.512   1.777  0.2141 -0.4429  0.5124
  866MOL0     C14194   6.803   0.562   1.710  0.1472 -0.6468 -0.2804
  866MOL0     C14195   6.780   0.711   1.725  0.5134 -0.4900  0.1741
  866MOL0     C14196   6.748   0.750   1.877 -0.5681  0.6485  0.3869
  866MOL0     N14197   6.627   0.680   1.926  0.4124  0.2542  0.6744
  866MOL0     C14198   6.610   0.567   2.002  0.0471 -0.0024  0.8349
  866MOL0     C14199   6.479   0.551   2.029  0.3045  0.0625  0.6879
  866MOL0     C14200   6.414   0.435   2.088 -0.1044  0.0134  0.4559
  866MOL0     C14201   6.491   0.383   2.207  1.0088 -0.1506 -0.5180
  866MOL0     C14202   6.414   0.284   2.296 -0.3404 -0.1860 -0.3404
  866MOL0     C14203   6.518   0.207   2.377 -0.1567  0.8583  0.3801
  866MOL0     O14204   6.573   0.287   2.475 -0.0059  0.3372  0.2021
  866MOL0     C14205   6.670   0.233   2.547 -0.0305  0.2156 -0.4756
  866MOL0     C14206   6.771   0.323   2.595 -0.5973 -0.2981 -0.0340
  866MOL0     C14207   6.875   0.277   2.668  0.7090  0.7578 -0.6076
  866MOL0     C14208   6.881   0.145   2.710  0.0272  0.4400  0.3880
  866MOL0     C14209   6.994   0.106   2.801 -0.5996 -0.4162 -0.0263
  866MOL0     O14210   6.976  -0.006   2.876 -0.1748  0.1400 -0.1181
  866MOL0     C14211   7.091  -0.046   2.949  0.1921 -0.8911 -0.5772
  866MOL0     C14212   7.117   0.013   3.076 -0.6151 -0.6494 -0.6332
  866MOL0     C14213   7.236  -0.023   3.146 -0.0205  0.6164  0.3851
  866MOL0     C14214   7.329  -0.116   3.091 -0.0652  0.5079  0.7533
  866MOL0     O14215   7.445  -0.143   3.150 -0.4322 -0.0465 -0.4240
  866MOL0     C14216   7.506  -0.056   3.252  0.4480  0.3779  0.7029
  866MOL0     C14217   7.646  -0.109   3.279 -0.5149  0.1636  0.5813
  866MOL0     C14218   7.737  -0.102   3.146 -0.0238  0.0881 -0.3891
  866MOL0     C14219   7.879  -0.148   3.180  0.3381  0.4153 -0.3035
  866MOL0     C14220   7.945  -0.227   3.065  0.3303  0.5246 -0.1578
  866MOL0     C14221   7.955  -0.143   2.934 -0.0623 -0.0390 -1.1273
  866MOL0     C14222   8.012  -0.214   2.819  0.0233  0.2966  0.8821
  866MOL0     C14223   8.057  -0.116   2.704  0.4610 -1.0492  0.2585
  866MOL0    Cl14224   7.901  -0.059   2.620 -0.9833 -0.0712  0.2488
  866MOL0     C14225   7.300  -0.175   2.967 -1.1875 -0.6639  0.3269
  866MOL0     C14226   7.184  -0.143   2.897  0.3628 -1.1977 -0.5072
  866MOL0     O14227   7.098   0.179   2.801 -0.6599  0.1778  0.3254
  866MOL0     C14228   6.782   0.058   2.664  0.0129  0.5554 -0.5114
  866MOL0     C14229   6.680   0.100   2.584 -0.2731 -0.4159  1.1902
  866MOL0     N14230   6.414   0.658   1.982 -0.1320 -0.5772  0.1267
  866MOL0     N14231   6.502   0.738   1.931 -0.0983  0.2739  0.2117
  866MOL0     C14232   7.778   0.451   1.625 -0.4123 -0.5347  0.3737
  866MOL0     C14233   7.903   0.398   1.653  0.1273  0.4490  0.7985
  866MOL0     C14234   8.277   0.183   1.769 -0.1240  0.1244  0.0447
  866MOL0     C14235   8.364   0.209   1.867  0.2723  0.7533 -0.2440
  866MOL0     C14236   8.491   0.152   1.867  0.1748 -0.2324 -1.5029
  866MOL0     C14237   8.532   0.063   1.768 -0.1797  0.7771 -0.3142
  866MOL0     O14238   8.651  -0.017   1.760 -0.4296 -0.4693 -0.3194
  866MOL0     C14239   8.754  -0.007   1.858 -0.1060  0.2506 -0.1560
  866MOL0     C14240   8.876  -0.091   1.831  0.5356  1.3558 -0.1062
  866MOL0     C14241   8.968  -0.022   1.737  0.3095 -0.3253  0.8254
  866MOL0     C14242   9.095  -0.098   1.699  0.1602  0.1711  0.6124
  866MOL0     C14243   9.065  -0.235   1.668 -0.3320  0.3321 -0.0806
  866MOL0     C14244   9.042  -0.358   1.661 -1.1764  0.3683  0.3866
  866MOL0     C14245   8.438   0.020   1.681 -0.3318  0.2196 -0.5713
  866MOL0     C14246   8.310   0.086   1.678 -0.3490  0.7096  0.1751
  866MOL0     H14247   7.819   0.079   1.733  1.2085  0.3668 -0.9281
  866MOL0     H14248   7.589   0.186   1.688 -0.7736  2.1584 -0.4083
  866MOL0     H14249   7.425   0.340   1.790  0.5022  0.0615  0.8924
  866MOL0     H14250   7.401   0.301   1.624  1.9942  1.3489 -1.7649
  866MOL0     H14251   7.290   0.522   1.579 -4.9169 -1.2232  0.7139
  866MOL0     H14252   7.363   0.576   1.737  0.9731  0.2219 -1.0782
  866MOL0     H14253   7.198   0.454   1.857 -3.2476 -0.1716  0.7440
  866MOL0     H14254   7.143   0.366   1.715 -2.5436  0.9253  2.1275
  866MOL0     H14255   7.089   0.665   1.755  1.0518 -0.6461  0.7796
  866MOL0     H14256   7.064   0.584   1.611  1.4220  3.9302  0.2238
  866MOL0     H14257   6.923   0.540   1.882  0.0355  1.9562 -0.0909
  866MOL0     H14258   6.926   0.403   1.773 -0.8178 -0.3207 -1.2598
  866MOL0     H14259   6.717   0.502   1.743  0.0759 -0.0622  0.6281
  866MOL0     H14260   6.810   0.528   1.607 -1.6852 -2.6738  0.1833
  866MOL0     H14261   6.868   0.766   1.691  0.5749 -1.0642 -0.6237
  866MOL0     H14262   6.697   0.738   1.659  0.8799 -0.4125 -0.2569
  866MOL0     H14263   6.730   0.857   1.893  0.0458  0.6866  0.8627
  866MOL0     H14264   6.837   0.720   1.933 -0.2990  2.4682  1.0195
  866MOL0     H14265   6.692   0.499   2.023 -0.2868 -0.7805 -0.2618
  866MOL0     H14266   6.410   0.362   2.006  2.0279 -1.1577  1.2954
  866MOL0     H14267   6.312   0.462   2.115  0.3485  0.1465  2.1469
  866MOL0     H14268   6.491   0.478   2.262  1.6410 -0.1696 -0.4743
  866MOL0     H14269   6.598   0.369   2.192  1.1219 -2.2200  1.7027
  866MOL0     H14270   6.339   0.340   2.354  0.1428  2.1916 -1.8369
  866MOL0     H14271   6.368   0.211   2.229 -0.2383  0.5433 -1.2406
  866MOL0     H14272   6.596   0.173   2.308 -0.7504  4.2101 -2.1696
  866MOL0     H14273   6.476   0.115   2.420  0.3196  0.7553  0.6338
  866MOL0     H14274   6.772   0.428   2.569  1.5067 -1.0249 -3.5435
  866MOL0     H14275   6.956   0.340   2.701  0.7986 -0.7299  2.3363
  866MOL0     H14276   7.049   0.077   3.132  0.0705 -1.9766  1.8584
  866MOL0     H14277   7.264   0.028   3.238 -1.4825 -1.9483  2.3565
  866MOL0     H14278   7.436  -0.056   3.335 -1.7106  1.1860 -1.0198
  866MOL0     H14279   7.514   0.046   3.214 -0.1684 -0.4381 -1.8752
  866MOL0     H14280   7.649  -0.212   3.314  2.5439 -0.7311 -1.8032
  866MOL0     H14281   7.694  -0.054   3.360  1.6559 -0.7141 -0.0443
  866MOL0     H14282   7.752  -0.000   3.108  2.6958  0.7477  2.1178
  866MOL0     H14283   7.686  -0.159   3.067 -1.0527  1.0373 -0.4418
  866MOL0     H14284   7.947  -0.062   3.184 -0.0187  0.6601  2.2254
  866MOL0     H14285   7.887  -0.207   3.272 -0.5247 -2.0658 -1.7318
  866MOL0     H14286   7.889  -0.319   3.047  1.6202 -0.9132  2.5530
  866MOL0     H14287   8.046  -0.259   3.093 -0.6124  0.3264  3.5084
  866MOL0     H14288   8.006  -0.049   2.957  0.1820 -0.9406  2.6518
  866MOL0     H14289   7.848  -0.132   2.914 -0.7267 -2.7096  0.5237
  866MOL0     H14290   8.096  -0.274   2.853  1.3156  0.9108 -1.0781
  866MOL0     H14291   7.939  -0.282   2.773  1.1007 -0.4653  0.2586
  866MOL0     H14292   8.127  -0.169   2.639  0.6206 -1.2962  0.6267
  866MOL0     H14293   8.103  -0.028   2.749 -0.6843 -1.3426  2.1348
  866MOL0     H14294   7.363  -0.245   2.913 -2.4543  0.5907 -3.1009
  866MOL0     H14295   7.171  -0.186   2.799  1.1859 -1.5355 -0.4759
  866MOL0     H14296   6.779  -0.045   2.699 -1.1446  0.5801 -0.4995
  866MOL0     H14297   6.606   0.026   2.554  0.0074 -0.8982  1.6588
  866MOL0     H14298   7.757   0.547   1.579 -2.3430 -1.3999 -0.6348
  866MOL0     H14299   7.993   0.458   1.646  0.1727  0.6208  2.5097
  866MOL0     H14300   8.332   0.269   1.952 -2.6461 -1.5898  0.4463
  866MOL0     H14301   8.563   0.176   1.943 -1.7090  0.5624  0.1247
  866MOL0     H14302   8.700  -0.043   1.946  0.6122 -1.3905 -0.3444
  866MOL0     H14303   8.794   0.093   1.874 -0.7433  0.3184  1.1348
  866MOL0     H14304   8.925  -0.109   1.927  1.4376  3.6650 -0.0686
  866MOL0     H14305   8.826  -0.175   1.782 -2.7063  3.6603 -1.1343
  866MOL0     H14306   9.017   0.067   1.778  1.4892  0.6008 -2.3375
  866MOL0     H14307   8.910  -0.003   1.647 -0.2798  2.2437  1.6477
  866MOL0     H14308   9.150  -0.036   1.628  1.5482  1.0915  2.4112
  866MOL0     H14309   9.166  -0.110   1.781  2.8312  0.9904 -1.4443
  866MOL0     H14310   9.018  -0.457   1.630  2.7499 -0.5140 -0.4297
  866MOL0     H14311   8.469  -0.055   1.610  1.3889 -0.1412  0.5036
  866MOL0     H14312   8.229   0.044   1.618  2.1355 -0.9535 -2.2721
  867MOL0     O14313   6.487   6.682   1.057  0.8859  0.6039  0.1389
  867MOL0     C14314   6.526   6.620   0.955 -1.3997 -0.0488 -0.3573
  867MOL0     O14315   6.449   6.559   0.865 -0.9419  0.3853 -0.2318
  867MOL0     C14316   6.323   6.544   0.905 -0.1266  0.0163  0.5097
  867MOL0     C14317   6.288   6.443   0.992  0.8489 -0.0065 -0.0541
  867MOL0     C14318   6.154   6.404   1.003 -0.6328  0.3440  0.5716
  867MOL0     C14319   6.058   6.472   0.938  0.0948  0.2891  0.4113
  867MOL0     O14320   5.929   6.440   0.941  0.6950 -0.2326 -0.1836
  867MOL0     C14321   5.902   6.301   0.950 -0.0664 -0.8218  0.2904
  867MOL0     C14322   5.766   6.293   0.885  0.1319  1.0951  0.4757
  867MOL0     C14323   5.718   6.148   0.888  0.7733 -0.1219 -0.8316
  867MOL0     C14324   5.579   6.136   0.828 -0.0123  0.1932  0.4104
  867MOL0     C14325   5.470   6.163   0.930  0.1225 -0.0123  0.4714
  867MOL0     C14326   5.347   6.126   0.857 -0.4241  0.2232  0.7628
  867MOL0     C14327   5.229   6.171   0.941 -0.0931 -0.5563 -0.0284
  867MOL0     C14328   5.210   6.100   1.080  0.5123  0.1241 -0.0420
  867MOL0     N14329   5.068   6.104   1.117  0.2206 -0.2803  0.3220
  867MOL0     C14330   5.023   6.133   1.247  0.8674 -0.0342 -0.7230
  867MOL0     C14331   4.887   6.137   1.241  0.3129  0.4069  0.4013
  867MOL0     C14332   4.800   6.184   1.365 -0.2310 -0.1114 -0.5823
  867MOL0     C14333   4.647   6.187   1.338  0.0245  0.3819 -0.1212
  867MOL0     C14334   4.573   6.206   1.465 -0.7839  0.7064 -0.3030
  867MOL0     C14335   4.423   6.218   1.452 -0.1140  0.8312 -0.4121
  867MOL0     O14336   4.402   6.342   1.387  0.4064  0.7235  0.3749
  867MOL0     C14337   4.276   6.402   1.425 -0.0946  0.8181 -1.3376
  867MOL0     C14338   4.155   6.333   1.457  0.2916  0.3836  0.5484
  867MOL0     C14339   4.043   6.403   1.496 -0.2355  0.4373 -0.4017
  867MOL0     C14340   4.051   6.544   1.508 -0.3903  0.0456  0.0265
  867MOL0     C14341   3.934   6.618   1.563 -0.3600  0.0196  0.2609
  867MOL0     O14342   3.832   6.540   1.622  0.0403 -0.8241  0.3976
  867MOL0     C14343   3.724   6.612   1.663  0.1153 -0.0694 -0.4834
  867MOL0     C14344   3.701   6.659   1.791 -0.1921  0.9436  0.1615
  867MOL0     C14345   3.589   6.735   1.823 -0.4339 -0.2751  0.2603
  867MOL0     C14346   3.477   6.747   1.741 -0.6509 -0.0045 -0.2143
  867MOL0     O14347   3.378   6.828   1.788 -0.3990  1.3144  0.0788
  867MOL0     C14348   3.252   6.810   1.724 -0.6969  0.1159  0.3336
  867MOL0     C14349   3.144   6.903   1.771  0.3456 -0.4808  0.0005
  867MOL0     C14350   3.016   6.876   1.685 -0.5677  0.2466 -0.1001
  867MOL0     C14351   2.927   7.002   1.690 -0.4982  0.1433  0.2105
  867MOL0     C14352   2.782   6.992   1.621  0.2104  0.5824  0.5558
  867MOL0     C14353   2.695   7.113   1.656 -0.0521  0.4898 -0.1985
  867MOL0     C14354   2.565   7.100   1.576  0.0447 -0.3647  0.3014
  867MOL0     C14355   2.503   7.233   1.573  0.8151 -0.0996 -1.0278
  867MOL0    Cl14356   2.376   7.215   1.445 -0.0313  0.1778  0.0384
  867MOL0     C14357   3.496   6.695   1.612 -0.4532  0.6244  0.2869
  867MOL0     C14358   3.617   6.625   1.581  0.0624 -1.0476 -0.2317
  867MOL0     O14359   3.933   6.741   1.558 -0.1025  0.3058  0.2807
  867MOL0     C14360   4.166   6.607   1.462  0.2904  0.0404 -0.7886
  867MOL0     C14361   4.282   6.536   1.432 -0.7331  1.3478  0.6839
  867MOL0     N14362   4.847   6.116   1.107  0.1549  0.3223 -0.4321
  867MOL0     N14363   4.955   6.089   1.041  0.2104 -0.9113  0.3869
  867MOL0     C14364   6.091   6.589   0.855 -0.3866  1.0575 -0.0446
  867MOL0     C14365   6.226   6.621   0.840  0.2205  0.0942 -0.6486
  867MOL0     C14366   6.667   6.631   0.927 -0.4318 -0.5609  0.2457
  867MOL0     C14367   6.750   6.693   1.022  0.0447 -0.7548 -0.5201
  867MOL0     C14368   6.875   6.734   0.995 -1.2145  0.7421 -0.3776
  867MOL0     C14369   6.938   6.692   0.876  0.0396 -0.2713  0.2942
  867MOL0     O14370   7.065   6.734   0.851  0.1507 -0.0735  0.0254
  867MOL0     C14371   7.124   6.727   0.719  0.0207 -0.3616  0.6125
  867MOL0     C14372   7.245   6.818   0.708  0.5466  0.4550 -0.5585
  867MOL0     C14373   7.373   6.741   0.713  0.3630 -0.1037  0.2353
  867MOL0     C14374   7.486   6.821   0.644  0.0918  0.3736 -0.3161
  867MOL0     C14375   7.613   6.749   0.650 -0.7346 -0.0559 -0.6450
  867MOL0     C14376   7.724   6.706   0.638 -0.4299  0.4593 -0.2805
  867MOL0     C14377   6.862   6.622   0.782 -0.6128  0.6262  0.0643
  867MOL0     C14378   6.724   6.599   0.807  0.1312 -0.2831  0.7328
  867MOL0     H14379   6.366   6.391   1.049  1.0276 -1.1404 -1.2816
  867MOL0     H14380   6.118   6.321   1.064 -2.0949 -1.4052 -2.4175
  867MOL0     H14381   5.899   6.286   1.058 -0.4242  0.4558  0.4628
  867MOL0     H14382   5.981   6.238   0.907  2.1000  1.1899  1.1442
  867MOL0     H14383   5.763   6.327   0.781 -1.7015 -0.4857 -0.0630
  867MOL0     H14384   5.700   6.360   0.941 -2.1108 -2.1750  2.1157
  867MOL0     H14385   5.714   6.121   0.994  2.7191  2.9496  0.1460
  867MOL0     H14386   5.794   6.094   0.831  1.5102  1.2707 -1.2165
  867MOL0     H14387   5.586   6.203   0.742  3.2905  0.4970  0.7947
  867MOL0     H14388   5.553   6.038   0.785  0.6267  0.1378  0.1448
  867MOL0     H14389   5.466   6.265   0.971 -2.4903 -0.1985  0.8141
  867MOL0     H14390   5.486   6.106   1.021  2.0966  1.1937  0.9453
  867MOL0     H14391   5.343   6.019   0.835 -2.9903  0.3041  0.5125
  867MOL0     H14392   5.332   6.180   0.763  3.7217 -1.8873 -1.4222
  867MOL0     H14393   5.230   6.279   0.961  1.0078 -0.5683  0.0739
  867MOL0     H14394   5.148   6.150   0.871 -0.9355  4.6307 -0.9743
  867MOL0     H14395   5.276   6.154   1.148  0.6182  1.3098 -1.0367
  867MOL0     H14396   5.251   5.999   1.079 -1.8651 -0.9465  1.9528
  867MOL0     H14397   5.087   6.149   1.334 -0.1600 -0.2042  0.0861
  867MOL0     H14398   4.834   6.281   1.402 -0.7682 -0.8549  2.0638
  867MOL0     H14399   4.819   6.113   1.446  2.3482 -0.1383 -1.1187
  867MOL0     H14400   4.621   6.090   1.293 -0.7496  0.6367 -0.2314
  867MOL0     H14401   4.632   6.273   1.272  0.4594  0.7718  0.2783
  867MOL0     H14402   4.592   6.124   1.534 -1.4761  0.4812 -0.3706
  867MOL0     H14403   4.616   6.292   1.517  0.6044 -0.3852  0.4101
  867MOL0     H14404   4.360   6.209   1.541 -1.8525  0.5021 -1.6289
  867MOL0     H14405   4.385   6.140   1.387 -2.6399 -0.4270  2.3467
  867MOL0     H14406   4.140   6.226   1.445  0.2569  0.2657  1.5254
  867MOL0     H14407   3.950   6.353   1.521 -1.1798  0.1965 -3.8629
  867MOL0     H14408   3.782   6.645   1.862 -0.0469  4.7659  0.9711
  867MOL0     H14409   3.586   6.766   1.927  1.0301  1.2455 -0.1047
  867MOL0     H14410   3.212   6.709   1.742  0.1131 -0.0584  1.2017
  867MOL0     H14411   3.263   6.835   1.618  0.7862  0.0624  0.4567
  867MOL0     H14412   3.171   7.006   1.749  1.9974 -0.6434  1.0906
  867MOL0     H14413   3.116   6.893   1.876  1.1067  0.8319  0.3461
  867MOL0     H14414   2.955   6.794   1.725  0.3540 -1.2902 -1.6854
  867MOL0     H14415   3.046   6.847   1.585 -2.5228  2.4275 -1.4244
  867MOL0     H14416   2.921   7.028   1.796 -0.6918  0.2774  0.1646
  867MOL0     H14417   2.980   7.082   1.638 -1.6766  1.1466  0.5257
  867MOL0     H14418   2.728   6.902   1.648  0.6750 -0.0176 -0.4360
  867MOL0     H14419   2.807   6.982   1.515  0.2027 -1.1301  0.6992
  867MOL0     H14420   2.738   7.205   1.614 -0.7793  0.4777 -1.0038
  867MOL0     H14421   2.689   7.118   1.765 -0.4072 -0.2957 -0.1750
  867MOL0     H14422   2.601   7.083   1.474  1.3606 -0.0643  0.6935
  867MOL0     H14423   2.502   7.020   1.616 -2.5491  1.0281 -0.7335
  867MOL0     H14424   2.575   7.305   1.533  0.9461 -0.3895 -1.3186
  867MOL0     H14425   2.462   7.258   1.671 -1.2542 -4.3321 -0.6085
  867MOL0     H14426   3.431   6.690   1.525 -1.2542  0.5626  0.8715
  867MOL0     H14427   3.638   6.589   1.481 -0.5557  0.8887 -1.1140
  867MOL0     H14428   4.158   6.715   1.453 -1.6597  0.0929  0.8009
  867MOL0     H14429   4.374   6.590   1.410  1.2475 -0.6885  3.3352
  867MOL0     H14430   6.020   6.642   0.793  0.6580  2.8024  0.1810
  867MOL0     H14431   6.260   6.702   0.776 -0.1545  0.2922 -0.5994
  867MOL0     H14432   6.701   6.729   1.111 -1.8288 -0.2608 -1.6899
  867MOL0     H14433   6.942   6.782   1.065  0.6241 -2.6167  0.3821
  867MOL0     H14434   7.052   6.769   0.649  2.7594  0.5226 -1.8623
  867MOL0     H14435   7.150   6.624   0.694  1.7891  0.3860 -0.7840
  867MOL0     H14436   7.244   6.881   0.619 -0.5821  0.2833 -0.6898
  867MOL0     H14437   7.232   6.899   0.781 -3.0846  0.2343 -0.7512
  867MOL0     H14438   7.359   6.649   0.656 -3.4218 -1.1897  2.5499
  867MOL0     H14439   7.402   6.719   0.816 -0.0561  2.7459  1.0384
  867MOL0     H14440   7.465   6.835   0.537  0.1165 -0.5357 -0.4453
  867MOL0     H14441   7.505   6.922   0.682  2.2201  0.7237 -2.1133
  867MOL0     H14442   7.824   6.668   0.640 -1.8978 -3.9145 -0.4822
  867MOL0     H14443   6.903   6.596   0.685 -1.8292 -0.9258 -0.0696
  867MOL0     H14444   6.653   6.560   0.736 -0.5537 -2.4329  2.4776
  868MOL0     O14445   7.588   4.238   4.369  0.1739 -0.1384  0.3404
  868MOL0     C14446   7.682   4.190   4.423 -0.2033 -0.4187 -0.5408
  868MOL0     O14447   7.672   4.099   4.536  0.0677 -1.2797  0.1900
  868MOL0     C14448   7.563   4.087   4.622  0.0228  0.1664  0.8584
  868MOL0     C14449   7.540   3.962   4.663  0.5302  0.1301  0.1017
  868MOL0     C14450   7.430   3.934   4.748 -0.1663  0.1467 -0.2975
  868MOL0     C14451   7.356   4.042   4.803 -0.2240 -0.2047  0.8102
  868MOL0     O14452   7.264   4.006   4.898 -0.3895  0.3934  0.0433
  868MOL0     C14453   7.221   4.108   4.993  0.8768 -0.5436  0.3444
  868MOL0     C14454   7.100   4.195   4.943 -0.5467  0.5918 -0.4099
  868MOL0     C14455   6.974   4.116   4.935 -0.2706 -0.7870 -0.3490
  868MOL0     C14456   6.869   4.212   4.879  0.2285  0.1366 -0.1579
  868MOL0     C14457   6.749   4.125   4.874  0.3403 -0.4613  0.6255
  868MOL0     C14458   6.645   4.197   4.786 -0.8696 -0.2013 -0.2566
  868MOL0     C14459   6.539   4.098   4.752  0.4915  0.0684  0.1429
  868MOL0     C14460   6.582   4.007   4.639  0.7742  0.1853 -0.2010
  868MOL0     N14461   6.468   3.952   4.565  0.0341 -0.0186  0.1092
  868MOL0     C14462   6.380   4.038   4.514  1.0139  0.0159  0.4092
  868MOL0     C14463   6.292   3.957   4.440 -0.5731  0.7404  0.0702
  868MOL0     C14464   6.160   4.002   4.375  0.4045  0.2239 -0.7680
  868MOL0     C14465   6.071   3.882   4.332 -0.0122  0.2637  0.5475
  868MOL0     C14466   5.929   3.920   4.290 -0.1675  0.1626 -0.0448
  868MOL0     C14467   5.865   3.796   4.243  1.0599 -0.7374  0.2449
  868MOL0     O14468   5.772   3.854   4.151 -0.1897  0.4312 -0.1588
  868MOL0     C14469   5.665   3.782   4.107  0.2846  0.1102 -0.2592
  868MOL0     C14470   5.670   3.637   4.100  0.2057  0.1263  0.6388
  868MOL0     C14471   5.573   3.568   4.026 -0.1315 -0.6698  0.4067
  868MOL0     C14472   5.458   3.643   3.978 -1.3618 -0.9175 -0.0361
  868MOL0     C14473   5.351   3.564   3.899 -0.3709 -1.1273 -0.8650
  868MOL0     O14474   5.261   3.629   3.828 -0.2422  0.6116 -0.3708
  868MOL0     C14475   5.153   3.560   3.784  0.0996  0.5589  0.5303
  868MOL0     C14476   5.092   3.443   3.842 -0.1796 -0.6709  0.2333
  868MOL0     C14477   4.978   3.379   3.786 -0.2048 -1.1076 -1.2179
  868MOL0     C14478   4.918   3.444   3.683 -0.2732  0.4508  0.7790
  868MOL0     O14479   4.811   3.396   3.619  0.2056 -0.5667  0.1329
  868MOL0     C14480   4.688   3.378   3.694 -0.2599  0.0776 -0.5273
  868MOL0     C14481   4.628   3.252   3.646 -0.0192 -0.7304  0.0870
  868MOL0     C14482   4.481   3.234   3.698  0.4791 -0.1160  0.2437
  868MOL0     C14483   4.405   3.126   3.615 -0.6989 -0.0564  0.1017
  868MOL0     C14484   4.457   2.984   3.648  0.5719 -0.1347 -0.0007
  868MOL0     C14485   4.354   2.879   3.595 -0.1959 -0.3044 -0.3664
  868MOL0     C14486   4.395   2.737   3.633  0.0948 -0.2981 -0.9322
  868MOL0     C14487   4.375   2.701   3.778 -0.3950 -0.2768 -0.3383
  868MOL0    Cl14488   4.203   2.696   3.840 -0.0934  0.0953 -0.6086
  868MOL0     C14489   4.978   3.555   3.619 -0.5963 -0.6287  0.2753
  868MOL0     C14490   5.092   3.608   3.672  0.2377 -0.0951  0.0223
  868MOL0     O14491   5.378   3.444   3.888 -0.9650  0.0059 -0.6397
  868MOL0     C14492   5.447   3.779   4.006 -0.1875 -0.1062  1.0868
  868MOL0     C14493   5.554   3.851   4.064 -0.1744 -0.8468 -0.2228
  868MOL0     N14494   6.334   3.824   4.454  0.2403 -0.5925 -0.7727
  868MOL0     N14495   6.438   3.825   4.531 -0.4077  1.4386 -0.0424
  868MOL0     C14496   7.400   4.179   4.773 -0.2069 -0.4478  0.3095
  868MOL0     C14497   7.499   4.201   4.671  0.1073  0.2015 -1.1150
  868MOL0     C14498   7.813   4.249   4.384  1.0040  0.2093 -0.3146
  868MOL0     C14499   7.839   4.326   4.267  0.3327  0.1985  0.0931
  868MOL0     C14500   7.959   4.393   4.248  0.1451 -0.3721 -0.2592
  868MOL0     C14501   8.062   4.385   4.337  0.7947 -0.9230 -0.2231
  868MOL0     O14502   8.168   4.464   4.315  0.5527  0.0188  0.7310
  868MOL0     C14503   8.203   4.556   4.413 -0.3854 -1.0719  0.2739
  868MOL0     C14504   8.144   4.690   4.382  0.1624 -0.8238  0.4086
  868MOL0     C14505   8.179   4.790   4.498  0.3121  0.1398  0.8654
  868MOL0     C14506   8.133   4.933   4.467 -0.0305 -0.3693 -0.5499
  868MOL0     C14507   7.992   4.952   4.517 -0.7127  0.2882  0.7420
  868MOL0     C14508   7.886   4.966   4.566 -0.1920 -0.0997  0.0762
  868MOL0     C14509   8.044   4.313   4.447  0.1521  0.8291 -0.0085
  868MOL0     C14510   7.924   4.245   4.468 -0.2753 -0.1982 -0.2195
  868MOL0     H14511   7.596   3.873   4.637 -1.1378 -1.1027  0.5812
  868MOL0     H14512   7.414   3.835   4.789  0.0918  0.0128 -0.5186
  868MOL0     H14513   7.302   4.178   5.017 -1.7491  2.9810 -0.2469
  868MOL0     H14514   7.199   4.076   5.096  0.6218 -0.1934  0.4009
  868MOL0     H14515   7.125   4.229   4.842  0.7500 -1.3959 -0.8202
  868MOL0     H14516   7.078   4.274   5.015 -1.7629 -1.9060  2.1811
  868MOL0     H14517   6.947   4.077   5.033 -6.0951 -2.1075 -2.0845
  868MOL0     H14518   6.988   4.026   4.874 -0.9771 -1.4463  0.4460
  868MOL0     H14519   6.846   4.293   4.949  3.4909  0.5701  0.5511
  868MOL0     H14520   6.894   4.255   4.782  0.2022  1.2006  0.2911
  868MOL0     H14521   6.717   4.100   4.976  2.2069 -1.1035  1.0905
  868MOL0     H14522   6.757   4.021   4.840 -1.3381 -1.5580  3.2904
  868MOL0     H14523   6.694   4.241   4.699 -1.6926 -1.7347 -1.5326
  868MOL0     H14524   6.602   4.281   4.842  2.6776  3.0097 -1.9638
  868MOL0     H14525   6.498   4.032   4.829 -2.6616 -0.7238 -2.0266
  868MOL0     H14526   6.444   4.147   4.728 -1.5438 -3.9228 -0.6874
  868MOL0     H14527   6.643   3.926   4.679  1.3281 -0.3142 -1.9990
  868MOL0     H14528   6.647   4.064   4.571  4.3827 -1.2487  1.7755
  868MOL0     H14529   6.349   4.141   4.533 -2.5378 -0.7995 -0.2501
  868MOL0     H14530   6.183   4.061   4.286  1.2687  1.4377  0.2195
  868MOL0     H14531   6.111   4.070   4.446 -0.2036 -0.2537 -0.7223
  868MOL0     H14532   6.076   3.798   4.402  1.4654  1.3050  1.7386
  868MOL0     H14533   6.118   3.847   4.240 -0.2196  2.4052 -0.4496
  868MOL0     H14534   5.875   3.970   4.371 -0.4589 -0.3564  0.0875
  868MOL0     H14535   5.925   3.985   4.203  0.6797 -0.1140 -0.3023
  868MOL0     H14536   5.826   3.751   4.335  0.5716 -0.4211  0.1959
  868MOL0     H14537   5.936   3.727   4.196  2.9476  0.7586  0.7627
  868MOL0     H14538   5.752   3.591   4.154 -0.3038 -0.0416  1.2868
  868MOL0     H14539   5.582   3.461   4.011  1.0948 -0.5760  0.3466
  868MOL0     H14540   5.138   3.392   3.926  2.3886 -0.9596 -1.2409
  868MOL0     H14541   4.947   3.281   3.823  0.2688 -1.1126 -0.8201
  868MOL0     H14542   4.620   3.463   3.675  0.2047  0.5372 -0.1477
  868MOL0     H14543   4.699   3.370   3.802 -3.3028 -1.3452 -0.2067
  868MOL0     H14544   4.684   3.166   3.685  1.4407  0.3789  0.5425
  868MOL0     H14545   4.631   3.252   3.537  1.3032  3.1178 -0.0177
  868MOL0     H14546   4.447   3.336   3.678  2.0700  1.0271  2.7686
  868MOL0     H14547   4.479   3.211   3.805  1.2034  2.6519  0.9603
  868MOL0     H14548   4.298   3.136   3.637 -0.2386  3.0721  1.3218
  868MOL0     H14549   4.421   3.140   3.507  0.5458 -2.0637 -0.0341
  868MOL0     H14550   4.468   2.973   3.757  1.4371  0.4547 -0.0153
  868MOL0     H14551   4.555   2.961   3.607  0.5592 -0.5799  0.2188
  868MOL0     H14552   4.362   2.895   3.487 -3.0935  1.4667 -0.4153
  868MOL0     H14553   4.251   2.901   3.623  0.0489  1.3445 -0.6475
  868MOL0     H14554   4.350   2.656   3.575  2.2003 -1.4847 -1.0437
  868MOL0     H14555   4.504   2.723   3.625  0.2012 -1.9118  1.8288
  868MOL0     H14556   4.432   2.775   3.836 -2.3383  0.1884  1.0816
  868MOL0     H14557   4.421   2.604   3.801 -1.0388 -1.2654 -2.9802
  868MOL0     H14558   4.938   3.595   3.526  1.5465 -0.0483 -0.4643
  868MOL0     H14559   5.127   3.699   3.625  0.2546  0.7153  1.5303
  868MOL0     H14560   5.359   3.829   3.967  0.2395 -0.9340 -1.0710
  868MOL0     H14561   5.567   3.956   4.088 -3.1921  0.0520 -2.0156
  868MOL0     H14562   7.348   4.266   4.812 -0.1839  0.3591 -1.3601
  868MOL0     H14563   7.521   4.301   4.636  0.6525 -0.3044 -2.2534
  868MOL0     H14564   7.760   4.333   4.192  0.5674  0.9483 -0.0923
  868MOL0     H14565   7.966   4.457   4.161 -0.1791 -0.3168 -0.2436
  868MOL0     H14566   8.311   4.566   4.406 -0.4596 -1.0608 -0.9951
  868MOL0     H14567   8.180   4.529   4.517 -0.2199 -2.8821 -0.1158
  868MOL0     H14568   8.183   4.731   4.289 -4.7606  0.2902 -1.5171
  868MOL0     H14569   8.036   4.691   4.364 -0.0348 -4.7305  0.4700
  868MOL0     H14570   8.288   4.793   4.512  0.6258  0.7196 -1.3006
  868MOL0     H14571   8.125   4.753   4.585 -0.7572  1.7348  0.9012
  868MOL0     H14572   8.199   5.007   4.514 -1.2151 -0.2290  0.9484
  868MOL0     H14573   8.136   4.937   4.357 -0.1117 -2.3010 -0.6451
  868MOL0     H14574   7.796   4.981   4.623 -0.2267  0.1450 -0.0375
  868MOL0     H14575   8.119   4.313   4.526 -0.4496  1.9131  0.5761
  868MOL0     H14576   7.926   4.178   4.553  3.9573  1.1112  0.9677
  869MOL0     O14577   7.996   0.037   7.257 -0.2735  0.0147 -0.6868
  869MOL0     C14578   8.014  -0.075   7.304  0.0382 -0.0630 -0.8774
  869MOL0     O14579   7.919  -0.175   7.306  0.1965 -0.1557 -0.1098
  869MOL0     C14580   7.808  -0.155   7.230  0.2211  0.0989 -0.5191
  869MOL0     C14581   7.812  -0.147   7.091 -0.9615 -0.1062 -0.3695
  869MOL0     C14582   7.693  -0.145   7.018 -0.3634 -0.3655 -0.8530
  869MOL0     C14583   7.564  -0.161   7.084 -0.3381 -0.3108  1.5602
  869MOL0     O14584   7.448  -0.180   7.006 -0.1801 -0.0115 -0.2043
  869MOL0     C14585   7.327  -0.131   7.065 -0.4801  0.2276 -0.7858
  869MOL0     C14586   7.211  -0.138   6.968  0.4875  0.4223 -0.5609
  869MOL0     C14587   7.237  -0.033   6.866  0.8563 -0.6143  0.3161
  869MOL0     C14588   7.159  -0.039   6.732 -0.5070 -0.7632  0.2252
  869MOL0     C14589   7.006  -0.031   6.764  0.4617  0.3181  0.3032
  869MOL0     C14590   6.933   0.034   6.648 -0.5429  0.1103 -0.4010
  869MOL0     C14591   6.903  -0.049   6.521  0.4241 -0.3871 -0.5808
  869MOL0     C14592   6.791   0.032   6.448  0.6601 -0.5519  0.5708
  869MOL0     N14593   6.659   0.016   6.520 -0.1726  0.0440 -0.0992
  869MOL0     C14594   6.601   0.118   6.582  0.5903  0.3035 -0.1902
  869MOL0     C14595   6.508   0.058   6.656 -0.0170 -0.5101 -0.9219
  869MOL0     C14596   6.413   0.141   6.738  0.3395 -0.1385 -0.0513
  869MOL0     C14597   6.477   0.205   6.865 -0.4357  0.2189  0.1293
  869MOL0     C14598   6.523   0.104   6.972  0.4720  0.6901 -0.9623
  869MOL0     C14599   6.672   0.112   7.002 -0.9391  0.3263 -0.2540
  869MOL0     O14600   6.698   0.027   7.115 -0.2451 -0.6319 -0.0569
  869MOL0     C14601   6.823   0.018   7.163 -1.2228  0.8202 -0.0162
  869MOL0     C14602   6.943   0.082   7.122  0.4633  0.8388 -0.2079
  869MOL0     C14603   7.062   0.081   7.204 -0.2521  0.3960  0.5843
  869MOL0     C14604   7.060   0.015   7.328 -0.5330 -0.2779  1.2401
  869MOL0     C14605   7.176   0.031   7.420 -0.0972 -0.0992  0.2196
  869MOL0     O14606   7.306   0.042   7.358  0.2501 -0.3830 -0.1920
  869MOL0     C14607   7.420   0.065   7.433 -0.1467 -1.0569 -0.0725
  869MOL0     C14608   7.523   0.131   7.363 -0.3608 -0.1810 -0.9436
  869MOL0     C14609   7.636   0.173   7.443  0.0745  0.1536  0.0649
  869MOL0     C14610   7.642   0.150   7.576 -0.5296  0.2883 -0.7340
  869MOL0     O14611   7.750   0.178   7.652 -0.1026 -0.0950 -0.9440
  869MOL0     C14612   7.871   0.101   7.626  0.2525 -0.0354  0.5019
  869MOL0     C14613   7.958   0.097   7.748 -0.8844 -0.0602  0.6495
  869MOL0     C14614   8.087   0.020   7.724 -0.2485  0.6370  0.3485
  869MOL0     C14615   8.187   0.013   7.844 -0.4147  0.9631  0.8410
  869MOL0     C14616   8.330  -0.038   7.820  0.1569 -0.7073  0.7694
  869MOL0     C14617   8.424  -0.011   7.940 -0.5772 -0.0811  0.7129
  869MOL0     C14618   8.562  -0.093   7.934 -1.4550 -0.1063  0.2324
  869MOL0     C14619   8.671  -0.045   8.030 -0.1093 -0.6354 -0.2792
  869MOL0    Cl14620   8.613  -0.055   8.199 -0.1183 -0.4484 -0.0634
  869MOL0     C14621   7.537   0.099   7.648  0.1712 -0.5199 -0.0108
  869MOL0     C14622   7.431   0.044   7.577  0.4032 -0.9017 -0.0442
  869MOL0     O14623   7.150   0.003   7.536 -0.0072 -0.2286  0.4788
  869MOL0     C14624   6.946  -0.056   7.362  0.0668 -0.3130  0.1465
  869MOL0     C14625   6.831  -0.059   7.284  0.2305 -0.0996 -0.3972
  869MOL0     N14626   6.524  -0.084   6.651  0.1649 -0.4014  1.0696
  869MOL0     N14627   6.620  -0.107   6.570  0.4505 -0.3804  0.8135
  869MOL0     C14628   7.567  -0.148   7.222 -0.0653  0.7749 -0.2394
  869MOL0     C14629   7.685  -0.155   7.300  0.4896  0.3315  0.4196
  869MOL0     C14630   8.134  -0.091   7.386 -0.0823  0.0637 -0.6372
  869MOL0     C14631   8.230   0.015   7.387  0.9059 -0.5629 -0.5473
  869MOL0     C14632   8.358  -0.013   7.441  0.3175 -0.3769  0.2345
  869MOL0     C14633   8.399  -0.136   7.500  0.1254  0.8261  0.7226
  869MOL0     O14634   8.527  -0.164   7.535 -0.3238 -0.0342  0.0232
  869MOL0     C14635   8.573  -0.298   7.560  0.0582 -0.0884 -0.2803
  869MOL0     C14636   8.726  -0.309   7.538 -0.2795 -0.6204  0.0694
  869MOL0     C14637   8.805  -0.251   7.657  0.0848  1.1628 -0.0719
  869MOL0     C14638   8.820  -0.341   7.773  0.2370  0.9534 -0.6631
  869MOL0     C14639   8.922  -0.295   7.875  0.1331 -0.1479  1.2431
  869MOL0     C14640   9.005  -0.264   7.962 -0.1025 -0.9834 -0.2378
  869MOL0     C14641   8.299  -0.240   7.495  0.0044 -0.6525 -0.0669
  869MOL0     C14642   8.173  -0.217   7.435 -0.6702 -0.9307  0.3233
  869MOL0     H14643   7.905  -0.142   7.035 -1.9584 -1.6878 -2.2940
  869MOL0     H14644   7.683  -0.146   6.910 -1.5763 -0.5037 -0.7643
  869MOL0     H14645   7.341  -0.031   7.107  2.6296 -0.7692  0.9072
  869MOL0     H14646   7.304  -0.198   7.148 -0.6785  2.1739  0.7946
  869MOL0     H14647   7.119  -0.120   7.024  1.6763 -1.9095  2.4176
  869MOL0     H14648   7.202  -0.238   6.925  1.7207 -1.4238  3.0781
  869MOL0     H14649   7.342  -0.039   6.834  0.8130 -2.1127  0.4081
  869MOL0     H14650   7.218   0.067   6.907  2.8012  0.8802 -2.1059
  869MOL0     H14651   7.190   0.047   6.672 -0.0269 -0.8361  0.3632
  869MOL0     H14652   7.190  -0.128   6.677  3.8213  2.1402 -2.6353
  869MOL0     H14653   6.986   0.023   6.857 -1.8426 -0.6941  0.4655
  869MOL0     H14654   6.975  -0.135   6.783  1.5944  0.5447  4.6453
  869MOL0     H14655   6.997   0.114   6.609 -2.9945  2.7001  0.5750
  869MOL0     H14656   6.840   0.081   6.679  0.6286  1.5645  1.0710
  869MOL0     H14657   6.999  -0.054   6.469  0.4056  1.5116 -0.8648
  869MOL0     H14658   6.867  -0.152   6.529  0.3406 -0.5552 -2.5073
  869MOL0     H14659   6.788  -0.007   6.346  2.3493 -0.0592  0.2923
  869MOL0     H14660   6.817   0.138   6.441 -4.0775  0.8793  1.5802
  869MOL0     H14661   6.616   0.225   6.581  0.0250  0.3862 -1.0957
  869MOL0     H14662   6.325   0.081   6.764 -1.1608  2.2006  0.4911
  869MOL0     H14663   6.382   0.219   6.669  3.4222  0.7626 -0.5890
  869MOL0     H14664   6.406   0.272   6.915 -0.1809  0.4568  0.1745
  869MOL0     H14665   6.563   0.266   6.835 -0.9363  0.6801 -0.4078
  869MOL0     H14666   6.469   0.117   7.066 -1.3522 -1.0243 -1.6965
  869MOL0     H14667   6.506  -0.001   6.944  0.7353  0.6588 -1.0041
  869MOL0     H14668   6.707   0.214   7.016  2.9374 -0.7633 -0.7619
  869MOL0     H14669   6.726   0.069   6.917 -2.0542  0.6307 -1.1318
  869MOL0     H14670   6.942   0.143   7.032  1.1208 -1.7344 -2.0959
  869MOL0     H14671   7.148   0.139   7.171  0.8346 -2.5631 -2.4435
  869MOL0     H14672   7.498   0.150   7.259 -0.5662 -0.9776 -1.0475
  869MOL0     H14673   7.719   0.224   7.393 -1.1873  1.0075 -1.2519
  869MOL0     H14674   7.922   0.157   7.548  3.0275  1.0635  2.9563
  869MOL0     H14675   7.854  -0.001   7.590  0.3318  1.2541 -3.7337
  869MOL0     H14676   7.899   0.055   7.829 -1.2003  1.4306  1.2191
  869MOL0     H14677   7.983   0.202   7.766 -1.4005 -0.0876  1.5851
  869MOL0     H14678   8.140   0.065   7.640 -0.7952 -0.2756 -0.5048
  869MOL0     H14679   8.053  -0.082   7.704 -0.1804  0.6332  0.2555
  869MOL0     H14680   8.198   0.118   7.873 -1.8790  1.2143  0.5575
  869MOL0     H14681   8.137  -0.035   7.929 -2.8940  1.4463 -0.2507
  869MOL0     H14682   8.363   0.017   7.732  0.3930 -3.0054 -0.6486
  869MOL0     H14683   8.332  -0.146   7.804  3.2488 -0.5034 -1.1311
  869MOL0     H14684   8.377  -0.047   8.032 -0.9174 -0.6275  0.3248
  869MOL0     H14685   8.444   0.097   7.945 -1.0410  0.1223 -1.1586
  869MOL0     H14686   8.543  -0.200   7.949 -1.5421  0.0582  1.4423
  869MOL0     H14687   8.601  -0.077   7.834 -0.1102 -0.8632  0.6087
  869MOL0     H14688   8.695   0.056   7.998  0.4420 -1.2916 -2.0623
  869MOL0     H14689   8.766  -0.100   8.024  1.9589  2.8186 -1.5517
  869MOL0     H14690   7.547   0.096   7.756  0.1833  2.2357  0.1434
  869MOL0     H14691   7.353  -0.004   7.636  0.8667 -0.7335  0.7236
  869MOL0     H14692   6.941  -0.106   7.458  2.0246  0.9283  0.9442
  869MOL0     H14693   6.758  -0.127   7.326  0.7838 -1.5662 -1.6959
  869MOL0     H14694   7.474  -0.148   7.278  2.0177  0.9347  3.5295
  869MOL0     H14695   7.683  -0.150   7.408  2.6915 -1.6263  0.6303
  869MOL0     H14696   8.224   0.113   7.340  0.7197  0.7279  2.0076
  869MOL0     H14697   8.426   0.071   7.435 -3.4598  3.1600  1.8658
  869MOL0     H14698   8.517  -0.364   7.493 -0.0706 -2.0486  1.6521
  869MOL0     H14699   8.544  -0.341   7.656  1.4386 -0.7371 -0.1409
  869MOL0     H14700   8.753  -0.414   7.522  1.3687  0.1662 -3.3727
  869MOL0     H14701   8.760  -0.267   7.442 -3.6107  0.0387 -0.9669
  869MOL0     H14702   8.757  -0.155   7.678  4.7298  4.0789 -1.1455
  869MOL0     H14703   8.905  -0.222   7.622  1.1941 -0.9366  1.1496
  869MOL0     H14704   8.721  -0.333   7.820  0.5470  2.2539 -0.1786
  869MOL0     H14705   8.846  -0.444   7.746 -1.6608 -0.0340  0.9978
  869MOL0     H14706   9.071  -0.220   8.035  0.3147 -2.0267  0.0373
  869MOL0     H14707   8.317  -0.339   7.536 -1.3578 -1.1745 -0.6898
  869MOL0     H14708   8.094  -0.291   7.449 -0.1940 -1.9798 -2.0855
  870MOL0     O14709  10.663   2.503   7.414  0.6316  0.5983  0.0947
  870MOL0     C14710  10.707   2.618   7.438  0.5716  0.1485 -0.1094
  870MOL0     O14711  10.636   2.729   7.446  0.4375 -0.0684  0.2529
  870MOL0     C14712  10.497   2.736   7.436  0.2599 -0.4165  0.9547
  870MOL0     C14713  10.409   2.657   7.510 -0.7258 -0.9137  0.1432
  870MOL0     C14714  10.266   2.666   7.499 -0.6685 -0.3699  0.4496
  870MOL0     C14715  10.211   2.769   7.423 -0.1700  0.4237 -0.6243
  870MOL0     O14716  10.073   2.782   7.436 -0.2657 -0.7447 -0.3221
  870MOL0     C14717  10.006   2.855   7.338 -1.1446  0.6284 -0.3500
  870MOL0     C14718   9.856   2.821   7.343  0.2044  0.4197  0.6750
  870MOL0     C14719   9.778   2.884   7.461 -0.0311 -0.5607 -0.4074
  870MOL0     C14720   9.673   2.988   7.436 -0.3511  1.3384  0.1149
  870MOL0     C14721   9.613   3.045   7.569  0.0794  0.0085  0.0823
  870MOL0     C14722   9.703   3.140   7.651  0.8595  0.6388 -0.2683
  870MOL0     C14723   9.645   3.134   7.793 -0.0261 -0.9152 -0.4160
  870MOL0     C14724   9.681   3.260   7.869 -1.0645  0.0170 -0.0025
  870MOL0     N14725   9.599   3.268   7.992  0.0463  0.1786  0.0024
  870MOL0     C14726   9.614   3.201   8.117 -0.5409  0.0983 -0.0720
  870MOL0     C14727   9.514   3.244   8.191 -0.4934  0.3948  0.7551
  870MOL0     C14728   9.489   3.191   8.331 -0.7755 -0.7414  0.4502
  870MOL0     C14729   9.391   3.069   8.319 -0.6389  0.2688  0.4327
  870MOL0     C14730   9.251   3.122   8.298  0.6193  0.6674 -0.2324
  870MOL0     C14731   9.146   3.039   8.364  0.6321  0.2866 -1.2617
  870MOL0     O14732   9.098   3.104   8.484 -0.2930  0.0756 -0.2004
  870MOL0     C14733   8.960   3.116   8.493  0.1546  0.1136  0.5257
  870MOL0     C14734   8.898   3.230   8.547 -0.5977 -0.4633 -0.3999
  870MOL0     C14735   8.760   3.241   8.558  0.2679 -0.1028 -0.6421
  870MOL0     C14736   8.667   3.139   8.532  0.3596 -0.7262  0.2857
  870MOL0     C14737   8.520   3.150   8.559  0.1664 -0.6908  0.2246
  870MOL0     O14738   8.458   3.033   8.573  0.1957  0.7836  0.4451
  870MOL0     C14739   8.324   3.011   8.587 -0.2638 -0.0154 -0.7348
  870MOL0     C14740   8.230   3.103   8.638 -0.1484 -0.8340  0.0562
  870MOL0     C14741   8.096   3.067   8.651  0.2121 -0.5150 -0.0479
  870MOL0     C14742   8.055   2.941   8.615  0.1893  0.0194 -1.0456
  870MOL0     O14743   7.928   2.894   8.618  0.4162  0.0215 -0.2194
  870MOL0     C14744   7.834   2.957   8.715  0.0130  0.3334  0.0392
  870MOL0     C14745   7.720   2.863   8.735  0.0159  0.4842  0.0704
  870MOL0     C14746   7.644   2.886   8.867 -0.5104 -0.0566  0.0003
  870MOL0     C14747   7.491   2.848   8.847  0.4788  0.8760 -0.8890
  870MOL0     C14748   7.402   2.853   8.960  0.2349  0.2597 -0.0689
  870MOL0     C14749   7.257   2.854   8.910 -0.4108 -0.7211  0.0238
  870MOL0     C14750   7.148   2.815   9.016  0.9282  0.1832  1.0630
  870MOL0     C14751   7.169   2.872   9.152 -1.1086  0.0858  0.4495
  870MOL0    Cl14752   7.152   3.049   9.129  0.1729  0.3035  0.0731
  870MOL0     C14753   8.154   2.848   8.564  0.6233  0.1888  0.0710
  870MOL0     C14754   8.285   2.879   8.561 -0.0917  0.1897  0.2332
  870MOL0     O14755   8.469   3.262   8.559  0.2239 -0.3614 -0.7187
  870MOL0     C14756   8.730   3.027   8.470 -0.2799 -0.4770  1.6630
  870MOL0     C14757   8.868   3.017   8.448 -0.6520 -1.0380  0.1221
  870MOL0     N14758   9.432   3.319   8.114  0.5842 -0.4297  1.0358
  870MOL0     N14759   9.479   3.331   7.993  0.8056  0.6149 -0.5079
  870MOL0     C14760  10.295   2.846   7.349  0.4416  0.3066 -0.8461
  870MOL0     C14761  10.433   2.834   7.353 -0.1830  0.4422  0.9927
  870MOL0     C14762  10.852   2.631   7.462  0.4042 -0.4362  0.0517
  870MOL0     C14763  10.908   2.761   7.471 -0.7922 -0.2510 -0.6573
  870MOL0     C14764  11.046   2.769   7.503  0.9320 -0.8911 -0.7966
  870MOL0     C14765  11.124   2.666   7.546 -0.5730 -0.2282  0.9796
  870MOL0     O14766  11.250   2.697   7.605  0.4404 -0.5136  0.0990
  870MOL0     C14767  11.327   2.586   7.645 -0.1685  0.2924  0.4120
  870MOL0     C14768  11.470   2.619   7.676  0.9193 -0.4504 -0.0261
  870MOL0     C14769  11.480   2.716   7.786 -0.3451  0.5243 -0.8397
  870MOL0     C14770  11.628   2.731   7.828 -1.0200 -0.7314 -0.7511
  870MOL0     C14771  11.714   2.766   7.721  0.0832  0.4034 -0.4050
  870MOL0     C14772  11.794   2.797   7.632 -0.4781  0.8363 -0.1665
  870MOL0     C14773  11.061   2.537   7.532  0.3971 -0.5882 -0.4848
  870MOL0     C14774  10.931   2.522   7.491  0.3255 -0.1478 -0.0728
  870MOL0     H14775  10.457   2.589   7.580  0.6046  0.5627  0.7371
  870MOL0     H14776  10.200   2.614   7.567 -0.2762  0.0162  1.1390
  870MOL0     H14777  10.055   2.828   7.244  1.4907  1.7363  0.6259
  870MOL0     H14778  10.029   2.962   7.345  1.4519  0.1384 -0.2580
  870MOL0     H14779   9.846   2.712   7.342 -0.0800  0.3726  2.9858
  870MOL0     H14780   9.807   2.859   7.253 -2.9186 -0.4359  1.8878
  870MOL0     H14781   9.852   2.926   7.529 -1.3761 -0.1889  0.8679
  870MOL0     H14782   9.727   2.799   7.508  0.5921  0.0298  1.4307
  870MOL0     H14783   9.718   3.065   7.373  0.8234 -1.2041 -2.3715
  870MOL0     H14784   9.599   2.945   7.368  1.4888  0.0839 -1.2205
  870MOL0     H14785   9.595   2.956   7.631 -1.6252 -1.8938 -2.9353
  870MOL0     H14786   9.517   3.088   7.542 -0.3928 -2.6619 -3.0883
  870MOL0     H14787   9.704   3.235   7.598 -0.7441  1.6580  1.3880
  870MOL0     H14788   9.805   3.103   7.639  1.1132  1.2300  0.0284
  870MOL0     H14789   9.535   3.138   7.790  0.0109 -0.4602 -1.5755
  870MOL0     H14790   9.676   3.043   7.846  1.0920  0.4579  1.3906
  870MOL0     H14791   9.659   3.344   7.802  0.4567 -0.1236 -0.7229
  870MOL0     H14792   9.790   3.264   7.885 -1.1842 -3.6415  3.0501
  870MOL0     H14793   9.692   3.128   8.137 -1.0915 -1.0020 -1.6547
  870MOL0     H14794   9.460   3.280   8.387  0.5905  0.9768 -1.4068
  870MOL0     H14795   9.582   3.160   8.378 -0.0363 -0.3924 -0.7407
  870MOL0     H14796   9.391   3.007   8.409  0.0698  0.6145  0.6754
  870MOL0     H14797   9.413   3.001   8.236 -0.8433 -0.2154  0.7674
  870MOL0     H14798   9.237   3.223   8.339 -2.1183 -0.4405  1.8903
  870MOL0     H14799   9.223   3.131   8.193 -3.1038 -2.1399  0.3050
  870MOL0     H14800   9.172   2.934   8.377  1.4942  0.7966  2.0640
  870MOL0     H14801   9.059   3.035   8.297 -0.9185  0.2592  0.6554
  870MOL0     H14802   8.955   3.306   8.601 -1.4917 -1.5875  2.3262
  870MOL0     H14803   8.720   3.336   8.593 -0.5420 -1.0400  1.1035
  870MOL0     H14804   8.255   3.206   8.662 -0.2777 -1.4463  3.1986
  870MOL0     H14805   8.023   3.140   8.684 -0.3870 -0.3481 -1.6490
  870MOL0     H14806   7.802   3.053   8.674  0.3861 -0.0308 -1.1497
  870MOL0     H14807   7.875   2.965   8.816  0.9754 -1.5658 -0.1485
  870MOL0     H14808   7.758   2.762   8.719 -1.0245 -0.2154  1.7353
  870MOL0     H14809   7.657   2.888   8.648 -0.2524  3.0038  0.8961
  870MOL0     H14810   7.656   2.990   8.898 -0.1807 -0.1209  0.0924
  870MOL0     H14811   7.686   2.831   8.952 -0.1829  0.2708  0.0498
  870MOL0     H14812   7.451   2.914   8.770 -1.3801 -1.8840 -2.4838
  870MOL0     H14813   7.485   2.747   8.805 -1.2639  0.5368  0.0984
  870MOL0     H14814   7.412   2.951   9.007 -1.4146  0.8683 -0.9051
  870MOL0     H14815   7.417   2.771   9.031 -2.1102 -0.9788 -0.8951
  870MOL0     H14816   7.241   2.796   8.818  0.2045 -1.9424  0.6588
  870MOL0     H14817   7.227   2.956   8.886 -0.1706  0.1331  3.0301
  870MOL0     H14818   7.047   2.838   8.979  0.6169  0.1047  1.8466
  870MOL0     H14819   7.156   2.707   9.031 -0.7874 -0.0991  0.1818
  870MOL0     H14820   7.267   2.853   9.196 -0.9516  0.4721  0.2724
  870MOL0     H14821   7.096   2.833   9.223  0.0199 -1.3899  0.8472
  870MOL0     H14822   8.122   2.745   8.562 -0.9825  0.5458  2.5669
  870MOL0     H14823   8.360   2.804   8.538  1.5889  0.7407  3.3476
  870MOL0     H14824   8.665   2.942   8.453 -0.5969 -0.3065  2.0017
  870MOL0     H14825   8.904   2.926   8.402 -3.2675 -2.4647  0.7163
  870MOL0     H14826  10.249   2.930   7.296 -0.1931  0.7744  0.3952
  870MOL0     H14827  10.485   2.904   7.288 -2.4605 -0.2712 -1.8400
  870MOL0     H14828  10.847   2.850   7.454 -0.0553  0.4282  0.1391
  870MOL0     H14829  11.105   2.860   7.507  3.2228 -2.3438  0.8046
  870MOL0     H14830  11.332   2.506   7.570 -0.2118  2.9914 -2.6822
  870MOL0     H14831  11.276   2.545   7.733  0.7981  1.0383  1.3462
  870MOL0     H14832  11.530   2.530   7.699  2.6337 -0.6018 -4.1543
  870MOL0     H14833  11.511   2.662   7.584 -0.0685 -1.1961 -0.8294
  870MOL0     H14834  11.430   2.673   7.873  0.1744  1.7145  0.0703
  870MOL0     H14835  11.433   2.810   7.756 -0.5600  0.2102 -1.5189
  870MOL0     H14836  11.623   2.809   7.903  2.0944  0.1101 -1.2958
  870MOL0     H14837  11.664   2.632   7.859  0.6699  0.3109  0.7847
  870MOL0     H14838  11.860   2.815   7.549  2.1843  0.0855  1.6890
  870MOL0     H14839  11.122   2.451   7.562  2.9790  1.4218  0.4395
  870MOL0     H14840  10.908   2.417   7.476  0.8600 -0.0406 -1.9279
  871MOL0     O14841   5.555   4.289   4.470  0.1224 -0.5993 -0.1848
  871MOL0     C14842   5.622   4.194   4.518 -0.3363 -0.1315  0.4916
  871MOL0     O14843   5.586   4.065   4.538 -0.0409 -0.2093  0.0373
  871MOL0     C14844   5.479   4.009   4.473  0.1475  0.5513  0.6111
  871MOL0     C14845   5.478   3.871   4.430  0.1161 -1.0549 -0.7054
  871MOL0     C14846   5.361   3.815   4.374 -0.6300 -0.1963 -0.1018
  871MOL0     C14847   5.242   3.881   4.383 -0.1467 -0.1480 -0.3569
  871MOL0     O14848   5.124   3.820   4.355  0.1592 -0.5364 -0.6679
  871MOL0     C14849   5.126   3.688   4.297 -0.8685  0.0122  0.4505
  871MOL0     C14850   4.988   3.651   4.241  0.6046  0.8179 -0.1351
  871MOL0     C14851   4.951   3.733   4.109 -0.0352  0.4549 -0.6104
  871MOL0     C14852   4.802   3.722   4.105 -0.3840  0.3768 -0.3600
  871MOL0     C14853   4.740   3.688   3.963 -0.3253 -0.7393 -0.2667
  871MOL0     C14854   4.773   3.797   3.858 -0.4854  0.0483 -0.0494
  871MOL0     C14855   4.691   3.770   3.731 -0.4598  0.1027 -0.2508
  871MOL0     C14856   4.557   3.844   3.732 -0.2834 -0.7384 -0.0628
  871MOL0     N14857   4.459   3.790   3.828  0.1476 -0.2131 -0.4014
  871MOL0     C14858   4.379   3.678   3.806  0.4159  0.9946 -0.0964
  871MOL0     C14859   4.335   3.652   3.932  0.8166  0.2077  0.3368
  871MOL0     C14860   4.230   3.542   3.970  0.1944 -0.3228  1.0662
  871MOL0     C14861   4.093   3.566   3.893 -0.2056  1.2664 -0.6671
  871MOL0     C14862   4.011   3.673   3.980 -0.0665  0.1640 -0.2338
  871MOL0     C14863   3.888   3.729   3.911  0.8452 -0.2902 -0.0423
  871MOL0     O14864   3.833   3.634   3.812 -0.0412 -0.5150 -0.7448
  871MOL0     C14865   3.729   3.550   3.853 -0.2871  0.1078 -0.2778
  871MOL0     C14866   3.646   3.489   3.754  0.3950 -0.5276  0.4843
  871MOL0     C14867   3.547   3.396   3.801 -0.8368  0.8873  0.6506
  871MOL0     C14868   3.523   3.368   3.932  0.2013 -0.1665 -0.0668
  871MOL0     C14869   3.419   3.269   3.968 -0.3714  0.4325  0.9594
  871MOL0     O14870   3.330   3.238   3.874 -0.0475 -0.2529 -0.1289
  871MOL0     C14871   3.214   3.195   3.926  0.1426 -0.0751 -0.4134
  871MOL0     C14872   3.095   3.273   3.926 -0.4059 -0.8124  0.9870
  871MOL0     C14873   2.975   3.230   3.983  0.5019  0.1762 -0.0724
  871MOL0     C14874   2.967   3.099   4.024  0.2852  0.1253 -0.0477
  871MOL0     O14875   2.847   3.066   4.078 -0.3722 -0.1663 -0.0766
  871MOL0     C14876   2.811   2.942   4.021  0.0669 -0.0773  0.8991
  871MOL0     C14877   2.662   2.918   4.026  0.7823  0.7156  0.0172
  871MOL0     C14878   2.624   2.792   3.946 -0.8913  0.9131  0.2173
  871MOL0     C14879   2.486   2.741   3.977  0.1496 -0.6175 -0.2560
  871MOL0     C14880   2.428   2.644   3.871 -0.2171 -0.1805  0.1565
  871MOL0     C14881   2.355   2.527   3.926  0.6279  0.0192  0.0608
  871MOL0     C14882   2.227   2.566   3.992  0.0299  0.4470 -0.8805
  871MOL0     C14883   2.163   2.441   4.048  0.9164  0.6495  0.1771
  871MOL0    Cl14884   2.122   2.310   3.928 -0.0612  0.1297 -0.0688
  871MOL0     C14885   3.078   3.017   4.022 -0.5211  0.2471  0.5574
  871MOL0     C14886   3.199   3.062   3.967 -0.0552 -0.2915  0.3009
  871MOL0     O14887   3.416   3.233   4.086 -0.2970  0.3433  0.1204
  871MOL0     C14888   3.599   3.431   4.034  0.4311  0.0690  0.3479
  871MOL0     C14889   3.700   3.522   3.990  0.0035  0.3447 -0.0910
  871MOL0     N14890   4.377   3.744   4.020  0.4805 -0.1992 -0.7083
  871MOL0     N14891   4.445   3.829   3.961 -0.7929  0.6087  0.6912
  871MOL0     C14892   5.243   4.020   4.415 -0.0054  0.6395 -1.5094
  871MOL0     C14893   5.359   4.076   4.458 -0.1062  0.5952  0.4770
  871MOL0     C14894   5.752   4.224   4.576 -0.0905  0.3549  0.9549
  871MOL0     C14895   5.803   4.357   4.576  0.4491  0.3954  0.9061
  871MOL0     C14896   5.939   4.371   4.628  0.5585  0.6036  0.6574
  871MOL0     C14897   6.020   4.269   4.679 -0.5972  0.9819  0.0144
  871MOL0     O14898   6.147   4.287   4.713 -0.4180 -0.1056 -0.2946
  871MOL0     C14899   6.204   4.415   4.712 -0.8039  0.3102 -0.1171
  871MOL0     C14900   6.164   4.499   4.841  0.3316 -0.0793 -0.1485
  871MOL0     C14901   6.182   4.426   4.971  0.4133 -0.3205 -0.3627
  871MOL0     C14902   6.240   4.514   5.078 -0.2449  0.5883  0.2058
  871MOL0     C14903   6.386   4.537   5.079 -0.6979 -0.2833  0.5384
  871MOL0     C14904   6.510   4.549   5.088 -0.0456  0.3316  0.8092
  871MOL0     C14905   5.963   4.139   4.672  0.4918 -0.5914  0.1025
  871MOL0     C14906   5.833   4.120   4.619 -0.2647  0.1246 -0.8760
  871MOL0     H14907   5.578   3.828   4.432  2.0870  3.1144 -0.3705
  871MOL0     H14908   5.379   3.715   4.334  2.0284 -0.1593  0.8299
  871MOL0     H14909   5.158   3.617   4.374  0.9290  2.4694  2.1235
  871MOL0     H14910   5.206   3.681   4.224  1.2935  1.7955  2.5062
  871MOL0     H14911   4.908   3.649   4.315 -0.1001  0.0134 -0.8932
  871MOL0     H14912   5.008   3.546   4.217  0.4835  0.9669 -0.9161
  871MOL0     H14913   4.997   3.682   4.024  2.3576  2.7637 -0.8038
  871MOL0     H14914   4.987   3.835   4.125  1.3425 -0.1399  0.2993
  871MOL0     H14915   4.770   3.644   4.175  2.9483  0.1592  1.1287
  871MOL0     H14916   4.770   3.818   4.145  1.5447 -0.1474  2.8123
  871MOL0     H14917   4.633   3.667   3.969 -0.1893 -1.5234 -0.4318
  871MOL0     H14918   4.778   3.589   3.937 -0.1993 -0.9532  0.6858
  871MOL0     H14919   4.878   3.777   3.835  0.8632  3.0839  2.7233
  871MOL0     H14920   4.764   3.900   3.896 -1.0484  0.4684 -1.2558
  871MOL0     H14921   4.755   3.797   3.647  1.5400  1.4684  1.6165
  871MOL0     H14922   4.674   3.662   3.724  1.2993 -0.2195  0.0343
  871MOL0     H14923   4.513   3.842   3.632 -0.7077 -1.8074  0.1351
  871MOL0     H14924   4.572   3.950   3.759 -0.1102 -1.2300  1.9878
  871MOL0     H14925   4.367   3.636   3.706 -1.2378  0.9701  0.0874
  871MOL0     H14926   4.217   3.535   4.079  1.3197  0.9413  1.3047
  871MOL0     H14927   4.269   3.446   3.934 -0.3977  0.4841 -2.0016
  871MOL0     H14928   4.050   3.466   3.907  0.9930  0.3508 -3.0268
  871MOL0     H14929   4.110   3.591   3.788 -1.2182 -0.4242 -1.2630
  871MOL0     H14930   3.976   3.624   4.071 -2.3506 -2.1429 -2.1628
  871MOL0     H14931   4.086   3.751   3.996  1.3842 -1.0668 -0.7502
  871MOL0     H14932   3.923   3.810   3.848  1.0010 -0.2497  0.0974
  871MOL0     H14933   3.810   3.761   3.981 -0.3452 -0.2053 -1.3430
  871MOL0     H14934   3.657   3.504   3.647 -1.1730  1.0409  0.4991
  871MOL0     H14935   3.518   3.334   3.718  1.8104  0.7924 -0.3054
  871MOL0     H14936   3.099   3.370   3.878 -2.4794 -1.6084 -0.9868
  871MOL0     H14937   2.880   3.283   3.985  0.5187  0.2558 -0.8909
  871MOL0     H14938   2.850   2.859   4.081 -0.7046 -1.9340 -1.0385
  871MOL0     H14939   2.856   2.924   3.923 -1.6941 -0.3400  0.0996
  871MOL0     H14940   2.610   3.007   3.990 -0.7199  0.0105  0.3680
  871MOL0     H14941   2.629   2.900   4.128  3.5048 -2.1314  0.5480
  871MOL0     H14942   2.700   2.714   3.943 -0.5165  1.3009 -2.0579
  871MOL0     H14943   2.627   2.809   3.838  0.9308 -4.3097 -0.8490
  871MOL0     H14944   2.490   2.700   4.079 -2.2745  0.5510  0.3973
  871MOL0     H14945   2.416   2.825   3.987 -0.1940 -0.8563 -0.6149
  871MOL0     H14946   2.508   2.609   3.804  1.5315  2.0011  0.9818
  871MOL0     H14947   2.366   2.706   3.807  0.4908  0.5652  0.1706
  871MOL0     H14948   2.419   2.481   4.002 -0.6254  1.3020  1.9649
  871MOL0     H14949   2.342   2.456   3.843 -1.4334  3.4734 -2.8368
  871MOL0     H14950   2.247   2.631   4.078 -0.1270  0.3909 -0.8015
  871MOL0     H14951   2.163   2.623   3.925  0.3067  1.1075 -0.5938
  871MOL0     H14952   2.075   2.480   4.100  0.3132  0.2343 -0.5218
  871MOL0     H14953   2.228   2.392   4.122  0.9265 -1.6082 -1.2138
  871MOL0     H14954   3.064   2.921   4.071  2.9299 -0.2210  0.8531
  871MOL0     H14955   3.284   2.995   3.953 -0.2578 -1.0077  2.2573
  871MOL0     H14956   3.563   3.414   4.135  0.3936  0.5867  0.4269
  871MOL0     H14957   3.761   3.558   4.072  1.6280  2.9757 -2.2809
  871MOL0     H14958   5.155   4.082   4.402 -1.2256 -0.3654  1.2572
  871MOL0     H14959   5.342   4.179   4.487 -0.0414  0.4638  0.9854
  871MOL0     H14960   5.736   4.435   4.540 -0.3707  0.7214  3.0024
  871MOL0     H14961   5.980   4.471   4.628  1.9907  0.1376 -2.8925
  871MOL0     H14962   6.180   4.466   4.618 -0.4983 -3.0331 -2.1826
  871MOL0     H14963   6.311   4.393   4.712 -0.8556 -0.0522 -1.4350
  871MOL0     H14964   6.231   4.585   4.834 -2.4592  2.2308 -0.6971
  871MOL0     H14965   6.059   4.530   4.842  0.3911  0.1234 -0.0364
  871MOL0     H14966   6.256   4.348   4.948  0.6688 -0.0122 -0.5846
  871MOL0     H14967   6.088   4.382   5.007 -0.7498  3.5438  1.8607
  871MOL0     H14968   6.192   4.612   5.072 -1.3161  0.1530  1.2424
  871MOL0     H14969   6.214   4.474   5.177  0.1319  0.2499  0.1698
  871MOL0     H14970   6.617   4.549   5.090  0.0701 -1.2327 -1.5327
  871MOL0     H14971   6.033   4.063   4.706  0.8620 -0.2840  0.0376
  871MOL0     H14972   5.807   4.015   4.616 -1.9419  0.4141  1.2115
  872MOL0     O14973   3.500   2.742   2.088  0.2767 -0.3065  0.0994
  872MOL0     C14974   3.536   2.846   2.032  1.4199 -0.4974 -0.5725
  872MOL0     O14975   3.453   2.929   1.970 -0.3933 -0.7096 -0.2575
  872MOL0     C14976   3.320   2.900   1.970 -0.4012  0.0023 -0.2993
  872MOL0     C14977   3.237   3.000   2.012 -0.3086  0.2757  0.0838
  872MOL0     C14978   3.103   2.979   2.024 -0.3817  0.2621 -0.2396
  872MOL0     C14979   3.046   2.857   1.988  0.9903 -0.3656  0.2211
  872MOL0     O14980   2.909   2.848   1.997 -1.0308 -0.5288  0.3429
  872MOL0     C14981   2.868   2.732   2.069 -0.5104  0.2215  0.1796
  872MOL0     C14982   2.726   2.737   2.098 -0.3936  0.4199 -0.0380
  872MOL0     C14983   2.683   2.597   2.161 -0.3521 -0.3641 -0.1428
  872MOL0     C14984   2.537   2.567   2.145  0.3233 -0.1264 -0.5059
  872MOL0     C14985   2.507   2.448   2.223  0.6263  0.3565 -0.1146
  872MOL0     C14986   2.357   2.421   2.241  0.5182  0.5329 -0.3717
  872MOL0     C14987   2.274   2.540   2.295 -0.3170  0.2236 -0.3228
  872MOL0     C14988   2.295   2.564   2.443 -0.3221 -0.5602  0.5307
  872MOL0     N14989   2.210   2.478   2.529 -0.3412  0.3388  0.1123
  872MOL0     C14990   2.255   2.365   2.575 -0.2885  0.0165  0.6488
  872MOL0     C14991   2.159   2.319   2.660  0.2320  0.7116  0.3737
  872MOL0     C14992   2.156   2.191   2.737  0.6004  0.7980 -0.5357
  872MOL0     C14993   2.275   2.096   2.709 -1.4255  0.3245  0.4125
  872MOL0     C14994   2.262   1.982   2.809  0.1591 -0.2125  0.1966
  872MOL0     C14995   2.149   1.885   2.792  0.5744 -0.3611  0.4742
  872MOL0     O14996   2.139   1.782   2.895  0.4390 -0.4067 -0.3210
  872MOL0     C14997   2.073   1.827   3.008  0.1224 -0.6407  0.6367
  872MOL0     C14998   2.009   1.950   3.031 -0.4883  0.0729 -0.1277
  872MOL0     C14999   1.963   1.986   3.155 -0.1987 -0.4360  1.0527
  872MOL0     C15000   1.953   1.888   3.257 -0.3933 -0.2625  0.2436
  872MOL0     C15001   1.911   1.928   3.394 -0.9785 -0.9653 -0.0450
  872MOL0     O15002   1.939   1.842   3.494  0.2846  0.1256 -0.6292
  872MOL0     C15003   1.912   1.874   3.628 -0.0134  0.2269  0.5306
  872MOL0     C15004   1.909   1.998   3.687  0.8053  0.5990  0.8065
  872MOL0     C15005   1.886   2.014   3.827  0.1344 -0.0099 -0.6835
  872MOL0     C15006   1.850   1.901   3.899  0.1185  1.1658  0.4461
  872MOL0     O15007   1.795   1.910   4.030  0.5752  1.0610  0.3061
  872MOL0     C15008   1.704   1.816   4.093  0.6913 -0.4259  0.7993
  872MOL0     C15009   1.605   1.887   4.185  0.0273 -0.2298  0.3740
  872MOL0     C15010   1.502   1.946   4.091  0.5766 -0.6445 -0.2794
  872MOL0     C15011   1.382   1.997   4.178  0.8624  0.2769  0.2609
  872MOL0     C15012   1.263   2.034   4.093 -0.1733 -0.4068 -0.3213
  872MOL0     C15013   1.138   2.100   4.158 -0.3579  0.3024 -0.1278
  872MOL0     C15014   1.003   2.064   4.095  0.2250 -0.1831  0.0616
  872MOL0     C15015   0.880   2.139   4.155  0.1053  0.2986 -0.1313
  872MOL0    Cl15016   0.839   2.107   4.336  0.1956  0.1283 -0.2332
  872MOL0     C15017   1.855   1.779   3.845 -0.5251  0.3562 -0.2516
  872MOL0     C15018   1.889   1.767   3.712  0.6075  0.2564  0.4176
  872MOL0     O15019   1.861   2.043   3.411  0.4322 -0.5851 -0.1920
  872MOL0     C15020   2.001   1.758   3.230 -0.7114 -0.0707  0.0836
  872MOL0     C15021   2.069   1.736   3.114  0.3368 -0.0659 -0.3805
  872MOL0     N15022   2.055   2.409   2.659  0.0367 -0.5498  0.2776
  872MOL0     N15023   2.089   2.512   2.576 -0.1515  1.0148  0.2451
  872MOL0     C15024   3.130   2.762   1.935  0.1127  0.4873 -0.0896
  872MOL0     C15025   3.267   2.778   1.933 -0.4611  0.1298 -0.5118
  872MOL0     C15026   3.682   2.870   2.025  0.3733 -1.2029 -0.7806
  872MOL0     C15027   3.769   2.798   2.109 -0.7373 -0.4386  0.3477
  872MOL0     C15028   3.908   2.834   2.113  0.2793  1.0364 -0.0279
  872MOL0     C15029   3.951   2.952   2.052  0.4253 -0.2715  0.2943
  872MOL0     O15030   4.074   3.009   2.053  0.1915 -0.5588 -0.3378
  872MOL0     C15031   4.178   2.945   2.130 -0.2816 -0.1195 -0.7796
  872MOL0     C15032   4.307   3.018   2.156  0.4241 -0.2378  0.2916
  872MOL0     C15033   4.271   3.166   2.195 -0.4925  0.0573  0.0129
  872MOL0     C15034   4.395   3.245   2.244 -0.3253 -0.1798 -0.6059
  872MOL0     C15035   4.417   3.229   2.395 -0.2136 -0.3214  1.0278
  872MOL0     C15036   4.442   3.237   2.511 -0.3150  0.2857  0.2541
  872MOL0     C15037   3.859   3.032   1.983  1.2434  0.4128 -0.0083
  872MOL0     C15038   3.727   2.990   1.963  0.1713 -0.1050 -0.1681
  872MOL0     H15039   3.282   3.097   2.027  2.8958 -1.1620  0.5326
  872MOL0     H15040   3.036   3.060   2.052 -0.4210  0.1816 -0.1012
  872MOL0     H15041   2.923   2.703   2.159 -2.6330 -1.2066  1.0864
  872MOL0     H15042   2.887   2.648   2.002 -0.6724  0.0596  0.3375
  872MOL0     H15043   2.663   2.742   2.009 -0.5612 -1.8852 -0.1055
  872MOL0     H15044   2.698   2.817   2.168  1.6408 -0.0005  1.3452
  872MOL0     H15045   2.707   2.601   2.267 -0.8420 -0.8426 -0.0095
  872MOL0     H15046   2.734   2.509   2.122  0.3286 -0.2977  0.5666
  872MOL0     H15047   2.473   2.648   2.182 -0.7184 -0.0758 -2.2996
  872MOL0     H15048   2.508   2.544   2.042 -0.6447 -1.6247  0.0533
  872MOL0     H15049   2.554   2.451   2.322 -1.6004  1.2670  0.9759
  872MOL0     H15050   2.534   2.365   2.157 -1.2590  0.7061 -1.4111
  872MOL0     H15051   2.355   2.331   2.302  4.3571 -0.8706 -2.0130
  872MOL0     H15052   2.303   2.395   2.149 -0.7479  2.0990 -0.1197
  872MOL0     H15053   2.280   2.634   2.238 -0.8469 -0.0206 -0.7980
  872MOL0     H15054   2.168   2.513   2.290  0.4545 -3.4298  0.2962
  872MOL0     H15055   2.281   2.672   2.452 -5.4780 -0.2532 -4.8189
  872MOL0     H15056   2.400   2.539   2.463  0.6298  1.2555 -1.6883
  872MOL0     H15057   2.358   2.330   2.569 -0.5561 -0.9931  1.5868
  872MOL0     H15058   2.063   2.141   2.711  0.5750  1.2822 -1.4146
  872MOL0     H15059   2.158   2.224   2.841  0.9972  2.6174 -1.0850
  872MOL0     H15060   2.376   2.138   2.713 -0.4198 -1.7633 -0.9983
  872MOL0     H15061   2.262   2.045   2.613 -0.2252 -0.1726  0.4968
  872MOL0     H15062   2.354   1.922   2.805 -0.2132 -0.7559 -0.4869
  872MOL0     H15063   2.257   2.029   2.907 -2.2970 -1.6334  0.8403
  872MOL0     H15064   2.165   1.836   2.696  3.2853  0.8950  0.2063
  872MOL0     H15065   2.058   1.944   2.777  0.9258 -0.0232 -0.3700
  872MOL0     H15066   2.004   2.032   2.960 -2.6355 -1.3757 -1.7887
  872MOL0     H15067   1.936   2.090   3.170 -0.3674 -0.5989  1.9785
  872MOL0     H15068   1.922   2.083   3.621  1.5146  0.3505  0.6179
  872MOL0     H15069   1.872   2.110   3.876  0.3035 -0.6768  0.7167
  872MOL0     H15070   1.769   1.752   4.152  2.4024  0.0370 -0.5058
  872MOL0     H15071   1.651   1.759   4.016 -0.6885  1.9133 -0.0725
  872MOL0     H15072   1.653   1.966   4.243  0.8541 -0.4520  0.0085
  872MOL0     H15073   1.574   1.813   4.260  2.2196 -0.6040  0.9832
  872MOL0     H15074   1.468   1.872   4.018  0.6824 -1.3912  0.4117
  872MOL0     H15075   1.547   2.028   4.035 -0.5628 -1.1170 -1.9580
  872MOL0     H15076   1.335   1.925   4.246  0.2483  0.4735  0.0438
  872MOL0     H15077   1.419   2.078   4.241 -1.6732  0.6297  1.3943
  872MOL0     H15078   1.222   1.945   4.043 -2.2252  0.4098 -0.1979
  872MOL0     H15079   1.311   2.100   4.020  1.4863  0.0966  1.1709
  872MOL0     H15080   1.156   2.206   4.137 -1.9477  0.1948 -2.3698
  872MOL0     H15081   1.134   2.084   4.266 -1.5680 -1.3275 -0.3734
  872MOL0     H15082   1.000   2.098   3.992 -0.9568  2.3894  0.8509
  872MOL0     H15083   0.987   1.955   4.100  0.3952 -0.2021  0.2056
  872MOL0     H15084   0.797   2.113   4.088  0.7433  1.1515 -1.2758
  872MOL0     H15085   0.914   2.243   4.151 -0.8771  0.6951  1.0827
  872MOL0     H15086   1.822   1.691   3.899  1.3928 -1.6995 -2.2078
  872MOL0     H15087   1.892   1.668   3.666  0.7624  0.0008  0.9698
  872MOL0     H15088   1.998   1.683   3.309 -0.7964  1.2309  1.3598
  872MOL0     H15089   2.117   1.639   3.099  1.5569  0.5116 -0.3745
  872MOL0     H15090   3.083   2.668   1.907 -0.1432  0.9008 -1.0826
  872MOL0     H15091   3.324   2.695   1.891 -0.6101 -0.0032 -0.4506
  872MOL0     H15092   3.736   2.707   2.158  0.3084 -0.9718  0.0757
  872MOL0     H15093   3.971   2.766   2.169 -3.2451 -2.2169  0.3730
  872MOL0     H15094   4.210   2.853   2.080  1.2123 -0.3523  0.5233
  872MOL0     H15095   4.133   2.913   2.225 -1.4647  3.3875 -0.0113
  872MOL0     H15096   4.367   2.962   2.229  1.7409 -1.8741 -1.9156
  872MOL0     H15097   4.372   3.010   2.068 -0.4492 -0.8408 -0.3122
  872MOL0     H15098   4.187   3.183   2.264 -1.1273  1.3632 -1.0343
  872MOL0     H15099   4.235   3.209   2.101 -1.6422 -0.4711  0.1934
  872MOL0     H15100   4.487   3.219   2.190 -1.6039 -2.8506 -1.6769
  872MOL0     H15101   4.371   3.350   2.225 -2.4790 -0.5406 -0.0479
  872MOL0     H15102   4.472   3.270   2.608  0.5009 -1.0675  0.4927
  872MOL0     H15103   3.890   3.119   1.925 -0.7125 -0.3922 -2.4335
  872MOL0     H15104   3.656   3.053   1.910  2.8241  0.2671 -3.5898
  873MOL0     O15105  10.447  10.870   7.879 -0.1898  0.7226 -0.6770
  873MOL0     C15106  10.448  10.780   7.959  0.1656 -0.1783 -0.7283
  873MOL0     O15107  10.338  10.711   8.005 -0.0567 -0.0119 -0.2306
  873MOL0     C15108  10.214  10.752   7.969  0.1114 -0.2477 -0.5854
  873MOL0     C15109  10.116  10.749   8.068  0.2194  0.0629 -0.1172
  873MOL0     C15110   9.983  10.774   8.036 -0.2324  0.7559 -0.3311
  873MOL0     C15111   9.935  10.786   7.903  0.7192  0.1289  0.4252
  873MOL0     O15112   9.795  10.807   7.882 -0.0349  0.3466  0.0513
  873MOL0     C15113   9.745  10.808   7.747  0.5850 -0.1546  0.1929
  873MOL0     C15114   9.749  10.941   7.683 -0.2463  0.0602  1.4833
  873MOL0     C15115   9.663  10.940   7.560  0.0078 -0.1373 -0.2419
  873MOL0     C15116   9.614  11.078   7.536  0.7369 -0.6334 -0.4344
  873MOL0     C15117   9.536  11.084   7.408  0.6470 -0.3573 -0.2846
  873MOL0     C15118   9.513  11.229   7.374  0.1785  0.8297 -0.0404
  873MOL0     C15119   9.432  11.247   7.238  0.4940  0.4302  0.0842
  873MOL0     C15120   9.429  11.394   7.212  0.7177  0.2104 -0.3825
  873MOL0     N15121   9.315  11.439   7.127 -1.1149  0.8449  0.1339
  873MOL0     C15122   9.314  11.403   6.994  0.6244  0.7254  0.0289
  873MOL0     C15123   9.191  11.452   6.951  0.2806  0.0007 -0.2536
  873MOL0     C15124   9.127  11.434   6.812  0.2286 -0.5207 -0.6350
  873MOL0     C15125   9.033  11.321   6.796  0.4065 -0.0330  0.2445
  873MOL0     C15126   9.000  11.300   6.647  1.0054 -0.5217  0.4081
  873MOL0     C15127   8.928  11.169   6.629 -0.4234 -0.6466  0.3897
  873MOL0     O15128   8.803  11.171   6.702 -0.3088  0.1219  0.1024
  873MOL0     C15129   8.692  11.178   6.625 -0.4027  0.0522  0.4713
  873MOL0     C15130   8.633  11.071   6.557 -0.7530 -0.5110 -0.1899
  873MOL0     C15131   8.519  11.090   6.478  0.5158  0.6714 -0.4435
  873MOL0     C15132   8.460  11.211   6.455 -0.0519 -1.0196  0.0951
  873MOL0     C15133   8.337  11.236   6.372  0.5954 -0.2874 -0.9883
  873MOL0     O15134   8.270  11.353   6.389 -0.3374  0.0455  0.1685
  873MOL0     C15135   8.156  11.356   6.311 -0.0050 -0.1346 -0.5385
  873MOL0     C15136   8.025  11.347   6.363  0.3104  0.3751  0.3276
  873MOL0     C15137   7.916  11.364   6.275  1.5464 -0.3584 -0.1405
  873MOL0     C15138   7.931  11.388   6.136  0.5368  0.4683  0.0722
  873MOL0     O15139   7.811  11.372   6.068 -1.3734  0.3432  0.3167
  873MOL0     C15140   7.824  11.334   5.930  0.1724  0.1084 -0.3817
  873MOL0     C15141   7.689  11.330   5.860  0.9785 -0.5945  0.0014
  873MOL0     C15142   7.594  11.238   5.936 -0.2843  0.1665 -0.0640
  873MOL0     C15143   7.476  11.214   5.844  0.6152 -0.6850 -0.7007
  873MOL0     C15144   7.386  11.109   5.905 -0.5078  0.7316 -0.3864
  873MOL0     C15145   7.275  11.064   5.811 -0.7421 -0.6614 -0.1474
  873MOL0     C15146   7.153  11.001   5.886  0.3273 -0.9934 -0.6342
  873MOL0     C15147   7.040  10.978   5.781  0.4868 -0.5546  0.6424
  873MOL0    Cl15148   6.874  10.949   5.839 -0.3650  0.2780 -0.2693
  873MOL0     C15149   8.064  11.403   6.084 -0.2826 -0.7290  0.1883
  873MOL0     C15150   8.172  11.384   6.174 -0.1641 -0.2776  0.4264
  873MOL0     O15151   8.307  11.148   6.293 -0.4032 -0.0972 -0.0167
  873MOL0     C15152   8.527  11.320   6.506  0.4048  0.2276 -0.6476
  873MOL0     C15153   8.633  11.297   6.597 -0.2105  0.1279 -0.5104
  873MOL0     N15154   9.132  11.517   7.058  0.4076  0.0723  0.1402
  873MOL0     N15155   9.203  11.501   7.165 -0.4365  0.1049 -0.2378
  873MOL0     C15156  10.034  10.791   7.803  0.2756 -0.1034  0.1145
  873MOL0     C15157  10.171  10.772   7.836  0.5092 -0.1643 -0.2628
  873MOL0     C15158  10.582  10.753   8.032  0.0538 -0.7322 -0.2724
  873MOL0     C15159  10.695  10.843   8.017  0.0046  0.8706 -0.4397
  873MOL0     C15160  10.806  10.830   8.092  0.2060 -0.6439 -0.5222
  873MOL0     C15161  10.823  10.726   8.182 -0.4445  0.3194 -0.1364
  873MOL0     O15162  10.932  10.723   8.265  0.2819  0.1764  0.1390
  873MOL0     C15163  11.066  10.741   8.213  0.4484 -0.2888 -0.6192
  873MOL0     C15164  11.158  10.651   8.295 -0.2982  0.9776  0.3486
  873MOL0     C15165  11.144  10.649   8.445  0.7341  0.1690 -0.2596
  873MOL0     C15166  11.138  10.784   8.515 -0.3475 -0.0711  0.2784
  873MOL0     C15167  11.264  10.846   8.510 -0.3436 -0.7809 -0.0274
  873MOL0     C15168  11.370  10.908   8.518  0.6183 -0.7803  0.0080
  873MOL0     C15169  10.716  10.638   8.200 -0.7649  0.1752 -0.1285
  873MOL0     C15170  10.597  10.647   8.123  0.7298 -0.0086  1.0122
  873MOL0     H15171  10.155  10.748   8.169  0.3926  2.4128 -0.0948
  873MOL0     H15172   9.908  10.780   8.114  0.9909  3.3368  0.7807
  873MOL0     H15173   9.640  10.777   7.744  0.5707 -0.1499  0.5958
  873MOL0     H15174   9.801  10.737   7.686 -0.2917 -1.0498  0.4062
  873MOL0     H15175   9.847  10.973   7.647  0.0759 -2.2562  0.0893
  873MOL0     H15176   9.710  11.017   7.751 -2.0942  1.2238 -0.7438
  873MOL0     H15177   9.575  10.877   7.574 -0.3830  0.8783  2.4975
  873MOL0     H15178   9.723  10.910   7.473  1.1730  0.9441  0.1599
  873MOL0     H15179   9.547  11.110   7.617  1.7913 -0.0364  0.2339
  873MOL0     H15180   9.697  11.147   7.514  2.2231 -2.5652 -1.1987
  873MOL0     H15181   9.443  11.028   7.422  0.7531 -0.2208  1.0647
  873MOL0     H15182   9.601  11.048   7.329  2.0247  0.5854  0.3809
  873MOL0     H15183   9.611  11.278   7.373  1.5160 -1.6973 -1.6279
  873MOL0     H15184   9.458  11.280   7.454 -1.9299  1.6611 -1.9408
  873MOL0     H15185   9.475  11.192   7.154  0.3498  0.8736 -0.2842
  873MOL0     H15186   9.329  11.208   7.240 -0.1513  1.9889  2.3504
  873MOL0     H15187   9.525  11.429   7.174  0.3730  2.4079  0.6525
  873MOL0     H15188   9.396  11.439   7.306  1.1483 -0.8745  0.3147
  873MOL0     H15189   9.375  11.328   6.945  0.6440  0.0434  1.0627
  873MOL0     H15190   9.213  11.426   6.745  0.1386  0.8373 -0.9325
  873MOL0     H15191   9.081  11.529   6.785 -2.8127 -0.7600  2.8480
  873MOL0     H15192   8.936  11.331   6.846  0.8838 -2.8207  1.9167
  873MOL0     H15193   9.084  11.230   6.829 -1.7314 -2.5903 -2.8544
  873MOL0     H15194   8.927  11.380   6.631  0.7314 -0.7273  0.6256
  873MOL0     H15195   9.091  11.303   6.587  1.4864 -0.1985  1.1454
  873MOL0     H15196   8.996  11.095   6.674 -0.3610 -0.1464  1.1314
  873MOL0     H15197   8.919  11.141   6.524  0.7710  0.2077  0.0433
  873MOL0     H15198   8.684  10.975   6.561 -1.4523 -0.9073 -0.5127
  873MOL0     H15199   8.472  11.006   6.427 -0.7665  0.6686  0.6949
  873MOL0     H15200   8.019  11.324   6.469 -0.1244  1.7246  0.6177
  873MOL0     H15201   7.814  11.362   6.310  1.5380  0.6079 -0.1058
  873MOL0     H15202   7.851  11.229   5.940  2.9191  0.6102 -1.3905
  873MOL0     H15203   7.901  11.392   5.878  0.9175 -0.8499 -0.3607
  873MOL0     H15204   7.707  11.291   5.760  1.3939 -0.0448 -0.1473
  873MOL0     H15205   7.644  11.428   5.840  1.1819 -0.6933 -0.9787
  873MOL0     H15206   7.563  11.291   6.027 -2.0246 -0.7146 -0.1051
  873MOL0     H15207   7.649  11.146   5.955 -3.4597 -1.3968  2.4252
  873MOL0     H15208   7.425  11.309   5.826 -1.2465 -1.6289 -0.7092
  873MOL0     H15209   7.515  11.170   5.752  1.8878 -0.2867 -0.3755
  873MOL0     H15210   7.349  11.143   6.003  0.3563 -0.7551  0.4936
  873MOL0     H15211   7.441  11.017   5.927 -1.6657  0.2475  0.5862
  873MOL0     H15212   7.308  10.991   5.737 -0.8700  0.1623 -1.0285
  873MOL0     H15213   7.256  11.154   5.752  1.3584 -0.1784 -0.1647
  873MOL0     H15214   7.189  10.908   5.930 -1.2127 -0.4319  2.0495
  873MOL0     H15215   7.126  11.064   5.971  4.3004  0.9399 -0.5701
  873MOL0     H15216   7.070  10.900   5.710 -0.9840  1.6055 -2.6109
  873MOL0     H15217   7.025  11.071   5.725 -1.9221  0.2341  2.3989
  873MOL0     H15218   8.073  11.411   5.977 -0.8632 -2.4335 -0.0248
  873MOL0     H15219   8.276  11.379   6.142 -0.0579 -0.2801  0.7624
  873MOL0     H15220   8.493  11.422   6.494 -0.1593  0.4426  1.9943
  873MOL0     H15221   8.672  11.381   6.654 -1.3815 -0.4297  1.1909
  873MOL0     H15222  10.011  10.789   7.697 -0.3998  0.5535  0.2386
  873MOL0     H15223  10.251  10.769   7.763 -0.7683  1.4447 -1.8447
  873MOL0     H15224  10.681  10.936   7.964 -1.3975  0.2126 -1.3052
  873MOL0     H15225  10.885  10.904   8.084  1.2257 -1.6637 -0.1793
  873MOL0     H15226  11.098  10.846   8.218 -0.6772  0.0029  1.6528
  873MOL0     H15227  11.068  10.718   8.106 -1.3388 -2.3222 -0.2666
  873MOL0     H15228  11.152  10.546   8.266  3.7880  0.6192  0.3581
  873MOL0     H15229  11.260  10.674   8.262  0.8297 -3.4636  0.1582
  873MOL0     H15230  11.227  10.592   8.489 -1.3682 -2.1897  0.8734
  873MOL0     H15231  11.061  10.584   8.473  0.9858  1.2352  3.5131
  873MOL0     H15232  11.060  10.846   8.468  0.0533  1.5950  1.7212
  873MOL0     H15233  11.116  10.775   8.621  1.8805  2.9048  1.1477
  873MOL0     H15234  11.458  10.965   8.540  1.0618 -1.0195 -1.0979
  873MOL0     H15235  10.728  10.564   8.278 -2.3444 -0.2168 -0.2249
  873MOL0     H15236  10.510  10.586   8.142  0.7326  0.3770  2.3989
  874MOL0     O15237   0.525   1.666   2.727 -0.4545 -0.3693  0.6394
  874MOL0     C15238   0.587   1.711   2.827 -0.0712 -0.0590 -0.3559
  874MOL0     O15239   0.532   1.779   2.927  0.6886  0.2999  0.0784
  874MOL0     C15240   0.395   1.802   2.934 -0.2206 -0.1389  0.4713
  874MOL0     C15241   0.359   1.926   3.003  0.3586  0.1050 -0.3685
  874MOL0     C15242   0.222   1.955   3.041  0.0586  0.1260 -0.5793
  874MOL0     C15243   0.125   1.859   3.003  0.4514 -0.7146  0.0227
  874MOL0     O15244  -0.013   1.854   3.025 -0.0708 -0.5490 -0.0202
  874MOL0     C15245  -0.071   1.953   3.118 -0.4785  0.4773 -0.0916
  874MOL0     C15246  -0.205   1.891   3.160  0.2878 -0.1751 -0.8620
  874MOL0     C15247  -0.284   1.988   3.249 -0.5108 -0.1255  0.1347
  874MOL0     C15248  -0.424   1.927   3.268  0.7521  0.1099  0.8468
  874MOL0     C15249  -0.526   2.025   3.309 -0.5925  0.3152  0.8905
  874MOL0     C15250  -0.656   1.956   3.343 -0.0420 -1.0934  0.5160
  874MOL0     C15251  -0.760   2.064   3.361 -0.1368 -0.5419  0.2336
  874MOL0     C15252  -0.898   2.012   3.426  0.1415 -0.1447  0.2518
  874MOL0     N15253  -1.005   2.085   3.354  0.0790  0.1157  0.6136
  874MOL0     C15254  -1.040   2.090   3.224  1.0867 -0.1880  0.7966
  874MOL0     C15255  -1.161   2.153   3.216  0.1194 -0.1342 -0.4459
  874MOL0     C15256  -1.253   2.175   3.089 -0.0945  0.9376 -0.2517
  874MOL0     C15257  -1.259   2.039   3.011  0.4297  0.0901 -0.1971
  874MOL0     C15258  -1.343   2.041   2.884  0.3014  0.3089  0.6571
  874MOL0     C15259  -1.488   2.085   2.906 -0.0489 -0.5673  0.1945
  874MOL0     O15260  -1.564   2.051   2.792  0.9652 -0.1314  0.2768
  874MOL0     C15261  -1.704   2.056   2.790 -0.9833  1.1435 -0.8476
  874MOL0     C15262  -1.768   2.036   2.669  0.8744  0.0601 -0.4827
  874MOL0     C15263  -1.915   2.041   2.675 -0.4826  0.9840 -0.3811
  874MOL0     C15264  -1.992   2.049   2.795 -0.9543  0.4255 -0.0977
  874MOL0     C15265  -2.137   2.047   2.788 -0.3168 -0.1861  0.4667
  874MOL0     O15266  -2.203   2.028   2.673  0.4615  0.3807  0.0269
  874MOL0     C15267  -2.341   2.017   2.677  0.3824  0.8058  0.1663
  874MOL0     C15268  -2.418   2.097   2.594 -0.5443 -0.5319  0.0309
  874MOL0     C15269  -2.552   2.088   2.593 -0.4860 -0.4956  0.6244
  874MOL0     C15270  -2.620   1.994   2.667  0.0339 -0.3860 -0.9012
  874MOL0     O15271  -2.764   1.992   2.671  0.0962 -0.4831  0.2387
  874MOL0     C15272  -2.836   1.951   2.550  0.7897  0.0306 -0.1596
  874MOL0     C15273  -2.933   2.062   2.518  0.2713 -0.2398  0.7104
  874MOL0     C15274  -3.041   2.011   2.411  0.2810 -0.0053 -0.0065
  874MOL0     C15275  -3.127   2.126   2.371  0.4871 -0.0464 -0.1686
  874MOL0     C15276  -3.208   2.099   2.249 -0.5063  0.9796 -0.3688
  874MOL0     C15277  -3.315   2.210   2.236 -0.1709  0.8785  0.2756
  874MOL0     C15278  -3.435   2.150   2.159 -0.6978  0.1427  0.1723
  874MOL0     C15279  -3.498   2.029   2.220 -0.1310  0.3644 -0.1581
  874MOL0    Cl15280  -3.662   2.018   2.173 -0.0122  0.0208  0.1076
  874MOL0     C15281  -2.542   1.906   2.749  0.6638  0.5733 -0.0893
  874MOL0     C15282  -2.402   1.916   2.753 -0.0108  0.6832  0.1248
  874MOL0     O15283  -2.183   2.059   2.898  0.3529  0.5067  0.1984
  874MOL0     C15284  -1.917   2.064   2.913 -0.2716 -0.1879  0.5980
  874MOL0     C15285  -1.778   2.067   2.909  0.3599 -0.0866 -0.6091
  874MOL0     N15286  -1.190   2.206   3.337 -0.5939 -0.1560 -0.2390
  874MOL0     N15287  -1.090   2.179   3.414 -0.2210  0.5922 -0.1189
  874MOL0     C15288   0.156   1.746   2.937 -0.8906  0.0425  0.1467
  874MOL0     C15289   0.288   1.710   2.898  0.3315 -0.5193  0.4682
  874MOL0     C15290   0.729   1.697   2.834  0.2386 -0.1079  0.0257
  874MOL0     C15291   0.793   1.633   2.723 -0.0615  0.7075 -0.2700
  874MOL0     C15292   0.928   1.597   2.730  0.7539 -0.0044  0.1613
  874MOL0     C15293   1.014   1.656   2.831  0.7948 -0.3490  0.8355
  874MOL0     O15294   1.156   1.656   2.833 -0.7878  0.2222  0.3763
  874MOL0     C15295   1.224   1.603   2.727 -0.7810 -0.3478  1.2152
  874MOL0     C15296   1.244   1.707   2.625  0.1967 -0.4230 -0.3295
  874MOL0     C15297   1.311   1.675   2.496 -0.6130  0.7539  0.0480
  874MOL0     C15298   1.235   1.570   2.411 -0.2294 -0.1471  0.2630
  874MOL0     C15299   1.249   1.433   2.469  0.1074 -0.1607  0.1139
  874MOL0     C15300   1.270   1.319   2.509 -0.4576  0.4862  0.5269
  874MOL0     C15301   0.944   1.731   2.934 -0.4756  0.2636 -0.5287
  874MOL0     C15302   0.804   1.754   2.936 -1.2722  0.1864  0.5062
  874MOL0     H15303   0.434   1.992   3.044 -0.5381  0.4009  0.8483
  874MOL0     H15304   0.196   2.034   3.111  1.4462 -0.8194  1.0799
  874MOL0     H15305  -0.088   2.055   3.081  0.3197  0.0582 -1.7017
  874MOL0     H15306  -0.008   1.953   3.207  3.4286 -4.2747 -2.3777
  874MOL0     H15307  -0.184   1.799   3.215  2.0611  1.7456  1.9034
  874MOL0     H15308  -0.256   1.873   3.065 -2.1048  3.2913 -0.4334
  874MOL0     H15309  -0.293   2.081   3.193  1.1487 -1.0868 -1.8772
  874MOL0     H15310  -0.232   2.014   3.342  0.1170  3.3106 -1.0398
  874MOL0     H15311  -0.458   1.877   3.177  0.1561 -2.8925  2.6011
  874MOL0     H15312  -0.420   1.854   3.349  0.3599 -1.8198 -0.8135
  874MOL0     H15313  -0.530   2.110   3.240 -0.5430 -1.0083 -0.8062
  874MOL0     H15314  -0.492   2.073   3.401 -0.4246 -1.9384  2.0539
  874MOL0     H15315  -0.658   1.902   3.438 -1.0542  2.3676  2.6309
  874MOL0     H15316  -0.684   1.898   3.255  2.4602 -1.4013 -0.1545
  874MOL0     H15317  -0.723   2.143   3.427  1.4034 -2.9687  2.4884
  874MOL0     H15318  -0.784   2.106   3.263  1.5636 -2.9963 -1.3701
  874MOL0     H15319  -0.904   2.031   3.534  1.6904 -1.5093  0.6294
  874MOL0     H15320  -0.904   1.906   3.400 -0.7161  0.1188 -0.6839
  874MOL0     H15321  -0.989   2.040   3.143 -3.5793 -0.8641 -2.0879
  874MOL0     H15322  -1.216   2.252   3.020  1.9693  0.0989 -0.1734
  874MOL0     H15323  -1.353   2.202   3.124  0.3082  2.2800 -0.0862
  874MOL0     H15324  -1.298   1.959   3.075  0.7786  1.0701  1.2769
  874MOL0     H15325  -1.157   2.015   2.977  0.7619 -0.5955  1.1924
  874MOL0     H15326  -1.296   2.123   2.829 -0.3487  0.7910  0.7999
  874MOL0     H15327  -1.354   1.938   2.848 -0.8838 -0.9069  4.0566
  874MOL0     H15328  -1.502   2.190   2.933  0.8316 -0.2750 -0.4392
  874MOL0     H15329  -1.535   2.032   2.990 -0.8048 -1.2410 -0.6339
  874MOL0     H15330  -1.714   2.019   2.577 -0.3723  0.3646 -1.2957
  874MOL0     H15331  -1.971   2.036   2.581  1.2877  0.1990 -1.4471
  874MOL0     H15332  -2.373   2.166   2.523  0.8911 -3.6459 -2.3245
  874MOL0     H15333  -2.613   2.166   2.547  0.0175 -1.2428 -1.4276
  874MOL0     H15334  -2.891   1.861   2.580  0.7286  0.6989  1.8981
  874MOL0     H15335  -2.771   1.927   2.465  0.3351 -3.3492  0.3080
  874MOL0     H15336  -2.884   2.155   2.487 -0.6550 -0.2505 -0.9156
  874MOL0     H15337  -2.992   2.091   2.605 -0.2694 -0.9632  0.5974
  874MOL0     H15338  -3.103   1.931   2.453  1.0105 -0.2793  0.5489
  874MOL0     H15339  -2.992   1.977   2.319  0.6384 -0.2712  0.2794
  874MOL0     H15340  -3.195   2.144   2.455  3.4183 -1.7645  2.8303
  874MOL0     H15341  -3.078   2.220   2.344  1.3093 -1.4814 -4.3118
  874MOL0     H15342  -3.252   1.999   2.259 -1.8722  1.5942 -0.0920
  874MOL0     H15343  -3.145   2.100   2.159  1.3821  1.1455  0.8936
  874MOL0     H15344  -3.269   2.278   2.164  2.6073 -1.1676 -0.0298
  874MOL0     H15345  -3.351   2.243   2.334 -0.7007  0.6691  0.1571
  874MOL0     H15346  -3.511   2.229   2.160 -0.2888  0.5476  1.7363
  874MOL0     H15347  -3.411   2.137   2.053  1.3964  0.7422  0.5200
  874MOL0     H15348  -3.483   2.031   2.328 -1.7176  1.2963  0.0790
  874MOL0     H15349  -3.458   1.936   2.178 -0.1357  1.4181 -2.6820
  874MOL0     H15350  -2.602   1.836   2.806  1.4866  0.3715  0.5549
  874MOL0     H15351  -2.331   1.856   2.809  1.8909  3.5746  1.0639
  874MOL0     H15352  -1.960   2.074   3.012  1.9589  0.0725  1.6217
  874MOL0     H15353  -1.735   2.096   3.004 -1.0332  3.8360 -1.0260
  874MOL0     H15354   0.078   1.674   2.914 -3.2466  3.0624 -2.2162
  874MOL0     H15355   0.314   1.616   2.851  1.0919 -0.9952  1.7941
  874MOL0     H15356   0.740   1.596   2.636  1.5999 -0.9278 -0.6574
  874MOL0     H15357   0.970   1.537   2.651  0.9424 -1.8426  1.5987
  874MOL0     H15358   1.168   1.518   2.685  1.6654 -1.0653 -0.8732
  874MOL0     H15359   1.321   1.567   2.762 -0.7705  0.3288  1.9001
  874MOL0     H15360   1.147   1.746   2.591  1.7289  2.4826 -1.7191
  874MOL0     H15361   1.290   1.794   2.673  3.1691 -2.1108  0.1011
  874MOL0     H15362   1.406   1.625   2.517  0.6972  3.2845  0.4587
  874MOL0     H15363   1.330   1.768   2.443  0.8819 -0.5417 -1.8156
  874MOL0     H15364   1.131   1.603   2.405 -0.2021 -0.2720 -2.1018
  874MOL0     H15365   1.290   1.558   2.317  1.1357  2.1876  0.6918
  874MOL0     H15366   1.279   1.218   2.545  0.9588  0.1871 -0.5799
  874MOL0     H15367   1.009   1.763   3.015 -1.9892  2.4791 -0.1257
  874MOL0     H15368   0.750   1.791   3.024 -0.2230  0.2982  1.1186
  875MOL0     O15369   5.552   3.616   2.777  0.3619  0.2771  0.1891
  875MOL0     C15370   5.648   3.543   2.760 -0.3746  0.7319 -0.4455
  875MOL0     O15371   5.646   3.409   2.746 -0.3941  0.0351 -0.3638
  875MOL0     C15372   5.530   3.334   2.725  0.0902  0.2502 -0.1343
  875MOL0     C15373   5.535   3.196   2.740  0.5535  0.4582 -0.0724
  875MOL0     C15374   5.427   3.107   2.728  0.1255  0.3784  0.0620
  875MOL0     C15375   5.296   3.158   2.707 -0.9440 -0.6017  0.4632
  875MOL0     O15376   5.202   3.067   2.686 -0.1700  0.6008 -0.3636
  875MOL0     C15377   5.065   3.100   2.697  0.0433 -0.1215  0.0369
  875MOL0     C15378   4.980   3.107   2.567 -0.7377  0.2593 -0.1188
  875MOL0     C15379   4.830   3.113   2.585 -0.1487 -0.4891 -0.0010
  875MOL0     C15380   4.777   2.980   2.641  0.0347  0.1249  0.5428
  875MOL0     C15381   4.620   2.992   2.663 -0.7256 -1.4233  0.1200
  875MOL0     C15382   4.555   2.869   2.735 -0.1417  1.6169 -0.5146
  875MOL0     C15383   4.484   2.784   2.635  0.4455  0.8962 -0.3603
  875MOL0     C15384   4.361   2.843   2.565 -0.2994 -0.6819  0.6330
  875MOL0     N15385   4.262   2.764   2.497  0.0025  0.1000 -0.3077
  875MOL0     C15386   4.170   2.691   2.563 -0.8664  0.5381  0.3957
  875MOL0     C15387   4.117   2.619   2.459  0.2971  0.8572 -1.1902
  875MOL0     C15388   3.998   2.513   2.473 -0.2977  0.1841  0.5898
  875MOL0     C15389   3.859   2.558   2.421  0.4513 -1.0906 -0.3682
  875MOL0     C15390   3.762   2.438   2.413  0.1835 -0.0092  0.1772
  875MOL0     C15391   3.626   2.481   2.364  0.5459 -0.3316  0.1165
  875MOL0     O15392   3.552   2.364   2.380  0.0626 -0.6102  0.5460
  875MOL0     C15393   3.416   2.377   2.349  0.0887  0.0785 -0.8755
  875MOL0     C15394   3.350   2.475   2.275  0.1208  0.4073 -0.4272
  875MOL0     C15395   3.204   2.467   2.272  0.0368  0.4949 -0.1114
  875MOL0     C15396   3.131   2.348   2.313 -0.7149  0.2143 -0.1597
  875MOL0     C15397   3.000   2.327   2.280  0.6679  0.7953  0.2142
  875MOL0     O15398   2.934   2.228   2.344 -1.1178 -0.1761 -0.3852
  875MOL0     C15399   2.810   2.200   2.304 -0.3498 -1.1572  0.5803
  875MOL0     C15400   2.785   2.143   2.175 -0.4545 -0.9227 -0.1074
  875MOL0     C15401   2.664   2.103   2.132 -0.4930 -0.2698  0.0577
  875MOL0     C15402   2.554   2.108   2.222 -0.4712 -0.2017  0.1212
  875MOL0     O15403   2.446   2.052   2.163  0.4033  0.3848  0.4508
  875MOL0     C15404   2.343   2.001   2.258 -0.1449 -0.5134 -0.0756
  875MOL0     C15405   2.285   1.873   2.184 -0.1440 -0.6567 -0.9416
  875MOL0     C15406   2.149   1.834   2.252  0.0597 -0.1606  0.1069
  875MOL0     C15407   2.099   1.698   2.189  0.0915  0.4700  0.0272
  875MOL0     C15408   2.001   1.627   2.281  0.0160 -0.4862  0.6214
  875MOL0     C15409   1.874   1.722   2.319  0.3826 -0.0347 -0.4241
  875MOL0     C15410   1.795   1.773   2.191 -0.0635 -0.5656  0.3927
  875MOL0     C15411   1.649   1.826   2.226 -0.9639 -0.3258  0.2202
  875MOL0    Cl15412   1.556   1.690   2.301  0.1134  0.6981  0.0801
  875MOL0     C15413   2.576   2.144   2.361 -0.6773  0.3314  0.3512
  875MOL0     C15414   2.703   2.202   2.392  1.1526  0.1149  0.8947
  875MOL0     O15415   2.954   2.394   2.188  0.5443  0.3543 -0.1419
  875MOL0     C15416   3.200   2.257   2.391 -0.1837  0.4688 -0.2527
  875MOL0     C15417   3.337   2.282   2.417 -0.6689  0.3636  1.2257
  875MOL0     N15418   4.188   2.649   2.345 -0.2980  0.3900  0.6244
  875MOL0     N15419   4.274   2.736   2.372 -0.5865 -0.2643  0.1907
  875MOL0     C15420   5.287   3.295   2.691 -0.1510  0.2289  0.2883
  875MOL0     C15421   5.397   3.381   2.701  0.6555 -0.0358 -0.1711
  875MOL0     C15422   5.782   3.605   2.758 -0.0441 -0.5744 -0.9053
  875MOL0     C15423   5.795   3.729   2.831 -0.2175 -0.0476 -0.0580
  875MOL0     C15424   5.918   3.799   2.828  1.3383  0.3954 -0.2462
  875MOL0     C15425   6.029   3.740   2.777  0.4250  0.8901  0.2966
  875MOL0     O15426   6.144   3.816   2.771  0.7930  0.3927  0.1691
  875MOL0     C15427   6.276   3.761   2.772  0.2453  0.9394 -0.4239
  875MOL0     C15428   6.347   3.735   2.640  0.0861 -0.4267  0.5230
  875MOL0     C15429   6.423   3.857   2.586  0.5679 -0.7638 -0.3659
  875MOL0     C15430   6.500   3.818   2.458  0.0537  0.6038  0.0866
  875MOL0     C15431   6.600   3.918   2.414  0.6179  0.0395 -0.3262
  875MOL0     C15432   6.676   4.002   2.377 -0.1708 -0.2244 -0.2492
  875MOL0     C15433   6.019   3.615   2.705 -0.4757  0.0124  0.4292
  875MOL0     C15434   5.897   3.547   2.699 -0.1400  0.0008  0.4172
  875MOL0     H15435   5.630   3.152   2.768 -0.2609 -0.7849  0.8331
  875MOL0     H15436   5.444   3.000   2.731  0.7098  0.4685  2.9568
  875MOL0     H15437   5.058   3.188   2.761 -0.5367  1.2958 -1.8884
  875MOL0     H15438   5.016   3.019   2.752 -1.6973 -0.0346 -1.3076
  875MOL0     H15439   5.007   3.023   2.503  0.8042  1.2196 -0.7722
  875MOL0     H15440   5.012   3.199   2.518 -0.3613 -1.3357 -3.0683
  875MOL0     H15441   4.783   3.134   2.489 -3.5446  3.7752  2.2132
  875MOL0     H15442   4.802   3.204   2.640 -0.5243  0.8669 -2.3282
  875MOL0     H15443   4.795   2.895   2.574 -1.2804  1.8550 -2.1475
  875MOL0     H15444   4.819   2.946   2.736 -1.5242 -4.0061 -0.0205
  875MOL0     H15445   4.579   3.009   2.564 -1.2890  1.2645  0.7383
  875MOL0     H15446   4.616   3.079   2.730  2.5692 -2.1153  1.4326
  875MOL0     H15447   4.482   2.889   2.813  0.9590  0.2716  0.9288
  875MOL0     H15448   4.635   2.805   2.774 -1.0859 -0.0126 -1.1185
  875MOL0     H15449   4.559   2.748   2.564 -0.1424 -1.7232  0.2197
  875MOL0     H15450   4.447   2.692   2.682 -2.7689  1.6991 -1.0256
  875MOL0     H15451   4.390   2.928   2.502  1.5424 -0.5950  1.5494
  875MOL0     H15452   4.306   2.894   2.645 -0.7382  2.3316 -1.3911
  875MOL0     H15453   4.131   2.714   2.662 -0.4930  1.1092  0.4141
  875MOL0     H15454   3.987   2.482   2.577  1.1506 -0.0316  0.7034
  875MOL0     H15455   4.027   2.428   2.410  2.4351  0.8213  0.8335
  875MOL0     H15456   3.863   2.607   2.323  1.1126  1.2035  0.7262
  875MOL0     H15457   3.830   2.642   2.484 -0.6667 -3.2319  2.1555
  875MOL0     H15458   3.809   2.364   2.348 -0.0472 -1.5643  1.6977
  875MOL0     H15459   3.746   2.393   2.512 -3.3900 -1.6579 -0.9642
  875MOL0     H15460   3.640   2.524   2.264  0.3823 -0.7229 -0.0769
  875MOL0     H15461   3.595   2.570   2.419  0.3509 -0.6469  0.5205
  875MOL0     H15462   3.405   2.563   2.242 -0.2557  0.4631 -0.9167
  875MOL0     H15463   3.160   2.549   2.216  1.3761  2.0726  1.0508
  875MOL0     H15464   2.881   2.149   2.125 -0.2196 -0.5667  0.3727
  875MOL0     H15465   2.648   2.060   2.034  1.9538 -1.0747 -0.0529
  875MOL0     H15466   2.268   2.080   2.270  0.3456  0.1610 -1.3451
  875MOL0     H15467   2.375   1.981   2.361  3.0237  2.0824 -0.3902
  875MOL0     H15468   2.355   1.791   2.166 -0.5144 -1.0960 -0.4235
  875MOL0     H15469   2.256   1.903   2.083  0.4426  2.1858 -0.3667
  875MOL0     H15470   2.081   1.919   2.245  3.2809  2.4897 -1.0208
  875MOL0     H15471   2.177   1.813   2.356 -0.2819  0.1955  0.2759
  875MOL0     H15472   2.062   1.710   2.087  0.4619 -0.9285 -0.2813
  875MOL0     H15473   2.184   1.631   2.174 -0.0953  0.6150 -1.8737
  875MOL0     H15474   2.055   1.602   2.373  2.2317  2.3705  0.2516
  875MOL0     H15475   1.966   1.537   2.230 -1.4499  1.1716 -1.4777
  875MOL0     H15476   1.908   1.806   2.380 -0.0738 -2.1761  3.0204
  875MOL0     H15477   1.805   1.668   2.384  1.6115  2.0599  2.8791
  875MOL0     H15478   1.854   1.847   2.136  1.8138 -1.6635  0.8524
  875MOL0     H15479   1.772   1.693   2.120 -4.4712  2.0358 -1.5686
  875MOL0     H15480   1.608   1.855   2.129 -0.9730 -2.9168 -0.6424
  875MOL0     H15481   1.644   1.912   2.294 -1.3831  0.3698 -0.6737
  875MOL0     H15482   2.491   2.138   2.428  1.1658 -3.4576  2.7013
  875MOL0     H15483   2.711   2.214   2.499 -3.6950 -0.9665  1.6021
  875MOL0     H15484   3.164   2.170   2.446  2.6110 -0.5120  0.1788
  875MOL0     H15485   3.397   2.215   2.477  2.2557 -1.9428 -3.6792
  875MOL0     H15486   5.189   3.331   2.659 -0.0650  1.4321  1.3086
  875MOL0     H15487   5.379   3.485   2.678 -1.6253 -0.1753  0.6917
  875MOL0     H15488   5.717   3.770   2.896 -0.3799  3.7817 -2.3794
  875MOL0     H15489   5.909   3.888   2.889 -3.2198 -0.4535  0.6865
  875MOL0     H15490   6.282   3.668   2.828  2.1238  0.5949 -1.1293
  875MOL0     H15491   6.338   3.830   2.830 -0.0579  2.3136 -1.6668
  875MOL0     H15492   6.418   3.655   2.660  1.4272  0.6550  0.2155
  875MOL0     H15493   6.281   3.695   2.562 -0.3556  1.2570 -0.0229
  875MOL0     H15494   6.496   3.895   2.657  0.8499  0.6331 -1.3571
  875MOL0     H15495   6.351   3.936   2.563 -0.6781 -1.3413  1.3588
  875MOL0     H15496   6.544   3.718   2.451  0.2497  0.6365  0.7922
  875MOL0     H15497   6.428   3.823   2.375  1.2736 -0.5375 -1.0919
  875MOL0     H15498   6.745   4.079   2.349 -0.2840  0.1037  0.3578
  875MOL0     H15499   6.109   3.572   2.663  1.3057  0.6804  3.2757
  875MOL0     H15500   5.898   3.450   2.652 -0.9927  0.9148 -1.6397
  876MOL0     O15501   7.825   7.905   1.510 -0.6985 -0.4262 -0.3563
  876MOL0     C15502   7.767   7.984   1.438 -0.6573 -0.1394 -0.1580
  876MOL0     O15503   7.645   7.965   1.388  0.0205 -0.1776  0.7078
  876MOL0     C15504   7.573   7.864   1.450 -0.1816  0.7414  0.4058
  876MOL0     C15505   7.602   7.722   1.443 -0.1664  0.4592  0.5357
  876MOL0     C15506   7.524   7.636   1.514 -0.1161 -0.8041  0.7731
  876MOL0     C15507   7.412   7.665   1.581 -0.2563 -0.4772 -0.3321
  876MOL0     O15508   7.346   7.589   1.673  0.9181  0.1187  0.2549
  876MOL0     C15509   7.384   7.451   1.680  0.0060  0.5621  0.1809
  876MOL0     C15510   7.292   7.374   1.771  0.2860 -0.7173  0.0331
  876MOL0     C15511   7.297   7.404   1.920  0.0061 -0.5770  1.3302
  876MOL0     C15512   7.176   7.343   1.993 -0.5981  0.0662  0.3030
  876MOL0     C15513   7.148   7.404   2.132  0.6705  1.0105  0.7850
  876MOL0     C15514   7.013   7.357   2.183  1.3198 -0.2432  0.7276
  876MOL0     C15515   6.991   7.397   2.327  0.0593 -0.2693 -0.6560
  876MOL0     C15516   6.845   7.370   2.374  0.1596 -0.5346  0.3466
  876MOL0     N15517   6.790   7.236   2.344 -0.4610 -0.3843 -0.0593
  876MOL0     C15518   6.832   7.127   2.421 -0.1084  0.7848 -0.1137
  876MOL0     C15519   6.741   7.032   2.395  0.3535  1.1762 -0.1621
  876MOL0     C15520   6.709   6.911   2.483 -0.4019 -0.0782 -0.1618
  876MOL0     C15521   6.601   6.953   2.581  0.0528 -0.7564 -0.0918
  876MOL0     C15522   6.545   6.835   2.655 -0.7164  0.2029  0.7054
  876MOL0     C15523   6.431   6.865   2.742 -0.4521  0.9444  0.3488
  876MOL0     O15524   6.324   6.855   2.653  0.5256 -0.1098  0.0511
  876MOL0     C15525   6.204   6.908   2.693 -0.8203  0.0887  0.9915
  876MOL0     C15526   6.124   6.964   2.591  0.8883  0.1759  0.3373
  876MOL0     C15527   6.009   7.037   2.617  0.5373  0.1930 -0.4104
  876MOL0     C15528   5.967   7.047   2.751 -0.5225 -0.7882  0.8355
  876MOL0     C15529   5.837   7.119   2.780  0.0771 -0.3557 -0.1386
  876MOL0     O15530   5.764   7.163   2.675 -0.0557 -0.5590  0.2751
  876MOL0     C15531   5.685   7.274   2.679 -0.7908 -0.7665  0.2008
  876MOL0     C15532   5.652   7.331   2.553  0.8033  0.5645 -0.1665
  876MOL0     C15533   5.574   7.450   2.535  0.5250  0.2305  0.6733
  876MOL0     C15534   5.532   7.508   2.648  0.4363 -1.1759 -0.8284
  876MOL0     O15535   5.438   7.606   2.641 -0.3224  0.1954 -0.9069
  876MOL0     C15536   5.311   7.556   2.589 -1.1517  0.5812  0.3206
  876MOL0     C15537   5.222   7.674   2.557  0.1492  0.4854 -0.4043
  876MOL0     C15538   5.067   7.642   2.535 -0.2836  0.1940  0.3767
  876MOL0     C15539   4.992   7.772   2.515 -1.0869 -0.7861 -0.6136
  876MOL0     C15540   4.849   7.762   2.475  0.2448  0.4571  0.1664
  876MOL0     C15541   4.759   7.725   2.594 -0.4108 -0.6324 -1.0219
  876MOL0     C15542   4.617   7.762   2.582  0.0038 -0.2278  0.1310
  876MOL0     C15543   4.552   7.684   2.465  0.3764 -0.9589 -0.3939
  876MOL0    Cl15544   4.392   7.756   2.435  0.3033  0.2555  0.7928
  876MOL0     C15545   5.561   7.468   2.776 -0.8074 -0.0068 -0.2986
  876MOL0     C15546   5.648   7.357   2.786  0.9188  0.2638 -0.1225
  876MOL0     O15547   5.806   7.117   2.900 -0.4516 -0.9350 -0.4489
  876MOL0     C15548   6.035   6.979   2.856 -1.4328  0.1477 -0.8696
  876MOL0     C15549   6.154   6.907   2.828  0.6866 -0.8014  0.0496
  876MOL0     N15550   6.662   7.078   2.295 -0.7980 -0.2823  0.1843
  876MOL0     N15551   6.685   7.204   2.275  0.4634 -0.3695  1.4170
  876MOL0     C15552   7.365   7.800   1.567  0.2681  0.2560 -0.8236
  876MOL0     C15553   7.442   7.897   1.508 -1.0982 -0.2658  0.5063
  876MOL0     C15554   7.842   8.098   1.396 -0.3978 -1.1809 -0.7078
  876MOL0     C15555   7.989   8.105   1.410 -0.7909 -0.0195  0.2601
  876MOL0     C15556   8.058   8.224   1.380 -0.3465 -0.1167  0.2815
  876MOL0     C15557   7.981   8.337   1.328 -0.1921  0.4391 -0.4446
  876MOL0     O15558   8.038   8.457   1.282 -0.0255  0.6411 -0.3688
  876MOL0     C15559   8.174   8.493   1.304 -0.7235  0.3165 -0.0302
  876MOL0     C15560   8.189   8.583   1.421  0.2890 -0.2683  0.2208
  876MOL0     C15561   8.095   8.697   1.430 -0.5914  0.5974 -0.3218
  876MOL0     C15562   8.125   8.798   1.532 -0.0504  0.6595  0.1184
  876MOL0     C15563   8.032   8.914   1.524 -0.6115 -0.0294  0.6921
  876MOL0     C15564   7.951   8.999   1.501  0.9306  0.5507 -0.7418
  876MOL0     C15565   7.840   8.328   1.334  0.0459 -0.6549  1.0945
  876MOL0     C15566   7.778   8.211   1.358  0.5213 -0.4136 -0.1572
  876MOL0     H15567   7.681   7.684   1.378 -1.7592  0.2437 -1.3583
  876MOL0     H15568   7.567   7.538   1.531  1.0470 -0.1494  1.6980
  876MOL0     H15569   7.490   7.447   1.705  0.3407 -2.2039 -1.2433
  876MOL0     H15570   7.376   7.405   1.581  2.1414 -0.5593  0.4794
  876MOL0     H15571   7.305   7.267   1.753  0.1732 -1.2271  2.6229
  876MOL0     H15572   7.190   7.387   1.731  0.1005 -1.8582  0.1183
  876MOL0     H15573   7.294   7.511   1.940  1.4625 -0.5306  1.4295
  876MOL0     H15574   7.396   7.365   1.944 -0.2186 -0.7374  2.0155
  876MOL0     H15575   7.085   7.332   1.933 -0.1202 -1.3790 -0.1940
  876MOL0     H15576   7.198   7.241   2.025 -2.1904  0.6470  3.6508
  876MOL0     H15577   7.141   7.513   2.125 -1.1445  0.8414 -0.7639
  876MOL0     H15578   7.225   7.384   2.206 -0.6438  2.3155  2.6069
  876MOL0     H15579   7.002   7.249   2.192  2.6477 -0.6603 -1.7303
  876MOL0     H15580   6.936   7.396   2.116  2.6216 -0.7633 -1.1404
  876MOL0     H15581   7.059   7.347   2.397 -0.8040  0.9071  1.1040
  876MOL0     H15582   7.017   7.503   2.337 -2.6508  0.4257 -0.2306
  876MOL0     H15583   6.769   7.426   2.320  1.0086 -1.6376 -2.1393
  876MOL0     H15584   6.842   7.386   2.483  2.2149  0.2092  0.3446
  876MOL0     H15585   6.890   7.122   2.513 -0.8334 -2.2337  0.2811
  876MOL0     H15586   6.800   6.882   2.537 -1.6891  0.5213  2.5072
  876MOL0     H15587   6.676   6.823   2.426 -2.3562 -0.2538  1.1495
  876MOL0     H15588   6.520   6.987   2.515 -0.1513 -2.1703 -0.6112
  876MOL0     H15589   6.648   7.021   2.652  2.6151 -1.1979 -1.2507
  876MOL0     H15590   6.534   6.753   2.584  0.2078 -0.0978  0.8993
  876MOL0     H15591   6.630   6.802   2.715  0.2655 -0.7251 -1.1039
  876MOL0     H15592   6.438   6.960   2.796  0.1606  0.8249  0.4869
  876MOL0     H15593   6.414   6.787   2.816 -0.8202  0.1919 -0.5010
  876MOL0     H15594   6.156   6.943   2.490 -1.1385 -0.0741 -0.2876
  876MOL0     H15595   5.955   7.082   2.535  0.8250  1.0761 -0.1266
  876MOL0     H15596   5.671   7.267   2.467  0.7477 -2.4200  1.8858
  876MOL0     H15597   5.543   7.487   2.437 -1.5520 -1.1940  0.7151
  876MOL0     H15598   5.275   7.497   2.675  1.2327  0.8047  1.5619
  876MOL0     H15599   5.320   7.492   2.501 -1.8925 -0.3984  0.9380
  876MOL0     H15600   5.257   7.723   2.466 -1.7567 -2.8473 -3.2076
  876MOL0     H15601   5.217   7.745   2.640 -0.5138 -0.7604  0.6777
  876MOL0     H15602   5.030   7.591   2.624 -0.3413  1.0290  0.8405
  876MOL0     H15603   5.039   7.577   2.452  0.2373 -0.8717  1.0114
  876MOL0     H15604   4.999   7.832   2.606 -2.3012  2.5497 -2.5496
  876MOL0     H15605   5.037   7.836   2.439  1.5528  0.8837  2.1245
  876MOL0     H15606   4.836   7.697   2.388  1.4744  1.1853 -0.5998
  876MOL0     H15607   4.818   7.856   2.429  0.1990 -0.1170 -1.0360
  876MOL0     H15608   4.803   7.762   2.687 -2.7820  0.2670 -0.1665
  876MOL0     H15609   4.763   7.616   2.599 -0.5986 -0.5844  1.5081
  876MOL0     H15610   4.562   7.747   2.676  1.4813  0.9470  1.2392
  876MOL0     H15611   4.619   7.868   2.554 -1.7014 -0.5405 -1.3700
  876MOL0     H15612   4.534   7.580   2.493  1.0232 -0.9222  0.1657
  876MOL0     H15613   4.609   7.695   2.372  1.9631  1.1186  0.7455
  876MOL0     H15614   5.523   7.526   2.859 -1.7658  0.9600 -1.3903
  876MOL0     H15615   5.687   7.329   2.883 -2.5312 -1.5864  0.9209
  876MOL0     H15616   6.013   6.985   2.962  3.0150 -0.3921  0.2814
  876MOL0     H15617   6.210   6.852   2.902 -0.5457 -3.1279 -0.6311
  876MOL0     H15618   7.276   7.834   1.618 -2.0204 -1.3556 -3.4387
  876MOL0     H15619   7.415   8.001   1.500 -0.9949 -0.2793 -0.0278
  876MOL0     H15620   8.045   8.014   1.430  1.0068  1.1450  0.8168
  876MOL0     H15621   8.166   8.217   1.386  0.0378  2.3016 -2.0948
  876MOL0     H15622   8.212   8.550   1.218  0.9643  0.4670  0.7907
  876MOL0     H15623   8.237   8.405   1.321 -2.6002 -0.6215  2.8614
  876MOL0     H15624   8.185   8.524   1.513 -0.8312 -0.4329  0.0758
  876MOL0     H15625   8.288   8.630   1.414 -1.0597  2.6079 -1.3147
  876MOL0     H15626   7.998   8.652   1.454  0.9229 -1.9471  1.4600
  876MOL0     H15627   8.091   8.753   1.336 -1.5837 -1.8133 -1.7926
  876MOL0     H15628   8.110   8.745   1.627 -3.3305 -0.1551 -0.7492
  876MOL0     H15629   8.229   8.830   1.522  0.4254 -1.1354 -1.0704
  876MOL0     H15630   7.872   9.072   1.498  0.2288 -0.0827  0.7191
  876MOL0     H15631   7.790   8.417   1.296 -1.8623 -2.3605 -0.5944
  876MOL0     H15632   7.669   8.210   1.354  0.4719 -1.2097  0.9216
  877MOL0     O15633   7.388   1.551   0.549 -0.1658 -1.0211  0.6930
  877MOL0     C15634   7.423   1.490   0.651  0.1385 -0.7919 -0.1479
  877MOL0     O15635   7.345   1.396   0.716 -0.3803 -0.1392  0.0613
  877MOL0     C15636   7.212   1.374   0.680 -0.2876  0.5606  0.0033
  877MOL0     C15637   7.118   1.484   0.665 -0.1498  0.4830  0.6961
  877MOL0     C15638   6.982   1.454   0.639  0.0162  0.5406 -0.7003
  877MOL0     C15639   6.929   1.319   0.642  0.7487 -0.0372  0.0564
  877MOL0     O15640   6.800   1.290   0.612 -0.4516 -0.3546  0.5554
  877MOL0     C15641   6.694   1.372   0.662 -1.1185 -0.0955  0.6656
  877MOL0     C15642   6.631   1.452   0.559  0.0599  0.0322  0.5653
  877MOL0     C15643   6.567   1.578   0.608  0.7968 -0.5087  0.3722
  877MOL0     C15644   6.502   1.657   0.487  0.2704 -0.4363 -0.1533
  877MOL0     C15645   6.418   1.779   0.533 -0.2488  0.5521  0.6020
  877MOL0     C15646   6.351   1.839   0.411  0.2192 -0.2859 -1.0840
  877MOL0     C15647   6.257   1.949   0.457 -0.3427 -0.1893 -0.2116
  877MOL0     C15648   6.161   1.976   0.330  0.2812 -0.4424  0.5679
  877MOL0     N15649   6.022   2.009   0.369 -0.2964  0.7573  0.0762
  877MOL0     C15650   5.969   2.128   0.407 -0.0812 -0.6913  1.1119
  877MOL0     C15651   5.850   2.106   0.469 -0.2415  0.7474  0.0203
  877MOL0     C15652   5.749   2.212   0.528  0.1829 -0.1947  0.0388
  877MOL0     C15653   5.778   2.243   0.671 -0.0578 -0.2431  0.6627
  877MOL0     C15654   5.774   2.116   0.765 -0.1383  0.9406 -0.1289
  877MOL0     C15655   5.639   2.048   0.769  0.4138 -0.7665  0.0256
  877MOL0     O15656   5.540   2.159   0.796  0.6931 -0.1596 -0.1073
  877MOL0     C15657   5.411   2.135   0.748  1.0028  0.3311  0.3080
  877MOL0     C15658   5.320   2.218   0.820  0.6506 -0.2694  0.0274
  877MOL0     C15659   5.182   2.194   0.803  0.2885  0.0494 -0.4762
  877MOL0     C15660   5.137   2.093   0.710 -0.1719 -0.6412 -0.2481
  877MOL0     C15661   4.999   2.058   0.698  0.2263 -0.6189  0.7131
  877MOL0     O15662   4.914   2.128   0.777  0.0639 -0.6229  0.1490
  877MOL0     C15663   4.782   2.132   0.757  0.1080 -0.3575  0.8996
  877MOL0     C15664   4.723   2.160   0.631  0.0656 -0.0974  0.9081
  877MOL0     C15665   4.586   2.191   0.625  0.5348 -0.2223 -0.2757
  877MOL0     C15666   4.504   2.160   0.739 -0.1344 -1.2155  0.2377
  877MOL0     O15667   4.368   2.197   0.749 -0.3189 -0.6875 -0.1304
  877MOL0     C15668   4.286   2.141   0.654 -0.0989 -0.3179  0.3453
  877MOL0     C15669   4.131   2.167   0.693 -0.3651  0.5610 -0.6038
  877MOL0     C15670   4.056   2.031   0.699 -0.3858 -0.5197  0.0062
  877MOL0     C15671   4.099   1.937   0.811  0.4497  0.9180 -0.9061
  877MOL0     C15672   4.005   1.815   0.821  0.2169  0.1661 -0.3628
  877MOL0     C15673   3.863   1.835   0.880 -1.0880  0.0724  0.2717
  877MOL0     C15674   3.870   1.855   1.028  0.2249 -0.2506 -1.1945
  877MOL0     C15675   3.726   1.880   1.071  0.5910 -0.0307 -0.2132
  877MOL0    Cl15676   3.675   2.040   1.014 -0.1193  0.1158  0.3005
  877MOL0     C15677   4.561   2.105   0.854  0.1877 -0.5371 -0.3203
  877MOL0     C15678   4.699   2.089   0.867 -0.2171  0.6723  0.4913
  877MOL0     O15679   4.965   1.965   0.623  0.1899  0.3452  0.0793
  877MOL0     C15680   5.235   2.042   0.620 -0.0615  0.9970  0.1275
  877MOL0     C15681   5.369   2.055   0.643  0.1351  0.1982 -0.6336
  877MOL0     N15682   5.823   1.967   0.459  0.4715  1.0223 -0.3864
  877MOL0     N15683   5.925   1.911   0.399  0.0125 -0.2671  0.5768
  877MOL0     C15684   7.025   1.215   0.657 -0.6094  0.0283  0.1827
  877MOL0     C15685   7.164   1.237   0.686  0.8597 -0.6665  0.5649
  877MOL0     C15686   7.565   1.499   0.698 -0.0210 -1.0815 -0.3957
  877MOL0     C15687   7.587   1.489   0.837 -0.0447  0.2041 -0.1528
  877MOL0     C15688   7.712   1.515   0.895 -0.2309 -0.1193  0.7490
  877MOL0     C15689   7.817   1.539   0.811 -0.4654 -0.8636  0.6276
  877MOL0     O15690   7.942   1.564   0.858 -0.5094  0.6826  0.0657
  877MOL0     C15691   7.955   1.602   0.996  0.3830 -0.1216 -1.0299
  877MOL0     C15692   8.094   1.663   1.028  0.9488 -0.2299 -0.3646
  877MOL0     C15693   8.171   1.534   1.073 -0.2612  1.3255 -0.6361
  877MOL0     C15694   8.312   1.574   1.121 -0.0452 -0.2589 -0.6426
  877MOL0     C15695   8.376   1.448   1.155 -0.8764 -0.4948  0.8029
  877MOL0     C15696   8.427   1.347   1.206  0.4500 -0.7748  0.2695
  877MOL0     C15697   7.799   1.539   0.669  0.3038 -0.5736 -0.5197
  877MOL0     C15698   7.671   1.526   0.616 -0.0185 -0.1722 -1.1542
  877MOL0     H15699   7.147   1.589   0.664  1.9919 -0.0628  0.6791
  877MOL0     H15700   6.932   1.549   0.624  3.4465  2.9290  1.3324
  877MOL0     H15701   6.732   1.435   0.742  2.0612  0.6929 -1.2716
  877MOL0     H15702   6.621   1.304   0.706 -0.5741 -0.4340  1.0635
  877MOL0     H15703   6.556   1.395   0.502  1.2794 -0.2172 -0.8658
  877MOL0     H15704   6.711   1.482   0.490  0.6415 -1.5144  0.5404
  877MOL0     H15705   6.637   1.646   0.658  2.4732 -2.2931  0.6026
  877MOL0     H15706   6.492   1.561   0.686 -0.2618  3.2797  0.3995
  877MOL0     H15707   6.580   1.698   0.422 -0.2467 -0.8028 -1.0237
  877MOL0     H15708   6.443   1.587   0.428 -1.1780  0.5030  0.1358
  877MOL0     H15709   6.477   1.853   0.587  1.3393  1.0652 -1.6793
  877MOL0     H15710   6.344   1.744   0.605  0.4243 -0.7374  0.7063
  877MOL0     H15711   6.287   1.764   0.364 -4.1189  2.7310 -0.5197
  877MOL0     H15712   6.417   1.882   0.335 -1.8672  3.4057 -1.0022
  877MOL0     H15713   6.191   1.917   0.538  0.0595 -1.0011 -0.1919
  877MOL0     H15714   6.310   2.042   0.480 -0.2217 -0.0733 -0.9413
  877MOL0     H15715   6.157   1.892   0.260 -0.9705 -2.0199  2.4348
  877MOL0     H15716   6.184   2.069   0.278  0.0054 -0.2839  0.7260
  877MOL0     H15717   6.016   2.226   0.403 -2.0462  0.3979  2.7813
  877MOL0     H15718   5.649   2.170   0.515  0.4865 -1.0362  0.3611
  877MOL0     H15719   5.764   2.308   0.478  1.7291 -0.6096 -0.3430
  877MOL0     H15720   5.709   2.321   0.705  0.9982  1.3210 -0.6462
  877MOL0     H15721   5.876   2.292   0.668  0.0565 -0.4701  0.6408
  877MOL0     H15722   5.851   2.042   0.739  1.1786  0.3367  4.5176
  877MOL0     H15723   5.800   2.144   0.867 -1.5826 -3.7175  1.8262
  877MOL0     H15724   5.645   1.974   0.849 -1.0739 -1.2363 -0.2710
  877MOL0     H15725   5.625   1.998   0.673 -1.2622 -0.7376  0.2258
  877MOL0     H15726   5.368   2.302   0.869  0.0588  0.4585 -0.6054
  877MOL0     H15727   5.112   2.240   0.873  2.2186  2.5410 -0.0290
  877MOL0     H15728   4.794   2.176   0.550  1.5978  0.2384  2.2560
  877MOL0     H15729   4.542   2.241   0.539 -0.3271  4.8254  2.6968
  877MOL0     H15730   4.301   2.034   0.637  0.2870 -0.3725  1.0175
  877MOL0     H15731   4.297   2.184   0.553  2.4232 -1.8724 -0.1406
  877MOL0     H15732   4.064   2.224   0.627 -4.1727 -3.6838 -0.9166
  877MOL0     H15733   4.116   2.225   0.785 -1.9290 -1.6971  0.6799
  877MOL0     H15734   4.066   1.977   0.605  1.2697  1.1924 -0.8738
  877MOL0     H15735   3.950   2.051   0.715 -0.0080  0.5525  1.5041
  877MOL0     H15736   4.189   1.886   0.775 -0.3422 -1.1096 -0.1398
  877MOL0     H15737   4.110   1.985   0.909  0.0261  0.7888 -0.7927
  877MOL0     H15738   4.051   1.735   0.878 -1.3266 -0.1618  0.4850
  877MOL0     H15739   4.002   1.767   0.723  2.3043 -0.7633 -0.0203
  877MOL0     H15740   3.806   1.744   0.860  1.3746 -1.7024  0.8289
  877MOL0     H15741   3.814   1.925   0.841 -0.2650  0.2804 -0.3030
  877MOL0     H15742   3.909   1.769   1.082  2.0627  1.0373 -0.3545
  877MOL0     H15743   3.930   1.943   1.055  0.4565 -0.2055 -1.8432
  877MOL0     H15744   3.715   1.882   1.180 -0.5766  2.4621 -0.3027
  877MOL0     H15745   3.646   1.812   1.038 -2.4234  2.8633  0.5325
  877MOL0     H15746   4.491   2.078   0.933  0.3615  1.1551  0.4619
  877MOL0     H15747   4.743   2.043   0.955 -1.4193 -0.6871  0.4129
  877MOL0     H15748   5.205   1.983   0.534  0.0310  0.7383  0.2699
  877MOL0     H15749   5.440   1.991   0.590  1.0152 -0.2050  0.9696
  877MOL0     H15750   6.987   1.114   0.639 -1.1765  0.5379 -1.7819
  877MOL0     H15751   7.243   1.162   0.688  2.0314  0.3973 -1.7524
  877MOL0     H15752   7.503   1.462   0.901  0.1205 -1.4063 -0.5917
  877MOL0     H15753   7.721   1.514   1.003  1.1045 -3.0052  0.7161
  877MOL0     H15754   7.935   1.528   1.075 -0.7865  1.2839  0.0573
  877MOL0     H15755   7.873   1.669   1.024 -1.5709 -2.7084 -0.1477
  877MOL0     H15756   8.141   1.715   0.944 -0.1897  2.8232  0.7729
  877MOL0     H15757   8.091   1.726   1.117  0.0630  0.6678 -1.0142
  877MOL0     H15758   8.183   1.478   0.980  0.4585  2.0021 -0.9680
  877MOL0     H15759   8.120   1.473   1.148 -0.1762 -1.3161 -2.6187
  877MOL0     H15760   8.367   1.615   1.036  1.9319  0.8061  1.0745
  877MOL0     H15761   8.301   1.649   1.200  0.7051 -1.8119  1.0108
  877MOL0     H15762   8.477   1.277   1.269 -1.9227  0.2970  3.6279
  877MOL0     H15763   7.896   1.550   0.620  1.8276 -0.0172  2.3898
  877MOL0     H15764   7.656   1.522   0.509 -1.5706 -1.6130 -0.9057
  878MOL0     O15765   1.563   9.623  10.554  0.4530 -0.1809 -0.1256
  878MOL0     C15766   1.613   9.513  10.554  0.1294 -0.4929  0.0237
  878MOL0     O15767   1.546   9.395  10.542  0.2203  0.3256 -0.0962
  878MOL0     C15768   1.409   9.413  10.524 -0.6780  0.0084 -0.0396
  878MOL0     C15769   1.326   9.462  10.628  0.9479  0.8663  0.1500
  878MOL0     C15770   1.188   9.481  10.607 -0.1927 -0.2249 -0.5532
  878MOL0     C15771   1.139   9.464  10.479  0.0919 -0.3508  0.1263
  878MOL0     O15772   1.007   9.468  10.448 -0.2465 -0.0742 -0.2468
  878MOL0     C15773   0.907   9.451  10.554  0.1385  0.3511  0.1020
  878MOL0     C15774   0.781   9.412  10.485 -0.2552  0.3082 -0.0852
  878MOL0     C15775   0.675   9.362  10.588 -0.0707 -0.8879  0.2209
  878MOL0     C15776   0.557   9.295  10.514  0.0565 -0.0880  0.3614
  878MOL0     C15777   0.439   9.267  10.617  0.5723  0.1846 -0.9175
  878MOL0     C15778   0.307   9.272  10.536  0.3107 -0.2498  0.4522
  878MOL0     C15779   0.182   9.240  10.613  0.3722  0.2628  0.1084
  878MOL0     C15780   0.050   9.259  10.540 -0.8566 -0.3200  0.2016
  878MOL0     N15781  -0.059   9.228  10.630  0.3566 -0.3346  0.4306
  878MOL0     C15782  -0.122   9.102  10.626  0.6117  0.0784  0.3722
  878MOL0     C15783  -0.198   9.106  10.739 -0.8939 -0.0759  0.1351
  878MOL0     C15784  -0.278   8.981  10.782  0.2202 -0.2082 -1.0702
  878MOL0     C15785  -0.430   8.981  10.767  0.3630 -1.0635  0.1505
  878MOL0     C15786  -0.471   9.043  10.626  0.5334 -1.0660 -0.7663
  878MOL0     C15787  -0.610   9.110  10.616 -0.2487 -0.2387  0.7411
  878MOL0     O15788  -0.638   9.148  10.482  0.6493  0.4691  0.8421
  878MOL0     C15789  -0.740   9.232  10.482 -1.5481  0.5090 -0.2178
  878MOL0     C15790  -0.857   9.221  10.552 -1.2390  0.7520  0.1483
  878MOL0     C15791  -0.956   9.314  10.551 -0.3884 -0.4319 -0.2453
  878MOL0     C15792  -0.943   9.427  10.473 -0.0014 -0.2692 -0.4641
  878MOL0     C15793  -1.045   9.525  10.473 -0.4858 -0.2635  1.0114
  878MOL0     O15794  -1.176   9.485  10.483 -0.3298 -0.1689  0.1389
  878MOL0     C15795  -1.279   9.575  10.454 -1.2624 -0.1659  0.8019
  878MOL0     C15796  -1.375   9.524  10.371  0.6018  0.1490  0.3814
  878MOL0     C15797  -1.482   9.609  10.334  1.2598 -0.3247 -0.2798
  878MOL0     C15798  -1.499   9.736  10.381  0.2254 -0.3422 -0.4376
  878MOL0     O15799  -1.620   9.799  10.360 -0.0742  0.2501  0.4026
  878MOL0     C15800  -1.664   9.892  10.464 -0.5196 -0.0592  0.1930
  878MOL0     C15801  -1.817   9.916  10.452 -0.0412  0.5829 -0.5587
  878MOL0     C15802  -1.841  10.042  10.377  0.7026  0.0807  0.4438
  878MOL0     C15803  -1.993  10.066  10.359  0.5360 -0.5583 -0.2869
  878MOL0     C15804  -2.069  10.119  10.482 -0.7109  0.0694 -1.0810
  878MOL0     C15805  -2.209  10.179  10.454 -0.3174  0.7667  0.4419
  878MOL0     C15806  -2.305  10.066  10.406  0.4146 -1.3237 -0.3210
  878MOL0     C15807  -2.450  10.111  10.385  0.3615  0.0192  0.2616
  878MOL0    Cl15808  -2.529   9.957  10.358 -0.0479 -0.0932  0.0639
  878MOL0     C15809  -1.409   9.786  10.477 -0.7293  0.7713  0.4755
  878MOL0     C15810  -1.298   9.709  10.511 -0.5365 -0.6325 -0.6197
  878MOL0     O15811  -1.004   9.641  10.473 -0.4426  0.6714  0.1055
  878MOL0     C15812  -0.827   9.442  10.397 -0.2830 -0.9207  0.6063
  878MOL0     C15813  -0.731   9.346  10.400  0.0440  0.0561  0.3400
  878MOL0     N15814  -0.172   9.231  10.801  0.8114  0.7789  0.6835
  878MOL0     N15815  -0.090   9.304  10.738  0.4764 -0.2681  0.1156
  878MOL0     C15816   1.223   9.442  10.367  0.5923  0.2806 -0.0174
  878MOL0     C15817   1.354   9.415  10.396 -0.7517 -0.0025  0.6636
  878MOL0     C15818   1.762   9.511  10.526 -0.8633 -0.1552 -0.3799
  878MOL0     C15819   1.820   9.626  10.464 -0.0009 -0.1966 -1.2775
  878MOL0     C15820   1.958   9.635  10.430  0.3455 -0.1092 -0.3316
  878MOL0     C15821   2.040   9.531  10.468 -1.2463 -0.7471 -0.0815
  878MOL0     O15822   2.181   9.537  10.457 -0.0568  0.2052  0.1028
  878MOL0     C15823   2.249   9.642  10.389 -0.0692 -0.1360 -0.0203
  878MOL0     C15824   2.396   9.615  10.373  0.9996  0.7737  0.3907
  878MOL0     C15825   2.412   9.468  10.334  0.5419 -0.0041  0.2608
  878MOL0     C15826   2.556   9.462  10.274  0.5426 -0.0603 -0.4231
  878MOL0     C15827   2.653   9.460  10.381  0.4272 -1.0601 -1.5362
  878MOL0     C15828   2.728   9.437  10.471  0.2220 -0.5033 -0.1488
  878MOL0     C15829   1.981   9.409  10.514 -0.2110  0.2426 -0.1379
  878MOL0     C15830   1.842   9.397  10.550 -0.5978 -1.3023 -0.9060
  878MOL0     H15831   1.367   9.483  10.726 -1.1762 -1.8457  1.7485
  878MOL0     H15832   1.118   9.507  10.686  2.0287 -1.4929  1.9969
  878MOL0     H15833   0.882   9.548  10.597  2.9926  2.4237 -2.4926
  878MOL0     H15834   0.942   9.388  10.637  0.3908  1.7965  1.1381
  878MOL0     H15835   0.794   9.322  10.423 -0.8696  0.1790 -0.0299
  878MOL0     H15836   0.748   9.487  10.413  1.5092  0.7269 -0.5249
  878MOL0     H15837   0.639   9.450  10.643  1.6692  1.6175 -2.3371
  878MOL0     H15838   0.720   9.290  10.657  1.9387 -0.1741 -0.2627
  878MOL0     H15839   0.517   9.342  10.423 -1.8588  0.6890  1.5352
  878MOL0     H15840   0.594   9.196  10.486  1.3698 -0.6716  3.7199
  878MOL0     H15841   0.448   9.350  10.688  2.6946 -0.3622 -0.4628
  878MOL0     H15842   0.447   9.176  10.678 -1.6876 -0.4217 -1.4518
  878MOL0     H15843   0.315   9.181  10.476  0.2917 -0.3276  0.5664
  878MOL0     H15844   0.293   9.361  10.474  1.1913 -0.3223  0.1398
  878MOL0     H15845   0.191   9.137  10.648  0.0504  0.6205  1.2879
  878MOL0     H15846   0.185   9.314  10.694  1.5337  1.1103 -0.6656
  878MOL0     H15847   0.047   9.206  10.444  0.0300 -2.1564  1.1451
  878MOL0     H15848   0.044   9.363  10.507 -0.4501 -0.3804 -0.0673
  878MOL0     H15849  -0.110   9.030  10.546 -0.2739  0.0927  0.2177
  878MOL0     H15850  -0.270   8.964  10.890  0.8907  0.3944 -1.0162
  878MOL0     H15851  -0.237   8.884  10.752  0.0996 -2.2592  4.2543
  878MOL0     H15852  -0.472   9.045  10.845  1.0836  0.2617 -0.5245
  878MOL0     H15853  -0.478   8.883  10.775 -1.6213 -0.2013 -0.6677
  878MOL0     H15854  -0.405   9.115  10.577 -4.0076  1.5608 -3.7865
  878MOL0     H15855  -0.472   8.959  10.557  2.1274 -0.7200 -1.2556
  878MOL0     H15856  -0.613   9.192  10.688 -1.6415 -0.0768  0.5355
  878MOL0     H15857  -0.681   9.031  10.643  0.1573  0.8104  5.9436
  878MOL0     H15858  -0.863   9.131  10.612 -2.0589  0.6370 -0.0985
  878MOL0     H15859  -1.052   9.294  10.598 -2.5389  0.3564 -3.8811
  878MOL0     H15860  -1.364   9.421  10.339  0.6288  0.9675 -2.6324
  878MOL0     H15861  -1.558   9.571  10.266  0.5704 -1.0794  0.8790
  878MOL0     H15862  -1.618   9.990  10.451  0.1000 -0.1030  1.8578
  878MOL0     H15863  -1.647   9.847  10.562 -1.5975 -2.7217 -0.7459
  878MOL0     H15864  -1.877   9.928  10.542 -0.7929 -1.8772 -0.6763
  878MOL0     H15865  -1.859   9.827  10.406  2.2269 -0.5634 -0.5523
  878MOL0     H15866  -1.814  10.031  10.271  0.1186 -0.6451  0.3602
  878MOL0     H15867  -1.780  10.126  10.412  3.7162 -2.0514  0.6911
  878MOL0     H15868  -1.994  10.132  10.272  1.9408 -1.0333 -0.6887
  878MOL0     H15869  -2.042   9.973  10.329 -2.4572 -0.1932  2.8663
  878MOL0     H15870  -2.010  10.207  10.511  1.3209 -0.1862 -3.9283
  878MOL0     H15871  -2.067  10.039  10.556 -1.0977 -0.1119 -1.2686
  878MOL0     H15872  -2.195  10.262  10.384  0.8567  1.5940  1.6041
  878MOL0     H15873  -2.240  10.211  10.554  2.9762  1.8441  1.2304
  878MOL0     H15874  -2.270  10.047  10.304  0.4324 -1.1895 -0.3408
  878MOL0     H15875  -2.306   9.979  10.472  1.0060 -0.8500  0.3217
  878MOL0     H15876  -2.458  10.172  10.295 -0.1304 -0.8991 -0.3208
  878MOL0     H15877  -2.507  10.147  10.471 -0.3534 -1.0024  0.2224
  878MOL0     H15878  -1.409   9.889  10.509  0.1864  0.5943  1.0793
  878MOL0     H15879  -1.222   9.759  10.569 -2.5453  1.4241  0.4138
  878MOL0     H15880  -0.822   9.532  10.336 -1.7339  0.2125  2.0638
  878MOL0     H15881  -0.640   9.372  10.347 -1.2973  0.7403 -1.7745
  878MOL0     H15882   1.172   9.446  10.271  3.0280 -1.5086 -1.5022
  878MOL0     H15883   1.417   9.391  10.311  0.0807 -2.5292  1.8779
  878MOL0     H15884   1.763   9.710  10.426  1.2440  0.3904 -1.9148
  878MOL0     H15885   1.995   9.725  10.381  1.1715 -0.6586 -0.7394
  878MOL0     H15886   2.237   9.727  10.457  2.8255  0.2005  0.2068
  878MOL0     H15887   2.194   9.671  10.299 -2.0503  0.1060  1.2110
  878MOL0     H15888   2.440   9.676  10.293  4.1949 -1.9963 -0.2031
  878MOL0     H15889   2.429   9.629  10.476  3.4462  3.5891 -0.6198
  878MOL0     H15890   2.341   9.441  10.255 -0.9215 -0.7350  1.7560
  878MOL0     H15891   2.396   9.408  10.423 -1.0081 -0.7249 -0.4530
  878MOL0     H15892   2.580   9.369  10.222 -0.3355 -1.7928  2.0714
  878MOL0     H15893   2.574   9.549  10.211  0.8897 -1.0948 -1.8159
  878MOL0     H15894   2.781   9.413  10.561 -1.3229 -1.2640  0.5874
  878MOL0     H15895   2.055   9.332  10.531  3.1489  3.2393 -0.1906
  878MOL0     H15896   1.806   9.308  10.600 -0.8411  0.6188  2.6445
  879MOL0     O15897   8.830   8.692  10.216 -0.0022 -0.1919 -0.4875
  879MOL0     C15898   8.896   8.597  10.251  0.0739  1.0636 -0.0311
  879MOL0     O15899   8.835   8.471  10.261 -0.8477 -0.2206 -0.2491
  879MOL0     C15900   8.707   8.460  10.219  0.3597 -0.6117 -0.2285
  879MOL0     C15901   8.683   8.418  10.089  0.5255 -0.0395  0.6537
  879MOL0     C15902   8.550   8.392  10.047  0.2605 -0.2019  0.2424
  879MOL0     C15903   8.447   8.407  10.132  0.0900 -0.0588 -0.0603
  879MOL0     O15904   8.314   8.382  10.105  0.0863  0.0543 -0.4151
  879MOL0     C15905   8.278   8.385   9.966  0.6683  0.7194  1.0533
  879MOL0     C15906   8.135   8.437   9.940  0.1440  0.2139  0.5900
  879MOL0     C15907   8.027   8.361  10.015 -1.0434  1.0118  0.2156
  879MOL0     C15908   7.890   8.410   9.981  0.4117  0.7842  0.5183
  879MOL0     C15909   7.783   8.329  10.050  0.8806  0.5110 -0.6550
  879MOL0     C15910   7.651   8.387  10.026  0.7121  0.3502  0.1038
  879MOL0     C15911   7.594   8.342   9.886 -0.3296 -0.4764  0.1354
  879MOL0     C15912   7.460   8.413   9.863 -0.1643  0.4164  0.4546
  879MOL0     N15913   7.350   8.359   9.943  0.0149 -0.1303 -0.4161
  879MOL0     C15914   7.305   8.231   9.963 -0.0125 -0.1099  0.1124
  879MOL0     C15915   7.201   8.239  10.049  0.1236  0.5948  0.8650
  879MOL0     C15916   7.141   8.121  10.107  0.2012 -0.2319  1.1283
  879MOL0     C15917   7.010   8.158  10.189  0.3403  0.6782 -0.1795
  879MOL0     C15918   6.923   8.028  10.224  0.4360 -0.7253 -0.1886
  879MOL0     C15919   6.816   8.064  10.326  0.1097  0.0060  0.0985
  879MOL0     O15920   6.760   7.946  10.373  0.1951 -0.1283 -0.2513
  879MOL0     C15921   6.628   7.925  10.370 -0.1973  0.3639 -0.0130
  879MOL0     C15922   6.577   7.797  10.345 -0.9295 -0.4027  0.6425
  879MOL0     C15923   6.444   7.766  10.354  0.8161 -0.3386  0.1664
  879MOL0     C15924   6.350   7.875  10.384  0.0400  0.2344 -0.2841
  879MOL0     C15925   6.209   7.842  10.421 -0.6018 -0.7814  0.2375
  879MOL0     O15926   6.131   7.938  10.481  0.0008 -0.1163 -0.4223
  879MOL0     C15927   5.997   7.908  10.497 -0.8213 -0.5132  0.5523
  879MOL0     C15928   5.950   7.781  10.538  0.3098 -0.1584  0.2607
  879MOL0     C15929   5.812   7.747  10.542 -0.6689  0.1543 -0.0457
  879MOL0     C15930   5.715   7.834  10.502 -0.1471 -0.6047  0.6355
  879MOL0     O15931   5.588   7.792  10.511 -0.4467 -0.0307  0.3076
  879MOL0     C15932   5.538   7.731  10.395 -0.7544  0.1407 -0.6500
  879MOL0     C15933   5.423   7.641  10.409 -0.1238  0.5670 -0.1775
  879MOL0     C15934   5.393   7.563  10.275 -0.4931 -0.8465 -0.1736
  879MOL0     C15935   5.277   7.463  10.280  0.4907 -0.1396 -0.6139
  879MOL0     C15936   5.144   7.541  10.314  0.3691  0.6468 -0.3327
  879MOL0     C15937   5.029   7.468  10.246 -0.7611  0.1008  0.6486
  879MOL0     C15938   4.915   7.563  10.246 -0.0792 -1.1467  0.2887
  879MOL0     C15939   4.802   7.503  10.159 -0.2087 -0.0937  0.6594
  879MOL0    Cl15940   4.750   7.339  10.212 -0.0258 -0.0070  0.1163
  879MOL0     C15941   5.757   7.966  10.474 -0.1853  0.7087  0.1813
  879MOL0     C15942   5.895   8.007  10.472  0.5156  0.2982  0.4088
  879MOL0     O15943   6.169   7.732  10.383  0.3966  0.1547 -0.0515
  879MOL0     C15944   6.408   8.005  10.402  1.0067 -0.4688  0.7040
  879MOL0     C15945   6.543   8.026  10.408 -1.4046 -0.0926  0.0661
  879MOL0     N15946   7.170   8.368  10.073  0.3169 -0.1819  0.5388
  879MOL0     N15947   7.268   8.444  10.016  0.2739  0.0001 -0.5660
  879MOL0     C15948   8.471   8.450  10.266 -0.5225 -0.0207  0.2126
  879MOL0     C15949   8.602   8.480  10.309  0.8984 -0.7894  0.4114
  879MOL0     C15950   9.040   8.595  10.285  1.0314  0.3024 -1.1552
  879MOL0     C15951   9.100   8.486  10.352  0.0191 -0.1167 -1.1349
  879MOL0     C15952   9.231   8.488  10.382  0.0618 -0.1518 -0.4127
  879MOL0     C15953   9.312   8.594  10.342  0.6811 -0.5597  0.2626
  879MOL0     O15954   9.443   8.605  10.368 -0.6588  0.0634  0.3226
  879MOL0     C15955   9.533   8.588  10.260 -0.2643  0.7121  0.2557
  879MOL0     C15956   9.680   8.616  10.305 -0.1366  0.4977 -0.6726
  879MOL0     C15957   9.696   8.744  10.389  0.0844 -0.1361 -0.1494
  879MOL0     C15958   9.826   8.753  10.464  0.6204 -0.0094  0.9880
  879MOL0     C15959   9.853   8.632  10.548  0.3795 -0.1643  0.3921
  879MOL0     C15960   9.902   8.534  10.611 -0.1462 -0.1848 -0.5013
  879MOL0     C15961   9.255   8.711  10.281 -0.0239  0.0886 -0.5454
  879MOL0     C15962   9.115   8.704  10.254  0.2554  0.0232 -0.0878
  879MOL0     H15963   8.772   8.405  10.029 -0.1283 -3.3302  0.2003
  879MOL0     H15964   8.534   8.363   9.944 -2.9960  2.6261 -0.2474
  879MOL0     H15965   8.289   8.288   9.916  3.1101  1.3367  0.2316
  879MOL0     H15966   8.347   8.455   9.918  1.4520 -0.7579 -0.0404
  879MOL0     H15967   8.115   8.422   9.833 -1.8518  1.9260  0.6630
  879MOL0     H15968   8.131   8.545   9.955 -0.0857  0.9682 -3.5750
  879MOL0     H15969   8.036   8.380  10.122  1.5843 -0.9591  0.4477
  879MOL0     H15970   8.037   8.253  10.001  0.5700  1.0410  1.0077
  879MOL0     H15971   7.889   8.516  10.005  2.1815  1.2981 -1.3198
  879MOL0     H15972   7.872   8.405   9.873 -0.7094 -1.6733  0.7430
  879MOL0     H15973   7.795   8.338  10.158 -1.4803  0.3056 -0.3330
  879MOL0     H15974   7.781   8.227  10.012 -0.0843  1.0121 -2.0093
  879MOL0     H15975   7.653   8.495  10.038 -1.8590  0.2640  2.1110
  879MOL0     H15976   7.581   8.350  10.102  1.8749  2.0848  2.1439
  879MOL0     H15977   7.666   8.383   9.814  0.1535  0.9698  1.4005
  879MOL0     H15978   7.576   8.234   9.877 -1.9671 -0.5836  3.3140
  879MOL0     H15979   7.434   8.411   9.757  0.4850 -2.0640  0.2985
  879MOL0     H15980   7.478   8.517   9.891  1.6686  0.4224 -0.6262
  879MOL0     H15981   7.349   8.138   9.928 -0.1217 -0.1012 -0.0507
  879MOL0     H15982   7.212   8.070  10.173  0.2291 -1.2115  0.3634
  879MOL0     H15983   7.120   8.051  10.025 -0.4982  0.5126  0.6583
  879MOL0     H15984   6.946   8.218  10.123 -1.5787 -0.2701  0.7406
  879MOL0     H15985   7.023   8.225  10.274  1.2827 -0.0844  0.3022
  879MOL0     H15986   6.873   7.989  10.135  0.4540 -1.5052  0.1352
  879MOL0     H15987   6.987   7.947  10.260  3.4111  1.5187  0.0135
  879MOL0     H15988   6.751   8.132  10.270  1.7567  2.4103  0.9429
  879MOL0     H15989   6.865   8.129  10.400  2.7579 -0.5270 -1.0602
  879MOL0     H15990   6.651   7.723  10.316 -2.0413 -1.6017  0.8136
  879MOL0     H15991   6.395   7.671  10.340 -0.8860  0.3446  1.1906
  879MOL0     H15992   6.022   7.700  10.552  0.0584 -0.4745 -0.2290
  879MOL0     H15993   5.775   7.650  10.572 -0.4888  0.2771  0.6078
  879MOL0     H15994   5.617   7.668  10.355 -0.1215 -0.2442  1.1144
  879MOL0     H15995   5.514   7.807  10.319 -3.8687 -0.4809 -0.4507
  879MOL0     H15996   5.333   7.693  10.442  0.2853  1.3560 -0.2859
  879MOL0     H15997   5.449   7.572  10.490  3.6456 -0.5306 -2.1040
  879MOL0     H15998   5.489   7.517  10.248  1.2394  3.5612 -2.7551
  879MOL0     H15999   5.380   7.643  10.201  1.9263 -0.8496 -0.6990
  879MOL0     H16000   5.268   7.423  10.179  0.9605 -0.7936 -0.4016
  879MOL0     H16001   5.298   7.378  10.346  3.5711  1.7363  1.0505
  879MOL0     H16002   5.157   7.637  10.263 -1.3976  1.6304  0.9448
  879MOL0     H16003   5.134   7.556  10.422 -0.7790  2.4079 -0.6355
  879MOL0     H16004   4.999   7.383  10.307  2.5137  0.1094  2.5142
  879MOL0     H16005   5.053   7.431  10.146 -2.5226 -2.1283  0.9655
  879MOL0     H16006   4.875   7.578  10.347  0.5588  2.3999  0.1339
  879MOL0     H16007   4.937   7.664  10.210 -2.3892 -0.9899 -0.9445
  879MOL0     H16008   4.834   7.486  10.056 -1.6323  1.4440 -0.0839
  879MOL0     H16009   4.722   7.577  10.166  2.2631  2.8203  0.4112
  879MOL0     H16010   5.684   8.043  10.451  0.3439  1.1833  0.0677
  879MOL0     H16011   5.911   8.105  10.429 -0.1519  0.2991  0.1560
  879MOL0     H16012   6.342   8.083  10.436  2.7099  0.4809  1.9920
  879MOL0     H16013   6.581   8.120  10.446 -4.2028 -0.1247  3.3425
  879MOL0     H16014   8.390   8.444  10.338 -1.8460  0.7206 -1.1589
  879MOL0     H16015   8.624   8.513  10.410  0.7219  2.9701 -0.6280
  879MOL0     H16016   9.046   8.395  10.378  0.2403  0.4676  1.7622
  879MOL0     H16017   9.273   8.406  10.440  0.4023 -0.0230 -0.4794
  879MOL0     H16018   9.514   8.654  10.175  1.6723 -0.1972 -0.9812
  879MOL0     H16019   9.531   8.489  10.212 -2.1604  2.0405 -2.6810
  879MOL0     H16020   9.699   8.531  10.370 -1.2437  0.5144 -0.3075
  879MOL0     H16021   9.755   8.620  10.225 -0.1603  0.9026 -0.6770
  879MOL0     H16022   9.618   8.749  10.465  0.4506  1.3108  0.1642
  879MOL0     H16023   9.675   8.833  10.329 -1.6968  0.1388  0.7938
  879MOL0     H16024   9.911   8.768  10.397  0.7050  0.0192  1.1004
  879MOL0     H16025   9.835   8.835  10.535 -0.1562 -0.3531  1.4881
  879MOL0     H16026   9.944   8.441  10.644 -0.2504 -2.1023 -5.0492
  879MOL0     H16027   9.308   8.799  10.248 -2.0286  0.7554 -2.2511
  879MOL0     H16028   9.080   8.791  10.199  1.5448 -0.1717 -1.2964
  880MOL0     O16029   6.364   1.225   6.073 -0.9847 -0.5558  0.2508
  880MOL0     C16030   6.349   1.348   6.091 -0.1426  0.3819 -0.4835
  880MOL0     O16031   6.235   1.406   6.132 -1.0008 -0.0702 -0.2307
  880MOL0     C16032   6.116   1.337   6.165  0.3964  0.1179  0.4972
  880MOL0     C16033   6.041   1.377   6.277  0.6322 -1.0070  0.0379
  880MOL0     C16034   5.927   1.304   6.303 -0.6311 -0.5431 -0.9060
  880MOL0     C16035   5.878   1.200   6.214  0.0006 -0.7184 -0.0593
  880MOL0     O16036   5.764   1.125   6.229  0.3912  0.3357  0.3062
  880MOL0     C16037   5.661   1.179   6.314  0.4292  0.5417 -0.0743
  880MOL0     C16038   5.524   1.106   6.278  0.0676 -0.0762 -0.0775
  880MOL0     C16039   5.529   0.968   6.342  0.8527  0.4426 -0.0229
  880MOL0     C16040   5.407   0.879   6.312 -0.0784  0.3924 -0.2907
  880MOL0     C16041   5.268   0.940   6.359  0.2381 -0.2185  0.6727
  880MOL0     C16042   5.161   0.970   6.253  0.5470 -0.6018 -0.6578
  880MOL0     C16043   5.030   1.016   6.328 -0.7545  0.0895 -0.2205
  880MOL0     C16044   4.931   1.072   6.232 -0.1356  0.5822  0.0964
  880MOL0     N16045   4.870   0.955   6.160  0.3948 -0.4942 -0.7793
  880MOL0     C16046   4.772   0.872   6.200 -0.0962  0.3304  0.0229
  880MOL0     C16047   4.742   0.808   6.080 -0.4708  0.7019  0.0573
  880MOL0     C16048   4.657   0.681   6.073 -1.0704 -0.2421 -0.2004
  880MOL0     C16049   4.516   0.710   6.028  0.2002 -0.0584 -0.1514
  880MOL0     C16050   4.439   0.578   6.024  0.0933  0.7159  0.3768
  880MOL0     C16051   4.293   0.603   6.006 -0.0513  0.3734  0.0914
  880MOL0     O16052   4.227   0.481   6.027 -0.2128  0.6158  0.4605
  880MOL0     C16053   4.093   0.475   6.012  0.3817  0.2294  0.6893
  880MOL0     C16054   3.999   0.574   5.975  0.2106 -0.5047 -0.6070
  880MOL0     C16055   3.864   0.548   5.952 -0.7937  0.7848  0.6056
  880MOL0     C16056   3.819   0.420   5.971  1.0069  0.7429 -0.1998
  880MOL0     C16057   3.668   0.401   5.962 -0.5227 -0.1617  0.4301
  880MOL0     O16058   3.589   0.505   5.915  0.3854  0.4950 -0.3962
  880MOL0     C16059   3.460   0.465   5.890 -0.1193 -0.9736  0.2449
  880MOL0     C16060   3.420   0.355   5.806 -0.0863  0.4583 -0.1415
  880MOL0     C16061   3.293   0.316   5.792 -0.1882  1.2804  0.0403
  880MOL0     C16062   3.190   0.383   5.855 -0.6997 -0.0986 -0.1718
  880MOL0     O16063   3.065   0.345   5.868  0.3284  0.4437 -0.1910
  880MOL0     C16064   2.989   0.291   5.760 -0.1382 -0.6984 -0.2529
  880MOL0     C16065   2.843   0.275   5.803 -0.5392  0.0394 -0.3841
  880MOL0     C16066   2.754   0.227   5.683  1.1609 -0.6131  0.1162
  880MOL0     C16067   2.606   0.197   5.736  0.3946 -0.2104 -0.5309
  880MOL0     C16068   2.512   0.159   5.623  0.4383  0.1729 -0.1452
  880MOL0     C16069   2.385   0.085   5.664 -0.0071 -0.2855 -0.2976
  880MOL0     C16070   2.268   0.176   5.672 -0.3034  0.0026  0.4359
  880MOL0     C16071   2.149   0.088   5.664 -0.2343  0.4349  0.4805
  880MOL0    Cl16072   2.136   0.014   5.498 -0.1508  0.1360  0.0209
  880MOL0     C16073   3.224   0.485   5.944 -0.0557 -1.1270  0.0244
  880MOL0     C16074   3.359   0.525   5.962  0.5052 -1.2263 -0.8647
  880MOL0     O16075   3.627   0.293   6.002 -0.0333  0.2262  0.1507
  880MOL0     C16076   3.896   0.312   6.015  0.1902 -0.2101 -0.5681
  880MOL0     C16077   4.036   0.348   6.035  0.3836  0.1147  0.7822
  880MOL0     N16078   4.822   0.852   5.981 -0.4412  0.2413  0.0775
  880MOL0     N16079   4.892   0.952   6.022  0.2986  0.7948 -0.4679
  880MOL0     C16080   5.950   1.164   6.103 -0.2511 -0.2534 -0.0018
  880MOL0     C16081   6.068   1.233   6.081 -0.2762 -0.1316  0.6107
  880MOL0     C16082   6.438   1.439   6.031 -0.2529 -0.0240 -0.0534
  880MOL0     C16083   6.507   1.535   6.110 -0.1088 -0.5872 -0.4661
  880MOL0     C16084   6.608   1.616   6.051 -0.3548  0.7922 -0.0122
  880MOL0     C16085   6.636   1.617   5.916 -0.1461  0.5055 -0.2115
  880MOL0     O16086   6.727   1.709   5.873 -0.2406  0.0435 -0.3097
  880MOL0     C16087   6.753   1.738   5.735  0.2780  0.4415  0.1176
  880MOL0     C16088   6.847   1.863   5.723  0.8007  0.9978 -0.2693
  880MOL0     C16089   6.768   1.984   5.766  0.1682 -0.3531 -0.0645
  880MOL0     C16090   6.699   2.051   5.650 -0.4284 -0.1821  0.5217
  880MOL0     C16091   6.583   2.131   5.704 -0.1451 -0.1927 -0.2257
  880MOL0     C16092   6.488   2.185   5.758  0.3521 -0.1456  0.7169
  880MOL0     C16093   6.559   1.528   5.836 -0.7045 -0.0640  1.6094
  880MOL0     C16094   6.468   1.440   5.894  0.2288 -0.5073  0.1464
  880MOL0     H16095   6.077   1.455   6.342 -1.5238 -0.9784  1.2999
  880MOL0     H16096   5.867   1.336   6.387  3.6206 -0.1265  2.3378
  880MOL0     H16097   5.645   1.283   6.285  1.6387  0.8368  0.2442
  880MOL0     H16098   5.691   1.162   6.418  0.2017 -0.3924 -0.1491
  880MOL0     H16099   5.513   1.097   6.170 -0.7978  1.2440 -0.1256
  880MOL0     H16100   5.435   1.163   6.307  0.5000  1.3277 -1.3756
  880MOL0     H16101   5.559   0.973   6.447  0.1189  3.6123  0.1567
  880MOL0     H16102   5.615   0.923   6.291  1.8670  0.3137  1.7367
  880MOL0     H16103   5.405   0.867   6.204  0.9376  2.4795 -0.5971
  880MOL0     H16104   5.429   0.789   6.371  1.5395  2.1221  1.9320
  880MOL0     H16105   5.279   1.027   6.425 -0.9236  1.0034 -0.6777
  880MOL0     H16106   5.230   0.856   6.419  0.0647  0.3021  1.3116
  880MOL0     H16107   5.131   0.881   6.196 -1.0464 -1.6656  1.6997
  880MOL0     H16108   5.188   1.049   6.183  1.7802  0.2880  0.7564
  880MOL0     H16109   4.989   0.941   6.395  2.7342  0.1448  2.2479
  880MOL0     H16110   5.056   1.102   6.390  1.1324  1.3542 -2.5639
  880MOL0     H16111   4.972   1.137   6.154  0.1488 -1.4057 -1.5021
  880MOL0     H16112   4.850   1.127   6.281 -0.3943  0.7954 -0.5464
  880MOL0     H16113   4.724   0.856   6.296 -0.3657  1.4595  0.0940
  880MOL0     H16114   4.650   0.640   6.174 -1.6637  0.9003  0.2285
  880MOL0     H16115   4.706   0.611   6.004  1.2547 -0.4691  1.5424
  880MOL0     H16116   4.511   0.764   5.933  1.2407  0.2050 -0.0684
  880MOL0     H16117   4.469   0.768   6.108  0.5747 -3.1651  2.5541
  880MOL0     H16118   4.474   0.516   5.941 -0.2313  0.8201  0.1625
  880MOL0     H16119   4.451   0.526   6.120 -0.6941  1.7347  1.0509
  880MOL0     H16120   4.272   0.639   5.905  0.0803 -1.2469 -0.5470
  880MOL0     H16121   4.262   0.676   6.081 -1.0285  0.2240 -0.1439
  880MOL0     H16122   4.035   0.676   5.973  1.0574 -0.6863  1.8540
  880MOL0     H16123   3.797   0.629   5.924 -1.4003  0.1310  0.1413
  880MOL0     H16124   3.502   0.305   5.755  0.3326 -1.4956  2.2868
  880MOL0     H16125   3.273   0.230   5.729  1.3538  2.8415 -2.8217
  880MOL0     H16126   3.029   0.200   5.715 -0.3974 -0.2004 -1.5515
  880MOL0     H16127   2.989   0.368   5.682  1.7657  0.4142  0.7800
  880MOL0     H16128   2.793   0.365   5.843 -3.8707 -1.5630 -0.5799
  880MOL0     H16129   2.847   0.199   5.882 -0.3786 -0.0421 -0.4720
  880MOL0     H16130   2.799   0.137   5.640  1.5944 -0.3113 -0.0715
  880MOL0     H16131   2.763   0.300   5.602  2.4235 -0.1850  0.6061
  880MOL0     H16132   2.621   0.111   5.802 -0.2336 -1.3888 -1.8502
  880MOL0     H16133   2.561   0.284   5.784  1.5714  2.1784 -3.4313
  880MOL0     H16134   2.562   0.086   5.559  1.8755  1.1719 -0.2331
  880MOL0     H16135   2.482   0.244   5.562 -0.7189 -0.0236  0.1377
  880MOL0     H16136   2.410   0.046   5.763  0.7205  1.7960  0.3832
  880MOL0     H16137   2.365   0.008   5.588 -1.0705  1.3497 -1.7692
  880MOL0     H16138   2.265   0.238   5.762 -3.2710  0.4033  0.1649
  880MOL0     H16139   2.271   0.234   5.580 -2.9451 -0.0875  0.2244
  880MOL0     H16140   2.061   0.150   5.683 -2.5829 -2.8640  1.2678
  880MOL0     H16141   2.142   0.014   5.744  1.6808 -0.6782 -0.3096
  880MOL0     H16142   3.140   0.520   6.003 -0.9582 -1.5652 -0.9468
  880MOL0     H16143   3.379   0.604   6.034 -0.1003 -1.1612 -0.7620
  880MOL0     H16144   3.857   0.213   6.036 -3.1150  1.4240  1.8269
  880MOL0     H16145   4.107   0.269   6.060  0.9236  0.1441 -0.5606
  880MOL0     H16146   5.938   1.074   6.044 -0.5460  0.2248 -0.6790
  880MOL0     H16147   6.125   1.189   6.000 -1.8560 -1.9520  0.4038
  880MOL0     H16148   6.485   1.540   6.217 -0.6869 -2.0898 -0.4861
  880MOL0     H16149   6.660   1.690   6.112  0.5867  3.0797 -3.3172
  880MOL0     H16150   6.664   1.744   5.671  0.0781 -2.2093  0.0176
  880MOL0     H16151   6.803   1.651   5.690  1.3792 -0.6883  3.2671
  880MOL0     H16152   6.932   1.856   5.792 -0.0020  0.8529  0.7302
  880MOL0     H16153   6.885   1.872   5.621 -0.0572  1.0189 -0.5919
  880MOL0     H16154   6.846   2.051   5.804  0.4630 -1.4818  1.3715
  880MOL0     H16155   6.699   1.964   5.848  0.4807 -0.7646  0.0977
  880MOL0     H16156   6.777   2.116   5.609 -1.9976  0.4805 -1.5820
  880MOL0     H16157   6.657   1.981   5.577 -1.8173 -0.9050  1.9521
  880MOL0     H16158   6.406   2.243   5.795  0.2573  0.7249 -0.7841
  880MOL0     H16159   6.578   1.513   5.730  3.1574 -1.2627  2.3237
  880MOL0     H16160   6.410   1.364   5.844 -1.3997  0.5878  0.3022
  881MOL0     O16161   4.185   1.622   4.595 -0.2016 -0.1224  0.2145
  881MOL0     C16162   4.297   1.573   4.563  1.1156 -0.8044 -0.1871
  881MOL0     O16163   4.318   1.444   4.542 -0.0511  0.2790  0.0149
  881MOL0     C16164   4.206   1.360   4.549 -0.2632  0.3611 -0.4126
  881MOL0     C16165   4.171   1.285   4.658 -0.0369  0.9409 -0.1276
  881MOL0     C16166   4.062   1.198   4.658  0.9715 -0.5741  0.3558
  881MOL0     C16167   3.979   1.181   4.546  0.1552 -0.0163 -0.0928
  881MOL0     O16168   3.877   1.089   4.564  0.4175  0.1551  0.0846
  881MOL0     C16169   3.752   1.128   4.510  0.6044 -0.2709  0.7865
  881MOL0     C16170   3.643   1.064   4.590  0.5360  0.5673 -0.8564
  881MOL0     C16171   3.507   1.048   4.519  0.4434  0.0042  0.1331
  881MOL0     C16172   3.412   0.999   4.622  0.1220 -0.4519  0.2312
  881MOL0     C16173   3.265   0.994   4.564 -0.3618  0.1618  0.2066
  881MOL0     C16174   3.256   0.885   4.462  0.2183 -0.3091  0.3657
  881MOL0     C16175   3.109   0.862   4.421  0.6286 -0.8717 -0.2980
  881MOL0     C16176   3.033   0.770   4.517 -0.3670  0.5415 -0.5524
  881MOL0     N16177   3.048   0.629   4.500 -0.1569 -0.3539  0.2777
  881MOL0     C16178   2.986   0.560   4.398  0.2775  0.5457 -0.5057
  881MOL0     C16179   3.006   0.434   4.432 -0.1461  0.6810  0.7661
  881MOL0     C16180   2.941   0.318   4.363  0.4995  0.2783 -0.1188
  881MOL0     C16181   3.032   0.194   4.379  0.1546  0.6409  0.1597
  881MOL0     C16182   3.007   0.095   4.268  0.4815 -0.7647  0.0412
  881MOL0     C16183   2.865   0.041   4.247  0.2721 -0.7419  0.4323
  881MOL0     O16184   2.827  -0.036   4.359  0.2846  0.2896  0.0261
  881MOL0     C16185   2.696  -0.085   4.375 -0.1338  0.7956 -0.4739
  881MOL0     C16186   2.651  -0.095   4.503  0.7308  1.1004 -0.8477
  881MOL0     C16187   2.510  -0.123   4.532 -0.4358  0.2538  0.1728
  881MOL0     C16188   2.424  -0.148   4.424  0.7043 -0.1269  0.2725
  881MOL0     C16189   2.285  -0.186   4.448  0.1356 -0.7556 -0.8054
  881MOL0     O16190   2.242  -0.184   4.577 -0.1857  0.3112  0.4732
  881MOL0     C16191   2.113  -0.208   4.616  0.3198 -0.0159  1.1445
  881MOL0     C16192   2.065  -0.138   4.726 -0.0764 -0.6340  1.1106
  881MOL0     C16193   1.938  -0.161   4.782  0.0989  0.2780 -0.1078
  881MOL0     C16194   1.851  -0.256   4.715  0.0545 -0.5777  0.1289
  881MOL0     O16195   1.729  -0.284   4.773  0.0137 -0.4289 -0.7636
  881MOL0     C16196   1.626  -0.204   4.705 -0.4401  0.2275  0.9817
  881MOL0     C16197   1.494  -0.253   4.750  0.1218  0.8761  0.4921
  881MOL0     C16198   1.377  -0.190   4.676  0.3892 -0.0696 -0.9489
  881MOL0     C16199   1.242  -0.226   4.738 -0.6961  0.8017  0.6314
  881MOL0     C16200   1.128  -0.135   4.709 -0.6810 -0.0008 -0.3471
  881MOL0     C16201   1.089  -0.094   4.570  1.1135  0.0496 -0.1677
  881MOL0     C16202   0.943  -0.054   4.554  0.5665  0.1037  0.6603
  881MOL0     C16203   0.933   0.092   4.596  0.5854  0.4872 -0.3005
  881MOL0    Cl16204   1.004   0.201   4.470 -0.3965  0.1555  0.2571
  881MOL0     C16205   1.891  -0.322   4.597 -0.3095  0.1693 -0.3036
  881MOL0     C16206   2.028  -0.303   4.554  0.3485 -0.0545  0.1694
  881MOL0     O16207   2.209  -0.200   4.353 -0.2860  0.3495 -0.0767
  881MOL0     C16208   2.469  -0.127   4.292 -0.5178  0.2621 -0.3549
  881MOL0     C16209   2.606  -0.098   4.273  0.4022 -0.4140  0.4688
  881MOL0     N16210   3.076   0.419   4.546 -0.5560  0.0576 -0.2921
  881MOL0     N16211   3.105   0.544   4.581  0.1516  0.6636 -0.5816
  881MOL0     C16212   4.009   1.262   4.437  0.3649  0.5283 -0.3865
  881MOL0     C16213   4.114   1.348   4.442  0.6618  0.1186 -0.1076
  881MOL0     C16214   4.413   1.663   4.538 -0.1690 -0.3624 -0.1349
  881MOL0     C16215   4.407   1.800   4.558  0.0463 -0.0266  0.2932
  881MOL0     C16216   4.512   1.878   4.520 -0.4874  0.0551  0.6523
  881MOL0     C16217   4.624   1.833   4.447 -0.4647  0.7426  0.0725
  881MOL0     O16218   4.735   1.906   4.405  0.4397 -0.2511 -0.0755
  881MOL0     C16219   4.766   2.028   4.471 -0.0498  0.1943 -0.9369
  881MOL0     C16220   4.917   2.035   4.503 -1.3512  0.7127  0.4657
  881MOL0     C16221   5.013   2.039   4.379 -0.2168  0.5834 -0.3124
  881MOL0     C16222   5.132   2.138   4.392 -0.2903 -1.0112 -0.0714
  881MOL0     C16223   5.100   2.277   4.367  0.3710 -0.0645 -0.1529
  881MOL0     C16224   5.071   2.394   4.343 -1.0229 -0.9164 -0.4760
  881MOL0     C16225   4.623   1.696   4.416  0.0412 -0.0205  0.5968
  881MOL0     C16226   4.525   1.615   4.461  0.4249 -0.5870 -0.6310
  881MOL0     H16227   4.240   1.296   4.741  1.5559 -2.4897 -0.8308
  881MOL0     H16228   4.035   1.142   4.746 -0.6559 -2.6070 -1.3186
  881MOL0     H16229   3.742   1.080   4.412 -0.6228 -1.0678  1.2722
  881MOL0     H16230   3.731   1.235   4.501  1.5270 -0.0262  1.5046
  881MOL0     H16231   3.632   1.113   4.687 -3.5277 -0.8798 -0.4189
  881MOL0     H16232   3.678   0.963   4.612 -1.6522 -0.1155 -0.2494
  881MOL0     H16233   3.538   0.982   4.437  0.7939 -1.5685  1.4707
  881MOL0     H16234   3.463   1.141   4.483 -0.3402  0.3403  1.8295
  881MOL0     H16235   3.442   0.903   4.667  0.6977  0.3217  1.5538
  881MOL0     H16236   3.408   1.077   4.699  0.5902  0.5275 -0.7208
  881MOL0     H16237   3.237   1.095   4.534  0.9202  0.1009 -1.2636
  881MOL0     H16238   3.199   0.961   4.645 -2.4346  0.6262 -1.2169
  881MOL0     H16239   3.293   0.790   4.502  1.3771  0.7715  1.9869
  881MOL0     H16240   3.322   0.912   4.380  2.4803 -0.9324  1.8820
  881MOL0     H16241   3.058   0.958   4.424 -3.1609 -2.6701 -1.0585
  881MOL0     H16242   3.105   0.817   4.322 -0.3752  0.3905 -0.8530
  881MOL0     H16243   2.929   0.795   4.495 -0.7675 -0.6300 -0.0709
  881MOL0     H16244   3.057   0.795   4.621  0.6275 -0.1706 -0.5962
  881MOL0     H16245   2.925   0.590   4.313  0.7251 -3.9545 -2.7369
  881MOL0     H16246   2.921   0.337   4.257 -1.1670 -3.0659 -0.5515
  881MOL0     H16247   2.848   0.298   4.416  0.3844  1.3918  0.1201
  881MOL0     H16248   3.018   0.150   4.478  2.8859 -0.7933 -0.0083
  881MOL0     H16249   3.136   0.224   4.368  0.1203  0.4117 -0.8368
  881MOL0     H16250   3.048   0.135   4.174  1.4661  2.5604  1.7539
  881MOL0     H16251   3.069   0.009   4.297  2.8186  0.2794 -1.5919
  881MOL0     H16252   2.858  -0.017   4.155 -1.5385 -2.4720  1.5600
  881MOL0     H16253   2.792   0.118   4.219  2.4323  0.3911 -2.5985
  881MOL0     H16254   2.720  -0.087   4.586  0.0031  0.1240 -0.1195
  881MOL0     H16255   2.475  -0.135   4.634 -0.8136 -0.5932 -0.0458
  881MOL0     H16256   2.141  -0.070   4.763  1.6601 -1.8550 -0.0756
  881MOL0     H16257   1.910  -0.120   4.878 -2.0592  0.2375 -0.6603
  881MOL0     H16258   1.643  -0.225   4.599  2.2774 -1.9631  1.7098
  881MOL0     H16259   1.631  -0.096   4.722 -1.2173  0.7419 -1.7535
  881MOL0     H16260   1.479  -0.242   4.858  0.2571 -0.4231  0.6657
  881MOL0     H16261   1.493  -0.362   4.736 -1.2889  0.9919 -0.5239
  881MOL0     H16262   1.392  -0.222   4.572 -0.2036 -1.2657 -0.6855
  881MOL0     H16263   1.380  -0.081   4.675  1.2057  0.0988  3.1442
  881MOL0     H16264   1.219  -0.328   4.708 -0.0560  2.2030 -5.9850
  881MOL0     H16265   1.255  -0.236   4.846  0.4591 -0.6350  0.3861
  881MOL0     H16266   1.144  -0.047   4.773 -1.4495  0.6220 -0.9930
  881MOL0     H16267   1.042  -0.189   4.749  0.0911 -1.3001 -0.3874
  881MOL0     H16268   1.103  -0.188   4.515  0.3652 -0.1661 -0.0068
  881MOL0     H16269   1.154  -0.012   4.538  1.1932  0.8680  1.9564
  881MOL0     H16270   0.919  -0.066   4.448  2.9062  0.3246  0.0581
  881MOL0     H16271   0.873  -0.107   4.619 -0.4007  0.0582 -0.3914
  881MOL0     H16272   0.983   0.115   4.691 -1.2938 -4.0090  2.0768
  881MOL0     H16273   0.828   0.122   4.606  1.0180  2.0606 -0.1244
  881MOL0     H16274   1.828  -0.393   4.544 -0.1961 -1.2635  1.4066
  881MOL0     H16275   2.059  -0.367   4.472 -1.2804  1.1553 -1.4675
  881MOL0     H16276   2.393  -0.136   4.216  0.5467 -0.6822 -1.3455
  881MOL0     H16277   2.640  -0.093   4.170 -0.4900  1.5395  0.2258
  881MOL0     H16278   3.959   1.247   4.342  0.4942  1.7327 -0.6613
  881MOL0     H16279   4.132   1.407   4.353  0.1689  1.5991  0.7431
  881MOL0     H16280   4.324   1.854   4.602 -0.2365 -0.0342 -0.2275
  881MOL0     H16281   4.513   1.982   4.548  1.4960 -0.1405  1.4386
  881MOL0     H16282   4.717   2.046   4.567  0.6456 -2.5511  0.0152
  881MOL0     H16283   4.740   2.107   4.400  2.5546  1.3419 -0.7366
  881MOL0     H16284   4.929   2.121   4.568  1.1234 -0.7013  2.0062
  881MOL0     H16285   4.935   1.940   4.554 -0.6709 -0.7201 -2.2147
  881MOL0     H16286   4.952   2.059   4.291 -0.7048  0.8758  0.0905
  881MOL0     H16287   5.068   1.945   4.365 -1.6699 -0.2480 -0.6990
  881MOL0     H16288   5.177   2.127   4.491  4.1719 -1.8671 -1.9191
  881MOL0     H16289   5.206   2.103   4.318  0.5168  0.1196  0.1807
  881MOL0     H16290   5.042   2.497   4.332  2.8559  0.7101  2.3287
  881MOL0     H16291   4.696   1.653   4.348 -1.3166 -0.0738 -0.8917
  881MOL0     H16292   4.537   1.510   4.439 -1.5445 -1.6016  2.4328
  882MOL0     O16293  10.872   8.607   4.657  0.3820  0.4304  0.5157
  882MOL0     C16294  10.869   8.717   4.599 -0.5861 -0.0724 -0.5717
  882MOL0     O16295  10.766   8.805   4.605 -0.0589  0.0491  0.1598
  882MOL0     C16296  10.643   8.770   4.647  0.1687  0.2040  0.5155
  882MOL0     C16297  10.587   8.644   4.612  0.1417  0.3748  0.1466
  882MOL0     C16298  10.468   8.597   4.664 -0.2089 -0.0024  1.1320
  882MOL0     C16299  10.396   8.687   4.751 -0.4332  0.6592  0.7438
  882MOL0     O16300  10.281   8.645   4.817 -0.1116 -0.9331 -0.2914
  882MOL0     C16301  10.236   8.514   4.787 -0.4074 -0.4531  0.1474
  882MOL0     C16302  10.134   8.478   4.891 -0.7773 -0.2547 -0.0975
  882MOL0     C16303   9.997   8.555   4.874 -0.2705 -0.0128  0.2522
  882MOL0     C16304   9.896   8.515   4.981 -0.1743  0.2614  0.1526
  882MOL0     C16305   9.763   8.590   4.952  0.4870  0.7156 -0.1617
  882MOL0     C16306   9.638   8.506   4.953 -0.6179 -0.9840  0.8488
  882MOL0     C16307   9.524   8.600   4.961 -0.8060  0.5287 -0.5689
  882MOL0     C16308   9.393   8.531   4.919  0.4772  0.7989 -0.5166
  882MOL0     N16309   9.274   8.591   4.984  0.2537  0.3034 -0.6678
  882MOL0     C16310   9.181   8.528   5.064 -0.2580 -0.2031  0.4238
  882MOL0     C16311   9.093   8.623   5.105  0.1367  0.2773 -0.1635
  882MOL0     C16312   8.968   8.618   5.190  0.3384 -0.2513  0.3338
  882MOL0     C16313   8.846   8.554   5.117 -0.2936 -0.6207 -0.3848
  882MOL0     C16314   8.731   8.543   5.205 -0.0996  0.5094  0.1084
  882MOL0     C16315   8.603   8.510   5.132 -0.0729  0.1424  0.0722
  882MOL0     O16316   8.501   8.464   5.215  0.0458 -0.3202 -0.8265
  882MOL0     C16317   8.376   8.448   5.158  0.3995  0.2412 -0.3696
  882MOL0     C16318   8.266   8.439   5.238 -0.2218 -0.8478  0.3801
  882MOL0     C16319   8.135   8.417   5.181 -0.1173  0.7716 -0.3157
  882MOL0     C16320   8.119   8.391   5.043  0.6442  0.3978 -0.1407
  882MOL0     C16321   7.984   8.382   4.972 -0.2456 -0.8274 -0.0566
  882MOL0     O16322   7.879   8.370   5.050  0.3764  0.6538  0.8462
  882MOL0     C16323   7.759   8.344   4.995  0.2650 -0.1723 -0.2920
  882MOL0     C16324   7.661   8.447   4.978 -0.3332  0.5826 -1.2147
  882MOL0     C16325   7.538   8.403   4.921  0.0183 -0.3219  0.9509
  882MOL0     C16326   7.503   8.265   4.887 -0.9868 -0.7620  0.4622
  882MOL0     O16327   7.375   8.237   4.847  0.5768 -0.1784 -0.1051
  882MOL0     C16328   7.353   8.290   4.726 -0.0820 -0.7603  0.8271
  882MOL0     C16329   7.219   8.362   4.713 -0.2520  0.3381  0.1323
  882MOL0     C16330   7.208   8.472   4.809 -0.2485  0.0339 -0.3065
  882MOL0     C16331   7.077   8.547   4.772 -0.1242  0.5680 -0.3211
  882MOL0     C16332   7.050   8.662   4.878  0.3037  0.3016 -1.0446
  882MOL0     C16333   6.996   8.612   5.009  0.7144 -0.3233 -0.0877
  882MOL0     C16334   6.858   8.531   4.998  0.1574 -0.2394  0.5963
  882MOL0     C16335   6.876   8.383   5.001  0.3284 -0.3497  0.7477
  882MOL0    Cl16336   6.736   8.319   4.919  0.2582  0.2301  0.1193
  882MOL0     C16337   7.599   8.172   4.914 -0.5097  0.4610  0.6121
  882MOL0     C16338   7.727   8.207   4.966  0.2307 -0.7150 -0.6180
  882MOL0     O16339   7.980   8.387   4.846 -0.3798 -0.1824  0.2225
  882MOL0     C16340   8.225   8.382   4.966 -0.5680  0.1311 -0.0249
  882MOL0     C16341   8.351   8.419   5.020  0.7822  0.1450  0.1005
  882MOL0     N16342   9.142   8.742   5.056 -0.4075 -0.2759 -0.1107
  882MOL0     N16343   9.238   8.722   4.971 -0.3071  0.1125 -0.3692
  882MOL0     C16344  10.439   8.815   4.778  0.2081 -0.8875  0.1307
  882MOL0     C16345  10.565   8.852   4.730  0.9551 -0.4893  0.5931
  882MOL0     C16346  11.000   8.765   4.549 -0.4261 -0.5255 -0.3464
  882MOL0     C16347  10.995   8.886   4.475  1.0116 -0.9886  0.4427
  882MOL0     C16348  11.108   8.926   4.412 -0.2069  0.1768  0.3840
  882MOL0     C16349  11.229   8.866   4.419 -0.3081  0.4640 -1.0329
  882MOL0     O16350  11.333   8.939   4.372  0.7327  0.5004  0.5531
  882MOL0     C16351  11.401   9.033   4.448 -0.1079 -0.4199 -0.2331
  882MOL0     C16352  11.468   8.980   4.578  0.2696  0.1833  0.0941
  882MOL0     C16353  11.568   8.876   4.548 -0.1035  0.0669  0.2020
  882MOL0     C16354  11.637   8.837   4.674  0.1945  0.0604 -0.0354
  882MOL0     C16355  11.731   8.944   4.717  0.5694  1.4314  1.5279
  882MOL0     C16356  11.815   9.026   4.750  0.5679  0.3192  0.3255
  882MOL0     C16357  11.233   8.741   4.489 -0.4037  0.4727  0.5859
  882MOL0     C16358  11.113   8.687   4.543 -0.3511  0.3421 -1.1681
  882MOL0     H16359  10.628   8.589   4.528 -0.7227  0.6005 -0.4449
  882MOL0     H16360  10.427   8.501   4.634  1.8401 -0.3459 -0.8968
  882MOL0     H16361  10.310   8.433   4.793 -1.0574 -1.0234  0.6875
  882MOL0     H16362  10.196   8.512   4.685  0.6602  2.1858 -0.4019
  882MOL0     H16363  10.184   8.511   4.983 -0.2338  2.8740 -1.4052
  882MOL0     H16364  10.113   8.370   4.888  0.5571 -0.5345 -0.1800
  882MOL0     H16365   9.955   8.526   4.777 -1.7997 -0.0039  0.8840
  882MOL0     H16366  10.022   8.661   4.880 -1.3842  0.2536  0.4190
  882MOL0     H16367   9.874   8.408   4.980 -0.8415  0.4012 -0.3009
  882MOL0     H16368   9.943   8.564   5.066  1.6190  1.2930 -1.3672
  882MOL0     H16369   9.774   8.637   4.854  2.7272  0.3500 -0.1605
  882MOL0     H16370   9.750   8.663   5.033 -0.8992  1.7047 -1.2292
  882MOL0     H16371   9.626   8.433   5.034 -2.9017 -1.4258  0.2035
  882MOL0     H16372   9.635   8.447   4.861  2.1092 -0.6010  0.4427
  882MOL0     H16373   9.514   8.648   5.059  0.3659  0.3412 -0.3449
  882MOL0     H16374   9.539   8.691   4.902 -0.7333  1.7210  1.2063
  882MOL0     H16375   9.394   8.428   4.957  0.1548 -1.3245 -5.4959
  882MOL0     H16376   9.380   8.515   4.812  1.4277 -1.7797 -0.3090
  882MOL0     H16377   9.174   8.423   5.089 -2.8894  0.1970  1.6693
  882MOL0     H16378   8.946   8.724   5.203  1.9789  0.0256  1.1970
  882MOL0     H16379   8.989   8.573   5.287 -0.5771  1.2998  1.2992
  882MOL0     H16380   8.877   8.453   5.091  0.7653 -0.6101  0.7255
  882MOL0     H16381   8.822   8.610   5.027 -0.5157 -0.2163 -0.0803
  882MOL0     H16382   8.746   8.452   5.264  2.3832  2.0612  2.0861
  882MOL0     H16383   8.725   8.638   5.259  1.2060  2.6007 -3.0559
  882MOL0     H16384   8.626   8.426   5.066  2.6819  0.5749  0.3535
  882MOL0     H16385   8.564   8.590   5.068 -1.4764 -0.3295  0.3147
  882MOL0     H16386   8.281   8.460   5.344  1.7433  0.1734 -0.0576
  882MOL0     H16387   8.043   8.420   5.239 -0.0687 -2.2390  0.0762
  882MOL0     H16388   7.691   8.551   4.992  0.5969  0.5263 -2.5275
  882MOL0     H16389   7.462   8.476   4.896 -2.7819 -3.1464  0.4740
  882MOL0     H16390   7.346   8.208   4.655 -4.7586 -0.3333  0.5221
  882MOL0     H16391   7.430   8.357   4.684 -1.7856  0.3652 -0.6400
  882MOL0     H16392   7.147   8.289   4.751  1.2616 -1.1132  0.3421
  882MOL0     H16393   7.198   8.394   4.611  0.4186  1.7367  0.3983
  882MOL0     H16394   7.292   8.542   4.810  0.4185 -0.7447  0.6811
  882MOL0     H16395   7.199   8.438   4.913 -0.2144 -2.3601 -1.0131
  882MOL0     H16396   7.085   8.598   4.675  1.5935  0.9860  0.0037
  882MOL0     H16397   6.992   8.480   4.762 -0.2649  0.7568 -0.3911
  882MOL0     H16398   6.974   8.724   4.830 -1.4788 -0.9940 -0.0230
  882MOL0     H16399   7.139   8.721   4.899  2.6460 -2.9186 -1.1335
  882MOL0     H16400   6.974   8.700   5.071 -0.7596 -1.6699  1.4097
  882MOL0     H16401   7.072   8.551   5.058  2.0747 -0.1661 -1.8819
  882MOL0     H16402   6.789   8.575   5.070  0.8350  0.3576  0.8951
  882MOL0     H16403   6.812   8.542   4.899  2.0019  0.1348 -0.2667
  882MOL0     H16404   6.883   8.362   5.108  2.4690  2.2535  1.2358
  882MOL0     H16405   6.970   8.346   4.957 -2.0118 -1.4285 -3.9608
  882MOL0     H16406   7.572   8.068   4.902  1.1446 -0.2352  2.3846
  882MOL0     H16407   7.798   8.127   4.988  0.5004  0.0849  1.7363
  882MOL0     H16408   8.215   8.375   4.858 -1.2296 -1.2802  0.0970
  882MOL0     H16409   8.428   8.425   4.944  0.5850  3.4176  0.0034
  882MOL0     H16410  10.384   8.893   4.829  2.6559  1.8063 -0.9874
  882MOL0     H16411  10.605   8.951   4.752  1.4908 -0.6935  0.5471
  882MOL0     H16412  10.904   8.945   4.469  0.9827 -1.1782 -1.6313
  882MOL0     H16413  11.106   9.018   4.354  1.4615 -1.2538 -2.1126
  882MOL0     H16414  11.325   9.099   4.490  1.0063 -0.7973  2.5600
  882MOL0     H16415  11.471   9.086   4.382 -0.4402  1.1499  0.6265
  882MOL0     H16416  11.512   9.066   4.630  0.1880  0.5957 -0.5008
  882MOL0     H16417  11.390   8.931   4.636  0.7265 -0.7937 -0.0944
  882MOL0     H16418  11.644   8.915   4.480  2.1480 -2.4415  1.0807
  882MOL0     H16419  11.513   8.796   4.496 -0.6305 -1.1505  2.5014
  882MOL0     H16420  11.559   8.846   4.749 -0.5159 -2.8714 -0.2924
  882MOL0     H16421  11.676   8.735   4.683  1.5601  0.6809  1.5043
  882MOL0     H16422  11.881   9.107   4.774  0.2075  0.4160  1.0388
  882MOL0     H16423  11.323   8.680   4.492 -0.4713  0.1957 -1.3665
  882MOL0     H16424  11.117   8.589   4.589 -0.0550 -0.0439 -2.0145
  883MOL0     O16425   8.603   9.937   6.401  0.9941 -0.5136  0.0469
  883MOL0     C16426   8.620   9.924   6.279  0.3073  1.0803  0.1248
  883MOL0     O16427   8.531   9.948   6.181 -0.0784 -1.0668  0.0835
  883MOL0     C16428   8.393   9.969   6.198 -0.4002  0.1749 -0.0252
  883MOL0     C16429   8.325   9.997   6.077  0.4610 -1.1453  0.0546
  883MOL0     C16430   8.188  10.021   6.076  0.1169  0.0248  0.3609
  883MOL0     C16431   8.113  10.005   6.196 -1.3649 -0.3646 -0.6126
  883MOL0     O16432   7.980  10.030   6.202 -0.2792  0.1440 -1.1175
  883MOL0     C16433   7.901  10.003   6.085 -0.2991 -0.5360 -0.9206
  883MOL0     C16434   7.777   9.929   6.116 -0.2693 -0.6119 -0.5670
  883MOL0     C16435   7.650   9.975   6.049 -0.1175  0.2998 -0.0200
  883MOL0     C16436   7.536   9.869   6.038  0.2323  0.0059  0.5522
  883MOL0     C16437   7.416   9.930   5.966  0.6988  0.1214  0.4774
  883MOL0     C16438   7.326   9.810   5.920  0.1500 -0.6043  1.2032
  883MOL0     C16439   7.291   9.718   6.031  0.3781  0.3392  0.5697
  883MOL0     C16440   7.228   9.779   6.154 -0.1641 -0.2040 -0.0917
  883MOL0     N16441   7.226   9.678   6.264  0.2885 -0.7711  0.0351
  883MOL0     C16442   7.332   9.641   6.342 -0.7660 -0.6914  0.1713
  883MOL0     C16443   7.274   9.541   6.412  0.3183  0.5030 -0.6949
  883MOL0     C16444   7.340   9.447   6.503  0.3199 -0.7937 -0.1955
  883MOL0     C16445   7.292   9.497   6.648 -0.0916  0.3296  0.0191
  883MOL0     C16446   7.388   9.607   6.699  0.6370  0.5682 -0.6307
  883MOL0     C16447   7.339   9.654   6.832 -0.2740 -0.3805 -0.7475
  883MOL0     O16448   7.361   9.557   6.937 -0.2935  0.4200  0.0314
  883MOL0     C16449   7.486   9.510   6.963 -0.2915 -0.3846 -0.2969
  883MOL0     C16450   7.591   9.601   6.975 -0.1661  0.2073 -0.0301
  883MOL0     C16451   7.725   9.550   6.993 -0.1806  0.5532  0.2391
  883MOL0     C16452   7.749   9.415   7.024 -0.4443 -0.2533  0.6441
  883MOL0     C16453   7.888   9.362   7.050 -0.1888  1.2365  0.8951
  883MOL0     O16454   7.902   9.226   7.063  0.1615  0.0195  0.2644
  883MOL0     C16455   8.019   9.174   7.106  0.1277  0.1180 -0.1121
  883MOL0     C16456   8.055   9.052   7.045  0.1462 -0.4905 -0.5797
  883MOL0     C16457   8.173   8.995   7.075  0.6464  0.3194  1.0735
  883MOL0     C16458   8.262   9.044   7.169 -0.0167  0.5082 -0.2110
  883MOL0     O16459   8.371   8.973   7.206  0.2957  0.0862  0.6505
  883MOL0     C16460   8.502   9.031   7.185 -0.0793 -0.2624  0.2446
  883MOL0     C16461   8.584   9.008   7.307  0.2754  0.2111  1.0370
  883MOL0     C16462   8.513   9.069   7.432 -0.5868 -0.4693  0.4952
  883MOL0     C16463   8.601   9.083   7.552 -0.1732 -0.3402  0.4809
  883MOL0     C16464   8.648   8.951   7.611  0.1263  0.2654  0.6236
  883MOL0     C16465   8.747   8.981   7.720  0.7954  0.2385 -0.3831
  883MOL0     C16466   8.820   8.861   7.778 -0.8788 -1.1964 -0.3141
  883MOL0     C16467   8.812   8.849   7.930  0.6102 -1.0437 -0.1975
  883MOL0    Cl16468   8.927   8.719   7.986  0.0005  0.6919 -0.0052
  883MOL0     C16469   8.221   9.155   7.234  0.0205  0.9138  0.6800
  883MOL0     C16470   8.107   9.230   7.194 -0.0243  0.0706 -0.4877
  883MOL0     O16471   7.981   9.444   7.047  0.3905  0.5284  0.5331
  883MOL0     C16472   7.631   9.331   7.038 -0.5208 -0.6853  0.9789
  883MOL0     C16473   7.504   9.380   6.996 -0.1747  0.4106 -0.3739
  883MOL0     N16474   7.139   9.523   6.381  0.7135 -0.1187  0.0636
  883MOL0     N16475   7.115   9.599   6.281  0.2870 -1.1618 -0.7793
  883MOL0     C16476   8.180   9.975   6.314  0.0634 -0.5055 -0.7048
  883MOL0     C16477   8.319   9.962   6.315 -0.1613  0.8938 -0.2909
  883MOL0     C16478   8.761   9.898   6.239  0.4233  0.2576  0.1735
  883MOL0     C16479   8.802   9.890   6.106 -0.1641 -0.1073  0.8484
  883MOL0     C16480   8.932   9.855   6.072  0.2743  0.4325  0.3179
  883MOL0     C16481   9.021   9.817   6.175  0.5820 -0.4893  0.6693
  883MOL0     O16482   9.153   9.801   6.132 -0.3539  0.3034 -0.2073
  883MOL0     C16483   9.263   9.796   6.230 -0.5371  0.1761 -1.6370
  883MOL0     C16484   9.390   9.759   6.148  0.3334 -0.2168 -0.7988
  883MOL0     C16485   9.508   9.746   6.258 -0.4590  0.0849 -0.4005
  883MOL0     C16486   9.570   9.878   6.296 -0.0701 -0.3378  0.0355
  883MOL0     C16487   9.661   9.931   6.185 -0.0861  1.1414 -0.1858
  883MOL0     C16488   9.723   9.980   6.098  0.0073  0.0185 -0.7080
  883MOL0     C16489   8.978   9.815   6.312 -0.9362  1.1653 -0.4743
  883MOL0     C16490   8.852   9.861   6.345  0.8824  0.2819  0.1934
  883MOL0     H16491   8.380  10.012   5.984 -5.3152 -0.7789 -3.7819
  883MOL0     H16492   8.138  10.037   5.981 -0.1538  2.3848  0.8441
  883MOL0     H16493   7.960   9.936   6.023 -0.7425 -0.7270 -1.1400
  883MOL0     H16494   7.878  10.098   6.036 -1.8738 -0.5182 -0.2080
  883MOL0     H16495   7.765   9.928   6.224  1.5545 -1.3041 -0.3518
  883MOL0     H16496   7.787   9.823   6.090 -1.0728 -0.4788 -1.5296
  883MOL0     H16497   7.681  10.006   5.949  0.3206  1.9910  0.6147
  883MOL0     H16498   7.609  10.060   6.103 -1.0652 -0.9096  1.2373
  883MOL0     H16499   7.572   9.780   5.984 -1.6958 -0.4302 -0.0977
  883MOL0     H16500   7.512   9.836   6.139  2.2961 -0.8204  0.8317
  883MOL0     H16501   7.438   9.985   5.873  0.3195 -0.3519  0.1047
  883MOL0     H16502   7.361   9.995   6.035  2.0660  1.0604  0.7332
  883MOL0     H16503   7.387   9.754   5.849  1.1822  0.5701  1.1229
  883MOL0     H16504   7.238   9.854   5.873 -0.0084 -1.3974  0.7472
  883MOL0     H16505   7.218   9.652   5.984  0.9296  0.8653 -1.1047
  883MOL0     H16506   7.376   9.655   6.059 -0.0192 -0.3164  0.3156
  883MOL0     H16507   7.126   9.818   6.139  0.2928  1.5111  1.0284
  883MOL0     H16508   7.295   9.857   6.190  0.3791  0.1340 -1.7186
  883MOL0     H16509   7.437   9.665   6.342 -0.6090 -1.1231  2.6407
  883MOL0     H16510   7.447   9.458   6.484  0.0427 -1.3847 -2.3133
  883MOL0     H16511   7.303   9.344   6.497 -0.5008 -0.5530  0.4593
  883MOL0     H16512   7.294   9.406   6.709 -1.2690  0.0623 -0.3066
  883MOL0     H16513   7.187   9.528   6.659 -0.0362  0.5683 -0.1105
  883MOL0     H16514   7.492   9.576   6.706  0.5449 -0.8345 -3.6831
  883MOL0     H16515   7.394   9.690   6.628  1.8656 -0.9645 -2.4056
  883MOL0     H16516   7.233   9.680   6.827 -0.4344 -0.0301  2.2925
  883MOL0     H16517   7.391   9.744   6.865 -3.0163  0.7139  0.9192
  883MOL0     H16518   7.580   9.707   6.960  0.1315  0.2025 -0.3087
  883MOL0     H16519   7.807   9.621   6.998  0.9299 -0.7617  1.3161
  883MOL0     H16520   7.979   9.001   6.986 -0.3659 -1.3021  0.7353
  883MOL0     H16521   8.194   8.899   7.029  0.1624  0.1847  1.1320
  883MOL0     H16522   8.492   9.139   7.172  3.3385 -0.0087 -1.2493
  883MOL0     H16523   8.561   8.990   7.103 -0.0416 -0.1200  0.2014
  883MOL0     H16524   8.683   9.050   7.288  0.2272 -1.1517 -3.3598
  883MOL0     H16525   8.591   8.902   7.333 -0.6046 -0.0157  0.4132
  883MOL0     H16526   8.421   9.016   7.458 -1.7942  1.4412  0.2856
  883MOL0     H16527   8.495   9.173   7.402  0.9309  0.0399  1.2202
  883MOL0     H16528   8.688   9.143   7.524 -0.6528 -0.3573 -1.1537
  883MOL0     H16529   8.545   9.133   7.632 -1.0363  0.9721 -0.8933
  883MOL0     H16530   8.702   8.898   7.533  0.7270 -2.6703  2.8516
  883MOL0     H16531   8.562   8.894   7.648 -0.4379  0.9395  0.3716
  883MOL0     H16532   8.692   9.042   7.791 -2.1836 -1.6967 -0.8588
  883MOL0     H16533   8.833   9.040   7.686  0.3589 -0.4710 -2.9324
  883MOL0     H16534   8.789   8.770   7.725  1.3484 -0.2504 -3.5960
  883MOL0     H16535   8.926   8.861   7.751 -1.0524  0.2274 -1.1140
  883MOL0     H16536   8.708   8.818   7.942  0.6348 -0.6553  1.0922
  883MOL0     H16537   8.827   8.949   7.971 -1.6986  0.6493 -3.0739
  883MOL0     H16538   8.276   9.195   7.318  5.5482 -0.6870 -1.7179
  883MOL0     H16539   8.082   9.315   7.255 -0.8507  0.6383 -1.5802
  883MOL0     H16540   7.643   9.228   7.070  0.9970 -0.7736  0.2059
  883MOL0     H16541   7.424   9.310   6.975  0.7521 -0.3796 -1.3914
  883MOL0     H16542   8.137   9.969   6.413  1.1295 -0.8120 -0.2513
  883MOL0     H16543   8.370   9.934   6.407 -0.1663 -0.1550 -0.5876
  883MOL0     H16544   8.729   9.911   6.028 -1.4043 -0.3490  1.8981
  883MOL0     H16545   8.970   9.881   5.973 -0.3398 -0.9856 -0.3026
  883MOL0     H16546   9.247   9.734   6.319  2.8798  1.1292 -0.2031
  883MOL0     H16547   9.262   9.894   6.278 -0.4254 -0.1840 -0.8958
  883MOL0     H16548   9.367   9.662   6.103 -2.8975 -0.1595  0.4670
  883MOL0     H16549   9.429   9.834   6.079  0.8759 -0.7617 -1.0913
  883MOL0     H16550   9.588   9.682   6.221 -0.2992  0.3693 -0.5510
  883MOL0     H16551   9.465   9.698   6.347 -0.2633 -0.7546 -0.7527
  883MOL0     H16552   9.501   9.959   6.323  2.4216  2.7455 -2.1387
  883MOL0     H16553   9.634   9.848   6.380  0.3924  0.4079 -0.0465
  883MOL0     H16554   9.777  10.041   6.029  1.2560  0.1957  0.3827
  883MOL0     H16555   9.041   9.788   6.396 -1.0282 -2.4211 -1.4033
  883MOL0     H16556   8.828   9.867   6.451 -1.5469 -0.8138 -0.2466
  884MOL0     O16557   9.919  10.643   7.306  0.2059  0.2253 -1.1629
  884MOL0     C16558   9.923  10.760   7.275  1.2385 -0.2708 -0.5804
  884MOL0     O16559   9.819  10.832   7.210  0.0013 -0.3011 -0.0295
  884MOL0     C16560   9.766  10.772   7.097  0.9980 -0.5672 -0.4540
  884MOL0     C16561   9.794  10.646   7.041 -0.2260  0.3566  0.0631
  884MOL0     C16562   9.727  10.612   6.920  0.3586  0.6225 -0.8005
  884MOL0     C16563   9.646  10.689   6.848  0.8723 -0.8133  0.6391
  884MOL0     O16564   9.599  10.657   6.727 -0.7030  0.2046  0.7506
  884MOL0     C16565   9.610  10.525   6.672  0.4143 -0.4812  0.4691
  884MOL0     C16566   9.523  10.418   6.733 -0.5210  0.0662  0.1916
  884MOL0     C16567   9.376  10.471   6.712  0.1103  0.5382 -0.1660
  884MOL0     C16568   9.280  10.362   6.737  0.2298  0.3482 -0.7414
  884MOL0     C16569   9.134  10.414   6.745 -0.5651  1.1242 -0.9435
  884MOL0     C16570   9.093  10.490   6.621  0.5685  0.6906 -0.8200
  884MOL0     C16571   8.949  10.516   6.634  0.6930 -0.0814  0.2000
  884MOL0     C16572   8.888  10.557   6.499  0.4004 -0.6417  0.4133
  884MOL0     N16573   8.942  10.683   6.448 -0.4180  0.2860 -0.8536
  884MOL0     C16574   9.034  10.702   6.354 -0.7762  0.0674 -0.3147
  884MOL0     C16575   9.014  10.825   6.302  0.0040  0.0618 -1.0126
  884MOL0     C16576   9.054  10.871   6.164 -0.3554 -0.2786  0.3533
  884MOL0     C16577   9.013  10.770   6.047 -0.0341 -0.7248 -0.3043
  884MOL0     C16578   8.870  10.799   6.019 -0.0465 -0.0871  0.4832
  884MOL0     C16579   8.809  10.690   5.933 -0.2640 -0.4861  0.0109
  884MOL0     O16580   8.661  10.693   5.927  0.0278 -0.9189  0.0859
  884MOL0     C16581   8.581  10.640   5.832  0.4028  0.7103  0.9658
  884MOL0     C16582   8.443  10.667   5.847 -0.8967  0.1119  0.6194
  884MOL0     C16583   8.353  10.614   5.756  0.4371 -0.5034 -0.2121
  884MOL0     C16584   8.396  10.540   5.643 -0.2848  0.7801 -0.3622
  884MOL0     C16585   8.305  10.481   5.555  1.6463  0.2126  0.4387
  884MOL0     O16586   8.173  10.517   5.573  0.4614 -0.1329 -0.2780
  884MOL0     C16587   8.072  10.489   5.477 -0.0215  0.4205 -0.1266
  884MOL0     C16588   7.940  10.498   5.536 -0.5393 -0.1506  0.0709
  884MOL0     C16589   7.829  10.460   5.468  0.7499  0.7090 -0.5816
  884MOL0     C16590   7.838  10.407   5.332 -0.6733  0.5219 -0.4552
  884MOL0     O16591   7.719  10.374   5.268  0.5827 -0.8680  0.7842
  884MOL0     C16592   7.713  10.260   5.184 -0.0438  0.0490 -0.6880
  884MOL0     C16593   7.568  10.219   5.174 -0.0857  0.9864 -0.0660
  884MOL0     C16594   7.492  10.307   5.066 -0.2762  0.1233 -0.6474
  884MOL0     C16595   7.351  10.255   5.042 -0.3528  0.6662  0.2183
  884MOL0     C16596   7.284  10.321   4.927  0.3837  0.2638  0.3308
  884MOL0     C16597   7.167  10.238   4.890 -0.4338 -0.0671  1.1664
  884MOL0     C16598   7.074  10.310   4.794  0.3616 -1.1230 -0.0602
  884MOL0     C16599   6.940  10.246   4.775  0.7574  0.1845 -0.0369
  884MOL0    Cl16600   6.823  10.273   4.906 -0.0222 -0.4282  0.1350
  884MOL0     C16601   7.965  10.406   5.273 -0.5898  0.6062  0.1651
  884MOL0     C16602   8.080  10.448   5.341 -0.5295  0.4927  0.4811
  884MOL0     O16603   8.347  10.395   5.469  0.0603 -0.7873 -0.0897
  884MOL0     C16604   8.539  10.519   5.622  0.6118  0.1107 -0.5552
  884MOL0     C16605   8.625  10.575   5.713 -0.0736 -0.5419  0.2211
  884MOL0     N16606   8.929  10.883   6.391  0.0153 -0.2363  0.3166
  884MOL0     N16607   8.897  10.802   6.485 -0.2614 -0.3789 -0.6503
  884MOL0     C16608   9.616  10.819   6.897 -0.6360  0.9430 -0.2870
  884MOL0     C16609   9.676  10.860   7.017 -0.1292 -0.3744 -0.3624
  884MOL0     C16610  10.021  10.833   7.356 -0.2741  0.0215  0.5246
  884MOL0     C16611  10.138  10.769   7.407 -0.6508 -0.2670  0.7747
  884MOL0     C16612  10.240  10.844   7.464 -0.4839  0.5855 -0.3421
  884MOL0     C16613  10.226  10.982   7.479 -0.4947  1.1612  0.3718
  884MOL0     O16614  10.325  11.060   7.539  0.4467 -0.1151  0.7852
  884MOL0     C16615  10.458  11.012   7.553 -0.3848 -0.0557 -0.4158
  884MOL0     C16616  10.548  11.127   7.605  0.1715  0.6854 -0.1348
  884MOL0     C16617  10.681  11.076   7.659  0.2358  0.1328 -0.4343
  884MOL0     C16618  10.794  11.181   7.672  0.2427 -0.0184  0.1987
  884MOL0     C16619  10.907  11.122   7.735 -0.5848  0.2306  0.2522
  884MOL0     C16620  11.005  11.077   7.793 -0.1981  0.3717  1.1281
  884MOL0     C16621  10.112  11.049   7.422  0.3601  0.5486  0.7685
  884MOL0     C16622  10.011  10.972   7.365  0.1718 -0.6687 -0.6193
  884MOL0     H16623   9.864  10.579   7.090 -0.3824  1.4659  1.8907
  884MOL0     H16624   9.743  10.509   6.891 -0.3225  0.1555  0.4303
  884MOL0     H16625   9.712  10.487   6.677  0.2331 -1.1117 -0.3369
  884MOL0     H16626   9.578  10.537   6.568 -3.2223 -1.2975  1.3263
  884MOL0     H16627   9.543  10.376   6.832 -2.4660 -2.9260 -0.5759
  884MOL0     H16628   9.554  10.339   6.664  4.3977 -1.5542  3.6875
  884MOL0     H16629   9.369  10.524   6.617  2.6121  1.4949  0.1145
  884MOL0     H16630   9.360  10.547   6.789  3.2477  3.2016 -1.8962
  884MOL0     H16631   9.291  10.289   6.657  1.7777  0.9239 -1.1099
  884MOL0     H16632   9.302  10.313   6.832 -1.5827 -0.4319 -0.6930
  884MOL0     H16633   9.134  10.489   6.825  1.8545  0.3851 -0.1851
  884MOL0     H16634   9.082  10.320   6.766  1.2875 -0.2260 -2.0935
  884MOL0     H16635   9.116  10.425   6.535  3.4935  3.2278 -2.1590
  884MOL0     H16636   9.143  10.588   6.619 -1.3245  1.7239  0.1035
  884MOL0     H16637   8.897  10.426   6.669  1.1623 -2.2017 -3.8643
  884MOL0     H16638   8.941  10.593   6.710  0.1802 -0.4731  0.5485
  884MOL0     H16639   8.781  10.570   6.520  0.0984 -0.3651 -1.1359
  884MOL0     H16640   8.895  10.488   6.414 -2.5218  0.6970 -1.0704
  884MOL0     H16641   9.079  10.622   6.295 -2.7481 -0.1983 -1.5701
  884MOL0     H16642   9.161  10.891   6.165  0.0122 -1.9252  2.4887
  884MOL0     H16643   9.017  10.971   6.140  3.2491  0.8452 -1.1408
  884MOL0     H16644   9.039  10.667   6.074 -2.6049 -0.9030  1.9455
  884MOL0     H16645   9.075  10.788   5.958  0.5986 -1.7538 -0.0884
  884MOL0     H16646   8.820  10.799   6.116  0.9868  2.7722  1.1480
  884MOL0     H16647   8.847  10.896   5.972  0.9060 -0.0552  0.0610
  884MOL0     H16648   8.838  10.591   5.972  1.0351 -0.1457 -0.0224
  884MOL0     H16649   8.848  10.712   5.833  1.2751  1.9485  1.0539
  884MOL0     H16650   8.406  10.734   5.924 -0.5334  1.3246 -0.2292
  884MOL0     H16651   8.247  10.632   5.771  0.7932  2.9473 -0.9953
  884MOL0     H16652   7.920  10.522   5.640  1.3066  0.0792  0.4040
  884MOL0     H16653   7.727  10.464   5.506  0.7954  1.5853 -0.5432
  884MOL0     H16654   7.768  10.181   5.237  0.2011  1.8712  1.9529
  884MOL0     H16655   7.747  10.266   5.080 -0.0943 -0.0113 -0.7081
  884MOL0     H16656   7.518  10.223   5.272  1.0307 -1.0877  0.6625
  884MOL0     H16657   7.561  10.115   5.141 -2.1878  1.1163 -0.1437
  884MOL0     H16658   7.549  10.298   4.973 -0.4429 -2.4099 -0.5664
  884MOL0     H16659   7.493  10.412   5.098  1.2317 -0.8761  3.0578
  884MOL0     H16660   7.362  10.147   5.038  1.6106  0.4968  4.4095
  884MOL0     H16661   7.281  10.272   5.125 -0.7156 -1.2568  0.3379
  884MOL0     H16662   7.357  10.320   4.846  0.6961  0.1362  0.6136
  884MOL0     H16663   7.264  10.428   4.935 -1.3113 -0.0895  1.6434
  884MOL0     H16664   7.119  10.218   4.986 -0.7168  2.8347  1.7368
  884MOL0     H16665   7.203  10.144   4.848  0.6314  1.3536 -1.3253
  884MOL0     H16666   7.053  10.411   4.831 -0.3671 -0.0708 -2.9869
  884MOL0     H16667   7.126  10.322   4.698 -1.1359  5.3280 -0.5826
  884MOL0     H16668   6.946  10.140   4.747 -0.9576 -0.3574  1.4924
  884MOL0     H16669   6.906  10.302   4.687  4.8458  2.4173 -0.4377
  884MOL0     H16670   7.969  10.360   5.174  0.8941  0.9123  0.0499
  884MOL0     H16671   8.173  10.447   5.286 -1.2688  0.3883 -0.8208
  884MOL0     H16672   8.579  10.458   5.541  2.6154  1.7151 -0.8563
  884MOL0     H16673   8.730  10.559   5.695  0.4690  0.0479  2.4913
  884MOL0     H16674   9.560  10.887   6.833 -1.2060  3.1942  2.3869
  884MOL0     H16675   9.649  10.961   7.046 -0.7105 -0.8487  0.7878
  884MOL0     H16676  10.147  10.664   7.385 -3.7910 -0.7847  1.3526
  884MOL0     H16677  10.320  10.786   7.509  0.0833  2.4837  1.2545
  884MOL0     H16678  10.494  10.968   7.460 -1.4636 -0.7771 -0.5047
  884MOL0     H16679  10.456  10.933   7.629  0.2820 -1.1590 -1.4993
  884MOL0     H16680  10.580  11.196   7.526 -2.5205  0.8406 -1.2061
  884MOL0     H16681  10.501  11.193   7.679  0.0606  0.2765  0.1626
  884MOL0     H16682  10.712  10.990   7.599 -1.2131  0.3973 -1.6327
  884MOL0     H16683  10.660  11.037   7.759  3.3418 -3.5516 -0.9921
  884MOL0     H16684  10.827  11.214   7.573  1.3608 -1.8234 -0.0741
  884MOL0     H16685  10.762  11.262   7.739  2.1200  1.3882 -0.5057
  884MOL0     H16686  11.081  11.034   7.856  0.3983 -3.3224 -1.7214
  884MOL0     H16687  10.082  11.153   7.436 -0.5500  0.1555  1.9787
  884MOL0     H16688   9.926  11.024   7.322  0.3094 -0.7118 -0.9472
  885MOL0     O16689  10.673   9.899   6.991  0.1049 -0.6824 -0.3415
  885MOL0     C16690  10.613   9.971   6.915  0.1327  0.1033 -0.4568
  885MOL0     O16691  10.661  10.087   6.868 -0.0810  0.2366  0.0659
  885MOL0     C16692  10.773  10.138   6.915 -0.1492 -0.0594 -0.6209
  885MOL0     C16693  10.889  10.137   6.833  0.7931  0.5109 -0.1076
  885MOL0     C16694  11.003  10.211   6.870  0.1857 -1.1180  0.1740
  885MOL0     C16695  11.007  10.286   6.995  0.0023  0.0767  0.4163
  885MOL0     O16696  11.116  10.363   7.018 -0.1058  0.1805 -0.3283
  885MOL0     C16697  11.135  10.427   7.147  0.3298 -0.2272  0.7353
  885MOL0     C16698  11.273  10.477   7.159 -0.3010  0.3224  0.2285
  885MOL0     C16699  11.282  10.570   7.286  0.7624  0.0643  0.7054
  885MOL0     C16700  11.421  10.607   7.322  0.2797  0.1640 -0.1155
  885MOL0     C16701  11.417  10.691   7.438  0.0807  0.4999 -0.3660
  885MOL0     C16702  11.562  10.705   7.479 -0.1666 -1.1237 -0.5269
  885MOL0     C16703  11.652  10.778   7.377 -0.0869  0.5429 -0.1702
  885MOL0     C16704  11.791  10.810   7.446  0.8560  0.1024  0.3302
  885MOL0     N16705  11.768  10.897   7.564  0.4952  0.8537  0.0660
  885MOL0     C16706  11.713  11.024   7.565 -0.0970 -0.1434  0.3770
  885MOL0     C16707  11.728  11.056   7.695 -0.5748 -0.3304  0.8257
  885MOL0     C16708  11.703  11.193   7.751 -0.5366  0.0203 -0.3559
  885MOL0     C16709  11.554  11.224   7.762  0.0496  0.4119 -0.2431
  885MOL0     C16710  11.518  11.367   7.817 -0.1265  0.2508  0.7695
  885MOL0     C16711  11.367  11.373   7.834  0.3041 -0.4002  0.6370
  885MOL0     O16712  11.338  11.317   7.963  0.1100 -0.3122 -0.2056
  885MOL0     C16713  11.201  11.311   8.000 -0.7212  0.3039 -0.3724
  885MOL0     C16714  11.086  11.362   7.933  0.2136 -0.4300 -0.0865
  885MOL0     C16715  10.958  11.358   7.996  0.4250  0.1833 -1.0850
  885MOL0     C16716  10.938  11.271   8.110  0.0790  0.0633  0.7915
  885MOL0     C16717  10.798  11.238   8.157 -0.0233 -0.4510  0.0765
  885MOL0     O16718  10.707  11.251   8.064 -0.2125  0.2602  0.1625
  885MOL0     C16719  10.577  11.236   8.097  0.3295 -1.0820 -0.9376
  885MOL0     C16720  10.515  11.325   8.189 -0.0959 -0.3365 -0.7012
  885MOL0     C16721  10.379  11.331   8.213 -0.1829 -1.0587  0.2554
  885MOL0     C16722  10.294  11.244   8.133  0.1687  0.4868 -0.4113
  885MOL0     O16723  10.164  11.225   8.177 -0.0913 -0.4656 -0.0701
  885MOL0     C16724  10.071  11.139   8.114 -0.3927 -0.4586 -0.1594
  885MOL0     C16725   9.928  11.142   8.167  0.2359  1.0294  0.6476
  885MOL0     C16726   9.912  11.115   8.317  0.4059 -0.4665  0.0702
  885MOL0     C16727   9.769  11.127   8.375 -0.8401  1.1246  0.5817
  885MOL0     C16728   9.701  11.261   8.357  0.5316 -0.1872  0.5205
  885MOL0     C16729   9.562  11.268   8.426  0.6105  0.1114  0.4819
  885MOL0     C16730   9.468  11.166   8.376  0.7510 -1.0239  0.8017
  885MOL0     C16731   9.334  11.162   8.450  0.0390 -0.0129  0.9745
  885MOL0    Cl16732   9.353  11.049   8.597 -0.6445 -0.0890  0.0389
  885MOL0     C16733  10.353  11.153   8.049 -0.5846  0.4740  0.2057
  885MOL0     C16734  10.491  11.152   8.025 -1.0058 -0.3673 -0.1814
  885MOL0     O16735  10.782  11.181   8.267  0.0653  0.2579  0.8911
  885MOL0     C16736  11.055  11.212   8.166  0.0180 -0.8057 -0.1443
  885MOL0     C16737  11.178  11.232   8.112  0.1304  0.0211 -0.6898
  885MOL0     N16738  11.789  10.950   7.767  0.1055 -0.4525  0.2478
  885MOL0     N16739  11.827  10.859   7.682 -0.3814  0.0635  0.1670
  885MOL0     C16740  10.894  10.283   7.076  0.7932 -0.3834 -0.7297
  885MOL0     C16741  10.770  10.216   7.031 -0.0585  0.1136  0.0560
  885MOL0     C16742  10.470   9.939   6.888  0.5799  0.1346  0.4151
  885MOL0     C16743  10.408   9.818   6.927 -0.1330 -0.6730 -0.8821
  885MOL0     C16744  10.289   9.767   6.883  0.2791 -0.3632 -0.0739
  885MOL0     C16745  10.220   9.836   6.775 -0.4904 -0.2567 -0.4316
  885MOL0     O16746  10.101   9.792   6.720 -0.1013  0.5960  0.1515
  885MOL0     C16747  10.038   9.668   6.760  0.2257 -0.5783 -0.7821
  885MOL0     C16748  10.098   9.565   6.671 -0.8585  0.1680  1.3081
  885MOL0     C16749  10.019   9.437   6.677  0.2629  0.5413  0.3942
  885MOL0     C16750  10.055   9.332   6.575  0.6610 -0.1484 -0.6157
  885MOL0     C16751  10.186   9.283   6.613  0.3398 -0.6283  0.4886
  885MOL0     C16752  10.300   9.240   6.620  0.8016 -0.0771  0.0488
  885MOL0     C16753  10.272   9.962   6.732 -0.5099  0.0824 -0.5221
  885MOL0     C16754  10.397  10.004   6.787 -0.8605  0.0985  0.4456
  885MOL0     H16755  10.901  10.080   6.742  3.0813  0.7008  0.0225
  885MOL0     H16756  11.094  10.224   6.813  1.0898  0.6701  1.8924
  885MOL0     H16757  11.118  10.370   7.239 -0.1910 -1.5366 -0.1434
  885MOL0     H16758  11.067  10.512   7.142  1.6688  0.8302 -1.1099
  885MOL0     H16759  11.302  10.533   7.069  0.5700 -0.1087  0.2291
  885MOL0     H16760  11.328  10.389   7.193 -2.8800 -0.2213  3.5438
  885MOL0     H16761  11.238  10.516   7.371 -0.8785  0.4099  0.1168
  885MOL0     H16762  11.216  10.655   7.264  1.1400  0.1499 -0.1266
  885MOL0     H16763  11.475  10.518   7.356  1.5771  1.8318  2.5255
  885MOL0     H16764  11.477  10.642   7.235  0.3873 -0.4936 -0.3154
  885MOL0     H16765  11.372  10.635   7.520  2.5295 -0.2923  0.5469
  885MOL0     H16766  11.369  10.786   7.412 -1.9957 -0.9210 -2.0252
  885MOL0     H16767  11.610  10.609   7.498  0.4257 -0.9879 -1.2908
  885MOL0     H16768  11.564  10.767   7.569 -1.0330 -2.9108  0.7966
  885MOL0     H16769  11.687  10.713   7.295 -0.1972 -0.5059  0.5948
  885MOL0     H16770  11.601  10.872   7.352 -0.4533  0.3259 -0.2535
  885MOL0     H16771  11.853  10.853   7.367  1.8934  0.0583  1.0993
  885MOL0     H16772  11.840  10.720   7.484  2.3174  1.3030  1.4355
  885MOL0     H16773  11.675  11.083   7.482 -0.2043 -0.1436  0.4254
  885MOL0     H16774  11.737  11.256   7.668 -2.2491 -0.4130 -1.4234
  885MOL0     H16775  11.758  11.206   7.845 -1.6616  1.5057  0.1298
  885MOL0     H16776  11.517  11.154   7.837 -1.4970 -1.5540 -2.7126
  885MOL0     H16777  11.503  11.198   7.669  0.4855  1.4754 -0.7915
  885MOL0     H16778  11.563  11.397   7.912 -1.5915  0.3125  1.4746
  885MOL0     H16779  11.547  11.443   7.743  0.4561 -1.5933 -0.9876
  885MOL0     H16780  11.323  11.312   7.754  0.8070  0.3276 -0.2115
  885MOL0     H16781  11.334  11.476   7.817  0.1016 -0.9105 -2.9218
  885MOL0     H16782  11.107  11.412   7.839 -0.4260  0.0892  0.0472
  885MOL0     H16783  10.868  11.405   7.957 -0.6964 -0.2498  0.8662
  885MOL0     H16784  10.574  11.393   8.249 -3.6014  1.1586  1.3986
  885MOL0     H16785  10.340  11.399   8.289 -1.0707  1.0811 -1.9550
  885MOL0     H16786  10.104  11.034   8.121 -0.0612 -0.3268  0.3132
  885MOL0     H16787  10.070  11.159   8.007 -0.4332  0.2446 -0.0300
  885MOL0     H16788   9.862  11.072   8.115 -0.9329  1.2443  1.7655
  885MOL0     H16789   9.884  11.242   8.157  0.6404  1.3111  1.5480
  885MOL0     H16790   9.985  11.183   8.361  0.9836 -1.4033  0.5798
  885MOL0     H16791   9.954  11.021   8.353  1.2648  0.3351  1.1988
  885MOL0     H16792   9.722  11.047   8.318 -0.8554 -0.0116  2.1293
  885MOL0     H16793   9.754  11.103   8.481 -3.4809 -1.2035 -0.2091
  885MOL0     H16794   9.681  11.278   8.251  0.9329 -1.8872  0.1301
  885MOL0     H16795   9.770  11.340   8.386  1.3042 -0.8128  0.4117
  885MOL0     H16796   9.516  11.364   8.401  1.1508  0.0806 -0.7016
  885MOL0     H16797   9.570  11.264   8.535  1.2910  0.2742  0.4449
  885MOL0     H16798   9.452  11.180   8.269 -0.1795  1.5291  1.2036
  885MOL0     H16799   9.505  11.063   8.384  0.2668 -1.3197 -0.5873
  885MOL0     H16800   9.263  11.128   8.373  1.3305 -1.8217  0.5097
  885MOL0     H16801   9.312  11.265   8.480 -0.6224  0.8073 -1.9663
  885MOL0     H16802  10.293  11.066   8.021 -1.1899  1.0172 -0.1948
  885MOL0     H16803  10.535  11.092   7.946  1.9535 -0.0280  1.0749
  885MOL0     H16804  11.049  11.143   8.250 -2.7379 -0.9151 -0.3399
  885MOL0     H16805  11.266  11.191   8.161  0.9438  0.4515 -1.7536
  885MOL0     H16806  10.888  10.340   7.168 -2.4687 -0.1825 -0.9707
  885MOL0     H16807  10.688  10.220   7.103  0.6541 -0.1474  0.9017
  885MOL0     H16808  10.450   9.762   7.009 -0.2918  0.8825  0.3182
  885MOL0     H16809  10.253   9.671   6.921 -0.8825  0.0019 -0.2178
  885MOL0     H16810   9.931   9.675   6.737  0.1625  2.8856  0.1036
  885MOL0     H16811  10.051   9.653   6.868 -3.3742 -3.6470 -0.5561
  885MOL0     H16812  10.102   9.599   6.568 -4.0513 -0.8113  0.7675
  885MOL0     H16813  10.203   9.548   6.698 -0.7808  2.2534  2.5785
  885MOL0     H16814   9.913   9.458   6.660 -0.2648 -1.5434  0.7449
  885MOL0     H16815  10.018   9.398   6.780 -4.3226  1.4415  0.8949
  885MOL0     H16816   9.981   9.252   6.570 -0.1422  0.5335  0.1376
  885MOL0     H16817  10.066   9.386   6.480 -0.0845 -1.1193 -1.2704
  885MOL0     H16818  10.402   9.212   6.634  0.4994 -1.3617 -0.2144
  885MOL0     H16819  10.233  10.028   6.655 -2.2534 -2.0808 -1.6281
  885MOL0     H16820  10.441  10.095   6.747 -1.3725 -0.8851 -2.6033
  886MOL0     O16821   4.773   8.732   1.322  0.5163  0.4795  0.1532
  886MOL0     C16822   4.778   8.619   1.386  0.7453 -0.1349 -0.1056
  886MOL0     O16823   4.677   8.545   1.431  0.5121  0.1530 -0.7758
  886MOL0     C16824   4.550   8.569   1.378  0.0025  0.1462 -0.5813
  886MOL0     C16825   4.511   8.603   1.253  0.0025 -0.2968 -0.6287
  886MOL0     C16826   4.382   8.633   1.212  0.0181  0.6390 -1.5268
  886MOL0     C16827   4.280   8.634   1.309  0.0787 -0.3141  0.6649
  886MOL0     O16828   4.156   8.667   1.264  0.3283  0.3724  0.3779
  886MOL0     C16829   4.035   8.605   1.312  0.3394 -0.5013  0.1060
  886MOL0     C16830   3.942   8.712   1.374  0.9464 -0.2060 -0.8836
  886MOL0     C16831   3.892   8.823   1.275  0.5515 -0.2297 -0.2056
  886MOL0     C16832   3.786   8.921   1.341  0.0904  0.6915 -0.0384
  886MOL0     C16833   3.717   9.013   1.248 -0.3491  0.1020  0.1681
  886MOL0     C16834   3.607   9.076   1.326 -0.8479  0.3021  0.0935
  886MOL0     C16835   3.521   9.172   1.242  0.0488  0.7484 -1.1452
  886MOL0     C16836   3.399   9.111   1.178  0.6341  0.1884 -0.6564
  886MOL0     N16837   3.298   9.211   1.155  0.6300  0.3818 -0.5977
  886MOL0     C16838   3.252   9.265   1.037 -0.7752  0.0851 -0.1201
  886MOL0     C16839   3.137   9.336   1.066  0.4698  0.0930  0.1153
  886MOL0     C16840   3.041   9.403   0.974 -0.1553 -0.7901 -0.6575
  886MOL0     C16841   3.096   9.429   0.830 -0.1350 -0.1561 -0.1293
  886MOL0     C16842   2.992   9.489   0.742  0.9674 -0.6563 -0.2028
  886MOL0     C16843   2.844   9.442   0.754  0.0182  0.0068  1.0139
  886MOL0     O16844   2.782   9.512   0.863  0.2862  0.4115  0.6321
  886MOL0     C16845   2.651   9.545   0.849 -0.2891 -0.2476  0.4073
  886MOL0     C16846   2.608   9.660   0.913 -0.1252  0.9844 -0.1028
  886MOL0     C16847   2.478   9.698   0.906 -0.6909  0.8738 -0.4024
  886MOL0     C16848   2.377   9.611   0.847 -0.0959 -0.4129  0.7198
  886MOL0     C16849   2.241   9.663   0.830 -0.5908  0.0532 -1.5758
  886MOL0     O16850   2.229   9.791   0.855  0.3645 -0.5929  0.3350
  886MOL0     C16851   2.106   9.851   0.862 -0.1433 -0.2692 -0.0630
  886MOL0     C16852   2.070   9.944   0.757 -0.8189  0.3345 -0.2398
  886MOL0     C16853   1.940   9.996   0.751 -0.3939  0.2550 -1.2688
  886MOL0     C16854   1.846   9.962   0.848  0.4282  0.6065 -0.4332
  886MOL0     O16855   1.720  10.023   0.830  0.5850 -0.6119  0.2984
  886MOL0     C16856   1.626   9.995   0.932  0.1375 -0.3201 -0.5868
  886MOL0     C16857   1.486  10.047   0.886 -0.5889 -0.0414 -0.7729
  886MOL0     C16858   1.376   9.999   0.980  0.2296 -0.8076  0.0100
  886MOL0     C16859   1.236  10.030   0.933  1.0228 -0.5372  0.7358
  886MOL0     C16860   1.200   9.977   0.788  0.2539 -0.9622  0.1743
  886MOL0     C16861   1.048   9.992   0.754 -0.6974 -0.8226 -0.8206
  886MOL0     C16862   1.016   9.953   0.608 -0.6777  0.1601 -0.0179
  886MOL0     C16863   0.864   9.937   0.582 -0.0174 -0.3321 -0.5248
  886MOL0    Cl16864   0.750  10.075   0.587  0.2985  0.0199  0.0931
  886MOL0     C16865   1.887   9.871   0.947  0.7325  1.3149 -0.1879
  886MOL0     C16866   2.012   9.804   0.944  0.3706  0.0606 -1.2447
  886MOL0     O16867   2.150   9.585   0.811 -0.1425 -0.1481 -0.2659
  886MOL0     C16868   2.420   9.498   0.777  0.1348 -0.2413 -0.8904
  886MOL0     C16869   2.553   9.456   0.786 -0.2174  0.4433  0.7477
  886MOL0     N16870   3.119   9.330   1.207  0.2020 -0.6551  0.6185
  886MOL0     N16871   3.218   9.261   1.258  0.2676 -0.4589  0.3924
  886MOL0     C16872   4.313   8.603   1.443 -0.0568  0.7293  1.1466
  886MOL0     C16873   4.441   8.559   1.475 -1.3383  0.4483 -0.5572
  886MOL0     C16874   4.916   8.570   1.417  0.1433 -0.2797  0.0481
  886MOL0     C16875   5.030   8.651   1.388 -0.2152 -0.0834  1.1426
  886MOL0     C16876   5.160   8.622   1.418 -0.4176  0.5926 -0.5286
  886MOL0     C16877   5.182   8.511   1.492  0.2109 -0.2246 -0.0189
  886MOL0     O16878   5.308   8.476   1.525 -0.2742 -0.2261 -0.2649
  886MOL0     C16879   5.322   8.412   1.654  0.5049  0.1675  0.5134
  886MOL0     C16880   5.451   8.439   1.726  0.3120 -0.3655  0.6750
  886MOL0     C16881   5.482   8.591   1.722  0.3068 -0.0390  0.3343
  886MOL0     C16882   5.584   8.629   1.832  0.2131  0.5352 -0.0510
  886MOL0     C16883   5.727   8.602   1.803  0.3298  0.4857 -0.3985
  886MOL0     C16884   5.835   8.579   1.753 -0.0754  0.4086 -0.0786
  886MOL0     C16885   5.077   8.426   1.525  0.2349 -0.2110  0.2654
  886MOL0     C16886   4.947   8.453   1.486  0.3919  1.0032  0.0574
  886MOL0     H16887   4.593   8.599   1.182  0.7142 -0.8274  0.2122
  886MOL0     H16888   4.350   8.649   1.110 -0.7432 -0.1914 -1.4296
  886MOL0     H16889   4.061   8.528   1.386 -0.3265  1.3032  2.3278
  886MOL0     H16890   3.985   8.559   1.226  2.4588 -0.9352 -0.9833
  886MOL0     H16891   4.000   8.749   1.459  1.0374 -3.0228  0.4233
  886MOL0     H16892   3.851   8.670   1.418  0.6867  1.4594  0.2266
  886MOL0     H16893   3.849   8.774   1.187  1.6226 -2.3868  0.3973
  886MOL0     H16894   3.977   8.885   1.245 -2.3035  3.3203 -1.7226
  886MOL0     H16895   3.731   8.861   1.414 -0.4168  2.0967  0.7745
  886MOL0     H16896   3.854   8.974   1.408  1.0725 -1.4625  0.7552
  886MOL0     H16897   3.675   8.962   1.161  0.2115  1.9700 -1.2597
  886MOL0     H16898   3.791   9.085   1.213 -0.5940  0.9191  1.2831
  886MOL0     H16899   3.644   9.131   1.413  1.3457  1.0092 -1.2159
  886MOL0     H16900   3.547   8.995   1.368 -1.0521  0.7257  0.6223
  886MOL0     H16901   3.488   9.236   1.325  0.6986 -1.2855  0.8083
  886MOL0     H16902   3.586   9.221   1.170  0.1766  1.7924 -0.3510
  886MOL0     H16903   3.348   9.036   1.239  1.7027 -0.5147 -0.6115
  886MOL0     H16904   3.414   9.061   1.082 -0.0408  3.4956 -2.6525
  886MOL0     H16905   3.302   9.257   0.941  0.9790 -0.2239  0.7754
  886MOL0     H16906   3.038   9.503   1.019  2.2289 -1.1891  0.5556
  886MOL0     H16907   2.948   9.346   0.968  0.8890 -2.6899  0.4451
  886MOL0     H16908   3.124   9.335   0.781 -1.7688  0.1799 -1.8263
  886MOL0     H16909   3.187   9.488   0.841 -0.4045 -0.0153  1.5929
  886MOL0     H16910   2.981   9.595   0.767 -0.3910 -0.6468 -0.7755
  886MOL0     H16911   3.040   9.481   0.643  0.1389  0.3949 -0.7172
  886MOL0     H16912   2.834   9.334   0.772 -0.3889  0.1946  2.0002
  886MOL0     H16913   2.802   9.465   0.656 -1.7789  0.0896  1.7698
  886MOL0     H16914   2.682   9.718   0.968 -0.3771 -1.2788  2.9057
  886MOL0     H16915   2.454   9.797   0.944  0.1566  1.9166 -2.4456
  886MOL0     H16916   2.145   9.970   0.684 -1.2678  0.3434 -0.7003
  886MOL0     H16917   1.896  10.063   0.678  0.7686  2.8119  0.2407
  886MOL0     H16918   1.660  10.054   1.018  1.5315 -0.6380 -0.8933
  886MOL0     H16919   1.608   9.891   0.959 -1.2055 -0.7533 -2.8876
  886MOL0     H16920   1.479  10.017   0.781  1.1818 -1.3965 -0.5636
  886MOL0     H16921   1.497  10.156   0.883  4.4926 -0.1687  1.9370
  886MOL0     H16922   1.391  10.038   1.081 -0.7410 -0.7947  0.1643
  886MOL0     H16923   1.387   9.890   0.984  1.2957 -0.6874  0.7183
  886MOL0     H16924   1.162   9.989   1.002 -1.3610 -0.5355 -1.6338
  886MOL0     H16925   1.233  10.139   0.939  0.7332 -0.4472 -0.5572
  886MOL0     H16926   1.228   9.871   0.787  2.0890 -0.6578  3.4567
  886MOL0     H16927   1.253  10.031   0.709 -1.6392  1.3163  0.3543
  886MOL0     H16928   1.010  10.091   0.782  0.5766 -0.4906 -0.1797
  886MOL0     H16929   0.994   9.922   0.818 -0.3940  1.6601  2.4410
  886MOL0     H16930   1.057  10.037   0.552  3.3036 -0.3155  1.8408
  886MOL0     H16931   1.073   9.862   0.588 -1.8477 -0.8127  0.9079
  886MOL0     H16932   0.816   9.871   0.655 -1.7433  0.6243 -0.7389
  886MOL0     H16933   0.852   9.891   0.483  1.4281  1.0791 -1.3909
  886MOL0     H16934   1.811   9.857   1.023 -0.1886  2.1030 -0.9438
  886MOL0     H16935   2.031   9.716   1.004 -0.9456  0.8844  0.4915
  886MOL0     H16936   2.349   9.441   0.718  2.5174 -2.3691 -1.9225
  886MOL0     H16937   2.586   9.363   0.740  1.7483  0.3628  2.1788
  886MOL0     H16938   4.232   8.607   1.514 -1.6399 -0.2428 -0.5131
  886MOL0     H16939   4.459   8.543   1.581  0.4718  0.2735 -0.8452
  886MOL0     H16940   5.019   8.748   1.342 -1.6638 -0.6061  0.3016
  886MOL0     H16941   5.236   8.698   1.403 -1.2480  1.5757  0.0497
  886MOL0     H16942   5.312   8.306   1.630  4.7272  0.2365 -2.7329
  886MOL0     H16943   5.253   8.453   1.728 -0.2685 -1.6693  0.8774
  886MOL0     H16944   5.458   8.401   1.828 -0.7420 -0.4754  0.7108
  886MOL0     H16945   5.524   8.375   1.675 -0.2715 -1.9000  1.7073
  886MOL0     H16946   5.384   8.635   1.743  1.2767  1.8203  1.1524
  886MOL0     H16947   5.511   8.629   1.624  0.7777  4.0756  1.8877
  886MOL0     H16948   5.580   8.735   1.856 -1.1360  0.1147  1.7568
  886MOL0     H16949   5.555   8.578   1.924  2.1363 -1.8686 -0.6454
  886MOL0     H16950   5.932   8.572   1.708 -0.8953 -0.2890 -1.8478
  886MOL0     H16951   5.099   8.335   1.580  2.0920  1.1087  1.8190
  886MOL0     H16952   4.864   8.386   1.509 -0.7518  2.4184  0.1481
  887MOL0     O16953   8.694   3.451   2.709  0.5637 -0.1853 -0.0070
  887MOL0     C16954   8.744   3.495   2.604 -0.4347  0.1050  0.0032
  887MOL0     O16955   8.677   3.548   2.496 -0.4457 -0.0174  0.2052
  887MOL0     C16956   8.548   3.519   2.471  0.2689  1.4065  0.2545
  887MOL0     C16957   8.509   3.466   2.345  0.2110 -0.3363  0.3555
  887MOL0     C16958   8.373   3.426   2.312 -0.1166 -0.4160 -0.4038
  887MOL0     C16959   8.272   3.470   2.397  1.1439  0.1601 -0.2575
  887MOL0     O16960   8.134   3.451   2.373 -0.0260 -0.1298  0.4477
  887MOL0     C16961   8.091   3.406   2.238  0.1946 -0.3918  0.1350
  887MOL0     C16962   8.120   3.501   2.124  0.4876 -0.1749  0.3581
  887MOL0     C16963   8.029   3.625   2.121 -0.4135 -0.5893 -0.0820
  887MOL0     C16964   8.085   3.730   2.030  0.3618 -0.5821  0.1846
  887MOL0     C16965   7.984   3.856   2.037 -0.8599 -0.5649 -0.0405
  887MOL0     C16966   7.969   3.929   1.899 -0.0212  0.2261  0.0587
  887MOL0     C16967   8.107   3.971   1.844 -0.0270  0.0294  0.6343
  887MOL0     C16968   8.181   4.078   1.937 -0.0876  0.0262 -0.1678
  887MOL0     N16969   8.295   4.141   1.874  0.2751 -0.4103  0.3587
  887MOL0     C16970   8.414   4.089   1.847  0.6671  0.2521  0.8187
  887MOL0     C16971   8.480   4.185   1.774 -0.0127  0.2225  0.1255
  887MOL0     C16972   8.619   4.164   1.724  0.2674 -0.3990  0.4435
  887MOL0     C16973   8.718   4.142   1.829 -0.4152  0.4401 -0.0260
  887MOL0     C16974   8.860   4.114   1.778  0.0174 -1.1829  0.1516
  887MOL0     C16975   8.942   4.060   1.888  0.3641  1.0468  0.1565
  887MOL0     O16976   9.062   3.994   1.835 -0.4419  0.3829  0.6781
  887MOL0     C16977   9.167   4.061   1.775 -0.5653  0.3865 -0.4545
  887MOL0     C16978   9.267   3.973   1.721  0.1419 -0.3351  0.3401
  887MOL0     C16979   9.393   4.032   1.670  1.1009 -0.4138 -0.0243
  887MOL0     C16980   9.410   4.173   1.669 -0.1734 -0.4631  0.5326
  887MOL0     C16981   9.531   4.225   1.607 -0.2937 -0.2843  0.6145
  887MOL0     O16982   9.582   4.154   1.501  0.1228 -1.1180  0.2381
  887MOL0     C16983   9.689   4.212   1.431  0.6524  0.2375  0.3651
  887MOL0     C16984   9.791   4.283   1.485 -0.4368 -0.4395  1.0420
  887MOL0     C16985   9.907   4.310   1.415 -0.6737  0.5782 -0.0478
  887MOL0     C16986   9.923   4.268   1.283 -0.4311  0.5229 -1.0336
  887MOL0     O16987  10.046   4.304   1.239 -0.2534 -0.5350  0.8648
  887MOL0     C16988  10.089   4.273   1.100  0.2466 -0.0542 -0.4705
  887MOL0     C16989  10.106   4.129   1.063 -1.0194  0.3224 -0.2140
  887MOL0     C16990  10.256   4.091   1.106  1.1139  0.0284  1.0979
  887MOL0     C16991  10.299   3.983   1.006  1.0101 -0.2242  0.1427
  887MOL0     C16992  10.454   3.970   0.996 -0.8361  0.2142 -0.9654
  887MOL0     C16993  10.488   3.876   0.876  0.5530  0.2332 -0.1697
  887MOL0     C16994  10.629   3.901   0.844  0.1720  0.1895  0.1676
  887MOL0     C16995  10.658   3.824   0.720  0.2647 -0.0096  0.3041
  887MOL0    Cl16996  10.660   3.646   0.738  0.1153  0.0485  0.4757
  887MOL0     C16997   9.815   4.203   1.221 -0.2424 -0.2982  0.3859
  887MOL0     C16998   9.704   4.170   1.300 -0.4291  0.1932 -0.4523
  887MOL0     O16999   9.558   4.339   1.635  0.0251 -0.0203 -0.0193
  887MOL0     C17000   9.302   4.257   1.712 -0.0386  0.5511  0.3913
  887MOL0     C17001   9.189   4.201   1.770  1.1339  0.3026 -1.0478
  887MOL0     N17002   8.389   4.282   1.741 -0.4170  0.1807  0.3199
  887MOL0     N17003   8.287   4.254   1.797 -0.1721  0.0816 -0.1513
  887MOL0     C17004   8.307   3.540   2.518  0.0351  0.1693  0.0059
  887MOL0     C17005   8.440   3.547   2.554  0.0007 -0.6681  0.2055
  887MOL0     C17006   8.893   3.494   2.601  0.0136 -0.2113  0.0243
  887MOL0     C17007   8.961   3.506   2.483  1.3690  0.4727  0.7297
  887MOL0     C17008   9.099   3.537   2.484 -0.2598 -0.6285 -0.4762
  887MOL0     C17009   9.173   3.536   2.601  1.6234  0.2492 -0.2546
  887MOL0     O17010   9.309   3.552   2.590  0.5340 -0.6589  0.6377
  887MOL0     C17011   9.396   3.469   2.670  0.4430  0.2438  0.0903
  887MOL0     C17012   9.511   3.428   2.577 -0.4575 -0.9202 -0.7880
  887MOL0     C17013   9.464   3.358   2.450  0.0948 -0.2090  0.2233
  887MOL0     C17014   9.411   3.227   2.479  0.1618  0.2674  0.0473
  887MOL0     C17015   9.271   3.226   2.512  0.6023  0.0575  0.2320
  887MOL0     C17016   9.156   3.214   2.539 -0.0837  0.2107  0.0358
  887MOL0     C17017   9.111   3.507   2.719 -0.2905  0.0574 -0.0980
  887MOL0     C17018   8.964   3.496   2.717 -0.8415  0.6484  0.0023
  887MOL0     H17019   8.584   3.464   2.267 -0.8571  4.6686 -1.1242
  887MOL0     H17020   8.353   3.379   2.217 -1.9413  2.1879 -1.4483
  887MOL0     H17021   7.982   3.399   2.240  0.2330 -0.9590  1.2097
  887MOL0     H17022   8.132   3.310   2.207  2.2424  0.4793 -0.0059
  887MOL0     H17023   8.094   3.445   2.034 -1.9174  2.3561 -0.6782
  887MOL0     H17024   8.224   3.532   2.107  0.4872  0.1945  1.0110
  887MOL0     H17025   8.020   3.654   2.226 -0.8230 -2.1718  0.3548
  887MOL0     H17026   7.929   3.599   2.084 -0.3772 -0.5553 -0.2040
  887MOL0     H17027   8.187   3.761   2.056  1.0816  0.6651 -3.5207
  887MOL0     H17028   8.086   3.697   1.926 -1.5394  0.7226 -0.2763
  887MOL0     H17029   8.024   3.935   2.101 -0.4552 -0.8601  0.0719
  887MOL0     H17030   7.882   3.836   2.071 -2.1056  3.6242 -0.6985
  887MOL0     H17031   7.897   4.010   1.910  0.0341  0.4692 -1.2420
  887MOL0     H17032   7.925   3.859   1.827 -0.6052  1.9370 -1.3067
  887MOL0     H17033   8.181   3.891   1.834  1.5482  1.4996 -0.1172
  887MOL0     H17034   8.088   4.011   1.743  1.4068  2.0406  1.0817
  887MOL0     H17035   8.212   4.037   2.034  1.4704 -0.2256 -0.7392
  887MOL0     H17036   8.111   4.155   1.969  0.0431 -0.2440  0.8007
  887MOL0     H17037   8.448   3.988   1.870  0.7873  0.8470  3.6167
  887MOL0     H17038   8.650   4.250   1.663  0.9237 -0.7220  0.3069
  887MOL0     H17039   8.610   4.085   1.648  2.2493 -0.8533  0.6072
  887MOL0     H17040   8.687   4.052   1.884  1.0694  0.3031  0.6393
  887MOL0     H17041   8.721   4.224   1.901  1.6075  0.0765  0.3773
  887MOL0     H17042   8.869   4.054   1.688 -0.3216  2.2405 -2.3637
  887MOL0     H17043   8.909   4.206   1.746 -1.4134 -0.7532 -0.9271
  887MOL0     H17044   8.887   3.986   1.946  1.7726 -1.5248 -1.6235
  887MOL0     H17045   8.980   4.137   1.957  0.0890  0.4939  0.9395
  887MOL0     H17046   9.249   3.867   1.707 -0.0511 -0.3305  0.5356
  887MOL0     H17047   9.472   3.963   1.641  0.3407 -0.2900 -2.6863
  887MOL0     H17048   9.796   4.318   1.588  4.1861  0.9266  0.6013
  887MOL0     H17049   9.994   4.356   1.460 -0.1450 -0.5379  0.0928
  887MOL0     H17050  10.173   4.334   1.066  1.1681 -0.5956  0.7666
  887MOL0     H17051  10.006   4.312   1.040  1.4975  1.0112 -1.5564
  887MOL0     H17052  10.088   4.122   0.956  1.1348  0.0388 -0.6116
  887MOL0     H17053  10.041   4.061   1.119  0.0642  0.8423  1.7951
  887MOL0     H17054  10.262   4.051   1.207 -0.6506 -1.3966  0.6903
  887MOL0     H17055  10.316   4.183   1.106 -0.2881  1.0133 -0.8259
  887MOL0     H17056  10.247   3.889   1.026 -2.0415  0.5560 -3.0790
  887MOL0     H17057  10.270   4.015   0.905  2.2018 -0.8804 -0.4413
  887MOL0     H17058  10.506   3.946   1.089  1.5321 -1.0768 -2.5247
  887MOL0     H17059  10.485   4.072   0.972  1.3862 -0.1740 -0.0260
  887MOL0     H17060  10.434   3.913   0.788  3.1213  2.0938 -1.0902
  887MOL0     H17061  10.465   3.772   0.901 -0.2160  0.7515  1.4066
  887MOL0     H17062  10.645   4.008   0.827 -1.4988  0.6094  0.9962
  887MOL0     H17063  10.696   3.872   0.925  1.0659 -2.5414 -1.3963
  887MOL0     H17064  10.752   3.859   0.676 -1.2225  1.4955 -1.9203
  887MOL0     H17065  10.593   3.852   0.637  0.0545  0.6882  0.7016
  887MOL0     H17066   9.810   4.184   1.114 -2.2975 -0.7862  0.5237
  887MOL0     H17067   9.629   4.100   1.263 -0.1701 -0.6825  0.6163
  887MOL0     H17068   9.310   4.365   1.710 -0.5873  0.6009  0.4686
  887MOL0     H17069   9.119   4.267   1.821  2.3776 -0.4314  1.8466
  887MOL0     H17070   8.239   3.585   2.590  0.1522 -2.0336  1.5850
  887MOL0     H17071   8.455   3.592   2.652  1.0165 -1.0402  0.2334
  887MOL0     H17072   8.895   3.519   2.398 -0.2845 -0.4714  1.8216
  887MOL0     H17073   9.142   3.563   2.388  1.3240  1.3364  0.6796
  887MOL0     H17074   9.346   3.379   2.708  1.5211 -0.4802 -0.1582
  887MOL0     H17075   9.436   3.533   2.750  0.8694  2.2470 -1.6458
  887MOL0     H17076   9.575   3.516   2.562 -0.4981 -0.0188  3.1599
  887MOL0     H17077   9.572   3.358   2.636 -2.0791 -0.7962  1.1494
  887MOL0     H17078   9.556   3.346   2.392  0.1216 -0.8579  0.3885
  887MOL0     H17079   9.399   3.424   2.393  0.4461  0.6304  0.7778
  887MOL0     H17080   9.417   3.164   2.389  0.2134  0.4963 -0.1123
  887MOL0     H17081   9.467   3.182   2.561 -0.8427 -0.2084  0.4905
  887MOL0     H17082   9.057   3.207   2.579  0.5079 -2.1165  1.2634
  887MOL0     H17083   9.162   3.516   2.814 -2.9722  1.7922  1.3060
  887MOL0     H17084   8.912   3.480   2.810 -1.5615  1.5405 -0.2288
  888MOL0     O17085   9.522   6.583   5.333  0.2617 -0.1864 -0.3344
  888MOL0     C17086   9.546   6.551   5.452 -0.4589 -0.4049  0.7259
  888MOL0     O17087   9.452   6.529   5.548  0.2529  0.4042 -0.7171
  888MOL0     C17088   9.332   6.496   5.503 -0.2620 -0.5908 -0.9439
  888MOL0     C17089   9.284   6.362   5.501 -0.0893  0.1959 -0.2848
  888MOL0     C17090   9.154   6.335   5.455  0.1103 -0.1437  0.1535
  888MOL0     C17091   9.067   6.439   5.427  0.3211 -1.1091 -0.3898
  888MOL0     O17092   8.939   6.403   5.385 -0.5337 -0.1707  1.2130
  888MOL0     C17093   8.835   6.470   5.449  0.0945 -0.4200 -0.5017
  888MOL0     C17094   8.710   6.390   5.421  0.3390 -0.3422 -0.5079
  888MOL0     C17095   8.602   6.409   5.520  0.0112 -0.0841 -0.0469
  888MOL0     C17096   8.471   6.336   5.488  0.4886  0.6093  0.3140
  888MOL0     C17097   8.373   6.358   5.608 -0.0616  0.2894 -1.0358
  888MOL0     C17098   8.247   6.285   5.559  0.2598  0.3759  0.1777
  888MOL0     C17099   8.133   6.287   5.659  0.8804  0.0655 -0.3537
  888MOL0     C17100   8.008   6.224   5.598 -0.4316  0.0244 -0.3720
  888MOL0     N17101   7.907   6.178   5.699  0.6249 -0.5835  0.6789
  888MOL0     C17102   7.861   6.263   5.798 -0.0232  0.0945  0.2268
  888MOL0     C17103   7.814   6.180   5.896 -0.7672  0.3889 -0.4037
  888MOL0     C17104   7.768   6.236   6.024 -1.1113  0.2048 -0.4927
  888MOL0     C17105   7.753   6.124   6.120 -0.0939  0.4424 -0.3761
  888MOL0     C17106   7.883   6.066   6.178 -0.6789 -0.2138 -0.4637
  888MOL0     C17107   7.923   5.920   6.147  0.0662 -0.2719 -0.0919
  888MOL0     O17108   7.830   5.827   6.211  0.2198 -0.6412 -0.0890
  888MOL0     C17109   7.852   5.693   6.199 -0.5341  0.0319  0.2748
  888MOL0     C17110   7.767   5.608   6.269  0.4744  0.2045 -0.4617
  888MOL0     C17111   7.782   5.473   6.271 -0.2717  1.4529 -0.3549
  888MOL0     C17112   7.883   5.410   6.196 -0.3670  0.1736 -0.5315
  888MOL0     C17113   7.907   5.269   6.204  0.1465  0.1398  0.0845
  888MOL0     O17114   8.001   5.213   6.119  0.3013  0.0239  0.0409
  888MOL0     C17115   7.991   5.077   6.115  0.0878  0.7050  0.2580
  888MOL0     C17116   7.890   5.019   6.037  0.3460  0.8744  0.3316
  888MOL0     C17117   7.899   4.884   6.003 -0.2341  0.3358  0.3943
  888MOL0     C17118   7.993   4.803   6.065 -0.9686  0.1118 -0.5110
  888MOL0     O17119   7.994   4.668   6.051  0.1494  1.0363 -0.2916
  888MOL0     C17120   7.885   4.603   6.118  0.3041 -0.0500 -0.2835
  888MOL0     C17121   7.879   4.456   6.075 -0.1538  0.3393 -0.5723
  888MOL0     C17122   7.747   4.388   6.116 -0.4948  0.0248  0.1183
  888MOL0     C17123   7.734   4.251   6.053  0.8068  0.5154  0.4152
  888MOL0     C17124   7.589   4.200   6.028 -0.6802 -0.7864  0.0070
  888MOL0     C17125   7.517   4.193   6.165  0.3135 -0.1243 -0.3503
  888MOL0     C17126   7.385   4.125   6.163  0.6859 -0.5396  0.2688
  888MOL0     C17127   7.349   4.094   6.301  0.6325  0.4121  0.5259
  888MOL0    Cl17128   7.193   3.997   6.316  0.0726 -0.2220  0.2799
  888MOL0     C17129   8.088   4.863   6.145 -0.5119 -1.0480 -0.0034
  888MOL0     C17130   8.095   5.000   6.163  0.1408 -0.1839 -0.3128
  888MOL0     O17131   7.844   5.205   6.288  0.3255 -0.0129  0.6326
  888MOL0     C17132   7.966   5.494   6.115  0.3091 -0.4096 -0.2841
  888MOL0     C17133   7.954   5.633   6.119  0.0221 -0.6862 -0.1308
  888MOL0     N17134   7.826   6.049   5.849 -0.7758 -0.2078 -0.2348
  888MOL0     N17135   7.876   6.048   5.728  0.4455 -0.2758  0.2276
  888MOL0     C17136   9.117   6.568   5.433  0.5461 -0.5063 -0.7704
  888MOL0     C17137   9.244   6.600   5.480  0.9757 -0.5481 -0.3623
  888MOL0     C17138   9.688   6.548   5.486 -0.4730  0.6380 -0.7202
  888MOL0     C17139   9.735   6.522   5.617 -0.0879  0.1544 -0.1918
  888MOL0     C17140   9.877   6.497   5.650 -0.1462  0.2366  0.3819
  888MOL0     C17141   9.975   6.510   5.549  0.4795  0.6776 -0.0767
  888MOL0     O17142  10.108   6.487   5.552 -0.7453 -0.2885 -0.7611
  888MOL0     C17143  10.158   6.505   5.686 -0.2241  0.3502  0.4170
  888MOL0     C17144  10.306   6.517   5.682 -0.5801  0.1872 -0.9145
  888MOL0     C17145  10.362   6.646   5.627  0.3599  0.0200  0.7047
  888MOL0     C17146  10.432   6.620   5.500 -0.0275  0.1758 -0.6075
  888MOL0     C17147  10.559   6.538   5.521  0.1288  0.0759  0.0860
  888MOL0     C17148  10.670   6.484   5.520  0.2704  0.0853 -0.7893
  888MOL0     C17149   9.930   6.543   5.421 -0.0829 -0.3341  1.1027
  888MOL0     C17150   9.800   6.560   5.389  1.3845  0.2778 -0.3174
  888MOL0     H17151   9.348   6.283   5.540  1.0539  1.3854  0.3650
  888MOL0     H17152   9.120   6.232   5.454  0.0131 -0.1185  0.5383
  888MOL0     H17153   8.822   6.573   5.414 -0.9540 -1.0589 -2.1674
  888MOL0     H17154   8.859   6.471   5.555 -0.1890 -3.8285 -0.3047
  888MOL0     H17155   8.747   6.288   5.433  2.2303  0.5467  2.1238
  888MOL0     H17156   8.678   6.410   5.318  1.2420  2.8960 -0.2832
  888MOL0     H17157   8.583   6.516   5.527  0.3987  0.1688 -2.2319
  888MOL0     H17158   8.634   6.371   5.617 -2.3288  3.5734  2.3957
  888MOL0     H17159   8.438   6.374   5.391  1.7701 -0.6144 -0.6513
  888MOL0     H17160   8.493   6.232   5.461  3.7191  1.4204 -0.6441
  888MOL0     H17161   8.358   6.462   5.638 -1.1137 -0.2883  0.5483
  888MOL0     H17162   8.396   6.313   5.705  0.5259  0.8109 -0.9237
  888MOL0     H17163   8.277   6.184   5.531 -0.9359 -0.1421  0.6915
  888MOL0     H17164   8.210   6.332   5.467 -0.3237 -0.8930 -0.2600
  888MOL0     H17165   8.163   6.227   5.746 -0.3616 -0.4413 -0.2452
  888MOL0     H17166   8.112   6.390   5.686 -1.8510  0.4935 -3.4007
  888MOL0     H17167   8.040   6.138   5.539 -0.2369  0.6295 -1.1607
  888MOL0     H17168   7.953   6.295   5.535 -2.8747 -0.1094  1.4292
  888MOL0     H17169   7.876   6.370   5.803 -1.3490  0.2573  1.2712
  888MOL0     H17170   7.672   6.286   6.009 -0.1375  2.7317  0.9039
  888MOL0     H17171   7.824   6.322   6.063 -1.1391  0.7150 -1.5417
  888MOL0     H17172   7.703   6.047   6.060 -0.7563  0.6644 -0.1241
  888MOL0     H17173   7.682   6.148   6.199 -0.2833  0.5491 -0.5769
  888MOL0     H17174   7.968   6.128   6.148 -3.0522  3.0856 -0.9920
  888MOL0     H17175   7.868   6.092   6.284 -0.3618 -0.9175 -0.2434
  888MOL0     H17176   8.026   5.906   6.181  0.9708 -2.0017 -3.1887
  888MOL0     H17177   7.917   5.898   6.040 -1.8787 -1.4211  0.2100
  888MOL0     H17178   7.692   5.651   6.335 -0.1791  1.4695 -1.9636
  888MOL0     H17179   7.720   5.417   6.340 -0.6501  1.2588 -0.8497
  888MOL0     H17180   7.802   5.072   6.002  0.3098  0.7526  0.2351
  888MOL0     H17181   7.820   4.847   5.938  1.3613  0.1162 -1.5210
  888MOL0     H17182   7.787   4.646   6.096 -0.0812 -1.6142 -1.8328
  888MOL0     H17183   7.892   4.597   6.227  0.3291 -0.5640 -0.3107
  888MOL0     H17184   7.963   4.396   6.110  0.1954  0.6319 -0.8958
  888MOL0     H17185   7.885   4.463   5.966 -1.5508  0.4787 -0.6621
  888MOL0     H17186   7.665   4.455   6.089 -0.9979 -0.5845  0.0931
  888MOL0     H17187   7.759   4.384   6.224  0.1657  2.2361  0.1731
  888MOL0     H17188   7.778   4.247   5.953 -1.4352  0.1641 -0.6133
  888MOL0     H17189   7.789   4.174   6.107  0.3223 -1.1126 -1.3246
  888MOL0     H17190   7.598   4.105   5.976 -1.3561 -1.2841  0.7767
  888MOL0     H17191   7.532   4.269   5.964 -0.8984 -2.2505 -1.4383
  888MOL0     H17192   7.494   4.295   6.198  0.9519 -0.7109  2.0900
  888MOL0     H17193   7.586   4.126   6.218 -0.7173 -1.4243 -0.6031
  888MOL0     H17194   7.316   4.186   6.106  1.0038  2.4560  2.8306
  888MOL0     H17195   7.403   4.032   6.108  2.2198  0.1160 -0.3806
  888MOL0     H17196   7.339   4.181   6.367  3.1040 -1.1928  3.2601
  888MOL0     H17197   7.428   4.040   6.355 -0.5038 -0.1201  1.7243
  888MOL0     H17198   8.157   4.797   6.196  0.0087  0.6495  1.5778
  888MOL0     H17199   8.174   5.037   6.227 -0.3184 -0.2294  0.2941
  888MOL0     H17200   8.049   5.456   6.057  0.5166 -2.5953  1.3271
  888MOL0     H17201   8.006   5.699   6.050  0.7072 -0.6324  0.4336
  888MOL0     H17202   9.063   6.660   5.414  1.9125  0.3763 -0.5093
  888MOL0     H17203   9.277   6.703   5.491 -1.5844  0.0869  2.8703
  888MOL0     H17204   9.656   6.504   5.690 -1.5474  2.6865 -1.0420
  888MOL0     H17205   9.896   6.481   5.755 -1.5854 -2.2164  0.3433
  888MOL0     H17206  10.123   6.433   5.761 -2.3656  0.6340 -0.2393
  888MOL0     H17207  10.125   6.600   5.729  1.2463  0.8045  0.6124
  888MOL0     H17208  10.324   6.512   5.789  0.1900 -1.6550 -1.0927
  888MOL0     H17209  10.350   6.430   5.632 -0.3835  1.2194 -2.6155
  888MOL0     H17210  10.433   6.692   5.695  0.6968  0.2817  0.1875
  888MOL0     H17211  10.277   6.712   5.607  1.6481  1.4883 -0.2130
  888MOL0     H17212  10.362   6.573   5.431  0.6914 -0.0639 -1.1879
  888MOL0     H17213  10.458   6.720   5.462  2.4070  0.0725  0.6440
  888MOL0     H17214  10.763   6.431   5.528  0.8839  1.3213  0.8172
  888MOL0     H17215  10.001   6.551   5.339 -1.2050 -2.9508 -0.2151
  888MOL0     H17216   9.783   6.579   5.283 -1.3274  1.6474  0.2803
  889MOL0     O17217  11.051   7.942  10.469  0.6267  0.1958 -0.3389
  889MOL0     C17218  11.132   7.851  10.476 -0.1141  0.2702  0.0257
  889MOL0     O17219  11.264   7.872  10.473  0.0086  0.5704  0.3191
  889MOL0     C17220  11.328   7.983  10.540  0.8139  0.0892  0.6139
  889MOL0     C17221  11.275   8.055  10.647 -0.5864 -0.0215  0.3973
  889MOL0     C17222  11.349   8.155  10.708 -0.5854 -0.6947 -0.9264
  889MOL0     C17223  11.478   8.184  10.673 -0.5356 -0.6301  0.7949
  889MOL0     O17224  11.567   8.270  10.725  0.1515  0.2725  0.1875
  889MOL0     C17225  11.565   8.294  10.868  0.6437 -0.0025  0.1047
  889MOL0     C17226  11.681   8.382  10.897 -0.5105 -0.7288 -0.7947
  889MOL0     C17227  11.809   8.316  10.850  0.4297  0.5822  0.4035
  889MOL0     C17228  11.936   8.388  10.884 -0.5899 -0.5401 -0.6508
  889MOL0     C17229  12.063   8.292  10.874 -0.1211 -0.5274  0.1711
  889MOL0     C17230  12.189   8.357  10.930 -0.7768 -0.1221 -0.0132
  889MOL0     C17231  12.294   8.249  10.943  0.8277 -0.6803 -0.2439
  889MOL0     C17232  12.425   8.291  11.004 -0.3291  0.4358  0.3974
  889MOL0     N17233  12.416   8.285  11.149 -0.3803 -0.6181 -0.4140
  889MOL0     C17234  12.320   8.332  11.240  0.4816  0.2988 -0.6593
  889MOL0     C17235  12.357   8.280  11.363 -0.9583  0.0525  0.1113
  889MOL0     C17236  12.289   8.316  11.487  0.7832 -0.0456 -0.7528
  889MOL0     C17237  12.135   8.313  11.495  0.2194  0.2733 -0.2931
  889MOL0     C17238  12.076   8.443  11.455  1.1674 -0.2081  0.2443
  889MOL0     C17239  11.930   8.440  11.402 -0.6687 -0.0369 -0.3013
  889MOL0     O17240  11.862   8.348  11.485 -0.1910  0.2843  0.3384
  889MOL0     C17241  11.731   8.325  11.448 -0.4947  1.0113  0.4021
  889MOL0     C17242  11.637   8.278  11.546 -0.8069 -0.2064  0.4434
  889MOL0     C17243  11.501   8.249  11.522 -0.1081 -0.4315 -0.9692
  889MOL0     C17244  11.449   8.274  11.387  0.0233 -0.5825 -0.2483
  889MOL0     C17245  11.307   8.246  11.359  0.1382 -0.1580  0.0381
  889MOL0     O17246  11.228   8.206  11.455 -0.1902 -0.1044  0.7500
  889MOL0     C17247  11.092   8.228  11.439  0.0689  0.0267  0.5700
  889MOL0     C17248  11.041   8.352  11.389 -0.4213  0.0646 -0.0010
  889MOL0     C17249  10.901   8.371  11.386 -0.8942 -0.1085 -0.0751
  889MOL0     C17250  10.806   8.295  11.454 -0.5455  0.3741 -1.0656
  889MOL0     O17251  10.676   8.326  11.460 -0.2146 -0.0913  0.7625
  889MOL0     C17252  10.602   8.327  11.332  0.3715 -0.5053 -0.0451
  889MOL0     C17253  10.484   8.423  11.341 -0.2082  0.0466  0.1422
  889MOL0     C17254  10.403   8.421  11.212  0.5264 -0.1549  0.9291
  889MOL0     C17255  10.283   8.517  11.207  0.8975 -0.6680 -0.4817
  889MOL0     C17256  10.174   8.474  11.315 -0.1295 -0.2310 -0.3262
  889MOL0     C17257  10.053   8.568  11.301 -0.4512 -0.0143 -0.5577
  889MOL0     C17258   9.970   8.559  11.167 -0.9941 -0.3730  0.8590
  889MOL0     C17259   9.880   8.679  11.149 -0.0573  0.0552  0.1111
  889MOL0    Cl17260   9.757   8.638  11.036  0.1580 -0.1144  0.3564
  889MOL0     C17261  10.854   8.174  11.509 -0.5213  0.8556  0.2224
  889MOL0     C17262  10.994   8.145  11.508  0.2007  0.7320  0.3669
  889MOL0     O17263  11.272   8.264  11.243  0.2739 -0.1041 -0.4210
  889MOL0     C17264  11.540   8.328  11.288 -0.6259 -1.1022 -0.0464
  889MOL0     C17265  11.672   8.353  11.318 -0.5552  0.0886 -0.6091
  889MOL0     N17266  12.474   8.201  11.352  0.1373  0.0643 -0.2767
  889MOL0     N17267  12.504   8.210  11.223 -0.2793  0.1445  0.0588
  889MOL0     C17268  11.531   8.118  10.558 -0.5916  0.3111  0.6461
  889MOL0     C17269  11.457   8.019  10.496 -0.7139 -0.3836  1.0726
  889MOL0     C17270  11.083   7.708  10.465 -1.0081  0.4273 -0.5609
  889MOL0     C17271  11.164   7.598  10.487  0.2675 -0.6865 -0.6392
  889MOL0     C17272  11.112   7.472  10.475  0.1057 -0.0637  0.0184
  889MOL0     C17273  10.982   7.441  10.449  0.4033 -1.1779 -0.2620
  889MOL0     O17274  10.927   7.321  10.469 -0.0848 -1.0623 -0.3261
  889MOL0     C17275  10.850   7.259  10.360  0.1229 -0.8017  0.3294
  889MOL0     C17276  10.894   7.275  10.209 -0.1128 -0.0436 -0.2714
  889MOL0     C17277  11.032   7.214  10.184 -0.2842 -0.3957 -0.9355
  889MOL0     C17278  11.052   7.155  10.044 -0.7034  0.5871  0.0982
  889MOL0     C17279  11.188   7.098  10.048 -0.7221 -0.1058 -1.0373
  889MOL0     C17280  11.304   7.055  10.051  0.4399 -0.7765 -0.2561
  889MOL0     C17281  10.897   7.552  10.435 -1.2273  0.4383 -0.1545
  889MOL0     C17282  10.951   7.683  10.440 -0.2402 -0.4886  0.2565
  889MOL0     H17283  11.174   8.034  10.679 -1.0803  2.7855  0.9692
  889MOL0     H17284  11.310   8.202  10.798 -0.2760 -0.3044 -0.9934
  889MOL0     H17285  11.576   8.203  10.928  1.0116  0.3809  0.6192
  889MOL0     H17286  11.474   8.347  10.898  0.9461 -0.0932  1.2359
  889MOL0     H17287  11.697   8.395  11.005 -0.4336 -2.1330 -0.6123
  889MOL0     H17288  11.675   8.474  10.839 -1.5360  0.2451  0.7850
  889MOL0     H17289  11.798   8.306  10.741  1.8205  1.9223  0.1157
  889MOL0     H17290  11.808   8.219  10.901  0.2345 -0.3861 -1.3561
  889MOL0     H17291  11.963   8.472  10.819 -0.1915  0.1865  0.4210
  889MOL0     H17292  11.924   8.430  10.984  0.8944  0.3783 -0.8251
  889MOL0     H17293  12.068   8.264  10.769  0.3108  1.6392 -0.4290
  889MOL0     H17294  12.045   8.197  10.927 -2.6972 -0.2917 -0.1401
  889MOL0     H17295  12.162   8.400  11.027 -0.9977 -0.2585 -0.0112
  889MOL0     H17296  12.228   8.431  10.860  2.5895 -1.0014  0.7859
  889MOL0     H17297  12.244   8.165  10.992 -1.6308  0.7231 -0.2222
  889MOL0     H17298  12.318   8.218  10.841  1.4835 -1.1769  0.0511
  889MOL0     H17299  12.442   8.395  10.974  0.2162 -0.2970 -1.9696
  889MOL0     H17300  12.508   8.224  10.980 -0.6426  0.1579  0.0862
  889MOL0     H17301  12.235   8.397  11.222  0.6892  0.5773 -0.6278
  889MOL0     H17302  12.327   8.417  11.510  1.9489 -0.0889 -2.2872
  889MOL0     H17303  12.326   8.245  11.562  1.3152  0.7537 -0.2348
  889MOL0     H17304  12.115   8.301  11.602  4.4961  0.1203  0.6544
  889MOL0     H17305  12.090   8.233  11.435  2.1383 -0.3840 -0.9400
  889MOL0     H17306  12.071   8.500  11.548  0.1871  1.1726 -0.6183
  889MOL0     H17307  12.139   8.503  11.390  0.7531  3.6443  3.0482
  889MOL0     H17308  11.944   8.395  11.303  0.9729 -2.3702  0.8904
  889MOL0     H17309  11.890   8.541  11.412  3.2836  1.5187  2.0758
  889MOL0     H17310  11.666   8.265  11.650 -1.5797 -0.7517  0.5985
  889MOL0     H17311  11.434   8.203  11.594  0.6267  0.6770  0.4514
  889MOL0     H17312  11.104   8.427  11.343  0.7888 -1.2889 -0.5881
  889MOL0     H17313  10.873   8.471  11.352  0.6636  0.4765  0.2787
  889MOL0     H17314  10.553   8.230  11.314  0.0267  0.0162 -2.2882
  889MOL0     H17315  10.673   8.344  11.250  0.5691  0.6837  0.3543
  889MOL0     H17316  10.525   8.524  11.355 -0.1917  0.0271  0.2375
  889MOL0     H17317  10.432   8.386  11.430 -0.3513 -1.5263 -0.5799
  889MOL0     H17318  10.364   8.320  11.198  1.9578 -0.3295 -2.9666
  889MOL0     H17319  10.474   8.432  11.130 -0.9532 -0.0626 -0.3951
  889MOL0     H17320  10.318   8.619  11.225 -0.1613 -0.6724  1.8945
  889MOL0     H17321  10.238   8.515  11.107  1.0053 -0.2773 -0.5412
  889MOL0     H17322  10.218   8.464  11.415 -0.4402 -0.9630 -0.2579
  889MOL0     H17323  10.150   8.368  11.307  3.8541 -1.3817  0.7344
  889MOL0     H17324  10.092   8.668  11.323 -0.3835  0.2130 -1.6523
  889MOL0     H17325   9.990   8.533  11.383  0.7644 -4.2331 -1.2065
  889MOL0     H17326  10.032   8.545  11.078 -0.6106  1.1010  0.8673
  889MOL0     H17327   9.913   8.465  11.163  0.7717 -1.4434 -1.3035
  889MOL0     H17328   9.926   8.773  11.115  3.4957 -1.1402  1.1710
  889MOL0     H17329   9.842   8.681  11.251 -0.0206 -2.2205  0.2269
  889MOL0     H17330  10.788   8.103  11.558  0.6124 -0.1280  0.3599
  889MOL0     H17331  11.027   8.054  11.558 -1.3527 -0.4001 -0.5655
  889MOL0     H17332  11.504   8.337  11.186  0.3940 -1.9597 -0.4945
  889MOL0     H17333  11.724   8.391  11.231 -0.4264 -2.0673 -1.5514
  889MOL0     H17334  11.630   8.142  10.521 -0.7494  1.4101  0.9249
  889MOL0     H17335  11.494   7.955  10.416  2.1794 -0.1669  2.0933
  889MOL0     H17336  11.265   7.633  10.507  0.2085 -1.9601  2.4811
  889MOL0     H17337  11.176   7.385  10.485  2.0671  0.9550 -2.5869
  889MOL0     H17338  10.748   7.296  10.355  0.8285  1.4071  1.1380
  889MOL0     H17339  10.846   7.149  10.366  0.4122 -0.7712  1.3990
  889MOL0     H17340  10.814   7.220  10.159  0.4043 -0.4288 -0.6820
  889MOL0     H17341  10.900   7.377  10.172 -1.3421  0.3797  0.6292
  889MOL0     H17342  11.051   7.136  10.258 -1.3589  0.0158 -0.1990
  889MOL0     H17343  11.107   7.294  10.186  0.1245 -0.7695  1.8659
  889MOL0     H17344  10.980   7.073  10.041 -1.0194  0.8855 -1.6671
  889MOL0     H17345  11.031   7.231   9.968 -0.3340  2.5361  1.8551
  889MOL0     H17346  11.403   7.015  10.057  1.0491  0.6616 -0.3640
  889MOL0     H17347  10.791   7.536  10.419 -1.3704  1.5023 -0.3546
  889MOL0     H17348  10.904   7.776  10.408  3.4194  0.8769 -1.8968
  890MOL0     O17349   8.290   2.047   4.531  0.2566  0.6010 -0.1037
  890MOL0     C17350   8.264   1.972   4.626 -1.1386  0.0554 -0.2752
  890MOL0     O17351   8.151   1.899   4.641  0.3987 -0.4036 -0.3220
  890MOL0     C17352   8.079   1.872   4.523 -0.0530  0.7485  0.3412
  890MOL0     C17353   8.130   1.808   4.411 -0.4190  0.9155  0.1632
  890MOL0     C17354   8.041   1.777   4.304 -0.3541 -0.0362  0.3622
  890MOL0     C17355   7.905   1.808   4.308 -0.2494 -0.0005 -0.0724
  890MOL0     O17356   7.822   1.775   4.201 -0.5624 -0.0717 -0.4015
  890MOL0     C17357   7.685   1.739   4.218 -0.0146  0.2120 -0.5528
  890MOL0     C17358   7.633   1.666   4.090 -0.1830  0.2225  0.6094
  890MOL0     C17359   7.494   1.597   4.102  0.1694  0.3288 -0.3058
  890MOL0     C17360   7.478   1.520   3.970  0.5054 -0.2497 -0.1188
  890MOL0     C17361   7.336   1.460   3.950 -0.3392 -0.1322  0.8164
  890MOL0     C17362   7.305   1.344   4.042 -0.3527  0.1818  0.2217
  890MOL0     C17363   7.389   1.225   4.010  0.5917  0.0626  0.4349
  890MOL0     C17364   7.345   1.088   4.073  0.2611  0.4158 -0.2942
  890MOL0     N17365   7.341   1.102   4.223 -0.3653  0.5263 -0.0604
  890MOL0     C17366   7.233   1.113   4.310  0.0301 -1.1544  0.0542
  890MOL0     C17367   7.286   1.121   4.438  0.3530 -0.0397  0.0501
  890MOL0     C17368   7.212   1.110   4.572  0.0024 -1.3525  0.6562
  890MOL0     C17369   7.187   0.956   4.595 -0.8646 -0.0947 -0.4605
  890MOL0     C17370   7.076   0.940   4.697  0.4498 -0.4298  0.0229
  890MOL0     C17371   7.086   0.810   4.771  0.2243 -0.0144  0.3443
  890MOL0     O17372   6.971   0.788   4.854 -0.0368 -0.3570 -0.7482
  890MOL0     C17373   6.863   0.726   4.803 -0.1663 -0.4821 -0.5389
  890MOL0     C17374   6.767   0.700   4.896  0.7311 -0.1523 -0.3842
  890MOL0     C17375   6.645   0.634   4.855  0.8050  0.7313 -0.3422
  890MOL0     C17376   6.627   0.611   4.718 -0.2985  0.0598  0.0623
  890MOL0     C17377   6.512   0.534   4.663  0.0835 -0.2682  0.2334
  890MOL0     O17378   6.527   0.453   4.556 -0.5524  0.5027 -0.0527
  890MOL0     C17379   6.432   0.353   4.538  0.0304 -0.1245 -0.0973
  890MOL0     C17380   6.421   0.240   4.620 -0.4328  0.2104  0.4009
  890MOL0     C17381   6.331   0.143   4.578 -0.0521 -0.6290  0.0792
  890MOL0     C17382   6.252   0.160   4.465  0.3995 -0.2051  0.2964
  890MOL0     O17383   6.155   0.057   4.440 -0.3357  0.5153  0.6182
  890MOL0     C17384   6.030   0.080   4.387 -0.3295 -0.2135  1.2035
  890MOL0     C17385   5.937  -0.020   4.434 -0.6467  0.3439  0.0983
  890MOL0     C17386   5.835  -0.039   4.333  0.0427  0.7080  0.2470
  890MOL0     C17387   5.735  -0.150   4.365  0.6227  1.2990 -0.0172
  890MOL0     C17388   5.641  -0.133   4.481 -0.4275  0.0741  0.0076
  890MOL0     C17389   5.551  -0.012   4.459 -0.2436  0.8832 -0.6302
  890MOL0     C17390   5.446   0.010   4.581  0.8262  0.4212  0.4400
  890MOL0     C17391   5.519   0.041   4.705 -0.3276 -0.8206 -0.4864
  890MOL0    Cl17392   5.577   0.218   4.692  0.3192  0.2706  0.2050
  890MOL0     C17393   6.274   0.269   4.387  0.7628 -0.2915  0.7675
  890MOL0     C17394   6.357   0.370   4.423  0.3586  0.2529 -0.2040
  890MOL0     O17395   6.409   0.542   4.722  0.8350  0.1872 -0.2897
  890MOL0     C17396   6.729   0.632   4.629 -0.0234 -0.3820  1.5477
  890MOL0     C17397   6.853   0.689   4.667 -1.0011 -0.2365 -0.8021
  890MOL0     N17398   7.424   1.118   4.427  0.2944 -0.3583  0.3790
  890MOL0     N17399   7.456   1.111   4.297  0.3494  0.6032 -0.1437
  890MOL0     C17400   7.859   1.875   4.421 -0.2775  0.2403  0.0488
  890MOL0     C17401   7.943   1.899   4.534  0.3232  0.1068  0.8065
  890MOL0     C17402   8.371   1.978   4.737  0.2285  0.1756  0.6829
  890MOL0     C17403   8.488   2.055   4.732  0.4786 -0.2713 -0.0189
  890MOL0     C17404   8.591   2.061   4.830 -1.0120  0.4484 -0.5429
  890MOL0     C17405   8.570   1.988   4.949 -0.1065  0.3390  0.0840
  890MOL0     O17406   8.645   1.984   5.057 -0.0043  0.5550 -0.0243
  890MOL0     C17407   8.778   2.034   5.043  0.5799 -0.0402 -0.0287
  890MOL0     C17408   8.869   2.017   5.172 -0.2503  0.5400  0.3533
  890MOL0     C17409   9.021   2.010   5.147  0.3425  0.3292  0.0551
  890MOL0     C17410   9.104   1.996   5.268 -0.3627 -0.3244  1.1698
  890MOL0     C17411   9.084   2.095   5.373 -0.5025 -1.1314  1.0454
  890MOL0     C17412   9.052   2.175   5.453  0.6777  0.2723 -0.3604
  890MOL0     C17413   8.451   1.913   4.955  0.3009 -0.2495  0.0912
  890MOL0     C17414   8.353   1.904   4.851  0.2328 -0.0540 -0.1633
  890MOL0     H17415   8.234   1.778   4.417 -0.6210  0.4301  2.2706
  890MOL0     H17416   8.086   1.729   4.218 -1.1370  1.5461 -1.0015
  890MOL0     H17417   7.633   1.835   4.227 -0.6338  0.1749 -3.2076
  890MOL0     H17418   7.669   1.678   4.308 -2.6959  3.3438  1.3507
  890MOL0     H17419   7.708   1.598   4.050 -4.0430 -2.3385 -3.1895
  890MOL0     H17420   7.634   1.747   4.017  0.9543  0.4814  0.8919
  890MOL0     H17421   7.420   1.672   4.132  1.3083  0.7789  1.5467
  890MOL0     H17422   7.499   1.521   4.180  0.1705  0.6441  0.0063
  890MOL0     H17423   7.501   1.587   3.887  2.3150 -1.4533 -0.6597
  890MOL0     H17424   7.549   1.438   3.956 -0.0389 -0.8578  0.5634
  890MOL0     H17425   7.334   1.426   3.846 -0.0068 -0.1902  0.8287
  890MOL0     H17426   7.266   1.542   3.966 -0.2646  0.5866 -2.0085
  890MOL0     H17427   7.202   1.309   4.028 -0.1309 -0.8203  0.9461
  890MOL0     H17428   7.320   1.377   4.145  1.6362  0.3578 -0.0918
  890MOL0     H17429   7.410   1.190   3.909 -0.4715  0.7834 -0.0496
  890MOL0     H17430   7.487   1.246   4.055  0.7909 -0.6005  0.3294
  890MOL0     H17431   7.417   1.011   4.043 -0.9997 -0.6730 -0.5851
  890MOL0     H17432   7.248   1.055   4.036 -0.2559  0.0658  1.2720
  890MOL0     H17433   7.128   1.095   4.286  0.9125 -2.9213 -3.0135
  890MOL0     H17434   7.122   1.172   4.570  0.5732 -0.4464 -2.5745
  890MOL0     H17435   7.279   1.144   4.651 -2.9886  2.9339  1.6721
  890MOL0     H17436   7.275   0.914   4.645 -3.4898  1.6394  7.0136
  890MOL0     H17437   7.153   0.910   4.503 -2.0821  2.8823 -1.6372
  890MOL0     H17438   7.081   1.021   4.771 -1.6780 -1.8357  1.8269
  890MOL0     H17439   6.978   0.940   4.648  0.5401  0.2963 -0.1677
  890MOL0     H17440   7.175   0.809   4.835  2.4226 -0.6027 -2.5109
  890MOL0     H17441   7.105   0.720   4.712  0.5768 -1.4242  2.4943
  890MOL0     H17442   6.764   0.726   5.001 -1.8953 -0.1356 -0.3972
  890MOL0     H17443   6.561   0.619   4.922  0.6629 -0.2661 -0.7333
  890MOL0     H17444   6.482   0.229   4.709  2.4192 -1.9723 -1.6328
  890MOL0     H17445   6.317   0.053   4.638  1.8131 -0.1149  1.3859
  890MOL0     H17446   6.039   0.078   4.278 -2.4287  1.4307  0.9404
  890MOL0     H17447   5.992   0.178   4.417 -1.3544 -0.0122 -0.5918
  890MOL0     H17448   5.891   0.026   4.522 -0.5635  2.0625 -0.7094
  890MOL0     H17449   5.995  -0.110   4.455  3.8257  2.5771 -1.2404
  890MOL0     H17450   5.893  -0.074   4.247  0.2643  2.0825 -0.1879
  890MOL0     H17451   5.776   0.049   4.305 -1.8717 -1.3113 -2.6025
  890MOL0     H17452   5.674  -0.179   4.279  0.2588 -0.9697  0.9187
  890MOL0     H17453   5.786  -0.240   4.402 -2.9390 -2.8805 -4.0150
  890MOL0     H17454   5.698  -0.124   4.573 -1.2164 -1.8230  0.7400
  890MOL0     H17455   5.582  -0.224   4.496  0.2334 -0.5264 -0.9325
  890MOL0     H17456   5.496  -0.012   4.365 -0.7681  0.9839 -0.3326
  890MOL0     H17457   5.616   0.074   4.476  1.2124 -0.3128  0.1778
  890MOL0     H17458   5.377   0.093   4.568 -0.4483 -0.4671  1.2962
  890MOL0     H17459   5.390  -0.083   4.593  0.3560  0.6928  0.3548
  890MOL0     H17460   5.598  -0.033   4.720  1.8081  1.6062  1.1611
  890MOL0     H17461   5.442   0.030   4.782  1.4392 -1.8764  1.2337
  890MOL0     H17462   6.214   0.296   4.301  2.1953  1.3439  0.2290
  890MOL0     H17463   6.355   0.454   4.354 -1.6827  0.1592 -0.3331
  890MOL0     H17464   6.728   0.602   4.524  1.0056  2.6794  0.5796
  890MOL0     H17465   6.930   0.697   4.590 -0.8019  3.1758 -0.3805
  890MOL0     H17466   7.754   1.898   4.441 -0.5991  0.2293 -1.4795
  890MOL0     H17467   7.903   1.943   4.625 -0.6933  0.2169  0.3144
  890MOL0     H17468   8.510   2.106   4.639  3.4801  0.2360  0.8659
  890MOL0     H17469   8.681   2.119   4.813 -1.4977  0.9606 -1.4804
  890MOL0     H17470   8.784   2.139   5.014  0.2281  0.5496  1.9113
  890MOL0     H17471   8.830   1.978   4.964 -0.4843  0.1986 -0.9407
  890MOL0     H17472   8.838   2.102   5.234 -0.6559  1.1762 -0.7105
  890MOL0     H17473   8.837   1.925   5.221 -1.0927 -0.3558 -1.7572
  890MOL0     H17474   9.047   2.104   5.098 -1.5183  1.2831  0.7776
  890MOL0     H17475   9.046   1.937   5.070 -0.3959  1.1102 -0.9453
  890MOL0     H17476   9.077   1.903   5.320 -4.7059 -0.1512 -0.3868
  890MOL0     H17477   9.206   1.984   5.231 -0.8136  2.5517 -1.3999
  890MOL0     H17478   9.021   2.247   5.525  1.2178 -0.7808  0.9736
  890MOL0     H17479   8.437   1.857   5.047 -1.0370 -0.2281 -0.0746
  890MOL0     H17480   8.261   1.849   4.867 -1.8308  2.0294 -3.5039
  891MOL0     O17481   3.978   8.099   9.567 -0.1551  0.3509 -0.3832
  891MOL0     C17482   3.991   8.220   9.612 -0.2595  0.4923  0.7119
  891MOL0     O17483   3.885   8.302   9.640  0.1896 -0.1987  0.5599
  891MOL0     C17484   3.760   8.250   9.639 -0.6185 -0.6141 -0.0470
  891MOL0     C17485   3.670   8.316   9.562 -0.2472 -0.0619  0.3018
  891MOL0     C17486   3.537   8.283   9.555 -0.4418  0.8433  0.4652
  891MOL0     C17487   3.494   8.176   9.633 -0.5193 -0.2749 -0.7395
  891MOL0     O17488   3.355   8.156   9.634 -0.3546 -0.3629  0.2272
  891MOL0     C17489   3.301   8.101   9.755 -0.9392  0.0779  0.3279
  891MOL0     C17490   3.149   8.143   9.752 -0.6861 -0.0767  0.4713
  891MOL0     C17491   3.062   8.049   9.837  0.4861 -0.2018  0.7020
  891MOL0     C17492   2.912   8.085   9.815 -0.7477 -0.2369  0.2169
  891MOL0     C17493   2.823   7.956   9.834 -0.4036  0.4260 -0.2783
  891MOL0     C17494   2.858   7.884   9.967  0.1038 -0.2870  0.5991
  891MOL0     C17495   2.756   7.781  10.010 -0.6992 -0.8669  0.3116
  891MOL0     C17496   2.639   7.838  10.082  0.1613  0.2053 -0.2640
  891MOL0     N17497   2.644   7.795  10.222  0.0372 -0.1109 -0.3502
  891MOL0     C17498   2.752   7.799  10.302 -0.5894 -0.8199  0.2553
  891MOL0     C17499   2.721   7.744  10.420  0.4128  0.2048  0.5937
  891MOL0     C17500   2.814   7.718  10.529  0.2328 -0.1396 -0.3197
  891MOL0     C17501   2.810   7.825  10.640 -0.5533 -0.2208 -0.2417
  891MOL0     C17502   2.813   7.978  10.596  0.0989 -1.0113  0.0678
  891MOL0     C17503   2.946   8.013  10.542 -0.0586 -1.2963 -1.1731
  891MOL0     O17504   3.030   8.040  10.653  0.2205 -0.1115 -0.0475
  891MOL0     C17505   3.130   8.123  10.621 -0.5697  0.5359 -0.4674
  891MOL0     C17506   3.238   8.085  10.540  0.4004 -0.5355 -0.0425
  891MOL0     C17507   3.347   8.175  10.508  0.4074  0.2177  0.7164
  891MOL0     C17508   3.342   8.302  10.564 -0.4879 -0.5970 -0.0007
  891MOL0     C17509   3.459   8.395  10.526  0.5502  0.4875 -0.0731
  891MOL0     O17510   3.583   8.324  10.515 -0.6640 -0.8123  1.5368
  891MOL0     C17511   3.701   8.399  10.509 -0.4519  0.4516 -0.5614
  891MOL0     C17512   3.725   8.524  10.571 -0.3909 -0.2002  0.4067
  891MOL0     C17513   3.858   8.573  10.562 -0.5440  0.0762 -0.2565
  891MOL0     C17514   3.959   8.495  10.508 -0.0147  0.5124 -0.4346
  891MOL0     O17515   4.080   8.547  10.500 -0.0255 -0.1229 -0.9189
  891MOL0     C17516   4.157   8.509  10.622  0.0260 -0.0459  1.4784
  891MOL0     C17517   4.189   8.623  10.723  0.0955 -0.3858  0.7907
  891MOL0     C17518   4.231   8.756  10.655  0.3791 -0.0090 -0.6718
  891MOL0     C17519   4.356   8.741  10.568  0.5078 -0.9465 -0.3918
  891MOL0     C17520   4.420   8.883  10.542 -0.2051  0.3434 -0.2784
  891MOL0     C17521   4.329   8.982  10.472 -0.2201  0.5375 -0.5576
  891MOL0     C17522   4.386   9.122  10.441 -0.2535 -0.5208 -0.1217
  891MOL0     C17523   4.518   9.105  10.365  0.2124  0.0196  0.0442
  891MOL0    Cl17524   4.526   9.234  10.234 -0.2578  0.0716 -0.4103
  891MOL0     C17525   3.923   8.369  10.448 -0.5502 -0.2311  0.4118
  891MOL0     C17526   3.796   8.316  10.461  0.4330  0.7350  0.3269
  891MOL0     O17527   3.435   8.509  10.497 -0.7170  0.0684  0.0825
  891MOL0     C17528   3.227   8.342  10.646  0.1258  0.1691  0.4099
  891MOL0     C17529   3.124   8.255  10.673 -0.1562  1.5110  0.9507
  891MOL0     N17530   2.587   7.713  10.410  0.3360  0.8471  0.2080
  891MOL0     N17531   2.535   7.743  10.292 -0.0414  0.1091  0.4555
  891MOL0     C17532   3.584   8.105   9.715 -0.6762  0.0706 -0.2069
  891MOL0     C17533   3.717   8.144   9.715 -0.6726 -0.1875 -0.2496
  891MOL0     C17534   4.130   8.277   9.623 -0.6099 -0.5183 -0.0710
  891MOL0     C17535   4.149   8.403   9.677  0.0921 -0.0369  0.6026
  891MOL0     C17536   4.278   8.460   9.683 -0.4700 -0.3888  0.2238
  891MOL0     C17537   4.386   8.399   9.630 -0.1176 -0.0869  0.1120
  891MOL0     O17538   4.522   8.446   9.634 -0.1215  1.1621 -0.7192
  891MOL0     C17539   4.555   8.545   9.737  0.8452  0.0813 -0.5830
  891MOL0     C17540   4.695   8.599   9.712  0.1037  0.8395  0.6833
  891MOL0     C17541   4.704   8.667   9.575  0.9044  0.3040  0.5512
  891MOL0     C17542   4.825   8.774   9.579  0.3549 -0.0599 -0.2698
  891MOL0     C17543   4.894   8.794   9.451  0.4194 -0.3818 -0.0356
  891MOL0     C17544   4.962   8.833   9.357 -1.6677  0.6806  0.0717
  891MOL0     C17545   4.367   8.276   9.567 -0.1915  0.5008 -0.0281
  891MOL0     C17546   4.243   8.210   9.573 -0.0119 -0.8381  0.4506
  891MOL0     H17547   3.705   8.389   9.489 -0.4481 -2.6153 -2.5506
  891MOL0     H17548   3.469   8.332   9.486  0.0588 -0.4262 -0.9878
  891MOL0     H17549   3.353   8.137   9.843  0.0477 -0.4341 -0.0304
  891MOL0     H17550   3.311   7.992   9.752  1.7293  0.2770  0.0398
  891MOL0     H17551   3.111   8.139   9.650 -0.8125 -1.0069  0.5514
  891MOL0     H17552   3.137   8.248   9.783 -1.4573  0.5509 -1.7872
  891MOL0     H17553   3.086   8.045   9.943 -0.2845  0.1949  0.8948
  891MOL0     H17554   3.077   7.944   9.809  2.2143 -1.4739  5.4422
  891MOL0     H17555   2.881   8.165   9.882 -1.9637  0.6623 -1.3720
  891MOL0     H17556   2.881   8.129   9.720  1.8360  0.8258 -0.2159
  891MOL0     H17557   2.830   7.890   9.747 -0.2724  0.2619 -0.1417
  891MOL0     H17558   2.718   7.989   9.832 -0.3950  0.4855  0.2400
  891MOL0     H17559   2.862   7.964  10.041 -1.0840  3.7707 -3.2555
  891MOL0     H17560   2.956   7.838   9.951 -0.8642 -2.0765 -0.4765
  891MOL0     H17561   2.727   7.718   9.926  1.7067  0.3459 -1.5729
  891MOL0     H17562   2.803   7.702  10.070 -0.9618 -0.6106  0.8537
  891MOL0     H17563   2.553   7.787  10.038 -0.2120  0.2199  0.4286
  891MOL0     H17564   2.641   7.948  10.078  0.4548  0.4071  2.6898
  891MOL0     H17565   2.857   7.812  10.278 -0.4217 -0.3368  1.2207
  891MOL0     H17566   2.914   7.728  10.487 -0.3511  0.2030 -1.6660
  891MOL0     H17567   2.800   7.622  10.579 -0.5893  1.1432  2.1181
  891MOL0     H17568   2.896   7.814  10.707  1.0040 -1.3888 -2.3217
  891MOL0     H17569   2.723   7.827  10.706 -1.8437  2.0595 -1.8950
  891MOL0     H17570   2.739   7.995  10.518  0.3853 -0.1691 -0.0349
  891MOL0     H17571   2.778   8.038  10.680 -0.8551 -1.3668 -0.0626
  891MOL0     H17572   2.947   8.106  10.484  2.1572  1.3027  2.6142
  891MOL0     H17573   2.991   7.933  10.482  0.0739  0.3645 -3.4223
  891MOL0     H17574   3.228   7.988  10.493  0.5053 -0.3686 -0.4192
  891MOL0     H17575   3.422   8.143  10.436 -2.4733 -0.6005 -2.1750
  891MOL0     H17576   3.646   8.583  10.617 -1.5699 -0.1994 -1.4633
  891MOL0     H17577   3.889   8.675  10.582  2.2886 -0.8676  0.6439
  891MOL0     H17578   4.247   8.463  10.581 -0.7239 -0.3586  0.1324
  891MOL0     H17579   4.106   8.434  10.683  0.4599 -0.7201  1.0183
  891MOL0     H17580   4.276   8.585  10.778  0.5760  1.2993  1.2367
  891MOL0     H17581   4.109   8.645  10.794  1.1696  0.4459  1.7612
  891MOL0     H17582   4.249   8.833  10.731 -0.3822 -1.2810  0.8498
  891MOL0     H17583   4.148   8.784  10.589  0.3919 -0.7140 -0.9943
  891MOL0     H17584   4.428   8.673  10.615 -0.7005 -1.2843  1.0754
  891MOL0     H17585   4.339   8.697  10.470  0.1256 -0.5552 -0.5004
  891MOL0     H17586   4.509   8.860  10.482  1.1509  1.1866  1.3119
  891MOL0     H17587   4.458   8.932  10.632  2.7411 -1.5482 -0.3657
  891MOL0     H17588   4.234   8.998  10.523  1.4009  2.4437  2.1593
  891MOL0     H17589   4.291   8.936  10.381  1.6214 -2.0443 -0.1616
  891MOL0     H17590   4.311   9.171  10.379  0.9177  0.4510 -0.7963
  891MOL0     H17591   4.399   9.184  10.530  1.5127 -2.8296  1.3408
  891MOL0     H17592   4.507   9.010  10.312 -2.0531 -0.3182  0.9905
  891MOL0     H17593   4.603   9.112  10.434  0.5882  1.7134 -0.5407
  891MOL0     H17594   4.003   8.315  10.400  0.6720  0.0262  2.0713
  891MOL0     H17595   3.757   8.223  10.421 -2.1459  2.2341 -0.8800
  891MOL0     H17596   3.242   8.442  10.686  0.2347  1.4476 -2.6268
  891MOL0     H17597   3.042   8.277  10.740 -0.2026  1.6812  0.8403
  891MOL0     H17598   3.554   8.019   9.775 -2.5678 -0.3691 -1.6768
  891MOL0     H17599   3.790   8.089   9.773 -2.4617 -1.0758  1.2878
  891MOL0     H17600   4.055   8.443   9.714 -0.6485 -1.5829  0.4891
  891MOL0     H17601   4.282   8.560   9.726 -2.9023 -0.0699 -0.1988
  891MOL0     H17602   4.553   8.501   9.838 -1.6914 -1.4397 -1.2040
  891MOL0     H17603   4.481   8.625   9.739  2.2405  1.4059  1.2167
  891MOL0     H17604   4.712   8.672   9.792 -2.3178  2.3494 -0.0970
  891MOL0     H17605   4.771   8.521   9.722  0.7064  1.1075 -1.3134
  891MOL0     H17606   4.608   8.717   9.560  1.1888  1.5626  2.5165
  891MOL0     H17607   4.721   8.585   9.505  0.4463 -0.6951  1.5872
  891MOL0     H17608   4.783   8.870   9.608  1.0810  0.2279 -0.1632
  891MOL0     H17609   4.902   8.747   9.652  1.2991  2.7630 -0.0973
  891MOL0     H17610   5.018   8.876   9.277 -0.5204  0.3480  0.6827
  891MOL0     H17611   4.445   8.226   9.511 -0.8034 -1.9509  1.1944
  891MOL0     H17612   4.235   8.120   9.514 -2.0677 -0.0936 -0.5183
  892MOL0     O17613   5.422  10.243   2.073 -0.0963  0.0849  0.6082
  892MOL0     C17614   5.446  10.237   1.952 -0.2949 -0.3222 -0.2129
  892MOL0     O17615   5.376  10.163   1.857  0.0792  0.1316  0.2461
  892MOL0     C17616   5.308  10.054   1.909  0.7444 -0.6862 -0.0725
  892MOL0     C17617   5.165  10.054   1.917 -0.4224 -0.3592  0.0562
  892MOL0     C17618   5.098   9.942   1.970  0.0401  0.6301  0.2472
  892MOL0     C17619   5.170   9.836   2.020 -0.1312  1.0963  0.0141
  892MOL0     O17620   5.105   9.730   2.084 -0.2128  0.6288 -0.0315
  892MOL0     C17621   5.184   9.603   2.102 -0.1427  0.1192  0.7276
  892MOL0     C17622   5.124   9.518   2.208 -0.7096  0.1946  0.6148
  892MOL0     C17623   4.965   9.524   2.207 -1.2208 -0.0346 -0.2696
  892MOL0     C17624   4.916   9.430   2.320  0.4275 -0.4521 -0.0604
  892MOL0     C17625   4.762   9.452   2.331 -0.0062  0.8925 -0.5319
  892MOL0     C17626   4.714   9.352   2.442 -0.2969 -0.1887  0.1123
  892MOL0     C17627   4.566   9.321   2.453  0.0205  0.1482  0.1648
  892MOL0     C17628   4.491   9.453   2.457 -0.5869 -0.5934  0.5767
  892MOL0     N17629   4.346   9.440   2.503 -0.4652 -0.3230  0.2189
  892MOL0     C17630   4.310   9.434   2.642 -0.1695 -0.1333 -0.3078
  892MOL0     C17631   4.175   9.425   2.638  0.0259 -1.0945 -0.7306
  892MOL0     C17632   4.073   9.402   2.747  1.0638  0.5881 -1.1757
  892MOL0     C17633   4.023   9.540   2.809  0.2121  0.4096 -0.2345
  892MOL0     C17634   3.871   9.533   2.855 -0.5651  0.4609 -0.6986
  892MOL0     C17635   3.842   9.426   2.961 -1.2116 -0.5480 -0.3373
  892MOL0     O17636   3.827   9.291   2.908 -0.2279 -0.1492  0.9221
  892MOL0     C17637   3.719   9.270   2.824  0.0199 -0.7262 -0.3303
  892MOL0     C17638   3.593   9.323   2.847 -0.6119 -0.1904  0.8732
  892MOL0     C17639   3.484   9.282   2.769  0.4886 -0.3210  0.2357
  892MOL0     C17640   3.497   9.182   2.666  0.0983  0.1993 -0.5830
  892MOL0     C17641   3.388   9.136   2.575 -0.2622 -0.6252  0.1664
  892MOL0     O17642   3.418   9.061   2.469 -0.8068 -0.2236  0.4603
  892MOL0     C17643   3.306   9.019   2.398 -0.8338 -0.2370 -1.0057
  892MOL0     C17644   3.245   8.902   2.431  0.3879  0.2693 -0.1226
  892MOL0     C17645   3.126   8.864   2.373 -0.5945  0.0378 -0.4283
  892MOL0     C17646   3.066   8.949   2.280  0.1483  0.5673  0.4357
  892MOL0     O17647   2.949   8.899   2.214  0.1246  0.3870  0.3636
  892MOL0     C17648   2.843   8.990   2.176  0.2656  0.1019  0.5493
  892MOL0     C17649   2.747   8.900   2.099 -0.1739 -0.5166 -0.0540
  892MOL0     C17650   2.663   8.990   2.004  0.8593 -0.1146 -0.2604
  892MOL0     C17651   2.530   8.935   1.967  0.5832 -0.5098 -0.1127
  892MOL0     C17652   2.537   8.807   1.879 -0.6893  0.4745 -0.2319
  892MOL0     C17653   2.394   8.741   1.863 -0.5415  0.9909  0.4060
  892MOL0     C17654   2.401   8.600   1.798 -0.5779  0.5086 -0.8473
  892MOL0     C17655   2.271   8.543   1.742 -0.8484  0.1255  0.4737
  892MOL0    Cl17656   2.160   8.509   1.880  0.1627  0.2023 -0.4808
  892MOL0     C17657   3.124   9.072   2.244 -0.4427  0.0300 -0.1099
  892MOL0     C17658   3.248   9.100   2.305 -0.1518  0.1651  0.3910
  892MOL0     O17659   3.277   9.171   2.608  0.0201 -0.0706  0.3279
  892MOL0     C17660   3.632   9.135   2.642  0.1791 -0.4075  0.4411
  892MOL0     C17661   3.740   9.174   2.719 -1.3291 -0.5307  0.1420
  892MOL0     N17662   4.140   9.452   2.509  0.9468  0.0798 -0.3340
  892MOL0     N17663   4.241   9.450   2.424  0.3258 -0.2252 -0.3747
  892MOL0     C17664   5.311   9.840   2.006  0.5028  0.7715 -0.5926
  892MOL0     C17665   5.377   9.948   1.940  0.0281 -0.1597  0.4942
  892MOL0     C17666   5.554  10.318   1.897  0.1473 -0.0964 -0.6179
  892MOL0     C17667   5.579  10.323   1.765 -0.1792  0.4441 -0.6999
  892MOL0     C17668   5.668  10.418   1.712 -0.3100  0.5146  0.6516
  892MOL0     C17669   5.749  10.488   1.802 -0.1732  0.0878  0.6241
  892MOL0     O17670   5.849  10.583   1.776  0.5792  0.2520 -0.0318
  892MOL0     C17671   5.910  10.565   1.647 -0.0834 -0.1938  0.3619
  892MOL0     C17672   6.018  10.666   1.635 -0.6152  0.3823  0.3873
  892MOL0     C17673   6.109  10.666   1.509  0.2250  1.0723  0.1662
  892MOL0     C17674   6.207  10.777   1.508  0.0453 -1.1041  0.7927
  892MOL0     C17675   6.333  10.740   1.573  0.3553 -0.3873 -0.1183
  892MOL0     C17676   6.440  10.711   1.616 -0.2044  1.2700  1.0482
  892MOL0     C17677   5.727  10.488   1.935  0.7143  0.7064 -0.2485
  892MOL0     C17678   5.629  10.404   1.989 -0.0017 -0.8128  0.3371
  892MOL0     H17679   5.117  10.146   1.886 -1.1885 -0.7322  0.1141
  892MOL0     H17680   4.989   9.936   1.976  0.0706  1.3609  2.9168
  892MOL0     H17681   5.289   9.623   2.123  0.1239 -0.5950  0.1097
  892MOL0     H17682   5.181   9.550   2.006 -1.2449 -0.1231  0.8799
  892MOL0     H17683   5.157   9.540   2.310 -0.8231 -1.6416  1.0907
  892MOL0     H17684   5.146   9.411   2.197  1.8837  0.7218 -0.0689
  892MOL0     H17685   4.925   9.492   2.110 -3.1895  0.9419  0.1803
  892MOL0     H17686   4.931   9.626   2.222 -3.3019 -0.3813 -2.0739
  892MOL0     H17687   4.952   9.331   2.290 -0.5732 -0.4642 -1.2878
  892MOL0     H17688   4.970   9.454   2.412  0.5688  0.1593 -0.3040
  892MOL0     H17689   4.707   9.437   2.237 -1.4652 -1.2840  0.5818
  892MOL0     H17690   4.742   9.557   2.353  2.5683  1.5946 -1.3100
  892MOL0     H17691   4.757   9.392   2.535 -1.1271  2.0555 -0.4075
  892MOL0     H17692   4.764   9.256   2.427 -1.1783 -0.7910  0.9108
  892MOL0     H17693   4.527   9.270   2.365 -0.3300  2.3538 -1.0421
  892MOL0     H17694   4.552   9.273   2.550  1.5485 -2.2774 -0.7194
  892MOL0     H17695   4.478   9.495   2.357 -0.8800 -1.7647  0.1011
  892MOL0     H17696   4.548   9.526   2.516  0.2119  0.9340 -1.9234
  892MOL0     H17697   4.371   9.427   2.731 -0.2670 -0.1980 -0.2452
  892MOL0     H17698   4.124   9.336   2.819 -1.0937 -1.2426 -1.2155
  892MOL0     H17699   3.991   9.342   2.707  0.3660  2.0486 -2.0155
  892MOL0     H17700   4.027   9.620   2.735 -1.5659  1.3284  0.5903
  892MOL0     H17701   4.090   9.566   2.892 -1.4165 -0.6841  1.5115
  892MOL0     H17702   3.850   9.633   2.895 -0.2765 -0.3757  1.7477
  892MOL0     H17703   3.809   9.518   2.766 -2.4139  1.1989  0.3943
  892MOL0     H17704   3.760   9.466   3.021  1.2385  3.5688  0.7032
  892MOL0     H17705   3.934   9.413   3.019 -1.2311  0.7104  0.0026
  892MOL0     H17706   3.571   9.397   2.923 -0.0894 -1.1138  1.9614
  892MOL0     H17707   3.398   9.339   2.803  1.5401  2.2080 -1.0900
  892MOL0     H17708   3.288   8.834   2.504 -0.8523  0.3316  0.6953
  892MOL0     H17709   3.072   8.772   2.394  1.2461 -0.6651  1.5983
  892MOL0     H17710   2.876   9.069   2.109 -2.3988  0.8628  0.0442
  892MOL0     H17711   2.796   9.023   2.269 -0.6502 -1.7010  0.7693
  892MOL0     H17712   2.674   8.850   2.163 -2.1937  0.2495 -1.6535
  892MOL0     H17713   2.798   8.822   2.041 -0.4681 -2.1994  1.8649
  892MOL0     H17714   2.718   9.018   1.914  0.7814  1.7032  0.2128
  892MOL0     H17715   2.643   9.087   2.052  2.2188  0.0205  0.0863
  892MOL0     H17716   2.464   8.912   2.052  0.7252 -0.0694  0.1204
  892MOL0     H17717   2.467   9.006   1.914 -0.0104 -1.0220 -0.1073
  892MOL0     H17718   2.608   8.732   1.915 -3.6237 -2.4649 -0.0955
  892MOL0     H17719   2.580   8.830   1.781  3.3094  2.5091  1.7500
  892MOL0     H17720   2.348   8.812   1.793 -0.5903  1.0963  0.5447
  892MOL0     H17721   2.343   8.733   1.959 -1.5590  0.0230 -0.1897
  892MOL0     H17722   2.467   8.618   1.712 -1.5790  1.5411 -1.4323
  892MOL0     H17723   2.451   8.535   1.869 -4.5169 -0.7166  1.0676
  892MOL0     H17724   2.291   8.450   1.688 -0.3857  1.6840 -2.1873
  892MOL0     H17725   2.220   8.612   1.674 -0.6719 -2.0950 -2.0851
  892MOL0     H17726   3.076   9.130   2.166 -1.1533  2.3954  1.9571
  892MOL0     H17727   3.301   9.189   2.271 -0.3519 -0.0350 -0.4744
  892MOL0     H17728   3.661   9.070   2.561 -0.8322  0.7677 -0.9106
  892MOL0     H17729   3.841   9.133   2.714 -0.5160  1.3899 -0.0447
  892MOL0     H17730   5.388   9.770   2.037  0.2601  1.1031  0.8713
  892MOL0     H17731   5.485   9.956   1.936  0.0671 -0.1496  1.4073
  892MOL0     H17732   5.523  10.255   1.701  0.2900 -1.6759  1.0251
  892MOL0     H17733   5.677  10.427   1.605 -0.7586 -0.0437  0.5652
  892MOL0     H17734   5.844  10.582   1.562  1.9515 -0.2746 -1.3324
  892MOL0     H17735   5.946  10.462   1.648  1.6661  0.3157  3.4591
  892MOL0     H17736   5.974  10.765   1.648  0.1583  0.8667 -0.4868
  892MOL0     H17737   6.088  10.647   1.717  0.0750  1.5812  0.1039
  892MOL0     H17738   6.051  10.680   1.417 -0.2083 -0.8246  0.1193
  892MOL0     H17739   6.163  10.572   1.507 -1.9217 -0.3966  3.2348
  892MOL0     H17740   6.231  10.792   1.403  0.6707 -2.6535  0.6962
  892MOL0     H17741   6.169  10.869   1.554  0.7655  0.2026 -1.1135
  892MOL0     H17742   6.535  10.677   1.653 -1.0291 -1.6849  0.7086
  892MOL0     H17743   5.786  10.551   2.002  1.0418  0.6243 -0.4572
  892MOL0     H17744   5.606  10.416   2.094  1.2543 -0.1897  0.5501
  893MOL0     O17745   4.126   6.755   9.627  0.0800  1.0293  0.0817
  893MOL0     C17746   4.196   6.665   9.666  0.9252  0.2846  0.0629
  893MOL0     O17747   4.162   6.534   9.693 -0.7409 -0.1872 -0.1524
  893MOL0     C17748   4.033   6.492   9.684 -1.0317 -0.3435 -0.2650
  893MOL0     C17749   3.924   6.551   9.629 -0.7011  0.1324 -0.7139
  893MOL0     C17750   3.805   6.486   9.610 -0.4875 -0.1494 -0.7431
  893MOL0     C17751   3.779   6.361   9.666  0.1536 -0.6193 -0.2343
  893MOL0     O17752   3.665   6.297   9.627  0.4103  1.0020 -0.9348
  893MOL0     C17753   3.573   6.286   9.738  0.2687 -0.3286  0.0392
  893MOL0     C17754   3.438   6.238   9.676  0.1505  0.3665 -0.2410
  893MOL0     C17755   3.375   6.365   9.627 -0.1900  0.1357  0.1833
  893MOL0     C17756   3.238   6.329   9.574 -0.2008  0.7819  0.2902
  893MOL0     C17757   3.212   6.403   9.442 -0.7206 -0.5360  0.9966
  893MOL0     C17758   3.203   6.552   9.466 -0.0606  0.1553 -0.5279
  893MOL0     C17759   3.057   6.573   9.518 -0.1232  0.2302  1.2296
  893MOL0     C17760   3.041   6.725   9.533  0.2250  0.9342  0.1222
  893MOL0     N17761   3.070   6.792   9.410 -0.8921 -0.4989  0.6323
  893MOL0     C17762   3.011   6.775   9.292 -0.4531  0.4340  0.7535
  893MOL0     C17763   3.047   6.879   9.216 -0.1675 -0.7506 -0.3416
  893MOL0     C17764   3.011   6.884   9.062 -0.2433  0.1379 -0.5835
  893MOL0     C17765   2.868   6.944   9.033 -0.3169  0.8503  0.6322
  893MOL0     C17766   2.842   6.970   8.880 -0.0728  0.4423  0.4945
  893MOL0     C17767   2.728   7.066   8.868 -0.2945 -0.3818  0.3079
  893MOL0     O17768   2.604   6.997   8.895  0.3397 -0.4462  0.8712
  893MOL0     C17769   2.490   7.077   8.917  0.2336  0.6659 -0.4204
  893MOL0     C17770   2.370   7.003   8.911 -0.3315  0.1736 -0.2572
  893MOL0     C17771   2.244   7.060   8.941  0.3263  0.2987  0.5486
  893MOL0     C17772   2.239   7.193   8.971 -0.4978  0.1045 -0.5178
  893MOL0     C17773   2.109   7.262   9.009 -0.2885 -0.2369  0.6934
  893MOL0     O17774   2.122   7.392   9.056  0.2951  0.1487 -0.6478
  893MOL0     C17775   2.007   7.461   9.085 -0.2731  0.7751 -0.0976
  893MOL0     C17776   1.913   7.487   8.988  0.3325  0.3143  0.3304
  893MOL0     C17777   1.787   7.544   9.027  0.1005  0.6968  0.0255
  893MOL0     C17778   1.764   7.593   9.155 -0.1635  0.5298 -0.3207
  893MOL0     O17779   1.649   7.656   9.202  0.5128  0.6816 -0.1750
  893MOL0     C17780   1.548   7.701   9.110  0.0944  0.1807  0.3697
  893MOL0     C17781   1.416   7.622   9.128  0.1767  0.0503 -0.3036
  893MOL0     C17782   1.302   7.686   9.049 -0.5584  0.6473  0.1699
  893MOL0     C17783   1.169   7.612   9.029 -0.0528 -0.0013 -0.0310
  893MOL0     C17784   1.072   7.682   8.937 -0.9140  0.5249  0.6011
  893MOL0     C17785   0.932   7.619   8.959  0.7365  0.3829 -0.1087
  893MOL0     C17786   0.844   7.650   8.835  0.7708 -0.2354  0.5571
  893MOL0     C17787   0.703   7.624   8.860 -0.1084 -0.3546 -0.2502
  893MOL0    Cl17788   0.621   7.657   8.708 -0.4689  0.2292 -0.6346
  893MOL0     C17789   1.862   7.561   9.248 -0.3419  0.0434 -0.7214
  893MOL0     C17790   1.987   7.498   9.216  0.6481  0.0675  0.6077
  893MOL0     O17791   2.002   7.209   8.976 -1.1153 -0.4235  0.0527
  893MOL0     C17792   2.361   7.278   8.960 -0.2502 -0.1740  0.0457
  893MOL0     C17793   2.479   7.215   8.942  0.2446  0.3460 -0.3354
  893MOL0     N17794   3.138   6.956   9.287  0.0203  0.7058  0.5665
  893MOL0     N17795   3.139   6.908   9.406 -0.0716  0.1752 -0.4001
  893MOL0     C17796   3.886   6.301   9.733  0.6470 -0.7130  0.2171
  893MOL0     C17797   4.013   6.358   9.735 -0.2900  0.4021 -0.3678
  893MOL0     C17798   4.343   6.686   9.671 -0.1498  0.3921  0.0920
  893MOL0     C17799   4.417   6.589   9.743 -0.4260  0.2414 -0.0041
  893MOL0     C17800   4.554   6.606   9.771  0.4276 -0.5877 -0.0477
  893MOL0     C17801   4.617   6.723   9.738 -0.0349  0.2588  0.5401
  893MOL0     O17802   4.748   6.754   9.768 -1.0754 -0.4949  0.0335
  893MOL0     C17803   4.822   6.668   9.864  0.1183  0.9582  0.3632
  893MOL0     C17804   4.944   6.742   9.909  0.3744 -0.0287  0.1975
  893MOL0     C17805   5.067   6.701   9.820 -0.7406 -0.4239  0.2054
  893MOL0     C17806   5.184   6.784   9.853  0.3683 -0.4175  1.0164
  893MOL0     C17807   5.243   6.763   9.992  0.7288 -0.2343  0.0008
  893MOL0     C17808   5.278   6.765  10.104 -0.5111  0.3397  0.3677
  893MOL0     C17809   4.545   6.816   9.660  0.9652 -0.3709 -1.0314
  893MOL0     C17810   4.413   6.799   9.625  0.1088 -0.0333 -0.2934
  893MOL0     H17811   3.923   6.651   9.585  0.5662  2.2688  3.6003
  893MOL0     H17812   3.731   6.522   9.539  0.4201 -0.5476 -1.9378
  893MOL0     H17813   3.565   6.382   9.790 -2.0344  0.8920 -2.3583
  893MOL0     H17814   3.605   6.208   9.808  1.0609 -0.0681 -0.0210
  893MOL0     H17815   3.379   6.203   9.762 -0.3691 -1.2509 -1.2226
  893MOL0     H17816   3.440   6.159   9.600 -2.7326 -1.0463  0.9646
  893MOL0     H17817   3.442   6.400   9.549  0.7313  1.8027  1.6456
  893MOL0     H17818   3.372   6.441   9.706  0.6600 -0.1494  0.5040
  893MOL0     H17819   3.221   6.221   9.572  1.8305  0.4114  0.4356
  893MOL0     H17820   3.170   6.355   9.655  0.5207 -0.2252  1.2534
  893MOL0     H17821   3.125   6.364   9.388 -0.4935 -1.6658  1.4244
  893MOL0     H17822   3.293   6.388   9.370  0.0914  0.6883  1.6234
  893MOL0     H17823   3.232   6.600   9.372  0.1683  1.7955  0.3272
  893MOL0     H17824   3.280   6.591   9.533  1.6822 -1.1817 -1.6595
  893MOL0     H17825   2.982   6.527   9.453  0.8266 -0.6559  0.7363
  893MOL0     H17826   3.053   6.533   9.619 -0.0505  0.4930  1.3377
  893MOL0     H17827   3.115   6.755   9.608  2.8102 -3.0230 -0.5164
  893MOL0     H17828   2.938   6.747   9.560 -0.7949 -0.9770 -1.9110
  893MOL0     H17829   2.953   6.691   9.255  0.4607  0.6774 -1.4218
  893MOL0     H17830   3.006   6.782   9.021 -0.7157  0.7884 -2.2067
  893MOL0     H17831   3.086   6.941   9.007 -2.5718  2.3655 -1.6522
  893MOL0     H17832   2.846   7.038   9.085  0.1167  0.4520  1.5481
  893MOL0     H17833   2.792   6.870   9.060  0.5326  0.2264  1.3751
  893MOL0     H17834   2.936   7.004   8.834  0.3576 -0.2683  0.8223
  893MOL0     H17835   2.819   6.875   8.830 -0.1645  0.6042  0.2239
  893MOL0     H17836   2.710   7.098   8.765 -3.0444 -2.5564  0.0226
  893MOL0     H17837   2.750   7.152   8.933  0.1991  0.4277 -0.8892
  893MOL0     H17838   2.379   6.896   8.898 -0.6166  0.2970 -1.5867
  893MOL0     H17839   2.159   6.993   8.949  1.2843 -0.8496  1.4701
  893MOL0     H17840   1.927   7.456   8.885  0.8579  0.6830  0.2845
  893MOL0     H17841   1.718   7.546   8.944  1.3642 -0.7303 -1.1234
  893MOL0     H17842   1.578   7.696   9.005 -0.4361 -0.8569  0.2607
  893MOL0     H17843   1.528   7.807   9.129 -0.2656  0.2090 -0.1481
  893MOL0     H17844   1.392   7.615   9.234  0.2374 -0.8273 -0.3410
  893MOL0     H17845   1.453   7.524   9.095  3.9816  1.1067  0.3691
  893MOL0     H17846   1.339   7.692   8.947  3.4419  0.6101  1.4567
  893MOL0     H17847   1.279   7.784   9.092 -4.9077  0.0483 -0.3062
  893MOL0     H17848   1.206   7.522   8.979  0.7519  0.4436 -0.2668
  893MOL0     H17849   1.127   7.581   9.125  1.3172  2.3850  1.4504
  893MOL0     H17850   1.117   7.665   8.839 -1.2686  0.4049  0.4559
  893MOL0     H17851   1.067   7.790   8.957  0.9563  0.7631 -0.0458
  893MOL0     H17852   0.889   7.656   9.053 -0.3144  0.6883 -0.6873
  893MOL0     H17853   0.959   7.514   8.968  1.3021  0.5313 -0.0525
  893MOL0     H17854   0.863   7.749   8.790 -0.5077  0.1701  0.8769
  893MOL0     H17855   0.860   7.576   8.756  0.7722  0.1676  0.1729
  893MOL0     H17856   0.678   7.687   8.945 -0.5630  1.7937 -1.9062
  893MOL0     H17857   0.682   7.518   8.879 -1.1413  0.1597  1.7140
  893MOL0     H17858   1.839   7.588   9.351 -0.0864  2.6614 -1.3049
  893MOL0     H17859   2.066   7.467   9.283  1.2795 -2.1812 -1.0413
  893MOL0     H17860   2.346   7.385   8.975  3.4821  0.4667  0.2473
  893MOL0     H17861   2.568   7.278   8.934 -0.1945  0.8050 -1.7136
  893MOL0     H17862   3.860   6.208   9.782 -2.3914 -0.2710 -0.3277
  893MOL0     H17863   4.099   6.310   9.782 -2.5180 -1.0798  2.4904
  893MOL0     H17864   4.372   6.492   9.766 -1.6194  1.0091  1.0108
  893MOL0     H17865   4.614   6.527   9.816  1.2023 -0.5683 -1.0275
  893MOL0     H17866   4.841   6.567   9.825 -2.0436 -0.9439  3.8150
  893MOL0     H17867   4.762   6.649   9.953 -1.4340 -1.9847 -1.1803
  893MOL0     H17868   4.928   6.850   9.900 -0.4253 -0.1341  0.2815
  893MOL0     H17869   4.964   6.714  10.013  2.7096 -1.6256 -0.6052
  893MOL0     H17870   5.052   6.712   9.712  3.1874  0.5199 -0.4007
  893MOL0     H17871   5.097   6.596   9.833  2.2171 -0.1873 -3.0676
  893MOL0     H17872   5.268   6.756   9.788 -0.5151  1.0535 -0.8729
  893MOL0     H17873   5.163   6.890   9.837 -1.6078 -1.2047 -2.7456
  893MOL0     H17874   5.308   6.771  10.207 -2.3849  2.5303  0.8762
  893MOL0     H17875   4.592   6.904   9.618  2.3133 -0.9937 -0.8670
  893MOL0     H17876   4.357   6.868   9.562 -4.9897 -3.4804 -0.1602
  894MOL0     O17877   5.878   9.481   6.118  0.2104 -0.0864  0.9852
  894MOL0     C17878   5.952   9.469   6.221 -0.1740 -0.6220 -0.0249
  894MOL0     O17879   5.914   9.423   6.340  0.7367 -0.0771  0.1299
  894MOL0     C17880   5.778   9.397   6.357  0.4529  0.1417  1.0012
  894MOL0     C17881   5.692   9.509   6.361  0.6203 -0.9617  0.2122
  894MOL0     C17882   5.552   9.481   6.384  0.5708  0.6046 -0.6083
  894MOL0     C17883   5.502   9.357   6.403  0.1129 -0.3089 -0.2228
  894MOL0     O17884   5.368   9.349   6.432 -0.1512 -0.1560 -0.2015
  894MOL0     C17885   5.306   9.238   6.498  0.9165 -0.1785 -0.2149
  894MOL0     C17886   5.168   9.281   6.542  0.5858 -0.1575 -0.0192
  894MOL0     C17887   5.063   9.281   6.420 -0.2198  0.0058 -0.2567
  894MOL0     C17888   4.944   9.378   6.443 -0.6319  0.2347 -1.0661
  894MOL0     C17889   4.821   9.340   6.359  0.3820  0.2186 -0.2272
  894MOL0     C17890   4.693   9.421   6.399  0.1392  0.4548 -0.4194
  894MOL0     C17891   4.562   9.370   6.337 -0.0934 -0.7785  0.2899
  894MOL0     C17892   4.456   9.481   6.341  0.0546  0.6176 -0.5370
  894MOL0     N17893   4.320   9.428   6.343 -0.1275 -0.2400  0.2788
  894MOL0     C17894   4.246   9.389   6.238 -0.0890  0.0297  0.6202
  894MOL0     C17895   4.124   9.358   6.289 -0.7126 -0.2472  0.1410
  894MOL0     C17896   4.015   9.306   6.206  0.1841 -0.2429 -1.3867
  894MOL0     C17897   3.877   9.329   6.282 -0.3086 -0.0685  0.1454
  894MOL0     C17898   3.742   9.270   6.220 -0.4979 -0.0638  0.7051
  894MOL0     C17899   3.636   9.229   6.322 -0.0160  0.5477 -0.0714
  894MOL0     O17900   3.508   9.231   6.279  0.2945  0.5691  0.7124
  894MOL0     C17901   3.406   9.193   6.368 -0.3305 -0.3346  0.3755
  894MOL0     C17902   3.274   9.191   6.322 -1.3265  0.4805  0.6211
  894MOL0     C17903   3.170   9.151   6.406 -0.0883  0.4863  0.1411
  894MOL0     C17904   3.192   9.113   6.538 -0.0705  0.3738 -0.8210
  894MOL0     C17905   3.080   9.084   6.628  0.0360  0.0841  0.0451
  894MOL0     O17906   2.954   9.096   6.577 -0.5294  0.8395 -0.1876
  894MOL0     C17907   2.845   9.052   6.641 -0.1673 -0.7091 -0.3832
  894MOL0     C17908   2.836   8.938   6.717  0.5432  0.7958 -0.3926
  894MOL0     C17909   2.719   8.890   6.767  0.4450 -0.4833  0.2925
  894MOL0     C17910   2.598   8.958   6.751 -0.2862  0.1233  0.6121
  894MOL0     O17911   2.489   8.916   6.828  0.1437 -0.3790 -0.2057
  894MOL0     C17912   2.408   8.829   6.754  0.8476 -0.2022  0.2437
  894MOL0     C17913   2.268   8.835   6.811  0.5758  0.4521 -0.1513
  894MOL0     C17914   2.251   8.791   6.962  0.2404  0.2063  1.1482
  894MOL0     C17915   2.103   8.813   7.010  0.7625  0.0335  0.0532
  894MOL0     C17916   2.082   8.761   7.156  0.2950 -1.2397  0.0787
  894MOL0     C17917   2.006   8.627   7.158  0.2495 -0.1321 -0.5882
  894MOL0     C17918   1.988   8.594   7.310 -0.5303  0.1948  0.0216
  894MOL0     C17919   1.945   8.448   7.335  0.8039  0.1003 -0.3277
  894MOL0    Cl17920   2.106   8.354   7.322  0.4018  0.2098 -0.0789
  894MOL0     C17921   2.603   9.073   6.671 -0.2194  1.1971 -0.1124
  894MOL0     C17922   2.727   9.127   6.621 -0.2225  0.2119  0.0604
  894MOL0     O17923   3.105   9.051   6.743  0.3187 -0.3605  1.3386
  894MOL0     C17924   3.324   9.100   6.577  0.3531 -0.2946 -0.9182
  894MOL0     C17925   3.429   9.143   6.498 -0.4133 -0.0071 -0.0252
  894MOL0     N17926   4.120   9.391   6.424 -0.5700  0.0907  0.2308
  894MOL0     N17927   4.239   9.436   6.453 -0.0783 -0.1895 -0.2381
  894MOL0     C17928   5.587   9.252   6.413  0.9351  0.2559  0.5280
  894MOL0     C17929   5.718   9.267   6.384 -0.1457  0.1123  0.1078
  894MOL0     C17930   6.098   9.505   6.210  0.5983  1.2823 -0.3674
  894MOL0     C17931   6.151   9.497   6.083  0.4612 -1.0244  0.2024
  894MOL0     C17932   6.289   9.503   6.059 -0.1790 -0.9958  0.1705
  894MOL0     C17933   6.377   9.516   6.163  0.3643 -0.2362 -0.2761
  894MOL0     O17934   6.513   9.532   6.134  0.5440 -0.8339 -0.0621
  894MOL0     C17935   6.609   9.584   6.226 -0.4164  0.3669  1.3668
  894MOL0     C17936   6.741   9.579   6.148 -0.4411  0.1857 -0.3009
  894MOL0     C17937   6.746   9.682   6.034 -0.4280  0.6118 -0.8491
  894MOL0     C17938   6.859   9.647   5.940 -0.2819  0.7272 -0.0696
  894MOL0     C17939   6.903   9.771   5.866  0.3751 -1.0370  0.4716
  894MOL0     C17940   6.940   9.877   5.818  0.4232  0.3557  0.4404
  894MOL0     C17941   6.326   9.520   6.297  0.5125  0.4117  0.3168
  894MOL0     C17942   6.187   9.513   6.323  1.2187  0.1553  1.4180
  894MOL0     H17943   5.735   9.609   6.363 -1.7484  0.1379 -0.1731
  894MOL0     H17944   5.473   9.554   6.400 -0.8277 -1.2771  1.6687
  894MOL0     H17945   5.364   9.194   6.579  0.0112 -1.8566 -0.4469
  894MOL0     H17946   5.300   9.150   6.434  1.3850  0.2487 -0.8612
  894MOL0     H17947   5.159   9.385   6.572 -3.8940 -0.0719 -1.0010
  894MOL0     H17948   5.120   9.223   6.621 -0.4932  1.3993  0.5098
  894MOL0     H17949   5.020   9.182   6.402 -0.6468  0.0166  0.6482
  894MOL0     H17950   5.108   9.306   6.323 -0.6092 -2.2997 -1.0881
  894MOL0     H17951   4.924   9.389   6.550  0.5751  1.2201 -0.9209
  894MOL0     H17952   4.972   9.475   6.401 -0.9437 -0.1563 -2.2254
  894MOL0     H17953   4.810   9.232   6.377  1.5360 -0.0092 -0.8091
  894MOL0     H17954   4.854   9.354   6.256  0.6115  0.2195 -0.1546
  894MOL0     H17955   4.705   9.522   6.358  1.5795 -0.2924 -1.9501
  894MOL0     H17956   4.687   9.425   6.508 -1.1231  0.8250 -0.4813
  894MOL0     H17957   4.567   9.336   6.233  1.0417  1.5440 -0.4844
  894MOL0     H17958   4.525   9.286   6.396  0.1606 -1.5677 -0.6385
  894MOL0     H17959   4.474   9.551   6.259  1.3047  0.9629  0.0148
  894MOL0     H17960   4.458   9.540   6.433 -2.7681  0.8197 -0.4914
  894MOL0     H17961   4.266   9.374   6.132  0.4253  1.7802  0.4364
  894MOL0     H17962   4.034   9.199   6.194  0.3259 -1.0364  3.6815
  894MOL0     H17963   4.009   9.356   6.108  0.8194  0.9912 -0.8227
  894MOL0     H17964   3.856   9.435   6.296 -1.1839 -0.2255  0.0719
  894MOL0     H17965   3.886   9.286   6.383 -0.8935 -1.9167 -0.5525
  894MOL0     H17966   3.702   9.338   6.145 -0.1560 -1.6469 -0.9913
  894MOL0     H17967   3.763   9.179   6.164  1.3030  1.1568 -0.7216
  894MOL0     H17968   3.644   9.294   6.410  0.4001 -2.3369  2.1754
  894MOL0     H17969   3.661   9.126   6.350  0.6705  0.1310 -2.0702
  894MOL0     H17970   3.257   9.231   6.222  0.8863 -0.2182 -0.0782
  894MOL0     H17971   3.069   9.148   6.365  0.7290  1.8138 -2.1996
  894MOL0     H17972   2.926   8.879   6.736  2.0741  2.8810 -0.7298
  894MOL0     H17973   2.710   8.810   6.840 -3.6036  0.3631  0.9539
  894MOL0     H17974   2.445   8.726   6.753  1.5173  0.0287 -1.8123
  894MOL0     H17975   2.403   8.859   6.649  0.8776 -1.4939 -0.1484
  894MOL0     H17976   2.196   8.775   6.754 -0.2100 -0.2957  1.5643
  894MOL0     H17977   2.236   8.939   6.807  1.7224  0.8121 -0.2443
  894MOL0     H17978   2.316   8.848   7.030 -1.0597 -0.3915  2.9671
  894MOL0     H17979   2.285   8.688   6.967 -0.0356  0.0604  0.2400
  894MOL0     H17980   2.097   8.922   7.015 -1.6868 -0.0439  0.0279
  894MOL0     H17981   2.021   8.788   6.942 -0.1124  2.5411  0.1051
  894MOL0     H17982   2.021   8.835   7.209  1.1163  0.6877 -1.5456
  894MOL0     H17983   2.182   8.764   7.200  0.2271 -0.5705  0.1966
  894MOL0     H17984   2.064   8.551   7.103  1.5750 -0.1245  0.7414
  894MOL0     H17985   1.912   8.642   7.104  1.5462  2.1527 -2.3977
  894MOL0     H17986   2.086   8.607   7.357  1.6414  2.3378 -4.4863
  894MOL0     H17987   1.919   8.662   7.361  0.9474  1.8488 -0.0952
  894MOL0     H17988   1.858   8.420   7.275  0.3060 -0.4315  0.6371
  894MOL0     H17989   1.914   8.447   7.440  2.2644 -2.6577  0.1612
  894MOL0     H17990   2.510   9.127   6.656 -0.4451  1.5947  2.2323
  894MOL0     H17991   2.739   9.227   6.580  0.0514  0.5106  0.8514
  894MOL0     H17992   3.332   9.069   6.680 -1.9997  1.5754 -0.0781
  894MOL0     H17993   3.528   9.133   6.540 -0.4469 -0.6275 -0.0864
  894MOL0     H17994   5.550   9.154   6.442  3.1924 -0.4598  1.1959
  894MOL0     H17995   5.776   9.175   6.375  1.3001  1.0917 -1.1675
  894MOL0     H17996   6.093   9.489   5.992  2.0534  3.0036 -1.4035
  894MOL0     H17997   6.334   9.517   5.961  0.6566  1.3182  0.8008
  894MOL0     H17998   6.610   9.526   6.319 -2.8338 -1.5965  0.2844
  894MOL0     H17999   6.581   9.688   6.241 -0.7786  0.4099  0.4314
  894MOL0     H18000   6.821   9.606   6.218 -1.9041 -1.4392  2.1802
  894MOL0     H18001   6.769   9.476   6.122  0.1367  0.0587  0.7551
  894MOL0     H18002   6.748   9.781   6.080  1.2583  0.1250  0.2590
  894MOL0     H18003   6.653   9.685   5.977 -1.7666 -1.1511  1.0562
  894MOL0     H18004   6.949   9.616   5.994 -0.2066  2.2113  0.7040
  894MOL0     H18005   6.838   9.561   5.876 -1.1404  0.2791  0.7851
  894MOL0     H18006   6.957   9.967   5.763  0.7349  0.8154  1.2723
  894MOL0     H18007   6.389   9.541   6.382 -0.2842  1.2106  0.7264
  894MOL0     H18008   6.143   9.525   6.422  1.5664  0.4404  1.5370
  895MOL0     O18009   1.057   7.111   9.745  0.0379 -0.2485  0.4946
  895MOL0     C18010   1.092   7.148   9.855 -0.8960 -0.3397 -0.2734
  895MOL0     O18011   1.194   7.098   9.933  0.4871 -0.4676  0.1158
  895MOL0     C18012   1.269   6.995   9.889  0.4741  0.3920 -0.0051
  895MOL0     C18013   1.262   6.863   9.951 -0.1323 -0.4002  0.2221
  895MOL0     C18014   1.322   6.751   9.895  0.1674  0.4460  1.2132
  895MOL0     C18015   1.392   6.764   9.779  0.2608  0.7635  0.3192
  895MOL0     O18016   1.455   6.664   9.702 -0.0908 -0.2435  0.0079
  895MOL0     C18017   1.501   6.544   9.773  0.4806  0.2983 -0.1781
  895MOL0     C18018   1.605   6.465   9.684  1.2094 -0.0867 -0.2466
  895MOL0     C18019   1.736   6.557   9.652  0.7374  0.5828 -0.2704
  895MOL0     C18020   1.844   6.480   9.574 -0.2367 -0.3901  0.9754
  895MOL0     C18021   1.959   6.571   9.560 -0.1829  0.2650  0.2906
  895MOL0     C18022   2.081   6.495   9.507 -0.3831 -0.2096 -0.6802
  895MOL0     C18023   2.210   6.577   9.501 -0.0705  0.6600 -1.0535
  895MOL0     C18024   2.201   6.659   9.376 -0.4441  0.6339  0.7070
  895MOL0     N18025   2.178   6.803   9.387 -0.2000  0.2416 -0.2240
  895MOL0     C18026   2.249   6.906   9.443 -0.7431 -0.0917  0.1020
  895MOL0     C18027   2.200   7.017   9.389  0.5830  0.5870 -0.5284
  895MOL0     C18028   2.276   7.146   9.405 -0.2880  0.2442 -0.0986
  895MOL0     C18029   2.205   7.237   9.517 -0.6565 -0.4196  0.1794
  895MOL0     C18030   2.263   7.373   9.523  0.8566 -0.2895 -0.0577
  895MOL0     C18031   2.196   7.451   9.633 -0.0488 -0.1816 -0.5906
  895MOL0     O18032   2.052   7.472   9.612 -0.3429 -0.1186 -0.4049
  895MOL0     C18033   1.986   7.536   9.707  1.3512 -1.3967 -0.3985
  895MOL0     C18034   1.975   7.679   9.720  0.4589  0.8615 -0.0322
  895MOL0     C18035   1.889   7.746   9.814 -0.0231 -0.6189  0.2934
  895MOL0     C18036   1.822   7.670   9.908 -0.1015 -0.8045 -0.1410
  895MOL0     C18037   1.742   7.732  10.013 -0.2704  0.0616  0.2069
  895MOL0     O18038   1.719   7.652  10.116 -0.2531  0.6189 -0.4119
  895MOL0     C18039   1.617   7.680  10.212 -0.5664  0.1229  0.3595
  895MOL0     C18040   1.496   7.733  10.180  1.0579 -0.6366  0.3413
  895MOL0     C18041   1.404   7.758  10.286  0.5832  0.1529 -0.4904
  895MOL0     C18042   1.439   7.716  10.417 -0.1637 -0.2348 -0.0140
  895MOL0     O18043   1.343   7.719  10.513 -0.4171  0.3624 -0.1623
  895MOL0     C18044   1.360   7.637  10.629  0.0611 -0.4011  0.0236
  895MOL0     C18045   1.231   7.642  10.712  0.2836 -0.2427  0.5957
  895MOL0     C18046   1.100   7.693  10.654 -0.5132 -0.1172 -0.2415
  895MOL0     C18047   0.980   7.679  10.744  0.0626  0.6698 -0.9914
  895MOL0     C18048   0.841   7.674  10.685  0.6572 -0.2110  0.5131
  895MOL0     C18049   0.730   7.643  10.789 -0.2798  0.9378  0.2860
  895MOL0     C18050   0.714   7.733  10.911 -0.2648 -0.1922  0.1122
  895MOL0     C18051   0.699   7.879  10.876  0.0537  0.3287 -0.6831
  895MOL0    Cl18052   0.547   7.927  10.794  0.4268  0.0584 -0.1763
  895MOL0     C18053   1.564   7.669  10.440 -0.2936 -0.0840 -0.0660
  895MOL0     C18054   1.651   7.641  10.340 -0.2068  0.1104  0.1188
  895MOL0     O18055   1.715   7.850  10.010  0.6144 -0.4140 -0.7941
  895MOL0     C18056   1.831   7.525   9.900  0.1208 -0.5707  0.2097
  895MOL0     C18057   1.909   7.464   9.802  0.9769  0.0510 -0.8526
  895MOL0     N18058   2.107   6.989   9.299  0.1751 -0.5307  0.2293
  895MOL0     N18059   2.090   6.859   9.295  0.4069  0.1024 -0.6352
  895MOL0     C18060   1.400   6.884   9.715  0.6207 -0.2181 -0.4139
  895MOL0     C18061   1.341   6.993   9.761  0.0570 -0.2194 -0.4501
  895MOL0     C18062   1.040   7.267   9.921 -0.3568  0.2141  0.1605
  895MOL0     C18063   1.113   7.340  10.014 -0.1694 -0.1979  0.3466
  895MOL0     C18064   1.035   7.437  10.081 -0.1985 -0.4088  0.6220
  895MOL0     C18065   0.898   7.470  10.066 -0.6526 -0.3404 -0.6272
  895MOL0     O18066   0.829   7.568  10.138  0.2353 -0.7469 -0.1236
  895MOL0     C18067   0.903   7.644  10.227 -0.1809  0.7201 -0.2613
  895MOL0     C18068   0.814   7.766  10.255  0.2642 -0.3431  0.8274
  895MOL0     C18069   0.701   7.733  10.345 -0.7978  0.2175  1.0416
  895MOL0     C18070   0.640   7.851  10.406 -0.2827  0.0086  0.0287
  895MOL0     C18071   0.578   7.929  10.296  0.1624 -1.1288 -0.0005
  895MOL0     C18072   0.535   7.987  10.198  0.7756  0.2620  0.1822
  895MOL0     C18073   0.848   7.410   9.954  0.8761  0.8485  0.0221
  895MOL0     C18074   0.907   7.300   9.891  0.3799  0.7785 -0.9056
  895MOL0     H18075   1.188   6.860  10.029 -0.0857  0.2688  0.2966
  895MOL0     H18076   1.301   6.650   9.929  0.8075 -0.4558 -0.8893
  895MOL0     H18077   1.414   6.480   9.793 -0.5119  1.7608  0.4344
  895MOL0     H18078   1.549   6.571   9.867 -2.1369  1.5395  0.9122
  895MOL0     H18079   1.574   6.424   9.587  2.4085 -3.1622  0.5544
  895MOL0     H18080   1.634   6.377   9.742 -1.5722  0.2181  1.7925
  895MOL0     H18081   1.782   6.592   9.744  0.7573 -2.5226  0.9981
  895MOL0     H18082   1.707   6.641   9.588 -1.7672 -1.9822 -2.8139
  895MOL0     H18083   1.863   6.380   9.615 -2.4713 -1.9967 -1.5228
  895MOL0     H18084   1.797   6.461   9.477 -1.9097  4.3877  0.5994
  895MOL0     H18085   1.988   6.612   9.658  0.7704  1.5482 -0.4941
  895MOL0     H18086   1.942   6.651   9.488  1.6457  0.0268 -0.4501
  895MOL0     H18087   2.053   6.435   9.419 -2.4445 -1.3557  0.6712
  895MOL0     H18088   2.106   6.421   9.583  2.1427  0.9843 -0.2638
  895MOL0     H18089   2.224   6.639   9.591  1.3704 -0.1406 -0.6830
  895MOL0     H18090   2.284   6.499   9.481  0.9510  1.2921  0.0608
  895MOL0     H18091   2.120   6.609   9.321  0.2439  0.5428 -0.2508
  895MOL0     H18092   2.288   6.647   9.311 -0.7300  0.3838  0.3697
  895MOL0     H18093   2.333   6.886   9.510  2.6472  1.5359 -3.3133
  895MOL0     H18094   2.288   7.198   9.309 -2.7543 -0.7829 -1.0280
  895MOL0     H18095   2.377   7.121   9.440 -0.4671 -2.3101 -1.1633
  895MOL0     H18096   2.218   7.199   9.619 -0.8947  1.2425  0.8779
  895MOL0     H18097   2.097   7.239   9.498 -0.7240  1.7096  0.5299
  895MOL0     H18098   2.370   7.388   9.539  0.9249 -0.6626 -0.1583
  895MOL0     H18099   2.242   7.419   9.426 -0.2608  0.0417  0.3345
  895MOL0     H18100   2.243   7.550   9.632 -1.4350  0.6954  3.5913
  895MOL0     H18101   2.216   7.405   9.730  0.8721  1.5452  0.0804
  895MOL0     H18102   2.014   7.745   9.643 -0.0799  0.3436 -0.7646
  895MOL0     H18103   1.886   7.855   9.812 -4.7166 -0.5438 -2.2814
  895MOL0     H18104   1.475   7.746  10.074 -1.8743 -1.4650  0.7499
  895MOL0     H18105   1.308   7.807  10.277  0.3548  0.8203  3.6446
  895MOL0     H18106   1.446   7.669  10.689 -0.3233  1.0248 -0.1668
  895MOL0     H18107   1.364   7.530  10.606  1.4591 -0.4619  0.4309
  895MOL0     H18108   1.262   7.706  10.795 -4.5199  1.0047  1.7471
  895MOL0     H18109   1.215   7.536  10.735 -0.1638 -1.2608 -3.5292
  895MOL0     H18110   1.082   7.628  10.568 -0.3549 -1.1034  0.4571
  895MOL0     H18111   1.115   7.800  10.633  0.1880 -0.8175 -4.2401
  895MOL0     H18112   0.994   7.590  10.805 -1.6525  1.5540  0.7908
  895MOL0     H18113   0.983   7.753  10.824 -5.2522 -0.1786  0.3685
  895MOL0     H18114   0.830   7.600  10.605  3.7545 -2.4558  1.9824
  895MOL0     H18115   0.830   7.775  10.643  0.4844 -0.6474 -0.5203
  895MOL0     H18116   0.744   7.541  10.826  2.5121 -0.3914 -3.6926
  895MOL0     H18117   0.636   7.631  10.736 -0.1248 -2.3243  0.5522
  895MOL0     H18118   0.637   7.690  10.975  1.0474 -0.5868  1.4938
  895MOL0     H18119   0.805   7.730  10.972 -2.1726 -0.1775  3.2127
  895MOL0     H18120   0.791   7.914  10.827 -0.5576  3.1009 -0.0283
  895MOL0     H18121   0.694   7.944  10.964  2.5140  3.5846 -2.7217
  895MOL0     H18122   1.589   7.646  10.544 -0.9927  1.9651  0.5893
  895MOL0     H18123   1.754   7.607  10.352  0.1707  0.5440 -1.6416
  895MOL0     H18124   1.772   7.468   9.971 -2.1965 -0.7373 -1.7435
  895MOL0     H18125   1.917   7.355   9.804  1.4237 -0.0191 -3.4372
  895MOL0     H18126   1.461   6.888   9.625  2.3765 -1.2440  0.6797
  895MOL0     H18127   1.351   7.085   9.703 -0.9051 -1.4453 -2.6866
  895MOL0     H18128   1.219   7.325  10.030 -0.3134 -0.8540  0.7387
  895MOL0     H18129   1.092   7.494  10.155 -1.7807  0.8022  0.9649
  895MOL0     H18130   0.987   7.683  10.168  1.1588  0.1398  1.1862
  895MOL0     H18131   0.939   7.584  10.312  2.8634  2.6818  0.0099
  895MOL0     H18132   0.876   7.846  10.295 -0.8126  0.1099  1.6562
  895MOL0     H18133   0.786   7.798  10.154  0.8637 -1.1030  0.4101
  895MOL0     H18134   0.744   7.679  10.430 -2.6959  0.7390  2.4075
  895MOL0     H18135   0.624   7.672  10.298  2.6016 -3.9240  0.2110
  895MOL0     H18136   0.568   7.818  10.482  2.1524 -0.5641  2.2633
  895MOL0     H18137   0.715   7.911  10.458  1.4528  0.3910 -2.7153
  895MOL0     H18138   0.506   8.043  10.111  2.7055  2.8224  1.0607
  895MOL0     H18139   0.747   7.435   9.924  0.8358  0.4818 -0.1503
  895MOL0     H18140   0.852   7.256   9.809 -3.1369 -1.3568  2.2669
  896MOL0     O18141   7.775   1.169  11.066  0.5672 -0.2304  0.4922
  896MOL0     C18142   7.812   1.084  10.987 -0.8099 -0.5365  0.2019
  896MOL0     O18143   7.732   1.006  10.905  0.8049  0.5107 -0.1636
  896MOL0     C18144   7.588   1.012  10.926  0.3163 -0.2843  0.3935
  896MOL0     C18145   7.520   0.975  10.808 -0.6592  0.6040  0.2011
  896MOL0     C18146   7.378   0.976  10.808 -0.2635  0.0317  0.0529
  896MOL0     C18147   7.307   1.018  10.915  0.2196 -0.5305 -0.0007
  896MOL0     O18148   7.170   1.027  10.891 -0.3742  0.7094 -0.1268
  896MOL0     C18149   7.086   1.112  10.981  0.1138  0.6003  1.3171
  896MOL0     C18150   6.966   1.156  10.893  0.7916  0.3406  0.0108
  896MOL0     C18151   7.016   1.203  10.748 -0.0936  0.3147  0.4217
  896MOL0     C18152   6.891   1.246  10.674 -0.1841  0.3436 -0.2700
  896MOL0     C18153   6.927   1.306  10.538 -0.5032 -0.1449  0.3709
  896MOL0     C18154   6.804   1.317  10.445 -0.4356 -1.3494  0.2524
  896MOL0     C18155   6.833   1.376  10.301 -0.0941 -0.1985  0.3132
  896MOL0     C18156   6.701   1.388  10.218 -1.1000 -0.1864  0.1927
  896MOL0     N18157   6.616   1.490  10.285  0.4894  0.0571  0.7151
  896MOL0     C18158   6.501   1.476  10.350  0.1280 -0.7765 -0.5343
  896MOL0     C18159   6.450   1.603  10.376 -0.0390  0.2672 -0.5856
  896MOL0     C18160   6.328   1.645  10.451 -0.6191 -0.4623 -0.3803
  896MOL0     C18161   6.261   1.768  10.393  0.1559  0.5543  1.2925
  896MOL0     C18162   6.152   1.814  10.491 -0.8714  0.2344  0.4385
  896MOL0     C18163   6.064   1.921  10.444  0.0226 -0.8279  0.0627
  896MOL0     O18164   5.986   1.961  10.558  0.0428 -0.2842 -0.2966
  896MOL0     C18165   5.867   2.023  10.522 -0.4034  0.3985 -0.6968
  896MOL0     C18166   5.769   2.030  10.616 -0.2100 -0.1362 -0.0093
  896MOL0     C18167   5.640   2.081  10.600 -0.0305  0.1870 -0.1285
  896MOL0     C18168   5.618   2.134  10.474 -0.0996 -0.0357 -0.1149
  896MOL0     C18169   5.482   2.189  10.441  0.4705  0.6436  0.4598
  896MOL0     O18170   5.398   2.192  10.536 -0.0312  0.3056  0.9046
  896MOL0     C18171   5.271   2.236  10.521 -0.7851 -0.1939 -0.4042
  896MOL0     C18172   5.236   2.360  10.467  0.3488 -0.1895  0.1184
  896MOL0     C18173   5.096   2.401  10.460 -0.2401 -0.4128 -0.8320
  896MOL0     C18174   4.997   2.306  10.503  0.0228  0.4307  0.5760
  896MOL0     O18175   4.867   2.311  10.486  0.6168 -0.3939  0.7959
  896MOL0     C18176   4.816   2.382  10.365  0.4995 -0.5361 -0.1305
  896MOL0     C18177   4.676   2.447  10.394 -1.1098  0.3833  1.0045
  896MOL0     C18178   4.565   2.345  10.417  0.3129  0.0747 -0.7360
  896MOL0     C18179   4.435   2.418  10.457  0.0656  0.2592 -0.4190
  896MOL0     C18180   4.315   2.320  10.429  1.0138  0.1081 -0.2062
  896MOL0     C18181   4.169   2.377  10.458  0.4425 -0.3284  0.3485
  896MOL0     C18182   4.127   2.485  10.353  0.3136  0.1889  0.0699
  896MOL0     C18183   3.986   2.551  10.370  0.5593  0.4711  0.5277
  896MOL0    Cl18184   3.873   2.420  10.340 -0.0765  0.1605 -0.2018
  896MOL0     C18185   5.046   2.193  10.567  0.4352 -0.5363 -0.3387
  896MOL0     C18186   5.178   2.160  10.584  0.3562  0.1208 -0.3505
  896MOL0     O18187   5.466   2.225  10.321 -0.3653 -0.4144 -0.1994
  896MOL0     C18188   5.713   2.132  10.370  0.0687  0.2348 -0.8728
  896MOL0     C18189   5.836   2.073  10.393 -0.6163  0.6696  0.0025
  896MOL0     N18190   6.548   1.688  10.326  0.4229  0.6396  0.4336
  896MOL0     N18191   6.638   1.620  10.269 -0.6181 -0.2483  0.2108
  896MOL0     C18192   7.378   1.055  11.033 -0.4391  0.0399  0.3727
  896MOL0     C18193   7.517   1.042  11.038 -0.0058  0.0153  0.1070
  896MOL0     C18194   7.956   1.062  10.965 -0.0174  1.5598  0.5359
  896MOL0     C18195   8.058   1.152  10.999  0.6686  0.1220 -0.0406
  896MOL0     C18196   8.195   1.120  10.986 -0.1637  0.1576  0.2319
  896MOL0     C18197   8.235   0.996  10.924  0.6153 -0.4732  1.6444
  896MOL0     O18198   8.363   0.947  10.903 -0.5723 -0.5212 -0.1424
  896MOL0     C18199   8.475   1.014  10.968  1.0326 -1.6546  0.3320
  896MOL0     C18200   8.481   1.000  11.116 -0.7827 -0.0821 -0.4721
  896MOL0     C18201   8.497   0.850  11.143 -1.1474  0.1892  0.6880
  896MOL0     C18202   8.518   0.807  11.285  1.1057  0.1038 -0.9122
  896MOL0     C18203   8.647   0.865  11.320  0.1901  0.1574 -0.0736
  896MOL0     C18204   8.757   0.916  11.359  0.1420  0.0283 -0.2601
  896MOL0     C18205   8.131   0.909  10.878  0.2763  0.4279  0.5124
  896MOL0     C18206   7.993   0.940  10.899 -1.0348  0.1738 -1.5123
  896MOL0     H18207   7.574   0.934  10.723 -0.3853  1.2465  0.0575
  896MOL0     H18208   7.325   0.936  10.722  1.7704 -0.1634 -1.1814
  896MOL0     H18209   7.145   1.200  11.011 -0.5281  1.1905  0.8950
  896MOL0     H18210   7.060   1.058  11.072  1.2705  0.5530  1.6471
  896MOL0     H18211   6.905   1.229  10.945 -0.7421 -1.3195  0.6428
  896MOL0     H18212   6.898   1.072  10.875 -0.7247  1.2929  1.0661
  896MOL0     H18213   7.065   1.115  10.705  2.0858  1.4397  0.4754
  896MOL0     H18214   7.076   1.294  10.754 -3.7036  2.8449  1.4712
  896MOL0     H18215   6.811   1.173  10.660 -2.1271  2.6566 -2.2349
  896MOL0     H18216   6.836   1.326  10.725  0.1238 -0.5894  1.6185
  896MOL0     H18217   7.004   1.246  10.489 -0.0809  2.0513 -1.8841
  896MOL0     H18218   6.968   1.408  10.544  0.4559 -0.5657  1.1978
  896MOL0     H18219   6.736   1.386  10.496  0.9124  2.4218 -2.4943
  896MOL0     H18220   6.767   1.214  10.440  2.0102 -2.2339 -1.2926
  896MOL0     H18221   6.886   1.470  10.321  0.0736 -0.7529  2.8655
  896MOL0     H18222   6.904   1.304  10.261 -0.7450 -0.8391  0.2970
  896MOL0     H18223   6.648   1.292  10.218  1.7049 -1.8551 -0.3555
  896MOL0     H18224   6.720   1.427  10.118 -0.5189 -1.3024 -0.1448
  896MOL0     H18225   6.463   1.379  10.380 -0.6635 -1.7129 -4.0544
  896MOL0     H18226   6.362   1.674  10.551 -0.2784 -0.5607 -0.4654
  896MOL0     H18227   6.262   1.563  10.480 -2.0168  1.4355  2.3692
  896MOL0     H18228   6.221   1.738  10.295  2.0775 -3.3948  1.5163
  896MOL0     H18229   6.337   1.844  10.372 -2.1427  2.0409 -2.8791
  896MOL0     H18230   6.091   1.724  10.508 -0.0490 -0.5815 -0.7970
  896MOL0     H18231   6.204   1.845  10.582  2.1978  0.1418 -1.1897
  896MOL0     H18232   6.012   1.887  10.354 -0.8818  1.1658 -0.2220
  896MOL0     H18233   6.123   2.008  10.414  0.0733 -1.3984 -1.5639
  896MOL0     H18234   5.789   1.998  10.718 -0.0388  1.3355  0.4453
  896MOL0     H18235   5.558   2.069  10.669  0.0285  0.4248 -0.0145
  896MOL0     H18236   5.312   2.429  10.433  0.8391 -0.6313  0.3161
  896MOL0     H18237   5.068   2.497  10.418 -1.7993  0.4594  1.9225
  896MOL0     H18238   4.800   2.322  10.275 -1.5162 -0.3473  0.0540
  896MOL0     H18239   4.878   2.461  10.322 -1.1572 -0.9655 -3.6737
  896MOL0     H18240   4.642   2.513  10.313  1.1424  1.2596  0.6805
  896MOL0     H18241   4.699   2.514  10.478  1.2317  1.7311 -0.5759
  896MOL0     H18242   4.599   2.279  10.498  3.0158  1.5320 -0.5663
  896MOL0     H18243   4.556   2.277  10.332  3.8106 -1.4807 -0.0205
  896MOL0     H18244   4.435   2.432  10.565 -2.3848  0.2448 -0.3754
  896MOL0     H18245   4.429   2.513  10.404 -0.6842  1.4141  1.6502
  896MOL0     H18246   4.327   2.245  10.507  2.3954 -1.8359 -2.1874
  896MOL0     H18247   4.325   2.276  10.329 -3.3111  0.6224 -1.0724
  896MOL0     H18248   4.142   2.412  10.558 -2.1247  2.0772 -1.0512
  896MOL0     H18249   4.099   2.296  10.436 -1.6615  1.0320  1.7346
  896MOL0     H18250   4.193   2.569  10.378  2.7807 -0.5777 -3.2448
  896MOL0     H18251   4.148   2.445  10.254  0.9104 -0.1798  0.3410
  896MOL0     H18252   3.976   2.628  10.293 -1.6943 -1.5650 -1.3839
  896MOL0     H18253   3.964   2.586  10.471 -1.5346  0.2735  0.1778
  896MOL0     H18254   4.973   2.128  10.613 -0.8994  0.6771 -0.6742
  896MOL0     H18255   5.225   2.080  10.639  0.0697 -0.0042 -0.2845
  896MOL0     H18256   5.691   2.175  10.272 -3.3224 -2.6464 -1.5947
  896MOL0     H18257   5.907   2.076  10.311  0.7271  1.2014  1.1542
  896MOL0     H18258   7.327   1.083  11.125 -0.3842 -1.4013  0.8712
  896MOL0     H18259   7.569   1.056  11.132  1.8647  0.0107 -0.8682
  896MOL0     H18260   8.021   1.246  11.038 -0.7462  0.0875 -1.2132
  896MOL0     H18261   8.267   1.188  11.031 -1.1546  0.4279  1.4638
  896MOL0     H18262   8.467   1.122  10.951 -2.3007 -1.7171  0.7937
  896MOL0     H18263   8.568   0.985  10.919  1.8148  0.5135  0.4505
  896MOL0     H18264   8.571   1.052  11.150 -1.7461  1.9899 -0.9141
  896MOL0     H18265   8.393   1.040  11.168  0.6039  1.0328  1.1361
  896MOL0     H18266   8.577   0.811  11.078 -0.3566 -1.3344  2.4782
  896MOL0     H18267   8.400   0.804  11.124 -0.8556 -0.0292 -0.3412
  896MOL0     H18268   8.435   0.839  11.350  0.9913 -1.4330 -0.2538
  896MOL0     H18269   8.513   0.698  11.292  1.8113  0.1383  0.5688
  896MOL0     H18270   8.850   0.963  11.381 -0.9649  2.4394 -0.3061
  896MOL0     H18271   8.165   0.809  10.857 -1.0340  0.4709 -2.1616
  896MOL0     H18272   7.932   0.854  10.876  1.7668 -2.5527  0.5444
  897MOL0     O18273   3.947   6.313  11.016  0.6405 -0.1157  0.1412
  897MOL0     C18274   3.884   6.406  10.974  0.9971  0.3397  0.2372
  897MOL0     O18275   3.937   6.510  10.903 -0.5566 -0.5835  0.5587
  897MOL0     C18276   4.066   6.513  10.877  0.3722  0.4469  0.9149
  897MOL0     C18277   4.159   6.552  10.970 -1.1023 -0.2155 -0.5243
  897MOL0     C18278   4.297   6.567  10.928 -0.0151  0.1598 -0.0537
  897MOL0     C18279   4.335   6.535  10.796  0.3993  0.5746  0.2188
  897MOL0     O18280   4.463   6.540  10.738  1.0221  0.2422  0.5773
  897MOL0     C18281   4.576   6.489  10.813  0.0128 -0.2233 -0.0644
  897MOL0     C18282   4.709   6.505  10.740 -0.6534 -0.3699  0.2428
  897MOL0     C18283   4.822   6.433  10.823 -0.4171 -0.0291  0.2745
  897MOL0     C18284   4.951   6.486  10.764 -0.3758 -0.7266 -0.1154
  897MOL0     C18285   5.084   6.422  10.827  0.2033  0.7217 -0.6190
  897MOL0     C18286   5.096   6.272  10.808  0.0785 -0.3082  0.5116
  897MOL0     C18287   5.232   6.216  10.856 -0.0744 -0.0044  0.6722
  897MOL0     C18288   5.242   6.065  10.836 -0.0037  0.2660 -0.1481
  897MOL0     N18289   5.237   6.035  10.690 -0.0066  0.3032  0.4699
  897MOL0     C18290   5.115   6.008  10.629 -0.7768  0.0919 -0.3814
  897MOL0     C18291   5.137   6.015  10.495  1.3615 -0.1665  0.0593
  897MOL0     C18292   5.046   5.986  10.383  0.3549  1.1301  0.1995
  897MOL0     C18293   4.896   5.972  10.418  0.1025  0.3655 -0.4798
  897MOL0     C18294   4.825   5.989  10.286 -0.1863 -0.3269 -0.1399
  897MOL0     C18295   4.677   6.011  10.296 -0.0815  1.0804  0.1160
  897MOL0     O18296   4.613   5.896  10.345  0.2231 -0.1418 -0.5607
  897MOL0     C18297   4.483   5.862  10.330 -0.0832 -0.5369 -0.1390
  897MOL0     C18298   4.446   5.744  10.399 -0.4823  0.2439  0.4993
  897MOL0     C18299   4.315   5.701  10.417 -0.4491  0.2445  0.0328
  897MOL0     C18300   4.208   5.787  10.374  0.4938  0.2696  0.0206
  897MOL0     C18301   4.073   5.771  10.419 -0.2976 -0.2780 -0.1570
  897MOL0     O18302   4.067   5.715  10.554  0.3365  0.4595  0.4340
  897MOL0     C18303   3.952   5.654  10.602  0.9991 -0.6355 -0.7426
  897MOL0     C18304   3.869   5.574  10.518 -0.5906 -0.3198  0.5394
  897MOL0     C18305   3.754   5.526  10.574  0.7615  0.3272 -0.0520
  897MOL0     C18306   3.717   5.550  10.706 -0.5711 -0.6391  0.3867
  897MOL0     O18307   3.605   5.492  10.757  0.1156 -0.1371 -0.2254
  897MOL0     C18308   3.529   5.575  10.850 -0.0450  0.6211  0.5243
  897MOL0     C18309   3.379   5.547  10.847  1.0739 -0.1095 -0.7886
  897MOL0     C18310   3.328   5.572  10.706 -0.4219 -0.1491  0.8238
  897MOL0     C18311   3.175   5.605  10.712 -0.5882 -0.3157 -0.7573
  897MOL0     C18312   3.101   5.572  10.584 -0.1480 -0.2696 -0.2384
  897MOL0     C18313   2.952   5.601  10.588 -0.7267 -0.2732  0.0996
  897MOL0     C18314   2.879   5.555  10.455  0.0652  0.3919  0.7502
  897MOL0     C18315   2.732   5.511  10.480  0.4458 -0.4103  0.3496
  897MOL0    Cl18316   2.746   5.325  10.459 -0.1033 -0.2896  0.3026
  897MOL0     C18317   3.801   5.628  10.781 -0.0088  0.4279 -0.8920
  897MOL0     C18318   3.910   5.684  10.733 -0.2279  0.2956 -0.0891
  897MOL0     O18319   3.981   5.792  10.341  0.0281 -0.3900 -0.6282
  897MOL0     C18320   4.239   5.898  10.300 -0.8690  0.5335  0.1431
  897MOL0     C18321   4.377   5.934  10.273  0.4432 -1.0112  0.3838
  897MOL0     N18322   5.269   6.054  10.480 -0.7828  0.7105  0.0924
  897MOL0     N18323   5.333   6.063  10.592  0.2970 -0.2352 -0.3807
  897MOL0     C18324   4.235   6.507  10.701  0.4963  0.4492 -0.5553
  897MOL0     C18325   4.099   6.501  10.743  0.4385  0.9036 -0.5485
  897MOL0     C18326   3.733   6.414  10.991  0.4230 -1.2308 -0.0003
  897MOL0     C18327   3.657   6.298  10.998  0.3715  0.1062 -0.3709
  897MOL0     C18328   3.515   6.303  11.001 -0.9428 -0.2252  0.4829
  897MOL0     C18329   3.448   6.424  11.008  0.0302 -0.1180 -0.3048
  897MOL0     O18330   3.313   6.446  10.995 -0.0617  0.2168  0.2579
  897MOL0     C18331   3.237   6.323  10.983  0.6534  0.0744  0.2629
  897MOL0     C18332   3.089   6.357  10.979  0.5780 -0.2096  0.2218
  897MOL0     C18333   3.000   6.238  10.979  1.1684 -0.8060 -0.4952
  897MOL0     C18334   2.849   6.286  10.972  0.2236 -0.0748 -0.4211
  897MOL0     C18335   2.758   6.181  10.929  0.3417 -0.4659 -0.1456
  897MOL0     C18336   2.676   6.105  10.903  0.5854 -0.0241  0.3017
  897MOL0     C18337   3.528   6.541  11.010 -0.1300  0.1716  0.0084
  897MOL0     C18338   3.664   6.537  10.993  0.3736 -0.2167 -0.2426
  897MOL0     H18339   4.129   6.587  11.068 -2.8968  0.6402 -1.3403
  897MOL0     H18340   4.375   6.599  10.997  0.2024  3.8245 -1.7528
  897MOL0     H18341   4.556   6.386  10.843  1.7486  0.0855  2.4600
  897MOL0     H18342   4.579   6.543  10.909 -0.3127 -0.4334  0.0677
  897MOL0     H18343   4.734   6.611  10.738  0.4823 -0.5238  2.9203
  897MOL0     H18344   4.703   6.481  10.633 -1.1178  0.9521 -0.0445
  897MOL0     H18345   4.804   6.326  10.810 -2.8913  0.4039 -0.3915
  897MOL0     H18346   4.813   6.452  10.930  2.5772  2.0896  0.2958
  897MOL0     H18347   4.949   6.462  10.657 -0.9342 -1.4356  0.0431
  897MOL0     H18348   4.955   6.594  10.777 -0.3908 -0.2285 -3.5389
  897MOL0     H18349   5.087   6.444  10.934 -0.1632  0.1894 -0.4960
  897MOL0     H18350   5.169   6.470  10.777  2.2471 -3.8720 -2.1209
  897MOL0     H18351   5.082   6.232  10.707  0.8694  0.8585 -0.0944
  897MOL0     H18352   5.019   6.221  10.866  1.8691 -1.3281  2.1055
  897MOL0     H18353   5.304   6.268  10.792  0.6110 -1.2405  0.4136
  897MOL0     H18354   5.248   6.262  10.954  2.1668  2.6898 -0.8057
  897MOL0     H18355   5.166   6.005  10.886  1.6545 -3.8381 -2.0648
  897MOL0     H18356   5.339   6.040  10.879  0.8176 -1.5807 -2.7638
  897MOL0     H18357   5.027   5.998  10.692  0.9546 -4.9566  1.7294
  897MOL0     H18358   5.080   5.896  10.331  1.2094  1.9238 -0.6503
  897MOL0     H18359   5.070   6.056  10.302  1.7579 -1.9651 -2.2921
  897MOL0     H18360   4.870   6.045  10.496  0.8810 -0.4513  0.5847
  897MOL0     H18361   4.890   5.867  10.450 -1.3912 -0.0896 -2.1368
  897MOL0     H18362   4.858   6.075  10.228 -0.8003  0.0415  0.0482
  897MOL0     H18363   4.848   5.896  10.233  0.3824 -0.8824  1.0231
  897MOL0     H18364   4.640   6.025  10.194  0.7692 -2.4140 -0.8089
  897MOL0     H18365   4.651   6.102  10.350  0.3688  2.5356 -1.9583
  897MOL0     H18366   4.521   5.672  10.428  2.7097  2.6847 -1.0808
  897MOL0     H18367   4.299   5.619  10.487 -2.7109  1.4167  0.9964
  897MOL0     H18368   3.888   5.556  10.412 -0.7920  1.3713  0.1929
  897MOL0     H18369   3.680   5.476  10.512 -0.8035 -1.1645  2.7776
  897MOL0     H18370   3.548   5.680  10.827 -0.5926  0.6082 -0.0255
  897MOL0     H18371   3.561   5.552  10.952  1.5146 -0.3867 -0.1601
  897MOL0     H18372   3.326   5.611  10.918  0.2944 -1.3001 -0.2436
  897MOL0     H18373   3.361   5.444  10.880 -0.2186  0.6210  0.9380
  897MOL0     H18374   3.351   5.480  10.651 -0.4236  0.5891 -0.4475
  897MOL0     H18375   3.378   5.642  10.639 -0.5392 -1.0542 -0.2444
  897MOL0     H18376   3.127   5.555  10.796  0.9777  2.2343  1.8241
  897MOL0     H18377   3.168   5.713  10.727  0.9912 -0.2576 -0.2778
  897MOL0     H18378   3.121   5.468  10.559  1.0471  0.2961 -1.8488
  897MOL0     H18379   3.149   5.631  10.505 -0.9334  0.3749 -0.2487
  897MOL0     H18380   2.926   5.705  10.606 -0.6633  0.1079 -1.8364
  897MOL0     H18381   2.905   5.559  10.677 -0.1329 -1.1586  0.0135
  897MOL0     H18382   2.875   5.642  10.390  2.3180  1.7284  2.2511
  897MOL0     H18383   2.935   5.474  10.408 -0.2364  0.1205  0.8476
  897MOL0     H18384   2.657   5.540  10.405 -0.1787 -2.1219  0.2650
  897MOL0     H18385   2.694   5.546  10.576 -0.6366  0.5937 -0.4076
  897MOL0     H18386   3.763   5.650  10.880 -0.2246  1.3843 -1.1786
  897MOL0     H18387   3.968   5.746  10.801 -0.4877 -0.7119  1.0788
  897MOL0     H18388   4.160   5.968  10.272 -0.6727 -0.0712 -2.0984
  897MOL0     H18389   4.401   6.023  10.217  1.2541 -1.5849 -0.1953
  897MOL0     H18390   4.264   6.502  10.597  2.0142 -0.4936 -0.1103
  897MOL0     H18391   4.017   6.497  10.673  0.6751 -1.3906 -0.7660
  897MOL0     H18392   3.707   6.202  10.997  3.5525  1.5328  2.1700
  897MOL0     H18393   3.466   6.206  11.003 -1.8411  0.1917 -0.4272
  897MOL0     H18394   3.267   6.261  11.068  1.0684  0.2400  0.2349
  897MOL0     H18395   3.259   6.276  10.887  0.1137 -0.8083  0.5568
  897MOL0     H18396   3.057   6.431  11.054 -0.8929 -0.9203  0.3404
  897MOL0     H18397   3.077   6.404  10.881 -0.3671  1.2639  1.0053
  897MOL0     H18398   3.014   6.187  11.075  2.6084  1.8583  0.8262
  897MOL0     H18399   3.030   6.175  10.894  0.1530  0.3754 -1.7739
  897MOL0     H18400   2.813   6.340  11.060 -1.6482  1.6078 -2.1020
  897MOL0     H18401   2.840   6.369  10.901  2.3215 -0.2863 -1.0112
  897MOL0     H18402   2.606   6.030  10.875  1.9731 -0.9346 -0.8761
  897MOL0     H18403   3.479   6.637  11.004 -1.7336 -0.6217 -0.1028
  897MOL0     H18404   3.729   6.624  10.998 -1.6988  1.3345  2.9597
  898MOL0     O18405   5.345  10.486   7.561  0.2774  0.0058 -0.2728
  898MOL0     C18406   5.395  10.469   7.451 -0.4459 -0.7199 -1.0689
  898MOL0     O18407   5.331  10.416   7.347  0.1183  0.4335  0.7775
  898MOL0     C18408   5.201  10.373   7.358 -0.4374 -0.3119 -0.1700
  898MOL0     C18409   5.161  10.254   7.319  0.0846  0.4342  0.2251
  898MOL0     C18410   5.036  10.199   7.345 -0.3463  0.0785 -0.2096
  898MOL0     C18411   4.935  10.272   7.413 -0.3257 -1.1718 -0.2021
  898MOL0     O18412   4.818  10.211   7.439  0.4183 -0.0317  0.0914
  898MOL0     C18413   4.719  10.271   7.523  0.2927  0.2716  0.2576
  898MOL0     C18414   4.574  10.222   7.479 -0.4748  1.0187 -0.1252
  898MOL0     C18415   4.468  10.270   7.579  0.3499  0.5799 -0.2056
  898MOL0     C18416   4.326  10.236   7.537 -0.4819  0.9137 -0.2602
  898MOL0     C18417   4.289  10.097   7.587 -1.1255 -0.4652  0.0574
  898MOL0     C18418   4.156  10.049   7.521  0.9323  0.3459  0.2532
  898MOL0     C18419   4.030  10.125   7.572 -0.0452  1.2881  0.3262
  898MOL0     C18420   3.902  10.060   7.512 -0.8439 -0.1313 -0.2581
  898MOL0     N18421   3.893   9.914   7.541 -0.2646 -0.4102 -0.7182
  898MOL0     C18422   3.879   9.870   7.676 -0.3481 -0.2090  0.4504
  898MOL0     C18423   3.861   9.739   7.655  0.0663  0.5679  0.3992
  898MOL0     C18424   3.866   9.643   7.760  1.2239  0.3762  0.5270
  898MOL0     C18425   3.752   9.545   7.759 -0.0059 -0.3601  0.7060
  898MOL0     C18426   3.731   9.486   7.892 -0.2177  0.1955 -0.2226
  898MOL0     C18427   3.596   9.407   7.908  0.1368 -0.0059  0.4784
  898MOL0     O18428   3.476   9.491   7.924 -0.5753 -0.0212  0.1782
  898MOL0     C18429   3.350   9.436   7.934  0.5717  0.9158  1.2883
  898MOL0     C18430   3.316   9.299   7.919  0.0314 -0.9063  0.3134
  898MOL0     C18431   3.183   9.250   7.930 -0.1871  0.1044 -0.1916
  898MOL0     C18432   3.083   9.348   7.960 -0.5423 -0.4816 -0.0663
  898MOL0     C18433   2.946   9.296   7.979 -0.0301  0.6158 -0.2731
  898MOL0     O18434   2.936   9.166   8.023 -0.9105 -1.1141 -0.0019
  898MOL0     C18435   2.814   9.112   8.058  1.0761 -0.0067  0.1263
  898MOL0     C18436   2.772   9.084   8.189 -0.0699  0.3865 -0.0053
  898MOL0     C18437   2.652   9.021   8.217  0.7763 -0.4903  0.3878
  898MOL0     C18438   2.559   8.997   8.107 -0.1893  0.1804  0.4064
  898MOL0     O18439   2.437   8.938   8.124  0.8218 -0.5930  0.4576
  898MOL0     C18440   2.395   8.895   8.257  0.2944  0.4645  0.7316
  898MOL0     C18441   2.267   8.805   8.243 -0.5154 -0.6093 -0.4796
  898MOL0     C18442   2.269   8.681   8.148 -0.0191 -0.0319  0.4437
  898MOL0     C18443   2.398   8.594   8.171 -0.6512  0.6405 -0.5901
  898MOL0     C18444   2.393   8.473   8.081  0.2150  0.3969  0.4459
  898MOL0     C18445   2.516   8.386   8.104  0.1126  0.3923  0.2489
  898MOL0     C18446   2.657   8.451   8.093 -0.0403 -0.6738 -0.3768
  898MOL0     C18447   2.771   8.366   8.142 -0.4925  0.1669 -0.2877
  898MOL0    Cl18448   2.795   8.204   8.054  0.1175  0.2620 -0.5685
  898MOL0     C18449   2.598   9.027   7.972 -0.3130  0.8702 -0.1646
  898MOL0     C18450   2.729   9.078   7.949 -0.3711 -0.5735 -0.0104
  898MOL0     O18451   2.850   9.374   7.978  0.5993 -0.6381  0.3254
  898MOL0     C18452   3.112   9.487   7.969  0.4722 -0.9246 -0.2302
  898MOL0     C18453   3.247   9.523   7.965 -0.0641 -0.3391 -0.1152
  898MOL0     N18454   3.853   9.708   7.515  0.2921  0.6900 -0.8001
  898MOL0     N18455   3.880   9.817   7.449  0.1908  0.3392 -0.3899
  898MOL0     C18456   4.971  10.407   7.438  0.3857 -0.7498  0.0730
  898MOL0     C18457   5.103  10.454   7.413  0.3807  0.1058  0.7286
  898MOL0     C18458   5.538  10.526   7.440  1.4706 -0.1233 -0.2436
  898MOL0     C18459   5.588  10.543   7.312  0.2275  0.0279 -0.8454
  898MOL0     C18460   5.717  10.599   7.299 -0.0653 -0.3333 -0.6698
  898MOL0     C18461   5.806  10.616   7.414  0.2109  0.5907 -0.9630
  898MOL0     O18462   5.938  10.663   7.417  0.5033  0.3543  0.4304
  898MOL0     C18463   5.994  10.693   7.280  0.1146 -0.3619  1.0741
  898MOL0     C18464   6.148  10.716   7.280  0.3104 -0.6968  0.3347
  898MOL0     C18465   6.229  10.627   7.374 -0.8343 -0.2670 -0.7857
  898MOL0     C18466   6.249  10.490   7.315  0.9095 -0.0305 -0.3531
  898MOL0     C18467   6.347  10.404   7.378  0.3798  0.2325 -0.7728
  898MOL0     C18468   6.427  10.335   7.442  0.0760 -0.5758  0.2206
  898MOL0     C18469   5.753  10.588   7.541 -0.7476 -0.0282  0.0176
  898MOL0     C18470   5.618  10.562   7.552 -0.0867 -0.5422 -0.5787
  898MOL0     H18471   5.228  10.183   7.272 -1.4668 -1.2920  0.5212
  898MOL0     H18472   5.020  10.095   7.319  2.2178 -0.4318 -0.0126
  898MOL0     H18473   4.720  10.381   7.518  1.6860  0.2411 -3.2443
  898MOL0     H18474   4.733  10.231   7.623 -2.1653  0.5500  0.7589
  898MOL0     H18475   4.563  10.113   7.478 -2.2301  1.1338  1.3483
  898MOL0     H18476   4.552  10.266   7.381 -1.6965  0.5830 -0.0710
  898MOL0     H18477   4.482  10.377   7.564 -1.3301  0.6693 -1.5069
  898MOL0     H18478   4.493  10.237   7.680  1.8623 -0.2628 -0.8114
  898MOL0     H18479   4.253  10.298   7.591 -0.6017 -1.3255  2.3267
  898MOL0     H18480   4.315  10.253   7.429  0.1591  0.3390 -0.4217
  898MOL0     H18481   4.285  10.096   7.696 -0.7176  1.1629  0.1231
  898MOL0     H18482   4.369  10.025   7.567 -1.0404 -0.5247  0.6042
  898MOL0     H18483   4.147   9.946   7.557  0.4477  0.7565  1.3583
  898MOL0     H18484   4.156  10.043   7.412  1.5141  0.8477  0.2221
  898MOL0     H18485   4.035  10.100   7.678 -1.9068 -2.4051 -0.2737
  898MOL0     H18486   4.037  10.230   7.542  0.6675  1.3645  0.7421
  898MOL0     H18487   3.904  10.077   7.404  1.0038 -0.2046 -0.2665
  898MOL0     H18488   3.813  10.113   7.546 -0.1152  2.1357 -1.6404
  898MOL0     H18489   3.890   9.915   7.774 -1.3652  1.4625 -0.1541
  898MOL0     H18490   3.867   9.701   7.852  1.0541 -0.8556  1.3319
  898MOL0     H18491   3.960   9.587   7.759  2.4500  2.3549 -0.3158
  898MOL0     H18492   3.783   9.462   7.695 -2.5672 -1.1643  0.4095
  898MOL0     H18493   3.662   9.596   7.724  0.2129  0.9767  1.9656
  898MOL0     H18494   3.815   9.416   7.906 -0.6955 -0.1559  1.0146
  898MOL0     H18495   3.740   9.559   7.973 -1.3565 -1.2700  1.3059
  898MOL0     H18496   3.600   9.338   7.993 -0.7315  0.8084  1.1991
  898MOL0     H18497   3.585   9.349   7.816  2.4974  0.0939  0.0597
  898MOL0     H18498   3.390   9.232   7.876  0.1851 -1.6015  1.6254
  898MOL0     H18499   3.150   9.148   7.912 -0.3452  0.1551 -0.1891
  898MOL0     H18500   2.844   9.099   8.269 -1.0838 -2.6455  1.6346
  898MOL0     H18501   2.622   9.000   8.320 -0.6408 -3.7402 -0.5514
  898MOL0     H18502   2.378   8.973   8.332 -0.1498 -1.2900  2.5093
  898MOL0     H18503   2.467   8.825   8.299 -0.3768 -0.0018  1.1166
  898MOL0     H18504   2.192   8.870   8.196  1.2535  0.8180 -1.4604
  898MOL0     H18505   2.234   8.785   8.345  0.9025 -0.2534  0.0755
  898MOL0     H18506   2.265   8.716   8.044  0.5772 -0.3694  0.3057
  898MOL0     H18507   2.183   8.615   8.162 -0.0905 -0.4389 -1.6040
  898MOL0     H18508   2.484   8.654   8.140  0.0607 -0.3619 -0.6037
  898MOL0     H18509   2.415   8.556   8.272 -0.2622  2.9272  0.2733
  898MOL0     H18510   2.385   8.504   7.977  2.2766 -3.0067 -0.8820
  898MOL0     H18511   2.311   8.405   8.108  1.2517 -0.1899  2.3020
  898MOL0     H18512   2.518   8.298   8.039  0.9082  0.5169  0.0949
  898MOL0     H18513   2.517   8.336   8.202  2.1251 -3.6350 -1.5784
  898MOL0     H18514   2.676   8.481   7.990  3.8715 -2.3942 -0.3371
  898MOL0     H18515   2.663   8.543   8.151 -1.6175 -1.8459  1.8009
  898MOL0     H18516   2.753   8.338   8.246 -0.0254 -3.6194 -1.0907
  898MOL0     H18517   2.861   8.427   8.146 -1.5416  1.6994  2.1417
  898MOL0     H18518   2.533   9.018   7.885 -2.2822  2.9009  0.9947
  898MOL0     H18519   2.761   9.109   7.850 -0.5235 -1.1512 -0.2420
  898MOL0     H18520   3.038   9.565   7.984  0.9997 -0.8844  2.6287
  898MOL0     H18521   3.267   9.629   7.970 -1.0445 -0.1730  0.8081
  898MOL0     H18522   4.895  10.478   7.470 -0.7735 -0.4343 -2.9805
  898MOL0     H18523   5.119  10.556   7.448 -0.1140 -0.3546  2.3788
  898MOL0     H18524   5.531  10.528   7.221 -2.5321 -0.3864  0.8619
  898MOL0     H18525   5.763  10.623   7.203  0.9998 -0.1644 -0.1343
  898MOL0     H18526   5.950  10.784   7.239  2.4140 -0.9815 -3.3358
  898MOL0     H18527   5.974  10.611   7.210 -1.1375  0.2746  0.6556
  898MOL0     H18528   6.180  10.707   7.175 -0.6245  1.4867 -0.1882
  898MOL0     H18529   6.162  10.821   7.308  1.2258 -1.1560  1.6962
  898MOL0     H18530   6.179  10.608   7.469  0.6873 -0.3543  0.0332
  898MOL0     H18531   6.324  10.682   7.383 -1.1601  0.1757  0.0276
  898MOL0     H18532   6.156  10.434   7.322  0.0698  1.2964 -0.4741
  898MOL0     H18533   6.277  10.500   7.210 -0.7588  1.6935 -0.7104
  898MOL0     H18534   6.503  10.278   7.492 -0.2983 -1.3901 -0.1045
  898MOL0     H18535   5.829  10.607   7.616  0.7708 -1.5260 -1.0590
  898MOL0     H18536   5.571  10.568   7.650  1.2274 -0.4617  0.0612
  899MOL0     O18537  10.668   0.793  10.028  0.0002  0.1988  0.2029
  899MOL0     C18538  10.692   0.881   9.947  0.2578  0.5919  0.2730
  899MOL0     O18539  10.606   0.943   9.864 -0.4955  0.1235 -0.0144
  899MOL0     C18540  10.490   0.894   9.816  0.1344  0.4878  0.8631
  899MOL0     C18541  10.424   0.775   9.845  0.4736 -0.6686  0.3769
  899MOL0     C18542  10.295   0.736   9.796 -0.4376  0.3318  0.6143
  899MOL0     C18543  10.228   0.827   9.711  0.0785  0.3278 -0.2865
  899MOL0     O18544  10.102   0.808   9.654  0.3670 -0.3999 -0.5737
  899MOL0     C18545  10.008   0.702   9.690 -0.0820  0.2219 -0.4748
  899MOL0     C18546   9.877   0.751   9.653  0.3871  0.5270 -0.0144
  899MOL0     C18547   9.785   0.645   9.709  0.5280 -0.7430 -0.4862
  899MOL0     C18548   9.638   0.684   9.667 -0.0836 -0.1868 -0.7236
  899MOL0     C18549   9.556   0.561   9.701  0.1898 -0.9020 -0.7810
  899MOL0     C18550   9.412   0.578   9.681 -1.2949 -0.0854 -0.1960
  899MOL0     C18551   9.351   0.686   9.773  0.0187  0.6884  0.3367
  899MOL0     C18552   9.204   0.693   9.732 -0.4603 -0.2263  0.0563
  899MOL0     N18553   9.190   0.763   9.608  0.1718 -0.6250 -0.6595
  899MOL0     C18554   9.154   0.701   9.490 -0.0764 -0.1244  0.2382
  899MOL0     C18555   9.135   0.804   9.398  0.1547 -0.1368 -1.2333
  899MOL0     C18556   9.094   0.780   9.260 -0.2261  0.8191  0.7909
  899MOL0     C18557   8.944   0.739   9.255  0.1296 -0.3270  0.7370
  899MOL0     C18558   8.847   0.830   9.332 -0.5016 -0.3694  1.1639
  899MOL0     C18559   8.705   0.820   9.272 -0.1198  0.5409 -0.8740
  899MOL0     O18560   8.624   0.903   9.350 -0.2670 -0.0899 -0.4430
  899MOL0     C18561   8.491   0.895   9.309 -0.1957  0.2946  0.0930
  899MOL0     C18562   8.447   0.995   9.219  0.2786  0.7741 -0.5492
  899MOL0     C18563   8.319   0.989   9.165  0.1636 -0.7630 -0.1375
  899MOL0     C18564   8.228   0.893   9.212  0.5192 -0.3863  0.0744
  899MOL0     C18565   8.082   0.917   9.191 -0.0987  0.0336  0.8425
  899MOL0     O18566   8.050   1.009   9.098 -0.4972 -0.3168  0.3667
  899MOL0     C18567   7.920   1.039   9.081 -0.2650 -0.1170 -1.1191
  899MOL0     C18568   7.879   1.161   9.121 -0.0210  0.2017  0.5734
  899MOL0     C18569   7.746   1.208   9.103 -0.9166 -1.1979 -0.5127
  899MOL0     C18570   7.656   1.131   9.030 -0.0797  0.3463 -0.2719
  899MOL0     O18571   7.538   1.192   9.006  0.1939  0.1725  0.7481
  899MOL0     C18572   7.454   1.129   8.907 -0.2903  0.1837 -0.0300
  899MOL0     C18573   7.330   1.206   8.845 -0.0074 -0.0580  0.3766
  899MOL0     C18574   7.390   1.334   8.781  0.2279 -0.0041 -0.2316
  899MOL0     C18575   7.290   1.425   8.707  1.1741 -0.4786  0.3135
  899MOL0     C18576   7.278   1.397   8.548 -0.1597 -0.3967  0.4992
  899MOL0     C18577   7.175   1.471   8.466  0.0174 -0.1064  0.2537
  899MOL0     C18578   7.213   1.443   8.321 -0.3470 -0.8450 -0.2077
  899MOL0     C18579   7.123   1.515   8.221 -0.0279 -0.3157  0.1467
  899MOL0    Cl18580   7.076   1.679   8.271 -0.2339  0.1543  0.1434
  899MOL0     C18581   7.691   1.003   8.981 -0.2571 -0.5441  0.5795
  899MOL0     C18582   7.824   0.965   9.013  0.6877  1.0431 -0.4503
  899MOL0     O18583   7.998   0.861   9.273 -0.3029 -0.3722  0.3810
  899MOL0     C18584   8.271   0.794   9.306  0.3766 -0.3921  0.9078
  899MOL0     C18585   8.402   0.795   9.342 -0.3965  0.5398 -0.1447
  899MOL0     N18586   9.142   0.922   9.465  0.1347  0.0514 -0.0910
  899MOL0     N18587   9.175   0.900   9.589 -0.0374  0.0598 -0.1754
  899MOL0     C18588  10.294   0.951   9.687 -0.1265  0.1495  0.2662
  899MOL0     C18589  10.428   0.979   9.726  0.0544  0.2938  0.1798
  899MOL0     C18590  10.835   0.918   9.924 -0.0838 -0.5434 -0.2181
  899MOL0     C18591  10.879   1.024   9.847  0.2962 -0.8486  0.9517
  899MOL0     C18592  11.010   1.064   9.840 -0.3950 -0.1106 -0.6001
  899MOL0     C18593  11.113   0.987   9.908 -0.6199 -0.9270 -0.3745
  899MOL0     O18594  11.241   1.039   9.904 -0.2931 -0.0718  0.3859
  899MOL0     C18595  11.347   0.960   9.957  0.1979 -0.3159 -0.7856
  899MOL0     C18596  11.480   1.027   9.920 -0.0856  0.7823  0.7321
  899MOL0     C18597  11.600   0.936   9.962 -0.0211  0.4404 -0.2318
  899MOL0     C18598  11.622   0.808   9.878 -0.9813  0.2156 -0.0805
  899MOL0     C18599  11.729   0.725   9.940 -0.4545 -0.7078  0.2317
  899MOL0     C18600  11.814   0.654   9.986 -0.7118 -0.0809 -0.4351
  899MOL0     C18601  11.068   0.887   9.987  0.0105  0.1969  0.3978
  899MOL0     C18602  10.937   0.845   9.992  0.8631 -0.0291 -0.5681
  899MOL0     H18603  10.470   0.707   9.915 -0.1037 -1.6248 -0.1437
  899MOL0     H18604  10.253   0.640   9.822 -0.6568  0.0533 -0.6944
  899MOL0     H18605  10.008   0.689   9.798  1.0229  3.0215 -0.0344
  899MOL0     H18606  10.034   0.613   9.632  1.5471 -0.4079  1.1189
  899MOL0     H18607   9.873   0.741   9.544  2.2213 -1.6071  0.0386
  899MOL0     H18608   9.856   0.852   9.690 -1.2510 -0.7106  2.7488
  899MOL0     H18609   9.791   0.641   9.818 -0.7917 -0.1792 -0.3783
  899MOL0     H18610   9.811   0.552   9.656  0.4542 -1.5066  0.7795
  899MOL0     H18611   9.598   0.772   9.719 -0.2931 -1.4802  1.4137
  899MOL0     H18612   9.646   0.701   9.560 -2.6723 -0.8580 -1.0846
  899MOL0     H18613   9.567   0.544   9.808 -1.1243  1.0895 -0.3024
  899MOL0     H18614   9.591   0.473   9.645  4.4002  0.3171 -0.4757
  899MOL0     H18615   9.365   0.484   9.711  0.9787 -1.3596 -0.4035
  899MOL0     H18616   9.393   0.596   9.574 -0.7831  1.2000 -0.0932
  899MOL0     H18617   9.359   0.636   9.871 -0.2009  2.0918  1.0887
  899MOL0     H18618   9.393   0.786   9.767 -0.7375  1.0466  0.8451
  899MOL0     H18619   9.147   0.746   9.810 -3.3242 -1.3679 -1.1073
  899MOL0     H18620   9.165   0.591   9.727  0.1646 -0.4062 -1.5134
  899MOL0     H18621   9.138   0.596   9.468 -3.9087 -0.3896  3.2520
  899MOL0     H18622   9.157   0.697   9.226 -1.5206 -0.7435  2.0473
  899MOL0     H18623   9.108   0.870   9.198 -0.1950  0.1562 -0.1871
  899MOL0     H18624   8.932   0.636   9.290  0.2362 -0.2058  1.1355
  899MOL0     H18625   8.924   0.744   9.147 -1.4786  0.9843  1.0584
  899MOL0     H18626   8.840   0.795   9.435  0.9129 -0.5269  1.2294
  899MOL0     H18627   8.884   0.933   9.330  1.2705 -0.9545 -1.2515
  899MOL0     H18628   8.681   0.714   9.282  0.5725  0.1455 -3.0511
  899MOL0     H18629   8.699   0.852   9.168 -0.3605 -1.4885 -1.5186
  899MOL0     H18630   8.523   1.064   9.186  3.1742 -1.7042  0.5214
  899MOL0     H18631   8.300   1.051   9.078  0.9907  0.6763  0.6923
  899MOL0     H18632   7.951   1.234   9.159 -1.4545  1.5089  0.8682
  899MOL0     H18633   7.714   1.307   9.133 -0.2317 -0.6757 -1.4246
  899MOL0     H18634   7.426   1.032   8.948  0.2101  0.6691  1.5363
  899MOL0     H18635   7.514   1.099   8.821 -3.2016 -1.4971 -1.6134
  899MOL0     H18636   7.261   1.229   8.927 -1.4047  0.8667 -0.9947
  899MOL0     H18637   7.276   1.148   8.770 -0.3544 -0.2036  0.7386
  899MOL0     H18638   7.469   1.307   8.710  1.3459 -0.9268  1.3036
  899MOL0     H18639   7.439   1.397   8.856  2.7681  0.8825 -2.4602
  899MOL0     H18640   7.191   1.417   8.754  0.9474  1.1583  0.1931
  899MOL0     H18641   7.325   1.527   8.727  0.1664 -0.2747  1.1335
  899MOL0     H18642   7.270   1.288   8.540  1.5465 -0.6327  1.5240
  899MOL0     H18643   7.379   1.431   8.524  0.4810 -1.8568  1.0065
  899MOL0     H18644   7.179   1.578   8.489  1.3506 -0.4805  2.0413
  899MOL0     H18645   7.074   1.435   8.486  0.8715 -2.3858  0.7414
  899MOL0     H18646   7.314   1.478   8.298 -0.4261  0.6040  1.4513
  899MOL0     H18647   7.207   1.336   8.301  0.0759 -0.6595 -1.4188
  899MOL0     H18648   7.028   1.470   8.190  0.9513 -2.3398 -0.0978
  899MOL0     H18649   7.181   1.524   8.128  1.5000  1.7593  1.2151
  899MOL0     H18650   7.639   0.935   8.914  0.1697 -0.3244  0.0076
  899MOL0     H18651   7.854   0.878   8.956 -0.3298  1.8183 -2.2498
  899MOL0     H18652   8.201   0.716   9.334  1.1055 -1.2297  0.4580
  899MOL0     H18653   8.444   0.730   9.418  0.4823  0.9852 -0.2306
  899MOL0     H18654  10.234   1.024   9.634 -0.8441  1.0035  2.1568
  899MOL0     H18655  10.479   1.069   9.692 -3.1166  1.9471 -0.6105
  899MOL0     H18656  10.809   1.077   9.784  1.0784 -0.4638  0.3886
  899MOL0     H18657  11.055   1.139   9.776  1.5467 -0.3342  0.4302
  899MOL0     H18658  11.335   0.862   9.909  2.2252 -0.2073 -1.6696
  899MOL0     H18659  11.341   0.948  10.065  0.6032 -0.1921 -0.7479
  899MOL0     H18660  11.485   1.040   9.811  0.6182 -0.2882  0.6225
  899MOL0     H18661  11.474   1.120   9.977  1.2670  1.7009 -0.5444
  899MOL0     H18662  11.591   0.908  10.067  0.3727  0.4666 -0.1915
  899MOL0     H18663  11.693   0.993   9.954  2.1888 -2.8572  0.3220
  899MOL0     H18664  11.532   0.746   9.878  0.7411 -2.4420 -1.2234
  899MOL0     H18665  11.630   0.831   9.771  1.0622 -1.3099 -0.3100
  899MOL0     H18666  11.896   0.596  10.024  1.6942  2.6843 -1.1093
  899MOL0     H18667  11.136   0.827  10.047 -0.0143  1.9730  2.3591
  899MOL0     H18668  10.915   0.750  10.038  1.5892  0.6027  1.1689
  900MOL0     O18669   6.226   1.729   7.652 -0.6143 -0.1821 -0.6350
  900MOL0     C18670   6.247   1.606   7.628 -0.3462  0.7131 -0.7757
  900MOL0     O18671   6.165   1.525   7.565 -0.3752 -0.0369 -0.3592
  900MOL0     C18672   6.054   1.583   7.519  0.4738 -0.1870  0.4324
  900MOL0     C18673   5.952   1.621   7.607 -1.2799  0.1451  0.2217
  900MOL0     C18674   5.836   1.690   7.564  0.2924 -0.4649  0.2332
  900MOL0     C18675   5.825   1.730   7.432  0.4974  0.1363  1.4877
  900MOL0     O18676   5.712   1.808   7.395 -0.0149 -0.2142  0.0798
  900MOL0     C18677   5.678   1.820   7.256  1.3107 -0.0736  0.7572
  900MOL0     C18678   5.562   1.916   7.238  1.0389 -0.4115 -0.1096
  900MOL0     C18679   5.433   1.856   7.287  0.5497 -0.3317 -0.2735
  900MOL0     C18680   5.321   1.958   7.283  0.6364  0.1024 -0.0404
  900MOL0     C18681   5.184   1.888   7.308  0.0502  1.0643 -0.4977
  900MOL0     C18682   5.070   1.967   7.263 -0.0602 -0.7701 -0.0176
  900MOL0     C18683   4.937   1.901   7.301  0.9897  1.3332  0.5347
  900MOL0     C18684   4.827   2.011   7.310  0.2153 -0.3153  1.6287
  900MOL0     N18685   4.696   1.955   7.307 -0.5286  0.2459 -0.2299
  900MOL0     C18686   4.604   1.953   7.204  0.2224 -0.6015 -0.1686
  900MOL0     C18687   4.489   1.906   7.255  0.1546 -0.0120  1.0060
  900MOL0     C18688   4.372   1.884   7.157 -0.5772  0.0569 -0.3242
  900MOL0     C18689   4.236   1.930   7.210  0.3812  0.1866 -0.9877
  900MOL0     C18690   4.124   1.903   7.114 -0.3554  0.0978  0.3269
  900MOL0     C18691   4.003   1.998   7.125 -1.0220  0.3322 -1.0042
  900MOL0     O18692   3.931   1.964   7.005  0.2622 -0.5120 -0.0511
  900MOL0     C18693   3.811   2.030   6.977  0.4714  0.0545 -0.0803
  900MOL0     C18694   3.742   2.111   7.064 -0.5412  0.1712 -0.5582
  900MOL0     C18695   3.613   2.158   7.040 -0.3742  0.0051 -0.7707
  900MOL0     C18696   3.541   2.106   6.932  1.0394 -0.9987 -0.6215
  900MOL0     C18697   3.395   2.143   6.916 -0.1214 -0.7690 -0.1830
  900MOL0     O18698   3.342   2.102   6.793 -0.0818 -0.6026  0.2228
  900MOL0     C18699   3.212   2.143   6.765 -0.8417 -0.0219  0.0250
  900MOL0     C18700   3.101   2.096   6.833  0.7714 -0.2535 -0.4327
  900MOL0     C18701   2.972   2.140   6.793  0.1137 -0.9578  0.1863
  900MOL0     C18702   2.961   2.226   6.682 -0.1712 -0.3046  0.5012
  900MOL0     O18703   2.837   2.272   6.641 -0.4923 -0.4190 -0.4737
  900MOL0     C18704   2.832   2.415   6.612  0.5412  0.3892 -0.2344
  900MOL0     C18705   2.691   2.435   6.565 -0.3994 -0.9791  0.0860
  900MOL0     C18706   2.670   2.578   6.508 -0.7363  0.1176  0.2062
  900MOL0     C18707   2.521   2.605   6.495  0.5575  0.3968 -0.3175
  900MOL0     C18708   2.487   2.733   6.402 -0.3216  0.3663 -0.5330
  900MOL0     C18709   2.347   2.788   6.416  0.3133 -0.7512 -0.1491
  900MOL0     C18710   2.333   2.926   6.350  0.0949 -0.0934  1.0267
  900MOL0     C18711   2.192   2.977   6.370  0.6092 -0.2554  0.1252
  900MOL0    Cl18712   2.172   3.131   6.297 -0.0653  0.1103 -0.2710
  900MOL0     C18713   3.075   2.274   6.613 -0.6800  0.5368  0.3710
  900MOL0     C18714   3.198   2.231   6.654 -0.1156 -0.1107  0.7596
  900MOL0     O18715   3.338   2.206   7.010 -0.4111 -0.1408  0.2909
  900MOL0     C18716   3.608   2.022   6.845  0.6026 -0.4579  0.7554
  900MOL0     C18717   3.732   1.982   6.868 -0.3460 -0.8079 -0.1376
  900MOL0     N18718   4.494   1.868   7.385 -0.0949  0.2632  0.0681
  900MOL0     N18719   4.617   1.904   7.410 -0.3615 -0.0597  0.2461
  900MOL0     C18720   5.927   1.686   7.339 -0.2267 -0.8255 -0.8000
  900MOL0     C18721   6.044   1.617   7.384  0.1950  0.5652 -0.4393
  900MOL0     C18722   6.387   1.554   7.656 -0.1468 -0.3693  0.5946
  900MOL0     C18723   6.480   1.640   7.724 -0.0151  0.1899 -0.1387
  900MOL0     C18724   6.614   1.599   7.741 -0.8203  0.3817  0.5054
  900MOL0     C18725   6.664   1.486   7.672 -0.3105  0.4664  0.2299
  900MOL0     O18726   6.795   1.446   7.665  0.5968 -0.4903 -0.1306
  900MOL0     C18727   6.907   1.531   7.701  0.4072  1.0820 -0.4997
  900MOL0     C18728   6.922   1.544   7.846  0.1579  0.1043 -0.0671
  900MOL0     C18729   6.936   1.702   7.896  0.1480 -0.0031 -0.2204
  900MOL0     C18730   7.038   1.773   7.804  0.1969  0.2343 -0.6002
  900MOL0     C18731   7.172   1.721   7.829 -0.2199  0.2162  0.0738
  900MOL0     C18732   7.273   1.659   7.856  0.0332  0.4978  0.1167
  900MOL0     C18733   6.573   1.404   7.600  0.4594  0.1207 -0.2183
  900MOL0     C18734   6.436   1.430   7.601 -0.5179 -0.1656  0.2467
  900MOL0     H18735   5.971   1.608   7.714 -0.3776 -1.0478 -0.0647
  900MOL0     H18736   5.764   1.724   7.637 -0.6202 -0.4956 -0.6365
  900MOL0     H18737   5.652   1.722   7.217  1.7891 -0.2686  0.9214
  900MOL0     H18738   5.757   1.857   7.190  0.5181 -1.9635 -1.3670
  900MOL0     H18739   5.560   1.931   7.129  0.8530 -0.6589 -0.1400
  900MOL0     H18740   5.573   2.015   7.283 -1.8529 -0.1248  0.1428
  900MOL0     H18741   5.444   1.817   7.388 -0.1732 -1.4520 -0.6055
  900MOL0     H18742   5.407   1.771   7.223  0.2930 -0.0957 -0.4880
  900MOL0     H18743   5.324   2.045   7.349 -3.8152  0.7138 -0.3288
  900MOL0     H18744   5.310   1.986   7.177 -1.4623  1.2075  0.4351
  900MOL0     H18745   5.175   1.869   7.415 -0.9150  2.2767 -0.3413
  900MOL0     H18746   5.177   1.789   7.263 -1.4118  1.5804 -1.4967
  900MOL0     H18747   5.077   1.989   7.156 -0.3278  0.5871  0.2248
  900MOL0     H18748   5.062   2.063   7.314 -0.9625 -0.4671 -0.6882
  900MOL0     H18749   4.903   1.827   7.228 -0.1336  0.5186  1.8299
  900MOL0     H18750   4.949   1.850   7.397 -4.9467 -1.1287  0.3921
  900MOL0     H18751   4.841   2.078   7.224 -1.0044 -0.7474  1.0771
  900MOL0     H18752   4.844   2.085   7.388  2.0426 -0.3497  1.3207
  900MOL0     H18753   4.623   1.977   7.100 -0.5827 -1.5674 -0.5562
  900MOL0     H18754   4.370   1.780   7.126  1.3274  0.4353 -1.9142
  900MOL0     H18755   4.397   1.936   7.064  1.2714 -0.5784 -0.2201
  900MOL0     H18756   4.239   2.039   7.216 -1.3070  0.2003  0.6558
  900MOL0     H18757   4.209   1.878   7.303  2.2841 -1.0982 -1.0865
  900MOL0     H18758   4.155   1.913   7.010  1.4812  0.3149  0.8581
  900MOL0     H18759   4.108   1.795   7.120 -1.7005  0.3642  2.3310
  900MOL0     H18760   4.035   2.102   7.129  0.8009 -0.2182 -0.1644
  900MOL0     H18761   3.945   1.977   7.215 -0.0476  0.0847 -0.4162
  900MOL0     H18762   3.794   2.142   7.154 -1.3983 -2.7408  1.0776
  900MOL0     H18763   3.568   2.235   7.103 -0.4886 -0.6423 -0.0483
  900MOL0     H18764   3.106   2.033   6.921 -3.7252 -0.9503 -0.4450
  900MOL0     H18765   2.883   2.112   6.848  0.6724  1.2803  2.4703
  900MOL0     H18766   2.904   2.446   6.536 -0.8285 -0.8540 -2.1354
  900MOL0     H18767   2.843   2.480   6.700 -2.2334  3.6532 -2.0611
  900MOL0     H18768   2.629   2.419   6.653 -0.9616  0.9304  0.0636
  900MOL0     H18769   2.664   2.361   6.489  1.3751 -0.1517 -1.4379
  900MOL0     H18770   2.719   2.586   6.411  0.7487 -1.1849  0.8067
  900MOL0     H18771   2.722   2.655   6.566  1.1269 -0.5447 -0.5163
  900MOL0     H18772   2.470   2.521   6.446  0.1845  0.3161  0.2062
  900MOL0     H18773   2.486   2.623   6.597 -0.6428 -1.1191 -0.4215
  900MOL0     H18774   2.489   2.697   6.299  1.0695  0.3087 -0.5047
  900MOL0     H18775   2.560   2.811   6.425  0.9112 -0.5059 -1.3668
  900MOL0     H18776   2.318   2.802   6.521  1.7861  5.2946 -0.2128
  900MOL0     H18777   2.280   2.712   6.374 -1.6138 -1.6087  3.9496
  900MOL0     H18778   2.399   2.990   6.409  0.2788 -2.1751  3.2554
  900MOL0     H18779   2.353   2.923   6.243 -4.9475 -0.1331 -0.1923
  900MOL0     H18780   2.174   2.976   6.478  2.2549  3.2601  0.5566
  900MOL0     H18781   2.122   2.902   6.332 -0.7176  0.8738  0.2587
  900MOL0     H18782   3.079   2.324   6.517 -1.6485  1.0271  0.5674
  900MOL0     H18783   3.293   2.264   6.612  0.7314 -1.7566  1.2938
  900MOL0     H18784   3.560   1.973   6.761  0.6324  0.6770  0.0437
  900MOL0     H18785   3.791   1.919   6.802  2.5638  0.4029  1.1602
  900MOL0     H18786   5.918   1.714   7.234 -2.3658 -1.2500 -0.7705
  900MOL0     H18787   6.125   1.592   7.317  0.7584 -1.4736  0.8755
  900MOL0     H18788   6.440   1.726   7.776 -1.7786 -2.0923  2.5491
  900MOL0     H18789   6.681   1.667   7.793  0.9310  2.5334 -4.0837
  900MOL0     H18790   6.874   1.623   7.652 -0.8214  0.9488  0.0403
  900MOL0     H18791   6.990   1.487   7.645 -2.2654 -0.8374 -3.2911
  900MOL0     H18792   6.834   1.498   7.891 -0.5765  0.9395 -0.6110
  900MOL0     H18793   7.011   1.486   7.869 -0.6220 -0.4098  1.8499
  900MOL0     H18794   6.963   1.704   8.002 -1.5501  0.9976  0.2224
  900MOL0     H18795   6.839   1.748   7.878  0.4130 -0.5864 -4.2352
  900MOL0     H18796   7.014   1.758   7.698 -2.0582 -2.4576  0.1755
  900MOL0     H18797   7.037   1.880   7.827 -2.0684  0.2352 -0.4498
  900MOL0     H18798   7.361   1.599   7.860 -0.0204  0.1899 -1.9898
  900MOL0     H18799   6.618   1.318   7.551 -0.9473 -0.7585 -0.0193
  900MOL0     H18800   6.371   1.365   7.543  0.8194 -4.7287  3.3466
  901MOL0     O18801   8.588   5.405   7.408  0.6668  0.1290  0.2226
  901MOL0     C18802   8.633   5.325   7.324  0.7757  1.3564  0.2599
  901MOL0     O18803   8.570   5.208   7.284  0.0012  0.5935 -0.6959
  901MOL0     C18804   8.448   5.161   7.341  0.2644  0.0503 -0.3784
  901MOL0     C18805   8.349   5.248   7.389  0.0877 -0.9524 -0.6563
  901MOL0     C18806   8.234   5.201   7.451  0.2121 -0.0936  0.3446
  901MOL0     C18807   8.218   5.064   7.459 -0.5659  0.1744 -0.4414
  901MOL0     O18808   8.105   5.032   7.527 -0.5337  0.6020  0.3240
  901MOL0     C18809   8.044   4.902   7.513  0.0291  0.8209  0.9218
  901MOL0     C18810   7.916   4.924   7.585  0.4062  0.2046 -0.0648
  901MOL0     C18811   7.825   4.794   7.607  0.1638 -0.9416  0.3761
  901MOL0     C18812   7.813   4.716   7.470 -0.3216 -0.1283  0.7249
  901MOL0     C18813   7.689   4.632   7.446  0.1775 -0.3932 -0.6291
  901MOL0     C18814   7.686   4.515   7.538 -0.3896  0.1873 -1.3809
  901MOL0     C18815   7.555   4.437   7.533  0.4023 -0.1689 -0.2769
  901MOL0     C18816   7.554   4.327   7.633  0.0062 -0.0899 -0.6026
  901MOL0     N18817   7.419   4.258   7.620  0.2200 -0.6018 -0.6784
  901MOL0     C18818   7.302   4.311   7.677  0.3814  0.8047  0.7172
  901MOL0     C18819   7.211   4.215   7.646  0.1004 -0.7127  0.6586
  901MOL0     C18820   7.072   4.224   7.704  0.4056  1.1065 -0.2158
  901MOL0     C18821   6.960   4.163   7.603  0.2651 -0.0509 -0.9111
  901MOL0     C18822   6.827   4.211   7.655  0.7977  0.0751 -0.2520
  901MOL0     C18823   6.711   4.176   7.565 -0.2131 -0.4379 -0.0110
  901MOL0     O18824   6.664   4.048   7.590 -0.5024 -0.1647 -0.0572
  901MOL0     C18825   6.575   3.987   7.501  0.3009  0.5720 -0.2922
  901MOL0     C18826   6.546   3.853   7.520 -0.0968 -0.6102  0.6548
  901MOL0     C18827   6.451   3.792   7.441  0.1566 -0.1536  0.2619
  901MOL0     C18828   6.399   3.866   7.328 -0.3054 -0.2882 -0.1547
  901MOL0     C18829   6.296   3.789   7.243 -0.0483 -0.2358  0.2201
  901MOL0     O18830   6.238   3.878   7.151  0.6303  0.0856  0.6414
  901MOL0     C18831   6.150   3.826   7.063  0.3869  0.4472 -0.5111
  901MOL0     C18832   6.006   3.838   7.084 -0.0718  0.3352 -0.0373
  901MOL0     C18833   5.919   3.799   6.982  0.3910  0.2866 -0.7993
  901MOL0     C18834   5.963   3.745   6.865 -0.3281 -0.6195  0.6479
  901MOL0     O18835   5.867   3.715   6.777  0.5697 -0.4155 -0.2659
  901MOL0     C18836   5.893   3.617   6.667 -0.0261 -0.5757 -0.5485
  901MOL0     C18837   5.761   3.617   6.576 -0.0547 -0.6029 -0.3715
  901MOL0     C18838   5.766   3.729   6.463  0.7633  0.2422 -0.0145
  901MOL0     C18839   5.663   3.691   6.347 -0.3158  0.3749  0.5406
  901MOL0     C18840   5.636   3.818   6.254  0.7888 -0.3522 -0.6517
  901MOL0     C18841   5.770   3.882   6.193 -0.0268  1.1156 -0.3362
  901MOL0     C18842   5.870   3.794   6.116  0.2714  0.2681 -0.2772
  901MOL0     C18843   5.799   3.715   6.001  0.1427  0.1835  0.2179
  901MOL0    Cl18844   5.939   3.612   5.937 -0.3010 -0.0693 -0.3255
  901MOL0     C18845   6.109   3.729   6.847 -0.0151 -0.1299 -0.6597
  901MOL0     C18846   6.200   3.773   6.942  0.5516  0.8113 -0.0488
  901MOL0     O18847   6.262   3.674   7.264 -0.6718  0.5601 -0.1183
  901MOL0     C18848   6.430   4.002   7.312  0.3371  0.3528 -0.0519
  901MOL0     C18849   6.514   4.062   7.408 -0.0086  0.0339  0.0194
  901MOL0     N18850   7.275   4.119   7.567  0.4025  0.5754 -0.0829
  901MOL0     N18851   7.394   4.146   7.550  0.0714  0.5728 -0.8112
  901MOL0     C18852   8.321   4.979   7.412  0.4054  0.6627 -0.5543
  901MOL0     C18853   8.433   5.029   7.340 -0.7820  1.0207 -0.4515
  901MOL0     C18854   8.772   5.343   7.274  1.7912 -0.7686  0.2748
  901MOL0     C18855   8.863   5.428   7.340  0.4480  0.1852 -0.4732
  901MOL0     C18856   8.982   5.457   7.281 -0.7414 -1.1713 -0.8050
  901MOL0     C18857   9.029   5.392   7.165 -0.8058 -0.0467  0.5039
  901MOL0     O18858   9.161   5.405   7.112  0.3039 -0.3577  0.0823
  901MOL0     C18859   9.236   5.523   7.147  0.6464 -0.1813 -0.0053
  901MOL0     C18860   9.356   5.554   7.055  0.8253 -0.4499 -0.7668
  901MOL0     C18861   9.418   5.682   7.117 -1.2955 -0.5355  0.2363
  901MOL0     C18862   9.575   5.688   7.093  0.7797 -0.4960  0.4233
  901MOL0     C18863   9.643   5.568   7.142 -0.1899  1.2615  0.3061
  901MOL0     C18864   9.715   5.485   7.196  0.2084  0.3096 -0.2563
  901MOL0     C18865   8.941   5.308   7.100  0.1692 -0.4661 -0.2870
  901MOL0     C18866   8.815   5.279   7.153  0.5630 -1.0338  0.1803
  901MOL0     H18867   8.353   5.356   7.381 -2.1273 -0.8839 -1.5742
  901MOL0     H18868   8.149   5.264   7.472 -2.5078 -2.3998 -2.6652
  901MOL0     H18869   8.097   4.824   7.569 -1.6440  0.0056  1.4247
  901MOL0     H18870   8.026   4.863   7.413  0.7293  1.2717  0.6118
  901MOL0     H18871   7.853   4.996   7.533  0.0701  0.5050  0.7345
  901MOL0     H18872   7.934   4.971   7.682 -0.4693  2.6978 -1.0203
  901MOL0     H18873   7.725   4.819   7.646  0.7166 -1.2999  2.0915
  901MOL0     H18874   7.878   4.737   7.683  1.7771  0.9661  0.7606
  901MOL0     H18875   7.810   4.781   7.382  1.8029 -0.7164  0.1413
  901MOL0     H18876   7.900   4.650   7.470  0.6806  1.0845 -0.9351
  901MOL0     H18877   7.680   4.606   7.340  1.1960  0.2097 -0.8748
  901MOL0     H18878   7.616   4.709   7.475  0.3078  0.5546 -2.6603
  901MOL0     H18879   7.706   4.552   7.639 -0.6809 -0.1613 -1.1941
  901MOL0     H18880   7.769   4.445   7.522 -0.8530 -0.7364  0.1146
  901MOL0     H18881   7.472   4.505   7.552  0.1667  0.5669 -3.4369
  901MOL0     H18882   7.540   4.402   7.430 -1.2736  1.2239 -0.5456
  901MOL0     H18883   7.558   4.375   7.730 -0.1385  1.7066 -1.4523
  901MOL0     H18884   7.642   4.263   7.620  1.3930  1.0646  2.2933
  901MOL0     H18885   7.297   4.388   7.753  0.4502  0.0504  1.5027
  901MOL0     H18886   7.054   4.327   7.735  1.9656  1.6221 -0.9628
  901MOL0     H18887   7.053   4.153   7.786 -1.4955  1.5712 -0.2026
  901MOL0     H18888   6.957   4.053   7.605  2.5940 -0.2511  3.2107
  901MOL0     H18889   6.985   4.198   7.502  3.3502  0.6635 -0.0079
  901MOL0     H18890   6.802   4.171   7.754 -4.9295  0.6406 -1.0730
  901MOL0     H18891   6.837   4.320   7.655  2.0371  0.0108  1.6096
  901MOL0     H18892   6.737   4.186   7.459 -0.2789  2.3825  0.1575
  901MOL0     H18893   6.626   4.243   7.578  0.3477 -0.1316  2.4756
  901MOL0     H18894   6.608   3.802   7.594  1.7842  4.3650  2.9406
  901MOL0     H18895   6.438   3.686   7.461  3.0402 -0.3859  1.3740
  901MOL0     H18896   5.969   3.876   7.179 -1.0583  1.0099 -0.6864
  901MOL0     H18897   5.812   3.806   6.994  0.4528  0.3577 -0.2639
  901MOL0     H18898   5.922   3.518   6.705  0.6841 -0.1218  0.1143
  901MOL0     H18899   5.972   3.646   6.598 -0.2780 -1.5966 -1.2989
  901MOL0     H18900   5.674   3.623   6.642  0.9076 -3.8494  1.3736
  901MOL0     H18901   5.754   3.521   6.524  1.4156 -1.2706  0.5967
  901MOL0     H18902   5.864   3.747   6.418 -0.1738 -0.7210 -2.6312
  901MOL0     H18903   5.721   3.816   6.510 -0.1158 -0.4290  0.4125
  901MOL0     H18904   5.706   3.615   6.281 -1.2077  0.6941 -0.4174
  901MOL0     H18905   5.574   3.654   6.399  0.3194 -0.4103  1.1170
  901MOL0     H18906   5.603   3.906   6.311  2.1379  1.5108 -2.5782
  901MOL0     H18907   5.564   3.799   6.174  0.0058 -2.7323  0.5317
  901MOL0     H18908   5.824   3.929   6.276  1.3013  0.0471 -0.5541
  901MOL0     H18909   5.731   3.958   6.126  0.8057 -1.7816 -4.4903
  901MOL0     H18910   5.947   3.859   6.074 -2.2324  2.0444 -2.4337
  901MOL0     H18911   5.911   3.730   6.195  0.7299  1.2399  0.2889
  901MOL0     H18912   5.758   3.778   5.921  0.2538  0.2196  0.1885
  901MOL0     H18913   5.722   3.645   6.034 -0.2965 -0.1944 -1.5096
  901MOL0     H18914   6.134   3.684   6.752  0.1875 -0.0702 -0.6339
  901MOL0     H18915   6.304   3.764   6.913  0.9128  2.3317  0.6930
  901MOL0     H18916   6.401   4.066   7.229  2.8076  0.7056 -0.7237
  901MOL0     H18917   6.526   4.169   7.398  1.8646 -0.1692 -0.1134
  901MOL0     H18918   8.302   4.873   7.426 -3.3740  1.2897  0.1297
  901MOL0     H18919   8.518   4.963   7.322 -1.0871 -0.5990  3.1361
  901MOL0     H18920   8.838   5.458   7.441 -0.8147 -1.6609 -0.1786
  901MOL0     H18921   9.032   5.536   7.335 -1.6658 -0.2747 -1.2168
  901MOL0     H18922   9.267   5.508   7.250  0.7310  0.4572  0.0640
  901MOL0     H18923   9.181   5.617   7.141 -0.2188 -0.7591 -2.2646
  901MOL0     H18924   9.414   5.462   7.048 -1.5729 -2.0788 -0.4355
  901MOL0     H18925   9.322   5.573   6.952 -0.6572  0.6660 -0.1088
  901MOL0     H18926   9.397   5.687   7.224  0.0999 -0.1589  0.5051
  901MOL0     H18927   9.379   5.763   7.055  0.6044  0.0522 -0.2393
  901MOL0     H18928   9.589   5.714   6.988  1.7964  1.6542  1.0373
  901MOL0     H18929   9.613   5.773   7.150 -1.1384 -0.9235  2.4732
  901MOL0     H18930   9.777   5.407   7.237 -0.1362  0.2214  0.1015
  901MOL0     H18931   8.980   5.266   7.008  0.2299 -2.4748  0.6045
  901MOL0     H18932   8.751   5.215   7.092 -0.2114  0.4963 -0.6824
  902MOL0     O18933   7.829   6.175   8.068 -0.3677 -0.0714 -0.5224
  902MOL0     C18934   7.798   6.070   8.122 -0.0991 -0.0576  0.2752
  902MOL0     O18935   7.700   6.062   8.223  0.0965  0.1448 -0.5809
  902MOL0     C18936   7.645   6.180   8.265  0.8195 -0.1597  0.7381
  902MOL0     C18937   7.519   6.223   8.205 -0.1059 -0.3763  0.0565
  902MOL0     C18938   7.465   6.350   8.245  0.5406  0.1298 -0.3440
  902MOL0     C18939   7.525   6.428   8.346 -0.3866  0.1480  0.1655
  902MOL0     O18940   7.470   6.543   8.397  0.7370 -0.1736  0.1185
  902MOL0     C18941   7.359   6.610   8.332  0.3983  0.4614 -0.3065
  902MOL0     C18942   7.343   6.753   8.381 -0.0444 -0.1510 -0.8149
  902MOL0     C18943   7.210   6.816   8.314 -0.5947 -0.2524  0.5121
  902MOL0     C18944   7.174   6.957   8.360 -0.4861 -0.0279 -0.0682
  902MOL0     C18945   7.120   6.963   8.500  0.2113 -0.0096 -0.7514
  902MOL0     C18946   7.082   7.107   8.536 -0.7877  1.0480 -0.2907
  902MOL0     C18947   7.039   7.122   8.681 -0.2015 -0.6952  0.2171
  902MOL0     C18948   7.033   7.274   8.722  0.5319  0.4594  0.2134
  902MOL0     N18949   6.985   7.294   8.857  0.4176 -0.3470  0.3153
  902MOL0     C18950   6.855   7.320   8.876  0.0709 -0.3742 -0.1314
  902MOL0     C18951   6.836   7.311   9.004 -0.1769  0.8855 -0.1840
  902MOL0     C18952   6.703   7.357   9.071 -0.1486  0.5285 -0.3076
  902MOL0     C18953   6.708   7.502   9.121 -0.1750 -0.1540 -0.9608
  902MOL0     C18954   6.573   7.547   9.191 -0.2102  0.2374 -0.5230
  902MOL0     C18955   6.581   7.695   9.229  0.0549  1.1045 -0.5202
  902MOL0     O18956   6.465   7.736   9.301  0.4307  0.3385  0.2009
  902MOL0     C18957   6.347   7.729   9.234  0.2556  0.1277  0.9763
  902MOL0     C18958   6.232   7.746   9.315 -0.2623  0.0362  0.1652
  902MOL0     C18959   6.107   7.767   9.255  0.1323  1.1476  0.2403
  902MOL0     C18960   6.083   7.749   9.113  0.1402  0.5172  0.3943
  902MOL0     C18961   5.939   7.748   9.060 -0.4777  0.1912 -0.0399
  902MOL0     O18962   5.827   7.755   9.143 -0.5661 -0.3480 -0.1213
  902MOL0     C18963   5.704   7.760   9.085  0.0381 -0.4751  0.8608
  902MOL0     C18964   5.597   7.674   9.117  0.0075 -0.0141  0.5879
  902MOL0     C18965   5.472   7.678   9.055 -0.6443  0.0818 -0.3729
  902MOL0     C18966   5.441   7.773   8.957  0.3807 -0.9781  0.3943
  902MOL0     O18967   5.320   7.785   8.891 -0.3213  0.0043  0.1228
  902MOL0     C18968   5.204   7.726   8.957  0.2877  0.2025 -0.1866
  902MOL0     C18969   5.082   7.777   8.889  0.2375 -0.7579  0.4526
  902MOL0     C18970   4.992   7.670   8.832  0.0655  0.7344  0.9409
  902MOL0     C18971   4.852   7.740   8.790 -0.2193  0.7574  0.0881
  902MOL0     C18972   4.738   7.644   8.813 -0.0040  0.7647  0.3702
  902MOL0     C18973   4.747   7.514   8.722 -0.3537 -0.5434  1.5520
  902MOL0     C18974   4.637   7.414   8.751 -0.1964  0.1267  0.1174
  902MOL0     C18975   4.498   7.442   8.683  0.0870  0.5066 -0.6661
  902MOL0    Cl18976   4.370   7.424   8.801  0.1556 -0.0723 -0.1877
  902MOL0     C18977   5.538   7.858   8.917 -1.0168 -0.1743  0.2438
  902MOL0     C18978   5.670   7.852   8.980 -0.0665 -0.0824 -0.0072
  902MOL0     O18979   5.933   7.741   8.943  0.6624 -0.1596 -0.2728
  902MOL0     C18980   6.204   7.739   9.028 -0.1469 -1.3011 -0.1545
  902MOL0     C18981   6.327   7.743   9.092 -1.3022  0.6761  0.0032
  902MOL0     N18982   6.945   7.263   9.066 -0.0147 -0.1316 -0.0428
  902MOL0     N18983   7.037   7.248   8.971 -0.2489  0.4104  0.0305
  902MOL0     C18984   7.645   6.386   8.400  0.5848  0.6265 -0.8330
  902MOL0     C18985   7.702   6.264   8.358 -1.2487 -0.5107 -0.5683
  902MOL0     C18986   7.864   5.946   8.075  0.0945  0.0243  0.8454
  902MOL0     C18987   7.814   5.820   8.100  0.2826  1.4458 -0.3788
  902MOL0     C18988   7.868   5.697   8.053 -0.2526 -0.9015  0.8531
  902MOL0     C18989   7.987   5.710   7.984 -0.0108 -0.2930 -0.2040
  902MOL0     O18990   8.067   5.608   7.938  0.2943 -0.0631  0.6917
  902MOL0     C18991   8.036   5.468   7.960 -0.4082  0.6616  0.0828
  902MOL0     C18992   8.157   5.377   7.909 -0.5082 -0.2841  0.0820
  902MOL0     C18993   8.293   5.412   7.978 -0.1331 -1.3331 -0.5760
  902MOL0     C18994   8.367   5.536   7.930  0.3371 -0.6287 -0.8785
  902MOL0     C18995   8.401   5.548   7.792 -0.5089  0.8787 -0.4636
  902MOL0     C18996   8.431   5.560   7.672 -0.3840  0.9784  0.0967
  902MOL0     C18997   8.043   5.834   7.954 -1.1835  0.5095  0.2634
  902MOL0     C18998   7.981   5.949   7.988 -0.1350  0.6011  0.2410
  902MOL0     H18999   7.471   6.168   8.125 -0.1002  3.0536 -2.5724
  902MOL0     H19000   7.373   6.380   8.195  0.9598  0.8193 -0.7097
  902MOL0     H19001   7.277   6.542   8.354  0.9242 -0.5659 -1.3747
  902MOL0     H19002   7.370   6.606   8.223  0.2564  0.4512 -0.3204
  902MOL0     H19003   7.429   6.808   8.344 -0.9161  1.8941  0.0311
  902MOL0     H19004   7.345   6.773   8.489  0.4718 -2.1563 -0.4162
  902MOL0     H19005   7.127   6.751   8.342 -1.0293  0.9370  2.1340
  902MOL0     H19006   7.237   6.813   8.208  2.1611 -0.6099  1.1405
  902MOL0     H19007   7.261   7.022   8.351  0.5645 -1.1383  1.4393
  902MOL0     H19008   7.098   6.999   8.294 -0.1847 -2.0598 -1.8219
  902MOL0     H19009   7.190   6.913   8.568  0.3078  0.7216 -0.3081
  902MOL0     H19010   7.030   6.901   8.504  0.0545  0.2647  0.3723
  902MOL0     H19011   7.002   7.148   8.474  0.7070  1.8754 -1.7568
  902MOL0     H19012   7.173   7.167   8.524 -0.2606 -0.0295 -1.9152
  902MOL0     H19013   6.938   7.080   8.692 -0.5900 -0.1475 -1.1420
  902MOL0     H19014   7.100   7.077   8.760 -1.6937 -0.1703  1.7437
  902MOL0     H19015   6.975   7.334   8.651 -0.0362  0.6910  0.8675
  902MOL0     H19016   7.137   7.307   8.709  0.5792 -0.2389 -1.4828
  902MOL0     H19017   6.777   7.362   8.814 -2.3847 -0.2863  2.7923
  902MOL0     H19018   6.672   7.292   9.153 -0.1509  1.3035  0.3269
  902MOL0     H19019   6.616   7.343   9.006  1.0152  1.4339 -2.1514
  902MOL0     H19020   6.728   7.573   9.041 -2.1101  0.2306 -1.1459
  902MOL0     H19021   6.782   7.493   9.201 -2.8611  0.1975  1.7493
  902MOL0     H19022   6.490   7.537   9.121  0.2045 -1.0009 -0.8694
  902MOL0     H19023   6.562   7.474   9.273 -2.5972  1.8174  0.6887
  902MOL0     H19024   6.609   7.758   9.144  1.0132  1.3344 -0.0527
  902MOL0     H19025   6.668   7.706   9.295  0.1094  2.2395 -0.7479
  902MOL0     H19026   6.231   7.753   9.424 -1.9785 -0.5524  0.2208
  902MOL0     H19027   6.032   7.782   9.333 -0.4445 -0.2564 -0.0181
  902MOL0     H19028   5.625   7.595   9.187  0.9789  1.7375  2.3026
  902MOL0     H19029   5.394   7.608   9.083  0.2161 -0.8863 -0.3484
  902MOL0     H19030   5.205   7.778   9.054  2.2690  1.6053 -0.8937
  902MOL0     H19031   5.191   7.619   8.975 -0.3177  0.5042  1.3281
  902MOL0     H19032   5.111   7.836   8.801 -1.7817 -0.9509 -0.3945
  902MOL0     H19033   5.028   7.842   8.959 -1.3289  1.3376 -2.4713
  902MOL0     H19034   4.969   7.584   8.896  0.1177  0.7329  0.9579
  902MOL0     H19035   5.041   7.634   8.741 -0.1284 -0.3716  1.2602
  902MOL0     H19036   4.829   7.832   8.846 -1.1376 -0.5947  2.0243
  902MOL0     H19037   4.847   7.764   8.683  0.7199  1.3583  0.1688
  902MOL0     H19038   4.645   7.692   8.780  0.8923  2.4016  0.1176
  902MOL0     H19039   4.721   7.621   8.919 -0.6845  2.6234  0.6904
  902MOL0     H19040   4.843   7.466   8.746 -0.0890 -0.0386  1.5165
  902MOL0     H19041   4.752   7.541   8.616  3.6598 -0.2912  1.6305
  902MOL0     H19042   4.674   7.312   8.735  0.5394  0.1079  1.7578
  902MOL0     H19043   4.623   7.414   8.859 -1.2831 -1.9743  0.0157
  902MOL0     H19044   4.493   7.368   8.602  2.6924  1.7979 -2.1327
  902MOL0     H19045   4.501   7.542   8.640 -2.3648  2.1085  2.4682
  902MOL0     H19046   5.513   7.929   8.839 -0.7940  0.3797  0.6669
  902MOL0     H19047   5.742   7.922   8.938 -0.5052  0.2778 -0.1709
  902MOL0     H19048   6.199   7.743   8.919  4.2787  2.3325 -0.5649
  902MOL0     H19049   6.419   7.762   9.038 -0.0942 -0.7038  1.4916
  902MOL0     H19050   7.691   6.457   8.468 -0.9150  2.9070 -2.0503
  902MOL0     H19051   7.803   6.244   8.391 -0.8343 -0.1830 -1.6031
  902MOL0     H19052   7.731   5.805   8.168  1.2911 -1.5939  0.3290
  902MOL0     H19053   7.827   5.600   8.078 -1.7148 -0.3426  0.7326
  902MOL0     H19054   7.937   5.434   7.927 -0.2213  0.6776 -0.5000
  902MOL0     H19055   8.022   5.451   8.067 -1.4727  1.2202  0.0468
  902MOL0     H19056   8.134   5.270   7.910 -1.6124 -0.0562  1.4612
  902MOL0     H19057   8.169   5.395   7.801 -2.6196 -1.4243 -0.3912
  902MOL0     H19058   8.368   5.334   7.958  0.9337 -0.1334 -1.3703
  902MOL0     H19059   8.269   5.426   8.083 -2.3900 -0.8984 -1.0856
  902MOL0     H19060   8.302   5.620   7.957  1.2603 -0.0991 -0.2556
  902MOL0     H19061   8.456   5.544   7.994 -0.0632  2.6114 -0.5356
  902MOL0     H19062   8.459   5.564   7.569  2.9540 -1.4449  0.7377
  902MOL0     H19063   8.127   5.834   7.885 -0.5271 -0.0908  1.0384
  902MOL0     H19064   8.015   6.047   7.955 -2.9226  0.4085 -3.8863
  903MOL0     O19065  10.251   0.879  10.653  0.0610 -1.1444 -0.2918
  903MOL0     C19066  10.298   0.813  10.558  0.0950  0.2769 -0.5395
  903MOL0     O19067  10.224   0.766  10.460 -0.2123  0.3806  0.4775
  903MOL0     C19068  10.083   0.773  10.470  0.9754  0.0989 -0.3316
  903MOL0     C19069  10.011   0.658  10.440 -0.3643  1.0244 -0.2319
  903MOL0     C19070   9.876   0.645  10.473 -0.2826  0.8386  0.1818
  903MOL0     C19071   9.808   0.751  10.525 -0.1685 -0.1779  0.1175
  903MOL0     O19072   9.671   0.723  10.549 -0.3247 -0.1463 -0.4704
  903MOL0     C19073   9.572   0.824  10.554 -0.3813  0.0675 -0.3918
  903MOL0     C19074   9.453   0.751  10.611  0.6011  0.8633 -0.4289
  903MOL0     C19075   9.313   0.805  10.576  0.6043 -0.2778  0.7751
  903MOL0     C19076   9.280   0.783  10.426  0.4941  0.5328 -0.1021
  903MOL0     C19077   9.144   0.840  10.376 -0.5441 -0.8631  0.1966
  903MOL0     C19078   9.029   0.755  10.426 -0.2694 -0.3338  0.3186
  903MOL0     C19079   8.890   0.790  10.371 -0.1821 -0.3405  0.4163
  903MOL0     C19080   8.808   0.666  10.334  0.5423  1.0293 -0.9523
  903MOL0     N19081   8.756   0.598  10.456  0.0019 -0.5216 -0.0955
  903MOL0     C19082   8.676   0.647  10.560 -0.5937 -0.1744 -0.4233
  903MOL0     C19083   8.642   0.545  10.640 -0.1180  0.1898  0.1758
  903MOL0     C19084   8.547   0.559  10.754 -0.3556  0.4531  0.5584
  903MOL0     C19085   8.428   0.454  10.725  0.2463 -0.5646 -0.2970
  903MOL0     C19086   8.316   0.482  10.828 -0.8055 -0.2874  0.1555
  903MOL0     C19087   8.188   0.423  10.780  0.4359  0.1454  0.1988
  903MOL0     O19088   8.138   0.512  10.681  0.1812 -0.8806  0.7878
  903MOL0     C19089   8.002   0.524  10.671 -0.3346  0.7166 -0.7301
  903MOL0     C19090   7.954   0.642  10.617 -0.0632  0.8610 -0.4764
  903MOL0     C19091   7.817   0.660  10.597 -0.1845  1.0213  0.4567
  903MOL0     C19092   7.717   0.567  10.633 -0.3065 -0.0478 -0.2856
  903MOL0     C19093   7.566   0.589  10.632  0.6593 -0.6521  0.6130
  903MOL0     O19094   7.486   0.489  10.685 -0.8472 -0.0483  0.1705
  903MOL0     C19095   7.361   0.520  10.726  0.7938 -0.5666 -0.0913
  903MOL0     C19096   7.241   0.448  10.688 -0.0844 -0.1267  0.5453
  903MOL0     C19097   7.111   0.482  10.738  0.1651 -0.3288  0.5569
  903MOL0     C19098   7.100   0.595  10.820 -1.2637 -0.0317  0.6837
  903MOL0     O19099   6.978   0.645  10.863  0.0203  1.2470  0.4513
  903MOL0     C19100   6.924   0.756  10.782 -0.1792  0.3010 -0.4921
  903MOL0     C19101   6.889   0.700  10.649  1.2544 -0.5933 -0.8683
  903MOL0     C19102   6.816   0.813  10.573 -0.6481 -0.3197 -0.3258
  903MOL0     C19103   6.666   0.820  10.600  0.2395 -0.5281 -0.3309
  903MOL0     C19104   6.616   0.939  10.515  0.3338  0.3318  0.4750
  903MOL0     C19105   6.469   0.968  10.538 -0.4234  0.3999  0.6295
  903MOL0     C19106   6.432   1.104  10.476  0.5265  0.2094 -0.2037
  903MOL0     C19107   6.429   1.115  10.325 -0.1931 -0.4290 -0.1463
  903MOL0    Cl19108   6.308   1.007  10.264 -0.3008 -0.0263 -0.4667
  903MOL0     C19109   7.221   0.662  10.862 -0.3567 -0.2276  0.1160
  903MOL0     C19110   7.352   0.627  10.814 -0.3249 -0.0545  0.9349
  903MOL0     O19111   7.521   0.700  10.600 -0.1025  0.2831 -0.1049
  903MOL0     C19112   7.767   0.442  10.680 -0.0820 -0.9989  0.2286
  903MOL0     C19113   7.909   0.419  10.696  0.8241 -0.0773 -0.3017
  903MOL0     N19114   8.700   0.427  10.591 -0.2368 -0.3162  0.4750
  903MOL0     N19115   8.773   0.464  10.491  0.7795  1.2532 -0.4323
  903MOL0     C19116   9.873   0.878  10.538  0.0195  0.2216  0.2788
  903MOL0     C19117  10.010   0.892  10.503 -0.5451  0.2266  1.0318
  903MOL0     C19118  10.444   0.796  10.550  0.2567 -0.1418  0.9306
  903MOL0     C19119  10.533   0.859  10.646 -0.9740  0.7426 -0.1374
  903MOL0     C19120  10.673   0.849  10.632  0.1225 -0.3280 -0.6501
  903MOL0     C19121  10.728   0.791  10.514 -0.2114 -0.0660  0.0412
  903MOL0     O19122  10.868   0.800  10.501  0.1475  0.6688 -0.0537
  903MOL0     C19123  10.923   0.710  10.410 -0.9465  1.1277  0.2862
  903MOL0     C19124  11.077   0.711  10.437 -0.0917  0.2914 -0.5722
  903MOL0     C19125  11.158   0.652  10.320 -0.3409 -0.3177  0.5046
  903MOL0     C19126  11.297   0.688  10.332 -0.4834 -0.5582 -0.2441
  903MOL0     C19127  11.396   0.640  10.239  0.8872 -1.1761 -0.3896
  903MOL0     C19128  11.474   0.610  10.151 -0.4135  1.1518 -0.3258
  903MOL0     C19129  10.643   0.739  10.409 -0.2789  0.0432 -1.3413
  903MOL0     C19130  10.498   0.742  10.438 -0.9374 -0.0406  0.8395
  903MOL0     H19131  10.057   0.567  10.405 -1.8249 -0.2064  0.8954
  903MOL0     H19132   9.825   0.550  10.460 -1.6596  1.7049 -1.2221
  903MOL0     H19133   9.551   0.869  10.456 -1.7275  0.5635  0.1135
  903MOL0     H19134   9.601   0.906  10.621  1.4645 -1.5140  0.8510
  903MOL0     H19135   9.447   0.751  10.721 -5.1075  0.3012 -0.4558
  903MOL0     H19136   9.448   0.644  10.589  1.5304  1.0975 -1.8925
  903MOL0     H19137   9.311   0.914  10.592  2.7353  0.0449 -0.7260
  903MOL0     H19138   9.236   0.760  10.639  0.7973  2.4664  3.2100
  903MOL0     H19139   9.359   0.828  10.365  1.2133 -2.0553 -1.2356
  903MOL0     H19140   9.280   0.677  10.398 -2.2393  0.4423  0.0169
  903MOL0     H19141   9.138   0.849  10.267 -2.6501 -0.1812  0.3271
  903MOL0     H19142   9.139   0.943  10.411  1.0286 -0.9610  0.7765
  903MOL0     H19143   9.027   0.776  10.533 -1.1195  0.2179  0.2053
  903MOL0     H19144   9.058   0.650  10.414  4.4057  0.9565 -2.2151
  903MOL0     H19145   8.837   0.840  10.452  0.9199 -1.8482  2.1230
  903MOL0     H19146   8.894   0.865  10.291  0.9651 -2.1224 -1.2875
  903MOL0     H19147   8.865   0.594  10.275 -0.7439 -0.3451 -0.5771
  903MOL0     H19148   8.717   0.689  10.277 -0.3170 -0.2358 -0.1517
  903MOL0     H19149   8.637   0.748  10.557  0.8095  0.3643 -2.4347
  903MOL0     H19150   8.523   0.665  10.763  0.9824  0.9121 -0.8605
  903MOL0     H19151   8.590   0.529  10.850  0.1566 -3.4477 -0.7019
  903MOL0     H19152   8.451   0.350  10.748  1.1089  0.2174  2.8689
  903MOL0     H19153   8.394   0.476  10.623  4.0069  2.8244 -1.0561
  903MOL0     H19154   8.340   0.442  10.928 -0.2220  0.6408  0.4014
  903MOL0     H19155   8.300   0.590  10.835  1.7687  0.3554 -2.2285
  903MOL0     H19156   8.105   0.434  10.850  1.4353  0.6346  1.3418
  903MOL0     H19157   8.199   0.318  10.754 -1.5654 -0.1969  0.6459
  903MOL0     H19158   8.035   0.709  10.589 -1.0490  1.4377 -2.1189
  903MOL0     H19159   7.800   0.757  10.552  1.6177  0.6480 -1.1498
  903MOL0     H19160   7.256   0.364  10.621  3.5350  0.2534  0.6797
  903MOL0     H19161   7.018   0.435  10.709  0.0801  0.6772 -0.9315
  903MOL0     H19162   6.994   0.840  10.779  1.6082 -1.1015 -0.1035
  903MOL0     H19163   6.828   0.789  10.822 -1.9791 -2.4078 -2.1854
  903MOL0     H19164   6.817   0.618  10.652 -3.8298  3.3993  1.5017
  903MOL0     H19165   6.976   0.660  10.595  1.3448 -3.0678  0.9671
  903MOL0     H19166   6.827   0.803  10.465 -3.2947 -1.0005 -0.5876
  903MOL0     H19167   6.860   0.909  10.603  3.8785 -2.5504  1.1742
  903MOL0     H19168   6.614   0.732  10.561  2.4296 -2.8663  1.7171
  903MOL0     H19169   6.641   0.832  10.706  1.3689  2.2093 -0.2930
  903MOL0     H19170   6.605   0.919  10.408 -4.4601  1.6491  0.4927
  903MOL0     H19171   6.673   1.032  10.524  0.4354  0.2125  1.1520
  903MOL0     H19172   6.451   0.961  10.646 -1.7491  0.7718  0.4498
  903MOL0     H19173   6.412   0.888  10.490  1.2996 -0.3652 -0.2105
  903MOL0     H19174   6.335   1.136  10.516  0.9968  4.2449 -1.8416
  903MOL0     H19175   6.514   1.165  10.516  1.3692 -1.6884  1.1471
  903MOL0     H19176   6.529   1.095  10.285 -0.3549 -0.5464 -0.4941
  903MOL0     H19177   6.395   1.213  10.291  2.2877  0.1610 -1.0824
  903MOL0     H19178   7.207   0.741  10.934  2.0473  0.5338 -0.1976
  903MOL0     H19179   7.437   0.661  10.871  1.2377 -1.1359 -0.6562
  903MOL0     H19180   7.694   0.364  10.702 -1.4066 -0.2954 -1.4176
  903MOL0     H19181   7.954   0.325  10.726 -1.5434 -0.7079  1.6153
  903MOL0     H19182   9.800   0.952  10.569 -1.5236 -0.9445 -0.4281
  903MOL0     H19183  10.055   0.991  10.505  0.6813 -0.2734 -0.1604
  903MOL0     H19184  10.495   0.903  10.737  2.0975  1.3063  0.9840
  903MOL0     H19185  10.733   0.881  10.716 -0.6065 -0.2149 -0.1604
  903MOL0     H19186  10.911   0.729  10.302  0.0965  0.7707  0.1015
  903MOL0     H19187  10.882   0.612  10.436  1.6007  1.0432  5.1409
  903MOL0     H19188  11.108   0.815  10.456 -0.2104  0.0451  1.1172
  903MOL0     H19189  11.102   0.660  10.531  0.8580  0.5386 -0.6770
  903MOL0     H19190  11.118   0.693  10.226 -0.9970 -1.1754  0.4009
  903MOL0     H19191  11.150   0.543  10.321  1.6983 -0.5139  2.6157
  903MOL0     H19192  11.297   0.797  10.319  0.1569 -0.6375 -0.9395
  903MOL0     H19193  11.326   0.652  10.431 -1.4819 -0.1991  0.1988
  903MOL0     H19194  11.541   0.575  10.076 -0.8510 -0.5109  0.0216
  903MOL0     H19195  10.684   0.707  10.314  2.0906  1.6952 -0.9352
  903MOL0     H19196  10.433   0.722  10.354 -1.5393  0.0947  1.2609
  904MOL0     O19197   1.966   6.221   3.829  0.2395  0.3330  0.3677
  904MOL0     C19198   1.965   6.133   3.917 -0.2910 -0.4333 -0.0756
  904MOL0     O19199   1.877   6.034   3.935 -0.3884  0.2280  0.0415
  904MOL0     C19200   1.761   6.013   3.870 -0.4977  0.3411 -0.5363
  904MOL0     C19201   1.686   6.108   3.804 -0.0226 -0.7367 -0.1305
  904MOL0     C19202   1.581   6.069   3.718 -0.1191  0.6350 -0.8723
  904MOL0     C19203   1.544   5.935   3.712 -0.0439 -0.2181  0.3738
  904MOL0     O19204   1.435   5.895   3.643  0.4289 -0.7923 -0.5997
  904MOL0     C19205   1.324   5.988   3.627 -0.6858 -0.0629  0.2201
  904MOL0     C19206   1.264   6.019   3.765 -0.7846  0.1622  0.7641
  904MOL0     C19207   1.124   6.079   3.748 -0.1796  0.1510  0.5356
  904MOL0     C19208   1.021   5.971   3.709 -0.1154  0.7587  0.5881
  904MOL0     C19209   0.875   6.030   3.742  0.3787 -0.0825 -0.5314
  904MOL0     C19210   0.754   5.937   3.702  0.0465  0.2777 -0.2828
  904MOL0     C19211   0.617   6.006   3.730 -0.2745 -0.1903 -0.1327
  904MOL0     C19212   0.555   5.975   3.868  0.2776 -0.0396 -1.1012
  904MOL0     N19213   0.407   5.986   3.872  0.4797  0.8544  0.1699
  904MOL0     C19214   0.308   6.031   3.780  0.5966  0.5337  1.3145
  904MOL0     C19215   0.192   6.002   3.835  0.1561  0.3810 -0.6930
  904MOL0     C19216   0.055   6.021   3.781 -0.7260 -0.0499  0.6954
  904MOL0     C19217  -0.039   6.082   3.875  0.0873 -0.3841 -0.4355
  904MOL0     C19218  -0.178   6.119   3.804 -0.3148 -0.3560  0.1154
  904MOL0     C19219  -0.248   6.004   3.746 -0.3355 -0.1904 -0.4288
  904MOL0     O19220  -0.358   6.046   3.664  0.0973 -0.3085 -0.7126
  904MOL0     C19221  -0.480   6.077   3.730 -0.5785  0.7612 -0.0234
  904MOL0     C19222  -0.587   6.115   3.652  0.1048 -0.4449 -0.1464
  904MOL0     C19223  -0.710   6.149   3.703  0.2887 -0.5181 -0.1346
  904MOL0     C19224  -0.729   6.150   3.841 -0.1154 -0.1570 -0.1998
  904MOL0     C19225  -0.849   6.191   3.905  0.4390  1.0214 -0.1305
  904MOL0     O19226  -0.940   6.247   3.827 -0.0029 -1.0294 -0.0314
  904MOL0     C19227  -1.070   6.271   3.863 -0.7305 -0.3819  0.3610
  904MOL0     C19228  -1.101   6.401   3.822 -0.7864  0.3642  0.7769
  904MOL0     C19229  -1.222   6.455   3.853 -0.7773  0.4720  0.2542
  904MOL0     C19230  -1.318   6.378   3.925 -1.6026  0.9105  0.3732
  904MOL0     O19231  -1.433   6.437   3.966  0.0096 -0.4827 -0.4575
  904MOL0     C19232  -1.505   6.510   3.862 -0.1992  0.0868 -1.0491
  904MOL0     C19233  -1.651   6.501   3.890 -0.0471 -0.1672 -0.5223
  904MOL0     C19234  -1.700   6.353   3.925 -0.3663 -0.8393 -0.3373
  904MOL0     C19235  -1.849   6.369   3.907  0.2492 -0.1141  0.1191
  904MOL0     C19236  -1.912   6.234   3.879 -0.2601  0.2028  0.7446
  904MOL0     C19237  -2.050   6.236   3.939  0.5435 -0.4910 -0.5702
  904MOL0     C19238  -2.132   6.112   3.886 -0.5629  0.3159  0.2187
  904MOL0     C19239  -2.279   6.111   3.921 -0.2782 -0.0721 -0.0990
  904MOL0    Cl19240  -2.363   5.958   3.861  0.3551 -0.2599  0.4639
  904MOL0     C19241  -1.294   6.242   3.949  0.1144 -0.1916 -0.6573
  904MOL0     C19242  -1.166   6.188   3.919  0.4024 -0.8105 -0.0540
  904MOL0     O19243  -0.864   6.157   4.027  0.0395 -0.2853  0.1604
  904MOL0     C19244  -0.628   6.096   3.923 -0.5273 -0.0113 -0.3478
  904MOL0     C19245  -0.500   6.073   3.871 -0.3906  0.2571  1.3121
  904MOL0     N19246   0.212   5.935   3.956 -0.5795 -0.3874 -0.0941
  904MOL0     N19247   0.338   5.932   3.979  0.4468 -0.2540  0.3910
  904MOL0     C19248   1.614   5.842   3.786 -0.1393  0.2360 -0.7692
  904MOL0     C19249   1.726   5.882   3.861  0.2688  0.9618  0.8993
  904MOL0     C19250   2.085   6.129   4.006  0.1871 -0.2290  0.0780
  904MOL0     C19251   2.162   6.244   4.022  0.0206  0.1947 -0.3532
  904MOL0     C19252   2.290   6.243   4.082  0.0271  0.6208 -0.8199
  904MOL0     C19253   2.329   6.125   4.152  0.3149 -0.2814 -0.2176
  904MOL0     O19254   2.452   6.132   4.226  0.2194  0.1407 -0.2558
  904MOL0     C19255   2.513   6.012   4.265  0.0759  0.7921 -0.6685
  904MOL0     C19256   2.641   6.050   4.338 -0.2572 -1.3539 -0.2409
  904MOL0     C19257   2.729   5.922   4.353  0.1979 -0.7768 -0.2741
  904MOL0     C19258   2.859   5.945   4.423  0.4991 -0.0265 -0.0750
  904MOL0     C19259   2.931   5.823   4.447 -0.0304  0.4714  0.6930
  904MOL0     C19260   2.993   5.720   4.470  0.6664 -0.1278  0.4445
  904MOL0     C19261   2.257   6.006   4.136  0.7921 -0.6253 -0.0446
  904MOL0     C19262   2.132   6.008   4.059  0.3710  0.1112  0.0579
  904MOL0     H19263   1.704   6.215   3.813  0.5179 -0.9321  1.2382
  904MOL0     H19264   1.539   6.155   3.667  0.1332  1.5189  0.3647
  904MOL0     H19265   1.245   5.944   3.565 -0.1015 -0.2996 -0.3728
  904MOL0     H19266   1.359   6.074   3.568  3.9054 -1.0398  1.1238
  904MOL0     H19267   1.330   6.077   3.830 -0.4690  0.6383  0.0347
  904MOL0     H19268   1.251   5.921   3.812  0.5819 -0.3887  0.0813
  904MOL0     H19269   1.118   6.163   3.678  1.1610 -1.2984 -1.4573
  904MOL0     H19270   1.094   6.119   3.845  0.1937  2.0187 -0.0763
  904MOL0     H19271   1.035   5.928   3.610  0.4507 -0.6575  1.2530
  904MOL0     H19272   1.030   5.883   3.774 -2.1966 -1.8737 -2.4062
  904MOL0     H19273   0.864   6.129   3.698  1.4918 -0.9916 -3.0761
  904MOL0     H19274   0.866   6.042   3.850  2.7195 -1.9790 -0.0417
  904MOL0     H19275   0.770   5.841   3.752  2.7495 -0.2575 -1.9619
  904MOL0     H19276   0.757   5.914   3.595 -5.7827 -3.5577 -0.1194
  904MOL0     H19277   0.626   6.115   3.725 -0.0003 -0.2780 -2.1932
  904MOL0     H19278   0.550   5.984   3.646  1.6552  3.0555 -2.7561
  904MOL0     H19279   0.594   6.029   3.955  1.2843 -2.0317 -0.2637
  904MOL0     H19280   0.585   5.872   3.892  0.3911  0.5741  1.8002
  904MOL0     H19281   0.330   6.076   3.684 -0.5161  1.3966  1.4441
  904MOL0     H19282   0.022   5.918   3.761 -0.0962 -0.4436  1.6041
  904MOL0     H19283   0.068   6.068   3.683 -1.0891  0.9790  1.1244
  904MOL0     H19284  -0.003   6.175   3.919  0.3030  0.1178 -1.6306
  904MOL0     H19285  -0.070   6.017   3.958 -0.8447  0.4035 -0.1423
  904MOL0     H19286  -0.242   6.168   3.877  1.0554 -0.5765  1.5037
  904MOL0     H19287  -0.158   6.188   3.722  0.8544  2.3425  2.5143
  904MOL0     H19288  -0.278   5.941   3.830  1.3916  1.4929  1.5762
  904MOL0     H19289  -0.187   5.941   3.680 -0.2275 -1.1238  0.5399
  904MOL0     H19290  -0.578   6.114   3.544 -0.3472  3.1561 -0.3449
  904MOL0     H19291  -0.788   6.183   3.635 -0.0831  0.9194  0.9481
  904MOL0     H19292  -1.040   6.453   3.749 -3.7997 -0.8562 -2.9693
  904MOL0     H19293  -1.247   6.557   3.823  0.2153  0.1904 -1.7136
  904MOL0     H19294  -1.488   6.453   3.771 -3.1748 -2.0931 -0.4185
  904MOL0     H19295  -1.482   6.617   3.859 -1.5924  0.4236 -0.7959
  904MOL0     H19296  -1.705   6.547   3.807 -0.7171 -1.2177 -0.6869
  904MOL0     H19297  -1.686   6.560   3.976  1.1890  4.2890 -2.7784
  904MOL0     H19298  -1.677   6.317   4.025  1.1283 -2.1314 -1.1118
  904MOL0     H19299  -1.657   6.280   3.856 -1.4325 -1.2568 -0.5841
  904MOL0     H19300  -1.887   6.424   3.994  2.6283  0.8136  0.6537
  904MOL0     H19301  -1.868   6.426   3.816 -1.6499  2.0371  1.7518
  904MOL0     H19302  -1.852   6.153   3.922  0.2271 -0.5466 -1.2295
  904MOL0     H19303  -1.920   6.220   3.771  1.7817  0.7821  0.4727
  904MOL0     H19304  -2.096   6.330   3.908  1.7195  0.1005 -0.5624
  904MOL0     H19305  -2.037   6.243   4.047 -4.1156 -0.1448  0.1736
  904MOL0     H19306  -2.116   6.089   3.780  3.3510  1.5272  0.3907
  904MOL0     H19307  -2.079   6.032   3.939 -1.6506 -0.8086 -0.3337
  904MOL0     H19308  -2.324   6.201   3.878 -1.0377  1.3456  3.3527
  904MOL0     H19309  -2.288   6.113   4.030  0.5464 -0.0305 -0.0209
  904MOL0     H19310  -1.371   6.181   3.995  2.1783 -3.2114 -0.9247
  904MOL0     H19311  -1.149   6.085   3.948 -1.1011 -0.5271  2.1097
  904MOL0     H19312  -0.640   6.084   4.030  1.7476 -3.8869 -0.3402
  904MOL0     H19313  -0.424   6.034   3.937  3.0899  0.0856 -2.4187
  904MOL0     H19314   1.577   5.740   3.783 -2.3947  1.0248 -2.4485
  904MOL0     H19315   1.786   5.806   3.910  0.9523  0.4213 -0.6953
  904MOL0     H19316   2.133   6.338   3.975  1.3787  0.0216 -1.5964
  904MOL0     H19317   2.358   6.327   4.094  0.1807  0.2936  0.8294
  904MOL0     H19318   2.535   5.951   4.176 -0.2911  1.4595 -1.2262
  904MOL0     H19319   2.444   5.955   4.328 -1.7814  0.7349 -2.6345
  904MOL0     H19320   2.693   6.129   4.282 -4.6520  0.0024 -2.8636
  904MOL0     H19321   2.618   6.093   4.436  4.3428  1.3836 -0.0531
  904MOL0     H19322   2.757   5.883   4.255  0.5440  2.0666 -1.4175
  904MOL0     H19323   2.675   5.844   4.407  0.9731 -1.9715 -1.1734
  904MOL0     H19324   2.925   6.010   4.365  1.8294 -0.4416  0.9069
  904MOL0     H19325   2.828   5.990   4.518 -1.7345  0.9824 -1.1955
  904MOL0     H19326   3.046   5.632   4.500  0.3233  0.1719  1.9770
  904MOL0     H19327   2.288   5.911   4.177 -0.7559 -1.5295 -0.8579
  904MOL0     H19328   2.077   5.916   4.047  0.3645 -0.0585  1.2627
  905MOL0     O19329   7.386  11.197   8.357  0.5185 -0.2135 -0.0687
  905MOL0     C19330   7.459  11.214   8.265 -0.3582 -1.1901  0.0964
  905MOL0     O19331   7.427  11.239   8.136  0.7342  0.2236 -0.2028
  905MOL0     C19332   7.291  11.230   8.092  0.7867 -1.1494 -0.8361
  905MOL0     C19333   7.274  11.210   7.960 -0.3898 -0.8209 -0.9854
  905MOL0     C19334   7.157  11.227   7.886 -0.6797  0.6902 -0.4613
  905MOL0     C19335   7.037  11.260   7.952 -0.1325  0.1099  0.3216
  905MOL0     O19336   6.915  11.274   7.885 -0.0459  0.6510  0.0084
  905MOL0     C19337   6.893  11.183   7.777  0.1551  0.9417 -0.6154
  905MOL0     C19338   6.742  11.162   7.731  0.4381  0.2383 -0.4712
  905MOL0     C19339   6.711  11.034   7.644 -0.3718 -0.7840 -0.2183
  905MOL0     C19340   6.568  11.014   7.587  0.0529 -0.1154  0.4416
  905MOL0     C19341   6.459  10.996   7.699 -0.0786 -0.1067  0.7707
  905MOL0     C19342   6.334  10.930   7.644 -0.0767  0.4139  0.5062
  905MOL0     C19343   6.217  10.912   7.740 -0.4959 -0.2389  0.4995
  905MOL0     C19344   6.097  10.848   7.671 -0.9210 -0.9324  1.2144
  905MOL0     N19345   5.978  10.833   7.758 -0.0367 -0.2160 -0.3847
  905MOL0     C19346   5.982  10.755   7.873 -0.9542 -0.8833 -0.0881
  905MOL0     C19347   5.852  10.742   7.901  0.2914 -0.4363  0.3491
  905MOL0     C19348   5.804  10.659   8.018  0.4788 -0.0854 -0.0275
  905MOL0     C19349   5.792  10.749   8.142 -0.2492  0.3470 -0.1006
  905MOL0     C19350   5.659  10.833   8.139  1.0810  1.3086 -0.1350
  905MOL0     C19351   5.529  10.754   8.169 -0.2726  0.2754 -0.5981
  905MOL0     O19352   5.426  10.842   8.153  0.5968 -0.0521 -0.2522
  905MOL0     C19353   5.300  10.796   8.197 -0.9326 -0.6632 -0.0622
  905MOL0     C19354   5.191  10.883   8.192 -0.1798 -0.3825  1.2062
  905MOL0     C19355   5.063  10.845   8.214 -0.1558  0.8422  0.1653
  905MOL0     C19356   5.034  10.716   8.258 -0.3983  0.0783  0.5624
  905MOL0     C19357   4.889  10.669   8.284 -1.0613  0.3599  0.9019
  905MOL0     O19358   4.789  10.762   8.262  0.1719  0.1756  0.1828
  905MOL0     C19359   4.654  10.739   8.281 -0.2336  0.7926 -0.6820
  905MOL0     C19360   4.590  10.825   8.375  0.2899 -0.6189  0.1036
  905MOL0     C19361   4.457  10.797   8.412 -0.0121  0.1043 -0.2866
  905MOL0     C19362   4.383  10.706   8.343  0.7441  1.0077  0.9263
  905MOL0     O19363   4.252  10.668   8.359 -0.4011  0.7238 -0.4914
  905MOL0     C19364   4.166  10.750   8.438 -0.0353 -0.2151 -0.9669
  905MOL0     C19365   4.060  10.660   8.496  0.1354 -1.2424 -0.5836
  905MOL0     C19366   4.109  10.573   8.625  0.1735 -0.3668  0.5157
  905MOL0     C19367   4.011  10.462   8.644  0.8576  0.1630 -0.5657
  905MOL0     C19368   4.052  10.358   8.749  0.4328  0.3562 -0.7031
  905MOL0     C19369   3.933  10.297   8.827  0.8317 -1.2916 -0.1153
  905MOL0     C19370   3.972  10.185   8.909  0.4678 -0.0256 -0.6501
  905MOL0     C19371   3.884  10.063   8.933 -0.4022 -0.6381 -0.6033
  905MOL0    Cl19372   3.972   9.933   9.022  0.2126  0.0994 -0.3001
  905MOL0     C19373   4.443  10.630   8.239  0.0830 -0.0323  0.2059
  905MOL0     C19374   4.578  10.640   8.215 -0.0537  0.4136 -0.5520
  905MOL0     O19375   4.878  10.553   8.312  0.4294  0.2960  0.1055
  905MOL0     C19376   5.140  10.630   8.276  0.5278  0.1144 -0.0162
  905MOL0     C19377   5.273  10.669   8.258  0.2152 -0.7456 -0.2032
  905MOL0     N19378   5.774  10.816   7.810 -0.5013 -0.9406 -0.6933
  905MOL0     N19379   5.857  10.863   7.722  0.6112  0.2944  0.1939
  905MOL0     C19380   7.043  11.285   8.084 -0.2096 -0.6538 -0.4489
  905MOL0     C19381   7.172  11.273   8.159  0.6314  0.2908  0.3118
  905MOL0     C19382   7.603  11.191   8.287  0.1040 -0.4423 -0.3522
  905MOL0     C19383   7.701  11.233   8.183  0.0117 -0.7105  0.8211
  905MOL0     C19384   7.838  11.223   8.202  0.7557  0.0727 -0.0228
  905MOL0     C19385   7.892  11.167   8.316 -0.7718  0.2362  0.1803
  905MOL0     O19386   8.024  11.175   8.340 -0.2133 -0.2719  0.6222
  905MOL0     C19387   8.055  11.290   8.422  0.2462  0.5215  0.5146
  905MOL0     C19388   8.209  11.323   8.422 -0.2171  0.7304  0.4341
  905MOL0     C19389   8.236  11.445   8.502 -0.0947 -0.8372 -0.2713
  905MOL0     C19390   8.385  11.461   8.528  0.6247  0.2936 -0.1131
  905MOL0     C19391   8.453  11.478   8.398 -1.1052 -0.7093  0.4268
  905MOL0     C19392   8.512  11.501   8.291  0.1058 -0.3660  0.0560
  905MOL0     C19393   7.803  11.109   8.410  0.0943 -0.3078 -0.0683
  905MOL0     C19394   7.660  11.127   8.398  0.2588  0.2735 -0.3218
  905MOL0     H19395   7.363  11.180   7.906  1.2464 -0.5100  1.4061
  905MOL0     H19396   7.156  11.203   7.780 -0.3582 -1.3686 -0.0383
  905MOL0     H19397   6.938  11.087   7.805  1.4089  1.5050 -0.6756
  905MOL0     H19398   6.952  11.222   7.694 -0.6813  0.6561 -1.3671
  905MOL0     H19399   6.723  11.247   7.664 -1.2843 -0.9166 -1.5447
  905MOL0     H19400   6.665  11.174   7.807 -0.4053  1.2202 -1.4556
  905MOL0     H19401   6.717  10.947   7.711 -0.8287 -1.2680 -0.7922
  905MOL0     H19402   6.782  11.016   7.563  1.0915  1.9660  0.3407
  905MOL0     H19403   6.540  11.105   7.533 -0.4693 -0.1596  0.6272
  905MOL0     H19404   6.580  10.930   7.518  1.1761  0.1395  0.3120
  905MOL0     H19405   6.432  11.095   7.735  2.3146 -0.0887  2.8383
  905MOL0     H19406   6.487  10.936   7.786 -1.5182 -0.8411  0.7428
  905MOL0     H19407   6.373  10.831   7.619  1.7101  1.3186 -0.5317
  905MOL0     H19408   6.301  10.985   7.555 -4.0508  2.4581  2.9676
  905MOL0     H19409   6.259  10.848   7.818 -2.4347  0.9496  2.6618
  905MOL0     H19410   6.193  11.007   7.790 -2.2540 -1.1499  1.5017
  905MOL0     H19411   6.130  10.755   7.624  1.6480  1.3435 -1.9827
  905MOL0     H19412   6.074  10.907   7.582 -1.6799 -0.3714  1.7767
  905MOL0     H19413   6.065  10.708   7.925 -1.4992  0.6717  2.3685
  905MOL0     H19414   5.863  10.572   8.046 -0.8089 -1.2435 -0.8170
  905MOL0     H19415   5.707  10.614   7.994 -0.1125  0.4724  1.2470
  905MOL0     H19416   5.882  10.809   8.164  1.0929 -1.9764  1.2352
  905MOL0     H19417   5.786  10.696   8.238  1.4699  1.5965  0.7646
  905MOL0     H19418   5.679  10.917   8.207  0.8759  2.6987 -1.7184
  905MOL0     H19419   5.640  10.871   8.038 -0.6442 -3.4486 -1.8630
  905MOL0     H19420   5.531  10.727   8.275  0.3508 -2.3942 -1.2223
  905MOL0     H19421   5.510  10.668   8.104 -2.7025  0.1845  0.1619
  905MOL0     H19422   5.211  10.984   8.157 -0.1686 -0.6984  0.2997
  905MOL0     H19423   4.991  10.922   8.190  0.4854  1.1375 -0.8592
  905MOL0     H19424   4.641  10.906   8.426 -4.3519  2.6695  0.2151
  905MOL0     H19425   4.415  10.871   8.479  0.0544  0.4523 -0.6248
  905MOL0     H19426   4.124  10.828   8.373  1.0538  1.0284 -0.2344
  905MOL0     H19427   4.219  10.790   8.525 -1.5479 -0.3724  0.0718
  905MOL0     H19428   4.028  10.595   8.415 -1.3706  0.0432 -1.0561
  905MOL0     H19429   3.973  10.716   8.530  0.1129 -1.3514 -0.4615
  905MOL0     H19430   4.103  10.641   8.711 -0.0094  0.5385 -0.2046
  905MOL0     H19431   4.211  10.534   8.619  0.3982  0.3582 -0.6240
  905MOL0     H19432   3.921  10.507   8.687  0.0719 -1.7543 -0.1103
  905MOL0     H19433   3.979  10.421   8.548 -0.1346 -0.6725  0.1079
  905MOL0     H19434   4.120  10.402   8.823 -1.0401  1.3177  0.1331
  905MOL0     H19435   4.093  10.278   8.686  1.3633 -0.0338  0.3644
  905MOL0     H19436   3.855  10.256   8.762 -0.9320 -2.3984  2.5185
  905MOL0     H19437   3.871  10.367   8.883 -1.3192 -2.8346 -0.4118
  905MOL0     H19438   4.062  10.145   8.861 -0.4596 -0.5163 -2.0612
  905MOL0     H19439   3.991  10.224   9.009 -0.5015  0.0252 -0.4737
  905MOL0     H19440   3.863  10.020   8.835  1.1853 -1.6439 -0.5395
  905MOL0     H19441   3.793  10.097   8.983 -0.4866  0.7718 -1.6561
  905MOL0     H19442   4.393  10.559   8.174 -0.2343 -1.6860  2.1658
  905MOL0     H19443   4.614  10.577   8.134  0.5256  0.7659 -0.5696
  905MOL0     H19444   5.125  10.535   8.325  2.0010  0.0956  0.4523
  905MOL0     H19445   5.355  10.599   8.265  1.0145 -0.1515 -2.4904
  905MOL0     H19446   6.957  11.320   8.140  1.6488  0.7317  1.7131
  905MOL0     H19447   7.178  11.289   8.267 -1.7504 -0.9758  0.7186
  905MOL0     H19448   7.666  11.275   8.090 -0.8263 -1.2108  0.9030
  905MOL0     H19449   7.898  11.278   8.130  1.2314  2.1140  1.8199
  905MOL0     H19450   8.014  11.275   8.522 -1.0985 -0.3214 -0.1366
  905MOL0     H19451   8.010  11.377   8.374 -1.2877  0.0514  1.0634
  905MOL0     H19452   8.268  11.240   8.463 -2.7836 -1.8279 -0.6818
  905MOL0     H19453   8.236  11.335   8.317  1.4997  1.5275  0.9298
  905MOL0     H19454   8.182  11.428   8.596 -0.5333  1.0455 -0.1430
  905MOL0     H19455   8.191  11.532   8.451  0.3329  0.4627  1.4773
  905MOL0     H19456   8.406  11.550   8.589  3.8322  0.9541 -1.9239
  905MOL0     H19457   8.423  11.376   8.585 -0.1252 -0.0984 -0.1968
  905MOL0     H19458   8.570  11.503   8.200 -0.4460 -0.7518 -0.3139
  905MOL0     H19459   7.841  11.050   8.493 -0.3809 -0.4487  0.0557
  905MOL0     H19460   7.602  11.105   8.486  0.9649 -2.1022 -0.3946
  906MOL0     O19461  10.651   6.461   0.236  0.8194  0.3097 -0.1348
  906MOL0     C19462  10.703   6.523   0.148 -0.9392 -0.1802 -0.4768
  906MOL0     O19463  10.633   6.591   0.056 -0.1895 -0.6098  0.3729
  906MOL0     C19464  10.499   6.581   0.075  0.1689 -0.2318  1.1707
  906MOL0     C19465  10.428   6.479   0.010  0.1691  0.3924  0.0984
  906MOL0     C19466  10.290   6.472   0.017 -0.1282 -0.0309 -0.1465
  906MOL0     C19467  10.218   6.577   0.077 -0.3383  0.8390 -0.0001
  906MOL0     O19468  10.084   6.574   0.100 -0.7067 -0.0614  0.4865
  906MOL0     C19469  10.003   6.557  -0.018  0.1908 -0.8337 -1.0380
  906MOL0     C19470   9.860   6.576   0.021  0.3597 -0.1741  0.0696
  906MOL0     C19471   9.777   6.541  -0.096  0.6945 -0.0621  0.0148
  906MOL0     C19472   9.636   6.497  -0.045 -0.3801  0.1720 -0.1935
  906MOL0     C19473   9.636   6.348   0.004  0.0747  0.1022  0.2327
  906MOL0     C19474   9.510   6.335   0.091  0.1156  1.0767 -0.4156
  906MOL0     C19475   9.492   6.186   0.128 -0.5834  0.4148  0.7131
  906MOL0     C19476   9.354   6.162   0.185  0.5138  0.2681  0.6184
  906MOL0     N19477   9.253   6.170   0.076  0.2630 -0.3255 -0.2353
  906MOL0     C19478   9.216   6.067  -0.003 -0.4778 -0.3359 -0.7428
  906MOL0     C19479   9.106   6.107  -0.058  0.0249 -0.7759  0.1327
  906MOL0     C19480   9.019   6.022  -0.149  0.1250  1.1438 -0.1791
  906MOL0     C19481   8.901   5.973  -0.062  0.1919  0.9604  0.5475
  906MOL0     C19482   8.795   5.918  -0.164 -0.1790 -0.4407 -0.3628
  906MOL0     C19483   8.655   5.882  -0.104 -0.4618 -0.1105  0.6985
  906MOL0     O19484   8.573   5.822  -0.204  0.3934  0.3363 -0.3341
  906MOL0     C19485   8.448   5.869  -0.232  0.2632 -0.3373 -0.4817
  906MOL0     C19486   8.343   5.777  -0.228  0.1360 -0.3236  0.0866
  906MOL0     C19487   8.215   5.815  -0.274 -0.1687  0.3831 -0.0643
  906MOL0     C19488   8.194   5.947  -0.322  0.6304 -0.4176 -0.0233
  906MOL0     C19489   8.061   5.984  -0.368  0.3211  0.8199  0.6374
  906MOL0     O19490   7.970   5.877  -0.368  0.1112  0.0746 -0.1545
  906MOL0     C19491   7.837   5.900  -0.398 -0.4979  0.1084  0.0164
  906MOL0     C19492   7.734   5.896  -0.297 -0.0932  0.0490  0.1833
  906MOL0     C19493   7.600   5.899  -0.340 -0.7166 -0.9753  0.2868
  906MOL0     C19494   7.558   5.925  -0.471  0.4361 -0.5815 -0.3267
  906MOL0     O19495   7.430   5.938  -0.521  0.0757 -0.0269 -0.2369
  906MOL0     C19496   7.317   5.886  -0.449 -0.6627 -0.1987  0.1591
  906MOL0     C19497   7.216   5.956  -0.539  0.8502 -0.1133  0.1829
  906MOL0     C19498   7.075   5.900  -0.524 -0.4368 -0.1409 -0.0782
  906MOL0     C19499   6.983   6.006  -0.588  0.1357  0.3977 -0.2415
  906MOL0     C19500   6.844   5.937  -0.610 -1.0148 -0.4039 -0.0263
  906MOL0     C19501   6.745   6.029  -0.689 -0.0732 -0.3908 -0.1816
  906MOL0     C19502   6.755   6.040  -0.836  0.0698  0.2333 -0.2754
  906MOL0     C19503   6.649   6.144  -0.891 -0.2539  0.5262 -0.0774
  906MOL0    Cl19504   6.471   6.087  -0.851 -0.2943  0.2336  0.0734
  906MOL0     C19505   7.658   5.921  -0.566 -0.0269  0.3123  0.4274
  906MOL0     C19506   7.789   5.900  -0.532 -1.0800 -0.0997  0.0406
  906MOL0     O19507   8.037   6.105  -0.397 -0.0771  0.7295 -0.6389
  906MOL0     C19508   8.303   6.033  -0.323 -0.1666  0.8865 -0.6146
  906MOL0     C19509   8.431   5.998  -0.284  0.9834  0.7220  0.4040
  906MOL0     N19510   9.075   6.237  -0.029 -0.4432  0.4310 -0.4309
  906MOL0     N19511   9.167   6.280   0.061 -0.3404  0.6944  0.5098
  906MOL0     C19512  10.287   6.678   0.140 -0.2661 -0.5890 -0.1788
  906MOL0     C19513  10.426   6.690   0.136  0.2428 -0.1830 -0.1225
  906MOL0     C19514  10.851   6.543   0.142 -0.1022 -0.7705 -0.9540
  906MOL0     C19515  10.933   6.500   0.248 -0.1376 -0.2411  0.2447
  906MOL0     C19516  11.068   6.511   0.237 -0.1923 -0.1718 -0.3656
  906MOL0     C19517  11.131   6.576   0.127 -0.1421  0.4460 -0.5618
  906MOL0     O19518  11.261   6.588   0.102  0.0041  0.3911 -0.3033
  906MOL0     C19519  11.365   6.541   0.195  0.1418 -0.6648  0.5588
  906MOL0     C19520  11.510   6.565   0.143 -0.2716 -0.0576 -0.2231
  906MOL0     C19521  11.615   6.580   0.255 -0.1038 -1.1451  0.8082
  906MOL0     C19522  11.751   6.633   0.204 -0.0870 -0.7069 -0.6375
  906MOL0     C19523  11.854   6.645   0.310  0.0901  0.0657 -0.5449
  906MOL0     C19524  11.925   6.664   0.414  0.4939 -0.2014  0.7631
  906MOL0     C19525  11.043   6.624   0.026 -0.1098  0.0901  0.2619
  906MOL0     C19526  10.908   6.610   0.033  0.0859  0.8371 -0.2379
  906MOL0     H19527  10.474   6.408  -0.058  0.0841 -1.8483  2.2403
  906MOL0     H19528  10.235   6.394  -0.035  1.5269  0.1014 -2.2423
  906MOL0     H19529  10.028   6.461  -0.063  1.6749 -1.0710  0.2225
  906MOL0     H19530  10.021   6.642  -0.084 -0.0895  2.3598  2.6049
  906MOL0     H19531   9.828   6.676   0.051 -0.3056  0.1203 -1.5274
  906MOL0     H19532   9.844   6.502   0.100  2.8352 -0.2974  0.5266
  906MOL0     H19533   9.815   6.451  -0.145  0.2646  0.0275 -0.4945
  906MOL0     H19534   9.781   6.631  -0.159 -0.9400  1.7411  2.3143
  906MOL0     H19535   9.607   6.555   0.043 -0.2801 -0.6612  0.4107
  906MOL0     H19536   9.563   6.505  -0.125  0.7620  1.9002 -1.1196
  906MOL0     H19537   9.725   6.337   0.066  1.0982 -1.6302 -1.4393
  906MOL0     H19538   9.635   6.269  -0.071 -3.1055 -0.5967  0.8916
  906MOL0     H19539   9.427   6.381   0.037  0.7906  0.1600 -2.3364
  906MOL0     H19540   9.527   6.395   0.181 -0.2013 -0.0174  0.3925
  906MOL0     H19541   9.503   6.115   0.045  0.1558  1.0492  0.2494
  906MOL0     H19542   9.568   6.167   0.204  1.1772  1.0901 -0.7923
  906MOL0     H19543   9.333   6.231   0.267  2.0125 -1.3970  2.4948
  906MOL0     H19544   9.353   6.064   0.233 -0.3287  0.5285  1.1472
  906MOL0     H19545   9.269   5.973  -0.019  0.8509  0.1685  0.4518
  906MOL0     H19546   9.068   5.930  -0.185  0.6687  1.1444  0.5490
  906MOL0     H19547   8.986   6.077  -0.238 -0.9369  0.2859 -0.3406
  906MOL0     H19548   8.854   6.052  -0.004  0.2092 -0.0866  2.0315
  906MOL0     H19549   8.918   5.886   0.002 -0.5764  1.4710  1.4543
  906MOL0     H19550   8.772   5.996  -0.237 -0.1389 -0.3746 -0.3047
  906MOL0     H19551   8.838   5.831  -0.214  2.4648 -0.7408  2.1384
  906MOL0     H19552   8.603   5.969  -0.063 -0.8419 -0.3458  0.7205
  906MOL0     H19553   8.680   5.813  -0.023  2.6756 -0.7873 -0.6761
  906MOL0     H19554   8.352   5.676  -0.189 -1.4762 -0.9771 -1.0950
  906MOL0     H19555   8.132   5.746  -0.262  0.0949 -0.1121 -1.0214
  906MOL0     H19556   7.757   5.874  -0.193  2.3888 -2.7235 -0.8138
  906MOL0     H19557   7.526   5.899  -0.260 -0.0269 -1.8105  0.9521
  906MOL0     H19558   7.324   5.911  -0.343  2.0173  1.0833 -0.2539
  906MOL0     H19559   7.329   5.778  -0.464 -1.7638 -0.5828  1.8381
  906MOL0     H19560   7.244   5.948  -0.644  0.5780  3.2803 -0.2765
  906MOL0     H19561   7.210   6.064  -0.521 -0.0091 -0.0911 -0.2171
  906MOL0     H19562   7.037   5.872  -0.425 -1.0183 -1.6472 -0.6967
  906MOL0     H19563   7.065   5.805  -0.577  0.8918 -0.4005  0.0802
  906MOL0     H19564   6.960   6.091  -0.524 -2.2590  0.1955 -0.7182
  906MOL0     H19565   7.025   6.037  -0.684  0.2475  3.2473  0.6422
  906MOL0     H19566   6.812   5.895  -0.515 -0.1521 -0.5708  0.2044
  906MOL0     H19567   6.864   5.850  -0.674 -1.6148 -0.1166 -0.6123
  906MOL0     H19568   6.745   6.122  -0.632  1.3675  0.7350 -1.9088
  906MOL0     H19569   6.645   5.985  -0.676 -0.2395 -0.5424 -1.8389
  906MOL0     H19570   6.861   6.058  -0.859  1.0788 -3.7213  0.4134
  906MOL0     H19571   6.744   5.937  -0.872 -0.9711  0.9062 -1.9833
  906MOL0     H19572   6.668   6.157  -0.998  1.2035 -1.7836 -0.1711
  906MOL0     H19573   6.670   6.239  -0.840 -3.0671  1.5006 -0.5492
  906MOL0     H19574   7.626   5.928  -0.669 -1.0136 -1.1610  0.6058
  906MOL0     H19575   7.859   5.879  -0.613  0.6297 -2.4984  2.0133
  906MOL0     H19576   8.280   6.133  -0.360 -0.3043  0.6919 -1.0681
  906MOL0     H19577   8.517   6.063  -0.280  2.5143 -1.2725  2.9228
  906MOL0     H19578  10.233   6.753   0.198  2.0347 -0.8804  2.5925
  906MOL0     H19579  10.483   6.773   0.176 -0.1304 -0.5876  1.3432
  906MOL0     H19580  10.883   6.467   0.339 -0.6865 -0.3969 -0.1083
  906MOL0     H19581  11.125   6.469   0.320  1.3706  0.5192 -1.0519
  906MOL0     H19582  11.350   6.433   0.203 -0.4631 -0.7490 -1.2995
  906MOL0     H19583  11.352   6.588   0.294 -1.1653 -2.6812  1.4249
  906MOL0     H19584  11.545   6.474   0.094  0.3283 -1.7400  3.0065
  906MOL0     H19585  11.513   6.657   0.084  0.8613  0.1058  0.0775
  906MOL0     H19586  11.630   6.483   0.303 -1.0583 -2.0863 -0.7014
  906MOL0     H19587  11.571   6.657   0.318  0.7988  0.6987 -0.7111
  906MOL0     H19588  11.776   6.572   0.116 -3.3822  0.5950 -2.6505
  906MOL0     H19589  11.738   6.734   0.164 -1.4630 -0.2217  0.9446
  906MOL0     H19590  11.988   6.697   0.495  1.9750 -0.7922 -0.1068
  906MOL0     H19591  11.080   6.679  -0.060  2.5202 -2.7426 -0.6117
  906MOL0     H19592  10.834   6.646  -0.038 -1.6327 -0.6381  0.7160
  907MOL0     O19593   5.927   4.708   3.426 -0.3303  0.5150 -0.3373
  907MOL0     C19594   5.965   4.822   3.407 -0.6454 -0.4634 -1.0406
  907MOL0     O19595   5.887   4.924   3.365 -0.0013 -0.0163 -0.6456
  907MOL0     C19596   5.749   4.921   3.356  0.5473  0.3400  0.0088
  907MOL0     C19597   5.675   4.906   3.467 -0.2088  0.4398 -0.7537
  907MOL0     C19598   5.536   4.934   3.463 -0.6414  0.6470 -0.3119
  907MOL0     C19599   5.479   4.992   3.349 -0.5894  0.3024  0.9146
  907MOL0     O19600   5.346   5.037   3.345 -0.0824  0.2411 -0.1593
  907MOL0     C19601   5.249   4.973   3.257 -0.5560  0.2686 -0.0132
  907MOL0     C19602   5.103   4.980   3.304 -0.0665 -0.0348  0.8624
  907MOL0     C19603   5.070   4.877   3.410  0.9359 -0.0846 -0.9186
  907MOL0     C19604   4.937   4.900   3.485 -0.0820 -0.3229  0.4734
  907MOL0     C19605   4.819   4.955   3.391 -0.3533 -0.3184  0.0605
  907MOL0     C19606   4.701   4.970   3.481  1.6179  0.1535 -0.0608
  907MOL0     C19607   4.566   5.021   3.422 -0.9780  0.5529  0.0659
  907MOL0     C19608   4.501   4.915   3.333  0.6971 -0.1766 -0.3392
  907MOL0     N19609   4.370   4.961   3.285 -0.1446 -0.2317 -0.2821
  907MOL0     C19610   4.347   5.092   3.243 -0.9778  0.6306  0.5491
  907MOL0     C19611   4.227   5.088   3.199  1.1731 -0.1087  0.3705
  907MOL0     C19612   4.164   5.211   3.137 -0.1963 -0.8013 -0.4618
  907MOL0     C19613   4.008   5.202   3.114  0.1024  0.7869 -0.0379
  907MOL0     C19614   3.984   5.101   3.006 -0.6407 -0.5020  0.3839
  907MOL0     C19615   3.836   5.087   2.974  0.1525 -0.4325 -0.5965
  907MOL0     O19616   3.796   5.217   2.923 -0.5834  0.0012 -0.0306
  907MOL0     C19617   3.665   5.229   2.875 -0.4861  0.6273  0.5177
  907MOL0     C19618   3.623   5.355   2.836  0.3559 -0.0632  0.0386
  907MOL0     C19619   3.499   5.380   2.793 -0.1879 -0.4493  0.0605
  907MOL0     C19620   3.401   5.278   2.780 -0.7044  0.3214  0.2472
  907MOL0     C19621   3.268   5.294   2.707 -0.4071  0.5733 -0.1334
  907MOL0     O19622   3.180   5.195   2.719 -0.0548  0.2676 -0.3458
  907MOL0     C19623   3.046   5.190   2.668 -0.9421 -0.3375 -0.1085
  907MOL0     C19624   2.962   5.092   2.723  0.3321 -0.3657  0.0352
  907MOL0     C19625   2.833   5.075   2.681  0.7355 -0.3473  1.3995
  907MOL0     C19626   2.766   5.160   2.587 -0.3427 -0.4152  0.9324
  907MOL0     O19627   2.633   5.161   2.542 -0.5092  0.2977  0.2680
  907MOL0     C19628   2.593   5.023   2.527 -0.6046  0.0121 -0.0010
  907MOL0     C19629   2.452   4.984   2.486  0.2858  0.1196 -0.7392
  907MOL0     C19630   2.354   5.016   2.601 -0.4087  0.4860  0.1652
  907MOL0     C19631   2.223   5.035   2.547  0.3207 -0.0914  0.0469
  907MOL0     C19632   2.129   5.069   2.663 -0.5105 -0.9910 -0.3044
  907MOL0     C19633   1.992   5.114   2.608  0.3427 -1.4610  0.4426
  907MOL0     C19634   1.987   5.262   2.572 -1.0352 -1.0171 -0.2751
  907MOL0     C19635   1.840   5.304   2.536  0.4600 -0.2991  0.4445
  907MOL0    Cl19636   1.811   5.472   2.473  0.1999 -0.0240  0.0341
  907MOL0     C19637   2.842   5.265   2.546 -0.2397 -0.3380  0.0419
  907MOL0     C19638   2.984   5.277   2.581 -0.1408 -0.0193  0.1898
  907MOL0     O19639   3.255   5.401   2.655 -0.5631 -0.4291  0.5235
  907MOL0     C19640   3.446   5.146   2.817  0.2893 -0.4798 -0.0976
  907MOL0     C19641   3.577   5.126   2.865  0.6633 -0.0057  0.2717
  907MOL0     N19642   4.175   4.966   3.216  0.0635 -0.1758 -0.6365
  907MOL0     N19643   4.254   4.889   3.283 -0.3337  0.0214  0.4487
  907MOL0     C19644   5.551   5.004   3.231  0.0955  0.1032 -0.7181
  907MOL0     C19645   5.691   4.972   3.237  0.3404 -0.7347  1.0330
  907MOL0     C19646   6.117   4.823   3.413  0.3293  0.2067  0.7262
  907MOL0     C19647   6.192   4.727   3.482 -0.2228 -0.5801 -0.5872
  907MOL0     C19648   6.336   4.736   3.480  0.0781  0.2021  0.5296
  907MOL0     C19649   6.406   4.831   3.403 -0.0840 -0.4927  0.6582
  907MOL0     O19650   6.543   4.831   3.414 -0.0686  0.0928 -0.3281
  907MOL0     C19651   6.615   4.951   3.394  0.4888 -0.4643 -0.6649
  907MOL0     C19652   6.758   4.933   3.431  0.1642  0.2934  0.3922
  907MOL0     C19653   6.786   4.882   3.574 -0.6954 -0.7082 -0.5561
  907MOL0     C19654   6.931   4.914   3.624 -0.3482  1.0063  0.2297
  907MOL0     C19655   7.022   4.862   3.521 -0.0083  0.2424  0.2643
  907MOL0     C19656   7.103   4.833   3.432 -0.8076  0.4434 -0.8713
  907MOL0     C19657   6.328   4.925   3.332 -0.4017 -0.1535 -0.3224
  907MOL0     C19658   6.187   4.920   3.342  0.5893  0.0767 -0.9946
  907MOL0     H19659   5.728   4.871   3.555 -1.0584 -1.6327 -1.0000
  907MOL0     H19660   5.474   4.926   3.552 -1.9017 -0.3017 -1.2487
  907MOL0     H19661   5.271   4.867   3.247  0.5597  0.3122  1.5931
  907MOL0     H19662   5.261   5.020   3.159 -1.2814 -1.8391 -1.1661
  907MOL0     H19663   5.033   4.960   3.222 -0.9134  0.4254  1.4557
  907MOL0     H19664   5.069   5.073   3.351  0.9383  1.2589 -0.8362
  907MOL0     H19665   5.154   4.893   3.478  0.3195  1.3289 -0.4479
  907MOL0     H19666   5.075   4.777   3.368 -0.3017 -0.8083  0.5701
  907MOL0     H19667   4.902   4.810   3.537  1.4439 -1.2466 -0.0436
  907MOL0     H19668   4.955   4.978   3.559  1.8378  0.5952 -0.9037
  907MOL0     H19669   4.807   4.882   3.310 -1.7511 -2.0605  1.7603
  907MOL0     H19670   4.839   5.048   3.337 -0.2269 -1.7448 -2.5701
  907MOL0     H19671   4.741   5.040   3.554 -0.0923  1.1264 -0.0053
  907MOL0     H19672   4.690   4.876   3.537  1.7391 -0.6304 -1.3035
  907MOL0     H19673   4.502   5.045   3.507 -3.0827  0.6123 -1.4613
  907MOL0     H19674   4.595   5.112   3.367 -1.6463 -1.3401 -3.7818
  907MOL0     H19675   4.483   4.832   3.402  0.9602  0.5525  0.6407
  907MOL0     H19676   4.570   4.891   3.252  0.3865 -2.5111  0.0293
  907MOL0     H19677   4.424   5.167   3.231 -0.4368 -0.2964 -3.0199
  907MOL0     H19678   4.207   5.221   3.037 -1.5685  1.7815 -0.8893
  907MOL0     H19679   4.186   5.296   3.203  1.7449 -1.4295 -0.2438
  907MOL0     H19680   3.979   5.303   3.082  3.5893  1.6062 -1.0375
  907MOL0     H19681   3.954   5.162   3.201 -0.3254  0.6672 -0.3542
  907MOL0     H19682   4.038   5.137   2.919  1.3413 -2.0445  0.9128
  907MOL0     H19683   4.009   4.999   3.038 -1.7320 -0.0444  2.9477
  907MOL0     H19684   3.794   5.074   3.074  2.6901  2.6275  1.0784
  907MOL0     H19685   3.820   5.004   2.905  0.4452  0.0407 -1.2477
  907MOL0     H19686   3.682   5.446   2.847  0.1705  0.3688 -1.9720
  907MOL0     H19687   3.487   5.485   2.770  3.5224  0.1533  0.3128
  907MOL0     H19688   2.993   5.020   2.798  2.3653  1.2866  0.8996
  907MOL0     H19689   2.774   5.009   2.744 -0.0521  1.0683  2.2058
  907MOL0     H19690   2.611   4.964   2.618  2.0988 -0.6036 -0.8401
  907MOL0     H19691   2.662   4.986   2.450 -2.1924 -3.0389 -0.1248
  907MOL0     H19692   2.453   4.880   2.451  0.4284  0.2078 -1.0020
  907MOL0     H19693   2.441   5.051   2.401 -1.7260  0.4610 -0.2443
  907MOL0     H19694   2.383   5.108   2.652 -0.5564 -0.5449  2.1768
  907MOL0     H19695   2.348   4.930   2.667 -0.0606  1.7073  1.8610
  907MOL0     H19696   2.230   5.112   2.469  0.8033 -1.2586 -1.1063
  907MOL0     H19697   2.193   4.941   2.500 -1.8431 -0.9945  2.9564
  907MOL0     H19698   2.170   5.145   2.730 -2.2176  0.1033 -0.4422
  907MOL0     H19699   2.116   4.984   2.731 -3.8770  1.3362  2.2743
  907MOL0     H19700   1.915   5.096   2.685 -0.1704 -0.8512  0.0759
  907MOL0     H19701   1.969   5.048   2.524 -0.9318 -0.9851  0.3978
  907MOL0     H19702   2.025   5.325   2.653  1.8108 -1.2489 -1.3204
  907MOL0     H19703   2.039   5.274   2.476 -2.4435  0.5979 -0.8815
  907MOL0     H19704   1.773   5.285   2.621 -0.8300 -2.3009 -0.9169
  907MOL0     H19705   1.797   5.234   2.462  0.7559 -2.8416  2.5170
  907MOL0     H19706   2.797   5.352   2.499  1.2091  0.2985 -0.2398
  907MOL0     H19707   3.029   5.369   2.545 -2.6807  1.9188  1.6229
  907MOL0     H19708   3.388   5.055   2.800  3.3724 -3.0668  2.0276
  907MOL0     H19709   3.615   5.026   2.885  1.8759  0.4005  0.0560
  907MOL0     H19710   5.513   5.043   3.137  1.9370  1.0669 -1.1103
  907MOL0     H19711   5.761   4.996   3.158  0.5044  0.4605  1.5195
  907MOL0     H19712   6.146   4.646   3.538 -1.9501 -1.3454 -2.9576
  907MOL0     H19713   6.393   4.670   3.545  0.3314  0.7065  0.8284
  907MOL0     H19714   6.579   5.032   3.459  1.3826 -1.0846  0.6509
  907MOL0     H19715   6.612   4.988   3.292 -0.8508  0.4391 -0.3173
  907MOL0     H19716   6.813   4.866   3.365  1.3588 -1.2871  2.8336
  907MOL0     H19717   6.813   5.026   3.411 -1.4438  1.8848  2.7966
  907MOL0     H19718   6.775   4.773   3.579  0.0233 -0.7737 -0.2987
  907MOL0     H19719   6.716   4.922   3.647 -1.0399  0.1571 -1.3443
  907MOL0     H19720   6.951   5.021   3.625  5.2419  0.2844 -0.6630
  907MOL0     H19721   6.943   4.885   3.729 -1.8283 -3.0019 -0.4944
  907MOL0     H19722   7.164   4.797   3.352 -2.2896 -1.8449 -1.0602
  907MOL0     H19723   6.370   5.000   3.266  2.1336 -0.3669  0.9414
  907MOL0     H19724   6.134   5.009   3.310 -2.5080 -0.9060  0.9144
  908MOL0     O19725   5.763   2.695  10.502 -0.1062  0.4082 -0.4933
  908MOL0     C19726   5.789   2.803  10.545  0.1795  0.1595 -0.9944
  908MOL0     O19727   5.702   2.903  10.570  0.3137 -0.8337 -0.2260
  908MOL0     C19728   5.564   2.871  10.582  0.6929  0.0911  1.1017
  908MOL0     C19729   5.489   2.985  10.614  1.1698  0.9953  0.7836
  908MOL0     C19730   5.347   2.982  10.610 -0.2786 -0.8127  0.2469
  908MOL0     C19731   5.274   2.862  10.590  0.6780  0.3220 -0.8307
  908MOL0     O19732   5.133   2.866  10.589 -0.2322  0.4765 -0.4716
  908MOL0     C19733   5.072   2.748  10.640  0.7258  0.1759  0.6180
  908MOL0     C19734   4.926   2.768  10.657  0.1891 -0.2607  0.3589
  908MOL0     C19735   4.843   2.776  10.525 -0.0973  0.5522 -0.3302
  908MOL0     C19736   4.693   2.797  10.551  0.2118  0.7313 -0.2699
  908MOL0     C19737   4.613   2.812  10.417 -0.1571 -0.4454 -0.3422
  908MOL0     C19738   4.465   2.808  10.437 -0.9623 -0.4085 -0.4779
  908MOL0     C19739   4.381   2.806  10.303 -0.3679  0.0863 -0.3685
  908MOL0     C19740   4.364   2.941  10.228 -0.5291  0.3369  0.9037
  908MOL0     N19741   4.288   3.036  10.312 -0.3781 -0.3013  0.1930
  908MOL0     C19742   4.151   3.021  10.341  0.0821  0.4178 -0.7269
  908MOL0     C19743   4.116   3.103  10.438 -0.4653 -0.4058 -0.0806
  908MOL0     C19744   3.983   3.107  10.494 -0.0398  0.2856 -0.5609
  908MOL0     C19745   3.897   3.178  10.393  0.2301  0.0241 -0.4168
  908MOL0     C19746   3.757   3.205  10.456 -0.3597  0.7115 -1.0072
  908MOL0     C19747   3.653   3.252  10.355  0.7933  0.4663 -0.0693
  908MOL0     O19748   3.525   3.274  10.428  0.1733 -0.4914  0.2695
  908MOL0     C19749   3.420   3.316  10.346 -0.2639  0.8817  0.1990
  908MOL0     C19750   3.430   3.354  10.211 -0.2513  0.2153 -0.3058
  908MOL0     C19751   3.319   3.404  10.142  0.4428 -0.7240 -0.4461
  908MOL0     C19752   3.194   3.424  10.213 -0.0247  0.2986  0.2647
  908MOL0     C19753   3.072   3.476  10.153  0.1947 -0.7116 -0.4497
  908MOL0     O19754   2.951   3.436  10.211 -0.1825 -0.3673  0.0174
  908MOL0     C19755   2.832   3.474  10.149 -0.1679  0.1381 -0.3861
  908MOL0     C19756   2.729   3.507  10.241 -0.7002 -0.1133 -0.0080
  908MOL0     C19757   2.599   3.541  10.197 -0.0776  0.2491 -0.2346
  908MOL0     C19758   2.568   3.544  10.064  0.4177 -0.7053 -0.2568
  908MOL0     O19759   2.437   3.553  10.012 -0.1566  0.4114  0.1924
  908MOL0     C19760   2.346   3.476  10.095  0.0468  0.7008 -0.0313
  908MOL0     C19761   2.209   3.455  10.028 -0.6435  0.3223  0.3486
  908MOL0     C19762   2.213   3.366   9.898  0.3667  0.3609  0.4112
  908MOL0     C19763   2.086   3.379   9.806  0.1109  0.5703  0.2055
  908MOL0     C19764   1.959   3.382   9.890  0.3846 -0.5233 -0.5235
  908MOL0     C19765   1.830   3.344   9.816 -0.8017  0.5392 -0.8520
  908MOL0     C19766   1.802   3.404   9.681 -0.6238  0.5361 -0.1448
  908MOL0     C19767   1.658   3.388   9.651  0.0471 -0.0923 -0.0707
  908MOL0    Cl19768   1.614   3.400   9.480 -0.0173 -0.4195  0.1329
  908MOL0     C19769   2.673   3.506   9.974 -0.5699  0.0716 -0.0426
  908MOL0     C19770   2.799   3.466  10.018 -0.4975 -0.1154  0.0210
  908MOL0     O19771   3.080   3.544  10.052  0.3996 -1.2372  0.3337
  908MOL0     C19772   3.194   3.376  10.343 -0.3779  0.3172 -0.2499
  908MOL0     C19773   3.304   3.330  10.412 -0.1988 -0.5803  0.0442
  908MOL0     N19774   4.223   3.176  10.464  0.3710 -0.8755  0.2014
  908MOL0     N19775   4.329   3.139  10.394 -1.0163 -0.5099 -0.4545
  908MOL0     C19776   5.351   2.743  10.580 -1.0558  0.0154 -0.3055
  908MOL0     C19777   5.497   2.747  10.568 -0.0293 -0.1181  1.1187
  908MOL0     C19778   5.935   2.829  10.562  0.6237 -0.7497 -0.1395
  908MOL0     C19779   6.030   2.725  10.545  0.1103  0.2162 -0.8147
  908MOL0     C19780   6.168   2.750  10.536 -0.8973 -1.0674  0.1825
  908MOL0     C19781   6.209   2.886  10.548 -0.1558  0.4080 -0.1616
  908MOL0     O19782   6.333   2.939  10.541 -0.0874  0.4621  0.6926
  908MOL0     C19783   6.445   2.849  10.505 -0.6018  0.9968 -0.4641
  908MOL0     C19784   6.578   2.926  10.473  0.2175 -0.6729 -0.7678
  908MOL0     C19785   6.633   3.023  10.583 -0.2561  0.4262  0.0291
  908MOL0     C19786   6.763   3.105  10.535 -0.5209  0.4988 -0.2004
  908MOL0     C19787   6.867   3.009  10.496  0.7769 -0.3551 -0.4714
  908MOL0     C19788   6.952   2.927  10.479 -0.3189  0.1149 -0.7205
  908MOL0     C19789   6.120   2.988  10.578 -0.4152  0.5853 -0.0471
  908MOL0     C19790   5.984   2.967  10.565  0.7926 -0.8717 -0.2514
  908MOL0     H19791   5.534   3.083  10.625 -0.2343  1.6854  0.6283
  908MOL0     H19792   5.301   3.077  10.636  1.4612 -0.2232  1.3506
  908MOL0     H19793   5.128   2.721  10.730  1.2794  0.1617  0.2756
  908MOL0     H19794   5.086   2.662  10.574  0.9821  0.9807 -0.3848
  908MOL0     H19795   4.917   2.868  10.702  0.0197  1.3158 -2.9137
  908MOL0     H19796   4.889   2.690  10.725 -1.2247 -0.0440 -0.1321
  908MOL0     H19797   4.874   2.686  10.472  0.4820  0.8901 -0.5830
  908MOL0     H19798   4.884   2.856  10.463  0.7022  2.0137  1.9313
  908MOL0     H19799   4.644   2.716  10.607  0.0151  0.8191 -0.3136
  908MOL0     H19800   4.679   2.885  10.615 -2.3756 -1.1060  1.9769
  908MOL0     H19801   4.649   2.723  10.365 -1.2843 -1.1707  0.0895
  908MOL0     H19802   4.667   2.896  10.371  1.1266 -0.6620  0.7119
  908MOL0     H19803   4.434   2.895  10.496  1.4045 -0.9906  1.7932
  908MOL0     H19804   4.435   2.720  10.495 -0.9299 -1.4250 -1.9394
  908MOL0     H19805   4.421   2.728  10.238  0.6635  0.5760 -0.3528
  908MOL0     H19806   4.281   2.774  10.332  0.4811 -1.5126  0.8994
  908MOL0     H19807   4.305   2.927  10.137 -2.0594  2.0951  1.5495
  908MOL0     H19808   4.461   2.962  10.184 -1.4874 -0.2786 -1.6904
  908MOL0     H19809   4.082   2.955  10.288  0.3956  1.3088 -2.3173
  908MOL0     H19810   3.994   3.163  10.588  0.6413 -0.8072  0.0265
  908MOL0     H19811   3.947   3.008  10.521 -2.1303  1.0470 -0.3436
  908MOL0     H19812   3.880   3.120  10.301  1.1951  0.4736 -0.8892
  908MOL0     H19813   3.937   3.277  10.374 -1.9122  2.0556  4.1080
  908MOL0     H19814   3.715   3.118  10.507  1.4107 -0.1559 -0.9581
  908MOL0     H19815   3.772   3.285  10.530 -2.6744  1.1358 -0.9039
  908MOL0     H19816   3.641   3.182  10.272 -1.1180  1.9416 -1.1175
  908MOL0     H19817   3.686   3.347  10.312 -1.6777  1.9484  1.0816
  908MOL0     H19818   3.518   3.347  10.148  0.0568 -1.1001  0.2394
  908MOL0     H19819   3.326   3.438  10.039 -0.8144  1.2160  0.0625
  908MOL0     H19820   2.767   3.517  10.342  2.1775  3.2217 -1.2149
  908MOL0     H19821   2.533   3.572  10.277  1.5533  0.9514  0.9065
  908MOL0     H19822   2.328   3.533  10.186 -2.5264 -0.2115  0.1038
  908MOL0     H19823   2.377   3.375  10.123  2.2745  1.7982  1.7966
  908MOL0     H19824   2.182   3.555   9.995  3.6872  1.4386 -0.4945
  908MOL0     H19825   2.137   3.418  10.102  0.8505  1.4055  2.4462
  908MOL0     H19826   2.225   3.264   9.935 -0.4940  0.8210  2.0137
  908MOL0     H19827   2.292   3.387   9.825  2.0186 -0.8583  1.7708
  908MOL0     H19828   2.097   3.475   9.754 -2.3431  0.3638 -0.8270
  908MOL0     H19829   2.077   3.300   9.730 -2.7671  2.1582 -1.3046
  908MOL0     H19830   1.956   3.478   9.942  1.1009 -0.2287 -1.0193
  908MOL0     H19831   1.968   3.312   9.974  0.4312 -1.6594 -1.4521
  908MOL0     H19832   1.743   3.362   9.880 -0.7402  0.9414 -0.8786
  908MOL0     H19833   1.828   3.235   9.815 -0.4692  0.3919  2.7780
  908MOL0     H19834   1.833   3.508   9.681 -2.3223  1.0677  0.1031
  908MOL0     H19835   1.861   3.346   9.608  0.1484  1.1767 -0.0423
  908MOL0     H19836   1.593   3.452   9.712 -0.3725 -1.7389  1.3033
  908MOL0     H19837   1.633   3.287   9.685  1.7430  0.2397  2.4458
  908MOL0     H19838   2.636   3.505   9.872 -2.7430  1.0313  0.6617
  908MOL0     H19839   2.875   3.434   9.948  1.8862 -0.8152  2.7663
  908MOL0     H19840   3.098   3.373  10.395 -0.7443 -1.0805 -0.9547
  908MOL0     H19841   3.299   3.298  10.516 -3.8408  0.7064  0.3979
  908MOL0     H19842   5.294   2.650  10.579 -1.0920 -0.0496  2.3797
  908MOL0     H19843   5.547   2.652  10.549 -1.9473 -0.4678 -3.6128
  908MOL0     H19844   6.005   2.620  10.527 -0.2337  0.2846 -0.7544
  908MOL0     H19845   6.243   2.672  10.542 -1.6953 -1.7449  4.1002
  908MOL0     H19846   6.429   2.773  10.428  0.8592 -0.7044  0.8288
  908MOL0     H19847   6.459   2.782  10.589  0.2442  0.9197 -0.6507
  908MOL0     H19848   6.660   2.857  10.450  2.2713  1.5130 -0.3426
  908MOL0     H19849   6.565   2.989  10.385  1.1032  0.1726 -0.3182
  908MOL0     H19850   6.659   2.958  10.667  2.8852 -1.5408 -2.2411
  908MOL0     H19851   6.558   3.093  10.621  1.8901  2.0766  1.4401
  908MOL0     H19852   6.752   3.176  10.452  2.1037 -0.8530 -1.8500
  908MOL0     H19853   6.800   3.161  10.621 -0.0672 -0.4707  0.2578
  908MOL0     H19854   7.040   2.871  10.454  0.3504  0.2070  1.2573
  908MOL0     H19855   6.163   3.086  10.597 -1.4837  1.0113  0.2776
  908MOL0     H19856   5.920   3.054  10.569  1.9255 -0.0050 -0.5167
  909MOL0     O19857  10.173  11.171   8.817  0.3113  0.2412  0.2029
  909MOL0     C19858  10.167  11.264   8.734  0.2666  0.3227 -0.7834
  909MOL0     O19859  10.056  11.315   8.686  0.2997  0.2165 -0.0708
  909MOL0     C19860   9.929  11.278   8.722 -0.4743 -0.3994  0.1820
  909MOL0     C19861   9.892  11.148   8.768  0.9656 -0.1489 -0.0273
  909MOL0     C19862   9.757  11.111   8.800 -0.6793 -0.4146 -0.3504
  909MOL0     C19863   9.663  11.222   8.806 -1.0324  0.8170 -0.4709
  909MOL0     O19864   9.538  11.220   8.850  0.7965 -0.3669 -0.3270
  909MOL0     C19865   9.488  11.097   8.911 -0.0828  0.2405 -0.3326
  909MOL0     C19866   9.350  11.106   8.955  0.2088 -0.7047 -0.2404
  909MOL0     C19867   9.311  10.999   9.065  0.2031  0.4896  0.2727
  909MOL0     C19868   9.161  11.021   9.089 -0.4849  0.3098 -0.6034
  909MOL0     C19869   9.107  10.920   9.190 -0.0094  0.5752 -0.2536
  909MOL0     C19870   9.088  10.968   9.334  0.7681 -0.3678 -0.1215
  909MOL0     C19871   9.082  10.848   9.435 -0.4632 -0.3504  0.1501
  909MOL0     C19872   9.017  10.890   9.574  0.9187 -0.2991  0.0572
  909MOL0     N19873   8.872  10.923   9.569 -0.2248  0.6049  0.2756
  909MOL0     C19874   8.830  11.056   9.585 -0.2810  0.2713 -0.1732
  909MOL0     C19875   8.691  11.046   9.595 -1.1906  0.5392 -0.1974
  909MOL0     C19876   8.596  11.169   9.595  0.4173  0.1262  0.4770
  909MOL0     C19877   8.523  11.169   9.734 -0.4863 -0.1523  0.2273
  909MOL0     C19878   8.414  11.278   9.760 -0.6159 -0.1712  0.2073
  909MOL0     C19879   8.299  11.278   9.658 -0.0470 -0.4307  0.1830
  909MOL0     O19880   8.206  11.381   9.702  0.7455 -0.2468  0.7590
  909MOL0     C19881   8.084  11.347   9.714  0.5478  0.1794  0.2961
  909MOL0     C19882   7.985  11.366   9.618 -1.2537 -1.2380 -0.8702
  909MOL0     C19883   7.851  11.317   9.630  0.5472 -0.9733 -0.3001
  909MOL0     C19884   7.816  11.249   9.747 -0.2118  0.3562 -1.4941
  909MOL0     C19885   7.684  11.189   9.781 -0.1203 -0.4425  0.4415
  909MOL0     O19886   7.586  11.229   9.699  1.1105 -0.2811  0.1872
  909MOL0     C19887   7.460  11.176   9.723 -1.0822  0.0834  0.5308
  909MOL0     C19888   7.382  11.129   9.621 -0.4457  0.0338 -0.3627
  909MOL0     C19889   7.260  11.064   9.647  0.2879  0.4111 -0.5092
  909MOL0     C19890   7.195  11.076   9.769  1.1184 -0.2054 -0.4006
  909MOL0     O19891   7.068  11.031   9.803 -0.8033  0.2285 -0.5520
  909MOL0     C19892   6.994  10.958   9.699 -0.2209 -0.1125  0.1169
  909MOL0     C19893   6.855  10.948   9.740 -0.1271 -0.8787  0.6397
  909MOL0     C19894   6.792  11.088   9.787  0.0509  0.1906  0.5211
  909MOL0     C19895   6.641  11.075   9.813 -0.7686 -0.1778 -0.2682
  909MOL0     C19896   6.581  11.210   9.855  0.0695  0.5163  1.2257
  909MOL0     C19897   6.589  11.252  10.004 -0.0936  0.1016 -0.1798
  909MOL0     C19898   6.526  11.154  10.100 -0.1403 -0.4736  0.9204
  909MOL0     C19899   6.523  11.210  10.235 -0.3652 -0.4216 -0.1915
  909MOL0    Cl19900   6.427  11.355  10.259 -0.0545 -0.1075 -0.1480
  909MOL0     C19901   7.272  11.137   9.865 -0.2864 -1.0812 -0.4878
  909MOL0     C19902   7.397  11.190   9.846  0.1061 -0.0754 -0.5252
  909MOL0     O19903   7.672  11.115   9.884  0.1555 -0.6775  0.0009
  909MOL0     C19904   7.918  11.231   9.849  0.0805 -0.2822 -0.7319
  909MOL0     C19905   8.049  11.277   9.831  0.7033 -0.0053  0.2112
  909MOL0     N19906   8.661  10.909   9.585 -0.7189 -0.1007  0.1867
  909MOL0     N19907   8.766  10.843   9.561  0.3486 -0.3484  0.1512
  909MOL0     C19908   9.706  11.345   8.759  0.2246 -0.0384 -0.0754
  909MOL0     C19909   9.829  11.371   8.715  0.0030 -0.3682 -0.0287
  909MOL0     C19910  10.295  11.317   8.680  0.3052 -0.8083  0.1552
  909MOL0     C19911  10.296  11.417   8.583  0.0230  0.3011  0.2281
  909MOL0     C19912  10.418  11.468   8.547 -0.4982 -0.2145  0.0475
  909MOL0     C19913  10.536  11.440   8.607 -0.8170 -0.1905 -0.1771
  909MOL0     O19914  10.652  11.507   8.554 -0.2995  0.5069 -0.1293
  909MOL0     C19915  10.754  11.524   8.653  0.2451  0.2719  0.6449
  909MOL0     C19916  10.862  11.624   8.602 -0.7104  0.2190 -0.2826
  909MOL0     C19917  10.919  11.572   8.469  0.9011 -0.0493  0.0346
  909MOL0     C19918  11.012  11.678   8.405  1.4058 -0.5643  0.1902
  909MOL0     C19919  11.141  11.679   8.468  0.3096 -0.7445 -0.2537
  909MOL0     C19920  11.250  11.690   8.507 -0.5219  1.0035  0.4478
  909MOL0     C19921  10.535  11.349   8.717  0.2940 -0.0402  0.2619
  909MOL0     C19922  10.413  11.284   8.746  0.3407 -0.1522 -0.0531
  909MOL0     H19923   9.960  11.064   8.766  1.5662  0.2403  2.0711
  909MOL0     H19924   9.732  11.005   8.807 -3.5024  0.1019 -1.3163
  909MOL0     H19925   9.546  11.062   8.997 -0.6656  0.6233  0.2250
  909MOL0     H19926   9.499  11.025   8.830  0.5284  3.2904 -3.1405
  909MOL0     H19927   9.283  11.099   8.868 -0.9954  0.8787  0.4983
  909MOL0     H19928   9.334  11.204   9.002  1.7777  0.0053 -1.1121
  909MOL0     H19929   9.362  11.006   9.162 -2.5509  0.9443  1.7887
  909MOL0     H19930   9.337  10.898   9.035 -0.1028  0.5720 -0.2818
  909MOL0     H19931   9.154  11.121   9.131  0.4942  0.7797 -1.5365
  909MOL0     H19932   9.107  11.015   8.994 -1.6535 -3.9468  0.1142
  909MOL0     H19933   9.169  10.830   9.190 -1.7975 -0.7384  1.6157
  909MOL0     H19934   9.011  10.878   9.156 -0.4449 -0.1974  1.7966
  909MOL0     H19935   8.997  11.027   9.349  0.1850 -1.1394 -0.5372
  909MOL0     H19936   9.172  11.036   9.349  2.5730 -1.9799 -2.2290
  909MOL0     H19937   9.028  10.766   9.386 -0.9611 -0.0471  0.1794
  909MOL0     H19938   9.179  10.805   9.462  0.0126  1.7851  2.1232
  909MOL0     H19939   9.079  10.967   9.621  0.7524 -0.4272  0.4851
  909MOL0     H19940   9.016  10.811   9.650  2.0464  0.3456  0.7660
  909MOL0     H19941   8.883  11.150   9.573 -0.5421  0.2806 -1.3693
  909MOL0     H19942   8.535  11.141   9.509  0.0492 -2.1954  1.4187
  909MOL0     H19943   8.658  11.257   9.576  2.9724 -1.1392  2.3434
  909MOL0     H19944   8.604  11.174   9.807  0.6815  0.7701 -1.0662
  909MOL0     H19945   8.469  11.076   9.749 -1.4141  0.0887 -1.3640
  909MOL0     H19946   8.367  11.261   9.857 -1.6168  2.5002  0.2637
  909MOL0     H19947   8.470  11.372   9.767  1.1595 -1.2729  5.1145
  909MOL0     H19948   8.252  11.180   9.652  1.5253 -1.2053 -0.1053
  909MOL0     H19949   8.335  11.298   9.556  0.7245 -0.0462  0.5189
  909MOL0     H19950   8.029  11.411   9.530  1.7971  0.1747  1.2062
  909MOL0     H19951   7.776  11.333   9.553  2.8381  3.3433 -1.9561
  909MOL0     H19952   7.436  11.141   9.528 -0.3944  2.8094 -0.0520
  909MOL0     H19953   7.220  11.006   9.564 -0.7588  0.4905 -0.0770
  909MOL0     H19954   7.035  10.857   9.687  0.3523  0.3095 -1.7850
  909MOL0     H19955   6.999  11.013   9.604  3.1855  3.1401  1.8880
  909MOL0     H19956   6.848  10.874   9.821  0.4063 -1.3488  0.2580
  909MOL0     H19957   6.799  10.917   9.651 -0.0928  0.2726  0.2051
  909MOL0     H19958   6.796  11.164   9.710 -2.7349  0.6322  0.6998
  909MOL0     H19959   6.835  11.129   9.879 -0.5769  1.8178  0.1161
  909MOL0     H19960   6.595  11.055   9.716 -3.8228 -0.4495  1.1255
  909MOL0     H19961   6.622  10.993   9.882  2.0345 -0.3234  0.4666
  909MOL0     H19962   6.473  11.210   9.835  0.2718 -0.2586  0.0052
  909MOL0     H19963   6.619  11.285   9.785  0.1340 -2.3675 -2.1406
  909MOL0     H19964   6.530  11.344  10.016 -1.8666 -0.8538 -1.1484
  909MOL0     H19965   6.689  11.272  10.043  0.7002 -1.0264 -1.5793
  909MOL0     H19966   6.423  11.140  10.065  0.4939  1.9474 -2.4835
  909MOL0     H19967   6.575  11.057  10.109  1.6123  0.4033  1.1305
  909MOL0     H19968   6.627  11.220  10.269  0.5979 -1.9040 -2.4891
  909MOL0     H19969   6.484  11.129  10.297  1.6110 -1.4842 -0.2416
  909MOL0     H19970   7.241  11.158   9.967  0.7744  0.0085 -0.3676
  909MOL0     H19971   7.441  11.247   9.928  0.7278  1.6546 -2.0016
  909MOL0     H19972   7.884  11.180   9.939  0.0141 -3.2918 -2.3303
  909MOL0     H19973   8.107  11.267   9.921 -0.3933  2.6061  1.3197
  909MOL0     H19974   9.623  11.416   8.752 -1.4413 -1.7169  1.4931
  909MOL0     H19975   9.845  11.465   8.663 -0.7846 -0.5422 -0.6012
  909MOL0     H19976  10.210  11.449   8.525 -1.6823  1.3065  3.1255
  909MOL0     H19977  10.422  11.558   8.485  1.0353 -0.4218 -0.1934
  909MOL0     H19978  10.798  11.427   8.676 -0.2930 -0.9099 -2.7903
  909MOL0     H19979  10.700  11.564   8.740 -0.3430 -0.3119  0.5580
  909MOL0     H19980  10.816  11.724   8.603 -0.9932  0.1024  1.3984
  909MOL0     H19981  10.947  11.623   8.670  1.5317 -0.3242 -2.9049
  909MOL0     H19982  10.834  11.532   8.414 -0.0656  0.5150  1.0703
  909MOL0     H19983  10.988  11.488   8.483 -0.0279 -0.4929  2.2918
  909MOL0     H19984  11.014  11.658   8.297 -0.8169 -3.1240  0.5145
  909MOL0     H19985  10.974  11.779   8.419  0.9208 -0.7409  0.1669
  909MOL0     H19986  11.352  11.684   8.537  0.5149 -3.1036 -2.8253
  909MOL0     H19987  10.629  11.317   8.760  1.0801  0.4205 -1.0550
  909MOL0     H19988  10.422  11.201   8.816  0.0845  0.2107  0.4227
  910MOL0     O19989   7.037   3.525   6.506  0.4947  0.7565  0.0157
  910MOL0     C19990   7.044   3.624   6.433 -0.5853 -0.7325  0.2225
  910MOL0     O19991   7.144   3.719   6.437  0.0115 -0.1032 -0.8563
  910MOL0     C19992   7.259   3.696   6.510  0.4524  0.1407  0.3105
  910MOL0     C19993   7.295   3.796   6.595 -0.6397 -0.6701  0.4777
  910MOL0     C19994   7.406   3.774   6.677 -0.4823 -0.6343  0.4311
  910MOL0     C19995   7.475   3.649   6.683 -0.0303  0.8622  0.2341
  910MOL0     O19996   7.584   3.637   6.765 -0.1046  0.7344 -0.2050
  910MOL0     C19997   7.703   3.566   6.721 -0.3837  0.7519  0.4455
  910MOL0     C19998   7.807   3.665   6.657  0.6983 -0.8234  0.4578
  910MOL0     C19999   7.848   3.793   6.747  1.2963  0.1222  0.3602
  910MOL0     C20000   7.926   3.905   6.658 -0.5458  0.6042  1.0606
  910MOL0     C20001   8.075   3.881   6.669 -0.6399  0.4317  0.6305
  910MOL0     C20002   8.158   3.994   6.600 -0.3611  0.1958  0.6535
  910MOL0     C20003   8.182   4.117   6.681 -0.2481  0.3463 -0.2028
  910MOL0     C20004   8.261   4.087   6.812  0.7696  0.2655  0.0323
  910MOL0     N20005   8.344   4.203   6.867 -0.0717  0.3113  0.1767
  910MOL0     C20006   8.422   4.284   6.799  0.6075  0.4172  0.4257
  910MOL0     C20007   8.492   4.348   6.884 -0.4821 -0.2186 -0.6777
  910MOL0     C20008   8.588   4.463   6.862  0.1085  0.0802  0.1015
  910MOL0     C20009   8.735   4.430   6.852  0.3551  0.7896  0.2387
  910MOL0     C20010   8.793   4.403   6.992 -0.5857 -0.2776  1.1018
  910MOL0     C20011   8.942   4.431   7.000  0.1771  0.8126 -0.9937
  910MOL0     O20012   8.963   4.420   7.144  0.2252 -0.0558  0.1986
  910MOL0     C20013   9.077   4.470   7.211  0.2252  0.7899 -0.0473
  910MOL0     C20014   9.079   4.450   7.349  0.0194 -0.1799 -0.6373
  910MOL0     C20015   9.184   4.498   7.425 -0.4584 -0.1755 -0.3977
  910MOL0     C20016   9.290   4.570   7.367 -0.3372 -1.0303  0.1155
  910MOL0     C20017   9.398   4.618   7.450 -0.6948 -0.4988 -0.2976
  910MOL0     O20018   9.468   4.733   7.413  0.2000  0.0436  0.2738
  910MOL0     C20019   9.568   4.779   7.491  0.3577 -0.2939 -0.4555
  910MOL0     C20020   9.528   4.842   7.611 -0.3999 -0.0367  0.1095
  910MOL0     C20021   9.623   4.891   7.696  0.6295  0.1219 -0.3984
  910MOL0     C20022   9.757   4.894   7.655  0.2914  0.8551  0.5803
  910MOL0     O20023   9.852   4.949   7.737 -0.5899 -0.0932  0.7614
  910MOL0     C20024   9.879   4.870   7.854  0.2660  0.3110  0.0746
  910MOL0     C20025  10.006   4.916   7.922  0.3732 -0.2304 -0.0308
  910MOL0     C20026  10.125   4.927   7.829  0.3904 -0.5527  0.4297
  910MOL0     C20027  10.247   4.970   7.913 -0.1523 -0.5524 -0.3768
  910MOL0     C20028  10.364   5.000   7.823 -1.0758  0.4063  0.8395
  910MOL0     C20029  10.485   5.035   7.903  0.3060 -0.7023 -0.0509
  910MOL0     C20030  10.605   5.068   7.821  0.1341  0.0341 -0.3761
  910MOL0     C20031  10.729   5.095   7.914  0.8889  0.4998 -0.2775
  910MOL0    Cl20032  10.800   4.935   7.966  0.1283  0.3370  0.6486
  910MOL0     C20033   9.800   4.850   7.534  0.3766  0.0477  1.0286
  910MOL0     C20034   9.699   4.785   7.449 -0.7140  0.0418  0.0095
  910MOL0     O20035   9.411   4.576   7.565 -0.4588  1.0669  0.0288
  910MOL0     C20036   9.281   4.593   7.233 -0.3416  0.1385  0.3370
  910MOL0     C20037   9.176   4.544   7.158  0.5641 -0.4463  0.2751
  910MOL0     N20038   8.456   4.315   7.012  0.6152  0.2139  0.0631
  910MOL0     N20039   8.371   4.222   6.998 -0.6837  0.1247  0.0961
  910MOL0     C20040   7.437   3.541   6.596 -0.2262 -0.8221 -0.1526
  910MOL0     C20041   7.328   3.568   6.515 -0.0573  0.0819  0.6154
  910MOL0     C20042   6.931   3.642   6.340  0.8855  0.2180 -0.0806
  910MOL0     C20043   6.932   3.749   6.253 -0.3721 -0.7435  1.3885
  910MOL0     C20044   6.832   3.760   6.167  0.2254 -0.0056 -0.2548
  910MOL0     C20045   6.719   3.670   6.156 -0.1169 -0.8562  0.0182
  910MOL0     O20046   6.620   3.679   6.063  0.1087  0.2435  0.3394
  910MOL0     C20047   6.642   3.765   5.955  0.4808  0.3229  0.0641
  910MOL0     C20048   6.589   3.898   5.997  0.3249  0.4362 -0.4519
  910MOL0     C20049   6.619   4.017   5.912 -0.5419  0.0410  0.7609
  910MOL0     C20050   6.544   4.004   5.779 -0.0577  0.0797 -0.5745
  910MOL0     C20051   6.554   4.134   5.715  0.6558 -0.3997  0.1769
  910MOL0     C20052   6.570   4.240   5.662 -0.9930 -0.5905 -0.1485
  910MOL0     C20053   6.711   3.567   6.248  0.1527 -0.5193 -0.3091
  910MOL0     C20054   6.818   3.548   6.342  0.2573 -0.6261 -0.8173
  910MOL0     H20055   7.263   3.900   6.593  2.5126  0.4634 -2.1416
  910MOL0     H20056   7.428   3.863   6.735  0.2813  0.9785 -2.1450
  910MOL0     H20057   7.685   3.489   6.645 -0.0220  1.7280 -0.6711
  910MOL0     H20058   7.746   3.525   6.813  1.2354  1.3160 -0.0170
  910MOL0     H20059   7.759   3.685   6.561 -3.2496 -1.5916  2.1097
  910MOL0     H20060   7.903   3.614   6.639  0.7542 -0.4689 -0.2770
  910MOL0     H20061   7.913   3.763   6.830  1.1344  1.7465  1.1161
  910MOL0     H20062   7.757   3.835   6.791  2.0562  3.2599 -0.7711
  910MOL0     H20063   7.887   3.893   6.557 -3.4517  3.6072  1.6782
  910MOL0     H20064   7.904   4.007   6.690 -0.0430  2.1400 -2.9758
  910MOL0     H20065   8.081   3.785   6.616 -2.5169  0.4029  0.3951
  910MOL0     H20066   8.102   3.865   6.774  0.7340 -1.3862  0.0614
  910MOL0     H20067   8.109   4.019   6.505  0.4094 -2.0127 -0.4062
  910MOL0     H20068   8.254   3.954   6.567 -1.4382 -0.9615 -1.2866
  910MOL0     H20069   8.242   4.189   6.624  0.5930 -0.8111 -0.8146
  910MOL0     H20070   8.084   4.153   6.714 -0.1002 -1.5924  2.6650
  910MOL0     H20071   8.324   3.999   6.798  1.1687  0.4603  0.5589
  910MOL0     H20072   8.183   4.060   6.884  2.2423  1.4697  2.1868
  910MOL0     H20073   8.416   4.290   6.691 -0.4586 -2.6281  0.2268
  910MOL0     H20074   8.556   4.537   6.935 -2.2038 -1.7268  1.0575
  910MOL0     H20075   8.563   4.495   6.760  1.0770 -0.2116 -0.2405
  910MOL0     H20076   8.784   4.518   6.808  2.2078 -0.8810 -1.2706
  910MOL0     H20077   8.750   4.349   6.779 -2.6615 -0.5718  0.9820
  910MOL0     H20078   8.749   4.474   7.063  0.4363  1.9823 -0.4066
  910MOL0     H20079   8.770   4.303   7.029 -1.6215 -0.6302 -0.4274
  910MOL0     H20080   8.965   4.531   6.963 -2.3188  1.2657 -1.4839
  910MOL0     H20081   9.012   4.364   6.949 -0.8047  0.7692 -2.3182
  910MOL0     H20082   8.991   4.419   7.404  0.5682  0.6689  0.7644
  910MOL0     H20083   9.190   4.484   7.532  3.2601  1.9138 -0.1805
  910MOL0     H20084   9.423   4.851   7.638 -1.0080 -2.3978 -1.2041
  910MOL0     H20085   9.597   4.923   7.796 -0.7854 -1.4604 -0.2244
  910MOL0     H20086   9.884   4.764   7.825 -0.2496  0.6827 -1.4222
  910MOL0     H20087   9.797   4.877   7.927 -1.5140 -0.2355 -1.7718
  910MOL0     H20088  10.037   4.839   7.994  0.6990 -1.4569 -1.4302
  910MOL0     H20089   9.977   5.011   7.968  0.5785  1.7957 -3.7352
  910MOL0     H20090  10.108   5.002   7.751 -0.5840 -2.6665 -1.4991
  910MOL0     H20091  10.139   4.837   7.768  0.4667 -0.5324  0.4173
  910MOL0     H20092  10.219   5.061   7.965  1.1171 -1.5848  2.3070
  910MOL0     H20093  10.280   4.900   7.990  1.0746  1.1250  0.7008
  910MOL0     H20094  10.337   5.083   7.757  3.9266  1.8423  0.2205
  910MOL0     H20095  10.395   4.914   7.763  0.8740  1.5024  0.1716
  910MOL0     H20096  10.497   4.941   7.957  1.9280 -2.2155 -2.8643
  910MOL0     H20097  10.475   5.116   7.976  1.5389 -0.3578 -0.2330
  910MOL0     H20098  10.619   4.981   7.757  0.8512 -0.6742  0.7078
  910MOL0     H20099  10.602   5.148   7.747 -1.1738 -2.6506 -3.4320
  910MOL0     H20100  10.706   5.150   8.005 -0.0695  1.7710 -1.2583
  910MOL0     H20101  10.807   5.148   7.858  1.2665  0.2081 -0.0400
  910MOL0     H20102   9.906   4.865   7.518  0.1251  0.6922 -0.1518
  910MOL0     H20103   9.739   4.750   7.354  0.0058  0.5002  0.1349
  910MOL0     H20104   9.364   4.641   7.182  1.3080 -0.8862  1.9089
  910MOL0     H20105   9.183   4.570   7.053  0.6637  2.5987  0.9603
  910MOL0     H20106   7.493   3.450   6.578 -1.5883 -1.4975 -1.1346
  910MOL0     H20107   7.289   3.484   6.458  0.0200 -2.9484  4.6078
  910MOL0     H20108   7.014   3.818   6.233 -1.6339  0.4754  0.2141
  910MOL0     H20109   6.853   3.836   6.092 -4.2532  1.7706 -0.0334
  910MOL0     H20110   6.581   3.732   5.870  3.6125 -0.0434 -2.2228
  910MOL0     H20111   6.745   3.759   5.920 -0.1231 -2.8552 -1.5243
  910MOL0     H20112   6.480   3.900   6.002  0.2371 -0.7022 -1.4437
  910MOL0     H20113   6.630   3.922   6.095 -1.1440  1.9536 -0.1738
  910MOL0     H20114   6.724   4.033   5.885 -0.2586  1.4510  2.4957
  910MOL0     H20115   6.578   4.111   5.949 -1.2294  0.8849 -1.9270
  910MOL0     H20116   6.580   3.924   5.713  0.3477  1.2009 -1.7394
  910MOL0     H20117   6.439   3.990   5.805  0.2338 -0.1021  0.5853
  910MOL0     H20118   6.579   4.332   5.609 -1.5426 -1.3677 -1.6328
  910MOL0     H20119   6.636   3.489   6.241  1.3827 -1.7379 -0.3839
  910MOL0     H20120   6.817   3.471   6.418 -1.7713 -0.0086 -0.1529
  911MOL0     O20121   2.690   6.121   3.851  0.2531  0.6442 -0.2577
  911MOL0     C20122   2.656   6.005   3.842  0.0606  0.5231 -0.6434
  911MOL0     O20123   2.548   5.948   3.771 -0.5496 -0.5446 -0.4106
  911MOL0     C20124   2.482   6.029   3.678 -0.3866 -0.3823  0.1663
  911MOL0     C20125   2.535   6.087   3.567 -0.0698  0.5348  0.0321
  911MOL0     C20126   2.460   6.179   3.483  1.2775 -0.5974 -0.6793
  911MOL0     C20127   2.331   6.218   3.520 -0.9805  0.1548 -0.6406
  911MOL0     O20128   2.250   6.303   3.447 -0.3734 -0.0887  0.1483
  911MOL0     C20129   2.151   6.364   3.528  0.2987 -0.8152 -0.5450
  911MOL0     C20130   2.102   6.479   3.440 -0.2740 -0.6950 -0.5840
  911MOL0     C20131   2.007   6.571   3.515  0.4671 -0.1265  0.3611
  911MOL0     C20132   1.975   6.692   3.428 -0.3277 -0.0948  0.0630
  911MOL0     C20133   1.862   6.785   3.477 -0.2914  0.7177 -0.7943
  911MOL0     C20134   1.724   6.746   3.416  0.1581 -0.0289 -0.6507
  911MOL0     C20135   1.619   6.860   3.443 -0.2745  0.6122  0.0423
  911MOL0     C20136   1.500   6.855   3.350 -0.1557 -0.0350  0.5671
  911MOL0     N20137   1.397   6.940   3.406  0.4490  0.4088  0.3953
  911MOL0     C20138   1.264   6.902   3.406 -0.3406 -0.0887 -1.1974
  911MOL0     C20139   1.199   7.014   3.439  0.3678  0.9717  0.2616
  911MOL0     C20140   1.044   7.034   3.423  0.4999  0.1297 -0.3486
  911MOL0     C20141   0.968   6.915   3.476 -0.4202 -0.0132 -0.6129
  911MOL0     C20142   0.814   6.944   3.482 -0.1711 -0.0735 -0.4273
  911MOL0     C20143   0.744   6.829   3.546 -0.1037  0.6416  1.0143
  911MOL0     O20144   0.628   6.772   3.485  0.1261 -0.3927 -1.4118
  911MOL0     C20145   0.521   6.856   3.501  0.4276  1.1569  0.0052
  911MOL0     C20146   0.446   6.843   3.620  0.7330  0.4160 -0.1428
  911MOL0     C20147   0.324   6.901   3.626 -0.7743 -0.3481 -0.1463
  911MOL0     C20148   0.269   6.987   3.527  1.3916  0.0802 -0.2402
  911MOL0     C20149   0.134   7.046   3.540  0.7183  0.1733  0.1077
  911MOL0     O20150   0.067   7.032   3.659 -0.3346 -0.5345 -0.5137
  911MOL0     C20151  -0.066   7.054   3.656  0.7122  0.3382  0.5212
  911MOL0     C20152  -0.141   7.148   3.577 -0.6308 -0.5135 -0.4615
  911MOL0     C20153  -0.280   7.142   3.580 -0.2748  0.9613  0.7714
  911MOL0     C20154  -0.347   7.067   3.676  0.4917 -0.2079  0.4635
  911MOL0     O20155  -0.482   7.063   3.667  0.7906  0.0209 -0.5127
  911MOL0     C20156  -0.556   7.062   3.795 -1.1797 -1.2909 -0.2237
  911MOL0     C20157  -0.560   7.202   3.853  0.3263  0.4700 -0.1537
  911MOL0     C20158  -0.653   7.224   3.977  0.0838  1.0135  0.5072
  911MOL0     C20159  -0.651   7.374   4.020 -0.0661 -0.3961 -0.0130
  911MOL0     C20160  -0.714   7.402   4.153 -0.2246 -0.6540  0.8891
  911MOL0     C20161  -0.863   7.373   4.151 -0.3430 -0.0904  0.0587
  911MOL0     C20162  -0.925   7.418   4.280 -0.9809  0.3774 -0.8149
  911MOL0     C20163  -1.059   7.345   4.298  0.7239  0.1134  0.0926
  911MOL0    Cl20164  -1.035   7.161   4.327 -0.2151 -0.0851  0.0367
  911MOL0     C20165  -0.281   6.972   3.752 -0.4740 -0.2536  0.4746
  911MOL0     C20166  -0.140   6.968   3.743 -0.2844  0.0877 -0.2958
  911MOL0     O20167   0.086   7.075   3.432  0.6588 -0.3966 -0.3893
  911MOL0     C20168   0.354   7.009   3.415 -1.0458 -1.0108 -0.5186
  911MOL0     C20169   0.480   6.949   3.400  0.6857  0.6084 -0.0981
  911MOL0     N20170   1.284   7.119   3.444  0.1710 -0.0407  0.1928
  911MOL0     N20171   1.404   7.075   3.418  0.2587 -0.5368  0.1960
  911MOL0     C20172   2.282   6.153   3.639 -0.5060 -0.4831 -0.0990
  911MOL0     C20173   2.351   6.058   3.714  0.4343 -0.3078 -0.0278
  911MOL0     C20174   2.745   5.904   3.910  0.3281  0.3870 -0.5745
  911MOL0     C20175   2.710   5.765   3.906 -0.2198  0.7601  0.2769
  911MOL0     C20176   2.797   5.667   3.952  0.1709 -1.2888  0.2045
  911MOL0     C20177   2.934   5.707   3.992 -0.6209 -0.4385 -0.1536
  911MOL0     O20178   3.019   5.604   4.004  0.1040 -0.2875 -0.2471
  911MOL0     C20179   3.155   5.626   4.032 -0.1455  0.5161  0.0418
  911MOL0     C20180   3.181   5.609   4.181  0.4159 -0.1022 -0.8297
  911MOL0     C20181   3.333   5.571   4.205  0.1783  0.2176 -0.2877
  911MOL0     C20182   3.378   5.584   4.354 -0.0046  0.2043 -0.6223
  911MOL0     C20183   3.512   5.517   4.364  0.4701 -0.3596  0.0928
  911MOL0     C20184   3.614   5.453   4.350 -0.1564  0.5256  0.1128
  911MOL0     C20185   2.966   5.842   3.985 -0.1899 -0.0658 -0.3924
  911MOL0     C20186   2.877   5.939   3.960  0.9457 -0.2615  0.2119
  911MOL0     H20187   2.636   6.063   3.536 -0.5775 -0.6655 -0.7845
  911MOL0     H20188   2.503   6.230   3.398  0.8256  1.9388  0.5338
  911MOL0     H20189   2.196   6.412   3.615  1.7956 -3.0176 -0.0174
  911MOL0     H20190   2.069   6.302   3.564 -0.2430  0.3291  0.2321
  911MOL0     H20191   2.064   6.442   3.344 -0.5038 -0.7359 -0.4787
  911MOL0     H20192   2.184   6.545   3.410  0.2874 -1.2039 -0.1896
  911MOL0     H20193   2.056   6.615   3.602  2.3060  2.4016 -1.7872
  911MOL0     H20194   1.910   6.529   3.545  0.5382 -1.0762 -0.6688
  911MOL0     H20195   2.069   6.743   3.408  0.0441 -1.2810 -1.3831
  911MOL0     H20196   1.944   6.659   3.329 -0.6359  2.7424 -0.8633
  911MOL0     H20197   1.901   6.884   3.452  2.6409 -0.5676 -1.8512
  911MOL0     H20198   1.859   6.766   3.585  0.8496 -0.3702 -0.9275
  911MOL0     H20199   1.691   6.654   3.466 -0.1437  0.7882  0.7168
  911MOL0     H20200   1.731   6.733   3.308  2.0952  1.3366 -0.7431
  911MOL0     H20201   1.569   6.838   3.538 -2.1705  0.5162 -0.9433
  911MOL0     H20202   1.665   6.957   3.462  2.2271 -0.7655  1.6160
  911MOL0     H20203   1.461   6.755   3.333 -0.7491  0.6929 -3.3347
  911MOL0     H20204   1.536   6.889   3.252  1.6904  0.7861  1.4661
  911MOL0     H20205   1.223   6.809   3.368 -2.8502 -0.5537  2.1597
  911MOL0     H20206   1.016   7.056   3.319 -2.5857 -2.2784 -0.1695
  911MOL0     H20207   1.017   7.127   3.472  3.1759  1.6640 -1.5181
  911MOL0     H20208   1.003   6.895   3.578 -2.0994 -0.9036 -0.1658
  911MOL0     H20209   0.985   6.827   3.414 -1.6135 -0.2635 -0.6231
  911MOL0     H20210   0.788   7.036   3.536  1.5952  1.5715 -2.2547
  911MOL0     H20211   0.774   6.956   3.381 -4.2954  1.7294  1.1833
  911MOL0     H20212   0.714   6.877   3.639 -1.7493 -0.1943  0.9495
  911MOL0     H20213   0.812   6.747   3.572  0.7833  0.9388 -0.2340
  911MOL0     H20214   0.486   6.777   3.697  0.8447  1.1690  0.4563
  911MOL0     H20215   0.262   6.875   3.711  2.6480  0.1259  2.7295
  911MOL0     H20216  -0.080   7.222   3.526 -0.8897  0.4704  0.6087
  911MOL0     H20217  -0.337   7.201   3.509 -0.1889 -0.9586 -0.9963
  911MOL0     H20218  -0.529   6.985   3.868 -1.8647 -1.3535 -0.0283
  911MOL0     H20219  -0.656   7.041   3.756 -1.2168  3.2267 -3.4485
  911MOL0     H20220  -0.596   7.264   3.771  0.8075 -0.3718 -1.0147
  911MOL0     H20221  -0.459   7.238   3.878  0.5841 -0.2282 -0.1689
  911MOL0     H20222  -0.609   7.155   4.049  1.5769 -2.5231 -3.3825
  911MOL0     H20223  -0.757   7.194   3.962  0.0590  1.1697  0.3605
  911MOL0     H20224  -0.553   7.420   4.036  0.5955 -0.1524 -3.8610
  911MOL0     H20225  -0.701   7.437   3.946 -2.6646  0.0091  1.9328
  911MOL0     H20226  -0.706   7.510   4.167  1.4429 -0.7361  0.7800
  911MOL0     H20227  -0.655   7.346   4.226  0.6100 -2.0136 -0.7709
  911MOL0     H20228  -0.876   7.265   4.144 -2.1295 -0.0765  2.0815
  911MOL0     H20229  -0.906   7.426   4.066  0.7234  0.1695 -0.3301
  911MOL0     H20230  -0.855   7.379   4.354 -2.0499 -2.5093 -1.2059
  911MOL0     H20231  -0.939   7.526   4.291  0.0967  0.2992  1.9436
  911MOL0     H20232  -1.128   7.364   4.215 -0.4307  2.8921  1.5388
  911MOL0     H20233  -1.098   7.399   4.385  0.0215  0.6630 -0.5380
  911MOL0     H20234  -0.330   6.908   3.825  0.3178  0.1338  1.3674
  911MOL0     H20235  -0.096   6.905   3.819 -2.5087  1.2706  2.1124
  911MOL0     H20236   0.325   7.079   3.337  2.7150 -0.2495 -1.4201
  911MOL0     H20237   0.535   6.970   3.309 -3.4828  0.6927 -2.8683
  911MOL0     H20238   2.188   6.186   3.682  0.9723  2.8228  0.8955
  911MOL0     H20239   2.308   6.016   3.804  1.5670 -1.2863  0.0858
  911MOL0     H20240   2.616   5.731   3.864  1.3897  0.7376 -3.7004
  911MOL0     H20241   2.757   5.566   3.951 -2.6579 -0.3097 -2.2262
  911MOL0     H20242   3.193   5.723   3.998 -1.5203  0.2902 -2.3829
  911MOL0     H20243   3.211   5.552   3.975 -1.0365 -0.6822  0.6700
  911MOL0     H20244   3.152   5.700   4.234  0.9472 -0.5517  0.2750
  911MOL0     H20245   3.112   5.537   4.226 -0.3152  0.1673 -1.5053
  911MOL0     H20246   3.400   5.622   4.135  1.1786 -0.3285  0.2351
  911MOL0     H20247   3.349   5.464   4.192 -0.7713 -0.0269  0.4689
  911MOL0     H20248   3.394   5.689   4.382  0.5416 -0.2291  0.7818
  911MOL0     H20249   3.297   5.549   4.419 -0.5085 -0.9806 -1.8467
  911MOL0     H20250   3.707   5.399   4.344  0.3308  1.1661  1.5372
  911MOL0     H20251   3.067   5.880   4.000 -1.1304  1.5970  2.7740
  911MOL0     H20252   2.910   6.042   3.956 -0.5931  0.3420  1.8069
  912MOL0     O20253   5.186   1.753   5.358 -0.0731 -0.2964 -0.5682
  912MOL0     C20254   5.213   1.870   5.330 -0.2501  0.8874  0.0983
  912MOL0     O20255   5.121   1.961   5.296  0.8825  0.5051  0.2226
  912MOL0     C20256   4.986   1.933   5.302  0.4793 -1.1198 -0.1511
  912MOL0     C20257   4.933   1.815   5.240  0.4655 -0.0084  0.1344
  912MOL0     C20258   4.806   1.785   5.270 -0.6075 -0.2058 -0.0455
  912MOL0     C20259   4.709   1.866   5.335 -0.9588  0.5425 -0.8097
  912MOL0     O20260   4.576   1.826   5.358  0.1430  0.2532 -0.3925
  912MOL0     C20261   4.531   1.717   5.273 -0.0085  0.5937  0.0736
  912MOL0     C20262   4.381   1.720   5.251 -0.1559  0.2011  0.0795
  912MOL0     C20263   4.311   1.715   5.393  0.6337 -0.0890  0.2057
  912MOL0     C20264   4.159   1.716   5.368 -0.9913  0.0776 -0.2388
  912MOL0     C20265   4.085   1.703   5.500 -0.2722  0.2111  0.6807
  912MOL0     C20266   4.084   1.562   5.563  0.3721 -0.2296 -0.7009
  912MOL0     C20267   3.951   1.530   5.628  0.1096  0.1214  0.9191
  912MOL0     C20268   3.914   1.631   5.747 -0.5955 -0.0816  0.3519
  912MOL0     N20269   3.799   1.571   5.823  0.0497  1.1049 -0.1348
  912MOL0     C20270   3.827   1.482   5.930  0.4230 -0.3557 -0.7601
  912MOL0     C20271   3.708   1.430   5.964  0.4978 -0.3055  0.5877
  912MOL0     C20272   3.681   1.328   6.071  1.1446  0.4711 -0.2657
  912MOL0     C20273   3.655   1.395   6.207  0.7988  0.0257  0.1503
  912MOL0     C20274   3.510   1.412   6.260 -0.4992  0.2999  0.2687
  912MOL0     C20275   3.421   1.500   6.172 -0.6505 -0.4399 -0.2283
  912MOL0     O20276   3.316   1.535   6.256  0.5850  0.4735 -0.5741
  912MOL0     C20277   3.211   1.448   6.256 -0.0559  0.5677  0.4400
  912MOL0     C20278   3.213   1.314   6.202  0.6127  0.2558 -0.2276
  912MOL0     C20279   3.096   1.237   6.192 -0.1873  0.2517 -0.9755
  912MOL0     C20280   2.975   1.282   6.243  0.2833 -1.4429 -0.4113
  912MOL0     C20281   2.850   1.209   6.236  0.2623 -0.7810  0.5054
  912MOL0     O20282   2.742   1.279   6.272  0.1698 -0.0288  0.5075
  912MOL0     C20283   2.610   1.237   6.307 -0.3491 -0.2386  0.4705
  912MOL0     C20284   2.526   1.343   6.332 -0.9826  0.6955 -0.0946
  912MOL0     C20285   2.393   1.317   6.366 -0.1772 -0.5872  0.5308
  912MOL0     C20286   2.344   1.193   6.378  0.2433 -0.1271  0.0294
  912MOL0     O20287   2.212   1.155   6.402 -0.2086  0.1975 -0.5522
  912MOL0     C20288   2.104   1.251   6.394  0.9402  0.2256  0.5019
  912MOL0     C20289   2.005   1.230   6.283 -0.3973  0.2125 -0.5013
  912MOL0     C20290   2.059   1.194   6.150  0.3211  0.5221 -0.4592
  912MOL0     C20291   2.104   1.310   6.059  0.1016  0.5255 -0.3887
  912MOL0     C20292   2.202   1.260   5.951  0.1567 -0.1274  0.8529
  912MOL0     C20293   2.336   1.196   6.003 -0.8523 -0.2390 -0.8981
  912MOL0     C20294   2.443   1.207   5.892 -0.4015  0.4861  0.6752
  912MOL0     C20295   2.582   1.226   5.958 -0.3784  0.2741  0.0901
  912MOL0    Cl20296   2.701   1.217   5.814  0.3502  0.1262 -0.0791
  912MOL0     C20297   2.433   1.087   6.357  0.1197  0.0232 -0.4706
  912MOL0     C20298   2.569   1.105   6.324  0.1403  0.3355 -0.5431
  912MOL0     O20299   2.846   1.096   6.189  0.3345  0.4891  0.6549
  912MOL0     C20300   2.979   1.404   6.315  0.5362 -0.9706 -0.3302
  912MOL0     C20301   3.088   1.488   6.313 -0.0809 -0.2479 -0.0231
  912MOL0     N20302   3.620   1.476   5.874  0.7651  0.0503 -0.3206
  912MOL0     N20303   3.667   1.557   5.785 -0.1246 -0.3646 -0.7090
  912MOL0     C20304   4.771   1.981   5.396  0.2867  0.0486 -0.0992
  912MOL0     C20305   4.903   2.012   5.382  0.1551 -0.1939 -0.2976
  912MOL0     C20306   5.361   1.901   5.318 -0.1881  0.2190 -1.6040
  912MOL0     C20307   5.455   1.798   5.345  0.0051 -0.2453  0.9897
  912MOL0     C20308   5.584   1.822   5.313  0.1447  0.0234  0.2261
  912MOL0     C20309   5.637   1.939   5.274 -0.2862  0.0180 -0.2027
  912MOL0     O20310   5.768   1.960   5.239 -0.6652 -0.0250 -0.2553
  912MOL0     C20311   5.856   1.855   5.183 -0.2613  1.0985  0.4960
  912MOL0     C20312   5.938   1.913   5.070 -0.0926 -0.3823 -0.3373
  912MOL0     C20313   5.854   1.937   4.951 -0.4919  1.0132  0.7009
  912MOL0     C20314   5.923   2.020   4.837 -0.0101  0.9191  0.1422
  912MOL0     C20315   5.956   2.155   4.883  0.3793  0.6345 -0.1340
  912MOL0     C20316   5.980   2.273   4.919  0.3708 -0.0923  0.2663
  912MOL0     C20317   5.548   2.046   5.252  0.7992 -0.0652  0.0785
  912MOL0     C20318   5.408   2.027   5.269  0.2315  0.1611 -0.9791
  912MOL0     H20319   4.983   1.737   5.183  1.7854 -0.6675  2.0911
  912MOL0     H20320   4.771   1.699   5.214 -0.2496 -1.0643  1.0046
  912MOL0     H20321   4.548   1.624   5.327 -2.9879  0.0167  0.1853
  912MOL0     H20322   4.564   1.707   5.170 -5.0027 -1.6483 -1.5989
  912MOL0     H20323   4.346   1.630   5.199  0.9314 -0.3191  0.2179
  912MOL0     H20324   4.352   1.815   5.206 -1.7570  1.6181  3.7149
  912MOL0     H20325   4.341   1.807   5.444 -1.3835  1.1614 -0.7274
  912MOL0     H20326   4.333   1.635   5.464 -1.6911 -0.2756  0.7754
  912MOL0     H20327   4.123   1.809   5.323 -0.1263  0.8566  0.6247
  912MOL0     H20328   4.135   1.644   5.290  3.2233 -0.0355 -1.6690
  912MOL0     H20329   3.983   1.733   5.475 -0.0018 -0.3061 -1.1617
  912MOL0     H20330   4.126   1.767   5.579 -1.2436  1.7678 -0.0157
  912MOL0     H20331   4.166   1.575   5.634  0.4566  1.7652 -1.1066
  912MOL0     H20332   4.111   1.487   5.488 -1.2314  0.2412 -1.7874
  912MOL0     H20333   3.882   1.520   5.544  1.1435 -1.8680  0.2615
  912MOL0     H20334   3.967   1.436   5.682 -1.4003 -0.1875  0.8541
  912MOL0     H20335   3.880   1.728   5.710  1.5089  0.0465 -1.4942
  912MOL0     H20336   3.992   1.639   5.823 -0.7455  0.3436  0.4620
  912MOL0     H20337   3.922   1.463   5.980  0.0598  2.4056  1.2384
  912MOL0     H20338   3.758   1.252   6.077  1.4183  0.7617 -0.0728
  912MOL0     H20339   3.591   1.280   6.031  1.7557 -0.5821 -0.4115
  912MOL0     H20340   3.687   1.500   6.198  2.1402 -0.4786 -1.4929
  912MOL0     H20341   3.710   1.346   6.288 -1.2637 -2.0438  0.4021
  912MOL0     H20342   3.472   1.310   6.269 -2.0828  0.6512 -1.7060
  912MOL0     H20343   3.516   1.445   6.364  0.1492  0.9804  0.0209
  912MOL0     H20344   3.378   1.449   6.085 -1.0892  0.1137 -0.3454
  912MOL0     H20345   3.477   1.585   6.134  0.7678 -0.3095  1.9831
  912MOL0     H20346   3.306   1.277   6.159  0.0967 -1.4262  0.0530
  912MOL0     H20347   3.095   1.137   6.149  0.2637  0.0944 -0.6307
  912MOL0     H20348   2.559   1.446   6.332 -3.4153  1.5240 -0.4149
  912MOL0     H20349   2.330   1.406   6.372  1.4244  0.5975  0.4003
  912MOL0     H20350   2.127   1.358   6.391 -2.5103  1.0437 -0.7701
  912MOL0     H20351   2.038   1.223   6.477 -3.1951  0.0692 -2.5597
  912MOL0     H20352   1.929   1.309   6.281  1.1880  2.0019  2.3590
  912MOL0     H20353   1.939   1.153   6.323 -0.7880  1.4500  1.3817
  912MOL0     H20354   1.974   1.150   6.097  0.6111 -1.0817  0.3510
  912MOL0     H20355   2.138   1.119   6.151 -0.2053 -0.0724  1.7412
  912MOL0     H20356   2.013   1.358   6.024 -0.2295 -1.7999 -3.0572
  912MOL0     H20357   2.160   1.382   6.119  1.9869  0.3030 -1.8014
  912MOL0     H20358   2.213   1.360   5.907  3.0449  0.2497  2.1623
  912MOL0     H20359   2.153   1.185   5.888  1.2056 -1.0092  1.0394
  912MOL0     H20360   2.330   1.091   6.032  1.0296 -0.8711 -2.5447
  912MOL0     H20361   2.358   1.242   6.100 -0.9713 -2.6946  0.3710
  912MOL0     H20362   2.454   1.114   5.835  0.1042 -0.2953  2.0127
  912MOL0     H20363   2.413   1.272   5.809  0.6591 -2.5620 -2.2911
  912MOL0     H20364   2.598   1.140   6.023 -1.8895  1.1563  1.6933
  912MOL0     H20365   2.592   1.321   6.011 -1.3455 -0.2029  1.1633
  912MOL0     H20366   2.403   0.986   6.379  2.4440 -0.7021 -0.3408
  912MOL0     H20367   2.637   1.024   6.297 -0.6038 -0.3599 -0.3572
  912MOL0     H20368   2.895   1.456   6.361 -1.5495 -0.3313 -4.4469
  912MOL0     H20369   3.071   1.590   6.348 -0.0439  0.1327 -1.0858
  912MOL0     H20370   4.709   2.052   5.450  1.6150  0.0315  1.5570
  912MOL0     H20371   4.956   2.088   5.438  0.8489 -2.1282  1.8031
  912MOL0     H20372   5.423   1.701   5.382 -1.0125 -0.6285 -0.7577
  912MOL0     H20373   5.659   1.744   5.305  4.2532  3.6848 -1.0984
  912MOL0     H20374   5.795   1.772   5.147 -0.6618  1.8644 -0.6299
  912MOL0     H20375   5.923   1.828   5.266 -2.5006  0.4054  2.2035
  912MOL0     H20376   5.993   2.000   5.108  0.0006 -1.3531  1.9517
  912MOL0     H20377   6.019   1.843   5.052 -0.2499 -1.1563  1.6788
  912MOL0     H20378   5.755   1.979   4.968 -1.8660 -1.3518 -0.9727
  912MOL0     H20379   5.840   1.838   4.908  2.8269  1.2338 -1.2703
  912MOL0     H20380   6.011   1.969   4.796  0.5751  4.0799 -3.0991
  912MOL0     H20381   5.852   2.029   4.754  1.2433  1.3267 -0.9255
  912MOL0     H20382   5.988   2.376   4.948 -1.4909  0.6023 -1.3924
  912MOL0     H20383   5.587   2.137   5.208  2.3367 -0.2954  0.9249
  912MOL0     H20384   5.332   2.099   5.239 -0.7066 -0.5638 -0.4131
  913MOL0     O20385   5.228   9.279   1.994 -0.4632 -0.5146  0.2274
  913MOL0     C20386   5.285   9.206   2.076 -0.2773 -0.2145  0.1323
  913MOL0     O20387   5.220   9.115   2.155  0.1842 -0.9235  0.3090
  913MOL0     C20388   5.087   9.083   2.126 -0.2883 -0.4850 -1.0932
  913MOL0     C20389   5.037   9.053   2.000  0.7299 -0.3900  0.4876
  913MOL0     C20390   4.899   9.024   1.978 -0.3549  0.4846 -0.4263
  913MOL0     C20391   4.822   9.023   2.089  1.7024  0.6241 -0.3843
  913MOL0     O20392   4.683   9.004   2.078 -0.4235  0.0522  0.3588
  913MOL0     C20393   4.595   9.095   2.140 -0.5333 -0.1030  0.1638
  913MOL0     C20394   4.463   9.070   2.091 -0.2067  0.2237  0.4411
  913MOL0     C20395   4.361   9.140   2.178  0.3711 -0.0286 -0.0721
  913MOL0     C20396   4.216   9.109   2.123 -0.0306 -0.0075  0.2577
  913MOL0     C20397   4.110   9.181   2.213 -0.5859  0.5792 -0.3465
  913MOL0     C20398   3.967   9.165   2.153  0.7967  0.5828  0.4113
  913MOL0     C20399   3.871   9.267   2.205  0.5236 -1.0859 -0.6508
  913MOL0     C20400   3.817   9.241   2.337  0.3037  0.1373 -0.3634
  913MOL0     N20401   3.729   9.359   2.378 -0.1686  0.5944  0.0638
  913MOL0     C20402   3.772   9.468   2.445  0.3291 -0.0860  0.5837
  913MOL0     C20403   3.655   9.538   2.468  0.1386 -0.3397 -0.1586
  913MOL0     C20404   3.646   9.664   2.549 -0.2119 -0.5148  0.3426
  913MOL0     C20405   3.537   9.669   2.656 -0.0406  0.7345  0.7531
  913MOL0     C20406   3.531   9.803   2.721  0.0763 -0.1897  0.5464
  913MOL0     C20407   3.398   9.822   2.790 -0.1974 -0.5648 -0.2760
  913MOL0     O20408   3.395   9.716   2.884 -0.4373  0.5086 -0.2556
  913MOL0     C20409   3.292   9.693   2.967  0.4365 -0.5151 -0.5699
  913MOL0     C20410   3.172   9.774   2.981  0.2517  0.2708 -0.0911
  913MOL0     C20411   3.085   9.762   3.093  0.1714  0.0717 -0.8390
  913MOL0     C20412   3.107   9.665   3.193  0.0427 -0.1070  0.4609
  913MOL0     C20413   3.020   9.659   3.312 -0.5258 -0.9425  1.3109
  913MOL0     O20414   2.939   9.766   3.337  0.0974 -0.3064  0.4003
  913MOL0     C20415   2.854   9.769   3.445  0.1637  0.4131  0.3492
  913MOL0     C20416   2.751   9.681   3.454  0.4238  0.3292 -1.2261
  913MOL0     C20417   2.676   9.681   3.570  0.6900  1.0517  0.6677
  913MOL0     C20418   2.695   9.778   3.671 -0.4627 -0.6792 -0.4457
  913MOL0     O20419   2.609   9.799   3.772  0.3087 -0.1970  0.6382
  913MOL0     C20420   2.505   9.704   3.791  0.0903 -0.9987 -0.1876
  913MOL0     C20421   2.417   9.754   3.906 -0.0514  0.4323  0.8092
  913MOL0     C20422   2.350   9.891   3.887  0.7846 -0.4619 -0.3160
  913MOL0     C20423   2.237   9.914   3.993 -0.0274  0.2991 -0.3943
  913MOL0     C20424   2.193  10.063   4.000  0.0091  0.7733  0.0917
  913MOL0     C20425   2.109  10.081   4.127 -0.0278 -0.0895  0.7720
  913MOL0     C20426   2.009  10.192   4.122  0.5536 -0.7982 -0.5453
  913MOL0     C20427   1.913  10.209   4.236 -0.6104  0.5212  0.5673
  913MOL0    Cl20428   1.986  10.298   4.369 -0.4388  0.1344 -0.1464
  913MOL0     C20429   2.807   9.860   3.663  0.7247  0.2989 -0.3613
  913MOL0     C20430   2.881   9.863   3.545  0.3608  0.1272 -1.0863
  913MOL0     O20431   3.026   9.555   3.379 -0.3437 -0.2806  0.4139
  913MOL0     C20432   3.213   9.580   3.176 -0.3110  0.4778 -0.7293
  913MOL0     C20433   3.304   9.596   3.068 -0.1273  0.0799 -0.6637
  913MOL0     N20434   3.547   9.475   2.416  0.7817  0.0874 -0.0072
  913MOL0     N20435   3.595   9.364   2.364  0.2518 -0.4184 -0.6831
  913MOL0     C20436   4.872   9.038   2.212 -0.2951  0.5652  0.2032
  913MOL0     C20437   5.007   9.072   2.235  0.0335  0.3757  0.3980
  913MOL0     C20438   5.423   9.226   2.085 -0.1684 -0.3854 -0.1033
  913MOL0     C20439   5.474   9.349   2.040  0.5183  0.4721  0.3014
  913MOL0     C20440   5.606   9.374   2.053 -0.1032  0.3425 -0.3114
  913MOL0     C20441   5.695   9.284   2.119  0.5511  1.1234 -0.6279
  913MOL0     O20442   5.828   9.305   2.148 -0.1350 -0.1902 -0.3550
  913MOL0     C20443   5.891   9.436   2.134 -0.1842  0.4761 -0.3357
  913MOL0     C20444   6.033   9.427   2.075  0.0214 -0.6863 -0.1070
  913MOL0     C20445   6.093   9.558   2.017 -0.1713  0.0768  0.6843
  913MOL0     C20446   6.238   9.534   1.976  0.0074  0.2865 -0.3615
  913MOL0     C20447   6.247   9.559   1.837 -0.3154 -0.4097 -0.3409
  913MOL0     C20448   6.254   9.583   1.720  0.2656 -0.1742 -0.3914
  913MOL0     C20449   5.637   9.168   2.166 -0.0771  0.5753 -0.3323
  913MOL0     C20450   5.504   9.133   2.156 -0.2356  0.2042  0.0849
  913MOL0     H20451   5.100   9.059   1.912  0.9729 -2.3558  0.4902
  913MOL0     H20452   4.864   9.024   1.875  1.9269  3.7713 -1.3869
  913MOL0     H20453   4.619   9.197   2.107  0.0519 -0.3998 -0.3391
  913MOL0     H20454   4.603   9.087   2.249  1.6964 -1.9634 -0.0602
  913MOL0     H20455   4.450   8.962   2.091  2.0624 -0.1193 -0.7610
  913MOL0     H20456   4.460   9.098   1.985  2.1306 -1.0364 -0.0210
  913MOL0     H20457   4.377   9.248   2.185  0.2673 -0.1182  2.1517
  913MOL0     H20458   4.377   9.104   2.280  3.1047  0.1895 -0.3493
  913MOL0     H20459   4.215   9.157   2.025 -1.5803  0.4264  0.4554
  913MOL0     H20460   4.209   9.000   2.126  0.5094 -0.0519  0.0583
  913MOL0     H20461   4.135   9.288   2.212  0.0628  0.4309 -0.9352
  913MOL0     H20462   4.108   9.141   2.315 -1.3045 -3.4950 -1.7649
  913MOL0     H20463   3.924   9.067   2.176  0.0345  1.0252  0.9161
  913MOL0     H20464   3.982   9.158   2.045  3.9697  0.2030  0.7756
  913MOL0     H20465   3.920   9.365   2.214 -2.2781  0.2576  1.6996
  913MOL0     H20466   3.785   9.271   2.138  0.5439 -4.5597 -1.0410
  913MOL0     H20467   3.899   9.230   2.409 -0.6997 -1.0776  0.6320
  913MOL0     H20468   3.761   9.147   2.340  2.2580 -1.0832 -0.0099
  913MOL0     H20469   3.876   9.477   2.477  0.4942 -0.1380  0.0862
  913MOL0     H20470   3.638   9.744   2.475  1.8955 -0.4316  0.1422
  913MOL0     H20471   3.739   9.690   2.599  0.4431 -3.8431  1.1116
  913MOL0     H20472   3.553   9.597   2.737  0.9369  1.7610  1.5128
  913MOL0     H20473   3.435   9.651   2.621  0.8809  0.3684 -1.9394
  913MOL0     H20474   3.617   9.817   2.787  0.9683  1.3446 -0.8470
  913MOL0     H20475   3.544   9.873   2.638  4.7114 -2.3035 -0.8907
  913MOL0     H20476   3.319   9.815   2.715  1.0719 -1.5598 -1.5993
  913MOL0     H20477   3.380   9.922   2.830 -2.9872  1.0522 -4.8097
  913MOL0     H20478   3.151   9.845   2.902  1.9374 -0.1997 -1.0150
  913MOL0     H20479   2.999   9.828   3.100  0.9871  1.1698 -0.8662
  913MOL0     H20480   2.746   9.598   3.385  0.9157 -0.1682 -0.6756
  913MOL0     H20481   2.587   9.619   3.560  0.2833  1.9504 -2.0479
  913MOL0     H20482   2.547   9.606   3.816  1.5587  0.1639  2.2969
  913MOL0     H20483   2.447   9.695   3.699  0.5773 -2.7954 -0.3623
  913MOL0     H20484   2.478   9.759   3.997  0.3327 -1.4132  0.6849
  913MOL0     H20485   2.344   9.675   3.923  1.3524 -1.3358 -0.9620
  913MOL0     H20486   2.305   9.897   3.788  1.5388  0.7222 -0.6064
  913MOL0     H20487   2.427   9.966   3.905  2.4513 -2.2036  0.0958
  913MOL0     H20488   2.158   9.840   3.981 -0.5969  0.3026  2.5053
  913MOL0     H20489   2.281   9.910   4.093  0.6873  3.8322 -0.4355
  913MOL0     H20490   2.138  10.071   3.905  1.3646 -1.0738 -0.9366
  913MOL0     H20491   2.275  10.136   4.001  0.8091 -0.0486  2.8538
  913MOL0     H20492   2.176  10.102   4.212  1.7930 -1.4830 -0.2464
  913MOL0     H20493   2.062   9.986   4.152 -1.2338  0.5181  0.8593
  913MOL0     H20494   2.063  10.286   4.109 -0.0161 -0.4316 -0.3393
  913MOL0     H20495   1.947  10.179   4.032  0.1296  2.1982 -0.7915
  913MOL0     H20496   1.869  10.114   4.271 -0.2251 -0.5070 -1.5713
  913MOL0     H20497   1.830  10.276   4.212 -0.4421  1.0626  1.4513
  913MOL0     H20498   2.843   9.930   3.738  1.1260  0.2735 -0.5256
  913MOL0     H20499   2.959   9.938   3.536  0.4895  0.1589  0.0914
  913MOL0     H20500   3.235   9.500   3.246 -0.2154 -0.3642 -1.7060
  913MOL0     H20501   3.396   9.538   3.075  0.1545  0.6741  0.8467
  913MOL0     H20502   4.800   9.038   2.294 -0.5470  4.0599  0.0981
  913MOL0     H20503   5.036   9.083   2.339 -0.8878  3.4220  0.4368
  913MOL0     H20504   5.410   9.417   1.984  0.9881 -0.2856 -1.2260
  913MOL0     H20505   5.638   9.469   2.010 -4.1518  2.1250  0.1460
  913MOL0     H20506   5.906   9.473   2.236 -1.2211  0.6055 -0.2164
  913MOL0     H20507   5.840   9.520   2.086  1.6668  0.7685 -1.9182
  913MOL0     H20508   6.105   9.398   2.152  2.5564 -1.8608 -2.7071
  913MOL0     H20509   6.044   9.357   1.991 -2.4605 -0.3780 -0.7670
  913MOL0     H20510   6.084   9.637   2.093 -0.9089  2.0477 -1.3469
  913MOL0     H20511   6.024   9.590   1.939 -3.4452 -1.6202  2.6231
  913MOL0     H20512   6.305   9.600   2.032 -1.6047  4.2281 -2.6177
  913MOL0     H20513   6.271   9.434   2.003  0.3915 -0.3966 -3.0940
  913MOL0     H20514   6.260   9.599   1.614 -0.8367  0.8772 -0.3160
  913MOL0     H20515   5.702   9.092   2.209  0.3891  0.5846 -1.0020
  913MOL0     H20516   5.462   9.038   2.188 -1.1055  0.5058 -0.1354
  914MOL0     O20517   1.057   5.095   8.361 -0.0358 -0.2313  0.6539
  914MOL0     C20518   1.069   5.196   8.292 -0.2184 -0.1259 -0.5121
  914MOL0     O20519   0.994   5.309   8.303 -0.5614 -0.0329 -0.0605
  914MOL0     C20520   0.863   5.306   8.347  0.1011 -0.6326  0.0504
  914MOL0     C20521   0.808   5.435   8.370 -0.2676  0.2488 -0.0812
  914MOL0     C20522   0.678   5.453   8.416 -0.1014  0.1276 -1.1164
  914MOL0     C20523   0.605   5.340   8.457  0.6799  0.4644 -0.6025
  914MOL0     O20524   0.493   5.345   8.527  0.2906 -0.2531 -0.0565
  914MOL0     C20525   0.472   5.443   8.631  0.9344 -0.0445  0.2737
  914MOL0     C20526   0.330   5.495   8.608 -0.8438 -1.1822  0.2520
  914MOL0     C20527   0.299   5.588   8.729 -0.5040 -0.2212  0.5508
  914MOL0     C20528   0.158   5.645   8.696  0.5713  0.1626  0.9136
  914MOL0     C20529   0.118   5.737   8.792  0.4431 -0.9507  0.0645
  914MOL0     C20530   0.004   5.832   8.742  0.0731  0.4320  1.2882
  914MOL0     C20531  -0.126   5.750   8.726  0.4449  0.0757 -0.4256
  914MOL0     C20532  -0.237   5.843   8.681  0.5352 -0.1374  0.3003
  914MOL0     N20533  -0.339   5.774   8.601 -0.9217 -0.3856  0.8407
  914MOL0     C20534  -0.458   5.733   8.654  0.4240  0.5263  0.6699
  914MOL0     C20535  -0.523   5.665   8.564  0.2547 -0.2116  0.7661
  914MOL0     C20536  -0.667   5.616   8.566 -0.0746 -0.2639  0.3999
  914MOL0     C20537  -0.766   5.700   8.631 -0.4898 -0.1366 -0.3582
  914MOL0     C20538  -0.905   5.627   8.619  0.1133  0.2671 -0.0843
  914MOL0     C20539  -1.026   5.694   8.683  0.5626 -0.2675 -0.2949
  914MOL0     O20540  -1.058   5.809   8.613 -0.5500  0.4343  0.4114
  914MOL0     C20541  -1.164   5.869   8.671  0.6338  1.2640 -0.4451
  914MOL0     C20542  -1.303   5.848   8.644  0.2035 -0.4166  0.3906
  914MOL0     C20543  -1.401   5.919   8.719  0.3087  0.4846  0.4347
  914MOL0     C20544  -1.373   6.003   8.823 -0.1801  0.6364  0.0100
  914MOL0     C20545  -1.478   6.066   8.900 -0.2970  0.0575 -0.1712
  914MOL0     O20546  -1.612   6.019   8.904  0.2868  0.1433 -0.4539
  914MOL0     C20547  -1.689   6.096   8.986 -0.4265  0.5397 -0.8207
  914MOL0     C20548  -1.810   6.140   8.938 -0.4528  0.0571  0.1355
  914MOL0     C20549  -1.907   6.205   9.015 -0.7952 -0.9255 -1.0783
  914MOL0     C20550  -1.873   6.247   9.144  0.0689  0.4569 -0.2786
  914MOL0     O20551  -1.967   6.328   9.214 -0.4046 -0.6556  0.3081
  914MOL0     C20552  -1.978   6.284   9.348  0.0234 -0.8131 -0.0349
  914MOL0     C20553  -2.083   6.376   9.422 -0.0468  0.0276 -0.5744
  914MOL0     C20554  -2.151   6.286   9.533 -0.4119 -0.5245  0.4645
  914MOL0     C20555  -2.250   6.365   9.618  0.2583  0.8159 -0.1616
  914MOL0     C20556  -2.396   6.382   9.560  0.1088  0.6031  0.3888
  914MOL0     C20557  -2.482   6.471   9.653 -0.3626  1.1356 -0.0580
  914MOL0     C20558  -2.611   6.513   9.589  0.3323  0.0733 -0.2427
  914MOL0     C20559  -2.706   6.601   9.675 -0.0081  0.8234  0.4058
  914MOL0    Cl20560  -2.629   6.762   9.693  0.2827 -0.0120  0.0540
  914MOL0     C20561  -1.742   6.212   9.195  0.3832  1.1172 -0.1473
  914MOL0     C20562  -1.654   6.133   9.122  0.1781  1.0300  0.1538
  914MOL0     O20563  -1.445   6.173   8.943 -0.5671 -0.6809 -0.0497
  914MOL0     C20564  -1.237   6.026   8.845  0.6676  0.4891  0.5600
  914MOL0     C20565  -1.138   5.962   8.771  0.1067  0.6751  0.1906
  914MOL0     N20566  -0.438   5.636   8.464 -0.3111  0.3485  0.0959
  914MOL0     N20567  -0.328   5.707   8.482 -0.3061  0.0130 -0.9150
  914MOL0     C20568   0.659   5.211   8.439 -0.2345 -0.3176 -0.0722
  914MOL0     C20569   0.783   5.202   8.385 -0.2456  0.9951  0.1563
  914MOL0     C20570   1.199   5.222   8.233 -0.8493  0.2425 -0.3129
  914MOL0     C20571   1.235   5.339   8.174 -0.0346  0.0056 -0.2553
  914MOL0     C20572   1.367   5.363   8.141  0.4939  0.3755  1.3348
  914MOL0     C20573   1.463   5.262   8.151 -0.8403 -0.6383  0.1913
  914MOL0     O20574   1.587   5.289   8.111 -0.3862  0.5821  0.1578
  914MOL0     C20575   1.684   5.189   8.100 -0.2859  0.0185 -0.5487
  914MOL0     C20576   1.817   5.241   8.045  0.0383 -0.7793  0.8089
  914MOL0     C20577   1.871   5.372   8.114 -0.2730  0.8239  1.1723
  914MOL0     C20578   1.914   5.345   8.255 -0.2434  0.8057  0.4258
  914MOL0     C20579   2.015   5.235   8.276  0.2125  0.3711 -0.0745
  914MOL0     C20580   2.096   5.141   8.282  0.1835 -0.3814  0.0538
  914MOL0     C20581   1.432   5.143   8.212 -0.2073  0.0516 -0.8186
  914MOL0     C20582   1.300   5.118   8.250 -0.5235  0.1626 -0.1029
  914MOL0     H20583   0.868   5.521   8.342  0.8451 -0.5454 -0.2420
  914MOL0     H20584   0.630   5.548   8.439 -1.9956 -0.7403 -1.2771
  914MOL0     H20585   0.547   5.522   8.625  0.9945 -0.1977 -2.3266
  914MOL0     H20586   0.477   5.398   8.730  0.8876 -3.0493 -0.9762
  914MOL0     H20587   0.259   5.412   8.613 -0.6947 -1.2435  2.3988
  914MOL0     H20588   0.333   5.548   8.513  2.1147 -0.1879  0.7836
  914MOL0     H20589   0.376   5.665   8.736  0.5017 -0.8385 -2.2173
  914MOL0     H20590   0.304   5.536   8.825  1.3053 -1.2590 -0.0686
  914MOL0     H20591   0.151   5.681   8.593  1.3131  0.0930  0.8370
  914MOL0     H20592   0.082   5.567   8.695  0.6831 -0.0333 -1.7834
  914MOL0     H20593   0.201   5.806   8.811 -1.9304  2.8091 -2.0153
  914MOL0     H20594   0.093   5.678   8.880 -0.3731 -1.4329 -0.4817
  914MOL0     H20595   0.025   5.880   8.646 -0.0265  0.8180  1.4571
  914MOL0     H20596  -0.009   5.914   8.813 -2.5360  0.0215  1.4044
  914MOL0     H20597  -0.128   5.672   8.649 -2.5103 -0.1841 -0.2238
  914MOL0     H20598  -0.149   5.703   8.822  0.0400 -4.6834 -2.5721
  914MOL0     H20599  -0.194   5.924   8.621 -3.6668  1.0859 -1.4060
  914MOL0     H20600  -0.281   5.898   8.765 -0.9332  0.4802 -0.8329
  914MOL0     H20601  -0.499   5.749   8.753  0.3542 -0.1353  0.7559
  914MOL0     H20602  -0.661   5.519   8.616 -0.4174 -0.2374  0.4926
  914MOL0     H20603  -0.701   5.603   8.463 -1.1665  1.1651  0.5499
  914MOL0     H20604  -0.760   5.797   8.581 -0.0444  0.5282  0.9271
  914MOL0     H20605  -0.747   5.721   8.737  1.2032  2.8976 -1.1417
  914MOL0     H20606  -0.924   5.615   8.512  0.3004  0.5941 -0.1573
  914MOL0     H20607  -0.897   5.526   8.660 -2.0115 -0.2590 -0.8439
  914MOL0     H20608  -1.004   5.720   8.787  3.0491 -1.9748 -0.3065
  914MOL0     H20609  -1.103   5.616   8.679 -2.1419  2.1581  0.8127
  914MOL0     H20610  -1.341   5.787   8.562  2.1509 -3.4015  1.5200
  914MOL0     H20611  -1.502   5.917   8.679  1.2182 -0.5445 -2.0456
  914MOL0     H20612  -1.847   6.108   8.841  0.4069 -1.7463  0.3724
  914MOL0     H20613  -2.006   6.223   8.973 -1.4260  2.5456  1.3967
  914MOL0     H20614  -1.886   6.279   9.408  0.3015 -0.6402 -0.4470
  914MOL0     H20615  -2.018   6.183   9.337 -2.5345  0.2225 -1.1347
  914MOL0     H20616  -2.167   6.401   9.356  0.2061  4.1845  0.4110
  914MOL0     H20617  -2.024   6.462   9.455  0.6313 -1.2674  1.8330
  914MOL0     H20618  -2.075   6.257   9.607 -2.4789 -1.1332  2.4538
  914MOL0     H20619  -2.214   6.203   9.501 -1.1037 -0.5257  1.7655
  914MOL0     H20620  -2.257   6.321   9.718 -2.6131 -1.1056 -1.0892
  914MOL0     H20621  -2.201   6.460   9.644  1.6096 -0.2619  1.4100
  914MOL0     H20622  -2.443   6.285   9.546 -1.0784  1.1920  0.1399
  914MOL0     H20623  -2.387   6.428   9.461 -3.1140  1.5641  0.4375
  914MOL0     H20624  -2.413   6.552   9.677  1.8922 -0.4221 -0.9190
  914MOL0     H20625  -2.501   6.411   9.743 -1.0513 -1.6876 -1.9474
  914MOL0     H20626  -2.584   6.563   9.496  1.7213 -0.9631 -0.4269
  914MOL0     H20627  -2.675   6.428   9.565  0.8086 -0.6084  0.8059
  914MOL0     H20628  -2.726   6.552   9.771  0.0175 -1.3473 -0.6602
  914MOL0     H20629  -2.804   6.618   9.629  0.0485  0.1128  0.0144
  914MOL0     H20630  -1.704   6.246   9.290  0.8057  1.9910 -0.6120
  914MOL0     H20631  -1.559   6.103   9.165 -2.0096 -0.3207  4.6964
  914MOL0     H20632  -1.209   6.098   8.922  1.0243  0.2575  0.6514
  914MOL0     H20633  -1.031   5.968   8.792  0.3384 -0.5344 -0.5252
  914MOL0     H20634   0.586   5.135   8.467 -0.5014  0.5032  1.6508
  914MOL0     H20635   0.805   5.098   8.361  1.2245  1.1186  0.8640
  914MOL0     H20636   1.171   5.427   8.177 -0.7114 -0.5115  2.6351
  914MOL0     H20637   1.398   5.455   8.094  1.6606  0.3903  2.0844
  914MOL0     H20638   1.646   5.101   8.047  0.7385 -1.9112  1.7291
  914MOL0     H20639   1.714   5.152   8.198  0.3013  1.3739 -0.1951
  914MOL0     H20640   1.896   5.166   8.038 -0.3479 -1.0663 -0.8177
  914MOL0     H20641   1.786   5.255   7.941 -1.2529 -0.5985  1.1995
  914MOL0     H20642   1.803   5.457   8.103  1.0733  1.8163  0.2964
  914MOL0     H20643   1.958   5.400   8.054  0.7404 -0.7420  1.8419
  914MOL0     H20644   1.956   5.438   8.293 -0.6158 -0.2728  3.8427
  914MOL0     H20645   1.819   5.338   8.309 -0.4282  0.5463  0.0714
  914MOL0     H20646   2.158   5.056   8.295  1.3035  0.8550  3.9823
  914MOL0     H20647   1.501   5.060   8.224  0.3477  0.2247 -2.4894
  914MOL0     H20648   1.276   5.026   8.303  1.8205  0.3237  1.4060
  915MOL0     O20649   3.552  10.008   4.359  0.5571 -0.8915 -0.4610
  915MOL0     C20650   3.542  10.083   4.261 -0.2236  0.5964  0.4981
  915MOL0     O20651   3.453  10.083   4.158  0.5099 -0.5692 -0.3879
  915MOL0     C20652   3.324  10.019   4.167 -0.3321  0.3522  0.2424
  915MOL0     C20653   3.237  10.040   4.062  0.6028 -0.1289  0.2103
  915MOL0     C20654   3.108   9.983   4.068 -0.5376 -0.2392 -0.0494
  915MOL0     C20655   3.061   9.904   4.176  0.1302  1.0266 -0.8693
  915MOL0     O20656   2.933   9.853   4.189 -0.1288  0.4071 -0.3304
  915MOL0     C20657   2.869   9.798   4.070  0.0533 -0.8831  0.0081
  915MOL0     C20658   2.732   9.737   4.104 -0.3708  0.0848  0.6534
  915MOL0     C20659   2.719   9.653   4.234  0.0219  0.3570 -0.7560
  915MOL0     C20660   2.610   9.549   4.221  0.3035  0.3585 -0.4625
  915MOL0     C20661   2.628   9.428   4.317 -0.5197  0.2908 -0.4336
  915MOL0     C20662   2.578   9.447   4.462 -0.6674  0.3915 -0.1651
  915MOL0     C20663   2.429   9.441   4.480 -0.0667  0.5144 -0.3067
  915MOL0     C20664   2.386   9.341   4.585 -0.7630 -0.1301  1.0737
  915MOL0     N20665   2.241   9.326   4.580  0.2875  0.2711 -0.0202
  915MOL0     C20666   2.155   9.405   4.653 -0.4713 -0.0395  0.3731
  915MOL0     C20667   2.029   9.353   4.629 -0.5105  0.1101  0.6602
  915MOL0     C20668   1.900   9.414   4.667  0.4102  0.1692 -0.1945
  915MOL0     C20669   1.794   9.328   4.723 -0.0685  0.5944 -0.2495
  915MOL0     C20670   1.678   9.416   4.759  0.6684 -1.3235  0.6649
  915MOL0     C20671   1.552   9.332   4.777 -0.1336  0.9078 -0.0501
  915MOL0     O20672   1.432   9.409   4.812 -0.9618  0.1841 -0.7134
  915MOL0     C20673   1.332   9.355   4.886 -0.5140 -0.1424  0.9126
  915MOL0     C20674   1.256   9.437   4.974 -0.8052  0.2605 -0.4371
  915MOL0     C20675   1.146   9.388   5.042 -0.6681 -0.3878 -0.0718
  915MOL0     C20676   1.122   9.245   5.037  0.6183  0.8116  0.3837
  915MOL0     C20677   1.003   9.198   5.101 -0.3277  0.8731  1.1545
  915MOL0     O20678   0.931   9.290   5.167  0.8393  0.2082  0.3391
  915MOL0     C20679   0.816   9.234   5.233 -0.3733  0.6007  0.0916
  915MOL0     C20680   0.695   9.282   5.193 -0.2661  0.8760  0.7379
  915MOL0     C20681   0.586   9.241   5.265 -0.8885 -0.2968  0.4972
  915MOL0     C20682   0.592   9.150   5.366 -0.2576  0.2869  0.3294
  915MOL0     O20683   0.474   9.118   5.427 -0.0381 -0.4361  0.1627
  915MOL0     C20684   0.454   8.986   5.478  0.6048 -0.6027 -0.3974
  915MOL0     C20685   0.309   8.954   5.463  0.1632  0.2568  0.2420
  915MOL0     C20686   0.279   8.812   5.494  0.2230 -0.6465 -0.7191
  915MOL0     C20687   0.130   8.790   5.533  0.2930  0.4285 -0.2523
  915MOL0     C20688   0.097   8.651   5.592 -0.2965  0.0878 -0.6410
  915MOL0     C20689  -0.034   8.651   5.679  0.6971  0.0864 -0.1785
  915MOL0     C20690  -0.143   8.748   5.627  0.1704 -0.2361  0.3924
  915MOL0     C20691  -0.258   8.754   5.735 -0.0275  0.1492  0.3462
  915MOL0    Cl20692  -0.327   8.589   5.741  0.0947  0.1858 -0.1550
  915MOL0     C20693   0.711   9.094   5.407  0.0049  0.2521 -0.5511
  915MOL0     C20694   0.829   9.152   5.350  0.5633  0.1084 -0.3106
  915MOL0     O20695   0.972   9.081   5.090 -0.0489  0.1647 -0.9390
  915MOL0     C20696   1.196   9.161   4.949 -0.2118  0.2614  0.0541
  915MOL0     C20697   1.304   9.215   4.873  0.7609  0.4128  0.3153
  915MOL0     N20698   2.042   9.238   4.549 -0.8623 -0.9675  0.2574
  915MOL0     N20699   2.167   9.236   4.520 -0.4877  0.0679  0.3208
  915MOL0     C20700   3.157   9.876   4.268 -0.0222 -0.2291  0.0124
  915MOL0     C20701   3.282   9.935   4.270 -1.0380  0.1904  1.2652
  915MOL0     C20702   3.667  10.165   4.244 -0.3914 -0.2318 -0.3068
  915MOL0     C20703   3.751  10.199   4.348 -0.3783  0.1693  0.6190
  915MOL0     C20704   3.870  10.267   4.326  0.4517 -0.6390  0.2658
  915MOL0     C20705   3.906  10.320   4.201  1.0127  0.2433 -0.0047
  915MOL0     O20706   4.023  10.387   4.176 -0.1102 -0.1688  0.3840
  915MOL0     C20707   4.116  10.419   4.290 -0.0249  0.0717  0.0400
  915MOL0     C20708   4.226  10.503   4.232  0.3423  0.6778 -0.6617
  915MOL0     C20709   4.323  10.571   4.333  0.2682  0.0176 -0.0881
  915MOL0     C20710   4.259  10.584   4.476  0.5194  0.2779 -0.4853
  915MOL0     C20711   4.273  10.451   4.541  0.2266  0.4811 -0.9365
  915MOL0     C20712   4.301  10.345   4.599 -0.3009 -0.2147  0.4359
  915MOL0     C20713   3.821  10.287   4.092  0.0809  0.4405  0.6801
  915MOL0     C20714   3.705  10.205   4.116  0.2029  0.4743 -0.0330
  915MOL0     H20715   3.261  10.103   3.977 -0.7422 -0.6180 -0.5703
  915MOL0     H20716   3.046  10.003   3.981 -2.9733 -2.4854  1.0546
  915MOL0     H20717   2.938   9.726   4.027  1.4412  1.5130 -2.0568
  915MOL0     H20718   2.861   9.872   3.990 -0.9575 -0.4478  0.4876
  915MOL0     H20719   2.704   9.675   4.018 -1.9791  1.6726 -0.0486
  915MOL0     H20720   2.663   9.822   4.095 -1.7655 -0.9860  0.9668
  915MOL0     H20721   2.705   9.711   4.326  0.7769 -2.0228  0.9438
  915MOL0     H20722   2.811   9.599   4.257  0.9996  2.1624 -0.2631
  915MOL0     H20723   2.521   9.604   4.254  1.8944  1.1500  2.9593
  915MOL0     H20724   2.604   9.510   4.120  0.5146 -0.9869  0.0314
  915MOL0     H20725   2.731   9.398   4.334 -0.5240  1.0191  1.0744
  915MOL0     H20726   2.568   9.345   4.278 -2.6085  1.9978 -1.0971
  915MOL0     H20727   2.613   9.543   4.500 -1.4291 -0.1300  1.9900
  915MOL0     H20728   2.621   9.369   4.526  0.9832 -0.5796 -2.3008
  915MOL0     H20729   2.397   9.544   4.504 -0.9013  0.4855 -1.2259
  915MOL0     H20730   2.386   9.412   4.384  0.4544 -1.4991  0.0185
  915MOL0     H20731   2.423   9.363   4.686 -0.3430 -1.6789  1.2890
  915MOL0     H20732   2.421   9.243   4.551 -2.1869 -0.5657  0.8102
  915MOL0     H20733   2.171   9.491   4.717 -0.2980  0.9012 -0.8848
  915MOL0     H20734   1.852   9.456   4.578 -2.0815 -2.6770 -0.3694
  915MOL0     H20735   1.919   9.494   4.738  1.5344  1.3037 -1.7027
  915MOL0     H20736   1.816   9.275   4.816 -2.7722  0.4194  0.3923
  915MOL0     H20737   1.765   9.264   4.639 -0.5983  0.8360 -0.2571
  915MOL0     H20738   1.690   9.477   4.849  0.0342  0.9024 -0.6680
  915MOL0     H20739   1.656   9.485   4.676 -1.3233 -0.2590  2.0081
  915MOL0     H20740   1.584   9.249   4.840  0.9836  0.2631 -1.4202
  915MOL0     H20741   1.538   9.290   4.677  2.3450  1.0584 -0.5080
  915MOL0     H20742   1.266   9.544   4.983 -1.4837  0.1669  1.9109
  915MOL0     H20743   1.090   9.457   5.105 -0.9047  1.7503 -2.4610
  915MOL0     H20744   0.682   9.342   5.104  0.4472  1.2960  0.9111
  915MOL0     H20745   0.491   9.287   5.237  0.5251  1.2388 -2.1259
  915MOL0     H20746   0.481   8.980   5.583  0.1709 -0.9820 -0.2997
  915MOL0     H20747   0.515   8.913   5.424  1.8367 -0.4384  0.7447
  915MOL0     H20748   0.278   8.970   5.359  1.5566  1.9439  0.0466
  915MOL0     H20749   0.245   9.020   5.522 -1.7491  1.9813 -3.4466
  915MOL0     H20750   0.331   8.786   5.586 -0.3147 -0.6640 -0.4134
  915MOL0     H20751   0.308   8.749   5.409 -0.9154  1.6676 -2.9894
  915MOL0     H20752   0.097   8.871   5.599 -3.6259 -0.5783 -0.7101
  915MOL0     H20753   0.069   8.810   5.444 -1.0013  1.6719  0.8588
  915MOL0     H20754   0.180   8.633   5.660  1.4345 -2.3019 -3.1506
  915MOL0     H20755   0.091   8.576   5.513  1.2316  0.1212 -0.8086
  915MOL0     H20756  -0.014   8.679   5.782 -0.0391 -0.5619  0.1541
  915MOL0     H20757  -0.076   8.550   5.683  0.7493  0.0900  0.5775
  915MOL0     H20758  -0.109   8.852   5.626 -2.2188  0.6200 -1.8281
  915MOL0     H20759  -0.179   8.733   5.525 -1.1650 -0.3702  0.8687
  915MOL0     H20760  -0.334   8.823   5.698  0.8784  1.4594  0.8718
  915MOL0     H20761  -0.226   8.791   5.833  1.7162  2.3275 -0.9498
  915MOL0     H20762   0.721   9.020   5.485  2.2459 -0.2747 -1.2878
  915MOL0     H20763   0.927   9.121   5.386  0.0961  0.9213  1.7694
  915MOL0     H20764   1.158   9.059   4.953  0.2295  0.0472 -0.8884
  915MOL0     H20765   1.365   9.160   4.803 -0.1517  1.5226 -1.4158
  915MOL0     H20766   3.133   9.816   4.356 -0.3679 -0.4438 -0.2244
  915MOL0     H20767   3.349   9.909   4.352  0.5182  1.0108  0.3011
  915MOL0     H20768   3.724  10.169   4.449 -0.8446  1.2507  0.8279
  915MOL0     H20769   3.922  10.291   4.418 -3.7788 -2.8444  3.5340
  915MOL0     H20770   4.162  10.330   4.333  0.1223 -0.3571 -0.9770
  915MOL0     H20771   4.061  10.463   4.374  1.1832 -2.7449  2.4656
  915MOL0     H20772   4.286  10.436   4.170  1.0622  0.6237  0.0786
  915MOL0     H20773   4.174  10.572   4.165  1.6664  3.6029  1.1250
  915MOL0     H20774   4.332  10.676   4.303  0.8167  0.7167  2.2337
  915MOL0     H20775   4.423  10.527   4.333  1.1659  1.8847  1.5686
  915MOL0     H20776   4.312  10.661   4.534 -0.6963  0.2920  0.6579
  915MOL0     H20777   4.154  10.612   4.474  0.2943 -0.4422  0.4213
  915MOL0     H20778   4.337  10.258   4.650  2.2577 -0.3529 -1.4254
  915MOL0     H20779   3.854  10.304   3.990 -2.0666  1.7020  0.1444
  915MOL0     H20780   3.642  10.177   4.032  3.8348 -4.0876 -1.6122
  916MOL0     O20781  10.668   5.451   1.721 -0.1539  0.5009 -0.4665
  916MOL0     C20782  10.745   5.436   1.817 -0.7056  0.4979 -0.4461
  916MOL0     O20783  10.706   5.405   1.947 -0.8015  0.1570 -0.3011
  916MOL0     C20784  10.572   5.411   1.968 -0.3881  0.3364 -0.5370
  916MOL0     C20785  10.508   5.289   1.951  0.1807 -0.1416 -0.6254
  916MOL0     C20786  10.369   5.289   1.986  0.1844  0.0397 -0.0746
  916MOL0     C20787  10.297   5.395   2.044  0.2388 -0.0142  0.5930
  916MOL0     O20788  10.166   5.374   2.074  0.1746  0.9450  0.0073
  916MOL0     C20789  10.099   5.451   2.173  0.2867  0.2404 -0.2782
  916MOL0     C20790   9.970   5.383   2.196  0.2622  0.4154  0.5446
  916MOL0     C20791   9.872   5.466   2.288  0.0994  0.1818  0.1482
  916MOL0     C20792   9.754   5.388   2.337 -0.0796  0.8525  0.3308
  916MOL0     C20793   9.661   5.452   2.441  0.8131 -0.6856 -0.0455
  916MOL0     C20794   9.596   5.576   2.391  0.0806  0.3141 -0.0421
  916MOL0     C20795   9.523   5.656   2.494  0.6469 -1.0929 -0.9347
  916MOL0     C20796   9.469   5.780   2.427 -0.1412  0.5880 -0.4423
  916MOL0     N20797   9.378   5.854   2.517 -0.8059  0.2218  0.9065
  916MOL0     C20798   9.258   5.812   2.562 -0.1675  0.6481 -0.1651
  916MOL0     C20799   9.221   5.916   2.646  0.1285  0.9218  0.3216
  916MOL0     C20800   9.092   5.906   2.726  0.8613  0.5408  0.1044
  916MOL0     C20801   9.028   6.047   2.739  0.6932 -0.7539 -1.0123
  916MOL0     C20802   8.876   6.023   2.773  0.2352 -0.3574  0.0424
  916MOL0     C20803   8.809   6.157   2.749 -0.3690  0.3870  0.7482
  916MOL0     O20804   8.666   6.143   2.763  0.5783 -0.2410 -0.9924
  916MOL0     C20805   8.595   6.264   2.732  0.0531  0.1180 -0.1543
  916MOL0     C20806   8.467   6.234   2.688  0.1869 -0.3238 -0.2658
  916MOL0     C20807   8.388   6.341   2.638 -0.1842 -0.0308  0.1780
  916MOL0     C20808   8.424   6.474   2.638  0.1132  0.1343 -0.2502
  916MOL0     C20809   8.350   6.588   2.584  0.1463  0.4838 -0.3568
  916MOL0     O20810   8.238   6.554   2.513  0.5382 -1.0744 -0.3108
  916MOL0     C20811   8.192   6.652   2.434 -0.1356  0.2107 -0.1115
  916MOL0     C20812   8.088   6.737   2.465 -0.0682  0.7957  0.3358
  916MOL0     C20813   8.054   6.840   2.377  0.6791  0.7304 -0.0268
  916MOL0     C20814   8.119   6.856   2.254  0.0261  0.5094  0.8843
  916MOL0     O20815   8.103   6.960   2.157 -0.1965 -0.0927  0.5822
  916MOL0     C20816   8.030   7.081   2.198 -0.9407  0.6037  1.3144
  916MOL0     C20817   8.045   7.192   2.093 -0.3621 -0.1743  0.1876
  916MOL0     C20818   8.181   7.258   2.111  0.0411 -0.4370  0.0354
  916MOL0     C20819   8.170   7.374   2.210 -0.0037 -0.5443  0.0199
  916MOL0     C20820   8.302   7.452   2.247  0.2582  0.3059 -0.0686
  916MOL0     C20821   8.392   7.486   2.120  0.1858 -0.7080 -0.5184
  916MOL0     C20822   8.520   7.558   2.152 -0.0529 -1.0318  0.2596
  916MOL0     C20823   8.601   7.602   2.037 -0.2394 -0.4002 -0.9555
  916MOL0    Cl20824   8.759   7.675   2.113 -0.2092  0.0734  0.0314
  916MOL0     C20825   8.219   6.764   2.216 -0.1965 -0.4229  0.3072
  916MOL0     C20826   8.256   6.662   2.306  0.6193  0.4080  1.2672
  916MOL0     O20827   8.403   6.696   2.602  0.0436 -0.5653  0.6132
  916MOL0     C20828   8.555   6.495   2.693  0.6860  0.1433 -0.4810
  916MOL0     C20829   8.641   6.393   2.742  0.5038  0.4871 -1.0151
  916MOL0     N20830   9.323   6.008   2.660  0.7803  1.1638  0.5654
  916MOL0     N20831   9.409   5.975   2.573  0.3079  0.2315  0.6174
  916MOL0     C20832  10.370   5.504   2.066 -0.2824  0.0255 -0.0614
  916MOL0     C20833  10.505   5.517   2.026  0.5699  0.3251 -0.0493
  916MOL0     C20834  10.892   5.429   1.798 -0.0370  0.0452 -0.5926
  916MOL0     C20835  10.983   5.380   1.893 -0.1989 -0.3261 -0.0509
  916MOL0     C20836  11.119   5.369   1.860 -0.5383 -0.1641 -0.5457
  916MOL0     C20837  11.166   5.406   1.724  0.5703 -0.2473 -0.8119
  916MOL0     O20838  11.299   5.403   1.685  0.2514  0.4251 -0.2249
  916MOL0     C20839  11.382   5.318   1.751 -0.6417  0.0098  0.3747
  916MOL0     C20840  11.500   5.275   1.667 -0.1713  0.8486  0.0997
  916MOL0     C20841  11.638   5.276   1.732  0.8009  0.1018 -0.5080
  916MOL0     C20842  11.691   5.421   1.725 -0.6238  0.8022  0.3085
  916MOL0     C20843  11.769   5.445   1.610  0.0353  0.0016 -0.3994
  916MOL0     C20844  11.836   5.459   1.512 -1.1440 -0.3936 -0.7108
  916MOL0     C20845  11.081   5.463   1.629 -0.2746  0.1484  0.2255
  916MOL0     C20846  10.941   5.467   1.665  0.0430 -1.0847 -0.6503
  916MOL0     H20847  10.569   5.211   1.906  1.0612  1.2884 -2.0681
  916MOL0     H20848  10.307   5.201   1.979  1.2980 -0.7316 -0.5605
  916MOL0     H20849  10.077   5.552   2.138  0.8041  0.9526  1.3861
  916MOL0     H20850  10.161   5.457   2.263  1.0389  0.5450 -0.8065
  916MOL0     H20851   9.997   5.289   2.244  1.4547  1.1934  1.4690
  916MOL0     H20852   9.931   5.361   2.097  1.7539 -1.1715  0.2552
  916MOL0     H20853   9.829   5.544   2.224 -0.0375 -0.0264 -0.0133
  916MOL0     H20854   9.934   5.509   2.367  2.7666  2.3628 -2.8217
  916MOL0     H20855   9.692   5.374   2.249 -3.3953  2.9694  2.1096
  916MOL0     H20856   9.795   5.297   2.382  0.0720  0.6060 -0.2961
  916MOL0     H20857   9.718   5.471   2.533 -0.5228  1.5855  0.3771
  916MOL0     H20858   9.578   5.384   2.462 -0.0385  0.1022 -0.7781
  916MOL0     H20859   9.534   5.544   2.307  2.2536  1.8519 -2.3711
  916MOL0     H20860   9.677   5.641   2.357  1.5148 -2.1859 -1.8102
  916MOL0     H20861   9.440   5.604   2.544 -1.9123  0.8115 -2.9086
  916MOL0     H20862   9.592   5.689   2.572 -0.0523 -0.4950 -0.5467
  916MOL0     H20863   9.409   5.755   2.339 -0.8312  0.4038  0.0631
  916MOL0     H20864   9.541   5.858   2.400 -2.2248  2.7054 -0.1950
  916MOL0     H20865   9.208   5.718   2.546  0.9098  0.0551 -0.1232
  916MOL0     H20866   9.098   5.872   2.830  0.8180 -0.9673 -0.3761
  916MOL0     H20867   9.026   5.842   2.668  0.3730  0.6715  0.5039
  916MOL0     H20868   9.038   6.113   2.652 -0.0436  2.0724  0.9211
  916MOL0     H20869   9.071   6.091   2.829  0.1181 -2.0897 -0.0568
  916MOL0     H20870   8.845   5.947   2.701  2.7032 -1.5561  0.1739
  916MOL0     H20871   8.862   5.983   2.873 -0.2738 -3.8041 -1.2769
  916MOL0     H20872   8.835   6.179   2.645 -0.6912  0.3800  0.6626
  916MOL0     H20873   8.855   6.229   2.817  2.0512 -0.3734  0.0140
  916MOL0     H20874   8.419   6.137   2.693 -1.1215  0.2556 -0.9768
  916MOL0     H20875   8.302   6.309   2.579 -2.6444  1.4719  2.7204
  916MOL0     H20876   8.039   6.718   2.560  0.9809  0.2231  0.7921
  916MOL0     H20877   7.983   6.915   2.410  0.3276  0.0379  0.8194
  916MOL0     H20878   8.065   7.119   2.295  1.0632 -1.4422  1.4570
  916MOL0     H20879   7.926   7.049   2.202 -0.9568  0.0889 -1.3423
  916MOL0     H20880   7.963   7.264   2.098  0.3592  0.6395  0.6315
  916MOL0     H20881   8.046   7.143   1.995  1.9509 -2.3895  1.1975
  916MOL0     H20882   8.216   7.304   2.019  1.0597  1.4146  1.2728
  916MOL0     H20883   8.256   7.181   2.133 -0.1794 -1.9935 -3.8950
  916MOL0     H20884   8.107   7.452   2.164  0.9460  0.2370  0.0102
  916MOL0     H20885   8.120   7.334   2.298  1.5569 -2.4837  0.0699
  916MOL0     H20886   8.370   7.393   2.310 -0.2429  0.9071  1.0715
  916MOL0     H20887   8.282   7.543   2.306 -1.4194 -0.1765  0.1538
  916MOL0     H20888   8.319   7.551   2.071 -0.7436 -0.2584  1.3779
  916MOL0     H20889   8.419   7.399   2.059  1.1444  0.6490 -2.1061
  916MOL0     H20890   8.494   7.653   2.198  0.5785  0.2552 -1.8925
  916MOL0     H20891   8.587   7.496   2.212  1.1976  1.1685  1.2634
  916MOL0     H20892   8.547   7.676   1.978 -0.9898  1.5363  1.9522
  916MOL0     H20893   8.633   7.522   1.969  3.4637 -0.6597  0.8288
  916MOL0     H20894   8.273   6.784   2.124  3.5131  0.8057  2.5590
  916MOL0     H20895   8.333   6.591   2.276 -0.0243  0.2473 -0.1144
  916MOL0     H20896   8.587   6.598   2.698 -0.6573  0.5055  1.4503
  916MOL0     H20897   8.739   6.425   2.776  1.0792 -2.7144  0.7194
  916MOL0     H20898  10.340   5.597   2.113  1.5177  2.3575 -3.0987
  916MOL0     H20899  10.571   5.596   2.059  4.9200 -1.6059 -3.1025
  916MOL0     H20900  10.946   5.347   1.990 -2.4098  1.1132 -0.3312
  916MOL0     H20901  11.192   5.318   1.923 -1.9065 -3.5423 -1.4787
  916MOL0     H20902  11.332   5.226   1.782  0.2949 -1.3207 -1.8328
  916MOL0     H20903  11.413   5.368   1.843 -2.1037  0.7914  0.4798
  916MOL0     H20904  11.481   5.174   1.628  3.9145  0.6558 -1.8805
  916MOL0     H20905  11.504   5.340   1.580  1.0074  0.0989 -0.4271
  916MOL0     H20906  11.703   5.196   1.695  0.8231 -0.3955  0.5599
  916MOL0     H20907  11.625   5.255   1.839 -0.3333 -1.7983 -0.9663
  916MOL0     H20908  11.609   5.493   1.735 -1.4306 -0.0218 -0.1366
  916MOL0     H20909  11.754   5.440   1.812 -0.4909  1.1347  0.1442
  916MOL0     H20910  11.905   5.464   1.430  2.5864 -2.0654  2.0604
  916MOL0     H20911  11.122   5.490   1.532 -1.2572  1.5653  0.1747
  916MOL0     H20912  10.867   5.517   1.603  1.0159 -0.2885 -1.1978
  917MOL0     O20913  10.093   8.970   9.216  0.0200 -0.2420 -0.4911
  917MOL0     C20914  10.161   9.009   9.308 -0.8356  0.0159  0.0468
  917MOL0     O20915  10.134   9.005   9.444 -0.2133 -0.3326 -0.0809
  917MOL0     C20916  10.009   8.981   9.498 -0.4772 -0.0833 -0.8679
  917MOL0     C20917   9.892   8.948   9.431 -0.4043 -0.1137  0.4281
  917MOL0     C20918   9.776   8.909   9.494 -0.2092  0.2626  0.3086
  917MOL0     C20919   9.778   8.906   9.629  0.5495 -0.3009 -0.0533
  917MOL0     O20920   9.669   8.859   9.703  0.1941  1.0053  0.4494
  917MOL0     C20921   9.559   8.941   9.721 -0.3324 -0.4358 -1.0081
  917MOL0     C20922   9.431   8.890   9.644 -0.4112  0.2613 -0.2586
  917MOL0     C20923   9.304   8.900   9.726 -0.9112  0.2352  0.2613
  917MOL0     C20924   9.233   9.039   9.723 -0.0052  0.5745  0.1247
  917MOL0     C20925   9.127   9.052   9.830  0.0087  0.2033  0.0579
  917MOL0     C20926   9.007   8.959   9.805 -0.0089 -0.1412  0.0407
  917MOL0     C20927   8.881   9.008   9.888  0.4682  0.4419  0.0895
  917MOL0     C20928   8.778   8.894   9.890 -0.3285 -0.9991  0.0989
  917MOL0     N20929   8.645   8.940   9.933 -0.0629  0.9364  0.5416
  917MOL0     C20930   8.590   8.876  10.037  0.2525 -1.2395 -0.4146
  917MOL0     C20931   8.459   8.915  10.033 -0.2396 -0.3171  0.5149
  917MOL0     C20932   8.344   8.871  10.117 -0.5158 -0.4611  0.2241
  917MOL0     C20933   8.313   8.728  10.092 -0.2680 -0.4417 -0.0949
  917MOL0     C20934   8.204   8.679  10.202 -0.2833 -0.7499 -0.0958
  917MOL0     C20935   8.063   8.735  10.178 -0.0418  0.7064  0.6231
  917MOL0     O20936   7.969   8.658  10.236  0.4583  0.8006  0.0505
  917MOL0     C20937   7.877   8.735  10.299 -0.3110 -0.6832  0.0808
  917MOL0     C20938   7.858   8.749  10.433 -1.0544 -0.4899 -0.1158
  917MOL0     C20939   7.751   8.841  10.475 -0.7523  0.8014  0.2566
  917MOL0     C20940   7.673   8.918  10.384  0.3505 -0.3578 -0.1467
  917MOL0     C20941   7.550   8.983  10.426  0.4375 -0.6756 -0.3341
  917MOL0     O20942   7.457   9.029  10.331  0.2553  0.0456  0.2166
  917MOL0     C20943   7.342   9.089  10.358 -0.1343  0.2938 -0.0008
  917MOL0     C20944   7.289   9.164  10.252 -0.3726  0.1935  0.3592
  917MOL0     C20945   7.162   9.224  10.255 -0.4600 -0.5017 -0.5520
  917MOL0     C20946   7.087   9.215  10.375  0.3116 -0.8080  0.0227
  917MOL0     O20947   6.955   9.263  10.357 -0.0824  0.0511  0.3693
  917MOL0     C20948   6.866   9.248  10.475  0.5968  0.3531  0.3565
  917MOL0     C20949   6.730   9.336  10.468 -0.5600 -0.2867  0.4090
  917MOL0     C20950   6.676   9.337  10.327  0.2001  0.2886 -0.2306
  917MOL0     C20951   6.540   9.400  10.323  0.0134 -0.7056  0.8532
  917MOL0     C20952   6.476   9.373  10.177 -0.1775 -0.2148  0.0266
  917MOL0     C20953   6.333   9.420  10.182  0.2907  0.0644  0.6943
  917MOL0     C20954   6.265   9.375  10.051 -1.1456  0.0687  0.1323
  917MOL0     C20955   6.132   9.440  10.019  0.8153  0.1091  0.1375
  917MOL0    Cl20956   6.089   9.404   9.843 -0.0677 -0.3523 -0.5446
  917MOL0     C20957   7.144   9.147  10.484  0.1850 -0.7433 -0.0679
  917MOL0     C20958   7.266   9.078  10.473 -0.3905  0.2667  0.0561
  917MOL0     O20959   7.531   8.981  10.549 -0.9824 -0.1020  0.0092
  917MOL0     C20960   7.701   8.900  10.256 -0.1312 -0.1751 -0.0699
  917MOL0     C20961   7.795   8.810  10.217 -0.0996  0.1436 -0.5408
  917MOL0     N20962   8.435   8.991   9.923 -0.4393 -0.8397 -0.4818
  917MOL0     N20963   8.552   8.998   9.859 -0.1252 -0.2665 -0.0734
  917MOL0     C20964   9.888   8.946   9.697  0.4747 -0.4274 -0.2942
  917MOL0     C20965  10.008   8.985   9.636  0.4482  0.3485 -0.0154
  917MOL0     C20966  10.293   9.055   9.258 -0.0283  0.8225 -0.3670
  917MOL0     C20967  10.300   9.106   9.128  0.2583 -0.3764 -0.5134
  917MOL0     C20968  10.422   9.158   9.089 -0.0608 -0.5634 -0.0917
  917MOL0     C20969  10.539   9.141   9.164 -0.1563 -0.2770  0.4865
  917MOL0     O20970  10.656   9.187   9.096  0.7301  0.2058 -0.0554
  917MOL0     C20971  10.774   9.104   9.112  0.0485 -0.2932  1.0943
  917MOL0     C20972  10.888   9.153   9.019 -0.7174 -0.2378  0.2595
  917MOL0     C20973  11.002   9.199   9.106  1.2598  0.2695  0.2811
  917MOL0     C20974  11.111   9.257   9.020  1.5755 -0.2511  0.0392
  917MOL0     C20975  11.237   9.279   9.078 -0.0961  0.8655  0.0122
  917MOL0     C20976  11.347   9.305   9.118 -0.5654 -0.1769  0.2574
  917MOL0     C20977  10.531   9.084   9.290 -0.4283 -0.5103 -0.1741
  917MOL0     C20978  10.408   9.040   9.337  0.0433  0.3133 -0.1692
  917MOL0     H20979   9.882   8.946   9.323 -0.5923 -1.0792  0.4501
  917MOL0     H20980   9.692   8.870   9.438 -1.0082  1.5534  0.5672
  917MOL0     H20981   9.586   9.046   9.703  4.1529 -1.2757 -0.3925
  917MOL0     H20982   9.541   8.933   9.828  0.6260 -0.3869 -0.8278
  917MOL0     H20983   9.446   8.783   9.629 -0.5768 -0.2445  2.5498
  917MOL0     H20984   9.428   8.937   9.545  4.9375 -0.4731 -1.0381
  917MOL0     H20985   9.318   8.863   9.828 -0.5406 -0.2755  0.0284
  917MOL0     H20986   9.231   8.830   9.684 -0.0373 -1.7305  1.8401
  917MOL0     H20987   9.311   9.113   9.744 -0.6785  0.4740  3.5560
  917MOL0     H20988   9.189   9.050   9.623  1.8429 -0.7471 -0.9040
  917MOL0     H20989   9.094   9.157   9.832 -3.7111 -0.8184 -1.1835
  917MOL0     H20990   9.169   9.034   9.929 -0.5513 -0.2607  0.2157
  917MOL0     H20991   9.031   8.857   9.836 -2.2867 -0.0638  2.3948
  917MOL0     H20992   8.967   8.972   9.704  2.8123  1.6740 -0.9547
  917MOL0     H20993   8.920   9.029   9.988 -1.0767  0.2119  0.7608
  917MOL0     H20994   8.826   9.093   9.848  0.2561  0.9202  1.3567
  917MOL0     H20995   8.818   8.807   9.943 -0.3420 -1.0407  0.0419
  917MOL0     H20996   8.760   8.855   9.789 -0.3327 -1.3743  0.2420
  917MOL0     H20997   8.637   8.812  10.111 -2.0504  0.3129  2.6364
  917MOL0     H20998   8.258   8.931  10.086 -1.0901 -0.2636  2.1061
  917MOL0     H20999   8.360   8.889  10.223 -4.6651 -3.5307  1.6610
  917MOL0     H21000   8.414   8.685  10.095 -0.4799 -0.9287  0.2111
  917MOL0     H21001   8.270   8.711   9.993 -1.3791  0.2863  0.2442
  917MOL0     H21002   8.198   8.570  10.200  2.6263 -1.0944  2.5022
  917MOL0     H21003   8.248   8.712  10.296 -0.0662  0.5635 -0.6309
  917MOL0     H21004   8.042   8.748  10.072  0.0441 -1.2793  0.3377
  917MOL0     H21005   8.059   8.833  10.226 -0.0233 -0.5231  3.3196
  917MOL0     H21006   7.923   8.693  10.500  1.4684 -0.1528 -2.1314
  917MOL0     H21007   7.744   8.840  10.583  1.7906 -0.7395  0.4977
  917MOL0     H21008   7.342   9.173  10.157 -0.1698 -0.2246  0.4285
  917MOL0     H21009   7.135   9.281  10.167  0.3302  0.2432 -0.3292
  917MOL0     H21010   6.910   9.267  10.573 -0.8472  2.1395  0.7072
  917MOL0     H21011   6.839   9.142  10.472  3.1754 -0.3891  0.7153
  917MOL0     H21012   6.744   9.434  10.516 -0.5598  0.7410 -1.5886
  917MOL0     H21013   6.656   9.282  10.528 -2.2655  1.4026 -0.0790
  917MOL0     H21014   6.664   9.235  10.291 -1.3225  1.2633 -2.7233
  917MOL0     H21015   6.750   9.396  10.272  1.2912  0.4465  1.3240
  917MOL0     H21016   6.489   9.347  10.404 -0.2733  1.5204  2.2173
  917MOL0     H21017   6.540   9.507  10.348 -0.8351 -0.8854  1.6606
  917MOL0     H21018   6.470   9.265  10.157  3.4462 -0.8521  1.5782
  917MOL0     H21019   6.530   9.415  10.091  0.7455  1.6374  1.4490
  917MOL0     H21020   6.332   9.529  10.197 -0.1261  0.1948 -0.2337
  917MOL0     H21021   6.273   9.369  10.257 -1.0021 -0.2836 -0.5371
  917MOL0     H21022   6.339   9.391   9.972 -0.7757 -0.4789  0.3607
  917MOL0     H21023   6.250   9.268  10.069  0.6843 -0.4792 -1.2555
  917MOL0     H21024   6.130   9.547  10.039 -1.3876 -0.2004  1.9802
  917MOL0     H21025   6.051   9.408  10.085  0.5436  4.4922  2.2717
  917MOL0     H21026   7.086   9.126  10.573 -0.0086 -1.1590 -0.2860
  917MOL0     H21027   7.298   9.035  10.567 -3.4121 -0.0009  1.0701
  917MOL0     H21028   7.641   8.957  10.186  1.5308  1.4250 -0.2707
  917MOL0     H21029   7.803   8.790  10.110 -1.1881  1.1326 -0.8374
  917MOL0     H21030   9.882   8.937   9.805  2.4184 -3.9787 -0.3408
  917MOL0     H21031  10.093   9.006   9.700 -0.0049 -1.4634  1.2618
  917MOL0     H21032  10.217   9.113   9.058  0.5718 -0.4005 -0.8892
  917MOL0     H21033  10.425   9.191   8.986  0.4703 -1.4788 -0.3858
  917MOL0     H21034  10.741   9.006   9.077  0.6476 -0.0125 -0.3452
  917MOL0     H21035  10.814   9.093   9.213  1.3547  1.2962  0.7947
  917MOL0     H21036  10.917   9.073   8.951 -1.7316 -0.7233  0.3804
  917MOL0     H21037  10.860   9.236   8.954  1.7004  0.3324 -0.1211
  917MOL0     H21038  11.051   9.114   9.155 -0.7445  0.0303  2.0379
  917MOL0     H21039  10.974   9.270   9.184 -1.7029 -0.3625 -0.0707
  917MOL0     H21040  11.117   9.190   8.933 -3.9382 -1.1554  0.0421
  917MOL0     H21041  11.072   9.351   8.982  1.2038 -0.3317  0.2152
  917MOL0     H21042  11.447   9.331   9.148  0.0291 -1.4839 -0.5184
  917MOL0     H21043  10.622   9.082   9.348 -1.3076  0.9303  1.3453
  917MOL0     H21044  10.387   8.995   9.434  0.9855 -0.3387 -0.2529
  918MOL0     O21045   2.342   9.213   8.638  0.5110  0.3985 -0.2910
  918MOL0     C21046   2.366   9.241   8.520  0.4254 -0.4965  0.4172
  918MOL0     O21047   2.273   9.240   8.423  0.2933 -0.3646  0.8927
  918MOL0     C21048   2.142   9.206   8.447  1.1696  0.2224  0.3353
  918MOL0     C21049   2.084   9.109   8.364  0.4603 -0.3392 -0.2057
  918MOL0     C21050   1.943   9.079   8.383 -0.5174  1.1574  0.0782
  918MOL0     C21051   1.870   9.128   8.482  0.6681  0.4529  0.0138
  918MOL0     O21052   1.741   9.076   8.485 -0.5153 -0.1809  0.2636
  918MOL0     C21053   1.646   9.155   8.564  0.7787 -0.0454  0.1760
  918MOL0     C21054   1.506   9.088   8.559  0.3091  0.2386  0.9903
  918MOL0     C21055   1.442   9.100   8.417 -0.3699  0.5992  0.3744
  918MOL0     C21056   1.406   9.240   8.373 -0.2617 -0.8768  0.3526
  918MOL0     C21057   1.303   9.302   8.462  0.4462  0.0902 -0.3116
  918MOL0     C21058   1.186   9.216   8.511 -0.1219  0.2130  0.6442
  918MOL0     C21059   1.069   9.302   8.536  0.4813 -0.7895 -0.4435
  918MOL0     C21060   1.004   9.340   8.398  0.7586  0.0839 -0.6648
  918MOL0     N21061   0.898   9.440   8.422 -0.1347  0.2977  0.2247
  918MOL0     C21062   0.791   9.412   8.497  0.1128 -0.4721  0.2989
  918MOL0     C21063   0.724   9.534   8.490 -0.4301 -0.5187 -0.9790
  918MOL0     C21064   0.581   9.539   8.533 -0.0364 -0.4414  0.1512
  918MOL0     C21065   0.484   9.580   8.417 -0.0233  0.2555  0.4952
  918MOL0     C21066   0.341   9.619   8.471  0.2253  0.3083 -0.0305
  918MOL0     C21067   0.279   9.499   8.545 -0.0288  0.0705 -1.0273
  918MOL0     O21068   0.273   9.531   8.688  0.5168  0.0940  0.5342
  918MOL0     C21069   0.160   9.588   8.737  0.0151  0.0109 -0.1774
  918MOL0     C21070   0.060   9.637   8.664 -0.2774 -1.2959 -0.2395
  918MOL0     C21071  -0.055   9.685   8.725  0.2841  0.2537 -0.0578
  918MOL0     C21072  -0.076   9.673   8.865 -0.6953 -0.7097  0.1659
  918MOL0     C21073  -0.203   9.722   8.929 -0.5333  0.1602  0.9006
  918MOL0     O21074  -0.307   9.770   8.846 -0.4744 -0.1589  0.6651
  918MOL0     C21075  -0.443   9.780   8.886 -0.6994  0.3096 -0.7088
  918MOL0     C21076  -0.500   9.720   8.999  0.3988  0.7332  0.7665
  918MOL0     C21077  -0.641   9.745   9.024 -0.2864 -0.6571  1.2591
  918MOL0     C21078  -0.710   9.830   8.935  0.0979  0.3297  0.4971
  918MOL0     O21079  -0.837   9.874   8.966  0.0740  0.1266 -0.4176
  918MOL0     C21080  -0.840   9.961   9.079  0.1392  0.1945 -0.2071
  918MOL0     C21081  -0.937  10.074   9.058 -0.1136  0.1972  0.0391
  918MOL0     C21082  -1.079  10.035   9.056  0.5300  0.2458 -0.6111
  918MOL0     C21083  -1.133   9.999   9.201 -0.2062  0.0666  0.0913
  918MOL0     C21084  -1.290  10.043   9.212 -0.1741 -0.3632 -0.3563
  918MOL0     C21085  -1.374   9.936   9.134 -1.0667  0.7328 -0.2713
  918MOL0     C21086  -1.519   9.983   9.144 -0.1745 -0.0142  0.2785
  918MOL0     C21087  -1.600   9.878   9.072  0.0864 -0.9780  0.1710
  918MOL0    Cl21088  -1.586   9.721   9.146  0.2759 -0.2075 -0.3306
  918MOL0     C21089  -0.657   9.887   8.828 -0.0481 -0.1031  0.1084
  918MOL0     C21090  -0.520   9.859   8.799 -0.4986  0.3646  0.6732
  918MOL0     O21091  -0.204   9.703   9.053  0.0679  0.3487  0.7066
  918MOL0     C21092   0.035   9.623   8.938 -0.1077  0.0026 -0.9210
  918MOL0     C21093   0.141   9.576   8.873  0.0766 -0.6583  0.0195
  918MOL0     N21094   0.802   9.625   8.428 -0.2561 -0.0963  0.3429
  918MOL0     N21095   0.906   9.571   8.389  0.3653 -0.4032 -0.2264
  918MOL0     C21096   1.925   9.222   8.565 -0.7838 -0.1791  0.3112
  918MOL0     C21097   2.059   9.265   8.550 -0.0446 -0.7536  0.1107
  918MOL0     C21098   2.503   9.274   8.483 -0.1982  0.5400 -1.2748
  918MOL0     C21099   2.605   9.264   8.573  0.0417  0.5162 -0.6406
  918MOL0     C21100   2.739   9.279   8.534 -0.0866  0.3735 -0.6085
  918MOL0     C21101   2.770   9.324   8.413 -0.8101  0.6694  0.1849
  918MOL0     O21102   2.903   9.339   8.382  0.4444  0.2845  0.0025
  918MOL0     C21103   2.960   9.461   8.431  1.3514  0.6254 -0.6578
  918MOL0     C21104   3.087   9.483   8.352 -0.4345 -0.4441  0.0263
  918MOL0     C21105   3.195   9.557   8.435  0.1879  0.3343 -0.2024
  918MOL0     C21106   3.296   9.634   8.344 -0.0055 -0.2093 -1.2311
  918MOL0     C21107   3.385   9.726   8.413  0.5210  0.6522 -0.1814
  918MOL0     C21108   3.462   9.794   8.486  0.3113 -0.1388 -0.5482
  918MOL0     C21109   2.667   9.350   8.323 -0.4159  0.5961 -0.2070
  918MOL0     C21110   2.527   9.327   8.353 -0.7808 -0.0380 -0.8123
  918MOL0     H21111   2.151   9.059   8.295 -0.6089 -0.9013 -0.8653
  918MOL0     H21112   1.891   9.011   8.316  2.2471  1.2802 -2.4192
  918MOL0     H21113   1.649   9.258   8.528 -1.2065 -0.2451 -0.6986
  918MOL0     H21114   1.676   9.159   8.669 -2.2252 -1.4983  1.2118
  918MOL0     H21115   1.440   9.139   8.630 -0.9461 -1.4284  1.0951
  918MOL0     H21116   1.506   8.982   8.587  1.3814  0.5029  2.0848
  918MOL0     H21117   1.359   9.030   8.398  0.1061  0.6932 -2.5218
  918MOL0     H21118   1.520   9.066   8.349 -0.3077 -0.5937  1.0105
  918MOL0     H21119   1.485   9.314   8.359 -0.8798  0.1960  2.1522
  918MOL0     H21120   1.361   9.233   8.273 -0.7076  1.8262  0.2852
  918MOL0     H21121   1.258   9.382   8.403 -1.8328 -0.7425  0.1795
  918MOL0     H21122   1.357   9.343   8.548  0.7525 -0.2385 -0.3475
  918MOL0     H21123   1.211   9.173   8.609 -3.0964 -0.1866  1.3203
  918MOL0     H21124   1.155   9.139   8.440 -4.0897  1.3721  0.9018
  918MOL0     H21125   0.996   9.251   8.599  0.4311  0.2797  0.3927
  918MOL0     H21126   1.096   9.394   8.587 -0.7564 -1.4856  1.5596
  918MOL0     H21127   0.951   9.253   8.357  3.5270 -2.3416  0.5821
  918MOL0     H21128   1.082   9.372   8.328  2.1592 -0.3459  0.6535
  918MOL0     H21129   0.744   9.317   8.519 -0.2312 -1.0566 -2.5708
  918MOL0     H21130   0.566   9.612   8.614 -0.4161 -1.8965  1.4472
  918MOL0     H21131   0.549   9.444   8.577 -1.0498 -0.1749  0.0166
  918MOL0     H21132   0.478   9.505   8.338  1.8400  0.7190 -0.1272
  918MOL0     H21133   0.520   9.670   8.366  0.6759 -0.1927  0.1877
  918MOL0     H21134   0.344   9.711   8.530  1.9797  3.4101 -4.3938
  918MOL0     H21135   0.276   9.658   8.392 -1.3857 -0.3752  0.9010
  918MOL0     H21136   0.341   9.412   8.524  1.1649  0.6287  0.0981
  918MOL0     H21137   0.187   9.472   8.492  1.3552 -1.1991 -2.9232
  918MOL0     H21138   0.077   9.652   8.558 -0.0696 -0.1602 -0.0623
  918MOL0     H21139  -0.130   9.735   8.665  0.1142 -1.2180 -1.1265
  918MOL0     H21140  -0.453   9.659   9.076  3.0172  1.5049 -0.1409
  918MOL0     H21141  -0.689   9.700   9.110  0.4254 -0.0598  1.9843
  918MOL0     H21142  -0.744  10.011   9.095  1.7325 -2.4450 -0.8729
  918MOL0     H21143  -0.871   9.910   9.171 -0.5251 -1.2704 -1.2093
  918MOL0     H21144  -0.919  10.122   8.962 -1.4893  0.6141 -0.0336
  918MOL0     H21145  -0.922  10.155   9.130 -0.6198  0.1614  0.1872
  918MOL0     H21146  -1.101   9.960   8.980 -0.3928  1.1855 -1.2950
  918MOL0     H21147  -1.140  10.120   9.022 -0.6005  0.0012  0.7360
  918MOL0     H21148  -1.113   9.897   9.234  3.8684  0.3395 -1.0052
  918MOL0     H21149  -1.083  10.062   9.275  0.4689  0.5549 -0.7710
  918MOL0     H21150  -1.309  10.144   9.175 -1.7169 -0.7117 -0.5806
  918MOL0     H21151  -1.320  10.036   9.317  1.3527 -1.1339  0.0666
  918MOL0     H21152  -1.361   9.838   9.181  0.5473  2.0273  2.2697
  918MOL0     H21153  -1.346   9.937   9.029  0.5895 -1.8094  0.0518
  918MOL0     H21154  -1.562   9.983   9.245  0.9805  0.6189  0.7839
  918MOL0     H21155  -1.521  10.089   9.118  2.2872  0.0920  0.3715
  918MOL0     H21156  -1.561   9.869   8.971 -2.0008  1.2057 -0.9287
  918MOL0     H21157  -1.701   9.921   9.076  1.1741  1.9364 -0.6942
  918MOL0     H21158  -0.715   9.949   8.761  3.9783  2.2491 -1.5489
  918MOL0     H21159  -0.469   9.912   8.720 -0.7500  0.6660  0.7117
  918MOL0     H21160   0.025   9.606   9.045 -0.6418 -1.2747 -1.1454
  918MOL0     H21161   0.221   9.529   8.928  0.7782  2.3109  1.7912
  918MOL0     H21162   1.864   9.269   8.641  1.5959  4.4341 -0.2044
  918MOL0     H21163   2.102   9.344   8.612  0.8077 -1.4087  0.3760
  918MOL0     H21164   2.588   9.230   8.674 -0.2430 -0.6725 -1.0779
  918MOL0     H21165   2.820   9.253   8.602  1.4417  1.6707 -1.8812
  918MOL0     H21166   2.985   9.440   8.536 -0.2059 -0.5548 -0.4754
  918MOL0     H21167   2.887   9.543   8.428  1.0397  0.4033  0.3499
  918MOL0     H21168   3.131   9.385   8.331  1.1371  0.2704 -0.1157
  918MOL0     H21169   3.075   9.548   8.264  2.1625  0.8814  0.5722
  918MOL0     H21170   3.236   9.501   8.520 -1.2713  3.4819  2.8392
  918MOL0     H21171   3.148   9.632   8.499  1.9113  2.0211 -0.8031
  918MOL0     H21172   3.363   9.562   8.297  1.8730  0.3819  0.4099
  918MOL0     H21173   3.244   9.697   8.271 -1.3985  1.8313  1.3290
  918MOL0     H21174   3.530   9.854   8.543  1.3248 -1.6872 -0.0921
  918MOL0     H21175   2.683   9.385   8.222 -2.6772 -2.5100 -1.7900
  918MOL0     H21176   2.454   9.339   8.274 -0.1059 -1.1069 -1.6319
  919MOL0     O21177   9.505  10.964   9.497 -0.7904  0.0031  0.0511
  919MOL0     C21178   9.498  10.842   9.532  0.5230  0.1770 -0.1839
  919MOL0     O21179   9.565  10.742   9.467 -0.1595 -0.4723 -0.0997
  919MOL0     C21180   9.659  10.782   9.375  0.0517  0.6516 -0.8156
  919MOL0     C21181   9.791  10.728   9.381  0.5213  0.4813 -0.1903
  919MOL0     C21182   9.891  10.761   9.286 -0.1295 -0.3881  0.4276
  919MOL0     C21183   9.859  10.835   9.174 -0.6038  0.7633  0.3835
  919MOL0     O21184   9.948  10.849   9.075  0.3667 -0.7123 -0.2951
  919MOL0     C21185  10.072  10.927   9.102 -0.0344 -0.7499 -0.2511
  919MOL0     C21186  10.193  10.836   9.144 -0.6690 -0.2189 -0.1067
  919MOL0     C21187  10.317  10.927   9.129  0.0802  0.0904  0.4851
  919MOL0     C21188  10.434  10.833   9.164  0.3083 -0.6134 -0.2752
  919MOL0     C21189  10.563  10.895   9.101  0.7790  0.1504 -1.1407
  919MOL0     C21190  10.685  10.815   9.144  1.1307  0.0254  0.1811
  919MOL0     C21191  10.815  10.885   9.095 -0.5869  0.4430 -0.1832
  919MOL0     C21192  10.925  10.776   9.071 -0.6050  0.0846 -0.0398
  919MOL0     N21193  10.898  10.684   8.959  0.4753  0.3193 -0.7913
  919MOL0     C21194  10.807  10.696   8.855 -0.1153 -0.6983 -0.0314
  919MOL0     C21195  10.817  10.572   8.799 -0.2085  0.6661  0.4750
  919MOL0     C21196  10.748  10.531   8.670  0.3619 -0.7845 -0.1929
  919MOL0     C21197  10.628  10.431   8.697 -0.5654 -0.0077 -0.5465
  919MOL0     C21198  10.546  10.459   8.827  0.0834 -0.2608  0.0858
  919MOL0     C21199  10.405  10.389   8.843 -0.4796  0.1223  0.3188
  919MOL0     O21200  10.330  10.408   8.716  0.7509 -0.2613  0.1434
  919MOL0     C21201  10.206  10.357   8.717 -0.1341 -0.0269  0.8765
  919MOL0     C21202  10.136  10.307   8.825  0.2424 -0.0035 -0.2527
  919MOL0     C21203  10.004  10.267   8.815 -0.3547  0.9805 -0.0148
  919MOL0     C21204   9.936  10.285   8.703 -0.0546 -0.4320  0.5931
  919MOL0     C21205   9.797  10.240   8.697  0.0795 -0.2237 -0.7209
  919MOL0     O21206   9.730  10.224   8.817  0.0027 -1.3924  0.4596
  919MOL0     C21207   9.606  10.174   8.806  0.2627  0.4372 -0.2347
  919MOL0     C21208   9.497  10.251   8.845 -0.3950 -0.4135  0.5150
  919MOL0     C21209   9.374  10.202   8.850  0.2276  1.0223  0.4142
  919MOL0     C21210   9.354  10.066   8.823  0.5777 -0.6511  0.3432
  919MOL0     O21211   9.224  10.015   8.848  0.1113 -0.0505 -0.4882
  919MOL0     C21212   9.216   9.878   8.894 -0.3254 -0.0735  0.4542
  919MOL0     C21213   9.160   9.779   8.785  0.2870 -0.9189  0.0651
  919MOL0     C21214   9.006   9.801   8.787  0.3173 -0.4863  0.1574
  919MOL0     C21215   8.947   9.695   8.686  0.4620 -0.2008 -0.7165
  919MOL0     C21216   8.817   9.746   8.613 -0.9504 -0.6878  0.1653
  919MOL0     C21217   8.858   9.857   8.511  0.0100 -1.2305  0.2030
  919MOL0     C21218   8.734   9.912   8.443  0.8987 -0.1308 -0.7404
  919MOL0     C21219   8.774  10.023   8.345 -0.4397  0.6420 -0.2702
  919MOL0    Cl21220   8.634  10.092   8.248  0.1748  0.5463  0.0964
  919MOL0     C21221   9.456   9.985   8.777  0.3797  0.2538 -0.0924
  919MOL0     C21222   9.584  10.041   8.766 -0.2846  0.1435 -0.6337
  919MOL0     O21223   9.752  10.222   8.587 -0.6251 -0.1242 -0.0369
  919MOL0     C21224  10.005  10.329   8.583  0.1742 -0.8916  0.7679
  919MOL0     C21225  10.135  10.370   8.596  1.1817  0.6985  0.0516
  919MOL0     N21226  10.902  10.492   8.866 -0.4917  0.0905  0.4375
  919MOL0     N21227  10.942  10.555   8.967  0.2116  0.0831 -0.0566
  919MOL0     C21228   9.727  10.878   9.157  0.3683 -0.2066  0.3816
  919MOL0     C21229   9.630  10.854   9.256  0.5877 -0.4514  0.1692
  919MOL0     C21230   9.406  10.809   9.643 -0.2006 -1.0968 -1.2170
  919MOL0     C21231   9.355  10.681   9.669 -0.0899 -0.6172  0.2733
  919MOL0     C21232   9.276  10.657   9.785 -0.5997 -0.6867  0.3541
  919MOL0     C21233   9.235  10.763   9.870  0.2459  0.4394  0.4032
  919MOL0     O21234   9.150  10.724   9.974  0.4604  1.0478  0.5693
  919MOL0     C21235   9.116  10.825  10.073 -0.0855  0.3579 -0.3834
  919MOL0     C21236   9.000  10.917  10.030 -0.7357  0.1640 -1.2124
  919MOL0     C21237   8.870  10.840  10.008 -0.8624 -0.3348  0.8173
  919MOL0     C21238   8.761  10.939   9.970  0.4707  0.0908  0.2289
  919MOL0     C21239   8.638  10.870   9.924  0.4571  0.1798 -0.4459
  919MOL0     C21240   8.546  10.804   9.880  0.3440 -0.4410  0.9711
  919MOL0     C21241   9.276  10.891   9.838  0.6503  0.3818 -1.2965
  919MOL0     C21242   9.365  10.910   9.731  0.4708 -0.0056  0.7320
  919MOL0     H21243   9.835  10.673   9.463  0.0874 -0.0757 -0.3282
  919MOL0     H21244   9.996  10.738   9.297  0.2796  1.9981  2.4744
  919MOL0     H21245  10.056  10.999   9.182 -1.4897 -3.7873  2.4473
  919MOL0     H21246  10.096  10.968   9.004  2.8356 -1.0781  0.2006
  919MOL0     H21247  10.195  10.745   9.084 -1.3223  0.6644 -1.5123
  919MOL0     H21248  10.193  10.800   9.248  2.6592 -1.4510 -0.4290
  919MOL0     H21249  10.302  11.006   9.203 -1.4399  0.5062 -0.2235
  919MOL0     H21250  10.327  10.962   9.026 -3.5714 -2.8755 -1.1020
  919MOL0     H21251  10.438  10.812   9.271 -0.9477 -0.3867 -0.1783
  919MOL0     H21252  10.422  10.740   9.108  0.1658 -1.4722  1.1465
  919MOL0     H21253  10.572  10.999   9.135 -1.5719  0.4885 -1.4475
  919MOL0     H21254  10.553  10.899   8.993 -1.6962  4.7508 -0.9622
  919MOL0     H21255  10.680  10.709   9.116 -0.8587 -0.2819  1.5320
  919MOL0     H21256  10.694  10.818   9.253 -0.0527  3.0896  0.2884
  919MOL0     H21257  10.802  10.952   9.010 -1.6862 -1.3567 -1.4952
  919MOL0     H21258  10.852  10.942   9.180 -1.1968  2.8632 -1.4609
  919MOL0     H21259  10.939  10.723   9.165  0.0697 -0.2160 -0.3028
  919MOL0     H21260  11.014  10.834   9.045 -1.0537  1.3214  1.0698
  919MOL0     H21261  10.755  10.785   8.819  0.4052 -1.7480 -3.8777
  919MOL0     H21262  10.819  10.484   8.601  1.5000 -0.0836  0.4702
  919MOL0     H21263  10.710  10.624   8.628  0.9348 -1.0437 -1.3293
  919MOL0     H21264  10.667  10.328   8.694 -3.8462 -1.3702 -1.7551
  919MOL0     H21265  10.553  10.437   8.617 -0.0458  4.1262 -0.8956
  919MOL0     H21266  10.609  10.435   8.913  4.1988 -0.6817 -2.7576
  919MOL0     H21267  10.530  10.567   8.842 -1.4016 -0.3863 -0.4728
  919MOL0     H21268  10.367  10.442   8.930  4.0240 -0.6043  3.0530
  919MOL0     H21269  10.404  10.285   8.879  0.2809 -0.1104 -0.2838
  919MOL0     H21270  10.181  10.281   8.920  0.5369  1.3339 -0.0065
  919MOL0     H21271   9.967  10.218   8.905  0.2566 -1.2100 -0.8984
  919MOL0     H21272   9.511  10.353   8.878  0.9632 -0.4840  0.1939
  919MOL0     H21273   9.285  10.252   8.886 -1.2962 -2.2626  1.6338
  919MOL0     H21274   9.149   9.887   8.980 -1.1880 -0.3002 -0.1772
  919MOL0     H21275   9.313   9.837   8.926 -1.0786 -0.8281  1.8563
  919MOL0     H21276   9.177   9.677   8.822  0.0505 -0.7333  0.7001
  919MOL0     H21277   9.220   9.793   8.695  0.4754 -3.2139 -0.2374
  919MOL0     H21278   8.984   9.906   8.767  0.4363 -0.8024 -1.8449
  919MOL0     H21279   8.970   9.772   8.886 -1.9256  0.7354 -0.2370
  919MOL0     H21280   9.019   9.665   8.610 -1.6438 -1.4566 -2.3466
  919MOL0     H21281   8.919   9.605   8.743  0.2000  0.0562 -0.4324
  919MOL0     H21282   8.744   9.795   8.677 -1.7830  0.7872 -1.7915
  919MOL0     H21283   8.775   9.655   8.569 -0.4570 -0.1401 -1.5554
  919MOL0     H21284   8.927   9.827   8.432  0.2110 -0.6989  0.1709
  919MOL0     H21285   8.901   9.939   8.570 -1.6096 -1.8368  2.3457
  919MOL0     H21286   8.686   9.829   8.391  0.0193 -1.8465  2.6154
  919MOL0     H21287   8.662   9.955   8.513  0.6190 -1.8974  0.0920
  919MOL0     H21288   8.855   9.999   8.275  1.0161 -0.1076  1.5425
  919MOL0     H21289   8.807  10.105   8.410  0.4140  0.8345 -0.9352
  919MOL0     H21290   9.445   9.879   8.761 -1.2398  0.2047  1.0316
  919MOL0     H21291   9.667   9.971   8.757  0.5285  0.8691  0.8650
  919MOL0     H21292   9.946  10.358   8.497  0.1226 -1.3426  0.6518
  919MOL0     H21293  10.182  10.410   8.506  1.9722 -2.4104 -1.0280
  919MOL0     H21294   9.708  10.930   9.064  1.8472 -1.0748 -0.4572
  919MOL0     H21295   9.523  10.872   9.249  0.5245 -1.1123 -0.6493
  919MOL0     H21296   9.381  10.599   9.603 -1.3683  1.1600 -2.6214
  919MOL0     H21297   9.234  10.558   9.802 -0.8666 -0.8396 -1.0802
  919MOL0     H21298   9.211  10.873  10.096 -0.7496  1.0548  1.0124
  919MOL0     H21299   9.078  10.774  10.162 -0.9900  0.8481 -0.4788
  919MOL0     H21300   8.986  10.988  10.112 -3.6992  0.6703 -2.0465
  919MOL0     H21301   9.029  10.978   9.944  2.6096  1.3034  0.5199
  919MOL0     H21302   8.842  10.797  10.104 -0.9025  0.7260  1.2989
  919MOL0     H21303   8.896  10.768   9.930 -0.0136  3.4014 -2.7660
  919MOL0     H21304   8.720  10.993  10.056  0.4580 -2.3605  1.8583
  919MOL0     H21305   8.808  11.005   9.897  0.8343 -1.4701 -1.0046
  919MOL0     H21306   8.461  10.749   9.845 -0.1468  1.1307 -0.5000
  919MOL0     H21307   9.260  10.975   9.905  1.0806 -1.5558  1.4036
  919MOL0     H21308   9.418  11.004   9.722  3.2176 -1.5169  0.2683
  920MOL0     O21309   7.843   6.560   5.685  0.1058 -0.7482  0.0678
  920MOL0     C21310   7.808   6.559   5.568  0.1011 -0.6646 -0.6996
  920MOL0     O21311   7.688   6.515   5.514  0.3842 -0.2008 -0.1215
  920MOL0     C21312   7.596   6.474   5.601  0.2870  1.1565  0.6065
  920MOL0     C21313   7.567   6.334   5.614  0.8316  0.5620  0.3033
  920MOL0     C21314   7.457   6.289   5.683  0.1147 -0.6475 -0.0176
  920MOL0     C21315   7.372   6.380   5.744  0.2391 -0.1148  0.1257
  920MOL0     O21316   7.248   6.349   5.798 -1.1288  0.2727  0.0705
  920MOL0     C21317   7.218   6.214   5.825 -0.3556 -0.4096  0.0149
  920MOL0     C21318   7.304   6.172   5.945 -0.3227  0.2255  0.4827
  920MOL0     C21319   7.281   6.035   5.988  0.3554 -0.4862  0.2494
  920MOL0     C21320   7.385   6.000   6.092  0.3959  0.1679  0.1160
  920MOL0     C21321   7.348   5.867   6.169 -0.3800 -0.3165 -0.2290
  920MOL0     C21322   7.463   5.826   6.255 -0.7343  0.4332  0.0249
  920MOL0     C21323   7.514   5.923   6.365  0.7717 -0.6054  0.0510
  920MOL0     C21324   7.400   5.997   6.447  0.3976  0.5077  0.0842
  920MOL0     N21325   7.298   5.898   6.482  0.0728  0.1244 -0.2910
  920MOL0     C21326   7.325   5.786   6.556  0.1564  0.5318 -0.0469
  920MOL0     C21327   7.200   5.727   6.571 -0.4374 -0.0680  0.4530
  920MOL0     C21328   7.166   5.590   6.621 -0.3263  0.4885  0.5099
  920MOL0     C21329   7.241   5.473   6.552 -0.6151  1.0752  0.1488
  920MOL0     C21330   7.213   5.469   6.403  0.6373  0.4418  0.8049
  920MOL0     C21331   7.063   5.436   6.381  0.8831 -0.4024  0.1565
  920MOL0     O21332   7.010   5.325   6.459 -0.4935 -0.3571 -0.3361
  920MOL0     C21333   6.882   5.278   6.436 -0.1269 -0.1820 -0.5124
  920MOL0     C21334   6.797   5.340   6.345  0.7846  0.0510 -0.2502
  920MOL0     C21335   6.665   5.295   6.330 -0.0529  0.4308 -0.1043
  920MOL0     C21336   6.614   5.194   6.402  0.4162  0.3191 -0.6884
  920MOL0     C21337   6.475   5.152   6.408  0.1669  0.4433  0.6820
  920MOL0     O21338   6.424   5.121   6.533  0.3176  0.4665 -0.6249
  920MOL0     C21339   6.299   5.069   6.549 -0.2009  0.6307 -0.1528
  920MOL0     C21340   6.190   5.148   6.544  0.6335  0.1083 -0.3728
  920MOL0     C21341   6.057   5.094   6.564  0.2135 -0.0560 -0.2879
  920MOL0     C21342   6.041   4.954   6.585 -0.8322 -0.5185  0.3979
  920MOL0     O21343   5.916   4.903   6.599  0.4065 -0.8993  0.4087
  920MOL0     C21344   5.858   4.918   6.729 -0.2095  0.0407 -0.6710
  920MOL0     C21345   5.706   4.896   6.730 -1.1153 -0.9978 -0.0931
  920MOL0     C21346   5.619   5.017   6.696 -0.6175 -0.1481  0.3687
  920MOL0     C21347   5.467   4.997   6.721  0.0689 -0.2165  0.4250
  920MOL0     C21348   5.391   5.131   6.702 -0.4177  1.2752  0.5411
  920MOL0     C21349   5.245   5.126   6.751  0.2507 -1.1330 -0.2462
  920MOL0     C21350   5.221   5.109   6.903 -0.2725 -0.7457  0.5533
  920MOL0     C21351   5.257   5.232   6.980  0.1382 -0.4585 -0.5352
  920MOL0    Cl21352   5.242   5.198   7.154  0.2200  0.3287 -0.4713
  920MOL0     C21353   6.156   4.873   6.579  0.4158  0.7470  0.3550
  920MOL0     C21354   6.277   4.929   6.562 -0.4801  0.6416  1.1556
  920MOL0     O21355   6.412   5.142   6.303 -0.3116 -0.1785 -0.5919
  920MOL0     C21356   6.698   5.127   6.490  0.2113 -0.8723 -1.2173
  920MOL0     C21357   6.828   5.176   6.512 -0.0487  0.0937  0.0572
  920MOL0     N21358   7.105   5.806   6.508  0.2692  0.0238 -0.0226
  920MOL0     N21359   7.165   5.913   6.457 -0.4613  0.6964 -0.1216
  920MOL0     C21360   7.403   6.516   5.729  0.4865 -0.2207 -0.2623
  920MOL0     C21361   7.512   6.563   5.660 -0.2549 -0.2308 -0.3489
  920MOL0     C21362   7.925   6.592   5.480  0.1347  0.4412  0.4152
  920MOL0     C21363   8.054   6.636   5.520 -0.1981  0.3849  0.2333
  920MOL0     C21364   8.154   6.656   5.428 -0.6012  0.4223  0.2379
  920MOL0     C21365   8.129   6.635   5.296  0.3642  0.5057 -0.1152
  920MOL0     O21366   8.222   6.621   5.196 -0.5023 -0.5183 -0.0341
  920MOL0     C21367   8.351   6.661   5.236  0.2656 -0.2518 -0.3816
  920MOL0     C21368   8.422   6.695   5.108 -0.5278  0.2623  0.0467
  920MOL0     C21369   8.564   6.683   5.138  0.0890  0.2099  0.4994
  920MOL0     C21370   8.626   6.803   5.222  0.6212  0.1446  0.7131
  920MOL0     C21371   8.769   6.800   5.238 -0.1203  0.1213  0.0176
  920MOL0     C21372   8.884   6.793   5.256 -0.6460  0.1508  0.2322
  920MOL0     C21373   7.998   6.621   5.250 -0.2064  0.8609  0.0576
  920MOL0     C21374   7.897   6.600   5.344  0.3470 -0.6117  0.4315
  920MOL0     H21375   7.629   6.264   5.558  1.4401  0.5115  1.0315
  920MOL0     H21376   7.437   6.183   5.683  1.1380 -0.8949 -2.1942
  920MOL0     H21377   7.234   6.146   5.740  1.9302 -0.6894  0.6124
  920MOL0     H21378   7.112   6.204   5.849 -0.8027  1.6519 -0.8879
  920MOL0     H21379   7.280   6.228   6.036 -0.6634  0.4555  0.2539
  920MOL0     H21380   7.410   6.191   5.925 -0.6033 -0.6928 -2.3343
  920MOL0     H21381   7.293   5.970   5.901  0.6782  1.7427 -1.4492
  920MOL0     H21382   7.182   6.016   6.031 -0.7694  0.4085 -1.8110
  920MOL0     H21383   7.475   5.990   6.031 -2.1627 -1.5721 -3.7600
  920MOL0     H21384   7.397   6.084   6.162  2.3424 -0.6737  0.8699
  920MOL0     H21385   7.327   5.783   6.102  0.0903 -0.6934  0.0846
  920MOL0     H21386   7.255   5.880   6.225 -0.5625 -1.1015 -0.3398
  920MOL0     H21387   7.542   5.791   6.187  0.1185  0.7876  0.8112
  920MOL0     H21388   7.425   5.739   6.309  0.7540 -0.5355 -0.4213
  920MOL0     H21389   7.584   5.883   6.439  1.3240 -0.7829 -0.5526
  920MOL0     H21390   7.570   5.996   6.306  1.4628 -0.8614  0.3878
  920MOL0     H21391   7.357   6.071   6.379 -0.5223 -1.2211 -1.2904
  920MOL0     H21392   7.443   6.037   6.539 -0.2620  1.5627 -0.0508
  920MOL0     H21393   7.419   5.741   6.586  0.9339  1.6078 -0.8367
  920MOL0     H21394   7.060   5.564   6.626 -0.2893 -0.8821 -3.1782
  920MOL0     H21395   7.189   5.596   6.728  0.9142  1.7787  0.2183
  920MOL0     H21396   7.224   5.376   6.599 -1.7198  1.8477  1.4288
  920MOL0     H21397   7.348   5.487   6.571 -0.9865  0.2512  3.4227
  920MOL0     H21398   7.246   5.565   6.361  1.2294  0.5740  1.5354
  920MOL0     H21399   7.265   5.384   6.360 -0.3310  0.0792  0.3175
  920MOL0     H21400   7.049   5.417   6.274 -0.1044 -0.2629  0.2466
  920MOL0     H21401   7.007   5.525   6.411  2.8631  0.9619 -0.0243
  920MOL0     H21402   6.838   5.419   6.282  1.5679 -1.3135 -1.5285
  920MOL0     H21403   6.598   5.338   6.256 -1.3951  0.0385  0.8564
  920MOL0     H21404   6.205   5.256   6.535  0.8706  0.2727  1.6236
  920MOL0     H21405   5.964   5.151   6.567 -0.5612 -1.2396 -0.6796
  920MOL0     H21406   5.879   5.016   6.772 -1.8806  0.4539 -0.7267
  920MOL0     H21407   5.900   4.842   6.796 -0.1813  1.1921  0.6653
  920MOL0     H21408   5.684   4.874   6.835  3.2029 -0.8801  1.0353
  920MOL0     H21409   5.692   4.802   6.676 -1.0270 -0.4015 -1.1782
  920MOL0     H21410   5.635   5.050   6.593  0.7379  0.4678  0.7476
  920MOL0     H21411   5.645   5.101   6.761  2.9110 -0.4339 -0.4597
  920MOL0     H21412   5.425   4.918   6.659 -1.8241  2.3983 -1.8954
  920MOL0     H21413   5.460   4.965   6.825 -0.9039  1.5711  0.9395
  920MOL0     H21414   5.394   5.167   6.599  1.9284  3.8301  1.3790
  920MOL0     H21415   5.439   5.203   6.770 -0.8148  1.3517  0.7424
  920MOL0     H21416   5.193   5.046   6.697 -0.4730 -1.3914  0.8022
  920MOL0     H21417   5.201   5.224   6.732  0.1538 -0.2618  3.7122
  920MOL0     H21418   5.113   5.101   6.918 -0.5652 -1.8778 -1.8117
  920MOL0     H21419   5.269   5.016   6.934 -1.0793 -1.9347 -1.6083
  920MOL0     H21420   5.202   5.323   6.954  1.5353  1.3623  2.3032
  920MOL0     H21421   5.363   5.254   6.964  0.2553 -1.7157 -1.6603
  920MOL0     H21422   6.149   4.764   6.583 -0.6703  0.7317 -1.2226
  920MOL0     H21423   6.355   4.854   6.555 -0.7295  0.5185 -0.7709
  920MOL0     H21424   6.658   5.045   6.549 -4.5660  0.3969 -2.2545
  920MOL0     H21425   6.903   5.137   6.580  2.5646 -1.8707 -3.5508
  920MOL0     H21426   7.346   6.599   5.770 -0.3510 -0.2803 -1.2677
  920MOL0     H21427   7.513   6.669   5.640  0.9885  0.3304  2.3095
  920MOL0     H21428   8.091   6.649   5.621 -1.0264 -1.6782  0.8742
  920MOL0     H21429   8.253   6.672   5.469 -0.0480  0.5479 -1.1160
  920MOL0     H21430   8.397   6.577   5.288  0.6770 -0.5111 -1.1411
  920MOL0     H21431   8.355   6.741   5.310  0.6393 -1.4268  0.9174
  920MOL0     H21432   8.401   6.610   5.042  0.2428 -1.4232  1.8710
  920MOL0     H21433   8.388   6.786   5.058 -0.6143  0.2069  0.0026
  920MOL0     H21434   8.607   6.704   5.040 -0.2083  0.4251  0.4159
  920MOL0     H21435   8.602   6.585   5.170  0.5113 -1.1046 -3.5622
  920MOL0     H21436   8.596   6.898   5.177 -1.7621 -2.0339 -2.7306
  920MOL0     H21437   8.582   6.792   5.322 -2.5136  0.7573 -0.5071
  920MOL0     H21438   8.990   6.781   5.267 -0.4138  1.1833 -0.7238
  920MOL0     H21439   7.975   6.617   5.144  2.6679  1.1852 -0.6616
  920MOL0     H21440   7.796   6.593   5.304  0.4924  1.5219 -0.4477
  921MOL0     O21441   1.219   6.903   2.433  0.2659  0.4154 -0.1061
  921MOL0     C21442   1.273   6.963   2.332 -0.1069  0.5108  0.1708
  921MOL0     O21443   1.213   7.001   2.216  0.4418 -0.4150 -0.3202
  921MOL0     C21444   1.085   6.974   2.178 -0.6876  0.2363 -0.4155
  921MOL0     C21445   1.061   7.004   2.044  0.4193  0.4325  0.3679
  921MOL0     C21446   0.931   6.982   1.987 -0.7813  0.2557 -0.4311
  921MOL0     C21447   0.823   6.920   2.058  0.2557  0.1700  0.7994
  921MOL0     O21448   0.710   6.897   1.998 -0.1316 -0.2146  0.0398
  921MOL0     C21449   0.628   6.812   2.070 -0.0492 -0.0372 -0.2096
  921MOL0     C21450   0.531   6.769   1.965 -0.0040  0.6616 -0.3638
  921MOL0     C21451   0.423   6.674   2.018  0.4363 -0.0066 -0.5272
  921MOL0     C21452   0.320   6.639   1.913 -0.7020 -0.0937  0.1626
  921MOL0     C21453   0.204   6.554   1.967  0.3441 -0.3000  0.8338
  921MOL0     C21454   0.085   6.635   2.038 -0.8937 -1.3983 -1.0169
  921MOL0     C21455  -0.021   6.544   2.085  0.7583 -0.2257  0.0460
  921MOL0     C21456  -0.136   6.538   1.987  0.7557  0.2115  0.5400
  921MOL0     N21457  -0.225   6.653   2.008  0.8492 -0.0410  0.4357
  921MOL0     C21458  -0.208   6.787   2.005 -0.7207  0.3200 -0.7098
  921MOL0     C21459  -0.327   6.838   2.056 -0.3379 -0.5409 -0.1223
  921MOL0     C21460  -0.374   6.979   2.064 -0.0230  0.6586 -0.1332
  921MOL0     C21461  -0.416   7.049   1.940 -0.2671 -0.4893 -0.2623
  921MOL0     C21462  -0.549   7.002   1.872  0.4588 -0.1595  0.5026
  921MOL0     C21463  -0.570   7.071   1.730  0.3198  0.8451  0.3987
  921MOL0     O21464  -0.706   7.118   1.710 -0.1272  0.3768 -0.0612
  921MOL0     C21465  -0.808   7.027   1.689  0.3861  0.4467 -0.6295
  921MOL0     C21466  -0.788   6.900   1.629  0.4209 -0.5856  0.7133
  921MOL0     C21467  -0.899   6.816   1.615  0.1479  0.2172 -0.1583
  921MOL0     C21468  -1.029   6.850   1.650 -0.3604 -0.7536  0.1090
  921MOL0     C21469  -1.142   6.764   1.625  0.3229  0.4162  0.4159
  921MOL0     O21470  -1.268   6.818   1.650  0.2140  0.6262 -0.1732
  921MOL0     C21471  -1.379   6.730   1.638  0.5300 -0.0120 -0.9776
  921MOL0     C21472  -1.388   6.597   1.684 -0.3174 -0.2907  0.3688
  921MOL0     C21473  -1.510   6.528   1.687 -0.5171  0.1115  0.9103
  921MOL0     C21474  -1.631   6.578   1.639  0.2999 -0.2289 -0.5588
  921MOL0     O21475  -1.742   6.499   1.625  0.0337 -0.2837  0.3793
  921MOL0     C21476  -1.868   6.566   1.664 -0.3315  0.4395  0.7198
  921MOL0     C21477  -1.961   6.595   1.541  0.9114  0.5243 -0.2414
  921MOL0     C21478  -2.049   6.473   1.532  0.3443  0.1434  0.5716
  921MOL0     C21479  -2.149   6.486   1.418 -0.2291 -0.8253 -0.3144
  921MOL0     C21480  -2.206   6.352   1.381 -0.0415 -0.2848  1.1602
  921MOL0     C21481  -2.281   6.287   1.501  0.2673  0.1194 -0.3828
  921MOL0     C21482  -2.318   6.150   1.439  0.0964 -0.1251 -0.6843
  921MOL0     C21483  -2.390   6.069   1.543  0.0724  0.4148 -0.6032
  921MOL0    Cl21484  -2.553   6.132   1.579 -0.3652  0.1934  0.0863
  921MOL0     C21485  -1.627   6.718   1.597 -1.3264 -0.5404 -0.2529
  921MOL0     C21486  -1.504   6.792   1.603  0.1916  0.7728  0.0563
  921MOL0     O21487  -1.126   6.654   1.560 -0.1262 -0.2776 -0.0596
  921MOL0     C21488  -1.047   6.974   1.714  0.5517  0.1971  0.5291
  921MOL0     C21489  -0.933   7.057   1.735 -0.0580  0.3376  0.1250
  921MOL0     N21490  -0.416   6.735   2.091  0.0395  0.3382  0.2363
  921MOL0     N21491  -0.351   6.623   2.061 -0.2493 -0.0860 -1.1204
  921MOL0     C21492   0.853   6.894   2.195 -0.2711 -0.1445 -0.6642
  921MOL0     C21493   0.980   6.923   2.261 -0.0058  0.0912 -0.2055
  921MOL0     C21494   1.414   7.006   2.350 -1.0018  0.0370  0.1343
  921MOL0     C21495   1.484   7.078   2.248  0.4130  0.0177  0.2997
  921MOL0     C21496   1.620   7.123   2.257  0.1844  0.0799  0.7800
  921MOL0     C21497   1.689   7.093   2.375  0.3163 -0.8629 -0.3072
  921MOL0     O21498   1.820   7.115   2.418 -0.1758 -0.8304  0.6693
  921MOL0     C21499   1.912   7.201   2.356  0.2624 -0.0137 -0.1634
  921MOL0     C21500   2.053   7.136   2.378 -0.8616 -0.2534  0.8986
  921MOL0     C21501   2.162   7.235   2.307  0.1602  0.7161 -0.1347
  921MOL0     C21502   2.173   7.364   2.370 -0.3513 -0.6792  0.7331
  921MOL0     C21503   2.215   7.336   2.507  0.1223  0.0151 -0.1014
  921MOL0     C21504   2.259   7.289   2.608  0.1807 -0.1745  0.1674
  921MOL0     C21505   1.628   7.008   2.469  0.9880  0.0833  0.6812
  921MOL0     C21506   1.488   6.975   2.466 -0.1808  1.3816  0.1593
  921MOL0     H21507   1.144   7.045   1.986  1.2516  1.8119  2.4153
  921MOL0     H21508   0.920   6.999   1.881  0.2331 -0.9365 -0.7467
  921MOL0     H21509   0.567   6.864   2.145 -0.5378 -1.6578  0.5667
  921MOL0     H21510   0.682   6.731   2.121  0.5023  0.3381 -0.1885
  921MOL0     H21511   0.584   6.722   1.881 -0.9247 -1.3050  0.0844
  921MOL0     H21512   0.498   6.865   1.924 -1.2325 -0.0841 -1.1972
  921MOL0     H21513   0.374   6.736   2.094  2.2183  1.7175 -0.6953
  921MOL0     H21514   0.465   6.585   2.066  1.9444  1.7091  1.4982
  921MOL0     H21515   0.279   6.725   1.859  0.7178 -0.9852 -2.4873
  921MOL0     H21516   0.374   6.569   1.849  0.6084  2.1566 -1.3334
  921MOL0     H21517   0.240   6.472   2.029  2.9969 -0.4340 -0.7351
  921MOL0     H21518   0.159   6.508   1.879  2.0829 -2.4350  0.9795
  921MOL0     H21519   0.061   6.718   1.971 -1.0612 -0.0509  0.6504
  921MOL0     H21520   0.130   6.678   2.128 -1.3985 -3.3996  0.2421
  921MOL0     H21521   0.017   6.445   2.114 -0.8576 -0.4318  1.6808
  921MOL0     H21522  -0.060   6.582   2.180 -1.3019  0.2449 -0.9436
  921MOL0     H21523  -0.190   6.445   2.007 -0.9044  1.2336  0.9659
  921MOL0     H21524  -0.096   6.524   1.886 -0.8242 -4.2796  0.3312
  921MOL0     H21525  -0.123   6.844   1.969 -1.0054  0.1620 -1.6621
  921MOL0     H21526  -0.296   7.047   2.102 -0.6993  1.4959 -0.2103
  921MOL0     H21527  -0.457   6.980   2.135  0.3773  0.2567  0.3477
  921MOL0     H21528  -0.337   7.024   1.869  1.4079 -0.3005  1.4255
  921MOL0     H21529  -0.432   7.156   1.955 -1.8010 -0.8179  0.7894
  921MOL0     H21530  -0.548   6.893   1.865  1.0976 -0.3211  2.3773
  921MOL0     H21531  -0.638   7.031   1.929 -1.4954 -1.7087 -1.5800
  921MOL0     H21532  -0.544   7.000   1.652  0.3405  0.1722  1.0070
  921MOL0     H21533  -0.498   7.153   1.715 -0.0439  1.2261  0.7145
  921MOL0     H21534  -0.690   6.876   1.587  0.9327  2.9946 -0.4890
  921MOL0     H21535  -0.866   6.720   1.575 -1.3081  0.1449 -1.2772
  921MOL0     H21536  -1.300   6.553   1.729 -2.1574 -1.8991  2.6344
  921MOL0     H21537  -1.497   6.424   1.718  5.1234 -0.1117 -1.1000
  921MOL0     H21538  -1.842   6.662   1.710 -2.2025  1.7121 -0.7450
  921MOL0     H21539  -1.921   6.506   1.739  1.3314 -1.4685  0.4897
  921MOL0     H21540  -1.910   6.616   1.446  0.0680  0.6550 -0.6745
  921MOL0     H21541  -2.027   6.679   1.564  0.4944 -0.7466  4.0554
  921MOL0     H21542  -2.094   6.456   1.630 -0.0546 -1.6076  0.1334
  921MOL0     H21543  -1.987   6.385   1.512 -0.9763 -0.4333 -1.2551
  921MOL0     H21544  -2.227   6.556   1.447  3.5922  2.7153  2.5380
  921MOL0     H21545  -2.094   6.517   1.328  0.0720 -0.5030 -0.0229
  921MOL0     H21546  -2.125   6.289   1.344 -0.1305 -0.8756  1.9679
  921MOL0     H21547  -2.278   6.363   1.300 -0.2359 -1.5455  1.1431
  921MOL0     H21548  -2.365   6.349   1.532 -1.0265 -1.6797 -0.1284
  921MOL0     H21549  -2.222   6.273   1.592 -0.1831 -0.3529 -0.1565
  921MOL0     H21550  -2.374   6.151   1.345  0.0649 -1.6682 -0.7117
  921MOL0     H21551  -2.232   6.097   1.397  0.7599  2.0688 -2.2954
  921MOL0     H21552  -2.332   6.061   1.635 -0.9747  1.1571  0.1553
  921MOL0     H21553  -2.406   5.963   1.520  0.1887 -0.0778  1.4566
  921MOL0     H21554  -1.707   6.768   1.544 -0.7623  0.6653  0.0019
  921MOL0     H21555  -1.503   6.899   1.584 -1.0229  1.4415  3.1002
  921MOL0     H21556  -1.145   7.002   1.752 -1.7647 -4.4830 -1.1761
  921MOL0     H21557  -0.947   7.152   1.785 -0.1163 -1.0622  2.9346
  921MOL0     H21558   0.774   6.851   2.254  0.4702 -1.9528 -0.9376
  921MOL0     H21559   0.987   6.909   2.368  0.6791  0.1515 -0.2365
  921MOL0     H21560   1.426   7.111   2.162 -0.3951  2.1250  1.5756
  921MOL0     H21561   1.656   7.180   2.172  0.2270 -1.0217  0.0290
  921MOL0     H21562   1.910   7.298   2.405 -0.7859  0.7059 -1.5656
  921MOL0     H21563   1.886   7.212   2.250 -3.5596 -2.3902  0.3465
  921MOL0     H21564   2.058   7.117   2.486 -1.7299 -0.2790  0.9467
  921MOL0     H21565   2.063   7.040   2.327  1.4615  0.8816 -0.9744
  921MOL0     H21566   2.131   7.241   2.202 -0.2774 -1.0649 -0.1456
  921MOL0     H21567   2.261   7.188   2.305 -0.3762 -0.7782  3.0219
  921MOL0     H21568   2.240   7.429   2.313 -1.9425 -0.3793 -0.8734
  921MOL0     H21569   2.077   7.415   2.382  2.1412  5.0099 -0.5673
  921MOL0     H21570   2.296   7.265   2.706 -1.7453  1.7999  1.4784
  921MOL0     H21571   1.685   6.970   2.553  0.4499  0.3671  1.1797
  921MOL0     H21572   1.431   6.918   2.539 -0.0838  1.0839  0.0057
  922MOL0     O21573   0.185   7.809   2.256  0.0051  0.2410 -1.3103
  922MOL0     C21574   0.237   7.708   2.205 -0.3028  0.3137 -0.9512
  922MOL0     O21575   0.172   7.586   2.182 -0.3839 -0.2425 -0.3319
  922MOL0     C21576   0.048   7.557   2.237 -0.3320 -0.5027  1.0699
  922MOL0     C21577  -0.036   7.482   2.155  0.5824 -0.4519  0.4961
  922MOL0     C21578  -0.162   7.453   2.197  0.3132  0.2999 -0.3815
  922MOL0     C21579  -0.210   7.485   2.327  0.0922  0.2554  0.0418
  922MOL0     O21580  -0.331   7.446   2.375 -0.1730  0.3708 -0.6828
  922MOL0     C21581  -0.447   7.415   2.291  0.9845 -0.1360  0.5556
  922MOL0     C21582  -0.525   7.306   2.357  0.6169 -0.2880 -0.0057
  922MOL0     C21583  -0.659   7.291   2.290 -0.7254 -0.6530  0.6403
  922MOL0     C21584  -0.667   7.244   2.149 -0.2585  0.4728  0.6023
  922MOL0     C21585  -0.806   7.251   2.089 -0.1952  1.0043 -0.1781
  922MOL0     C21586  -0.914   7.177   2.164  0.0024 -0.8364  0.1028
  922MOL0     C21587  -1.037   7.149   2.072 -0.0374  0.2321 -0.2890
  922MOL0     C21588  -1.159   7.114   2.164 -0.4603  1.0298  0.3636
  922MOL0     N21589  -1.286   7.137   2.096  0.3912  0.0750  0.3729
  922MOL0     C21590  -1.398   7.193   2.158  0.4598 -0.2032 -0.5250
  922MOL0     C21591  -1.497   7.166   2.069 -0.0925  0.2704  0.4164
  922MOL0     C21592  -1.638   7.225   2.097  0.1145 -0.0411 -0.2970
  922MOL0     C21593  -1.618   7.376   2.081 -0.4918 -0.6790  0.2084
  922MOL0     C21594  -1.744   7.448   2.134 -0.3258  0.2204 -0.1508
  922MOL0     C21595  -1.850   7.426   2.026  0.5438 -0.0502 -0.2275
  922MOL0     O21596  -1.958   7.520   2.046 -0.0661  0.3020 -0.1742
  922MOL0     C21597  -2.058   7.517   1.950 -0.3713 -0.5086 -0.2736
  922MOL0     C21598  -2.159   7.615   1.953 -0.0650  0.1498  0.2477
  922MOL0     C21599  -2.261   7.629   1.861 -0.4357 -0.1430  0.8191
  922MOL0     C21600  -2.269   7.530   1.758  0.0612 -0.2305 -0.6626
  922MOL0     C21601  -2.386   7.542   1.668 -0.4170  0.3515  0.3857
  922MOL0     O21602  -2.472   7.642   1.667 -0.3392  0.0455  0.2138
  922MOL0     C21603  -2.561   7.650   1.560  0.0595 -0.5747 -0.4813
  922MOL0     C21604  -2.529   7.702   1.434  0.2008 -1.0154 -0.5760
  922MOL0     C21605  -2.622   7.706   1.331  0.0666  0.2996  0.6842
  922MOL0     C21606  -2.747   7.651   1.353 -0.2220 -0.4973  0.3316
  922MOL0     O21607  -2.851   7.652   1.271 -0.0778 -0.3983 -0.3956
  922MOL0     C21608  -2.832   7.671   1.134  0.4793 -0.2521 -1.1199
  922MOL0     C21609  -2.947   7.607   1.068  0.5657 -0.6641 -0.2711
  922MOL0     C21610  -2.956   7.455   1.089 -0.7543  0.1610  0.0573
  922MOL0     C21611  -3.102   7.414   1.065 -0.2814 -0.5479  0.8797
  922MOL0     C21612  -3.200   7.484   1.158  1.0986  0.5883  0.4393
  922MOL0     C21613  -3.310   7.389   1.196 -0.1895  0.5245 -0.7361
  922MOL0     C21614  -3.430   7.462   1.248  0.1106 -1.4892  0.8338
  922MOL0     C21615  -3.553   7.374   1.261  0.7927  0.2893  0.7282
  922MOL0    Cl21616  -3.551   7.275   1.409  0.1168 -0.1383  0.1475
  922MOL0     C21617  -2.781   7.600   1.478 -0.7763 -0.3218  0.3283
  922MOL0     C21618  -2.692   7.599   1.581 -1.0872 -0.6467  0.0903
  922MOL0     O21619  -2.400   7.445   1.594  0.0623  0.0231 -0.4384
  922MOL0     C21620  -2.172   7.437   1.745  0.2467  0.2034 -0.5463
  922MOL0     C21621  -2.066   7.429   1.839 -0.6732 -0.9557 -0.5602
  922MOL0     N21622  -1.450   7.098   1.960  0.5721  0.2735 -0.4578
  922MOL0     N21623  -1.321   7.080   1.977  0.1711  0.5713 -0.2465
  922MOL0     C21624  -0.127   7.559   2.406  0.4596  0.0694 -0.5618
  922MOL0     C21625   0.002   7.600   2.362 -0.0757 -0.0492  0.8503
  922MOL0     C21626   0.375   7.704   2.171  0.6636 -1.7655  0.9270
  922MOL0     C21627   0.449   7.585   2.152 -0.0322  0.2835  0.2977
  922MOL0     C21628   0.581   7.587   2.116  0.0473  0.0880  0.0231
  922MOL0     C21629   0.653   7.707   2.107  0.6775  0.5520 -0.6166
  922MOL0     O21630   0.786   7.683   2.100 -0.3276  0.2758  1.0690
  922MOL0     C21631   0.877   7.780   2.068 -0.3165  0.0908  0.6205
  922MOL0     C21632   1.017   7.734   2.130 -0.3832 -0.4744 -0.2909
  922MOL0     C21633   1.001   7.735   2.280 -0.4336 -0.7654 -0.7977
  922MOL0     C21634   1.135   7.725   2.356  0.2911  0.5320  0.0663
  922MOL0     C21635   1.229   7.835   2.337 -0.7347  0.7160  0.6681
  922MOL0     C21636   1.314   7.923   2.325  0.0790  0.4388  0.1100
  922MOL0     C21637   0.580   7.822   2.121 -0.9203 -0.2653 -0.1196
  922MOL0     C21638   0.445   7.821   2.145 -0.2871  0.6201  0.6967
  922MOL0     H21639   0.010   7.457   2.060  1.0102  1.1178  0.2666
  922MOL0     H21640  -0.218   7.399   2.121  1.1172  0.0152 -0.7808
  922MOL0     H21641  -0.412   7.381   2.193  1.6336  0.2928  0.6356
  922MOL0     H21642  -0.506   7.506   2.282  1.1712 -0.0517  0.1838
  922MOL0     H21643  -0.555   7.337   2.457  0.5321 -0.1680 -0.0677
  922MOL0     H21644  -0.473   7.210   2.361  2.1574  0.3073 -2.9126
  922MOL0     H21645  -0.732   7.372   2.296 -2.8221 -2.4743  0.9769
  922MOL0     H21646  -0.702   7.217   2.358  0.9750  0.7359  3.4275
  922MOL0     H21647  -0.595   7.308   2.097  1.1484  0.3222  2.2755
  922MOL0     H21648  -0.624   7.144   2.136  1.2092  1.2559 -0.9787
  922MOL0     H21649  -0.805   7.214   1.986 -1.8089  0.3479  0.0042
  922MOL0     H21650  -0.837   7.356   2.085 -3.1316  0.4667  3.1100
  922MOL0     H21651  -0.943   7.241   2.248  0.8402  1.1835 -1.0660
  922MOL0     H21652  -0.874   7.081   2.197  1.1784 -0.7636 -1.0338
  922MOL0     H21653  -1.072   7.241   2.023  0.4418  1.4673  1.5583
  922MOL0     H21654  -1.036   7.065   2.002 -0.5016 -1.1252  1.2671
  922MOL0     H21655  -1.147   7.176   2.252  1.8711  0.6214  0.3872
  922MOL0     H21656  -1.152   7.006   2.182  2.6367  1.5201  2.8495
  922MOL0     H21657  -1.412   7.256   2.246  1.3254  1.3953 -1.4819
  922MOL0     H21658  -1.660   7.195   2.200  3.3905 -0.3455  0.4216
  922MOL0     H21659  -1.726   7.191   2.041 -1.8347  0.0583  2.4977
  922MOL0     H21660  -1.586   7.398   1.979  0.5869 -1.4204  0.3801
  922MOL0     H21661  -1.540   7.412   2.148 -0.4032  1.7703 -1.1153
  922MOL0     H21662  -1.765   7.398   2.230 -0.1487  1.2271  0.4259
  922MOL0     H21663  -1.713   7.550   2.156 -1.0446  0.1015  1.6495
  922MOL0     H21664  -1.884   7.323   2.037  3.5102 -1.3116 -1.7439
  922MOL0     H21665  -1.811   7.439   1.925 -1.9301 -1.4690 -1.4723
  922MOL0     H21666  -2.157   7.691   2.031 -0.6589  1.3917 -0.9117
  922MOL0     H21667  -2.338   7.705   1.867 -0.9576 -0.4460 -1.2516
  922MOL0     H21668  -2.432   7.750   1.418 -0.7632  0.5952 -1.8706
  922MOL0     H21669  -2.600   7.746   1.232  1.1096 -0.8850  0.3960
  922MOL0     H21670  -2.739   7.633   1.091  0.9006 -0.8852  0.2969
  922MOL0     H21671  -2.838   7.778   1.112 -1.3460 -0.2465 -0.7120
  922MOL0     H21672  -2.943   7.629   0.960 -2.8832 -1.0198 -0.5765
  922MOL0     H21673  -3.037   7.663   1.094 -0.5435 -1.5452 -1.9933
  922MOL0     H21674  -2.930   7.416   1.187  2.1314 -1.8956 -1.3740
  922MOL0     H21675  -2.890   7.397   1.024 -0.6762 -0.9562  1.0963
  922MOL0     H21676  -3.124   7.451   0.964 -0.3387 -1.0951  0.6887
  922MOL0     H21677  -3.118   7.307   1.075  1.3406 -0.9388 -0.3182
  922MOL0     H21678  -3.247   7.573   1.117  0.4594  1.2195  2.4101
  922MOL0     H21679  -3.141   7.510   1.246  2.5776 -0.8206 -0.0889
  922MOL0     H21680  -3.277   7.314   1.269  2.3182  4.5402  2.7354
  922MOL0     H21681  -3.343   7.347   1.101  0.5719  0.8791 -1.1694
  922MOL0     H21682  -3.407   7.512   1.343 -1.1855 -1.4548  1.1386
  922MOL0     H21683  -3.448   7.542   1.175  2.0792 -3.5213 -2.1346
  922MOL0     H21684  -3.571   7.316   1.170 -0.0529 -0.0116  1.0761
  922MOL0     H21685  -3.649   7.427   1.272 -0.8539 -1.9952 -1.4705
  922MOL0     H21686  -2.875   7.559   1.514  0.0407 -0.6645  2.1536
  922MOL0     H21687  -2.722   7.569   1.681 -1.1763 -1.7432 -0.2589
  922MOL0     H21688  -2.169   7.362   1.667 -1.7832 -0.9416  0.4016
  922MOL0     H21689  -1.987   7.358   1.816 -0.7167 -1.0523 -0.4049
  922MOL0     H21690  -0.154   7.589   2.507  3.2338  1.1232 -0.0527
  922MOL0     H21691   0.072   7.647   2.430 -0.0536 -2.1420  2.3688
  922MOL0     H21692   0.413   7.483   2.164  1.8415 -0.3722  0.6184
  922MOL0     H21693   0.632   7.495   2.086 -0.2703 -0.0086 -0.2324
  922MOL0     H21694   0.839   7.874   2.109  0.2827  1.4746 -1.7901
  922MOL0     H21695   0.885   7.796   1.960 -0.9369  2.1635  0.8357
  922MOL0     H21696   1.036   7.637   2.085 -0.2329  0.1746 -1.6658
  922MOL0     H21697   1.088   7.816   2.118 -3.0939  2.2692  0.8355
  922MOL0     H21698   0.928   7.662   2.314 -2.1698  1.1807 -0.0831
  922MOL0     H21699   0.958   7.832   2.307  3.6449  0.8335  0.8135
  922MOL0     H21700   1.114   7.697   2.460 -1.3302  1.1559 -0.0636
  922MOL0     H21701   1.192   7.640   2.318  0.7406  1.4435 -1.3820
  922MOL0     H21702   1.380   8.007   2.322  1.5926 -0.6728  0.4934
  922MOL0     H21703   0.635   7.913   2.102 -0.2135 -0.8430 -0.8956
  922MOL0     H21704   0.399   7.917   2.165  1.2128  1.1725  1.7272
  923MOL0     O21705   5.693   7.951   0.405 -0.2833  0.6104  0.1069
  923MOL0     C21706   5.725   7.926   0.291  0.6881  0.6207  0.4420
  923MOL0     O21707   5.646   7.850   0.198 -0.0623  0.3910 -0.0804
  923MOL0     C21708   5.530   7.782   0.225  0.0148 -0.3968 -0.7317
  923MOL0     C21709   5.455   7.812   0.346  0.2248 -0.4338 -0.0709
  923MOL0     C21710   5.332   7.758   0.376  0.5327 -0.6908  0.5367
  923MOL0     C21711   5.277   7.663   0.285 -0.6897 -0.9064  0.1974
  923MOL0     O21712   5.170   7.584   0.307 -0.9102  0.1025  0.0281
  923MOL0     C21713   5.081   7.648   0.395 -0.4644 -0.2471  1.1681
  923MOL0     C21714   4.960   7.554   0.401  0.0995 -0.1587 -0.1841
  923MOL0     C21715   4.892   7.541   0.268 -0.6710 -0.1547  0.6739
  923MOL0     C21716   4.775   7.448   0.270  0.2129 -0.0551 -0.0792
  923MOL0     C21717   4.666   7.493   0.181 -0.2161  0.0278  0.5112
  923MOL0     C21718   4.543   7.395   0.182 -0.3116 -0.0391  0.2291
  923MOL0     C21719   4.435   7.430   0.081 -0.1840 -0.0047 -0.0742
  923MOL0     C21720   4.312   7.337   0.100 -0.3891 -0.7211 -0.1607
  923MOL0     N21721   4.189   7.389   0.031  0.2197 -0.0548  0.6214
  923MOL0     C21722   4.122   7.507   0.051  0.0250  0.6716 -0.5138
  923MOL0     C21723   4.014   7.498  -0.026  1.4275  0.8110  0.6711
  923MOL0     C21724   3.903   7.599  -0.038  0.3619  0.3033 -0.4585
  923MOL0     C21725   3.793   7.586   0.066  0.1304 -0.5362  0.2275
  923MOL0     C21726   3.729   7.445   0.047 -0.2222 -0.0562  0.5663
  923MOL0     C21727   3.604   7.447   0.125 -0.0394  0.5088 -0.5090
  923MOL0     O21728   3.500   7.529   0.059 -0.3848 -0.4943  0.1960
  923MOL0     C21729   3.365   7.501   0.033  0.0802 -0.2243 -0.0524
  923MOL0     C21730   3.305   7.393   0.089  0.5339 -0.0345  0.0246
  923MOL0     C21731   3.167   7.375   0.066 -0.4416  1.0393 -0.3137
  923MOL0     C21732   3.093   7.464  -0.010 -0.3725 -0.3477  0.2448
  923MOL0     C21733   2.951   7.443  -0.033  0.4599  0.0174 -0.9626
  923MOL0     O21734   2.875   7.552  -0.065 -0.7552 -0.3962  0.4976
  923MOL0     C21735   2.739   7.553  -0.054 -0.0947  0.6957 -0.8731
  923MOL0     C21736   2.680   7.546   0.076 -0.1876  0.0499 -0.3432
  923MOL0     C21737   2.549   7.583   0.086 -0.0022  0.3460  0.0785
  923MOL0     C21738   2.472   7.631  -0.018 -0.1767 -0.3608 -0.0499
  923MOL0     O21739   2.349   7.673  -0.000  1.5141  0.0022  0.2813
  923MOL0     C21740   2.253   7.566  -0.025  0.4130  0.4439 -0.3854
  923MOL0     C21741   2.142   7.636  -0.105  0.6030  0.6657  0.0708
  923MOL0     C21742   2.058   7.737  -0.027 -1.0983  0.2805  0.1654
  923MOL0     C21743   1.956   7.806  -0.119  0.1007 -0.1552  0.5633
  923MOL0     C21744   1.889   7.931  -0.055 -0.6656 -0.0704  0.0282
  923MOL0     C21745   1.796   7.983  -0.162 -0.8572  0.0402 -0.8466
  923MOL0     C21746   1.749   8.123  -0.117  0.3611  0.0057  0.1006
  923MOL0     C21747   1.730   8.214  -0.232 -0.3238 -0.5779 -0.7398
  923MOL0    Cl21748   1.617   8.162  -0.356 -0.4522  0.3630 -0.0999
  923MOL0     C21749   2.526   7.642  -0.141 -0.0570  0.3279 -0.1937
  923MOL0     C21750   2.658   7.602  -0.161  0.2428  0.0260  0.9164
  923MOL0     O21751   2.907   7.331  -0.013  0.2206 -0.0384 -0.1429
  923MOL0     C21752   3.160   7.577  -0.068  0.2286  0.0165  0.3736
  923MOL0     C21753   3.298   7.590  -0.044 -0.0543 -0.2873  0.3640
  923MOL0     N21754   4.012   7.383  -0.097  0.3397 -0.5808 -0.5605
  923MOL0     N21755   4.120   7.322  -0.062 -0.2787 -0.1685 -0.0494
  923MOL0     C21756   5.352   7.630   0.175 -0.2676 -0.7911  0.6075
  923MOL0     C21757   5.473   7.689   0.141 -0.3665 -0.1120 -0.0188
  923MOL0     C21758   5.844   7.993   0.238 -0.4698  0.0864  0.1858
  923MOL0     C21759   5.939   8.053   0.324  0.0791  0.2279 -0.3718
  923MOL0     C21760   6.044   8.137   0.277  0.1493 -0.6958 -0.1924
  923MOL0     C21761   6.060   8.149   0.141 -0.0295 -0.5388 -0.1121
  923MOL0     O21762   6.154   8.234   0.087 -0.1207 -0.0162 -0.3616
  923MOL0     C21763   6.292   8.186   0.115 -0.1846  0.9412 -0.0092
  923MOL0     C21764   6.387   8.244   0.008  0.1448  0.0110  0.6502
  923MOL0     C21765   6.527   8.210   0.050  0.0691 -0.5340 -0.5966
  923MOL0     C21766   6.641   8.249  -0.053 -0.7465  0.0475 -0.2631
  923MOL0     C21767   6.753   8.157  -0.052 -1.1107 -0.2249 -0.4247
  923MOL0     C21768   6.852   8.085  -0.055 -0.1843 -0.6972  0.2198
  923MOL0     C21769   5.974   8.078   0.049 -0.8645 -0.0805 -0.1519
  923MOL0     C21770   5.867   8.005   0.103  0.5157  0.0460  0.0509
  923MOL0     H21771   5.479   7.891   0.416  0.3678 -0.1297 -0.4606
  923MOL0     H21772   5.274   7.796   0.459  0.7171 -0.1083  0.3994
  923MOL0     H21773   5.046   7.744   0.355 -3.5786 -1.6316  0.2427
  923MOL0     H21774   5.118   7.661   0.497  0.4180 -1.0147  0.9583
  923MOL0     H21775   4.891   7.604   0.470  1.7994  3.1518 -0.6698
  923MOL0     H21776   4.995   7.457   0.435  0.6688  0.3392  0.6928
  923MOL0     H21777   4.965   7.501   0.197  0.5473 -0.5105  2.0691
  923MOL0     H21778   4.866   7.640   0.231 -0.7950 -0.6599 -0.6529
  923MOL0     H21779   4.824   7.355   0.241  1.0480  0.8803 -1.7927
  923MOL0     H21780   4.729   7.428   0.368 -2.9470  1.4378 -1.1144
  923MOL0     H21781   4.690   7.495   0.074 -0.6670 -1.1341  0.3697
  923MOL0     H21782   4.631   7.593   0.207 -0.1769 -0.7912  4.1109
  923MOL0     H21783   4.494   7.403   0.280 -0.5512 -1.6489  0.2753
  923MOL0     H21784   4.586   7.294   0.174 -1.6436 -0.6568  0.5774
  923MOL0     H21785   4.401   7.532   0.102 -2.0809 -0.9780  2.0180
  923MOL0     H21786   4.470   7.419  -0.022  2.0101 -1.1069  0.7420
  923MOL0     H21787   4.277   7.337   0.203 -1.7891 -1.0359 -0.6126
  923MOL0     H21788   4.337   7.235   0.070 -1.3394 -0.8704 -0.4798
  923MOL0     H21789   4.146   7.584   0.124  3.4015  1.6687 -2.4294
  923MOL0     H21790   3.859   7.582  -0.137  2.0215  1.5987 -1.4779
  923MOL0     H21791   3.955   7.694  -0.052  0.7107  0.2227  0.2447
  923MOL0     H21792   3.720   7.665   0.047 -4.0193 -3.2705  2.9853
  923MOL0     H21793   3.844   7.595   0.163  0.7874 -1.6181  0.0031
  923MOL0     H21794   3.704   7.413  -0.055 -3.1225 -0.6636  1.3876
  923MOL0     H21795   3.796   7.377   0.101  0.8952 -1.3625 -2.2513
  923MOL0     H21796   3.626   7.472   0.229 -0.3981 -3.1665  0.5828
  923MOL0     H21797   3.570   7.344   0.139 -1.1792  1.2691  3.7910
  923MOL0     H21798   3.356   7.327   0.158  0.5328 -1.3826 -1.2143
  923MOL0     H21799   3.112   7.297   0.119  0.2961 -0.0491 -1.1000
  923MOL0     H21800   2.744   7.512   0.157 -0.1150  0.2414 -0.3190
  923MOL0     H21801   2.512   7.568   0.187  3.4187 -0.6439  1.3057
  923MOL0     H21802   2.214   7.520   0.067  0.6528 -1.6634 -1.2759
  923MOL0     H21803   2.294   7.483  -0.083  0.6208 -0.2960  0.8004
  923MOL0     H21804   2.083   7.551  -0.142  1.0619  0.1727  0.4450
  923MOL0     H21805   2.185   7.681  -0.194 -1.2008 -1.8425 -2.2671
  923MOL0     H21806   2.125   7.812   0.016 -0.9598 -0.5918  1.5477
  923MOL0     H21807   2.002   7.685   0.052  1.4264 -1.9596  0.6010
  923MOL0     H21808   2.012   7.840  -0.207 -2.3927  2.1877 -0.2569
  923MOL0     H21809   1.884   7.729  -0.150 -0.4292  1.5311 -2.8924
  923MOL0     H21810   1.959   8.012  -0.032 -0.5998  1.2747 -4.0787
  923MOL0     H21811   1.839   7.911   0.040 -1.9913 -1.0479 -0.8397
  923MOL0     H21812   1.706   7.920  -0.168 -1.3215  0.0041  3.1850
  923MOL0     H21813   1.839   7.981  -0.262 -0.5806 -0.1348 -0.7251
  923MOL0     H21814   1.653   8.123  -0.065  0.0936  1.9499 -0.3342
  923MOL0     H21815   1.825   8.164  -0.051  1.9103 -1.7094 -0.5441
  923MOL0     H21816   1.830   8.235  -0.272  0.0685  1.6698  1.1982
  923MOL0     H21817   1.702   8.316  -0.207  1.9445 -0.2899  0.9245
  923MOL0     H21818   2.470   7.684  -0.224  1.7576  1.4254 -0.9260
  923MOL0     H21819   2.701   7.617  -0.259  0.5390  0.5279  1.1212
  923MOL0     H21820   3.106   7.655  -0.120  1.3142  1.1470  0.8970
  923MOL0     H21821   3.366   7.662  -0.088  2.6926 -2.3115  1.0029
  923MOL0     H21822   5.327   7.547   0.110 -2.4722  0.1546  0.1470
  923MOL0     H21823   5.527   7.653   0.054  0.7058 -1.8470  1.3196
  923MOL0     H21824   5.934   8.024   0.429  1.4361 -1.5900 -0.7724
  923MOL0     H21825   6.121   8.174   0.344  0.6192 -1.2910 -0.3874
  923MOL0     H21826   6.308   8.078   0.111  1.0906  1.0974  0.4021
  923MOL0     H21827   6.331   8.207   0.215  1.6568  1.3057 -0.7638
  923MOL0     H21828   6.361   8.205  -0.090  2.0254  0.1624  0.0519
  923MOL0     H21829   6.383   8.353   0.018  1.3332  0.0732  0.6867
  923MOL0     H21830   6.541   8.103   0.068  0.4769 -0.5553 -1.0296
  923MOL0     H21831   6.547   8.272   0.138 -0.4678 -0.0711 -0.7955
  923MOL0     H21832   6.596   8.237  -0.152 -0.3366  0.3446 -0.4872
  923MOL0     H21833   6.673   8.353  -0.040 -3.5373  0.9283  0.0894
  923MOL0     H21834   6.938   8.022  -0.044  0.6903 -0.5059 -3.9216
  923MOL0     H21835   5.997   8.097  -0.055 -0.6229  3.8637  0.5046
  923MOL0     H21836   5.790   7.966   0.037  1.4640 -2.2365  0.2152
  924MOL0     O21837   9.740   0.595   0.077  1.2148  0.1128  0.5408
  924MOL0     C21838   9.782   0.697   0.120  0.0614  0.1346  0.1881
  924MOL0     O21839   9.707   0.809   0.155  0.1922  0.1179 -0.5464
  924MOL0     C21840   9.581   0.814   0.096  1.1201 -0.5469 -0.2138
  924MOL0     C21841   9.545   0.823  -0.045  0.8802  0.1207 -0.2675
  924MOL0     C21842   9.412   0.841  -0.090 -0.4685  0.5171  0.2188
  924MOL0     C21843   9.307   0.842   0.004  0.0924  0.2302 -0.4374
  924MOL0     O21844   9.174   0.853  -0.023  0.1958 -0.6771 -0.1414
  924MOL0     C21845   9.129   0.876  -0.159 -0.2873 -0.3014 -0.4087
  924MOL0     C21846   8.998   0.939  -0.154  0.1812  0.2319 -0.0330
  924MOL0     C21847   8.945   0.940  -0.298 -0.3101  0.0335 -0.2463
  924MOL0     C21848   8.825   0.853  -0.325 -0.9227 -0.3147  0.0165
  924MOL0     C21849   8.855   0.701  -0.316 -0.2187 -0.2236 -0.0117
  924MOL0     C21850   8.941   0.657  -0.428  0.1659 -0.4149  0.1942
  924MOL0     C21851   8.969   0.508  -0.423 -0.8295  0.0337 -0.3736
  924MOL0     C21852   9.054   0.473  -0.542 -0.1469  0.8708  0.6859
  924MOL0     N21853   9.100   0.330  -0.532 -0.4491  0.1390  0.4535
  924MOL0     C21854   9.017   0.223  -0.537  0.5029 -0.7466  0.5578
  924MOL0     C21855   9.100   0.113  -0.535  0.1337  0.5965  0.1913
  924MOL0     C21856   9.047  -0.031  -0.546 -0.0745  0.0852  0.7049
  924MOL0     C21857   8.937  -0.070  -0.437 -0.0194 -0.0735  0.1949
  924MOL0     C21858   9.014  -0.135  -0.318 -1.2348  0.6942 -0.6085
  924MOL0     C21859   8.925  -0.151  -0.193  0.6709 -0.4932  0.0622
  924MOL0     O21860   8.801  -0.221  -0.211  0.5377  0.5798  0.0379
  924MOL0     C21861   8.681  -0.171  -0.246 -1.0672  0.2213  0.3174
  924MOL0     C21862   8.579  -0.255  -0.273  0.5112  0.0875  0.5183
  924MOL0     C21863   8.448  -0.216  -0.298 -0.0745 -0.5657  0.8263
  924MOL0     C21864   8.427  -0.080  -0.322 -0.2525  0.5576  0.3999
  924MOL0     C21865   8.292  -0.035  -0.377 -0.7517 -0.0069  0.1778
  924MOL0     O21866   8.185  -0.120  -0.358  0.2987 -0.6299 -0.2717
  924MOL0     C21867   8.057  -0.097  -0.402 -0.4064  0.8220  1.1797
  924MOL0     C21868   8.024  -0.015  -0.516 -0.6253  1.1070 -0.8471
  924MOL0     C21869   7.888  -0.015  -0.557  0.0104  0.4513  0.2126
  924MOL0     C21870   7.789  -0.060  -0.467 -0.3007 -0.1548 -0.3925
  924MOL0     O21871   7.654  -0.046  -0.497 -0.0703  0.2992 -0.2442
  924MOL0     C21872   7.594   0.063  -0.433 -0.3109 -0.2867  0.6346
  924MOL0     C21873   7.434   0.060  -0.440 -0.2955  0.1261  0.1985
  924MOL0     C21874   7.378  -0.086  -0.456  0.0120  0.3195  0.2540
  924MOL0     C21875   7.225  -0.083  -0.428  0.1153  0.1127  0.4699
  924MOL0     C21876   7.145  -0.209  -0.471  0.7424  0.4437  0.7102
  924MOL0     C21877   7.002  -0.209  -0.417  0.2830  0.2592  0.2917
  924MOL0     C21878   6.933  -0.338  -0.457 -0.4798  0.7435  0.1508
  924MOL0     C21879   6.785  -0.347  -0.416  0.0770  0.2818 -0.1855
  924MOL0    Cl21880   6.762  -0.343  -0.238  0.2782 -0.0917 -0.0427
  924MOL0     C21881   7.817  -0.134  -0.350 -0.5593 -0.3734  0.5642
  924MOL0     C21882   7.955  -0.165  -0.325  0.2370  0.5395  0.5959
  924MOL0     O21883   8.286   0.075  -0.430  0.2132 -0.1318 -0.2195
  924MOL0     C21884   8.533   0.009  -0.293 -0.2468 -0.2724  0.5240
  924MOL0     C21885   8.657  -0.033  -0.251  0.9994 -0.2282 -0.3931
  924MOL0     N21886   9.233   0.157  -0.524  0.5260 -0.5953 -0.0928
  924MOL0     N21887   9.226   0.286  -0.515 -0.0795 -0.1039 -0.1284
  924MOL0     C21888   9.335   0.824   0.137  0.0452 -0.1969 -1.2161
  924MOL0     C21889   9.474   0.823   0.186 -0.0418  0.0830 -0.3270
  924MOL0     C21890   9.935   0.699   0.134  0.4462 -0.3621 -0.4201
  924MOL0     C21891  10.016   0.587   0.112  0.5926  0.6495 -1.2570
  924MOL0     C21892  10.154   0.600   0.117  0.6926 -0.5037 -0.1617
  924MOL0     C21893  10.215   0.725   0.153  0.4239 -0.0321  0.0373
  924MOL0     O21894  10.353   0.734   0.157 -0.0733 -0.1717 -0.0740
  924MOL0     C21895  10.433   0.624   0.126 -0.3398 -0.0062  0.2961
  924MOL0     C21896  10.575   0.662   0.154  0.2852 -0.8199  0.7128
  924MOL0     C21897  10.630   0.767   0.057 -0.1876 -0.7768 -0.3460
  924MOL0     C21898  10.782   0.803   0.077  0.0127  0.0065 -1.1807
  924MOL0     C21899  10.831   0.780   0.216  0.9804  0.1508  0.5596
  924MOL0     C21900  10.876   0.763   0.329  0.0484  1.3174  0.5496
  924MOL0     C21901  10.133   0.834   0.180  0.5592  0.3038  0.3541
  924MOL0     C21902   9.998   0.819   0.171  0.5708 -0.5411  1.2029
  924MOL0     H21903   9.621   0.819  -0.121  0.5224 -0.3706 -0.6063
  924MOL0     H21904   9.399   0.867  -0.194 -2.2429  0.3913  0.3834
  924MOL0     H21905   9.138   0.778  -0.207 -0.6691  0.1255 -1.3764
  924MOL0     H21906   9.193   0.938  -0.223 -0.2430  0.9261  0.7933
  924MOL0     H21907   9.002   1.044  -0.124 -1.2770  0.4158 -0.4104
  924MOL0     H21908   8.931   0.888  -0.085 -0.1245  1.2796  0.4642
  924MOL0     H21909   9.026   0.935  -0.372  1.4918 -1.5037  1.7033
  924MOL0     H21910   8.922   1.046  -0.311  0.7392  0.1623 -1.2452
  924MOL0     H21911   8.746   0.868  -0.251 -1.7583  0.1497 -0.9506
  924MOL0     H21912   8.780   0.878  -0.421 -1.5703  0.4675  0.5105
  924MOL0     H21913   8.767   0.638  -0.306 -1.3138  1.2903  0.3545
  924MOL0     H21914   8.912   0.679  -0.225 -1.8108 -1.7243  0.6570
  924MOL0     H21915   9.033   0.716  -0.430 -0.4657  0.5562 -0.5748
  924MOL0     H21916   8.873   0.674  -0.511 -3.2773 -1.3998  2.5554
  924MOL0     H21917   9.029   0.490  -0.333  0.5477 -0.6230 -1.3883
  924MOL0     H21918   8.875   0.453  -0.412  0.4919 -2.4420 -0.6659
  924MOL0     H21919   9.145   0.533  -0.552  0.8489 -0.7113 -0.2756
  924MOL0     H21920   9.006   0.481  -0.640  4.4682 -3.1315 -2.4283
  924MOL0     H21921   8.910   0.222  -0.556  1.0786 -2.1778 -3.7853
  924MOL0     H21922   9.134  -0.096  -0.547 -2.2827 -3.1974 -2.1244
  924MOL0     H21923   8.993  -0.049  -0.640  0.8243 -0.8170  0.3341
  924MOL0     H21924   8.859  -0.143  -0.462  1.4731 -2.6008  2.3200
  924MOL0     H21925   8.899   0.023  -0.394  0.1871 -0.5347  1.4252
  924MOL0     H21926   9.048  -0.234  -0.350 -2.6780 -0.0704  0.1029
  924MOL0     H21927   9.100  -0.072  -0.294  0.2827 -1.0336 -1.2825
  924MOL0     H21928   8.903  -0.056  -0.144 -4.7176 -0.9334 -0.8957
  924MOL0     H21929   8.982  -0.214  -0.124 -0.6928 -0.2181  1.5032
  924MOL0     H21930   8.578  -0.364  -0.280 -4.6294 -0.0760 -0.1831
  924MOL0     H21931   8.370  -0.288  -0.321 -1.4708  1.7391 -2.3900
  924MOL0     H21932   8.108   0.020  -0.574 -0.2690  0.7568 -0.5554
  924MOL0     H21933   7.873   0.026  -0.657  0.3514  1.2928  0.4937
  924MOL0     H21934   7.625   0.148  -0.495  2.6681 -1.3496  0.5208
  924MOL0     H21935   7.631   0.064  -0.331  1.6245 -0.0281 -0.0331
  924MOL0     H21936   7.400   0.116  -0.528 -4.4143 -0.1573  1.3816
  924MOL0     H21937   7.384   0.103  -0.353 -1.0790  1.2463 -0.7833
  924MOL0     H21938   7.420  -0.157  -0.384  0.1719 -0.6903 -0.8027
  924MOL0     H21939   7.406  -0.106  -0.560  0.9731  2.5651  0.0181
  924MOL0     H21940   7.227  -0.060  -0.321  3.7026  2.3639  0.0841
  924MOL0     H21941   7.184   0.001  -0.484  2.4689  0.1600 -1.3501
  924MOL0     H21942   7.189  -0.306  -0.443 -0.1476 -0.1134  0.2302
  924MOL0     H21943   7.135  -0.202  -0.580  0.4190  0.5035  0.7430
  924MOL0     H21944   6.952  -0.119  -0.453  1.0529  0.1182 -1.2217
  924MOL0     H21945   7.004  -0.204  -0.308 -0.2692 -0.8998  0.3757
  924MOL0     H21946   6.953  -0.343  -0.564  0.4906 -2.2077  0.3512
  924MOL0     H21947   6.981  -0.428  -0.416  0.0248 -0.0296 -1.9957
  924MOL0     H21948   6.731  -0.437  -0.449  1.1418  0.3927 -2.3912
  924MOL0     H21949   6.723  -0.268  -0.459 -2.5809 -2.2660 -1.4353
  924MOL0     H21950   7.730  -0.175  -0.299 -0.0431 -0.6305  1.2481
  924MOL0     H21951   7.983  -0.227  -0.240  2.7910  2.2824  1.1392
  924MOL0     H21952   8.495   0.110  -0.305 -0.9122 -0.6722 -0.9163
  924MOL0     H21953   8.734   0.041  -0.232  0.4022  0.3802 -0.3302
  924MOL0     H21954   9.258   0.821   0.213  1.8505  0.3533  0.7184
  924MOL0     H21955   9.493   0.816   0.292  4.1003  0.2112 -0.9016
  924MOL0     H21956   9.970   0.497   0.074 -1.6602  1.5075 -0.7400
  924MOL0     H21957  10.215   0.510   0.113 -0.8564 -1.5795 -0.7365
  924MOL0     H21958  10.423   0.598   0.020 -0.2016 -0.9291  0.4963
  924MOL0     H21959  10.411   0.537   0.189 -0.1684 -0.7885 -0.6937
  924MOL0     H21960  10.573   0.697   0.257  1.6872 -2.1020  1.2043
  924MOL0     H21961  10.637   0.572   0.145 -1.3860 -2.0897  1.4334
  924MOL0     H21962  10.571   0.858   0.069 -1.2325 -1.5252  0.4732
  924MOL0     H21963  10.630   0.720  -0.042 -1.3299 -0.8070 -0.3465
  924MOL0     H21964  10.839   0.737   0.012 -1.3208 -1.8807 -0.5313
  924MOL0     H21965  10.796   0.910   0.058 -3.1068  0.9701  1.0026
  924MOL0     H21966  10.911   0.743   0.428  1.5490  1.4330  0.0640
  924MOL0     H21967  10.175   0.932   0.201 -1.7555  2.5459 -4.0387
  924MOL0     H21968   9.939   0.904   0.201 -1.0699 -1.7017  1.4076
  925MOL0     O21969   7.570   4.068   1.906 -0.1795  0.7329 -0.4423
  925MOL0     C21970   7.529   4.166   1.845 -0.0446  0.1255 -0.4594
  925MOL0     O21971   7.404   4.209   1.837 -0.0543 -0.0996  0.7749
  925MOL0     C21972   7.301   4.130   1.869 -0.4195 -0.4087  0.0964
  925MOL0     C21973   7.299   3.992   1.857 -0.2344 -0.2057  0.2382
  925MOL0     C21974   7.188   3.914   1.902  0.1145  0.9058  0.8199
  925MOL0     C21975   7.073   3.977   1.939 -0.8853 -0.2053 -0.0441
  925MOL0     O21976   6.966   3.902   1.975  0.2790 -0.0972 -0.1995
  925MOL0     C21977   6.844   3.965   2.021 -0.5848  0.2415 -0.2493
  925MOL0     C21978   6.758   3.853   2.091 -0.3059  0.6107  0.4139
  925MOL0     C21979   6.695   3.747   1.989 -0.1702 -0.0915 -0.2159
  925MOL0     C21980   6.601   3.813   1.886  0.3705 -0.6540  0.0937
  925MOL0     C21981   6.512   3.724   1.811  0.7953 -0.6768  0.0934
  925MOL0     C21982   6.412   3.652   1.903  0.0848 -0.5596 -0.8939
  925MOL0     C21983   6.295   3.606   1.822 -0.6772  0.6995 -0.3337
  925MOL0     C21984   6.203   3.513   1.896  0.6322  0.5753  0.2459
  925MOL0     N21985   6.065   3.537   1.862 -0.7320  0.2949  0.1870
  925MOL0     C21986   6.019   3.536   1.733  0.1057 -1.1980 -0.8367
  925MOL0     C21987   5.884   3.553   1.745  0.1758 -0.0461 -0.4826
  925MOL0     C21988   5.792   3.555   1.629 -0.0537  0.3729 -0.3360
  925MOL0     C21989   5.732   3.698   1.618 -0.3742 -0.3396 -0.3708
  925MOL0     C21990   5.607   3.699   1.522  0.3913 -0.3231 -0.2773
  925MOL0     C21991   5.555   3.841   1.508 -0.1149  0.2268 -0.5016
  925MOL0     O21992   5.448   3.843   1.414  0.6076 -0.4375 -0.0800
  925MOL0     C21993   5.319   3.807   1.444 -0.0193 -0.2509  0.2178
  925MOL0     C21994   5.283   3.747   1.563 -0.2292 -0.7684  0.3580
  925MOL0     C21995   5.153   3.706   1.588 -0.1089 -0.5937 -1.3172
  925MOL0     C21996   5.049   3.751   1.497  0.3542  0.6950  0.6774
  925MOL0     C21997   4.912   3.725   1.533  1.0941 -0.0534 -0.1855
  925MOL0     O21998   4.828   3.775   1.440 -0.4903 -0.1900  0.4126
  925MOL0     C21999   4.694   3.762   1.467 -0.7159 -0.0721 -0.8703
  925MOL0     C22000   4.622   3.649   1.442 -0.3112 -0.1435  0.1082
  925MOL0     C22001   4.486   3.639   1.451  0.5138 -0.2210 -0.1860
  925MOL0     C22002   4.410   3.761   1.482  0.1208  0.2905  0.0515
  925MOL0     O22003   4.274   3.778   1.469 -0.3748 -0.6982 -0.8948
  925MOL0     C22004   4.199   3.656   1.479 -0.0660 -0.2171 -0.3338
  925MOL0     C22005   4.056   3.677   1.545 -0.0308 -1.6425 -0.1257
  925MOL0     C22006   3.957   3.741   1.446  0.6132  0.0921 -1.1565
  925MOL0     C22007   3.886   3.642   1.365 -0.1239  0.9233 -0.1259
  925MOL0     C22008   3.743   3.692   1.332  0.9453 -0.2081  0.1160
  925MOL0     C22009   3.644   3.663   1.446  0.2968  0.2367  0.9638
  925MOL0     C22010   3.592   3.516   1.428 -0.0731  0.0488  0.4922
  925MOL0     C22011   3.470   3.488   1.512  0.9395  0.0307  0.5822
  925MOL0    Cl22012   3.330   3.591   1.461  0.5393  0.8482  0.1724
  925MOL0     C22013   4.484   3.878   1.515  0.0829  1.1090 -0.6921
  925MOL0     C22014   4.625   3.876   1.512  0.0051  0.2185 -0.7582
  925MOL0     O22015   4.878   3.666   1.636 -0.0541 -0.2390  0.2487
  925MOL0     C22016   5.087   3.823   1.387 -0.2117 -1.0342  0.7798
  925MOL0     C22017   5.225   3.845   1.357 -0.0961  0.3351  0.4506
  925MOL0     N22018   5.857   3.572   1.884  0.3127 -1.1138 -0.2605
  925MOL0     N22019   5.963   3.553   1.951 -0.1952 -0.5077 -0.8269
  925MOL0     C22020   7.077   4.119   1.959  0.2965  0.4360 -1.2275
  925MOL0     C22021   7.180   4.186   1.912 -0.1903 -0.5543  1.0140
  925MOL0     C22022   7.633   4.229   1.760 -0.0113  0.2259  0.6093
  925MOL0     C22023   7.633   4.368   1.732 -0.0837 -0.1338  0.0865
  925MOL0     C22024   7.742   4.410   1.656  0.2356 -0.2956  0.1536
  925MOL0     C22025   7.858   4.332   1.617 -0.1292  0.3887 -0.3127
  925MOL0     O22026   7.960   4.405   1.561 -0.1878 -0.3444  0.1705
  925MOL0     C22027   8.072   4.330   1.522  0.3178 -0.0056  0.1425
  925MOL0     C22028   8.168   4.423   1.444  0.7398  0.4651 -0.2579
  925MOL0     C22029   8.281   4.359   1.381  0.1434  1.1507 -0.4688
  925MOL0     C22030   8.362   4.451   1.295 -0.5918 -1.3269 -0.4521
  925MOL0     C22031   8.477   4.487   1.373  0.4054  0.3490  0.6328
  925MOL0     C22032   8.591   4.522   1.416 -0.2645 -0.0877  0.6693
  925MOL0     C22033   7.850   4.195   1.646  0.7310  0.1864  0.2888
  925MOL0     C22034   7.740   4.146   1.720  0.7340 -0.6747  0.5712
  925MOL0     H22035   7.376   3.926   1.820 -0.5761  0.1558 -1.1714
  925MOL0     H22036   7.201   3.807   1.896 -0.8100  0.8392 -3.3142
  925MOL0     H22037   6.784   3.996   1.936 -1.2273 -1.4760 -0.4689
  925MOL0     H22038   6.859   4.032   2.106 -1.7967  0.7133 -0.3861
  925MOL0     H22039   6.670   3.893   2.141 -0.7913  0.4591 -0.3010
  925MOL0     H22040   6.830   3.808   2.160  1.4679  0.6561 -1.3338
  925MOL0     H22041   6.639   3.676   2.052  1.7908 -0.5965  1.0698
  925MOL0     H22042   6.773   3.702   1.928 -0.9393  1.5320 -2.5017
  925MOL0     H22043   6.550   3.897   1.933  1.2715  0.2811 -0.5537
  925MOL0     H22044   6.664   3.849   1.804 -0.8719 -1.2372 -1.1559
  925MOL0     H22045   6.563   3.650   1.749 -1.2918 -2.0437 -0.1243
  925MOL0     H22046   6.450   3.782   1.741 -1.3835 -2.6314  0.2664
  925MOL0     H22047   6.368   3.724   1.972 -0.1812  0.1664 -1.8088
  925MOL0     H22048   6.459   3.576   1.966  1.1831  2.2530  1.9446
  925MOL0     H22049   6.241   3.696   1.793 -2.3199 -0.1397 -0.0206
  925MOL0     H22050   6.318   3.556   1.728  1.7352 -0.2826  0.6967
  925MOL0     H22051   6.207   3.511   2.006  1.7820  1.1528  0.2267
  925MOL0     H22052   6.226   3.410   1.866  1.3055  0.6960  0.3277
  925MOL0     H22053   6.060   3.531   1.632 -1.1039  0.9248 -1.4798
  925MOL0     H22054   5.710   3.488   1.653 -0.6193  1.2572  0.2824
  925MOL0     H22055   5.852   3.510   1.550  2.0750 -2.5640  2.7185
  925MOL0     H22056   5.814   3.765   1.586 -0.4403  1.3404  2.6358
  925MOL0     H22057   5.708   3.738   1.717 -0.4759 -0.3495 -0.3912
  925MOL0     H22058   5.623   3.665   1.419  1.7517 -0.4175 -0.0542
  925MOL0     H22059   5.529   3.633   1.561 -2.0572  1.2071 -2.2885
  925MOL0     H22060   5.642   3.896   1.472 -0.4869  0.9371 -0.3500
  925MOL0     H22061   5.522   3.870   1.609 -0.2985 -0.7707 -0.2693
  925MOL0     H22062   5.356   3.709   1.634  0.2265 -3.0409 -1.2242
  925MOL0     H22063   5.119   3.667   1.684 -2.0836 -1.3640 -2.2630
  925MOL0     H22064   4.662   3.551   1.417 -0.3691 -0.1242 -0.0621
  925MOL0     H22065   4.438   3.542   1.439  1.2985 -0.5872 -0.4529
  925MOL0     H22066   4.238   3.583   1.551 -2.3852 -1.9770 -0.7195
  925MOL0     H22067   4.191   3.608   1.381 -1.6220  0.7164 -0.6897
  925MOL0     H22068   4.075   3.744   1.630  2.5951 -1.5900 -0.6585
  925MOL0     H22069   4.006   3.590   1.589 -0.3956 -0.5913  1.6406
  925MOL0     H22070   4.019   3.811   1.389  0.1863  0.6330 -0.9592
  925MOL0     H22071   3.886   3.801   1.503  0.3131 -0.5767 -0.8213
  925MOL0     H22072   3.937   3.637   1.268 -0.8603  0.1761 -0.4836
  925MOL0     H22073   3.891   3.545   1.415  3.3329  1.6376  1.2192
  925MOL0     H22074   3.702   3.649   1.240  0.6360  1.0811 -0.3867
  925MOL0     H22075   3.751   3.800   1.313  2.7388 -0.2299  0.5477
  925MOL0     H22076   3.557   3.729   1.452  0.2054  0.2016  0.1369
  925MOL0     H22077   3.696   3.675   1.541  3.3272  3.7422 -0.8765
  925MOL0     H22078   3.564   3.503   1.323  2.5306  0.0126 -0.2609
  925MOL0     H22079   3.666   3.441   1.458  1.2961  1.8556  1.8311
  925MOL0     H22080   3.485   3.508   1.619 -0.1733 -0.9999  0.9411
  925MOL0     H22081   3.450   3.383   1.494  0.3023  0.0251  1.3110
  925MOL0     H22082   4.422   3.963   1.544  0.0809  0.7928  0.2864
  925MOL0     H22083   4.679   3.966   1.538 -1.5809  0.6183  1.4920
  925MOL0     H22084   5.011   3.854   1.316  1.0974 -1.0411 -0.6661
  925MOL0     H22085   5.249   3.897   1.265 -1.1175 -2.7486 -1.7350
  925MOL0     H22086   6.996   4.177   2.002  0.8854  0.5901 -0.2756
  925MOL0     H22087   7.172   4.294   1.928  0.7683 -0.3393  0.1345
  925MOL0     H22088   7.555   4.437   1.761 -0.8751 -0.7715 -0.4819
  925MOL0     H22089   7.747   4.515   1.628  1.2437 -0.6185 -0.9691
  925MOL0     H22090   8.034   4.257   1.451 -0.0814 -0.1476  0.5009
  925MOL0     H22091   8.121   4.279   1.605 -0.5046  0.9260  1.2444
  925MOL0     H22092   8.107   4.474   1.368 -3.4699 -1.8701  1.2097
  925MOL0     H22093   8.209   4.497   1.513  0.5674  0.8770 -0.5900
  925MOL0     H22094   8.251   4.280   1.311 -0.6311  0.4624  0.6108
  925MOL0     H22095   8.346   4.315   1.457 -0.7110 -2.1224 -1.4944
  925MOL0     H22096   8.412   4.398   1.213  0.9142 -1.0218  0.2220
  925MOL0     H22097   8.310   4.544   1.272  2.2537  0.2844 -0.9102
  925MOL0     H22098   8.690   4.540   1.453  1.3190 -0.0006 -3.1695
  925MOL0     H22099   7.915   4.122   1.600  0.6616  0.2453  0.0953
  925MOL0     H22100   7.747   4.041   1.748 -0.9442 -0.3697  2.3124
  926MOL0     O22101   4.841   2.729   5.050 -0.1390  1.1720  0.6411
  926MOL0     C22102   4.889   2.761   5.157  0.6141 -0.1069 -0.0936
  926MOL0     O22103   4.814   2.798   5.263 -0.2055 -0.4095  0.6611
  926MOL0     C22104   4.677   2.788   5.256 -0.1731  0.3510 -0.9284
  926MOL0     C22105   4.616   2.702   5.349  0.5285  0.3760 -0.1576
  926MOL0     C22106   4.478   2.697   5.372 -0.1558 -0.1509 -0.9744
  926MOL0     C22107   4.399   2.762   5.277  0.9485 -1.1104 -0.2512
  926MOL0     O22108   4.260   2.753   5.278  0.5774 -0.0302 -0.4888
  926MOL0     C22109   4.201   2.621   5.303  0.1166 -0.5385 -0.3442
  926MOL0     C22110   4.051   2.633   5.299 -0.2412  0.1397 -0.1091
  926MOL0     C22111   3.991   2.739   5.389  0.5937  0.4289 -0.1691
  926MOL0     C22112   3.837   2.740   5.394  0.5714  0.0619  0.2165
  926MOL0     C22113   3.790   2.822   5.511  0.3368 -1.4376 -0.4177
  926MOL0     C22114   3.638   2.829   5.532  0.0081 -0.1702  0.1462
  926MOL0     C22115   3.546   2.859   5.415 -0.7425  0.0479  0.3042
  926MOL0     C22116   3.401   2.886   5.446  0.2273  0.6447  0.5551
  926MOL0     N22117   3.324   2.948   5.342 -0.1370 -0.1544 -0.2400
  926MOL0     C22118   3.258   2.883   5.243 -0.1182  0.4831 -0.1916
  926MOL0     C22119   3.186   2.981   5.181 -0.4011  0.2201 -0.4418
  926MOL0     C22120   3.086   2.958   5.066  0.1782  1.1949 -0.0247
  926MOL0     C22121   2.958   3.037   5.089 -0.1815 -0.5100 -0.7255
  926MOL0     C22122   2.873   3.069   4.967 -0.5025 -0.0245  0.4105
  926MOL0     C22123   2.810   2.940   4.904 -0.1877  0.1367  0.3086
  926MOL0     O22124   2.721   2.871   4.993 -0.0329 -0.6651 -0.7939
  926MOL0     C22125   2.582   2.880   4.977  0.1761 -0.4290  0.0430
  926MOL0     C22126   2.508   2.895   4.854 -0.3339  0.2764  0.2902
  926MOL0     C22127   2.367   2.862   4.851 -0.4752  0.5884  0.0648
  926MOL0     C22128   2.298   2.837   4.969  0.2975  1.3431 -0.5126
  926MOL0     C22129   2.144   2.815   4.979 -0.3933 -0.7257 -0.3181
  926MOL0     O22130   2.095   2.800   5.104 -0.3323 -0.7381 -0.0330
  926MOL0     C22131   1.965   2.762   5.120 -0.3799 -0.6559 -0.6661
  926MOL0     C22132   1.882   2.686   5.034  0.2470  0.8428  0.2022
  926MOL0     C22133   1.747   2.674   5.062  0.4595  0.4963 -0.6138
  926MOL0     C22134   1.697   2.731   5.178  0.0742 -0.2937 -0.2423
  926MOL0     O22135   1.558   2.724   5.200  0.3330 -0.0081 -0.0457
  926MOL0     C22136   1.510   2.814   5.298 -0.0673 -0.2550 -0.4338
  926MOL0     C22137   1.356   2.782   5.302 -0.0472  0.5842 -0.2328
  926MOL0     C22138   1.283   2.887   5.379  0.0255  0.5874 -0.2962
  926MOL0     C22139   1.155   2.810   5.412  0.4296  0.8079 -0.6185
  926MOL0     C22140   1.063   2.914   5.491  0.8908  0.2911 -0.1112
  926MOL0     C22141   0.924   2.850   5.531 -0.5440 -0.3155  0.3170
  926MOL0     C22142   0.825   2.864   5.412 -0.6277  0.8452  0.4249
  926MOL0     C22143   0.712   2.769   5.438 -0.1021 -0.0024 -0.1246
  926MOL0    Cl22144   0.641   2.809   5.595 -0.2160  0.4560 -0.1051
  926MOL0     C22145   1.782   2.811   5.260 -0.1471 -0.1350  0.6014
  926MOL0     C22146   1.919   2.820   5.233  0.3617  0.4680 -0.2012
  926MOL0     O22147   2.078   2.835   4.878  0.1817 -0.2496  0.4132
  926MOL0     C22148   2.364   2.819   5.088 -1.1228  0.2460 -0.4838
  926MOL0     C22149   2.504   2.839   5.087  0.4531  0.3792 -0.8040
  926MOL0     N22150   3.210   3.099   5.251  0.4139 -0.3359  1.1603
  926MOL0     N22151   3.301   3.080   5.341  0.8140  0.1328 -0.5767
  926MOL0     C22152   4.455   2.837   5.168  0.1248  0.3737 -0.8499
  926MOL0     C22153   4.594   2.855   5.166  0.1280  0.0837  0.4918
  926MOL0     C22154   5.034   2.780   5.170 -0.7223  0.2239 -0.5575
  926MOL0     C22155   5.126   2.747   5.068  0.6391 -0.0658  0.0978
  926MOL0     C22156   5.259   2.767   5.080 -0.1794 -1.0415 -0.4785
  926MOL0     C22157   5.316   2.803   5.200  0.3012 -0.5400 -0.0503
  926MOL0     O22158   5.454   2.806   5.198 -0.1676  0.3017 -0.2331
  926MOL0     C22159   5.514   2.834   5.322 -0.1843  0.0802  0.0503
  926MOL0     C22160   5.654   2.790   5.307  0.7034  0.1650  0.0033
  926MOL0     C22161   5.730   2.877   5.206  0.1761  1.4539  0.2059
  926MOL0     C22162   5.874   2.834   5.186 -0.1592  0.3119 -0.7526
  926MOL0     C22163   5.944   2.861   5.317  0.2212 -0.4449 -0.1914
  926MOL0     C22164   6.000   2.886   5.420  0.6818  0.8222  0.0842
  926MOL0     C22165   5.233   2.841   5.305 -0.3346  0.2435  0.0900
  926MOL0     C22166   5.090   2.833   5.287 -0.1558 -0.0131 -0.2046
  926MOL0     H22167   4.677   2.651   5.423 -1.7566 -1.2114  0.7473
  926MOL0     H22168   4.432   2.643   5.454  0.4117  1.3686  0.3698
  926MOL0     H22169   4.229   2.592   5.405  0.3317 -0.1659 -0.2978
  926MOL0     H22170   4.246   2.553   5.230  2.1617 -0.1534  0.4822
  926MOL0     H22171   4.009   2.538   5.335 -1.7259  1.7677  2.7853
  926MOL0     H22172   4.033   2.672   5.198  3.5462 -0.1293 -1.0367
  926MOL0     H22173   4.023   2.843   5.375 -3.1445  1.8216  0.3466
  926MOL0     H22174   4.019   2.701   5.488  0.9658  0.6369 -0.1952
  926MOL0     H22175   3.796   2.776   5.299  2.3808 -1.8898 -1.4138
  926MOL0     H22176   3.798   2.638   5.401 -0.4054  0.5517  2.7851
  926MOL0     H22177   3.841   2.919   5.507  2.3154 -2.3516  1.3024
  926MOL0     H22178   3.825   2.773   5.602  0.8768 -0.5971 -0.1638
  926MOL0     H22179   3.608   2.910   5.600  2.3397  3.4366 -2.7595
  926MOL0     H22180   3.624   2.730   5.578 -1.4937  0.0511  0.2210
  926MOL0     H22181   3.576   2.952   5.365 -0.8442 -0.1623 -0.1599
  926MOL0     H22182   3.568   2.783   5.339  1.0350  1.5468 -0.7848
  926MOL0     H22183   3.402   2.962   5.523  0.8388  1.5689 -0.3432
  926MOL0     H22184   3.367   2.790   5.486  4.9064 -0.2345  3.2291
  926MOL0     H22185   3.260   2.777   5.219 -0.2409  0.2887  0.6270
  926MOL0     H22186   3.072   2.850   5.055  3.5811  0.0426  4.0498
  926MOL0     H22187   3.122   2.985   4.966 -0.0115 -1.8516 -1.0107
  926MOL0     H22188   2.998   3.134   5.121  1.4228 -1.1153 -0.8118
  926MOL0     H22189   2.906   2.986   5.171  3.4182 -1.1191  1.3835
  926MOL0     H22190   2.788   3.126   5.004  0.6895  0.2295  3.0044
  926MOL0     H22191   2.932   3.113   4.886  0.3711 -0.8441  0.5848
  926MOL0     H22192   2.891   2.876   4.866 -0.9423  0.4096 -1.9478
  926MOL0     H22193   2.752   2.980   4.820  1.7723 -0.9097 -1.6655
  926MOL0     H22194   2.557   2.922   4.761  1.8421 -0.0054  1.2938
  926MOL0     H22195   2.308   2.864   4.760  1.2501  4.0942 -1.1489
  926MOL0     H22196   1.917   2.633   4.946 -0.0993  2.6514 -1.0945
  926MOL0     H22197   1.686   2.611   4.998  0.2006  0.1021  0.0074
  926MOL0     H22198   1.527   2.914   5.257  1.3169  0.8203  2.4953
  926MOL0     H22199   1.557   2.805   5.397 -1.8207  0.9804  0.5828
  926MOL0     H22200   1.348   2.678   5.334  1.7108 -0.1725 -2.0353
  926MOL0     H22201   1.318   2.796   5.200  1.3156 -1.3408 -1.0638
  926MOL0     H22202   1.277   2.975   5.315  2.8256  0.3222 -1.0421
  926MOL0     H22203   1.337   2.914   5.470  0.4005 -2.6041  0.5433
  926MOL0     H22204   1.101   2.774   5.323  0.9893 -0.6507 -0.4046
  926MOL0     H22205   1.184   2.723   5.471 -0.9496  0.2787 -0.6689
  926MOL0     H22206   1.059   3.008   5.434  1.1515  0.7568  0.6140
  926MOL0     H22207   1.113   2.931   5.587 -0.2979  0.3739  0.5133
  926MOL0     H22208   0.880   2.916   5.608 -2.1528 -0.7118 -0.2296
  926MOL0     H22209   0.934   2.748   5.568  3.0312 -1.5197 -3.2883
  926MOL0     H22210   0.780   2.964   5.409 -1.8245  0.3293  0.5283
  926MOL0     H22211   0.868   2.843   5.314 -0.1697  1.1357  0.5598
  926MOL0     H22212   0.744   2.664   5.446  0.2105  0.2031  1.6259
  926MOL0     H22213   0.641   2.796   5.359 -0.6996  3.8916  1.5572
  926MOL0     H22214   1.753   2.879   5.339 -0.4408  0.3277  0.1022
  926MOL0     H22215   1.984   2.874   5.301  2.6443 -1.3048 -0.8343
  926MOL0     H22216   2.315   2.786   5.179  1.1304  2.2554  1.6234
  926MOL0     H22217   2.556   2.841   5.183 -1.8327 -0.4777  0.5248
  926MOL0     H22218   4.374   2.870   5.103 -0.0496 -3.4719 -2.8744
  926MOL0     H22219   4.648   2.911   5.090 -2.4307 -1.9663 -3.1755
  926MOL0     H22220   5.073   2.715   4.978 -0.7348 -1.2801  1.2887
  926MOL0     H22221   5.321   2.739   4.995 -1.1365 -1.3219 -1.0925
  926MOL0     H22222   5.470   2.785   5.408 -1.0432  2.6116  1.1584
  926MOL0     H22223   5.505   2.940   5.347 -2.1802  0.1670 -0.8770
  926MOL0     H22224   5.704   2.802   5.404  0.5833 -4.6989  0.9304
  926MOL0     H22225   5.657   2.682   5.288 -0.0335  0.3025 -0.9354
  926MOL0     H22226   5.726   2.978   5.249 -1.8518 -0.1473  4.3091
  926MOL0     H22227   5.682   2.866   5.108 -0.6310  2.5269  0.4551
  926MOL0     H22228   5.878   2.727   5.164  1.2608  0.5391 -1.6927
  926MOL0     H22229   5.913   2.895   5.104 -1.5958 -1.5208 -2.9126
  926MOL0     H22230   6.055   2.902   5.510  1.4518  1.4453 -0.4892
  926MOL0     H22231   5.267   2.889   5.396  0.7650  1.6386 -0.9939
  926MOL0     H22232   5.016   2.859   5.362  1.1496 -3.1164  2.3796
  927MOL0     O22233  10.431   3.145  10.343  0.2910  0.3455  0.4860
  927MOL0     C22234  10.483   3.251  10.312  0.3204  0.2931 -0.2596
  927MOL0     O22235  10.413   3.357  10.255 -0.0414  0.0430 -0.1920
  927MOL0     C22236  10.280   3.358  10.253  0.6967  0.1540 -0.0432
  927MOL0     C22237  10.217   3.411  10.135 -0.1401 -0.6312 -0.9648
  927MOL0     C22238  10.079   3.411  10.126  0.1661  0.2017 -0.4500
  927MOL0     C22239  10.004   3.346  10.234 -0.0983 -0.2887  0.7185
  927MOL0     O22240   9.873   3.321  10.234  0.4073 -0.6648 -0.4843
  927MOL0     C22241   9.810   3.260  10.117  0.4421 -0.0874 -0.2429
  927MOL0     C22242   9.783   3.112  10.146 -0.6389 -0.8251  0.1566
  927MOL0     C22243   9.680   3.093  10.251  0.3002 -0.4808  0.2784
  927MOL0     C22244   9.659   2.943  10.285 -0.1809 -0.0950 -0.1341
  927MOL0     C22245   9.585   2.935  10.422 -0.6419  0.3597  0.9522
  927MOL0     C22246   9.432   2.946  10.406 -0.8090 -1.0886 -0.5879
  927MOL0     C22247   9.360   2.960  10.540  0.4555  0.0693 -0.0619
  927MOL0     C22248   9.324   2.821  10.595 -0.1065  0.0140  0.4344
  927MOL0     N22249   9.208   2.760  10.536 -0.5944  0.1145 -0.3618
  927MOL0     C22250   9.078   2.806  10.555 -0.3371 -0.5627  0.3883
  927MOL0     C22251   9.007   2.740  10.465 -0.0393 -0.8300 -0.0950
  927MOL0     C22252   8.862   2.756  10.443  0.0146 -0.4479  0.1820
  927MOL0     C22253   8.790   2.668  10.546 -0.4295 -0.0943 -0.3933
  927MOL0     C22254   8.639   2.682  10.542 -0.4929  0.6414 -0.2455
  927MOL0     C22255   8.579   2.593  10.652  0.1017  0.1300  0.1039
  927MOL0     O22256   8.530   2.470  10.601 -0.3079  0.0324  0.4426
  927MOL0     C22257   8.400   2.454  10.546  0.3842  0.2050 -0.1535
  927MOL0     C22258   8.348   2.326  10.536 -0.1511 -0.4057 -0.3192
  927MOL0     C22259   8.222   2.310  10.481 -0.1383  0.9119  0.5056
  927MOL0     C22260   8.144   2.416  10.433  0.0575 -1.1906 -1.3636
  927MOL0     C22261   7.998   2.398  10.408  0.2548  0.1386 -0.6837
  927MOL0     O22262   7.961   2.274  10.376  0.2365 -0.2467  0.3034
  927MOL0     C22263   7.825   2.241  10.374 -0.1218 -0.1616  0.0195
  927MOL0     C22264   7.786   2.133  10.450 -0.1662 -0.4379  0.3755
  927MOL0     C22265   7.655   2.098  10.461  0.0264  0.1208  0.3203
  927MOL0     C22266   7.561   2.168  10.382 -0.4590  0.2502  0.3126
  927MOL0     O22267   7.426   2.149  10.393 -0.1384  0.4698 -0.3051
  927MOL0     C22268   7.382   2.015  10.396  0.4172  0.6976  0.0641
  927MOL0     C22269   7.239   2.009  10.340  0.5436 -0.1876  0.2462
  927MOL0     C22270   7.231   2.045  10.194 -0.2191  0.2058 -0.4195
  927MOL0     C22271   7.088   2.034  10.144  0.0218  0.1979 -0.4257
  927MOL0     C22272   7.081   2.021   9.988 -0.1635  0.6407 -0.0153
  927MOL0     C22273   6.948   2.040   9.933  0.8638 -0.9021 -0.3720
  927MOL0     C22274   6.872   1.914   9.984  0.6079 -0.2633  0.2479
  927MOL0     C22275   6.726   1.912   9.941 -0.1368  0.2755 -0.3254
  927MOL0    Cl22276   6.634   2.054   9.993 -0.4554  0.2221 -0.2095
  927MOL0     C22277   7.597   2.281  10.314 -0.2743  0.6419 -0.1308
  927MOL0     C22278   7.729   2.322  10.305 -0.1902  1.3392  0.2474
  927MOL0     O22279   7.923   2.502  10.423  1.0673  0.7672  0.0246
  927MOL0     C22280   8.196   2.545  10.434  0.0333 -0.1920  1.5949
  927MOL0     C22281   8.322   2.565  10.489 -0.1655  0.0196  0.7578
  927MOL0     N22282   9.095   2.661  10.383  0.6478 -0.2819 -0.3980
  927MOL0     N22283   9.220   2.681  10.424  0.2370  0.6790 -0.8505
  927MOL0     C22284  10.067   3.315  10.355  0.5989  0.1073 -0.0626
  927MOL0     C22285  10.205   3.322  10.367  1.0236  0.2621 -0.5421
  927MOL0     C22286  10.626   3.281  10.338  0.0015 -0.6367  0.0945
  927MOL0     C22287  10.673   3.407  10.302  0.6814 -0.6027  0.2312
  927MOL0     C22288  10.809   3.437  10.326 -0.3297 -0.5378  0.1452
  927MOL0     C22289  10.893   3.345  10.400  0.7899  0.5917  0.1516
  927MOL0     O22290  11.016   3.401  10.442 -0.1698  0.1431 -0.2929
  927MOL0     C22291  11.076   3.336  10.553  0.6515 -1.2434 -0.1368
  927MOL0     C22292  11.219   3.377  10.573 -0.2927  0.6731 -0.2347
  927MOL0     C22293  11.248   3.524  10.586 -0.5945 -0.3985 -0.4863
  927MOL0     C22294  11.396   3.530  10.627 -0.0189  1.1479  0.0193
  927MOL0     C22295  11.489   3.532  10.511  0.5802 -0.1471  0.5611
  927MOL0     C22296  11.562   3.526  10.417  0.4779 -0.0323 -0.5661
  927MOL0     C22297  10.840   3.216  10.430 -0.8354  0.1036 -1.1357
  927MOL0     C22298  10.709   3.181  10.399  0.3501 -0.0138 -0.3482
  927MOL0     H22299  10.274   3.454  10.053 -2.0731  1.4750 -1.2920
  927MOL0     H22300  10.024   3.455  10.043 -1.2885  1.7663  1.2549
  927MOL0     H22301   9.880   3.250  10.034  0.3032 -0.6254 -0.2968
  927MOL0     H22302   9.718   3.306  10.078 -0.6268 -1.7097  0.2491
  927MOL0     H22303   9.875   3.076  10.194  2.1007  2.0436 -2.4979
  927MOL0     H22304   9.748   3.064  10.054  1.1508  0.4943 -1.2865
  927MOL0     H22305   9.592   3.135  10.201 -0.0885 -3.2640 -1.6189
  927MOL0     H22306   9.703   3.150  10.341  1.3709  1.6715 -1.2752
  927MOL0     H22307   9.602   2.893  10.206 -0.9435 -1.5254  1.2685
  927MOL0     H22308   9.755   2.899  10.312  1.7159  2.8724 -1.4791
  927MOL0     H22309   9.617   3.007  10.498 -1.2382  0.9250  0.6775
  927MOL0     H22310   9.614   2.838  10.463 -1.5979  0.1088  1.0478
  927MOL0     H22311   9.397   2.853  10.361  0.7039 -1.6186 -0.7432
  927MOL0     H22312   9.408   3.031  10.341 -1.0413 -2.4374 -2.3572
  927MOL0     H22313   9.431   3.012  10.606  0.5288 -1.0335  0.7516
  927MOL0     H22314   9.266   3.016  10.535 -0.0183 -0.7316 -0.3472
  927MOL0     H22315   9.295   2.836  10.700  0.9013 -1.5541  0.9685
  927MOL0     H22316   9.406   2.749  10.591 -0.0074  0.0688  1.1973
  927MOL0     H22317   9.033   2.877  10.624  0.7061  1.9655 -1.3463
  927MOL0     H22318   8.838   2.712  10.345 -1.6897 -1.3661  0.9651
  927MOL0     H22319   8.826   2.857  10.423  1.8131  0.1212 -0.4176
  927MOL0     H22320   8.836   2.680  10.645  0.3539  3.1221 -1.0255
  927MOL0     H22321   8.813   2.567  10.511  0.6542 -0.0586  0.1492
  927MOL0     H22322   8.600   2.784  10.555 -0.4716  0.6572 -0.3002
  927MOL0     H22323   8.602   2.641  10.447  0.9173 -3.6864  0.8410
  927MOL0     H22324   8.498   2.648  10.701  0.0974  0.4997 -0.3063
  927MOL0     H22325   8.659   2.572  10.723 -0.0101  0.6451  0.3851
  927MOL0     H22326   8.400   2.236  10.569 -0.8126 -0.2158  1.3959
  927MOL0     H22327   8.183   2.210  10.468  1.7367  0.5513 -5.8206
  927MOL0     H22328   7.861   2.072  10.501  0.8641  2.4903  2.6252
  927MOL0     H22329   7.615   2.020  10.525 -0.7878 -0.1963 -0.5545
  927MOL0     H22330   7.368   1.976  10.497 -1.3691  1.9861  0.3659
  927MOL0     H22331   7.453   1.949  10.345  0.0640 -0.8398  1.4790
  927MOL0     H22332   7.179   2.080  10.397  2.3426  1.4907  0.1441
  927MOL0     H22333   7.199   1.907  10.343 -0.0107 -0.0928 -2.0162
  927MOL0     H22334   7.286   1.974  10.133  0.0427 -0.7394  0.8835
  927MOL0     H22335   7.265   2.149  10.193 -0.5286  0.3892  2.1103
  927MOL0     H22336   7.036   1.952  10.193 -1.1184  2.1553  1.8528
  927MOL0     H22337   7.032   2.123  10.174  0.2705 -0.2299  1.3686
  927MOL0     H22338   7.109   1.916   9.972 -2.3199 -0.0467  0.4651
  927MOL0     H22339   7.147   2.099   9.948 -2.1339  2.8325  0.7901
  927MOL0     H22340   6.951   2.035   9.824  3.2382  0.0598 -0.4051
  927MOL0     H22341   6.897   2.133   9.960  0.7543 -1.2118  0.5361
  927MOL0     H22342   6.912   1.823   9.939 -2.3799 -1.8941  0.6521
  927MOL0     H22343   6.865   1.909  10.093  1.8873  3.4174  0.6365
  927MOL0     H22344   6.681   1.824   9.986  1.5782  0.1048  1.1296
  927MOL0     H22345   6.715   1.899   9.833 -1.4120  1.6225 -0.3905
  927MOL0     H22346   7.518   2.328  10.256  0.8688  1.8834 -0.7390
  927MOL0     H22347   7.756   2.404  10.238 -1.1651  1.5371  0.0746
  927MOL0     H22348   8.131   2.624  10.396 -0.6682 -1.5967 -0.3140
  927MOL0     H22349   8.357   2.667  10.475  0.1830 -0.3353 -1.3235
  927MOL0     H22350  10.018   3.260  10.435 -2.0699 -1.0859 -2.3439
  927MOL0     H22351  10.256   3.287  10.457  1.9020 -0.2856 -1.2381
  927MOL0     H22352  10.613   3.484  10.254  4.6009  1.0732 -2.5755
  927MOL0     H22353  10.855   3.530  10.296 -0.7777 -0.3827 -0.0714
  927MOL0     H22354  11.083   3.227  10.542 -1.9414 -1.4278 -0.5296
  927MOL0     H22355  11.025   3.348  10.649  2.7147 -0.1339  0.8965
  927MOL0     H22356  11.268   3.324  10.655 -1.4713  2.2183  1.5593
  927MOL0     H22357  11.270   3.346  10.481  0.1160  2.6418 -0.7245
  927MOL0     H22358  11.177   3.571  10.654  0.4873  2.6115 -1.2872
  927MOL0     H22359  11.237   3.572  10.489  0.9901  0.0971 -0.4499
  927MOL0     H22360  11.410   3.622  10.685  1.3579  0.4078  0.9072
  927MOL0     H22361  11.429   3.453  10.698  1.2549  2.6922  1.1958
  927MOL0     H22362  11.634   3.515  10.339  0.0777 -2.9834 -0.6383
  927MOL0     H22363  10.909   3.143  10.470 -2.1049 -1.1104 -1.0805
  927MOL0     H22364  10.678   3.079  10.420 -1.1767  0.1599 -1.5699
  928MOL0     O22365   9.576   0.416   5.945  0.1104 -0.0783 -0.2370
  928MOL0     C22366   9.594   0.496   5.858 -0.6029 -0.2160 -0.0758
  928MOL0     O22367   9.510   0.509   5.749  0.1109 -0.2836  0.3975
  928MOL0     C22368   9.392   0.439   5.753  0.3129 -0.1865 -0.6867
  928MOL0     C22369   9.316   0.431   5.873 -0.1963  0.3019  0.2895
  928MOL0     C22370   9.197   0.370   5.871 -1.1631  0.0870 -0.2214
  928MOL0     C22371   9.152   0.305   5.757 -0.7895  0.5945 -0.7171
  928MOL0     O22372   9.027   0.248   5.765  0.3678  0.1859  0.9054
  928MOL0     C22373   8.961   0.212   5.637 -0.2010  0.3504  0.8881
  928MOL0     C22374   8.816   0.214   5.666 -0.1657 -1.2030 -0.9721
  928MOL0     C22375   8.736   0.161   5.548 -0.5407 -0.0510 -0.8522
  928MOL0     C22376   8.594   0.213   5.546  0.4581 -0.1475 -0.9476
  928MOL0     C22377   8.505   0.163   5.437  0.5111 -0.3404  0.0139
  928MOL0     C22378   8.359   0.231   5.469 -0.5279  0.3476 -0.4737
  928MOL0     C22379   8.250   0.188   5.358 -0.3096 -0.3224  0.0805
  928MOL0     C22380   8.122   0.257   5.368 -0.2312  0.5931  0.0517
  928MOL0     N22381   8.021   0.177   5.298 -0.1257 -1.1128 -0.2865
  928MOL0     C22382   7.949   0.078   5.346  0.7232  0.1914 -0.6854
  928MOL0     C22383   7.849   0.065   5.257  0.0947  0.1099 -0.1386
  928MOL0     C22384   7.728  -0.016   5.252  0.3639  0.7089 -0.9529
  928MOL0     C22385   7.707  -0.110   5.375  0.5956 -0.9420  0.1586
  928MOL0     C22386   7.560  -0.175   5.382 -0.8143  0.1949  0.1957
  928MOL0     C22387   7.512  -0.227   5.250 -0.1230 -0.2401 -0.4256
  928MOL0     O22388   7.618  -0.312   5.185  0.5393 -0.2596  0.3547
  928MOL0     C22389   7.589  -0.383   5.072  0.2267  0.2909  0.8707
  928MOL0     C22390   7.632  -0.514   5.070 -0.7048 -0.4336 -0.1879
  928MOL0     C22391   7.603  -0.594   4.957 -1.4592 -0.9377  0.1618
  928MOL0     C22392   7.536  -0.545   4.847  0.8379 -1.1518  0.9927
  928MOL0     C22393   7.511  -0.630   4.729  0.0014  0.5310 -1.0156
  928MOL0     O22394   7.458  -0.576   4.617 -0.0109  0.4774  0.1157
  928MOL0     C22395   7.395  -0.652   4.520  1.1174  0.5670  0.6152
  928MOL0     C22396   7.259  -0.633   4.492 -0.6602 -0.6353  0.0139
  928MOL0     C22397   7.186  -0.708   4.387 -1.0894 -0.1600  0.7973
  928MOL0     C22398   7.253  -0.813   4.326  0.2587  0.3439  0.2234
  928MOL0     O22399   7.207  -0.891   4.220 -0.8348 -0.9052  0.7445
  928MOL0     C22400   7.062  -0.904   4.218  0.2900 -0.1078  0.3262
  928MOL0     C22401   7.026  -1.001   4.102  0.4912 -0.6149  0.1998
  928MOL0     C22402   6.881  -0.981   4.060  0.9149 -0.5105  0.2570
  928MOL0     C22403   6.855  -1.055   3.926  0.0515 -0.2349 -0.3005
  928MOL0     C22404   6.702  -1.026   3.907 -0.2665  0.5681  0.2949
  928MOL0     C22405   6.637  -1.065   3.782 -0.1207 -0.1262 -0.6412
  928MOL0     C22406   6.709  -1.022   3.657 -0.6259  0.5430  0.4324
  928MOL0     C22407   6.629  -1.031   3.520  0.0546  0.5539  0.7223
  928MOL0    Cl22408   6.576  -1.205   3.496  0.1250 -0.0389  0.0312
  928MOL0     C22409   7.385  -0.831   4.362 -0.5796  0.1071 -0.5409
  928MOL0     C22410   7.456  -0.759   4.457  0.0622  0.0781 -0.0596
  928MOL0     O22411   7.544  -0.747   4.749  0.3089  0.3108  0.5098
  928MOL0     C22412   7.504  -0.403   4.847 -0.4853 -0.3020  0.1595
  928MOL0     C22413   7.532  -0.324   4.954  0.1640 -0.4249  0.5077
  928MOL0     N22414   7.877   0.149   5.152  1.2196 -0.1842 -0.3668
  928MOL0     N22415   7.981   0.213   5.178 -0.1397  0.4907 -0.8251
  928MOL0     C22416   9.232   0.289   5.642 -0.2934  1.2699 -0.4785
  928MOL0     C22417   9.354   0.363   5.643  0.1307  0.2393  0.5019
  928MOL0     C22418   9.713   0.589   5.864 -0.1971 -0.0124 -0.0441
  928MOL0     C22419   9.726   0.699   5.790  0.2696 -0.8452  0.1215
  928MOL0     C22420   9.817   0.794   5.815 -1.3153 -0.6767  0.0584
  928MOL0     C22421   9.902   0.781   5.925 -1.5117 -0.7599 -0.4368
  928MOL0     O22422  10.016   0.865   5.951  0.0041  0.0548 -0.1505
  928MOL0     C22423  10.024   0.986   5.886 -0.0771  0.9626  0.2285
  928MOL0     C22424  10.159   1.054   5.918  0.3222  0.3240  0.5559
  928MOL0     C22425  10.194   1.156   5.811 -0.3598 -0.7388  0.0721
  928MOL0     C22426  10.273   1.089   5.695 -0.1756 -0.6464  0.5975
  928MOL0     C22427  10.330   1.195   5.605  0.1166 -0.4459 -0.5905
  928MOL0     C22428  10.359   1.272   5.522  0.5553 -0.4598  0.7161
  928MOL0     C22429   9.895   0.667   6.001  0.5767 -0.2893 -0.0555
  928MOL0     C22430   9.800   0.570   5.968  0.0016  0.0601  0.2620
  928MOL0     H22431   9.363   0.480   5.957  2.3724 -0.9812 -0.2781
  928MOL0     H22432   9.129   0.368   5.956 -2.8932  0.9185 -1.5264
  928MOL0     H22433   8.992   0.115   5.595  0.5466  0.2141  1.7203
  928MOL0     H22434   8.977   0.289   5.561  0.5939 -1.4683 -0.8743
  928MOL0     H22435   8.775   0.314   5.686  0.3563 -1.0329 -0.7263
  928MOL0     H22436   8.798   0.159   5.758  1.0581  1.7446  1.2052
  928MOL0     H22437   8.730   0.052   5.554 -2.4670  0.0640 -0.0725
  928MOL0     H22438   8.787   0.186   5.454 -0.0583 -4.0771 -1.8367
  928MOL0     H22439   8.544   0.179   5.638  0.7683 -2.2200 -1.4880
  928MOL0     H22440   8.608   0.321   5.538  1.4745 -0.2008 -0.1365
  928MOL0     H22441   8.491   0.055   5.446 -1.6509 -0.1199 -0.2149
  928MOL0     H22442   8.547   0.192   5.340 -1.3627 -0.6045 -0.9270
  928MOL0     H22443   8.368   0.339   5.454 -2.0086  0.5988  0.3387
  928MOL0     H22444   8.335   0.206   5.572  1.0944  3.3565  0.7795
  928MOL0     H22445   8.296   0.204   5.260 -0.2407  2.3223  0.4830
  928MOL0     H22446   8.220   0.084   5.372 -3.4408  0.8339  3.8201
  928MOL0     H22447   8.134   0.359   5.332  2.0425  1.1588  2.1109
  928MOL0     H22448   8.078   0.257   5.469  0.9637 -0.7456  0.6202
  928MOL0     H22449   7.957   0.018   5.436  2.0294  2.3407  0.7167
  928MOL0     H22450   7.721  -0.070   5.157  0.3002 -2.4039  0.6842
  928MOL0     H22451   7.636   0.044   5.250 -0.6424 -0.5498  1.9218
  928MOL0     H22452   7.734  -0.055   5.465 -1.5005  2.8475 -1.3174
  928MOL0     H22453   7.774  -0.196   5.378  1.9489  0.1108  2.3177
  928MOL0     H22454   7.546  -0.247   5.464  1.9728  1.9110  2.3524
  928MOL0     H22455   7.495  -0.091   5.411  1.1839  1.7783  0.2832
  928MOL0     H22456   7.475  -0.151   5.181  1.3565 -1.5460 -2.8062
  928MOL0     H22457   7.433  -0.300   5.274  0.2667 -0.3208  0.6577
  928MOL0     H22458   7.683  -0.563   5.153  0.8898  2.3829  0.6558
  928MOL0     H22459   7.640  -0.696   4.961 -0.8379 -0.8429 -1.7548
  928MOL0     H22460   7.217  -0.546   4.540 -1.8958 -0.5914 -1.0944
  928MOL0     H22461   7.091  -0.670   4.354  1.6278  3.6220 -3.9617
  928MOL0     H22462   7.001  -0.814   4.205 -3.0829 -2.3024 -0.5967
  928MOL0     H22463   7.027  -0.944   4.314 -0.6844  3.1865  1.4522
  928MOL0     H22464   7.042  -1.106   4.128  3.9369 -0.0684  0.8677
  928MOL0     H22465   7.085  -0.978   4.013  0.6015 -2.3769 -0.2074
  928MOL0     H22466   6.869  -0.872   4.059  4.4224  0.0054  0.8908
  928MOL0     H22467   6.816  -1.021   4.138 -0.2292  0.7065 -0.0258
  928MOL0     H22468   6.922  -1.021   3.847 -0.1085  1.6525  0.3030
  928MOL0     H22469   6.863  -1.163   3.939  2.8130 -0.0285  0.5000
  928MOL0     H22470   6.689  -0.917   3.904 -3.7949  0.2857  1.2353
  928MOL0     H22471   6.640  -1.058   3.991 -0.0196  0.7195  0.5352
  928MOL0     H22472   6.538  -1.022   3.764 -0.2516 -0.6916 -1.2984
  928MOL0     H22473   6.631  -1.174   3.788 -2.3929 -0.0560 -0.9884
  928MOL0     H22474   6.743  -0.918   3.658 -0.9857  0.6651 -0.0416
  928MOL0     H22475   6.801  -1.081   3.664  0.9037  2.9660  2.6389
  928MOL0     H22476   6.690  -0.991   3.438 -2.9327  2.3918 -0.8031
  928MOL0     H22477   6.540  -0.970   3.503  1.3482  1.4053 -5.3939
  928MOL0     H22478   7.439  -0.906   4.306  1.0966 -0.7330  2.0171
  928MOL0     H22479   7.562  -0.777   4.476 -0.1309  1.1323  2.4612
  928MOL0     H22480   7.466  -0.371   4.751 -0.8789 -2.5138 -0.4737
  928MOL0     H22481   7.499  -0.221   4.969 -2.0118 -1.1791  1.1670
  928MOL0     H22482   9.212   0.227   5.556  2.6685 -0.0862 -0.2945
  928MOL0     H22483   9.415   0.364   5.553 -1.7476 -1.5805 -0.8786
  928MOL0     H22484   9.661   0.716   5.705 -0.4507  2.6129  1.2103
  928MOL0     H22485   9.829   0.871   5.740 -1.6406 -2.1395 -1.5616
  928MOL0     H22486   9.948   1.059   5.917  0.8441  2.2401 -0.4482
  928MOL0     H22487  10.013   0.962   5.780  0.8370  2.2618 -0.1942
  928MOL0     H22488  10.162   1.096   6.019  1.5914  1.2003  0.1884
  928MOL0     H22489  10.247   0.989   5.926 -1.3895 -2.0819  0.5505
  928MOL0     H22490  10.270   1.222   5.853 -2.1822  2.2173 -0.9898
  928MOL0     H22491  10.110   1.216   5.775  0.3626  0.9225  1.0472
  928MOL0     H22492  10.362   1.037   5.732  0.2222  1.1343  2.3069
  928MOL0     H22493  10.206   1.024   5.638 -0.4216 -0.0492  0.1901
  928MOL0     H22494  10.378   1.341   5.442 -0.0580 -2.0296 -0.8601
  928MOL0     H22495   9.958   0.638   6.085  0.7857 -1.1738 -0.5028
  928MOL0     H22496   9.791   0.492   6.044 -1.0809 -0.7099 -0.6224
  929MOL0     O22497   0.575  10.719   1.624  0.1014  0.3062  0.3596
  929MOL0     C22498   0.548  10.710   1.508  0.8942 -0.3295  0.1284
  929MOL0     O22499   0.428  10.673   1.463 -0.1981 -0.2737  0.1149
  929MOL0     C22500   0.317  10.653   1.538 -0.5596 -0.4645 -0.5178
  929MOL0     C22501   0.268  10.759   1.611  0.0336  0.4684  0.7911
  929MOL0     C22502   0.142  10.755   1.670  0.3646  0.5938  0.7872
  929MOL0     C22503   0.064  10.635   1.663  0.7347  0.1644 -0.4758
  929MOL0     O22504  -0.042  10.597   1.738  0.1793  0.1542  0.0568
  929MOL0     C22505  -0.127  10.709   1.793 -0.2261  0.1739 -0.9107
  929MOL0     C22506  -0.277  10.677   1.768 -0.0761  0.4228  0.8660
  929MOL0     C22507  -0.387  10.791   1.799  0.1839 -0.0391 -0.0521
  929MOL0     C22508  -0.521  10.730   1.762  0.2302 -0.4219  0.3451
  929MOL0     C22509  -0.653  10.812   1.781 -0.1468 -0.5440 -0.2836
  929MOL0     C22510  -0.680  10.852   1.927 -0.5881 -0.2228 -0.7974
  929MOL0     C22511  -0.825  10.875   1.962 -0.3935 -0.7844  0.3857
  929MOL0     C22512  -0.915  10.745   1.951  0.4963 -0.7731 -0.1353
  929MOL0     N22513  -1.060  10.786   1.952 -1.0175  0.1047 -0.1299
  929MOL0     C22514  -1.136  10.791   2.064 -0.5492 -0.6955 -0.8023
  929MOL0     C22515  -1.261  10.788   2.009  0.1582 -0.1889  0.3542
  929MOL0     C22516  -1.391  10.802   2.084 -0.3443 -0.8181  0.6512
  929MOL0     C22517  -1.412  10.672   2.158 -0.9730 -0.0978 -0.6438
  929MOL0     C22518  -1.542  10.677   2.245  0.1073  0.0395  0.5477
  929MOL0     C22519  -1.671  10.680   2.163 -0.0718 -0.3059 -0.3878
  929MOL0     O22520  -1.789  10.647   2.237 -0.1236 -1.1135 -0.2605
  929MOL0     C22521  -1.923  10.683   2.198 -0.4158  0.4127 -0.0263
  929MOL0     C22522  -2.030  10.664   2.297  0.6065 -0.3613 -0.0689
  929MOL0     C22523  -2.164  10.699   2.270 -0.0684 -0.0671 -0.4938
  929MOL0     C22524  -2.194  10.742   2.138  0.3302  0.1762  0.3125
  929MOL0     C22525  -2.335  10.759   2.098 -0.9736 -0.8582  0.3406
  929MOL0     O22526  -2.355  10.820   1.972  0.1243 -0.3614 -0.1309
  929MOL0     C22527  -2.487  10.852   1.933  0.9122 -0.1268  1.1042
  929MOL0     C22528  -2.531  10.824   1.803  0.3765 -0.4969 -0.4318
  929MOL0     C22529  -2.663  10.862   1.770 -0.4168 -0.0800  0.0742
  929MOL0     C22530  -2.761  10.900   1.857  0.2052 -0.1745  0.0841
  929MOL0     O22531  -2.884  10.927   1.806  0.1047 -0.9086  1.1166
  929MOL0     C22532  -2.983  10.982   1.886 -0.0676 -0.1256 -0.1761
  929MOL0     C22533  -3.105  11.028   1.812 -0.1867  0.1149 -1.0042
  929MOL0     C22534  -3.187  10.905   1.776  0.0990 -0.5220  0.1109
  929MOL0     C22535  -3.321  10.959   1.721  0.2493  0.3766  0.4993
  929MOL0     C22536  -3.420  10.841   1.713 -0.5667  0.1327 -0.6755
  929MOL0     C22537  -3.553  10.872   1.641 -0.1190 -0.2588 -0.2818
  929MOL0     C22538  -3.633  10.746   1.578  0.5035 -0.3899 -0.3746
  929MOL0     C22539  -3.759  10.799   1.508 -0.4664 -0.2218  0.3152
  929MOL0    Cl22540  -3.873  10.862   1.632 -0.4032  0.5163  0.3216
  929MOL0     C22541  -2.717  10.929   1.987 -0.5676  0.1203  0.9626
  929MOL0     C22542  -2.583  10.900   2.022 -0.2206 -0.7123  0.0544
  929MOL0     O22543  -2.426  10.740   2.181 -1.1369  0.3030 -0.8009
  929MOL0     C22544  -2.093  10.754   2.040  0.2292  0.0867 -0.5226
  929MOL0     C22545  -1.962  10.722   2.073 -0.3288 -0.6544  0.0918
  929MOL0     N22546  -1.259  10.787   1.869 -1.3193 -0.4277 -0.6365
  929MOL0     N22547  -1.136  10.786   1.842 -0.6842 -0.0418  0.2134
  929MOL0     C22548   0.119  10.531   1.582  0.0265 -0.3477 -0.0201
  929MOL0     C22549   0.244  10.539   1.514 -0.3833 -0.2011 -0.7868
  929MOL0     C22550   0.652  10.768   1.421 -0.5244 -0.2889  0.2723
  929MOL0     C22551   0.779  10.804   1.476 -0.7293 -0.1686  0.9262
  929MOL0     C22552   0.886  10.856   1.391 -0.0601 -0.4653 -0.8274
  929MOL0     C22553   0.863  10.849   1.251 -0.3268  0.3337  0.0071
  929MOL0     O22554   0.957  10.898   1.162  0.3804  0.1585 -0.1419
  929MOL0     C22555   1.097  10.890   1.182  0.6958 -0.0996  0.0025
  929MOL0     C22556   1.149  10.894   1.039 -0.3353  0.1251 -0.1590
  929MOL0     C22557   1.297  10.919   1.041 -1.0988 -0.3301  0.2950
  929MOL0     C22558   1.356  10.942   0.900  0.2093  0.3675  0.4444
  929MOL0     C22559   1.507  10.926   0.904  0.4613 -0.2873  0.2040
  929MOL0     C22560   1.631  10.921   0.924  1.4269  0.3458  0.4165
  929MOL0     C22561   0.741  10.806   1.202  0.2371 -0.1336  0.8128
  929MOL0     C22562   0.635  10.776   1.292  0.1638 -0.2098 -0.9516
  929MOL0     H22563   0.327  10.849   1.623  2.1623 -0.9375  1.4112
  929MOL0     H22564   0.117  10.842   1.729  0.2653  0.2028  1.3278
  929MOL0     H22565  -0.122  10.805   1.741  3.5497  0.6727  0.0727
  929MOL0     H22566  -0.101  10.729   1.897 -2.0174  1.5620 -0.6797
  929MOL0     H22567  -0.304  10.582   1.815 -1.7642 -0.5378 -1.8274
  929MOL0     H22568  -0.286  10.662   1.661 -0.0811 -0.4125  0.9822
  929MOL0     H22569  -0.372  10.880   1.738 -0.8252  1.4521  1.7871
  929MOL0     H22570  -0.377  10.829   1.901 -0.6689 -1.6535  0.6735
  929MOL0     H22571  -0.512  10.711   1.655  0.0352 -3.4731  0.7935
  929MOL0     H22572  -0.526  10.632   1.810  0.8924 -1.0484 -0.8188
  929MOL0     H22573  -0.738  10.753   1.748 -0.6041  0.2502 -0.5407
  929MOL0     H22574  -0.655  10.902   1.719 -1.6206  0.3727  1.0256
  929MOL0     H22575  -0.631  10.948   1.949 -0.5950 -0.6811  1.5245
  929MOL0     H22576  -0.628  10.779   1.989  1.5686  0.6618 -1.4772
  929MOL0     H22577  -0.833  10.908   2.066  2.1316 -0.0007  0.3916
  929MOL0     H22578  -0.870  10.952   1.898 -3.1449 -3.3416 -1.0028
  929MOL0     H22579  -0.882  10.687   2.038  0.0665  0.8535  1.1526
  929MOL0     H22580  -0.904  10.687   1.859 -1.3441 -0.5214 -0.5576
  929MOL0     H22581  -1.115  10.790   2.170  0.6184 -0.5369 -1.0226
  929MOL0     H22582  -1.467  10.826   2.010 -0.2381  1.4388  1.2059
  929MOL0     H22583  -1.394  10.891   2.147 -1.0185  1.4071 -2.3188
  929MOL0     H22584  -1.333  10.662   2.233 -2.5390 -0.2377  1.0577
  929MOL0     H22585  -1.425  10.585   2.094 -4.2036 -1.0912  1.1106
  929MOL0     H22586  -1.546  10.578   2.292  0.4647  0.0659  0.6315
  929MOL0     H22587  -1.547  10.761   2.315 -4.9250  0.8425 -0.4059
  929MOL0     H22588  -1.661  10.613   2.077 -2.1438 -1.8506  0.4963
  929MOL0     H22589  -1.677  10.781   2.119  2.0724  0.0190 -0.0116
  929MOL0     H22590  -2.009  10.632   2.398 -0.9897  1.9748  1.0984
  929MOL0     H22591  -2.241  10.684   2.346 -0.6445  0.3348 -0.9873
  929MOL0     H22592  -2.460  10.793   1.728  2.4826 -0.6091  1.5050
  929MOL0     H22593  -2.683  10.863   1.664 -0.2372 -1.2587  0.0181
  929MOL0     H22594  -2.939  11.068   1.938  0.3162  0.1205 -0.9060
  929MOL0     H22595  -3.012  10.912   1.965  3.6724 -0.4222  1.1352
  929MOL0     H22596  -3.074  11.085   1.725 -1.1262  1.6110 -0.3953
  929MOL0     H22597  -3.166  11.095   1.873  1.0795  3.0601 -2.7811
  929MOL0     H22598  -3.203  10.838   1.862 -1.0233 -1.3102 -0.6778
  929MOL0     H22599  -3.125  10.846   1.707  0.9546 -2.0744  2.0952
  929MOL0     H22600  -3.362  11.036   1.788  0.3395 -0.7510  1.9007
  929MOL0     H22601  -3.309  11.003   1.622 -1.8187 -0.9153 -0.3853
  929MOL0     H22602  -3.442  10.804   1.813  2.7617  3.5202  1.5760
  929MOL0     H22603  -3.363  10.763   1.660  0.1448  1.4245 -1.8652
  929MOL0     H22604  -3.525  10.920   1.547 -3.0692  0.3354 -0.9480
  929MOL0     H22605  -3.620  10.940   1.695  2.2093  2.2169 -0.2848
  929MOL0     H22606  -3.570  10.690   1.508  1.2312  0.2761 -0.2680
  929MOL0     H22607  -3.680  10.675   1.646 -1.9900 -0.1938 -1.7973
  929MOL0     H22608  -3.807  10.722   1.447 -0.0030 -0.5929  0.4118
  929MOL0     H22609  -3.745  10.876   1.432 -2.3763  1.6317  1.7337
  929MOL0     H22610  -2.787  10.983   2.051  1.1680  3.7269  0.0837
  929MOL0     H22611  -2.565  10.907   2.129 -2.1452  1.5589  0.3083
  929MOL0     H22612  -2.120  10.768   1.936 -1.0429 -0.1389 -0.2480
  929MOL0     H22613  -1.881  10.738   2.003  1.6686  0.0568  2.4293
  929MOL0     H22614   0.065  10.437   1.576  0.3103 -0.5061 -0.1570
  929MOL0     H22615   0.300  10.462   1.463  0.9275 -2.2375  3.2918
  929MOL0     H22616   0.802  10.777   1.579  2.5827 -0.6208  0.1707
  929MOL0     H22617   0.979  10.891   1.436 -0.3667  0.5338 -0.9514
  929MOL0     H22618   1.125  10.794   1.228  0.2846 -0.0534  0.3507
  929MOL0     H22619   1.132  10.972   1.244 -1.9804  0.3370  1.0409
  929MOL0     H22620   1.113  10.807   0.984 -0.7947 -0.6508  1.3024
  929MOL0     H22621   1.111  10.980   0.983  1.5820  0.6963 -0.6726
  929MOL0     H22622   1.334  10.823   1.077  0.0415  0.5234  1.4983
  929MOL0     H22623   1.327  10.997   1.111 -0.2330  0.0155 -0.4325
  929MOL0     H22624   1.320  10.862   0.836  1.5193 -2.3472  2.8815
  929MOL0     H22625   1.332  11.041   0.858 -1.8216 -0.7930 -1.3066
  929MOL0     H22626   1.736  10.899   0.920  1.4115  0.4629 -1.3870
  929MOL0     H22627   0.723  10.796   1.095 -0.7405  0.9888  0.8571
  929MOL0     H22628   0.538  10.765   1.247 -2.2955 -0.9661  3.8885
  930MOL0     O22629   6.262   4.268   4.223 -0.1267  0.3049 -0.0256
  930MOL0     C22630   6.268   4.375   4.278  0.5649 -0.7175 -0.2475
  930MOL0     O22631   6.157   4.465   4.291  0.7699  0.7243  0.0212
  930MOL0     C22632   6.045   4.423   4.231  0.7653 -0.0995  0.6769
  930MOL0     C22633   5.982   4.308   4.268  0.5369 -0.0839 -0.2330
  930MOL0     C22634   5.851   4.273   4.206 -0.4319  0.1877  0.4831
  930MOL0     C22635   5.793   4.363   4.116  1.0178 -1.7217 -0.1605
  930MOL0     O22636   5.680   4.334   4.041  0.2946  0.6237 -0.1726
  930MOL0     C22637   5.578   4.276   4.118  0.2072 -0.0496 -1.3920
  930MOL0     C22638   5.449   4.270   4.028 -0.4834 -0.5787  1.0816
  930MOL0     C22639   5.339   4.203   4.117  0.0058  0.0931  1.0616
  930MOL0     C22640   5.219   4.172   4.034  0.5990  0.0134  0.7714
  930MOL0     C22641   5.080   4.188   4.101 -0.8186 -0.1878  0.5036
  930MOL0     C22642   4.966   4.105   4.046  0.6576  0.5589 -0.3849
  930MOL0     C22643   4.851   4.179   3.991  0.2537 -0.3849  0.2315
  930MOL0     C22644   4.753   4.247   4.095 -0.1747 -0.0716  0.3491
  930MOL0     N22645   4.610   4.258   4.054 -0.1618  0.3970 -0.0598
  930MOL0     C22646   4.508   4.177   4.114 -0.0776 -0.0575 -0.0171
  930MOL0     C22647   4.399   4.203   4.039 -0.1501 -0.3268 -0.9674
  930MOL0     C22648   4.267   4.144   4.065  0.4467  0.3733  0.2677
  930MOL0     C22649   4.156   4.191   3.965 -0.3089  0.2588  0.0905
  930MOL0     C22650   4.037   4.097   3.984 -0.2395  0.5240 -0.0316
  930MOL0     C22651   3.899   4.165   3.954  0.7532  0.7885 -0.3690
  930MOL0     O22652   3.805   4.057   3.944 -0.0397  0.2597  0.4990
  930MOL0     C22653   3.672   4.088   3.960 -0.0719  0.2510 -0.5598
  930MOL0     C22654   3.610   4.209   3.967  0.2164 -0.4020 -0.3737
  930MOL0     C22655   3.472   4.217   3.980  0.0296 -0.2017  0.1264
  930MOL0     C22656   3.389   4.112   4.000 -0.0119  0.4439  0.6411
  930MOL0     C22657   3.240   4.135   4.000 -0.6499  0.9094 -0.1108
  930MOL0     O22658   3.187   4.254   4.028  0.1765 -0.2453  0.7477
  930MOL0     C22659   3.064   4.274   3.974 -0.5050 -0.1720 -0.1558
  930MOL0     C22660   2.957   4.294   4.058  0.3110  0.2127  1.1707
  930MOL0     C22661   2.838   4.341   4.009  0.4143 -0.3796 -0.8019
  930MOL0     C22662   2.819   4.347   3.872 -0.1312 -0.7934  0.3001
  930MOL0     O22663   2.698   4.377   3.813  0.5474 -0.7641  0.1748
  930MOL0     C22664   2.586   4.419   3.898  0.5215  0.6572  0.3943
  930MOL0     C22665   2.468   4.454   3.812 -0.3595 -0.0043  0.2097
  930MOL0     C22666   2.460   4.373   3.693 -0.0402 -0.3681 -0.0460
  930MOL0     C22667   2.327   4.361   3.612  0.2706 -0.2580 -0.0178
  930MOL0     C22668   2.257   4.499   3.585 -1.3078 -0.5527 -0.0991
  930MOL0     C22669   2.125   4.486   3.504 -0.5238 -0.4095 -0.1676
  930MOL0     C22670   2.080   4.625   3.448 -0.2277  0.0199 -0.4184
  930MOL0     C22671   1.956   4.603   3.369  0.3231 -0.3854  0.3988
  930MOL0    Cl22672   1.818   4.538   3.464  0.0925 -0.1708 -0.2430
  930MOL0     C22673   2.922   4.316   3.778  0.6573  0.4267  0.3993
  930MOL0     C22674   3.051   4.289   3.831  0.8861  0.6636 -0.8103
  930MOL0     O22675   3.176   4.037   3.974  0.3831  0.1638  0.1465
  930MOL0     C22676   3.450   3.983   3.991  0.5843 -0.0986 -0.0859
  930MOL0     C22677   3.587   3.976   3.988  0.4347 -0.0978  0.7207
  930MOL0     N22678   4.428   4.320   3.968 -0.3486  0.1961  0.3752
  930MOL0     N22679   4.553   4.343   3.969 -0.3281  0.6463 -0.3163
  930MOL0     C22680   5.854   4.477   4.085 -0.0199 -0.7210  1.0954
  930MOL0     C22681   5.977   4.518   4.149 -0.9743 -0.3736  0.2168
  930MOL0     C22682   6.401   4.413   4.339  0.7543 -0.1550  0.3284
  930MOL0     C22683   6.412   4.546   4.385 -0.9491 -0.6600 -0.5211
  930MOL0     C22684   6.526   4.585   4.459  0.5650  0.0417  0.7115
  930MOL0     C22685   6.624   4.493   4.494 -0.5199 -0.2532 -0.5090
  930MOL0     O22686   6.720   4.519   4.592 -0.2145 -0.1624 -0.4005
  930MOL0     C22687   6.685   4.610   4.702  0.0869  0.4937 -0.5359
  930MOL0     C22688   6.779   4.591   4.831 -0.2905  0.5827 -0.1243
  930MOL0     C22689   6.928   4.578   4.794  0.0142  0.2238  0.1160
  930MOL0     C22690   7.007   4.578   4.923  0.3964  0.3210  0.2121
  930MOL0     C22691   7.144   4.569   4.885  0.7564 -0.4068  0.3274
  930MOL0     C22692   7.257   4.553   4.856  0.3219  0.7195  0.1662
  930MOL0     C22693   6.613   4.360   4.438 -0.5952 -0.3290  0.4329
  930MOL0     C22694   6.504   4.323   4.363  0.0068  0.0634  0.3474
  930MOL0     H22695   6.038   4.246   4.336 -0.8223 -0.7999  0.2832
  930MOL0     H22696   5.806   4.176   4.223 -2.4419  0.6153 -1.9038
  930MOL0     H22697   5.554   4.341   4.203  1.4587  1.2319 -1.9757
  930MOL0     H22698   5.598   4.173   4.147 -0.5605 -0.0352 -0.7473
  930MOL0     H22699   5.458   4.209   3.938 -0.7231  1.6943 -0.5954
  930MOL0     H22700   5.416   4.372   4.003  0.5620 -0.2683  0.9454
  930MOL0     H22701   5.313   4.263   4.205  1.3689  0.6391  1.1182
  930MOL0     H22702   5.378   4.107   4.150 -0.6623 -1.4401 -2.1671
  930MOL0     H22703   5.217   4.231   3.942 -3.0987  0.0338  0.7317
  930MOL0     H22704   5.221   4.067   4.004 -1.5006  0.4526 -1.1419
  930MOL0     H22705   5.060   4.294   4.080  0.9628  0.0706 -0.0017
  930MOL0     H22706   5.089   4.168   4.208 -1.9395  2.0072  1.0841
  930MOL0     H22707   4.931   4.049   4.133  0.0741  4.1823  1.9147
  930MOL0     H22708   4.996   4.034   3.968  1.4563  0.6473 -0.1699
  930MOL0     H22709   4.884   4.255   3.920 -0.1696  0.9926  1.4518
  930MOL0     H22710   4.789   4.106   3.939 -0.1108 -1.1912  1.7415
  930MOL0     H22711   4.795   4.345   4.118 -0.3531  0.3792 -1.1311
  930MOL0     H22712   4.755   4.180   4.181  1.6329 -0.7434 -0.1690
  930MOL0     H22713   4.522   4.094   4.182  0.9785 -0.3566 -0.5816
  930MOL0     H22714   4.234   4.151   4.169  2.1668 -0.9248  0.9649
  930MOL0     H22715   4.284   4.037   4.046  1.5913  0.2969  1.5234
  930MOL0     H22716   4.186   4.183   3.861 -1.5520 -3.1145 -0.1527
  930MOL0     H22717   4.140   4.297   3.984 -0.7160 -0.1658  2.4650
  930MOL0     H22718   4.036   4.007   3.922 -0.4530 -2.0529  3.3745
  930MOL0     H22719   4.029   4.069   4.090  2.5008  3.2746  1.0456
  930MOL0     H22720   3.898   4.220   3.860 -0.8892 -0.4258 -1.1030
  930MOL0     H22721   3.875   4.235   4.034 -1.7559 -1.0922  0.6785
  930MOL0     H22722   3.672   4.295   3.944 -0.5169  0.2879  0.1626
  930MOL0     H22723   3.436   4.319   3.993 -2.0507 -0.8552 -0.1786
  930MOL0     H22724   2.971   4.294   4.165 -3.8663  1.4069  1.8952
  930MOL0     H22725   2.769   4.376   4.085  1.0123  2.8151 -1.5779
  930MOL0     H22726   2.616   4.504   3.960  1.3011 -0.4551  1.5901
  930MOL0     H22727   2.551   4.340   3.965 -0.6050  0.7083 -0.1182
  930MOL0     H22728   2.470   4.557   3.776 -1.5633  0.0734  0.3031
  930MOL0     H22729   2.382   4.448   3.879  0.2503  2.6831  1.3565
  930MOL0     H22730   2.496   4.270   3.705 -0.8451 -0.5283  1.1603
  930MOL0     H22731   2.546   4.410   3.637  0.6472 -3.3797 -1.1765
  930MOL0     H22732   2.359   4.321   3.516  1.2972  2.2656 -0.8067
  930MOL0     H22733   2.262   4.295   3.671  1.7283 -2.7674 -1.0607
  930MOL0     H22734   2.324   4.575   3.544 -3.1671  1.1590 -0.0829
  930MOL0     H22735   2.236   4.538   3.685 -1.8715 -1.4335  0.1367
  930MOL0     H22736   2.057   4.428   3.566  1.3064 -3.9027 -1.1415
  930MOL0     H22737   2.133   4.422   3.415  1.1847 -1.6262  0.8055
  930MOL0     H22738   2.060   4.698   3.527  1.0031  2.3878 -2.2022
  930MOL0     H22739   2.155   4.677   3.388 -0.4516  1.5621  0.5870
  930MOL0     H22740   1.967   4.533   3.286  1.3572  1.0370 -0.7214
  930MOL0     H22741   1.930   4.689   3.307  3.2135 -1.8216 -3.1199
  930MOL0     H22742   2.894   4.311   3.674  0.0973  1.6022  0.4754
  930MOL0     H22743   3.137   4.291   3.765  0.8604 -1.3928 -0.9705
  930MOL0     H22744   3.399   3.888   3.981 -2.9528  1.7949 -1.9004
  930MOL0     H22745   3.621   3.873   3.996  0.5611 -0.0155  1.2393
  930MOL0     H22746   5.817   4.542   4.006  2.4272 -0.6758 -0.0859
  930MOL0     H22747   6.020   4.615   4.129 -3.0547  0.5032 -0.2758
  930MOL0     H22748   6.335   4.621   4.368 -1.8303 -0.8509  2.1491
  930MOL0     H22749   6.529   4.688   4.494  1.5588  0.0527  0.6253
  930MOL0     H22750   6.586   4.580   4.737  1.3639 -2.6236  0.8722
  930MOL0     H22751   6.679   4.713   4.668 -1.7081  0.3031 -0.9068
  930MOL0     H22752   6.756   4.671   4.902 -0.9927  0.5631 -0.3192
  930MOL0     H22753   6.762   4.496   4.883  0.1483  1.0119  0.8352
  930MOL0     H22754   6.958   4.656   4.723  0.7847  1.4204  1.6992
  930MOL0     H22755   6.942   4.482   4.743  0.0563  0.4385 -0.2854
  930MOL0     H22756   6.996   4.676   4.971 -0.2890 -0.0242  0.7786
  930MOL0     H22757   6.966   4.494   4.980  1.1898 -0.8282 -0.8507
  930MOL0     H22758   7.357   4.528   4.826  0.4264 -1.2257  1.8680
  930MOL0     H22759   6.695   4.298   4.475  0.4264  0.4724 -0.4260
  930MOL0     H22760   6.476   4.224   4.329 -2.1874  0.5269  0.6479
  931MOL0     O22761   2.423   9.128   6.399 -0.5229  0.2909 -0.4860
  931MOL0     C22762   2.514   9.215   6.383  0.5931  0.0960  0.5819
  931MOL0     O22763   2.518   9.339   6.447  0.0895 -0.4700  0.6109
  931MOL0     C22764   2.411   9.381   6.525  0.5099 -0.6955  0.4031
  931MOL0     C22765   2.441   9.433   6.651 -0.1079 -0.9914 -0.1795
  931MOL0     C22766   2.336   9.493   6.724 -0.0596 -0.2138 -0.3574
  931MOL0     C22767   2.211   9.510   6.671  0.9692 -0.6329 -0.4156
  931MOL0     O22768   2.119   9.582   6.740  0.5354 -0.3626 -0.3940
  931MOL0     C22769   1.984   9.553   6.732  0.6160 -0.0463 -0.5142
  931MOL0     C22770   1.917   9.636   6.844 -1.0384  0.0276 -0.1025
  931MOL0     C22771   1.780   9.572   6.876 -0.7736  0.1398 -0.1718
  931MOL0     C22772   1.702   9.668   6.961  0.5700  0.3440  0.7352
  931MOL0     C22773   1.551   9.631   6.952  0.6640  0.4554 -0.1058
  931MOL0     C22774   1.480   9.685   7.076 -0.0641  0.1437 -0.4048
  931MOL0     C22775   1.330   9.641   7.075 -0.6691  0.5133  0.0281
  931MOL0     C22776   1.244   9.716   7.172  0.8206 -0.2003  0.0989
  931MOL0     N22777   1.104   9.681   7.135 -0.6623  0.8313 -0.7053
  931MOL0     C22778   1.024   9.576   7.188  0.9742  0.2309  0.2641
  931MOL0     C22779   0.912   9.575   7.111 -0.2491 -0.3745 -0.2120
  931MOL0     C22780   0.794   9.487   7.125 -0.0914 -0.0996 -0.3920
  931MOL0     C22781   0.839   9.346   7.167 -0.1045  0.0134 -0.4480
  931MOL0     C22782   0.721   9.247   7.174  0.8496 -0.1969 -0.6018
  931MOL0     C22783   0.579   9.303   7.208 -0.2531  0.2571  0.1271
  931MOL0     O22784   0.496   9.185   7.207  0.7074 -0.4716 -0.2573
  931MOL0     C22785   0.362   9.207   7.242 -0.6695 -0.9022 -0.7027
  931MOL0     C22786   0.270   9.101   7.230 -0.5405  0.3761  0.4443
  931MOL0     C22787   0.134   9.119   7.254 -0.2430  0.3411  0.0050
  931MOL0     C22788   0.086   9.239   7.288  0.0603 -0.4361  0.1757
  931MOL0     C22789  -0.059   9.270   7.290 -0.4069 -0.2865  0.5697
  931MOL0     O22790  -0.147   9.163   7.253 -0.8115 -0.4527 -0.0425
  931MOL0     C22791  -0.282   9.180   7.262 -0.5239  0.3277 -0.0459
  931MOL0     C22792  -0.357   9.083   7.205 -1.1987 -0.2633  0.5033
  931MOL0     C22793  -0.495   9.087   7.198  0.5172  1.1418  0.2802
  931MOL0     C22794  -0.564   9.180   7.279 -1.0397  0.1647 -0.6362
  931MOL0     O22795  -0.701   9.187   7.288 -0.1757  0.1586  0.5548
  931MOL0     C22796  -0.780   9.071   7.272  0.8305  0.8166 -0.4534
  931MOL0     C22797  -0.923   9.107   7.325 -0.2058 -0.0992 -0.5638
  931MOL0     C22798  -0.940   9.099   7.475 -0.4792  0.2158 -0.6630
  931MOL0     C22799  -1.081   9.164   7.517 -0.7470  0.6137 -0.3713
  931MOL0     C22800  -1.199   9.079   7.471  0.4720  0.2741 -0.9028
  931MOL0     C22801  -1.333   9.136   7.505  0.2124  0.8301  0.2351
  931MOL0     C22802  -1.437   9.019   7.492 -0.0179 -0.2320 -0.0062
  931MOL0     C22803  -1.585   9.063   7.484 -0.2188 -0.0975 -0.0644
  931MOL0    Cl22804  -1.693   8.921   7.474 -0.2779  0.3989  0.0578
  931MOL0     C22805  -0.494   9.274   7.363 -0.0365  0.1133  0.5634
  931MOL0     C22806  -0.352   9.269   7.346  0.6215  0.3378 -0.1518
  931MOL0     O22807  -0.088   9.390   7.300 -0.5424 -0.3698  0.2898
  931MOL0     C22808   0.175   9.347   7.311  0.5314  0.3154  0.5868
  931MOL0     C22809   0.312   9.332   7.281  0.3953  0.5310  0.4068
  931MOL0     N22810   0.927   9.672   7.012  0.1457 -0.0908  0.5292
  931MOL0     N22811   1.037   9.736   7.029  0.3572  0.0148 -0.5668
  931MOL0     C22812   2.183   9.454   6.544  0.4025 -0.2100 -0.8677
  931MOL0     C22813   2.282   9.385   6.478  0.4285 -0.3701  0.7553
  931MOL0     C22814   2.625   9.183   6.284  0.2885 -1.0700 -1.0718
  931MOL0     C22815   2.750   9.248   6.304 -0.2304 -0.0102 -0.9875
  931MOL0     C22816   2.857   9.234   6.221  0.2643 -0.1412 -0.6344
  931MOL0     C22817   2.849   9.143   6.117  0.3030 -0.0388  0.6237
  931MOL0     O22818   2.964   9.121   6.044  0.6026  0.1861  0.4254
  931MOL0     C22819   2.971   9.018   5.941 -0.6483  0.5268 -0.1999
  931MOL0     C22820   3.097   9.027   5.847  0.2774 -0.2920 -0.6450
  931MOL0     C22821   3.231   8.998   5.918 -0.0961  0.2172 -0.0630
  931MOL0     C22822   3.356   9.035   5.845  0.4220 -0.6758 -0.7096
  931MOL0     C22823   3.371   8.982   5.712 -0.1452 -0.4678 -0.2445
  931MOL0     C22824   3.367   8.914   5.613  0.5057  0.6130 -0.3508
  931MOL0     C22825   2.726   9.083   6.084  0.9194 -0.2275 -0.6278
  931MOL0     C22826   2.616   9.104   6.169 -0.5009  0.2925  1.1842
  931MOL0     H22827   2.541   9.425   6.691  0.5071 -0.5361 -1.5553
  931MOL0     H22828   2.352   9.532   6.824 -0.5804 -2.6015  0.7314
  931MOL0     H22829   1.952   9.448   6.734  3.1002 -0.9628 -2.9352
  931MOL0     H22830   1.953   9.592   6.634  3.2005 -1.7921 -2.1597
  931MOL0     H22831   1.910   9.739   6.810 -2.1257  0.1082  0.3152
  931MOL0     H22832   1.978   9.623   6.934  2.6368 -0.8023 -2.5046
  931MOL0     H22833   1.792   9.468   6.911 -1.5286 -0.2739 -1.1115
  931MOL0     H22834   1.735   9.570   6.777 -0.5622 -1.6550 -0.2623
  931MOL0     H22835   1.726   9.671   7.068 -1.4619  0.2483  1.2360
  931MOL0     H22836   1.708   9.769   6.918  1.4265  0.4176  0.9995
  931MOL0     H22837   1.543   9.522   6.949  0.4270  0.4758 -0.2903
  931MOL0     H22838   1.507   9.672   6.861  0.7059  0.3122 -0.1895
  931MOL0     H22839   1.477   9.794   7.072  3.9413  0.3749 -0.4945
  931MOL0     H22840   1.531   9.658   7.169  0.7005 -1.4425 -1.2456
  931MOL0     H22841   1.286   9.649   6.975 -2.9916  1.2762  1.0454
  931MOL0     H22842   1.338   9.536   7.106  0.3592  0.3665 -0.6947
  931MOL0     H22843   1.264   9.823   7.163  0.7016 -0.1071  0.8801
  931MOL0     H22844   1.272   9.682   7.272 -0.4673  1.2078  0.9991
  931MOL0     H22845   1.046   9.508   7.270  0.7571 -0.1390  0.0211
  931MOL0     H22846   0.728   9.488   7.038 -0.6004 -1.4777 -0.0419
  931MOL0     H22847   0.727   9.518   7.206  1.1170  0.7802  0.3096
  931MOL0     H22848   0.883   9.358   7.267 -1.0502  2.5960 -0.2696
  931MOL0     H22849   0.920   9.302   7.108  1.4342 -0.2853  1.7374
  931MOL0     H22850   0.728   9.210   7.071  2.0412  1.9927 -1.3541
  931MOL0     H22851   0.755   9.167   7.241 -1.5022 -1.9907 -1.3800
  931MOL0     H22852   0.531   9.381   7.148 -2.8969  1.0075  2.9535
  931MOL0     H22853   0.579   9.350   7.307 -0.2159  0.9063 -0.1782
  931MOL0     H22854   0.301   8.999   7.211 -1.1897 -0.1250  1.9272
  931MOL0     H22855   0.066   9.037   7.236 -1.3466  1.2909 -0.3182
  931MOL0     H22856  -0.301   9.012   7.145 -0.2958  1.9965 -1.4456
  931MOL0     H22857  -0.535   9.003   7.141  4.2135 -0.1730 -0.6407
  931MOL0     H22858  -0.730   8.993   7.330  0.8102  1.8132  0.9714
  931MOL0     H22859  -0.795   9.032   7.171 -3.5014 -1.0660  0.6531
  931MOL0     H22860  -0.993   9.033   7.285 -0.1190 -1.6419  1.9452
  931MOL0     H22861  -0.955   9.204   7.287  1.1141 -0.1461 -1.8834
  931MOL0     H22862  -0.868   9.164   7.527 -0.5270 -0.7600  0.6725
  931MOL0     H22863  -0.921   8.995   7.502 -0.2766  0.1729 -0.9718
  931MOL0     H22864  -1.074   9.163   7.627  2.2188  0.1275 -0.4910
  931MOL0     H22865  -1.091   9.268   7.487  0.3056  0.4599 -1.3106
  931MOL0     H22866  -1.189   8.987   7.530  2.1731 -0.7861 -2.7068
  931MOL0     H22867  -1.181   9.056   7.366 -1.4674 -0.0400 -1.1949
  931MOL0     H22868  -1.364   9.209   7.429  2.7099  0.5557 -1.1571
  931MOL0     H22869  -1.336   9.180   7.605  0.3023  0.7864  0.2569
  931MOL0     H22870  -1.414   8.965   7.400 -0.7303 -1.3691  0.4548
  931MOL0     H22871  -1.435   8.953   7.580  2.6339 -0.2688 -0.0361
  931MOL0     H22872  -1.585   9.122   7.392  1.5458  0.3977  0.2195
  931MOL0     H22873  -1.623   9.126   7.565  0.5792  0.1510  0.1308
  931MOL0     H22874  -0.529   9.345   7.438  0.6432 -0.0352  1.0342
  931MOL0     H22875  -0.290   9.325   7.415  1.8255 -0.1859 -0.7784
  931MOL0     H22876   0.146   9.447   7.340  0.6677  0.6977 -0.5333
  931MOL0     H22877   0.375   9.420   7.271 -1.0616  1.5681  0.0330
  931MOL0     H22878   2.085   9.454   6.498 -0.3182 -2.9162  0.4250
  931MOL0     H22879   2.252   9.348   6.380 -1.6795 -2.3817  2.0659
  931MOL0     H22880   2.766   9.319   6.384  1.7664 -1.6719  0.1813
  931MOL0     H22881   2.950   9.276   6.257  0.5293 -2.6689  2.0363
  931MOL0     H22882   2.884   9.033   5.876 -2.0562  0.3421  1.5875
  931MOL0     H22883   2.970   8.918   5.985 -0.7297  0.8494  0.5365
  931MOL0     H22884   3.077   8.961   5.762  1.1253 -0.2027 -0.9211
  931MOL0     H22885   3.099   9.128   5.804  0.8629 -0.3063 -0.6626
  931MOL0     H22886   3.237   8.891   5.938  1.1242  0.3021  0.0674
  931MOL0     H22887   3.228   9.050   6.015  3.0792  2.5451 -1.0565
  931MOL0     H22888   3.352   9.142   5.822 -1.4870 -0.8205 -1.2206
  931MOL0     H22889   3.439   9.013   5.913  0.2925  1.6906  0.3020
  931MOL0     H22890   3.356   8.843   5.533 -1.6872 -0.3004  0.6770
  931MOL0     H22891   2.710   9.019   5.998  0.3350 -0.8318 -0.0792
  931MOL0     H22892   2.525   9.048   6.147 -1.0387  2.4821 -3.3832
  932MOL0     O22893   1.813   8.236   0.789  0.2369 -0.2087  0.6362
  932MOL0     C22894   1.780   8.353   0.770  0.5133 -1.6886 -0.2079
  932MOL0     O22895   1.652   8.395   0.743  0.1796 -0.3168  0.1196
  932MOL0     C22896   1.551   8.306   0.755  0.8059 -0.9869  0.2382
  932MOL0     C22897   1.527   8.246   0.875 -0.7733  0.2046 -0.1316
  932MOL0     C22898   1.412   8.163   0.884 -0.7058  0.3019  0.1100
  932MOL0     C22899   1.321   8.140   0.774  0.0166  0.0011  0.7242
  932MOL0     O22900   1.203   8.067   0.776  0.4383 -0.2455 -0.3097
  932MOL0     C22901   1.138   8.068   0.903 -0.4035  0.1299  0.0182
  932MOL0     C22902   1.015   7.986   0.909 -0.0316 -0.0969 -0.2817
  932MOL0     C22903   1.024   7.826   0.895 -0.0930 -0.3802  0.5552
  932MOL0     C22904   0.880   7.763   0.902 -0.7457 -0.1993 -0.0353
  932MOL0     C22905   0.885   7.619   0.855 -0.2074 -0.1945 -0.6701
  932MOL0     C22906   0.740   7.558   0.860  0.8541  0.1645  0.2916
  932MOL0     C22907   0.729   7.410   0.816  0.1843  1.1055 -0.1301
  932MOL0     C22908   0.763   7.385   0.666  0.0843 -0.4285  0.4913
  932MOL0     N22909   0.675   7.457   0.573 -0.2008  0.5858 -0.4791
  932MOL0     C22910   0.554   7.413   0.540 -0.0449  0.5998 -0.1365
  932MOL0     C22911   0.512   7.493   0.436  0.2149  0.4973  0.0220
  932MOL0     C22912   0.400   7.488   0.338  0.3239 -0.4365 -0.0013
  932MOL0     C22913   0.274   7.419   0.401  0.1148  1.2965  0.2259
  932MOL0     C22914   0.212   7.503   0.509  0.0823 -0.1340 -0.3188
  932MOL0     C22915   0.078   7.457   0.552  0.5564 -0.5726  0.8382
  932MOL0     O22916   0.083   7.322   0.598 -0.3343 -0.2765  0.3833
  932MOL0     C22917  -0.041   7.273   0.644  0.5619 -0.7765 -0.5926
  932MOL0     C22918  -0.052   7.147   0.688 -0.5530 -0.8507  0.5928
  932MOL0     C22919  -0.171   7.094   0.737  0.1754 -0.4464  0.2054
  932MOL0     C22920  -0.289   7.168   0.744  0.1768  0.4319 -0.6146
  932MOL0     C22921  -0.417   7.116   0.806 -0.1306  0.2604  0.5841
  932MOL0     O22922  -0.528   7.145   0.735 -0.3816 -0.1548 -0.1796
  932MOL0     C22923  -0.659   7.153   0.780  0.7893  0.3276  0.5811
  932MOL0     C22924  -0.701   7.111   0.907 -0.5161 -0.0809  0.4236
  932MOL0     C22925  -0.836   7.141   0.943 -0.1563 -0.7709 -0.7633
  932MOL0     C22926  -0.928   7.205   0.858  0.6034 -0.5876 -0.7442
  932MOL0     O22927  -1.051   7.235   0.906  0.1696  0.3505 -0.0000
  932MOL0     C22928  -1.147   7.212   0.801  0.3396 -0.1816  0.1285
  932MOL0     C22929  -1.290   7.195   0.862 -0.0480  0.3837 -0.1410
  932MOL0     C22930  -1.389   7.179   0.745  0.9528  0.0054  0.5307
  932MOL0     C22931  -1.537   7.187   0.792  0.1260  0.3009 -0.7608
  932MOL0     C22932  -1.587   7.044   0.836  0.2053 -0.9482 -0.4517
  932MOL0     C22933  -1.739   7.062   0.871  0.3453  0.3941 -0.6795
  932MOL0     C22934  -1.816   6.918   0.874 -0.5318 -0.4744  0.3365
  932MOL0     C22935  -1.837   6.868   0.733 -0.4165  0.5692  0.1844
  932MOL0    Cl22936  -1.973   6.939   0.642 -0.4579 -0.4041 -0.3429
  932MOL0     C22937  -0.880   7.240   0.730  0.0004 -0.0209 -0.3432
  932MOL0     C22938  -0.748   7.217   0.690  0.1285  0.6678 -0.2530
  932MOL0     O22939  -0.418   7.047   0.903 -0.6862 -0.1482 -0.7197
  932MOL0     C22940  -0.279   7.299   0.700  1.3492  0.1473  0.0780
  932MOL0     C22941  -0.161   7.349   0.646  0.6001 -0.6943 -0.8946
  932MOL0     N22942   0.618   7.581   0.410 -0.5453 -0.1638 -0.4073
  932MOL0     N22943   0.716   7.553   0.488 -0.2157  0.1624 -0.2245
  932MOL0     C22944   1.349   8.205   0.655 -0.3759 -0.7048 -0.5807
  932MOL0     C22945   1.460   8.286   0.651 -0.0575  0.5693  0.0101
  932MOL0     C22946   1.896   8.448   0.785  0.1929 -0.0446 -0.2912
  932MOL0     C22947   2.026   8.398   0.793 -0.2873 -0.5683 -0.2497
  932MOL0     C22948   2.133   8.488   0.785  0.4267  0.3001  1.3020
  932MOL0     C22949   2.111   8.630   0.770 -0.5701 -0.4580  0.8017
  932MOL0     O22950   2.225   8.711   0.746 -0.5960  0.5168  0.9599
  932MOL0     C22951   2.213   8.847   0.721 -0.6891 -0.4291 -0.0560
  932MOL0     C22952   2.354   8.922   0.716 -0.3469  0.2080  0.2017
  932MOL0     C22953   2.407   8.923   0.862 -0.4730  0.3796 -0.5808
  932MOL0     C22954   2.523   8.825   0.891  0.0129  0.1356  0.4757
  932MOL0     C22955   2.644   8.868   0.809 -0.9946  1.0167  0.4218
  932MOL0     C22956   2.740   8.889   0.746  0.0620  0.0393 -0.0613
  932MOL0     C22957   1.985   8.676   0.750  0.1580  0.0111  0.3492
  932MOL0     C22958   1.879   8.589   0.767  0.0759  1.1652  0.0275
  932MOL0     H22959   1.600   8.251   0.955 -0.1378 -5.2580 -0.0350
  932MOL0     H22960   1.386   8.125   0.982  1.3510 -0.5692  0.3613
  932MOL0     H22961   1.109   8.167   0.938  0.1547  0.4088 -0.3078
  932MOL0     H22962   1.202   8.023   0.979 -1.6134 -0.1908  0.8821
  932MOL0     H22963   0.945   8.028   0.836 -0.8889 -1.0993 -0.0571
  932MOL0     H22964   0.970   8.013   1.004 -1.1268 -0.7425 -0.5998
  932MOL0     H22965   1.082   7.790   0.981 -0.4824  2.5336  2.1453
  932MOL0     H22966   1.064   7.798   0.797  0.2825 -0.8262  0.8320
  932MOL0     H22967   0.835   7.758   1.002 -0.8332  0.4847 -0.0335
  932MOL0     H22968   0.806   7.819   0.842 -0.0635  0.6774 -0.0811
  932MOL0     H22969   0.943   7.565   0.930 -3.4078 -0.2297  2.0171
  932MOL0     H22970   0.944   7.604   0.764 -0.3848 -1.6037 -0.5788
  932MOL0     H22971   0.679   7.620   0.793  1.8079  0.3153 -0.4639
  932MOL0     H22972   0.693   7.564   0.959  1.4778  1.0121  0.5447
  932MOL0     H22973   0.814   7.366   0.869  0.1659  1.9365  0.6040
  932MOL0     H22974   0.628   7.373   0.839  0.1714  0.5921 -0.9839
  932MOL0     H22975   0.760   7.276   0.654  2.1142 -0.6496  1.5824
  932MOL0     H22976   0.866   7.412   0.643  0.2265 -1.8894 -0.7762
  932MOL0     H22977   0.497   7.335   0.589  1.7231  0.0943  1.1944
  932MOL0     H22978   0.438   7.424   0.257 -1.0275 -1.2132 -0.0569
  932MOL0     H22979   0.378   7.589   0.303  0.2786 -0.5402 -0.2767
  932MOL0     H22980   0.304   7.321   0.438  0.0372  2.5002  3.8680
  932MOL0     H22981   0.204   7.393   0.321 -2.4820  0.5092  2.6010
  932MOL0     H22982   0.281   7.519   0.593 -0.7819  3.2379 -0.1133
  932MOL0     H22983   0.201   7.605   0.473  2.4049  1.5444  3.1659
  932MOL0     H22984   0.008   7.461   0.468 -1.3543 -0.2331  2.3715
  932MOL0     H22985   0.040   7.518   0.634 -0.5629  2.2532 -1.6154
  932MOL0     H22986   0.034   7.081   0.696 -1.8567 -2.6530  0.2939
  932MOL0     H22987  -0.179   6.997   0.786  0.6725 -0.3442  0.4980
  932MOL0     H22988  -0.634   7.053   0.969  0.1596 -1.2919 -1.3585
  932MOL0     H22989  -0.864   7.087   1.033  0.1360 -1.1066 -0.8746
  932MOL0     H22990  -1.118   7.124   0.743 -2.8923 -0.9270 -0.5549
  932MOL0     H22991  -1.148   7.294   0.728  1.8694  1.0688  1.4258
  932MOL0     H22992  -1.316   7.280   0.926 -1.5776 -1.9349  2.5341
  932MOL0     H22993  -1.293   7.100   0.917 -0.5265 -1.0226 -2.4783
  932MOL0     H22994  -1.376   7.086   0.689  2.1314 -0.5568  1.7033
  932MOL0     H22995  -1.369   7.254   0.668 -0.3521  0.2910  0.4352
  932MOL0     H22996  -1.539   7.254   0.878  1.4362  1.6133 -1.7132
  932MOL0     H22997  -1.608   7.225   0.717 -1.1909 -1.1991 -0.3519
  932MOL0     H22998  -1.537   7.020   0.930  0.9430  0.2974 -0.5017
  932MOL0     H22999  -1.568   6.976   0.752  0.3551 -0.5391 -0.7528
  932MOL0     H23000  -1.787   7.126   0.796  1.3885  2.5447  0.3887
  932MOL0     H23001  -1.758   7.108   0.969 -1.1308 -2.0431  0.2859
  932MOL0     H23002  -1.747   6.854   0.931  0.0533 -1.8235 -1.7825
  932MOL0     H23003  -1.917   6.925   0.916 -1.6294  1.2497 -2.2888
  932MOL0     H23004  -1.854   6.763   0.757  0.3737  0.6499  1.1557
  932MOL0     H23005  -1.743   6.876   0.678 -0.9433 -2.2244 -1.2921
  932MOL0     H23006  -0.944   7.293   0.660 -2.1665 -2.9884 -0.7927
  932MOL0     H23007  -0.709   7.246   0.592  0.4856 -0.8749 -0.5874
  932MOL0     H23008  -0.364   7.365   0.708 -0.0666 -1.7415  1.5380
  932MOL0     H23009  -0.175   7.450   0.610 -0.9549 -1.0946 -1.5322
  932MOL0     H23010   1.270   8.194   0.581 -1.6855  0.4350  0.5982
  932MOL0     H23011   1.463   8.351   0.564  0.4432  0.4943 -0.0306
  932MOL0     H23012   2.050   8.292   0.797  1.5015 -0.2153 -0.7008
  932MOL0     H23013   2.238   8.462   0.777  1.3251  3.7224 -0.0683
  932MOL0     H23014   2.151   8.901   0.793 -0.9665 -2.9615  1.7618
  932MOL0     H23015   2.166   8.854   0.623  0.6348 -1.2642 -0.7777
  932MOL0     H23016   2.419   8.869   0.645 -0.9571  0.2205 -0.3769
  932MOL0     H23017   2.335   9.024   0.683 -1.7873 -0.8487 -2.5376
  932MOL0     H23018   2.333   8.904   0.941  2.2404 -1.7050  1.6290
  932MOL0     H23019   2.448   9.024   0.874  3.6724 -1.1039 -0.9468
  932MOL0     H23020   2.546   8.824   0.998 -2.2214  2.4466  1.0677
  932MOL0     H23021   2.492   8.722   0.869  0.8974  0.4995 -3.1029
  932MOL0     H23022   2.817   8.919   0.679 -0.0690 -1.6132 -1.0020
  932MOL0     H23023   1.951   8.777   0.731 -1.6521 -0.5352  0.4412
  932MOL0     H23024   1.778   8.623   0.747  0.8536  2.2047 -2.5918
  933MOL0     O23025  10.839   0.500   6.489 -0.7751  0.6083 -0.5025
  933MOL0     C23026  10.872   0.554   6.595 -0.6095  0.3269 -0.1586
  933MOL0     O23027  10.790   0.597   6.700 -0.7286 -0.6148 -0.2675
  933MOL0     C23028  10.669   0.536   6.695  0.5279  0.1127 -0.0483
  933MOL0     C23029  10.643   0.434   6.789  0.2122  0.2490  0.0058
  933MOL0     C23030  10.524   0.377   6.788  0.2188 -0.4544  0.0833
  933MOL0     C23031  10.416   0.419   6.719  0.4959  0.4855  0.1527
  933MOL0     O23032  10.293   0.365   6.722  0.3790  0.3293  0.0380
  933MOL0     C23033  10.246   0.304   6.846 -0.2558 -0.4220  0.7395
  933MOL0     C23034  10.100   0.258   6.813 -0.1321  0.5325  0.7068
  933MOL0     C23035  10.010   0.358   6.738  0.4532  0.4935  0.5841
  933MOL0     C23036  10.041   0.352   6.587 -0.0911 -0.1059 -0.0813
  933MOL0     C23037   9.931   0.420   6.498  0.2226 -0.0320  0.2338
  933MOL0     C23038   9.865   0.322   6.413  0.2431 -0.3296 -0.1734
  933MOL0     C23039   9.795   0.398   6.303  0.0867  0.4905 -0.0241
  933MOL0     C23040   9.680   0.493   6.347 -0.4077  0.0447  0.3152
  933MOL0     N23041   9.571   0.430   6.425 -0.4639  0.1714  0.0402
  933MOL0     C23042   9.466   0.352   6.378  0.7169 -0.7950  0.1544
  933MOL0     C23043   9.367   0.360   6.470  0.2468  1.0342 -0.3102
  933MOL0     C23044   9.231   0.304   6.458  0.0527  0.2058  0.5221
  933MOL0     C23045   9.154   0.364   6.342  0.3574  0.2599  1.2381
  933MOL0     C23046   9.081   0.496   6.392 -0.5133  0.9410  0.1578
  933MOL0     C23047   8.941   0.476   6.459 -0.9743  0.4564  0.2368
  933MOL0     O23048   8.844   0.399   6.373  0.4275 -0.9541  0.1865
  933MOL0     C23049   8.709   0.415   6.409  0.4776 -0.1754  0.5228
  933MOL0     C23050   8.668   0.439   6.535  0.7466 -0.0915  0.0227
  933MOL0     C23051   8.528   0.460   6.561  0.3790  0.1650 -0.1263
  933MOL0     C23052   8.435   0.444   6.456  0.1128  0.3838 -0.2998
  933MOL0     C23053   8.286   0.473   6.474  0.2957  0.3067  0.3489
  933MOL0     O23054   8.242   0.509   6.598 -0.1686  0.2792 -0.6598
  933MOL0     C23055   8.107   0.517   6.626  0.5685 -0.5014  0.0677
  933MOL0     C23056   8.026   0.620   6.569  0.3488 -0.1011 -0.6370
  933MOL0     C23057   7.887   0.626   6.584  0.1717  0.0702 -0.0085
  933MOL0     C23058   7.833   0.532   6.676  0.8337  0.7454  0.7022
  933MOL0     O23059   7.699   0.511   6.695  0.6347 -0.2056 -0.5748
  933MOL0     C23060   7.607   0.561   6.600 -0.1606  0.1170 -0.4435
  933MOL0     C23061   7.469   0.520   6.645 -0.2185  0.5249  0.9611
  933MOL0     C23062   7.358   0.536   6.538  0.4194 -0.2198 -0.0823
  933MOL0     C23063   7.223   0.485   6.597  0.4772  0.1504  0.4559
  933MOL0     C23064   7.116   0.514   6.490 -0.5350  0.2089  0.8275
  933MOL0     C23065   6.978   0.462   6.538 -1.0439 -0.5799 -0.5529
  933MOL0     C23066   6.895   0.572   6.603 -0.4643 -0.4386 -0.1330
  933MOL0     C23067   6.755   0.534   6.646  0.5192  0.0436  0.0200
  933MOL0    Cl23068   6.661   0.465   6.510 -0.3612 -0.0837 -0.1546
  933MOL0     C23069   7.915   0.449   6.752 -0.1482 -0.0770  0.0515
  933MOL0     C23070   8.049   0.434   6.723 -0.7068  0.0676  0.2279
  933MOL0     O23071   8.215   0.486   6.371  0.1567  0.4140  0.1134
  933MOL0     C23072   8.484   0.412   6.334 -0.2546  0.6921  0.7812
  933MOL0     C23073   8.613   0.389   6.311  0.7567  0.6343 -0.6669
  933MOL0     N23074   9.418   0.429   6.582  0.7599  0.3752  0.6942
  933MOL0     N23075   9.538   0.472   6.550 -0.1723  0.2409 -0.1431
  933MOL0     C23076  10.440   0.506   6.618  0.3676 -0.6556  0.5205
  933MOL0     C23077  10.567   0.565   6.598  0.0216  0.3762 -0.2104
  933MOL0     C23078  11.017   0.576   6.616 -0.6242 -0.2076  0.1207
  933MOL0     C23079  11.075   0.671   6.710  0.1297  0.3734 -0.7104
  933MOL0     C23080  11.209   0.682   6.727 -0.5680 -0.0628  0.3874
  933MOL0     C23081  11.298   0.604   6.643  0.8240  0.1342  1.1862
  933MOL0     O23082  11.436   0.608   6.639  0.6453 -0.0885 -0.2275
  933MOL0     C23083  11.499   0.691   6.739 -0.4928  1.0215  0.3553
  933MOL0     C23084  11.642   0.695   6.695  0.9188  0.3052  0.1059
  933MOL0     C23085  11.678   0.722   6.551  0.6450  1.0400 -0.5863
  933MOL0     C23086  11.823   0.738   6.518 -0.6218 -0.3096  0.0828
  933MOL0     C23087  11.830   0.753   6.370  0.2046  1.3070 -0.9731
  933MOL0     C23088  11.822   0.753   6.249 -0.8218  0.4314 -0.1359
  933MOL0     C23089  11.236   0.515   6.552 -0.6248 -0.1941  0.7236
  933MOL0     C23090  11.102   0.496   6.539  0.7294  0.9563 -0.2374
  933MOL0     H23091  10.724   0.403   6.855  2.9121  1.6140 -2.4044
  933MOL0     H23092  10.509   0.295   6.857 -3.5874  0.3288  0.4095
  933MOL0     H23093  10.248   0.384   6.920 -3.0613  0.8806 -0.4775
  933MOL0     H23094  10.307   0.219   6.879 -0.7573  0.2569  3.7234
  933MOL0     H23095  10.048   0.228   6.904 -3.0678 -1.2102 -1.3931
  933MOL0     H23096  10.097   0.162   6.761  2.8056  1.0422 -0.6496
  933MOL0     H23097  10.021   0.460   6.776 -0.6505  0.0626  2.1328
  933MOL0     H23098   9.904   0.338   6.755  0.5318 -1.7224 -1.0389
  933MOL0     H23099  10.130   0.412   6.565 -1.0958  1.0122 -1.2417
  933MOL0     H23100  10.051   0.247   6.560 -0.2166  0.2532 -1.6091
  933MOL0     H23101   9.982   0.492   6.432  0.2026  0.4884  0.7764
  933MOL0     H23102   9.864   0.473   6.566 -0.9745 -2.2413  0.8522
  933MOL0     H23103   9.796   0.265   6.477 -0.3508 -1.6871 -1.9484
  933MOL0     H23104   9.925   0.241   6.371 -0.9109 -1.2431 -0.1153
  933MOL0     H23105   9.868   0.443   6.236  0.3296 -1.3082 -1.0416
  933MOL0     H23106   9.758   0.315   6.241 -1.4227 -0.8414  2.4692
  933MOL0     H23107   9.632   0.538   6.260 -1.6339  0.8619  1.3679
  933MOL0     H23108   9.730   0.564   6.414 -1.0330  1.5092 -0.7265
  933MOL0     H23109   9.468   0.309   6.278  2.4146  1.0103 -0.6611
  933MOL0     H23110   9.181   0.312   6.554  2.8305 -2.3359  2.3653
  933MOL0     H23111   9.245   0.198   6.436  1.9682  0.9216 -2.5003
  933MOL0     H23112   9.081   0.293   6.301  0.5442  0.1300  1.1261
  933MOL0     H23113   9.210   0.405   6.257 -1.8805 -1.5694 -1.3357
  933MOL0     H23114   9.151   0.553   6.454  1.5493 -0.6198 -0.6437
  933MOL0     H23115   9.057   0.551   6.300  1.5257  2.2605  0.3560
  933MOL0     H23116   8.900   0.570   6.494 -1.8374  0.3858 -0.5268
  933MOL0     H23117   8.966   0.420   6.549  2.4152  2.5759  0.7731
  933MOL0     H23118   8.734   0.444   6.622  1.0870  1.8902 -0.3110
  933MOL0     H23119   8.495   0.499   6.656  1.8624  0.3520  0.3488
  933MOL0     H23120   8.070   0.690   6.498 -3.6854  2.7189 -0.7524
  933MOL0     H23121   7.824   0.698   6.531  0.7597 -0.1736 -1.0625
  933MOL0     H23122   7.622   0.519   6.500 -3.1400  0.2013 -1.0226
  933MOL0     H23123   7.612   0.670   6.599  2.0971  0.1221  1.4434
  933MOL0     H23124   7.443   0.563   6.742 -2.5520  0.8842  0.2275
  933MOL0     H23125   7.475   0.411   6.657  0.2835 -0.1048 -3.2343
  933MOL0     H23126   7.381   0.481   6.447  0.8374  1.4703 -1.0362
  933MOL0     H23127   7.349   0.641   6.508 -2.4808  0.6137  3.0710
  933MOL0     H23128   7.233   0.377   6.609  0.4341  0.0197 -0.6331
  933MOL0     H23129   7.198   0.535   6.691 -0.1034 -0.2004  0.4947
  933MOL0     H23130   7.153   0.468   6.398  0.1699  1.3477  0.5177
  933MOL0     H23131   7.113   0.618   6.456 -1.3715 -0.5613 -1.6936
  933MOL0     H23132   6.993   0.374   6.602  2.9614  0.5595  0.3429
  933MOL0     H23133   6.922   0.429   6.450 -1.4402  1.4951 -1.1161
  933MOL0     H23134   6.954   0.623   6.679 -0.4412  0.3828 -0.6870
  933MOL0     H23135   6.876   0.644   6.523  1.8615 -0.0651 -0.4276
  933MOL0     H23136   6.696   0.616   6.689 -0.4002 -1.0197  0.8499
  933MOL0     H23137   6.764   0.449   6.715  0.4670  0.5354  0.6411
  933MOL0     H23138   7.872   0.376   6.820 -1.5393 -1.3189 -2.0557
  933MOL0     H23139   8.114   0.371   6.783  1.9377  1.5277 -0.9262
  933MOL0     H23140   8.418   0.404   6.248  1.7096 -1.0146 -0.6422
  933MOL0     H23141   8.640   0.356   6.211  0.5609 -2.0238  0.0628
  933MOL0     H23142  10.360   0.527   6.548  0.4607  0.0590  0.6186
  933MOL0     H23143  10.579   0.626   6.509  1.9618 -1.5348 -1.3553
  933MOL0     H23144  11.008   0.718   6.780 -0.3033 -0.6243 -0.4324
  933MOL0     H23145  11.247   0.740   6.811  1.5571 -2.4109  1.1532
  933MOL0     H23146  11.502   0.640   6.835  3.1341 -1.9509 -1.1022
  933MOL0     H23147  11.457   0.792   6.730 -4.6230 -0.6767 -4.7540
  933MOL0     H23148  11.692   0.763   6.765  2.1891 -0.9807  0.5002
  933MOL0     H23149  11.694   0.603   6.723 -1.2386 -0.5998  1.3192
  933MOL0     H23150  11.617   0.808   6.521  2.4702  1.6847 -2.7455
  933MOL0     H23151  11.643   0.637   6.491 -1.4728  1.1113  0.4622
  933MOL0     H23152  11.861   0.831   6.561 -1.2504 -0.1980  0.4080
  933MOL0     H23153  11.883   0.652   6.550 -0.0733  0.6559  1.7636
  933MOL0     H23154  11.817   0.743   6.142  2.9321  1.2323 -0.5288
  933MOL0     H23155  11.304   0.458   6.489 -2.2457  1.1731 -2.5035
  933MOL0     H23156  11.079   0.415   6.471  1.2852  1.6425 -1.2772
  934MOL0     O23157   0.034   2.443   8.304  0.4178  0.2460 -0.4037
  934MOL0     C23158   0.111   2.532   8.274  0.1971  0.0133 -0.4588
  934MOL0     O23159   0.069   2.641   8.205  0.2526 -0.2907  0.1082
  934MOL0     C23160  -0.049   2.645   8.146 -0.5413  0.4877 -0.1450
  934MOL0     C23161  -0.145   2.752   8.178 -0.2759  0.2081  0.1498
  934MOL0     C23162  -0.260   2.761   8.096 -0.4501 -0.9668 -0.0119
  934MOL0     C23163  -0.297   2.669   8.000  0.2226 -0.0981 -0.7847
  934MOL0     O23164  -0.425   2.686   7.946 -0.3106  0.7869  0.4568
  934MOL0     C23165  -0.464   2.567   7.879  0.6190 -0.4835  0.2967
  934MOL0     C23166  -0.596   2.588   7.806  0.0314  0.6321  0.7949
  934MOL0     C23167  -0.707   2.603   7.909 -0.0867 -0.0220  0.0759
  934MOL0     C23168  -0.837   2.652   7.863 -0.5954 -0.1128 -0.4952
  934MOL0     C23169  -0.944   2.662   7.971 -0.3254  0.1921  0.2655
  934MOL0     C23170  -1.073   2.681   7.910 -0.5932 -0.9720 -0.6430
  934MOL0     C23171  -1.178   2.739   8.013  0.8145  0.1752  0.0998
  934MOL0     C23172  -1.315   2.769   7.948  0.5570 -0.2934 -0.0933
  934MOL0     N23173  -1.418   2.807   8.050 -0.2008 -0.3499 -0.4701
  934MOL0     C23174  -1.513   2.725   8.111 -0.0832 -0.0132  0.9162
  934MOL0     C23175  -1.543   2.790   8.225 -0.6517 -0.9588  0.8894
  934MOL0     C23176  -1.621   2.729   8.336 -0.5645 -0.2479  0.0516
  934MOL0     C23177  -1.770   2.720   8.306 -0.1404 -0.0271  0.0738
  934MOL0     C23178  -1.821   2.580   8.272 -0.0634 -0.7401 -0.2139
  934MOL0     C23179  -1.967   2.567   8.313  0.1078  0.0835  0.5626
  934MOL0     O23180  -2.045   2.666   8.246 -0.1186  0.1153  0.5932
  934MOL0     C23181  -2.181   2.672   8.266  0.5845  0.2582 -0.2684
  934MOL0     C23182  -2.255   2.599   8.363 -0.0150 -0.1298  0.0673
  934MOL0     C23183  -2.390   2.611   8.381  0.0084 -0.0004  0.0042
  934MOL0     C23184  -2.466   2.690   8.295  0.6348  0.4665 -0.1599
  934MOL0     C23185  -2.616   2.683   8.297 -0.1537  0.1401 -0.0475
  934MOL0     O23186  -2.687   2.738   8.195 -0.2561  0.2745  0.0783
  934MOL0     C23187  -2.823   2.723   8.190 -0.7939 -0.2029 -1.1064
  934MOL0     C23188  -2.883   2.619   8.128  0.4396 -0.1097 -0.2688
  934MOL0     C23189  -3.021   2.604   8.119 -0.3871 -0.2978 -0.1601
  934MOL0     C23190  -3.101   2.699   8.185 -1.1602 -0.4555 -0.9552
  934MOL0     O23191  -3.234   2.686   8.174  0.4918  0.4204 -0.0567
  934MOL0     C23192  -3.333   2.759   8.251  0.0646 -0.7805 -0.6518
  934MOL0     C23193  -3.451   2.671   8.276 -0.3828 -0.3402 -0.5474
  934MOL0     C23194  -3.569   2.697   8.180 -0.2214 -0.6208  0.7269
  934MOL0     C23195  -3.688   2.602   8.183 -0.5089 -0.6144  1.3207
  934MOL0     C23196  -3.800   2.659   8.088  0.0972 -0.0567  1.3126
  934MOL0     C23197  -3.894   2.542   8.042 -0.8747  0.1800 -0.1822
  934MOL0     C23198  -4.012   2.611   7.980  0.7284 -0.0081  0.1541
  934MOL0     C23199  -4.101   2.515   7.898  0.5187 -0.8011  0.3003
  934MOL0    Cl23200  -4.238   2.609   7.844 -0.2716  0.5629 -0.1638
  934MOL0     C23201  -3.037   2.804   8.247  0.3307  0.6714  0.2886
  934MOL0     C23202  -2.900   2.814   8.259 -0.3355 -0.0647  0.1691
  934MOL0     O23203  -2.663   2.611   8.384  0.2449  0.4081  0.1513
  934MOL0     C23204  -2.394   2.761   8.201  0.2639  0.0967 -0.0059
  934MOL0     C23205  -2.256   2.764   8.182  0.5449  0.9247  0.0674
  934MOL0     N23206  -1.491   2.915   8.225  1.2081  0.2788  0.4057
  934MOL0     N23207  -1.406   2.924   8.122  0.1858  0.7369 -0.5404
  934MOL0     C23208  -0.199   2.560   7.967  0.4863 -0.4399  0.4119
  934MOL0     C23209  -0.084   2.553   8.046 -0.2748 -0.2474  0.5298
  934MOL0     C23210   0.257   2.527   8.316  0.6257  0.0438 -0.2550
  934MOL0     C23211   0.342   2.635   8.275  0.0388  0.0512 -0.1994
  934MOL0     C23212   0.479   2.634   8.294 -0.8079  0.7095  0.7067
  934MOL0     C23213   0.538   2.525   8.364 -0.4920 -0.5333  0.3980
  934MOL0     O23214   0.672   2.513   8.382 -1.4102 -0.3233  0.3430
  934MOL0     C23215   0.756   2.557   8.271 -0.6728  0.0603  1.1483
  934MOL0     C23216   0.902   2.551   8.303 -0.9154  0.1132 -0.4689
  934MOL0     C23217   0.972   2.413   8.305  0.0923 -0.5499 -0.4406
  934MOL0     C23218   1.124   2.420   8.296 -0.2577 -0.4409 -0.6057
  934MOL0     C23219   1.177   2.506   8.406  0.8731  0.6210 -0.5286
  934MOL0     C23220   1.208   2.565   8.506  0.5335 -0.1873 -0.2186
  934MOL0     C23221   0.454   2.425   8.427  0.3464 -0.9757  0.0851
  934MOL0     C23222   0.312   2.431   8.401 -0.0269  0.6482  0.0152
  934MOL0     H23223  -0.132   2.820   8.262  1.9308  1.5070 -1.1447
  934MOL0     H23224  -0.335   2.836   8.120  0.5705 -0.1817  0.9165
  934MOL0     H23225  -0.469   2.480   7.945  3.0845 -1.2978 -0.4989
  934MOL0     H23226  -0.382   2.541   7.811  2.6951 -3.9261  3.7086
  934MOL0     H23227  -0.611   2.505   7.737 -0.9915 -0.4782  2.2862
  934MOL0     H23228  -0.586   2.679   7.746  3.1047  0.1577  0.4441
  934MOL0     H23229  -0.679   2.673   7.989 -0.7421  0.5053 -0.1498
  934MOL0     H23230  -0.716   2.501   7.947  0.0577  0.5765  1.8089
  934MOL0     H23231  -0.839   2.755   7.827 -3.7979  1.0419  2.4395
  934MOL0     H23232  -0.871   2.588   7.781 -2.5479  1.7042 -1.1998
  934MOL0     H23233  -0.920   2.753   8.027 -1.0010 -1.4481  3.4100
  934MOL0     H23234  -0.935   2.567   8.024 -1.0446 -1.1286 -1.8461
  934MOL0     H23235  -1.101   2.588   7.860  0.5969 -1.1212 -1.0396
  934MOL0     H23236  -1.058   2.752   7.829 -0.2342 -0.4524 -0.1286
  934MOL0     H23237  -1.202   2.660   8.085 -1.5388  2.8572  2.5089
  934MOL0     H23238  -1.130   2.819   8.071  2.6263 -1.4279  0.9315
  934MOL0     H23239  -1.344   2.690   7.879 -1.2136  3.4063 -4.0428
  934MOL0     H23240  -1.307   2.858   7.884 -1.5923  0.2782  0.3503
  934MOL0     H23241  -1.543   2.623   8.085  2.3183 -0.5563 -0.0295
  934MOL0     H23242  -1.611   2.799   8.419  1.3310 -0.0618 -0.2958
  934MOL0     H23243  -1.576   2.634   8.368  1.5036  0.3521 -0.9148
  934MOL0     H23244  -1.800   2.780   8.220 -2.1595  1.4306  1.6945
  934MOL0     H23245  -1.813   2.768   8.394  3.7283  2.5537  0.8312
  934MOL0     H23246  -1.817   2.562   8.164 -1.2398 -1.2079 -0.1971
  934MOL0     H23247  -1.760   2.512   8.332  1.7635 -0.2227 -1.3940
  934MOL0     H23248  -1.977   2.572   8.422  1.5853  0.8764  0.6911
  934MOL0     H23249  -2.008   2.471   8.281  3.4228 -0.5395 -2.3209
  934MOL0     H23250  -2.199   2.536   8.431  1.8162  1.6779  0.3195
  934MOL0     H23251  -2.442   2.554   8.458 -0.6452  0.9329  0.2885
  934MOL0     H23252  -2.828   2.542   8.075  0.3428 -0.2673 -0.1444
  934MOL0     H23253  -3.064   2.512   8.080 -0.5974 -0.0655 -0.4884
  934MOL0     H23254  -3.355   2.851   8.197 -1.6399 -0.9004 -0.2100
  934MOL0     H23255  -3.289   2.785   8.348  0.6925 -3.1037 -0.2403
  934MOL0     H23256  -3.472   2.702   8.379  0.3399 -0.3827 -0.3866
  934MOL0     H23257  -3.422   2.566   8.276 -1.2374 -0.6587  2.0761
  934MOL0     H23258  -3.530   2.713   8.079  0.6396 -0.6580  1.0437
  934MOL0     H23259  -3.604   2.798   8.202 -0.2158  0.0212 -1.9001
  934MOL0     H23260  -3.651   2.501   8.163  0.8822 -0.3164  2.2514
  934MOL0     H23261  -3.739   2.607   8.279 -2.5103  0.7402  0.2535
  934MOL0     H23262  -3.767   2.732   8.014 -3.8018  0.9313  0.3510
  934MOL0     H23263  -3.864   2.726   8.145 -2.1169  1.3813 -2.5398
  934MOL0     H23264  -3.931   2.472   8.117 -0.2572 -1.3900 -1.3121
  934MOL0     H23265  -3.833   2.483   7.974  0.0755 -0.4119  1.1355
  934MOL0     H23266  -4.070   2.659   8.059 -2.0041 -2.4021 -0.2075
  934MOL0     H23267  -3.992   2.689   7.906 -1.9788 -0.4080 -1.0917
  934MOL0     H23268  -4.127   2.430   7.962  1.4236 -0.3665  1.2742
  934MOL0     H23269  -4.049   2.467   7.814 -2.2989  0.8530 -2.5919
  934MOL0     H23270  -3.091   2.888   8.290  0.1718 -0.2091  1.8984
  934MOL0     H23271  -2.859   2.904   8.303 -1.8324  1.6590 -1.7603
  934MOL0     H23272  -2.440   2.832   8.133  1.3819  0.1067 -0.7845
  934MOL0     H23273  -2.234   2.828   8.097  0.9150 -1.3004 -1.5946
  934MOL0     H23274  -0.210   2.501   7.877  0.8755  2.3374 -1.5721
  934MOL0     H23275  -0.002   2.486   8.025 -0.8388 -1.0168  0.7289
  934MOL0     H23276   0.301   2.711   8.210 -1.3411 -1.4070 -1.1116
  934MOL0     H23277   0.531   2.720   8.251 -1.7850  0.8417 -0.2444
  934MOL0     H23278   0.737   2.662   8.247 -0.0610  0.6874  3.1670
  934MOL0     H23279   0.744   2.495   8.182  0.5436 -0.8821  1.6219
  934MOL0     H23280   0.959   2.609   8.230  0.5134 -0.8444 -0.1562
  934MOL0     H23281   0.908   2.606   8.397 -0.5209  1.9447 -1.5053
  934MOL0     H23282   0.952   2.350   8.218 -2.6305 -1.0412  0.4538
  934MOL0     H23283   0.937   2.348   8.385 -0.3588 -2.4915 -2.1347
  934MOL0     H23284   1.165   2.318   8.301 -2.3280 -1.3282  4.3835
  934MOL0     H23285   1.156   2.467   8.203 -0.4878 -2.7779 -1.9545
  934MOL0     H23286   1.219   2.615   8.600 -3.2218  1.3686 -0.4383
  934MOL0     H23287   0.488   2.351   8.498 -0.4305  0.9163  2.5980
  934MOL0     H23288   0.252   2.360   8.457 -0.2286  0.4602 -0.4387
  935MOL0     O23289  10.443   3.088   1.580  0.5703  0.9229 -0.5921
  935MOL0     C23290  10.511   3.030   1.661 -0.0819  0.0479 -0.3154
  935MOL0     O23291  10.479   2.927   1.731  0.1380 -0.0593 -0.0862
  935MOL0     C23292  10.344   2.901   1.752  0.0926  0.3025  0.1114
  935MOL0     C23293  10.253   2.861   1.653  0.3648  0.9629 -0.1501
  935MOL0     C23294  10.118   2.820   1.687  0.4586  0.3286 -0.5515
  935MOL0     C23295  10.074   2.823   1.824 -0.6054 -0.1180  0.4516
  935MOL0     O23296   9.951   2.765   1.859 -0.1910 -0.4314 -0.0250
  935MOL0     C23297   9.843   2.772   1.769 -0.9402 -0.6708 -0.1709
  935MOL0     C23298   9.712   2.732   1.839 -0.2288  0.3306  0.3640
  935MOL0     C23299   9.703   2.574   1.849 -0.5495  0.1535 -1.0534
  935MOL0     C23300   9.566   2.543   1.922 -0.0797 -0.0749  0.1628
  935MOL0     C23301   9.528   2.394   1.945 -0.5102 -1.0318 -0.2755
  935MOL0     C23302   9.444   2.386   2.078  0.6650  0.1143  0.0465
  935MOL0     C23303   9.331   2.486   2.092 -0.0041  0.6242  0.7153
  935MOL0     C23304   9.254   2.474   2.225 -0.7693  0.0175  0.3727
  935MOL0     N23305   9.154   2.371   2.219 -0.5197  0.2383 -0.0504
  935MOL0     C23306   9.151   2.249   2.293  0.3768 -0.3330 -0.0143
  935MOL0     C23307   9.040   2.186   2.265  0.1197 -0.5444 -0.0485
  935MOL0     C23308   9.012   2.045   2.305  0.0152 -0.0632  0.2974
  935MOL0     C23309   8.873   2.002   2.267 -0.0127  0.7438  0.4863
  935MOL0     C23310   8.849   1.856   2.311  0.0697 -0.4878 -0.3427
  935MOL0     C23311   8.709   1.803   2.345 -0.9442  0.2183  0.5091
  935MOL0     O23312   8.614   1.852   2.252  0.5156  0.3697 -0.0033
  935MOL0     C23313   8.487   1.794   2.262 -0.2727  0.6088  0.2447
  935MOL0     C23314   8.443   1.705   2.360 -0.0880  0.2886 -0.2847
  935MOL0     C23315   8.318   1.652   2.349 -0.0864  0.5340  0.0466
  935MOL0     C23316   8.226   1.685   2.243 -0.5317  0.2181 -0.0177
  935MOL0     C23317   8.094   1.634   2.236 -0.3772  0.7802 -0.9182
  935MOL0     O23318   7.999   1.721   2.203 -0.2078 -0.1682  0.3406
  935MOL0     C23319   7.867   1.688   2.205  0.7298  0.0791 -0.4315
  935MOL0     C23320   7.805   1.669   2.325 -0.6248  0.3430  0.1034
  935MOL0     C23321   7.667   1.666   2.340  0.3127  0.6488  0.6928
  935MOL0     C23322   7.585   1.675   2.223  0.4955 -0.5105 -0.3890
  935MOL0     O23323   7.447   1.670   2.228 -0.3786  0.4233  0.2802
  935MOL0     C23324   7.395   1.771   2.315  0.4988  1.2634 -0.2658
  935MOL0     C23325   7.321   1.708   2.432  0.4523  0.3739  0.2756
  935MOL0     C23326   7.177   1.668   2.403  0.6367  0.0552  0.0219
  935MOL0     C23327   7.114   1.578   2.505 -0.0296 -0.1815 -0.0913
  935MOL0     C23328   7.129   1.425   2.470  0.9186 -1.4176  0.3214
  935MOL0     C23329   7.061   1.328   2.575  0.3096  0.4150  0.2021
  935MOL0     C23330   7.067   1.178   2.537  0.6734 -0.3069 -0.2753
  935MOL0     C23331   6.937   1.105   2.566 -0.4467 -0.1577 -0.2874
  935MOL0    Cl23332   6.800   1.163   2.464  0.1646  0.6255 -0.1502
  935MOL0     C23333   7.646   1.681   2.100  0.0232  0.4042  0.7462
  935MOL0     C23334   7.786   1.685   2.093 -0.0048  0.1173  0.0579
  935MOL0     O23335   8.071   1.512   2.269 -0.2155 -0.1995 -0.7711
  935MOL0     C23336   8.278   1.768   2.144 -0.3243 -0.2516 -0.9779
  935MOL0     C23337   8.397   1.831   2.161 -0.2204  0.8242  0.3832
  935MOL0     N23338   8.971   2.267   2.175  0.4485 -0.9120 -0.0300
  935MOL0     N23339   9.036   2.387   2.162  0.8380 -0.6052 -0.0847
  935MOL0     C23340  10.169   2.872   1.916  0.3092 -0.7524 -0.1700
  935MOL0     C23341  10.299   2.907   1.878 -0.6614 -0.1025 -0.7791
  935MOL0     C23342  10.655   3.066   1.674 -0.2490 -0.1183 -0.9977
  935MOL0     C23343  10.717   3.153   1.580 -0.5190 -0.3094 -0.4903
  935MOL0     C23344  10.846   3.201   1.596 -1.3404  0.0183  0.1727
  935MOL0     C23345  10.921   3.154   1.707  1.1811  0.4720 -0.1411
  935MOL0     O23346  11.044   3.208   1.734  0.0529  0.3326  0.1911
  935MOL0     C23347  11.138   3.192   1.633 -0.7866 -1.3365 -0.6599
  935MOL0     C23348  11.271   3.168   1.707  0.1072 -0.0936 -0.2620
  935MOL0     C23349  11.373   3.114   1.615 -0.1437 -0.0470  0.1518
  935MOL0     C23350  11.510   3.099   1.682 -0.2747  0.3950 -0.6105
  935MOL0     C23351  11.596   3.011   1.602 -0.7072  0.0555 -0.3106
  935MOL0     C23352  11.660   2.940   1.521  0.1324 -0.0612 -1.0356
  935MOL0     C23353  10.874   3.046   1.789  0.8899 -0.1386  0.1767
  935MOL0     C23354  10.740   3.000   1.765  0.6295 -0.1542  1.0468
  935MOL0     H23355  10.285   2.861   1.550  1.3146  1.9322  0.1263
  935MOL0     H23356  10.058   2.784   1.604  1.2210 -0.3681 -0.8059
  935MOL0     H23357   9.866   2.692   1.698  0.3011 -1.0307  0.6052
  935MOL0     H23358   9.838   2.869   1.717 -0.9598 -0.0694  0.9232
  935MOL0     H23359   9.627   2.763   1.777  0.5199 -0.7439 -1.2808
  935MOL0     H23360   9.703   2.783   1.936  0.6322 -2.0771  1.7875
  935MOL0     H23361   9.779   2.540   1.920  1.7530  5.3087 -0.5168
  935MOL0     H23362   9.714   2.521   1.755  2.1637  1.1294 -1.3781
  935MOL0     H23363   9.563   2.585   2.023 -1.8384  0.6291 -0.1476
  935MOL0     H23364   9.487   2.590   1.864  1.4159 -0.2097 -2.1147
  935MOL0     H23365   9.620   2.336   1.957  0.7627  0.4566 -2.1904
  935MOL0     H23366   9.472   2.346   1.864 -1.5382 -1.0854  0.4462
  935MOL0     H23367   9.515   2.388   2.161 -3.2223 -1.7378  3.7987
  935MOL0     H23368   9.396   2.288   2.090 -3.6699  2.1857  1.5293
  935MOL0     H23369   9.363   2.589   2.078 -2.8340  1.6395  0.9957
  935MOL0     H23370   9.257   2.478   2.011  0.3916  2.5075  0.1125
  935MOL0     H23371   9.194   2.561   2.254 -1.6142  0.1278 -1.5606
  935MOL0     H23372   9.325   2.454   2.306 -0.9601  1.9710  1.0672
  935MOL0     H23373   9.225   2.207   2.361  0.9925  0.1287 -0.3861
  935MOL0     H23374   9.021   2.023   2.411  2.2988 -1.2438 -0.0961
  935MOL0     H23375   9.093   1.984   2.267 -0.6155 -1.0884  0.5670
  935MOL0     H23376   8.866   2.007   2.158 -0.6643  0.5819  0.5168
  935MOL0     H23377   8.802   2.065   2.321 -0.0640  0.3379  0.9011
  935MOL0     H23378   8.870   1.787   2.228  0.0597 -3.2372  1.7890
  935MOL0     H23379   8.918   1.841   2.394  0.0694  1.4146  0.0324
  935MOL0     H23380   8.694   1.843   2.446  0.1859 -0.6864  1.0613
  935MOL0     H23381   8.706   1.695   2.359 -4.2828  0.2669  0.9080
  935MOL0     H23382   8.508   1.666   2.438 -1.9174 -2.5635 -0.0723
  935MOL0     H23383   8.283   1.576   2.418  1.8062 -0.1457  0.3365
  935MOL0     H23384   7.866   1.650   2.414 -1.4818 -2.4365  0.2180
  935MOL0     H23385   7.627   1.647   2.438  0.3367  0.3470  0.6440
  935MOL0     H23386   7.325   1.818   2.245  1.6105 -0.2842 -2.5569
  935MOL0     H23387   7.458   1.849   2.360 -0.1908  1.8943 -0.3786
  935MOL0     H23388   7.315   1.785   2.510 -0.5588  2.0856 -1.3852
  935MOL0     H23389   7.387   1.628   2.466 -2.5883 -2.2993  0.4007
  935MOL0     H23390   7.177   1.608   2.311  1.8352  0.7971 -0.4806
  935MOL0     H23391   7.112   1.752   2.378 -0.9912 -1.1319  0.1131
  935MOL0     H23392   7.153   1.596   2.606  1.5516 -0.7348 -0.5821
  935MOL0     H23393   7.007   1.603   2.504  0.0757  0.2715 -0.6860
  935MOL0     H23394   7.234   1.397   2.480  0.7908 -1.6931  0.9905
  935MOL0     H23395   7.099   1.403   2.367 -0.6448 -1.5992  0.7846
  935MOL0     H23396   6.959   1.364   2.589  0.5320 -0.2061  6.0755
  935MOL0     H23397   7.109   1.331   2.674  0.9774 -0.2241 -0.0974
  935MOL0     H23398   7.104   1.165   2.435  0.9762 -0.1024 -0.1922
  935MOL0     H23399   7.153   1.139   2.593  0.1527  0.3504  1.0448
  935MOL0     H23400   6.912   1.111   2.672 -2.2045  0.1262 -0.6704
  935MOL0     H23401   6.948   0.999   2.543 -0.5470 -0.5675  1.4600
  935MOL0     H23402   7.581   1.674   2.014  1.5309  0.3817 -0.4259
  935MOL0     H23403   7.838   1.689   1.998 -1.2780 -1.9390 -0.8068
  935MOL0     H23404   8.206   1.793   2.067  0.2983  2.4609 -0.7531
  935MOL0     H23405   8.418   1.891   2.074 -3.2001 -0.9693 -1.7484
  935MOL0     H23406  10.139   2.883   2.020 -2.3277  2.2570 -1.1131
  935MOL0     H23407  10.385   2.918   1.943  2.2173 -1.6452 -3.9786
  935MOL0     H23408  10.661   3.204   1.503 -0.9305  1.5218  0.9457
  935MOL0     H23409  10.888   3.278   1.532 -1.2911 -0.9238 -0.9851
  935MOL0     H23410  11.126   3.282   1.571 -2.7881 -2.1850 -1.6122
  935MOL0     H23411  11.122   3.113   1.560 -0.1549  0.1355 -2.4732
  935MOL0     H23412  11.297   3.264   1.752  0.4603  0.5147 -1.7273
  935MOL0     H23413  11.249   3.095   1.786  0.2668 -0.9079 -0.9586
  935MOL0     H23414  11.384   3.186   1.534  1.9882  0.5405  0.8990
  935MOL0     H23415  11.342   3.013   1.585  2.3009 -0.5463 -0.9223
  935MOL0     H23416  11.548   3.201   1.694  0.7121 -0.1719  1.7355
  935MOL0     H23417  11.494   3.067   1.786 -0.1842  1.1184 -0.3703
  935MOL0     H23418  11.719   2.865   1.472  0.6068  0.5030 -1.3406
  935MOL0     H23419  10.938   2.992   1.857 -0.6437 -0.8130  1.1336
  935MOL0     H23420  10.696   2.920   1.824 -1.4208 -0.1079 -0.3305
  936MOL0     O23421  10.099   0.543   1.319  0.2289 -0.2690 -0.4614
  936MOL0     C23422  10.135   0.431   1.350 -0.1726 -0.6869 -0.2136
  936MOL0     O23423  10.055   0.328   1.402  0.4883  0.0226 -0.1196
  936MOL0     C23424   9.915   0.325   1.386 -0.3293 -0.1586  0.4792
  936MOL0     C23425   9.824   0.410   1.303  0.2917 -0.8212 -0.9250
  936MOL0     C23426   9.686   0.401   1.317  0.6529  0.4442  0.0101
  936MOL0     C23427   9.631   0.313   1.405 -0.4313  0.2120  0.3576
  936MOL0     O23428   9.494   0.304   1.404 -0.0476  0.8995 -0.2845
  936MOL0     C23429   9.436   0.175   1.440 -0.0506 -0.1217 -0.8293
  936MOL0     C23430   9.287   0.197   1.422 -0.1237 -0.4578  0.3997
  936MOL0     C23431   9.229   0.089   1.323  0.6887 -0.0473 -0.9764
  936MOL0     C23432   9.088   0.111   1.312 -0.7542  0.1653 -0.7735
  936MOL0     C23433   9.033   0.043   1.198 -0.0263 -0.0205 -0.0963
  936MOL0     C23434   9.029  -0.117   1.195  0.0929 -1.2220  0.0415
  936MOL0     C23435   8.952  -0.173   1.309 -0.0456 -0.0407  0.4824
  936MOL0     C23436   8.943  -0.331   1.313  1.2436 -0.4385  0.5667
  936MOL0     N23437   8.892  -0.386   1.187  0.5696  0.1878  0.3364
  936MOL0     C23438   8.770  -0.391   1.127 -0.0311  0.9993 -0.3864
  936MOL0     C23439   8.776  -0.476   1.023  0.7720 -0.0712  0.0749
  936MOL0     C23440   8.666  -0.545   0.948 -0.4399 -0.2128  0.2859
  936MOL0     C23441   8.674  -0.511   0.800  0.3121 -0.0977  0.8284
  936MOL0     C23442   8.612  -0.616   0.707  0.7219 -0.4626 -0.3583
  936MOL0     C23443   8.472  -0.655   0.738  0.5424  0.4946 -0.3881
  936MOL0     O23444   8.392  -0.548   0.785  0.6737  0.0080 -0.0602
  936MOL0     C23445   8.258  -0.578   0.795 -0.2103 -0.2489  0.6105
  936MOL0     C23446   8.203  -0.674   0.883  0.5188  0.6835 -0.1978
  936MOL0     C23447   8.058  -0.691   0.905  0.0415  0.2678 -0.1586
  936MOL0     C23448   7.967  -0.641   0.814  0.3547  0.2497 -0.8825
  936MOL0     C23449   7.819  -0.681   0.819  0.0547 -0.3989 -0.4100
  936MOL0     O23450   7.737  -0.616   0.733 -0.6104  0.2032  0.5069
  936MOL0     C23451   7.603  -0.629   0.739  0.6572 -0.3262 -0.2092
  936MOL0     C23452   7.527  -0.519   0.785  0.1156 -0.2720 -0.5469
  936MOL0     C23453   7.384  -0.521   0.798 -0.6840 -0.7217  0.8189
  936MOL0     C23454   7.310  -0.634   0.754 -0.2166 -0.0623 -1.2848
  936MOL0     O23455   7.174  -0.620   0.767 -0.3342 -0.2816 -0.0580
  936MOL0     C23456   7.094  -0.714   0.692 -0.6236 -0.2024 -1.0823
  936MOL0     C23457   6.952  -0.661   0.720  0.1878 -0.3763 -0.2640
  936MOL0     C23458   6.834  -0.737   0.656  0.2689  0.1245  0.2012
  936MOL0     C23459   6.822  -0.879   0.705 -0.1583  0.0344 -0.2097
  936MOL0     C23460   6.682  -0.935   0.683 -0.3909 -0.3034  0.1166
  936MOL0     C23461   6.586  -0.875   0.787 -0.6693  0.4985 -0.2298
  936MOL0     C23462   6.444  -0.911   0.740 -0.7087  0.0749 -0.1780
  936MOL0     C23463   6.341  -0.858   0.840 -0.7089  0.7044 -1.0456
  936MOL0    Cl23464   6.370  -0.681   0.883 -0.2215 -0.0540  0.2258
  936MOL0     C23465   7.389  -0.742   0.706 -0.0171 -0.5158 -0.2233
  936MOL0     C23466   7.533  -0.735   0.699  0.0791 -0.3359 -0.1407
  936MOL0     O23467   7.781  -0.759   0.901  0.2513  0.4642 -0.5363
  936MOL0     C23468   8.021  -0.536   0.727  0.5517  0.5151  0.1840
  936MOL0     C23469   8.160  -0.520   0.710  0.3695  0.3796  0.7185
  936MOL0     N23470   8.907  -0.522   1.015 -0.5101  0.7235 -0.2757
  936MOL0     N23471   8.969  -0.467   1.115  0.0729 -0.4566  0.6116
  936MOL0     C23472   9.711   0.238   1.488  0.1711  0.4286  0.9218
  936MOL0     C23473   9.848   0.244   1.479 -0.0559 -0.2107 -0.5183
  936MOL0     C23474  10.282   0.420   1.386  0.0397 -0.0433  0.1440
  936MOL0     C23475  10.383   0.504   1.336 -1.0566  0.4398 -0.0969
  936MOL0     C23476  10.520   0.480   1.365  0.3751 -0.1324 -0.8063
  936MOL0     C23477  10.564   0.377   1.445  0.2592  0.4643  0.2114
  936MOL0     O23478  10.705   0.361   1.454  0.2732  0.6051 -0.5644
  936MOL0     C23479  10.754   0.284   1.570  0.2731  0.3307  0.5519
  936MOL0     C23480  10.809   0.371   1.680  0.3700 -0.3801  0.5172
  936MOL0     C23481  10.898   0.489   1.631  0.2563 -0.1796  0.2409
  936MOL0     C23482  11.028   0.444   1.558 -1.1142 -0.8994 -0.1069
  936MOL0     C23483  11.108   0.349   1.639  0.2935  0.0087  0.2183
  936MOL0     C23484  11.175   0.260   1.681 -0.7634  0.0043  0.7868
  936MOL0     C23485  10.463   0.295   1.494  0.0352  0.5038 -0.5692
  936MOL0     C23486  10.328   0.313   1.465  0.1127  0.1997  0.4040
  936MOL0     H23487   9.865   0.483   1.234  0.0465  0.2165  0.0012
  936MOL0     H23488   9.623   0.464   1.254  0.3986 -0.1703 -0.3588
  936MOL0     H23489   9.456   0.146   1.543 -1.3357  0.4930 -0.3837
  936MOL0     H23490   9.475   0.095   1.377  1.8984 -0.4743  0.7413
  936MOL0     H23491   9.262   0.297   1.387  0.6920 -0.1472  0.6928
  936MOL0     H23492   9.232   0.189   1.516 -0.7838  0.1569  0.0744
  936MOL0     H23493   9.253  -0.012   1.357  4.0514  1.3968  1.5105
  936MOL0     H23494   9.276   0.099   1.224 -0.7827 -0.5276 -1.7454
  936MOL0     H23495   9.032   0.089   1.403  1.3416 -0.2388  0.4785
  936MOL0     H23496   9.065   0.216   1.293 -0.8910 -0.2376 -3.2252
  936MOL0     H23497   9.082   0.081   1.108  0.0046 -1.4657 -0.6984
  936MOL0     H23498   8.932   0.083   1.185  0.0697  0.4184  0.4417
  936MOL0     H23499   9.131  -0.157   1.194 -0.0636 -1.8953  3.1429
  936MOL0     H23500   8.990  -0.153   1.099 -0.9086 -0.1308  0.0179
  936MOL0     H23501   9.005  -0.129   1.394  3.4086  1.6655 -2.2469
  936MOL0     H23502   8.851  -0.132   1.315 -0.1650 -0.2347 -0.1020
  936MOL0     H23503   8.874  -0.366   1.390  0.1208 -0.8365 -0.5839
  936MOL0     H23504   9.045  -0.369   1.330  2.3756  0.3353 -3.5085
  936MOL0     H23505   8.679  -0.350   1.170  0.5660  1.1563  0.7487
  936MOL0     H23506   8.563  -0.522   0.978  0.1728 -1.4148  3.7552
  936MOL0     H23507   8.682  -0.650   0.974 -0.9692  0.1544  2.2561
  936MOL0     H23508   8.780  -0.521   0.776 -0.4868 -1.8628 -2.7516
  936MOL0     H23509   8.627  -0.415   0.776 -0.3640 -0.1412  1.9165
  936MOL0     H23510   8.601  -0.579   0.604 -1.0904 -2.2620 -0.8698
  936MOL0     H23511   8.675  -0.705   0.709  1.2927 -0.0635 -0.3920
  936MOL0     H23512   8.474  -0.730   0.818 -4.6189 -0.9922 -1.2809
  936MOL0     H23513   8.428  -0.713   0.656 -0.9990  2.9896 -1.4500
  936MOL0     H23514   8.279  -0.730   0.938  0.9687  2.1356  0.7512
  936MOL0     H23515   8.045  -0.773   0.974  1.0915 -1.2280 -1.6706
  936MOL0     H23516   7.571  -0.428   0.827 -1.4847 -0.2438  1.1938
  936MOL0     H23517   7.339  -0.429   0.834  1.0531 -0.3915  2.3186
  936MOL0     H23518   7.113  -0.818   0.719  0.2663  0.6123  1.8295
  936MOL0     H23519   7.124  -0.698   0.589 -0.5173  0.7306 -0.9174
  936MOL0     H23520   6.935  -0.554   0.703 -2.5851 -0.6280  0.3708
  936MOL0     H23521   6.933  -0.677   0.827 -0.2800 -1.0424 -0.4392
  936MOL0     H23522   6.844  -0.747   0.547  0.2921 -0.7168  0.2766
  936MOL0     H23523   6.747  -0.674   0.680  0.7584  1.2204 -0.7902
  936MOL0     H23524   6.901  -0.940   0.662  0.8490 -0.7698  2.6007
  936MOL0     H23525   6.842  -0.878   0.812  3.2739 -0.8020 -0.7274
  936MOL0     H23526   6.692  -1.044   0.686  0.7077 -0.1918  0.9038
  936MOL0     H23527   6.646  -0.910   0.582 -1.2942 -0.8091  0.3031
  936MOL0     H23528   6.606  -0.768   0.800  1.5498  0.2533 -1.1271
  936MOL0     H23529   6.610  -0.930   0.878 -0.9715 -3.4322 -2.3002
  936MOL0     H23530   6.424  -0.863   0.643  1.9393 -0.3604 -1.0093
  936MOL0     H23531   6.425  -1.014   0.709 -1.5182  1.0920 -3.5012
  936MOL0     H23532   6.331  -0.925   0.926 -1.0942  1.8082 -0.2029
  936MOL0     H23533   6.240  -0.871   0.798 -0.8301 -1.9562 -0.1472
  936MOL0     H23534   7.342  -0.835   0.675  2.5308 -2.0460  0.1907
  936MOL0     H23535   7.584  -0.813   0.643  0.0090 -1.2868  1.0715
  936MOL0     H23536   7.955  -0.486   0.658  1.8806  1.2792 -0.5711
  936MOL0     H23537   8.204  -0.473   0.622  0.8393 -0.2342  0.6230
  936MOL0     H23538   9.667   0.183   1.570 -0.0202  1.4160  1.4989
  936MOL0     H23539   9.906   0.197   1.559  0.4345  3.6721  1.6671
  936MOL0     H23540  10.359   0.591   1.275  2.1001  2.9931  1.9337
  936MOL0     H23541  10.598   0.543   1.324 -0.3121 -0.3660 -2.5598
  936MOL0     H23542  10.837   0.217   1.544  1.7473  1.8558  1.1544
  936MOL0     H23543  10.681   0.221   1.621  2.0693 -0.5171  2.2022
  936MOL0     H23544  10.729   0.420   1.735  0.0451 -0.9998  0.6029
  936MOL0     H23545  10.855   0.312   1.760 -2.5966 -3.6819  0.0659
  936MOL0     H23546  10.921   0.558   1.714  2.3444  0.6311 -0.9396
  936MOL0     H23547  10.840   0.553   1.564 -1.4431 -2.5878 -0.7285
  936MOL0     H23548  11.007   0.412   1.456  0.9245  3.0822 -2.0220
  936MOL0     H23549  11.091   0.532   1.545 -2.7630  0.6679  1.8250
  936MOL0     H23550  11.247   0.187   1.713 -0.7727 -0.3427  0.0136
  936MOL0     H23551  10.484   0.208   1.554 -3.7504 -1.5891 -1.9311
  936MOL0     H23552  10.257   0.245   1.511  0.8040 -1.0148 -0.2596
  937MOL0     O23553   4.887   1.552   6.502 -0.0997  0.0167 -0.6039
  937MOL0     C23554   4.968   1.461   6.510  0.3357  0.2412 -0.2920
  937MOL0     O23555   4.933   1.328   6.509 -0.1670  0.0238 -0.0328
  937MOL0     C23556   4.802   1.283   6.500 -0.6106  0.5378 -0.4137
  937MOL0     C23557   4.777   1.158   6.567  0.5878 -0.5279 -0.5061
  937MOL0     C23558   4.648   1.100   6.551  0.8462  0.1729 -0.7751
  937MOL0     C23559   4.548   1.167   6.485  0.0308 -0.6020  0.7096
  937MOL0     O23560   4.424   1.117   6.474 -0.7681  0.1109 -0.1565
  937MOL0     C23561   4.322   1.168   6.564  0.3161  0.1314 -0.9035
  937MOL0     C23562   4.192   1.082   6.535  0.2796  1.0437  0.4595
  937MOL0     C23563   4.075   1.161   6.572 -0.1546 -0.3692 -0.1878
  937MOL0     C23564   3.947   1.081   6.548 -0.2800 -0.7465  0.1246
  937MOL0     C23565   3.824   1.167   6.577  0.5380 -0.2200 -0.1706
  937MOL0     C23566   3.708   1.097   6.498  0.5575 -1.2955 -0.7576
  937MOL0     C23567   3.681   0.954   6.563 -1.1483 -0.0611  1.0217
  937MOL0     C23568   3.563   0.901   6.484  0.5859 -0.2781 -0.3063
  937MOL0     N23569   3.436   0.983   6.484  0.1404  0.3592  0.0619
  937MOL0     C23570   3.359   1.002   6.593  0.5588  0.1702 -0.2827
  937MOL0     C23571   3.242   1.067   6.546  0.5814  0.5463  0.0464
  937MOL0     C23572   3.133   1.096   6.645 -0.0505 -0.2307 -0.5332
  937MOL0     C23573   3.000   1.132   6.580  0.4303  0.3896 -0.4172
  937MOL0     C23574   2.886   1.113   6.689  0.6646  0.0910  0.5930
  937MOL0     C23575   2.756   1.208   6.653 -0.7122  0.6484  0.9151
  937MOL0     O23576   2.665   1.189   6.759  0.0443 -0.4586  0.2230
  937MOL0     C23577   2.550   1.258   6.730 -0.1231  0.7779  0.3291
  937MOL0     C23578   2.550   1.396   6.718 -0.4237 -0.2321  0.2232
  937MOL0     C23579   2.435   1.472   6.697 -0.2661  0.4630  0.6211
  937MOL0     C23580   2.311   1.401   6.683  0.9229 -0.6617  0.5025
  937MOL0     C23581   2.183   1.477   6.676  0.6741  0.2621  0.1826
  937MOL0     O23582   2.069   1.398   6.702  0.7493 -0.0426  1.1031
  937MOL0     C23583   1.953   1.465   6.688  0.1511 -0.4516 -0.6302
  937MOL0     C23584   1.894   1.504   6.814  0.4675 -0.0135 -0.9557
  937MOL0     C23585   1.771   1.574   6.819 -0.4268  0.1766  0.3099
  937MOL0     C23586   1.702   1.593   6.699 -0.3088  0.3930  0.1290
  937MOL0     O23587   1.589   1.664   6.679  0.1523 -0.4450 -0.0249
  937MOL0     C23588   1.491   1.657   6.781 -0.5066  0.6808  0.4103
  937MOL0     C23589   1.358   1.620   6.702  0.1370  0.0277  0.3054
  937MOL0     C23590   1.231   1.631   6.783 -0.0154  1.2672 -0.5344
  937MOL0     C23591   1.107   1.566   6.699 -1.4992 -0.8617 -0.7353
  937MOL0     C23592   0.974   1.574   6.769  0.6629 -0.8024  0.3732
  937MOL0     C23593   0.860   1.556   6.670  0.5480 -0.3121 -0.0095
  937MOL0     C23594   0.722   1.559   6.730 -0.0311  0.1772 -0.7265
  937MOL0     C23595   0.607   1.509   6.641 -1.1986 -0.0473  0.0019
  937MOL0    Cl23596   0.454   1.510   6.722 -0.3758  0.1014  0.2011
  937MOL0     C23597   1.758   1.553   6.576 -0.2933  0.0098  1.0623
  937MOL0     C23598   1.879   1.481   6.565  0.3402  0.4924 -0.3031
  937MOL0     O23599   2.188   1.603   6.671  0.3602 -0.2727 -0.6927
  937MOL0     C23600   2.309   1.260   6.687 -0.1449 -0.0674  0.9930
  937MOL0     C23601   2.424   1.197   6.713  0.4615 -0.6969  0.3390
  937MOL0     N23602   3.274   1.107   6.416  0.7742  0.4639  1.0437
  937MOL0     N23603   3.389   1.053   6.379 -0.1459 -0.3476  0.2104
  937MOL0     C23604   4.570   1.288   6.417  1.2108  1.2928 -0.3855
  937MOL0     C23605   4.694   1.346   6.431 -1.4179 -0.5733 -0.8446
  937MOL0     C23606   5.115   1.487   6.511 -0.2516 -0.8371  0.5230
  937MOL0     C23607   5.164   1.624   6.524 -0.7143  0.0409  0.1938
  937MOL0     C23608   5.299   1.653   6.507 -0.0502 -0.7617  0.4460
  937MOL0     C23609   5.390   1.549   6.474  0.4733 -0.6811  0.4605
  937MOL0     O23610   5.519   1.564   6.449  0.2077  0.3954 -0.5572
  937MOL0     C23611   5.581   1.693   6.433 -0.4361 -0.5561  0.4488
  937MOL0     C23612   5.720   1.679   6.373 -0.7940 -0.7484  0.1612
  937MOL0     C23613   5.814   1.799   6.406 -0.5883  0.3551  0.2817
  937MOL0     C23614   5.858   1.822   6.549 -0.7116 -0.9508  0.7840
  937MOL0     C23615   5.990   1.885   6.550  0.7616  0.0744  0.0168
  937MOL0     C23616   6.098   1.935   6.558  0.2895  0.3813 -0.3959
  937MOL0     C23617   5.335   1.423   6.475  0.2062 -0.4074  0.2336
  937MOL0     C23618   5.203   1.391   6.485  0.8217 -0.6951 -0.3546
  937MOL0     H23619   4.847   1.093   6.618  0.3992  0.5710  1.2437
  937MOL0     H23620   4.623   1.004   6.594  0.1603  1.3500  1.6263
  937MOL0     H23621   4.294   1.272   6.543 -1.8214 -0.1193  0.4132
  937MOL0     H23622   4.356   1.170   6.668 -1.8479  4.9489  0.0044
  937MOL0     H23623   4.202   0.994   6.598 -0.3162 -1.7809 -3.0417
  937MOL0     H23624   4.179   1.062   6.428 -0.5092  1.2178  0.5175
  937MOL0     H23625   4.070   1.252   6.512  0.0849  1.5488  2.5167
  937MOL0     H23626   4.089   1.174   6.680  3.9566  1.4246 -0.7406
  937MOL0     H23627   3.946   1.046   6.444 -1.1350  1.6390 -0.7347
  937MOL0     H23628   3.943   0.987   6.605 -1.7528 -2.4507 -2.5719
  937MOL0     H23629   3.835   1.267   6.532 -0.2646 -1.8379 -4.4251
  937MOL0     H23630   3.813   1.167   6.685 -0.8932 -0.0297 -0.3074
  937MOL0     H23631   3.732   1.086   6.392 -0.5256 -2.4344 -0.9124
  937MOL0     H23632   3.624   1.166   6.511  1.4907 -0.0989 -0.9369
  937MOL0     H23633   3.763   0.887   6.535 -3.5872 -2.1859 -1.7595
  937MOL0     H23634   3.652   0.950   6.668 -0.1670 -0.1125  1.2951
  937MOL0     H23635   3.522   0.807   6.522  0.8689 -0.1313  0.3663
  937MOL0     H23636   3.607   0.893   6.385  1.1728 -0.2107 -0.0526
  937MOL0     H23637   3.372   0.963   6.693 -1.9032  0.5105  0.2580
  937MOL0     H23638   3.164   1.183   6.704  0.3287 -0.5952 -0.1931
  937MOL0     H23639   3.107   1.009   6.707 -1.6170 -1.8313 -3.2329
  937MOL0     H23640   2.985   1.071   6.491  0.9070 -3.5607  1.9706
  937MOL0     H23641   3.017   1.237   6.553 -1.7898  0.3119 -2.3593
  937MOL0     H23642   2.866   1.006   6.694 -1.5142  0.5097  2.6540
  937MOL0     H23643   2.923   1.144   6.788 -0.4533  0.8482  0.7883
  937MOL0     H23644   2.712   1.177   6.558  0.7292 -1.8057  0.9658
  937MOL0     H23645   2.797   1.309   6.643  1.2161 -0.2358 -0.7627
  937MOL0     H23646   2.644   1.450   6.726  1.1046 -2.5079 -1.1841
  937MOL0     H23647   2.433   1.580   6.700  0.3817  0.5227 -0.4809
  937MOL0     H23648   1.945   1.487   6.908 -0.6196 -2.3497 -0.7204
  937MOL0     H23649   1.721   1.599   6.912 -2.4002 -1.9582 -0.0844
  937MOL0     H23650   1.474   1.743   6.846 -0.4188 -0.7589  2.4286
  937MOL0     H23651   1.517   1.577   6.851 -0.5625 -0.4796 -0.8463
  937MOL0     H23652   1.366   1.517   6.663  1.2140 -0.9620  2.9300
  937MOL0     H23653   1.354   1.688   6.616  0.0301  0.2413  0.4785
  937MOL0     H23654   1.207   1.735   6.805  1.5639  2.1234 -2.5475
  937MOL0     H23655   1.236   1.570   6.874 -3.6533  2.4152  0.5982
  937MOL0     H23656   1.095   1.603   6.597  1.7449  0.7337 -0.6680
  937MOL0     H23657   1.127   1.459   6.698 -0.5984 -0.7191 -2.5824
  937MOL0     H23658   0.961   1.674   6.812  1.6121 -0.4706 -0.0832
  937MOL0     H23659   0.975   1.497   6.847  0.9633 -0.6552  0.5177
  937MOL0     H23660   0.883   1.470   6.606 -0.6474  0.8910 -2.1791
  937MOL0     H23661   0.865   1.647   6.609  0.7926 -1.4210 -1.7303
  937MOL0     H23662   0.717   1.500   6.822  0.0215 -0.1385 -0.9267
  937MOL0     H23663   0.694   1.660   6.761 -1.3136 -0.5594  0.6597
  937MOL0     H23664   0.619   1.408   6.599  0.3811  1.0448 -2.3621
  937MOL0     H23665   0.612   1.570   6.551 -1.5876 -2.9192 -2.1309
  937MOL0     H23666   1.704   1.577   6.485  2.1801  1.6599 -0.0756
  937MOL0     H23667   1.911   1.428   6.475 -2.9974 -0.4776 -1.0540
  937MOL0     H23668   2.215   1.206   6.676  0.1633 -0.7332  1.5329
  937MOL0     H23669   2.424   1.089   6.724  1.9868 -0.4978  3.7645
  937MOL0     H23670   4.482   1.332   6.372 -0.1061 -0.0114  0.7889
  937MOL0     H23671   4.711   1.442   6.384  1.6646  0.0445  1.2925
  937MOL0     H23672   5.104   1.713   6.540  0.4847  0.8939  0.0408
  937MOL0     H23673   5.333   1.756   6.514 -1.8612 -0.1349  0.6839
  937MOL0     H23674   5.584   1.730   6.536  1.3777 -0.3858  0.3632
  937MOL0     H23675   5.520   1.754   6.366  2.0096 -3.1936 -4.7765
  937MOL0     H23676   5.772   1.593   6.416 -1.7882 -1.8206 -0.7084
  937MOL0     H23677   5.707   1.668   6.264 -2.9312 -0.8891  0.4001
  937MOL0     H23678   5.775   1.893   6.366 -4.2221 -0.5496  1.3265
  937MOL0     H23679   5.907   1.782   6.350 -1.0577 -1.7773  0.0703
  937MOL0     H23680   5.784   1.884   6.599 -2.7715 -2.8815  0.3214
  937MOL0     H23681   5.867   1.729   6.607 -1.6514 -1.6894 -0.2185
  937MOL0     H23682   6.185   1.996   6.545 -0.1949  1.0978 -0.3363
  937MOL0     H23683   5.397   1.333   6.472  0.1269 -0.4451 -1.5631
  937MOL0     H23684   5.172   1.289   6.464  2.5502 -1.4776  0.7317
  938MOL0     O23685   5.596   6.786   7.578 -1.0861  0.1553  0.2982
  938MOL0     C23686   5.656   6.685   7.615  0.3639 -0.5583 -0.6920
  938MOL0     O23687   5.621   6.559   7.595 -0.2973 -0.8694  0.6557
  938MOL0     C23688   5.492   6.518   7.547  0.0854  0.0441 -0.6737
  938MOL0     C23689   5.488   6.382   7.517  1.2067 -0.0798 -0.3654
  938MOL0     C23690   5.372   6.321   7.475  0.0517  0.0052 -0.9101
  938MOL0     C23691   5.257   6.394   7.485 -0.2808 -0.0708  0.4980
  938MOL0     O23692   5.140   6.319   7.466  0.1890  0.2875 -0.0613
  938MOL0     C23693   5.020   6.387   7.441 -0.2177 -0.9168 -0.1486
  938MOL0     C23694   4.917   6.295   7.379 -0.7510 -0.2168 -0.1864
  938MOL0     C23695   4.786   6.358   7.392 -0.4116  0.0266 -0.2118
  938MOL0     C23696   4.685   6.276   7.315  0.2462  0.7595  0.2701
  938MOL0     C23697   4.529   6.302   7.347  0.1640  0.1154  0.0974
  938MOL0     C23698   4.437   6.195   7.302 -0.8700 -0.6670  0.7088
  938MOL0     C23699   4.304   6.259   7.280 -0.2946  1.0066 -0.1170
  938MOL0     C23700   4.298   6.337   7.139  0.3266  0.4899  0.1573
  938MOL0     N23701   4.155   6.351   7.102  0.0215 -0.2799  0.5690
  938MOL0     C23702   4.057   6.403   7.183 -0.0148 -1.0830  0.5727
  938MOL0     C23703   3.938   6.394   7.120 -0.5067 -1.0187 -0.1006
  938MOL0     C23704   3.807   6.420   7.177  0.6071  0.3156 -0.1090
  938MOL0     C23705   3.691   6.410   7.072 -0.4422 -0.3829  0.1294
  938MOL0     C23706   3.700   6.513   6.952 -0.9075 -0.2652  0.0669
  938MOL0     C23707   3.581   6.475   6.861  0.1601 -0.8213  0.9871
  938MOL0     O23708   3.459   6.481   6.931 -0.6653 -0.3744 -0.0026
  938MOL0     C23709   3.352   6.527   6.861 -0.5896  1.0173  0.3514
  938MOL0     C23710   3.337   6.660   6.818  0.0230  0.2812 -0.3615
  938MOL0     C23711   3.215   6.695   6.767  0.0198 -0.2117  0.0151
  938MOL0     C23712   3.106   6.607   6.755  0.7163 -0.6749 -0.0477
  938MOL0     C23713   2.986   6.663   6.688  0.5465  0.3723  1.1186
  938MOL0     O23714   2.961   6.796   6.683  0.1435 -0.4725 -0.4843
  938MOL0     C23715   2.853   6.855   6.630 -0.0655  0.4469  0.8452
  938MOL0     C23716   2.871   6.952   6.538  0.1929 -0.9035  0.1236
  938MOL0     C23717   2.769   7.028   6.496  0.3128  0.3620  1.7311
  938MOL0     C23718   2.633   6.992   6.535 -0.4949  0.0068  0.4643
  938MOL0     O23719   2.513   7.048   6.492  0.2413  0.3232  0.9564
  938MOL0     C23720   2.532   7.162   6.400 -0.2282  0.4597 -0.0538
  938MOL0     C23721   2.401   7.228   6.365  0.4310  0.0080 -0.0420
  938MOL0     C23722   2.307   7.135   6.296 -0.8989 -0.2665 -0.3189
  938MOL0     C23723   2.175   7.207   6.290 -0.0449 -0.7402  1.1742
  938MOL0     C23724   2.060   7.126   6.235 -0.2962  0.0576  0.3071
  938MOL0     C23725   1.938   7.210   6.212  0.1720  0.8251 -0.4285
  938MOL0     C23726   1.829   7.130   6.131 -0.7965 -0.2331 -0.8363
  938MOL0     C23727   1.718   7.217   6.070  0.6421 -0.1661  0.3971
  938MOL0    Cl23728   1.617   7.122   5.967  0.2717  0.0240 -0.1070
  938MOL0     C23729   2.619   6.894   6.627  0.7478  0.1079  1.0865
  938MOL0     C23730   2.724   6.819   6.672 -1.1462 -0.3859  0.5713
  938MOL0     O23731   2.910   6.578   6.645  0.2338 -0.4830  0.5306
  938MOL0     C23732   3.120   6.470   6.799 -0.5829 -0.2740 -0.2746
  938MOL0     C23733   3.247   6.436   6.848 -0.6827  0.3080  0.7203
  938MOL0     N23734   3.968   6.333   6.999 -0.3844  0.2809 -0.6836
  938MOL0     N23735   4.094   6.311   6.984 -0.1623 -0.0866  0.0913
  938MOL0     C23736   5.248   6.528   7.522 -0.1014 -0.0177  0.6373
  938MOL0     C23737   5.370   6.595   7.544  0.3324 -0.2451 -0.0539
  938MOL0     C23738   5.788   6.707   7.681 -0.2415  0.8817  0.1080
  938MOL0     C23739   5.853   6.838   7.674 -0.2375  0.5919  0.7091
  938MOL0     C23740   5.984   6.852   7.715 -0.6116  0.2491  0.3273
  938MOL0     C23741   6.062   6.747   7.779  0.5765 -0.7915 -0.6564
  938MOL0     O23742   6.189   6.759   7.824  0.5758 -0.2956  0.7014
  938MOL0     C23743   6.260   6.874   7.789 -0.1873  0.4222  0.2020
  938MOL0     C23744   6.406   6.854   7.818 -0.1704 -0.5340 -0.7625
  938MOL0     C23745   6.420   6.856   7.975 -0.2659  0.4289 -0.6764
  938MOL0     C23746   6.569   6.828   8.027 -0.3644 -0.9197  0.2713
  938MOL0     C23747   6.646   6.957   8.010  1.1552  1.3396 -0.0639
  938MOL0     C23748   6.697   7.069   7.994 -0.4056  0.8364  0.5295
  938MOL0     C23749   5.990   6.628   7.805 -0.7799 -0.3746 -0.5760
  938MOL0     C23750   5.857   6.607   7.756 -0.1351  0.0657 -0.3338
  938MOL0     H23751   5.576   6.324   7.540 -0.6694 -3.1696 -0.4283
  938MOL0     H23752   5.361   6.213   7.471 -3.0873 -0.0724  3.0026
  938MOL0     H23753   5.043   6.461   7.363 -0.1053  0.7266  1.3740
  938MOL0     H23754   4.982   6.424   7.536  0.6188  0.9793 -0.4998
  938MOL0     H23755   4.922   6.197   7.427 -3.3024 -1.6506 -2.5273
  938MOL0     H23756   4.950   6.273   7.277  0.0108 -0.8195  0.1792
  938MOL0     H23757   4.781   6.455   7.341  2.6073  0.5829  0.3263
  938MOL0     H23758   4.760   6.379   7.496  1.2688  0.6384  0.1244
  938MOL0     H23759   4.702   6.281   7.207 -1.2045  1.1293  0.0448
  938MOL0     H23760   4.711   6.176   7.350  0.0567 -0.2469 -2.2838
  938MOL0     H23761   4.502   6.399   7.305  1.9775 -0.0186 -1.5287
  938MOL0     H23762   4.520   6.321   7.454 -0.3571  0.7235 -0.0512
  938MOL0     H23763   4.437   6.111   7.373  2.8479 -2.4463 -1.0988
  938MOL0     H23764   4.468   6.162   7.202 -0.6548  0.9518  0.2200
  938MOL0     H23765   4.222   6.187   7.275 -1.8136  2.6757 -0.3970
  938MOL0     H23766   4.276   6.329   7.359  2.2244  0.7661  1.0764
  938MOL0     H23767   4.352   6.279   7.064  2.0904  0.6191  1.2666
  938MOL0     H23768   4.346   6.435   7.150  0.9437  0.1343  0.7232
  938MOL0     H23769   4.075   6.443   7.282  0.0679  2.1343 -0.6035
  938MOL0     H23770   3.817   6.525   7.205 -1.1896  0.4389  0.1835
  938MOL0     H23771   3.789   6.348   7.258  0.5673 -0.3926 -0.7330
  938MOL0     H23772   3.597   6.430   7.124  0.2398 -1.4712  1.8572
  938MOL0     H23773   3.683   6.309   7.032  0.6047 -1.3423  2.2238
  938MOL0     H23774   3.680   6.611   6.995  0.1597 -1.0116  2.3666
  938MOL0     H23775   3.788   6.513   6.886 -1.9126  0.0402 -1.3365
  938MOL0     H23776   3.588   6.379   6.809 -0.8610 -0.0230 -0.6921
  938MOL0     H23777   3.583   6.549   6.781 -2.8886  1.7772  3.0751
  938MOL0     H23778   3.414   6.734   6.839  0.3401 -0.4564  1.2848
  938MOL0     H23779   3.192   6.801   6.754 -1.7163 -0.3668  1.4965
  938MOL0     H23780   2.972   6.965   6.503  0.3408 -2.6225 -0.1620
  938MOL0     H23781   2.780   7.107   6.422 -2.2046 -0.9015 -0.1536
  938MOL0     H23782   2.567   7.126   6.303  2.4645  1.3184  0.4986
  938MOL0     H23783   2.595   7.238   6.447 -1.3642 -0.2386  2.8158
  938MOL0     H23784   2.420   7.312   6.297 -0.1929 -0.1107 -0.3644
  938MOL0     H23785   2.366   7.255   6.465 -1.3282  0.1015 -0.6580
  938MOL0     H23786   2.294   7.046   6.360 -1.7131 -0.4622 -0.7445
  938MOL0     H23787   2.344   7.124   6.194  2.5300  0.4962  0.6997
  938MOL0     H23788   2.140   7.235   6.390  2.7521 -1.5468  2.4783
  938MOL0     H23789   2.195   7.297   6.231  1.1823 -2.4003 -1.0433
  938MOL0     H23790   2.037   7.043   6.303  0.1013  2.8883  4.2815
  938MOL0     H23791   2.097   7.083   6.142 -3.4112  0.5618 -1.3147
  938MOL0     H23792   1.958   7.298   6.149  0.7639 -2.0128 -4.6281
  938MOL0     H23793   1.891   7.239   6.306 -1.8977  0.7295 -1.3759
  938MOL0     H23794   1.891   7.081   6.055  1.0429  0.4572  0.1697
  938MOL0     H23795   1.787   7.064   6.207  0.1637  1.7245  1.5170
  938MOL0     H23796   1.773   7.294   6.016 -2.6518  0.9323 -1.7482
  938MOL0     H23797   1.663   7.273   6.147  1.0842  1.2046 -0.2391
  938MOL0     H23798   2.518   6.866   6.656 -0.4699  1.9208 -1.0910
  938MOL0     H23799   2.704   6.728   6.728 -1.6418  0.0179  1.0675
  938MOL0     H23800   3.043   6.395   6.811  0.2125 -0.8759  1.4644
  938MOL0     H23801   3.259   6.333   6.882 -2.2006  0.3243  1.3927
  938MOL0     H23802   5.157   6.586   7.530 -1.3680 -1.6891 -0.9187
  938MOL0     H23803   5.367   6.700   7.574  0.3467 -1.0632  3.1889
  938MOL0     H23804   5.793   6.918   7.633 -0.5211  0.3425  0.6322
  938MOL0     H23805   6.041   6.940   7.687  0.9428  0.7227  4.2739
  938MOL0     H23806   6.210   6.957   7.840 -1.4455 -0.3962  0.3503
  938MOL0     H23807   6.255   6.884   7.681  1.3442 -0.9281 -0.0220
  938MOL0     H23808   6.442   6.762   7.773  0.9475 -1.5238  1.9367
  938MOL0     H23809   6.451   6.943   7.773 -1.8647  0.5248 -0.4812
  938MOL0     H23810   6.344   6.786   8.011  1.1407 -1.0629 -0.4673
  938MOL0     H23811   6.397   6.957   8.010  0.8942  0.8484 -1.0875
  938MOL0     H23812   6.567   6.794   8.131  0.0934 -0.4145  0.4519
  938MOL0     H23813   6.615   6.748   7.968  1.1882 -1.0129  1.5465
  938MOL0     H23814   6.746   7.164   7.985  0.8550 -0.0161 -3.6863
  938MOL0     H23815   6.045   6.557   7.867  1.4940  0.7857 -1.1622
  938MOL0     H23816   5.805   6.514   7.773  0.1426 -0.5286 -2.4658
  939MOL0     O23817   1.045   1.947   6.780 -0.3149 -0.1116 -0.5275
  939MOL0     C23818   1.025   2.059   6.737 -1.0314 -0.6760  0.6123
  939MOL0     O23819   1.126   2.151   6.687 -0.0116 -0.3019 -0.0305
  939MOL0     C23820   1.259   2.119   6.683  0.1160  0.2715 -0.0411
  939MOL0     C23821   1.331   2.050   6.784  0.2920  0.2608 -0.2577
  939MOL0     C23822   1.472   2.044   6.770 -0.9562  0.1421  0.6004
  939MOL0     C23823   1.540   2.102   6.656  0.2312  0.5993 -1.0182
  939MOL0     O23824   1.677   2.094   6.627 -1.0193  0.1343  0.7993
  939MOL0     C23825   1.765   2.001   6.699 -0.4858 -0.1850  0.3809
  939MOL0     C23826   1.907   2.059   6.676 -0.0714  0.3806  0.5486
  939MOL0     C23827   2.022   1.963   6.718 -0.3656 -0.3287 -0.1698
  939MOL0     C23828   2.010   1.920   6.870 -0.3106 -0.4528 -0.4752
  939MOL0     C23829   2.100   1.804   6.906 -0.8292  0.9746 -0.3723
  939MOL0     C23830   2.102   1.776   7.061  0.0568  0.0504 -0.3036
  939MOL0     C23831   2.233   1.838   7.103 -0.2760  0.9165 -0.1910
  939MOL0     C23832   2.238   1.825   7.253 -0.2677 -0.2335 -0.0910
  939MOL0     N23833   2.147   1.931   7.309  0.7405 -0.6657 -0.2555
  939MOL0     C23834   2.145   2.070   7.289  0.2402 -0.2314 -1.0397
  939MOL0     C23835   2.034   2.121   7.351  0.1652  0.5486 -0.7644
  939MOL0     C23836   1.988   2.260   7.358  0.0741 -0.6518  0.4701
  939MOL0     C23837   1.896   2.313   7.248  0.9845  1.0995  0.1987
  939MOL0     C23838   1.951   2.301   7.108  0.4428  0.2156  0.1202
  939MOL0     C23839   1.880   2.365   6.994  0.4709  0.9414  1.2598
  939MOL0     O23840   1.760   2.287   6.977  0.1031 -0.2998  0.3366
  939MOL0     C23841   1.662   2.350   6.907 -0.2763  1.6766 -0.0395
  939MOL0     C23842   1.688   2.447   6.813 -0.0654 -0.1695  0.1998
  939MOL0     C23843   1.584   2.521   6.758  0.1496 -0.2510 -1.1687
  939MOL0     C23844   1.453   2.486   6.792  0.1044 -0.2345 -0.0537
  939MOL0     C23845   1.333   2.534   6.710  0.7114  0.2525 -0.3168
  939MOL0     O23846   1.199   2.502   6.750 -0.1222  0.8215 -0.7296
  939MOL0     C23847   1.095   2.558   6.691 -0.1113  0.6531 -0.6078
  939MOL0     C23848   1.085   2.582   6.549 -0.1521  0.0897  0.0276
  939MOL0     C23849   0.961   2.633   6.502 -0.0771  0.4282 -0.1695
  939MOL0     C23850   0.846   2.654   6.582  0.2447  0.4077 -0.0244
  939MOL0     O23851   0.733   2.683   6.515 -0.3070 -0.1414 -0.3937
  939MOL0     C23852   0.611   2.702   6.587 -0.7685  0.6970 -0.9262
  939MOL0     C23853   0.499   2.752   6.492  0.7372  0.7123  0.1327
  939MOL0     C23854   0.472   2.652   6.381  0.6548  0.0028  0.9860
  939MOL0     C23855   0.337   2.677   6.323  0.4729 -0.2551  0.0444
  939MOL0     C23856   0.282   2.574   6.226  0.7209 -0.4114 -0.0330
  939MOL0     C23857   0.154   2.627   6.149 -0.3485 -0.5171 -0.2959
  939MOL0     C23858   0.044   2.633   6.248  0.9222 -0.3203  0.4668
  939MOL0     C23859   0.032   2.518   6.352 -0.4462  0.1448  0.5223
  939MOL0    Cl23860   0.023   2.354   6.281 -0.4535  0.0844  0.2272
  939MOL0     C23861   0.858   2.621   6.715 -0.6451  0.3884 -0.5736
  939MOL0     C23862   0.981   2.575   6.770 -0.4279  1.6731  0.6813
  939MOL0     O23863   1.357   2.622   6.626 -0.1489  0.6911 -0.1511
  939MOL0     C23864   1.420   2.381   6.880  0.4106  0.4316  0.5527
  939MOL0     C23865   1.529   2.320   6.935 -0.3825 -0.9374  0.7590
  939MOL0     N23866   1.971   2.015   7.414  0.2755 -0.7709 -0.7783
  939MOL0     N23867   2.030   1.907   7.383  0.7335 -0.6725 -0.3802
  939MOL0     C23868   1.459   2.176   6.562 -0.2960  0.7968  0.2246
  939MOL0     C23869   1.326   2.176   6.579  0.1472 -0.3000  0.6809
  939MOL0     C23870   0.886   2.113   6.717 -1.0498  0.0205 -0.4038
  939MOL0     C23871   0.859   2.239   6.658 -0.1731 -0.4797 -0.0617
  939MOL0     C23872   0.734   2.285   6.634 -0.5015  0.4457 -0.3360
  939MOL0     C23873   0.625   2.208   6.674 -0.1942 -0.2581  0.2921
  939MOL0     O23874   0.504   2.242   6.629 -0.4645  1.0652 -0.4178
  939MOL0     C23875   0.486   2.217   6.488  0.4305 -0.7591 -0.3030
  939MOL0     C23876   0.329   2.216   6.464 -0.5592 -0.7881 -0.2727
  939MOL0     C23877   0.266   2.099   6.537 -0.2023  0.7558 -0.3406
  939MOL0     C23878   0.108   2.101   6.536  0.0771  0.2017 -0.5903
  939MOL0     C23879   0.064   1.990   6.449 -0.1907  0.4171 -0.0774
  939MOL0     C23880   0.039   1.897   6.377 -0.0306 -0.5563 -0.0302
  939MOL0     C23881   0.653   2.095   6.750  0.3563  0.5576  0.0062
  939MOL0     C23882   0.775   2.035   6.757  0.3008  0.0497  0.1271
  939MOL0     H23883   1.268   2.013   6.864 -0.2454  2.1162  0.2230
  939MOL0     H23884   1.536   1.998   6.845 -1.2386 -0.1266  0.6754
  939MOL0     H23885   1.768   1.897   6.665  2.2320 -0.0358 -0.0818
  939MOL0     H23886   1.743   2.002   6.806  0.7300 -2.3486  0.7056
  939MOL0     H23887   1.906   2.145   6.743 -0.9177  0.2452  0.7290
  939MOL0     H23888   1.918   2.101   6.576  0.3017  2.1323  1.3048
  939MOL0     H23889   2.118   2.010   6.696 -0.0635 -1.8199 -2.3212
  939MOL0     H23890   2.013   1.876   6.653 -1.4278 -0.4119  0.0574
  939MOL0     H23891   2.039   2.009   6.927  1.6201 -0.6452 -1.0963
  939MOL0     H23892   1.907   1.892   6.891 -1.7232  3.2283 -1.7745
  939MOL0     H23893   2.197   1.826   6.861 -1.6590  3.0947 -1.2305
  939MOL0     H23894   2.068   1.708   6.864  3.9015 -0.6998 -0.7153
  939MOL0     H23895   2.097   1.669   7.083  3.3560 -0.0289  0.6162
  939MOL0     H23896   2.024   1.831   7.114  1.5590  0.0429  2.0793
  939MOL0     H23897   2.320   1.788   7.060  0.5968  1.0215  1.3911
  939MOL0     H23898   2.250   1.942   7.072 -1.3131  0.8999 -0.8647
  939MOL0     H23899   2.337   1.825   7.299  0.1103  0.0055 -0.8694
  939MOL0     H23900   2.210   1.728   7.293  1.1798  0.8885  4.1751
  939MOL0     H23901   2.232   2.120   7.250 -0.2744 -0.5187 -2.6139
  939MOL0     H23902   2.075   2.325   7.356 -1.5211  1.5661 -0.3773
  939MOL0     H23903   1.948   2.275   7.459  4.4150 -0.1569  2.3402
  939MOL0     H23904   1.858   2.413   7.274  0.5852  0.7547  0.9641
  939MOL0     H23905   1.801   2.260   7.256  0.5766  1.7231 -0.3784
  939MOL0     H23906   2.051   2.346   7.115  1.0091 -1.0712  0.8695
  939MOL0     H23907   1.964   2.195   7.082 -3.6319 -0.2488 -0.6979
  939MOL0     H23908   1.948   2.364   6.909  0.2453 -0.3400  1.0664
  939MOL0     H23909   1.870   2.472   7.009 -0.2675  1.2295 -0.9744
  939MOL0     H23910   1.790   2.453   6.776 -0.6008  0.8770 -1.1582
  939MOL0     H23911   1.601   2.598   6.684 -0.3114 -0.6632 -1.7145
  939MOL0     H23912   1.169   2.573   6.481 -1.1822  7.0547 -2.9827
  939MOL0     H23913   0.943   2.642   6.395  4.0009  0.6486 -1.0125
  939MOL0     H23914   0.610   2.773   6.671  1.4081  1.7456 -1.7084
  939MOL0     H23915   0.586   2.604   6.627 -1.5288  0.6224 -1.5765
  939MOL0     H23916   0.523   2.855   6.462  0.0320  1.3024  1.5047
  939MOL0     H23917   0.402   2.770   6.540 -0.0590 -3.3208  0.3869
  939MOL0     H23918   0.472   2.556   6.433 -2.0584  0.8219  2.7576
  939MOL0     H23919   0.535   2.657   6.292 -1.1176  2.8217 -0.2757
  939MOL0     H23920   0.274   2.688   6.412  1.4781  2.0243  0.5633
  939MOL0     H23921   0.333   2.779   6.281 -2.0541  0.0370  0.8011
  939MOL0     H23922   0.254   2.481   6.277 -3.6574 -0.0924 -1.4305
  939MOL0     H23923   0.361   2.565   6.151 -1.5499 -1.0451 -2.5141
  939MOL0     H23924   0.127   2.558   6.068 -3.5557  0.5566 -0.2866
  939MOL0     H23925   0.179   2.721   6.099  3.9333 -1.3691 -0.1152
  939MOL0     H23926   0.051   2.732   6.293  0.0259 -0.5705  1.1987
  939MOL0     H23927  -0.047   2.637   6.187  1.0136  0.3124  0.3654
  939MOL0     H23928  -0.058   2.540   6.411 -1.0856  1.2014 -0.7849
  939MOL0     H23929   0.122   2.534   6.413  0.4584  2.8163 -1.3115
  939MOL0     H23930   0.768   2.624   6.776 -2.3827 -2.0088 -2.7586
  939MOL0     H23931   0.977   2.545   6.874  0.6830  2.2464  0.9128
  939MOL0     H23932   1.320   2.355   6.915 -0.0627 -2.4865 -2.4178
  939MOL0     H23933   1.511   2.246   7.013 -0.1669 -1.4930  0.2884
  939MOL0     H23934   1.513   2.235   6.489 -0.2073  3.8299  2.5604
  939MOL0     H23935   1.268   2.239   6.513 -0.3903 -2.3737 -0.9314
  939MOL0     H23936   0.939   2.303   6.621 -3.1868  3.0330 -1.1599
  939MOL0     H23937   0.724   2.380   6.582 -3.4726  1.1824  1.3435
  939MOL0     H23938   0.530   2.122   6.458 -0.0166 -1.1275  0.1832
  939MOL0     H23939   0.543   2.294   6.435 -1.1357  1.1437  0.6235
  939MOL0     H23940   0.293   2.312   6.501  1.1745 -0.8868  1.8720
  939MOL0     H23941   0.312   2.213   6.356 -2.7254  0.1826 -0.0156
  939MOL0     H23942   0.299   2.115   6.640 -0.8228  0.5396 -0.1027
  939MOL0     H23943   0.302   2.003   6.498  2.3900  1.1595  0.8648
  939MOL0     H23944   0.054   2.103   6.631 -2.2559  1.6960 -1.8583
  939MOL0     H23945   0.077   2.196   6.492 -2.7404 -0.9551 -1.2917
  939MOL0     H23946   0.006   1.816   6.316 -0.4897  0.1359 -0.7163
  939MOL0     H23947   0.563   2.057   6.797  0.4528 -0.1599 -0.3700
  939MOL0     H23948   0.790   1.943   6.812 -0.3488 -0.7360 -0.9958
  940MOL0     O23949  10.968   9.412   7.979  0.0109 -0.4391 -0.1814
  940MOL0     C23950  10.908   9.376   7.878  0.0535  0.9704  0.5526
  940MOL0     O23951  10.967   9.344   7.757  0.1326 -0.1809  0.4965
  940MOL0     C23952  11.106   9.341   7.755 -0.3431  0.1331  0.6123
  940MOL0     C23953  11.159   9.217   7.735 -0.3021  0.6104 -0.2281
  940MOL0     C23954  11.296   9.191   7.713 -0.0280 -1.1163 -0.8393
  940MOL0     C23955  11.382   9.305   7.708 -0.1026 -0.6247 -1.1835
  940MOL0     O23956  11.510   9.290   7.664  0.5895 -0.0114  0.1180
  940MOL0     C23957  11.593   9.402   7.635 -0.2778 -0.5117 -0.4127
  940MOL0     C23958  11.734   9.349   7.605 -0.4334  0.1539  0.6028
  940MOL0     C23959  11.827   9.468   7.584  0.7036 -1.0862  0.5019
  940MOL0     C23960  11.964   9.404   7.569  0.9668  0.7461 -0.1679
  940MOL0     C23961  12.073   9.514   7.560 -0.1668 -0.8257 -0.6060
  940MOL0     C23962  12.220   9.465   7.577  0.0056  0.3817  0.4697
  940MOL0     C23963  12.322   9.578   7.557 -0.5181 -0.4860  0.0890
  940MOL0     C23964  12.369   9.629   7.691 -0.3714 -0.6299 -0.8125
  940MOL0     N23965  12.446   9.753   7.674 -0.1381  0.2398 -0.0386
  940MOL0     C23966  12.417   9.878   7.716  0.2232 -0.8755 -0.5670
  940MOL0     C23967  12.535   9.943   7.703 -0.1546 -0.8057  0.2108
  940MOL0     C23968  12.551  10.092   7.737  0.4928  0.5338  0.4930
  940MOL0     C23969  12.615  10.096   7.876 -0.6332 -0.4761 -0.0770
  940MOL0     C23970  12.646  10.241   7.927 -0.0734 -0.9109 -0.0316
  940MOL0     C23971  12.527  10.339   7.923  0.8915  0.2884  0.6248
  940MOL0     O23972  12.411  10.276   7.987 -0.0480  0.5035  0.2843
  940MOL0     C23973  12.302  10.250   7.909  0.7513 -0.0751 -0.2842
  940MOL0     C23974  12.240  10.342   7.824  0.0999 -0.4356 -1.0641
  940MOL0     C23975  12.130  10.307   7.752  0.1470 -0.3916  0.0322
  940MOL0     C23976  12.075  10.179   7.754  0.0533  0.1124  0.4528
  940MOL0     C23977  11.961  10.151   7.668  0.4632  0.5878 -0.4397
  940MOL0     O23978  11.939  10.022   7.661 -0.2143  0.3733  0.3340
  940MOL0     C23979  11.815   9.973   7.632  0.8701  1.0873 -0.4979
  940MOL0     C23980  11.739  10.006   7.524 -0.1934  0.4556 -0.8194
  940MOL0     C23981  11.610   9.955   7.495  0.3643  0.3419 -0.6518
  940MOL0     C23982  11.562   9.845   7.573  0.3938  0.2388 -0.8090
  940MOL0     O23983  11.438   9.784   7.560 -0.3889 -0.1222 -0.9858
  940MOL0     C23984  11.380   9.777   7.427  0.7296  0.0590  0.0558
  940MOL0     C23985  11.265   9.688   7.433  0.1038  0.8205  0.4523
  940MOL0     C23986  11.140   9.765   7.463 -0.8017 -0.2494  0.3028
  940MOL0     C23987  11.015   9.670   7.466 -0.7746  1.0322  0.6663
  940MOL0     C23988  10.875   9.737   7.467 -0.7081 -0.4829  0.1622
  940MOL0     C23989  10.766   9.642   7.470 -0.5422  0.5579  1.2895
  940MOL0     C23990  10.632   9.710   7.432 -0.3319  0.5406 -0.4119
  940MOL0     C23991  10.514   9.617   7.438 -0.5430 -0.1296  0.3865
  940MOL0    Cl23992  10.362   9.707   7.383 -0.4992  0.6410  0.1447
  940MOL0     C23993  11.642   9.809   7.686 -1.7717 -0.0498  0.0714
  940MOL0     C23994  11.767   9.866   7.708 -0.5413  0.5284  0.5243
  940MOL0     O23995  11.907  10.238   7.601 -0.1232 -0.3199 -0.0827
  940MOL0     C23996  12.131  10.091   7.844 -1.0412  0.4111 -0.0027
  940MOL0     C23997  12.239  10.127   7.926 -0.7704  0.2268  0.2261
  940MOL0     N23998  12.628   9.864   7.637 -0.3096  0.0403  0.0758
  940MOL0     N23999  12.573   9.751   7.627 -0.6891 -0.5786 -0.1525
  940MOL0     C24000  11.316   9.432   7.721  0.1785  0.3488  0.1731
  940MOL0     C24001  11.182   9.452   7.744 -0.3219  0.0881 -0.0320
  940MOL0     C24002  10.760   9.391   7.884 -0.1817  0.0582 -0.6741
  940MOL0     C24003  10.683   9.395   7.772  0.7794 -0.0290 -0.4238
  940MOL0     C24004  10.544   9.403   7.776  0.1714 -0.7015 -0.7317
  940MOL0     C24005  10.481   9.431   7.894 -0.5951  0.1368 -0.4420
  940MOL0     O24006  10.350   9.467   7.926 -0.4128  0.5825 -0.5102
  940MOL0     C24007  10.249   9.457   7.828 -0.4244  0.8880  1.4333
  940MOL0     C24008  10.127   9.538   7.862  0.6840 -0.5887  0.2052
  940MOL0     C24009  10.018   9.501   7.759  0.8233  0.1321 -0.2644
  940MOL0     C24010   9.883   9.578   7.791 -0.0650  0.2597  0.0087
  940MOL0     C24011   9.784   9.537   7.695  0.5974  0.7091 -0.2059
  940MOL0     C24012   9.690   9.504   7.614  0.1152 -0.4363  0.1287
  940MOL0     C24013  10.562   9.433   8.016  0.8119  0.5913  0.0522
  940MOL0     C24014  10.693   9.405   8.009 -0.0013  0.2254  0.4765
  940MOL0     H24015  11.088   9.137   7.719 -2.5114  2.4098 -0.0657
  940MOL0     H24016  11.339   9.093   7.693  2.7221  0.0810 -1.2824
  940MOL0     H24017  11.595   9.470   7.721  0.2797  1.0286 -1.6044
  940MOL0     H24018  11.545   9.448   7.549  1.8399  1.0292 -0.8542
  940MOL0     H24019  11.727   9.293   7.512  0.0255  2.4961 -0.9333
  940MOL0     H24020  11.772   9.276   7.677  0.3356  0.9112  0.9793
  940MOL0     H24021  11.824   9.536   7.669  0.6670 -2.5244  1.6897
  940MOL0     H24022  11.796   9.528   7.498  2.6585  1.6811  1.6041
  940MOL0     H24023  11.986   9.345   7.658 -0.5443 -0.2495 -0.4077
  940MOL0     H24024  11.980   9.336   7.485  5.1475  1.2923 -0.0070
  940MOL0     H24025  12.054   9.603   7.622  1.8301 -0.7572 -0.0188
  940MOL0     H24026  12.067   9.557   7.459  0.4388  2.8458  0.7621
  940MOL0     H24027  12.244   9.392   7.499 -2.2506 -2.0380  1.8599
  940MOL0     H24028  12.234   9.413   7.672 -1.8667  0.0001  0.5845
  940MOL0     H24029  12.414   9.547   7.506 -0.1498  1.6413 -0.6116
  940MOL0     H24030  12.272   9.655   7.498  0.4024  1.5677  1.8908
  940MOL0     H24031  12.433   9.550   7.732 -0.1963  0.5034  1.2215
  940MOL0     H24032  12.279   9.647   7.750  2.9111  0.8467  4.4278
  940MOL0     H24033  12.330   9.926   7.759  2.8839  1.8643  2.2059
  940MOL0     H24034  12.453  10.140   7.725 -0.4607 -1.5433 -0.6382
  940MOL0     H24035  12.614  10.134   7.658 -3.0671  2.2236 -1.7110
  940MOL0     H24036  12.713  10.048   7.872  0.1885  0.8734  2.0262
  940MOL0     H24037  12.548  10.056   7.953 -0.3897  1.6728  1.3448
  940MOL0     H24038  12.685  10.227   8.029  1.7590  1.2035 -0.3553
  940MOL0     H24039  12.727  10.291   7.873 -1.5258  1.9266  0.2155
  940MOL0     H24040  12.491  10.354   7.820 -0.7050 -0.1353  1.0906
  940MOL0     H24041  12.540  10.435   7.973  0.4622 -1.5076  4.4943
  940MOL0     H24042  12.283  10.441   7.813  2.5168 -1.0503  1.7898
  940MOL0     H24043  12.083  10.392   7.702 -2.0517  0.2347  2.8695
  940MOL0     H24044  11.781  10.087   7.465  2.3371  0.4980  0.9134
  940MOL0     H24045  11.559   9.998   7.409 -0.8021 -0.4588 -0.3872
  940MOL0     H24046  11.460   9.739   7.362  0.6201 -0.4112  0.1882
  940MOL0     H24047  11.353   9.877   7.393  2.2628  0.5837  0.2961
  940MOL0     H24048  11.278   9.617   7.515 -0.2608  1.6615  1.2531
  940MOL0     H24049  11.247   9.631   7.341  0.4179 -0.2194  1.0136
  940MOL0     H24050  11.128   9.825   7.372  0.9639 -3.3747 -2.1861
  940MOL0     H24051  11.159   9.823   7.554 -1.5611  2.1484 -0.9634
  940MOL0     H24052  11.025   9.602   7.382  2.3605  2.1499 -0.0210
  940MOL0     H24053  11.040   9.608   7.553  1.2762  1.0967  0.1868
  940MOL0     H24054  10.871   9.794   7.374  0.4133 -0.3342  0.1876
  940MOL0     H24055  10.861   9.803   7.553  2.4678  0.5109  0.0536
  940MOL0     H24056  10.755   9.604   7.572  1.6853 -0.7806  1.0834
  940MOL0     H24057  10.797   9.561   7.402 -1.6310  0.2768  1.0905
  940MOL0     H24058  10.609   9.789   7.504  3.4086  1.1833  0.3082
  940MOL0     H24059  10.638   9.746   7.329  1.9337 -3.0646 -1.7524
  940MOL0     H24060  10.506   9.574   7.538 -0.5743  1.9750  1.3355
  940MOL0     H24061  10.531   9.534   7.368  0.5771  0.5675 -0.1978
  940MOL0     H24062  11.608   9.735   7.758  1.2773  0.6312  2.4356
  940MOL0     H24063  11.829   9.824   7.786  0.9372 -0.1624 -0.9413
  940MOL0     H24064  12.089   9.991   7.846 -1.9358  0.7737 -0.3375
  940MOL0     H24065  12.271  10.052   7.998 -0.6580 -1.1935 -1.2499
  940MOL0     H24066  11.387   9.513   7.709  2.2033 -1.6222 -1.9201
  940MOL0     H24067  11.137   9.550   7.757 -1.1641 -0.2770 -0.0850
  940MOL0     H24068  10.727   9.403   7.673 -2.5848  1.0856 -1.9726
  940MOL0     H24069  10.486   9.415   7.685 -0.0334  2.8429 -0.2546
  940MOL0     H24070  10.222   9.352   7.811 -2.0661  1.7333 -2.0624
  940MOL0     H24071  10.277   9.487   7.726 -0.5665 -0.0425  1.1083
  940MOL0     H24072  10.100   9.515   7.966 -0.6019 -2.0936 -0.4185
  940MOL0     H24073  10.154   9.643   7.854 -0.7842 -0.3187 -2.2979
  940MOL0     H24074  10.004   9.393   7.763 -0.9221  0.2307 -1.8965
  940MOL0     H24075  10.040   9.529   7.655 -1.5106  0.6563 -0.6964
  940MOL0     H24076   9.864   9.557   7.897  1.1533 -0.6348  0.0740
  940MOL0     H24077   9.895   9.684   7.770 -0.7332 -0.0179 -2.0445
  940MOL0     H24078   9.622   9.473   7.538 -0.5920 -3.3482  1.7923
  940MOL0     H24079  10.512   9.446   8.112  0.6222 -1.3322  0.2394
  940MOL0     H24080  10.758   9.400   8.096  4.3638 -2.4662 -2.5368
  941MOL0     O24081   5.980   4.922   3.742 -0.0991  0.3721  0.4385
  941MOL0     C24082   5.985   4.908   3.865  0.1526  0.4993 -0.7778
  941MOL0     O24083   5.871   4.895   3.951 -0.8349  0.3108 -0.3164
  941MOL0     C24084   5.744   4.937   3.907 -0.8368 -0.0762  0.4643
  941MOL0     C24085   5.634   4.863   3.946  1.0094 -0.2984  0.9818
  941MOL0     C24086   5.504   4.915   3.926 -0.0788  0.1494  1.0307
  941MOL0     C24087   5.493   5.044   3.865 -1.0133  0.4729  0.8664
  941MOL0     O24088   5.364   5.076   3.837  0.0418  0.3028 -0.2693
  941MOL0     C24089   5.340   5.208   3.799 -0.5135 -0.7197  0.0696
  941MOL0     C24090   5.370   5.235   3.656  0.1762 -0.6847 -0.2703
  941MOL0     C24091   5.233   5.218   3.585 -0.3314 -0.2416 -0.8956
  941MOL0     C24092   5.148   5.343   3.597  0.6826  0.1027  0.3362
  941MOL0     C24093   5.063   5.362   3.470  0.0343  0.9359 -0.2095
  941MOL0     C24094   4.954   5.468   3.486 -0.0757 -0.5155  0.1210
  941MOL0     C24095   4.864   5.453   3.361 -0.2852 -0.5345 -0.0969
  941MOL0     C24096   4.744   5.549   3.379 -0.1630  0.5508  0.5031
  941MOL0     N24097   4.655   5.539   3.262 -0.0334 -0.1003 -0.2945
  941MOL0     C24098   4.576   5.647   3.215 -0.2838  0.7971 -0.0252
  941MOL0     C24099   4.477   5.589   3.148  0.5925 -0.0485  0.4937
  941MOL0     C24100   4.372   5.665   3.068  0.5682  0.1519  1.2560
  941MOL0     C24101   4.240   5.594   3.030 -0.1551 -0.8332  0.5391
  941MOL0     C24102   4.137   5.616   3.142  0.5741 -0.1583 -0.3733
  941MOL0     C24103   4.007   5.566   3.089 -0.4364 -0.0509 -0.3359
  941MOL0     O24104   3.905   5.665   3.065 -0.2826 -0.4491  0.3434
  941MOL0     C24105   3.775   5.650   3.106 -0.6929  0.8373 -0.3382
  941MOL0     C24106   3.725   5.518   3.120 -0.7330 -0.7481 -0.1640
  941MOL0     C24107   3.586   5.514   3.150 -0.5003 -0.2866 -0.3180
  941MOL0     C24108   3.504   5.624   3.168 -0.1931 -0.3155 -0.1086
  941MOL0     C24109   3.362   5.609   3.180  0.1005  0.5600  0.0842
  941MOL0     O24110   3.309   5.481   3.214  0.6283  0.2487  0.8874
  941MOL0     C24111   3.169   5.463   3.218 -0.6584  0.1385  0.4493
  941MOL0     C24112   3.126   5.377   3.115 -0.6110  0.2200  0.2206
  941MOL0     C24113   2.990   5.363   3.091 -0.0860  0.0396  0.7666
  941MOL0     C24114   2.894   5.431   3.170 -0.9162 -0.1697  0.0420
  941MOL0     O24115   2.760   5.425   3.150 -0.4033  0.4863  0.4242
  941MOL0     C24116   2.670   5.421   3.259  0.2596  0.3486 -0.9286
  941MOL0     C24117   2.710   5.318   3.368  0.8906  0.1633  0.1007
  941MOL0     C24118   2.596   5.305   3.470 -0.3002 -0.7031  0.1504
  941MOL0     C24119   2.660   5.250   3.600 -0.7161  0.5175 -0.5274
  941MOL0     C24120   2.566   5.231   3.715 -0.0676  0.2306 -0.5735
  941MOL0     C24121   2.517   5.358   3.773  0.6130  0.4931  0.5129
  941MOL0     C24122   2.386   5.339   3.853  0.5052 -0.4060 -0.0445
  941MOL0     C24123   2.369   5.459   3.947 -0.6150  0.0481  0.6028
  941MOL0    Cl24124   2.387   5.614   3.834  0.4804  0.0410  0.1262
  941MOL0     C24125   2.946   5.527   3.270 -0.1396  0.3212  0.1734
  941MOL0     C24126   3.081   5.545   3.296 -0.5802 -0.5376 -0.7233
  941MOL0     O24127   3.295   5.710   3.153  0.7522 -0.3415  1.1041
  941MOL0     C24128   3.564   5.749   3.149 -0.0577 -0.4762 -0.6891
  941MOL0     C24129   3.697   5.766   3.118 -0.4041  0.0319 -0.4803
  941MOL0     N24130   4.482   5.448   3.160 -0.4872  0.2042  0.4131
  941MOL0     N24131   4.585   5.422   3.225 -0.2708 -0.4002 -0.4666
  941MOL0     C24132   5.606   5.123   3.823 -0.1213  0.0232  0.6809
  941MOL0     C24133   5.738   5.065   3.842  1.1475 -0.2325  0.1210
  941MOL0     C24134   6.119   4.895   3.920  1.3094  0.8491 -0.2409
  941MOL0     C24135   6.232   4.892   3.840 -0.6354  0.2155  0.0664
  941MOL0     C24136   6.357   4.881   3.904  0.5029  0.0457  0.6929
  941MOL0     C24137   6.368   4.860   4.040  0.6438 -0.1224  0.5704
  941MOL0     O24138   6.496   4.835   4.100 -0.3239  0.0539 -0.3825
  941MOL0     C24139   6.616   4.821   4.017  0.9526  0.3378 -0.9259
  941MOL0     C24140   6.742   4.813   4.109  0.6882  0.4305  0.1562
  941MOL0     C24141   6.724   4.697   4.216  0.2671  0.3501  0.1940
  941MOL0     C24142   6.859   4.632   4.245 -0.8337  0.0591  0.1677
  941MOL0     C24143   6.952   4.732   4.300  0.3242  0.8965  0.5039
  941MOL0     C24144   7.035   4.820   4.340 -0.3210  0.3381  0.0922
  941MOL0     C24145   6.254   4.860   4.118 -0.2332  0.7465  0.3462
  941MOL0     C24146   6.132   4.885   4.058  0.2927 -0.3220  0.6654
  941MOL0     H24147   5.639   4.769   4.000 -1.3429 -0.8380  0.3889
  941MOL0     H24148   5.416   4.858   3.956  0.2961 -1.3474 -0.5229
  941MOL0     H24149   5.396   5.279   3.862 -0.8698  1.9523 -2.3964
  941MOL0     H24150   5.234   5.225   3.822 -1.1641 -2.6679 -1.2886
  941MOL0     H24151   5.451   5.171   3.620  0.5615  0.7944 -2.2076
  941MOL0     H24152   5.399   5.339   3.635 -1.0845 -0.3600 -0.4624
  941MOL0     H24153   5.182   5.131   3.628 -1.1001 -0.0746 -1.4425
  941MOL0     H24154   5.257   5.208   3.478  1.8434 -0.0041 -0.4708
  941MOL0     H24155   5.070   5.330   3.673  0.3737  0.4688  0.0822
  941MOL0     H24156   5.202   5.435   3.620 -1.7119  2.0893 -1.4071
  941MOL0     H24157   5.018   5.263   3.464  0.3943  0.6349  1.5276
  941MOL0     H24158   5.123   5.387   3.382 -0.0211  0.0498 -0.5089
  941MOL0     H24159   5.005   5.562   3.510 -1.4569 -0.0107  1.2049
  941MOL0     H24160   4.896   5.450   3.577 -0.7573  1.4700  0.1234
  941MOL0     H24161   4.917   5.472   3.267  0.6558  2.0019  0.8590
  941MOL0     H24162   4.825   5.351   3.359 -0.1596 -0.6484  1.5120
  941MOL0     H24163   4.776   5.654   3.381 -2.8562  1.5519 -2.2511
  941MOL0     H24164   4.685   5.523   3.468  0.4110 -0.9004  0.4919
  941MOL0     H24165   4.597   5.752   3.230 -2.8468  1.2211  1.1278
  941MOL0     H24166   4.411   5.714   2.978 -2.7420  0.7454 -0.0163
  941MOL0     H24167   4.346   5.751   3.129 -2.3015 -1.0374  1.8711
  941MOL0     H24168   4.258   5.488   3.013 -2.8222 -1.1459 -0.7843
  941MOL0     H24169   4.188   5.628   2.940  0.6126 -2.1741 -0.4475
  941MOL0     H24170   4.155   5.558   3.233 -1.1337  0.8267  0.6328
  941MOL0     H24171   4.124   5.720   3.172 -1.2374  0.1074 -1.8706
  941MOL0     H24172   3.984   5.495   3.169  1.2119  0.3030  0.5028
  941MOL0     H24173   4.013   5.516   2.992 -0.8928 -1.2332  0.2185
  941MOL0     H24174   3.787   5.430   3.103 -0.9325 -1.4044  2.0982
  941MOL0     H24175   3.554   5.410   3.144  0.5645 -0.7370  1.1645
  941MOL0     H24176   3.203   5.322   3.061 -1.3205 -1.2334  0.6416
  941MOL0     H24177   2.943   5.289   3.026  0.2821 -0.5746  1.1896
  941MOL0     H24178   2.574   5.397   3.212  0.0436 -0.8717  0.1021
  941MOL0     H24179   2.661   5.523   3.298 -1.1160  0.0959 -0.5282
  941MOL0     H24180   2.790   5.367   3.426  0.5105  1.0989 -0.1550
  941MOL0     H24181   2.744   5.216   3.347 -0.2657 -0.4138  0.9222
  941MOL0     H24182   2.525   5.227   3.439  0.9060 -1.4163 -0.8784
  941MOL0     H24183   2.546   5.401   3.490  2.0198  0.3903  1.0695
  941MOL0     H24184   2.696   5.150   3.574 -1.0005 -0.1835  1.6115
  941MOL0     H24185   2.741   5.309   3.643 -1.7417 -0.4436  3.0894
  941MOL0     H24186   2.610   5.162   3.788  2.5838  0.4726 -1.8222
  941MOL0     H24187   2.473   5.190   3.674 -0.1488 -0.3268  0.1495
  941MOL0     H24188   2.479   5.417   3.690 -0.8873 -1.3841 -0.1818
  941MOL0     H24189   2.596   5.406   3.833  1.2608 -1.4723  1.3085
  941MOL0     H24190   2.300   5.318   3.789  3.3273 -4.7442 -3.0291
  941MOL0     H24191   2.394   5.253   3.920 -0.4079 -1.3404 -1.0885
  941MOL0     H24192   2.454   5.458   4.017 -1.4653  0.8417  1.6790
  941MOL0     H24193   2.270   5.452   3.993 -0.7417 -0.1980  0.2966
  941MOL0     H24194   2.875   5.590   3.323 -1.0170 -0.5494  0.0547
  941MOL0     H24195   3.118   5.618   3.368  0.3082 -0.6135 -1.0972
  941MOL0     H24196   3.514   5.843   3.167  0.6474 -0.3229  0.6171
  941MOL0     H24197   3.748   5.860   3.100 -0.0001  0.2292  1.4753
  941MOL0     H24198   5.615   5.219   3.772  1.8171 -0.8151 -0.6510
  941MOL0     H24199   5.822   5.129   3.816  0.8489  1.2003  2.4202
  941MOL0     H24200   6.229   4.893   3.732  0.4124 -2.0668 -0.0513
  941MOL0     H24201   6.449   4.874   3.847 -0.2455  0.0717 -0.5490
  941MOL0     H24202   6.628   4.910   3.955  0.7000  2.8888  2.3927
  941MOL0     H24203   6.612   4.733   3.952  2.9132 -2.0275  1.8573
  941MOL0     H24204   6.830   4.793   4.046  0.4967  1.5669 -0.4987
  941MOL0     H24205   6.756   4.909   4.161  1.6010 -0.9307  2.6106
  941MOL0     H24206   6.660   4.616   4.179  2.0516 -0.9256 -0.2898
  941MOL0     H24207   6.681   4.738   4.307  0.3256  0.8084  0.0169
  941MOL0     H24208   6.841   4.541   4.303  0.0631  0.8719  1.7753
  941MOL0     H24209   6.899   4.592   4.151 -0.7623 -0.7429  0.5384
  941MOL0     H24210   7.102   4.898   4.372  1.5521 -0.8333 -0.8191
  941MOL0     H24211   6.282   4.828   4.218  3.0139  1.7215 -0.1206
  941MOL0     H24212   6.048   4.877   4.126 -0.0522  1.1529  0.4339
  942MOL0     O24213   5.985   9.789   1.477  0.0937 -0.2661 -0.5726
  942MOL0     C24214   6.052   9.786   1.370 -0.5486  0.2379 -0.3491
  942MOL0     O24215   6.008   9.740   1.242 -0.9284 -1.0977 -0.7857
  942MOL0     C24216   5.888   9.682   1.222 -0.4376 -0.0952  0.6443
  942MOL0     C24217   5.859   9.651   1.088 -0.0341  0.1462  0.3900
  942MOL0     C24218   5.732   9.607   1.053  0.2640  0.1012  0.3583
  942MOL0     C24219   5.631   9.580   1.145  0.6460 -0.1557 -0.2120
  942MOL0     O24220   5.517   9.516   1.094  0.6410 -0.0007  0.1395
  942MOL0     C24221   5.410   9.485   1.188 -0.4976  0.7010 -0.0006
  942MOL0     C24222   5.282   9.452   1.114  0.1647 -0.0752  0.1382
  942MOL0     C24223   5.172   9.434   1.220  0.4234  0.0861 -0.1360
  942MOL0     C24224   5.034   9.401   1.160 -1.0362 -0.6291  0.5259
  942MOL0     C24225   4.933   9.428   1.262  0.7650  0.2322 -0.3380
  942MOL0     C24226   4.802   9.385   1.196  0.3366 -0.8184 -0.0840
  942MOL0     C24227   4.681   9.420   1.280  0.3165  0.3008  0.0138
  942MOL0     C24228   4.648   9.568   1.279  0.9451 -0.0863  0.1516
  942MOL0     N24229   4.511   9.602   1.342 -0.2305  0.6543 -0.3010
  942MOL0     C24230   4.495   9.677   1.454  0.5949  0.5802  0.4344
  942MOL0     C24231   4.358   9.674   1.477 -0.1161 -0.3079  0.2349
  942MOL0     C24232   4.278   9.742   1.584  0.6288  0.8845 -0.2182
  942MOL0     C24233   4.344   9.723   1.721  0.2318 -0.1082 -0.1139
  942MOL0     C24234   4.310   9.837   1.815 -0.1649 -0.2363  1.1281
  942MOL0     C24235   4.354   9.978   1.777  0.8902  0.2248  1.0776
  942MOL0     O24236   4.498   9.975   1.756  0.2870 -0.4962 -0.2613
  942MOL0     C24237   4.577  10.082   1.756 -0.8903 -0.7469 -0.2194
  942MOL0     C24238   4.532  10.221   1.754 -0.3784  0.5960 -0.2837
  942MOL0     C24239   4.620  10.326   1.755 -0.2777 -0.2677  0.7355
  942MOL0     C24240   4.760  10.297   1.746  0.2942 -1.2992 -0.1145
  942MOL0     C24241   4.866  10.407   1.752 -0.3389  0.6045  0.2451
  942MOL0     O24242   5.004  10.375   1.762  0.5403  0.7664  0.2353
  942MOL0     C24243   5.107  10.465   1.780 -0.6854 -0.9428 -0.6344
  942MOL0     C24244   5.093  10.580   1.861 -0.6578 -0.1653 -0.4284
  942MOL0     C24245   5.199  10.675   1.875 -0.1318 -0.2107  0.2766
  942MOL0     C24246   5.323  10.662   1.806  0.8918 -0.3668  0.0680
  942MOL0     O24247   5.429  10.741   1.816 -0.1016 -0.4009 -0.0902
  942MOL0     C24248   5.405  10.875   1.848 -0.2915  0.8525  0.3321
  942MOL0     C24249   5.531  10.954   1.809 -0.0962  0.4766 -0.1934
  942MOL0     C24250   5.649  10.926   1.915  0.7611  0.4219  0.0650
  942MOL0     C24251   5.768  10.987   1.849  0.4940  0.5551 -0.2045
  942MOL0     C24252   5.873  11.012   1.955 -0.8527  0.3612 -0.5816
  942MOL0     C24253   5.897  10.892   2.043  0.0643  0.1535 -0.9985
  942MOL0     C24254   6.013  10.896   2.140 -0.4607  0.2132  0.0147
  942MOL0     C24255   6.136  10.854   2.065  0.0581  1.0186  0.4618
  942MOL0    Cl24256   6.269  10.853   2.182  0.0687  0.0824 -0.4467
  942MOL0     C24257   5.333  10.550   1.724  0.8330 -0.4251 -0.2332
  942MOL0     C24258   5.224  10.460   1.710  0.5952 -0.1035  0.3984
  942MOL0     O24259   4.819  10.518   1.751 -0.2113 -0.1264  0.1529
  942MOL0     C24260   4.806  10.170   1.736 -0.4608  0.1735 -0.1231
  942MOL0     C24261   4.712  10.062   1.735  0.0045  0.2872  1.1746
  942MOL0     N24262   4.300   9.602   1.372 -0.4965 -0.4929 -0.2989
  942MOL0     N24263   4.390   9.557   1.292  0.0085 -0.4956 -0.2709
  942MOL0     C24264   5.657   9.606   1.282  0.0461 -0.1325  0.3778
  942MOL0     C24265   5.787   9.651   1.317 -0.1258 -0.6633  0.7150
  942MOL0     C24266   6.181   9.853   1.373  0.2911  0.1280  0.2159
  942MOL0     C24267   6.251   9.895   1.252 -0.0293 -0.0219  0.4150
  942MOL0     C24268   6.360   9.981   1.265 -0.1809  0.4093  0.7322
  942MOL0     C24269   6.403  10.029   1.388 -0.3916 -0.0385  0.3327
  942MOL0     O24270   6.511  10.123   1.399  0.1280  0.0119  0.3573
  942MOL0     C24271   6.577  10.180   1.287 -0.1034 -0.6547  0.0184
  942MOL0     C24272   6.481  10.282   1.215  0.7658 -0.0246  0.0997
  942MOL0     C24273   6.468  10.424   1.294  0.3666  0.5703 -0.1655
  942MOL0     C24274   6.386  10.528   1.214 -0.7923 -0.1696 -0.0882
  942MOL0     C24275   6.251  10.474   1.181  0.5240 -0.7010 -0.3276
  942MOL0     C24276   6.139  10.435   1.135  0.2030 -0.2369  0.5506
  942MOL0     C24277   6.355   9.966   1.502  0.1775  0.2852 -0.4251
  942MOL0     C24278   6.248   9.874   1.493  0.2294  0.1782  0.3232
  942MOL0     H24279   5.935   9.653   1.010  1.8817  1.1717  2.1924
  942MOL0     H24280   5.701   9.620   0.950 -0.3270  1.3084  0.6676
  942MOL0     H24281   5.397   9.574   1.251 -2.4803  0.8625 -0.5595
  942MOL0     H24282   5.426   9.396   1.248 -3.1942 -0.2273 -0.5112
  942MOL0     H24283   5.298   9.376   1.037 -0.4768  0.6751 -0.7664
  942MOL0     H24284   5.258   9.538   1.051 -0.6664  0.0684  0.6475
  942MOL0     H24285   5.164   9.527   1.277  0.8055  1.0951 -1.6527
  942MOL0     H24286   5.201   9.352   1.285  0.6247 -0.5630 -1.0236
  942MOL0     H24287   5.024   9.467   1.074 -2.1290 -1.0363  0.3264
  942MOL0     H24288   5.045   9.299   1.122 -1.7792 -0.0262 -1.3622
  942MOL0     H24289   4.929   9.529   1.304  2.9462  0.3642 -0.3653
  942MOL0     H24290   4.956   9.353   1.338  0.5553 -1.1233 -1.5594
  942MOL0     H24291   4.791   9.277   1.183  0.6963 -0.8326 -0.2814
  942MOL0     H24292   4.799   9.425   1.095 -0.9617 -0.2025  0.1715
  942MOL0     H24293   4.587   9.373   1.250  0.6915 -0.5014  0.0609
  942MOL0     H24294   4.691   9.389   1.385  1.0060  0.0558 -0.1196
  942MOL0     H24295   4.632   9.585   1.172 -0.1353 -1.2926  0.0909
  942MOL0     H24296   4.721   9.639   1.318 -1.4023  1.4218  2.0736
  942MOL0     H24297   4.562   9.732   1.519  0.3912 -0.0483  1.2058
  942MOL0     H24298   4.179   9.696   1.596  0.4471  1.6602  1.7237
  942MOL0     H24299   4.273   9.850   1.571 -2.3444  1.1882  2.1222
  942MOL0     H24300   4.453   9.720   1.719  0.3372  2.0468 -0.7592
  942MOL0     H24301   4.308   9.633   1.772 -0.7889  0.5143  0.3081
  942MOL0     H24302   4.201   9.845   1.817 -0.0426  3.2884  0.3668
  942MOL0     H24303   4.355   9.813   1.912  3.0143  0.8605  0.0457
  942MOL0     H24304   4.337  10.049   1.858  0.6050  1.9173 -0.3910
  942MOL0     H24305   4.311  10.019   1.685 -0.0659 -1.1560  0.8834
  942MOL0     H24306   4.426  10.245   1.756 -0.7244 -0.8201 -0.6430
  942MOL0     H24307   4.582  10.427   1.766 -0.4616 -0.2478 -0.0237
  942MOL0     H24308   5.015  10.603   1.933  2.7992  1.8868  3.0904
  942MOL0     H24309   5.187  10.752   1.951 -1.5389 -2.0842  2.0608
  942MOL0     H24310   5.389  10.887   1.956  2.1339 -2.5342  1.2576
  942MOL0     H24311   5.321  10.917   1.793  0.6336  2.9783  0.4115
  942MOL0     H24312   5.509  11.061   1.801  2.4591  1.2109  1.5581
  942MOL0     H24313   5.566  10.914   1.713 -2.3373 -0.7926 -0.5478
  942MOL0     H24314   5.660  10.819   1.939  0.2189  0.5927  1.1204
  942MOL0     H24315   5.625  10.978   2.008  1.2356  0.7904 -0.0153
  942MOL0     H24316   5.800  10.914   1.774  1.7673  0.4981  0.3737
  942MOL0     H24317   5.751  11.082   1.799  1.4486  0.8558  0.0341
  942MOL0     H24318   5.852  11.103   2.012  5.0860  2.6010 -1.2433
  942MOL0     H24319   5.965  11.039   1.902  0.3465 -1.2215  0.5789
  942MOL0     H24320   5.896  10.804   1.977 -3.6437 -1.6933  1.1889
  942MOL0     H24321   5.810  10.879   2.108  1.0382 -0.4014  0.2424
  942MOL0     H24322   6.035  10.995   2.181  4.9949 -1.3605  1.7703
  942MOL0     H24323   5.998  10.828   2.224  1.8460  0.3859  0.6374
  942MOL0     H24324   6.157  10.929   1.988 -0.5742 -0.2070 -0.9488
  942MOL0     H24325   6.131  10.760   2.010  0.1526  0.1275  1.9171
  942MOL0     H24326   5.419  10.531   1.661 -0.9829  0.2725 -3.1471
  942MOL0     H24327   5.227  10.379   1.638 -0.1743 -1.5744  1.9503
  942MOL0     H24328   4.912  10.150   1.729  0.3604  2.5741  3.0617
  942MOL0     H24329   4.760   9.965   1.735 -1.7213 -0.6593 -1.3004
  942MOL0     H24330   5.595   9.593   1.371  0.3324 -0.1581  0.5767
  942MOL0     H24331   5.805   9.658   1.424 -1.4825  2.2829  0.8581
  942MOL0     H24332   6.202   9.866   1.159  2.4222 -1.5740 -0.4713
  942MOL0     H24333   6.409  10.008   1.172  1.7484 -0.0207  1.5678
  942MOL0     H24334   6.610  10.110   1.209  1.6817 -0.3100  0.4103
  942MOL0     H24335   6.671  10.230   1.314  0.1448 -1.0084 -0.1778
  942MOL0     H24336   6.525  10.303   1.117  0.5462  0.3056  0.0718
  942MOL0     H24337   6.382  10.235   1.204  1.3411 -0.7434 -3.6068
  942MOL0     H24338   6.566  10.462   1.324 -0.7730  0.1915  4.9529
  942MOL0     H24339   6.416  10.412   1.390 -0.7242  3.5869 -0.2848
  942MOL0     H24340   6.362  10.613   1.279  3.5136 -0.5080  2.3356
  942MOL0     H24341   6.445  10.561   1.129  0.6035 -1.4422  0.3427
  942MOL0     H24342   6.057  10.382   1.091 -1.3834  0.4987  2.4716
  942MOL0     H24343   6.414   9.977   1.593  0.2739 -3.7156  0.1952
  942MOL0     H24344   6.209   9.830   1.584 -1.0118 -1.8973 -1.1085
  943MOL0     O24345   7.037   1.254   3.147 -0.1685 -0.0371 -0.0870
  943MOL0     C24346   7.121   1.311   3.090 -0.1509 -0.3564  0.9061
  943MOL0     O24347   7.104   1.400   2.985 -0.1599 -0.4532  0.2055
  943MOL0     C24348   6.980   1.422   2.933 -0.4942 -0.4532  0.0178
  943MOL0     C24349   6.879   1.331   2.929  0.2849  0.9646  0.1537
  943MOL0     C24350   6.751   1.353   2.875 -0.2738  0.0957 -0.5954
  943MOL0     C24351   6.735   1.470   2.805  0.4862  0.6041  0.6137
  943MOL0     O24352   6.618   1.508   2.745 -0.8541 -0.8395 -0.4968
  943MOL0     C24353   6.579   1.429   2.634 -0.0453  0.4236 -0.5464
  943MOL0     C24354   6.445   1.480   2.568  0.0701  0.1886 -0.0203
  943MOL0     C24355   6.322   1.464   2.661 -0.3960  0.0720  0.0928
  943MOL0     C24356   6.199   1.535   2.604  0.2813 -0.0550  0.1558
  943MOL0     C24357   6.074   1.520   2.691  0.0584  0.5706  0.3096
  943MOL0     C24358   5.947   1.570   2.619  0.9132 -0.3144  0.4995
  943MOL0     C24359   5.822   1.547   2.704  0.5474  0.6786  0.1440
  943MOL0     C24360   5.694   1.599   2.631 -0.4489 -0.2614  1.0256
  943MOL0     N24361   5.575   1.567   2.706 -0.1325  0.6606 -1.0408
  943MOL0     C24362   5.554   1.579   2.846 -0.2022  0.3245  0.4932
  943MOL0     C24363   5.427   1.532   2.856  0.1795 -0.8402 -1.4559
  943MOL0     C24364   5.354   1.499   2.988 -0.1027  0.0847 -0.6152
  943MOL0     C24365   5.213   1.572   3.000 -1.0361  0.0950  0.0250
  943MOL0     C24366   5.227   1.721   2.985 -0.8477  0.4160 -0.1918
  943MOL0     C24367   5.119   1.802   3.049 -0.5279  0.4209 -0.1435
  943MOL0     O24368   4.991   1.759   3.004 -0.1424  0.2513  0.5036
  943MOL0     C24369   4.883   1.835   3.036  0.0765 -0.9391 -0.7876
  943MOL0     C24370   4.749   1.801   3.001  0.4691 -0.2354 -0.2391
  943MOL0     C24371   4.636   1.878   3.037 -0.3235 -0.6228  0.7980
  943MOL0     C24372   4.642   1.990   3.119 -0.0303 -0.7854 -0.0391
  943MOL0     C24373   4.521   2.068   3.160 -0.6688  0.5969 -0.6059
  943MOL0     O24374   4.415   2.056   3.074 -0.0010 -0.1522  0.3195
  943MOL0     C24375   4.289   2.093   3.122 -0.1699  0.5273  0.0415
  943MOL0     C24376   4.258   2.221   3.145 -1.1682 -0.3778  0.7346
  943MOL0     C24377   4.133   2.259   3.193 -0.0191 -0.9573  0.2037
  943MOL0     C24378   4.046   2.160   3.231  0.5671  0.6984  0.5200
  943MOL0     O24379   3.926   2.196   3.283  0.3793  0.0068  0.4242
  943MOL0     C24380   3.848   2.285   3.197  0.7333  0.9340  0.4500
  943MOL0     C24381   3.693   2.288   3.241  1.0487  0.4999  0.2987
  943MOL0     C24382   3.627   2.397   3.156  0.1025 -0.9563  0.4029
  943MOL0     C24383   3.481   2.416   3.182 -0.1177 -0.0406  0.2516
  943MOL0     C24384   3.401   2.316   3.108 -0.3402  0.0354  0.0397
  943MOL0     C24385   3.293   2.257   3.202  0.5587 -0.3581 -0.8548
  943MOL0     C24386   3.181   2.351   3.249 -0.6290 -0.0277  1.3444
  943MOL0     C24387   3.077   2.369   3.135 -1.1660  0.0741 -0.2688
  943MOL0    Cl24388   2.939   2.453   3.205  0.0065 -0.1211  0.2784
  943MOL0     C24389   4.072   2.029   3.218 -0.3806  0.8282  0.2133
  943MOL0     C24390   4.197   1.997   3.166  1.2188 -1.0273  0.1100
  943MOL0     O24391   4.516   2.132   3.263 -0.4904  0.3577  0.4800
  943MOL0     C24392   4.777   2.020   3.164  0.4099 -0.3157  0.6220
  943MOL0     C24393   4.886   1.951   3.127  0.2345  0.5095  0.8990
  943MOL0     N24394   5.370   1.507   2.735 -0.4755 -0.6429 -1.0059
  943MOL0     N24395   5.465   1.516   2.646  0.1614 -0.0663 -0.3970
  943MOL0     C24396   6.841   1.564   2.799  0.5753 -0.1576  0.0972
  943MOL0     C24397   6.964   1.539   2.866  0.0028 -1.2729  0.1281
  943MOL0     C24398   7.263   1.281   3.116 -0.7738 -0.1828 -0.5756
  943MOL0     C24399   7.354   1.293   3.009  0.3513  0.5817 -0.2166
  943MOL0     C24400   7.491   1.277   3.015 -0.0628  0.4244 -0.1115
  943MOL0     C24401   7.542   1.246   3.145 -1.0830  0.2906  0.7596
  943MOL0     O24402   7.682   1.221   3.156  0.5522  0.5626  0.5611
  943MOL0     C24403   7.744   1.289   3.264  0.5335 -0.5071 -0.3445
  943MOL0     C24404   7.888   1.319   3.254  1.0068  0.3607 -0.0715
  943MOL0     C24405   7.932   1.377   3.115  0.5369 -0.1404 -0.1364
  943MOL0     C24406   8.077   1.401   3.076 -0.1861 -0.1839  0.0686
  943MOL0     C24407   8.130   1.504   3.163 -0.9510  1.1758 -0.6918
  943MOL0     C24408   8.161   1.580   3.249 -1.8530 -0.3722  0.3920
  943MOL0     C24409   7.457   1.221   3.247  0.2696 -0.1786 -0.2326
  943MOL0     C24410   7.320   1.241   3.239 -0.5797  0.7510 -0.5183
  943MOL0     H24411   6.894   1.231   2.968 -0.1662  0.7505 -0.2039
  943MOL0     H24412   6.683   1.269   2.888 -2.8788  2.2189  0.5103
  943MOL0     H24413   6.567   1.327   2.672  1.3176  1.1650  2.0889
  943MOL0     H24414   6.660   1.438   2.561 -0.0566  2.7758 -0.3299
  943MOL0     H24415   6.421   1.420   2.479 -0.1068  0.2313 -0.0018
  943MOL0     H24416   6.459   1.584   2.536 -0.6114 -0.2158 -1.7367
  943MOL0     H24417   6.341   1.513   2.757 -0.9229  3.3176 -1.3160
  943MOL0     H24418   6.300   1.359   2.682  2.1170 -0.7618 -1.0144
  943MOL0     H24419   6.224   1.641   2.594 -1.7741  0.4890  0.3935
  943MOL0     H24420   6.189   1.489   2.505  4.3838 -1.3756  0.1491
  943MOL0     H24421   6.101   1.561   2.788 -2.3633  0.2700  1.1616
  943MOL0     H24422   6.057   1.413   2.706 -2.0704  0.9553  0.9457
  943MOL0     H24423   5.940   1.523   2.520 -2.9252 -2.3703  1.5545
  943MOL0     H24424   5.953   1.676   2.596 -0.2315 -0.0114  1.5216
  943MOL0     H24425   5.810   1.440   2.727  1.2714  0.1501 -1.7963
  943MOL0     H24426   5.821   1.602   2.798 -1.3477  1.8334 -0.4861
  943MOL0     H24427   5.681   1.573   2.525 -1.9952  0.6610  0.9590
  943MOL0     H24428   5.702   1.707   2.618 -0.8576 -0.2680  0.6867
  943MOL0     H24429   5.629   1.592   2.923  2.1037  0.3748 -1.6112
  943MOL0     H24430   5.411   1.520   3.079  0.4440 -0.0829 -0.9139
  943MOL0     H24431   5.342   1.391   3.003  1.1476 -0.0627 -0.5206
  943MOL0     H24432   5.174   1.552   3.100  1.2093 -0.2867  0.8871
  943MOL0     H24433   5.146   1.529   2.925 -0.0709 -2.8792  0.7484
  943MOL0     H24434   5.325   1.749   3.025 -1.0567  0.8814  0.0057
  943MOL0     H24435   5.234   1.752   2.881  2.7089  0.2866 -0.1204
  943MOL0     H24436   5.135   1.908   3.028 -0.0316  0.6266  1.1826
  943MOL0     H24437   5.111   1.792   3.157  1.7100 -1.3709 -0.0760
  943MOL0     H24438   4.730   1.714   2.938  0.4714  0.5778 -1.3915
  943MOL0     H24439   4.537   1.857   2.999 -0.3724  2.1856 -0.9505
  943MOL0     H24440   4.335   2.296   3.132 -1.6591  0.0415  0.1637
  943MOL0     H24441   4.119   2.364   3.214 -2.5985 -1.7215  3.1651
  943MOL0     H24442   3.867   2.263   3.092  1.4887  0.5169  0.6708
  943MOL0     H24443   3.898   2.381   3.210 -0.2050  1.2510  1.9684
  943MOL0     H24444   3.661   2.315   3.342 -1.5397 -0.8919 -0.0486
  943MOL0     H24445   3.639   2.197   3.211 -1.0537  2.5331 -2.6299
  943MOL0     H24446   3.645   2.381   3.049 -0.3803  1.0003 -0.0007
  943MOL0     H24447   3.673   2.493   3.183 -0.0995 -0.0616 -2.1410
  943MOL0     H24448   3.468   2.413   3.290 -0.5239  2.7722  0.3595
  943MOL0     H24449   3.459   2.519   3.154  1.2890  0.2489  0.1387
  943MOL0     H24450   3.457   2.231   3.066  0.7131  0.5569  0.3601
  943MOL0     H24451   3.360   2.368   3.021 -0.2752 -0.2086 -0.1411
  943MOL0     H24452   3.354   2.229   3.289  1.1894  0.7318 -0.9304
  943MOL0     H24453   3.242   2.165   3.170  0.7259 -0.5137 -0.6836
  943MOL0     H24454   3.124   2.318   3.336 -3.5140 -0.0847 -0.4468
  943MOL0     H24455   3.223   2.447   3.282  1.8089 -0.2403 -0.7887
  943MOL0     H24456   3.048   2.279   3.081 -0.7836 -0.8288  0.9719
  943MOL0     H24457   3.118   2.440   3.063 -0.8460 -1.8712 -2.0904
  943MOL0     H24458   4.002   1.950   3.242 -3.3920  2.5781 -2.0902
  943MOL0     H24459   4.215   1.890   3.155  2.7815 -0.9125  1.2063
  943MOL0     H24460   4.787   2.085   3.250  0.2500 -2.7003  2.5673
  943MOL0     H24461   4.979   1.992   3.164  0.9122  3.9209 -3.7369
  943MOL0     H24462   6.816   1.651   2.739 -0.5719 -0.3496  0.2769
  943MOL0     H24463   7.045   1.611   2.854 -0.6536 -1.0109 -4.6036
  943MOL0     H24464   7.318   1.324   2.912 -1.3878 -3.0570 -0.9303
  943MOL0     H24465   7.560   1.276   2.931  0.2458 -2.3509  0.0587
  943MOL0     H24466   7.736   1.223   3.352 -0.3039 -0.4542 -0.3790
  943MOL0     H24467   7.683   1.378   3.279 -0.6143 -0.7960 -2.9033
  943MOL0     H24468   7.917   1.394   3.329  1.5562  0.9991 -0.8950
  943MOL0     H24469   7.954   1.236   3.282  2.7072  1.8430  0.5480
  943MOL0     H24470   7.900   1.481   3.111  1.0274  0.0196  0.0746
  943MOL0     H24471   7.887   1.322   3.032  3.2277 -1.0667 -1.0690
  943MOL0     H24472   8.139   1.313   3.096  1.0888  1.4988  5.0000
  943MOL0     H24473   8.098   1.448   2.980  1.1918  1.1047  0.9415
  943MOL0     H24474   8.205   1.664   3.300  2.5150 -0.6045 -2.4086
  943MOL0     H24475   7.493   1.173   3.337 -0.4051  0.4140  0.3642
  943MOL0     H24476   7.250   1.231   3.322  0.3605 -0.1210  0.1976
  944MOL0     O24477   2.379   2.981   9.545  0.6313 -0.8707 -0.0412
  944MOL0     C24478   2.373   3.101   9.571  0.0792  0.5347  0.2314
  944MOL0     O24479   2.452   3.169   9.661  0.1857 -0.3618 -0.8057
  944MOL0     C24480   2.532   3.097   9.750  0.3128 -0.4424 -0.0287
  944MOL0     C24481   2.559   3.152   9.872 -0.1492  0.1717 -0.4033
  944MOL0     C24482   2.648   3.103   9.962 -0.2762 -0.6065  0.2828
  944MOL0     C24483   2.724   2.991   9.927  0.3321 -0.3673 -0.0394
  944MOL0     O24484   2.838   2.956   9.997  0.2752  0.7257  0.4269
  944MOL0     C24485   2.887   3.029  10.110 -1.1570  0.3383 -0.3503
  944MOL0     C24486   3.003   2.958  10.185 -1.1708  1.0821  0.0150
  944MOL0     C24487   3.130   2.982  10.107 -0.4300  0.2056 -0.3548
  944MOL0     C24488   3.243   2.881  10.135  0.0162 -0.5006 -0.0842
  944MOL0     C24489   3.322   2.901  10.270  0.3683  0.1729  0.3856
  944MOL0     C24490   3.453   2.812  10.277 -0.3492  0.8456 -0.3036
  944MOL0     C24491   3.544   2.862  10.394 -0.3583 -0.5878  0.0666
  944MOL0     C24492   3.677   2.780  10.404 -0.3248 -0.1115 -0.6785
  944MOL0     N24493   3.751   2.771  10.271  0.4959 -0.3661  0.0596
  944MOL0     C24494   3.740   2.676  10.173  0.3906  0.5275  0.0553
  944MOL0     C24495   3.821   2.714  10.077  0.2287 -0.2522  0.2077
  944MOL0     C24496   3.860   2.623   9.969  0.5779  0.2898 -0.8253
  944MOL0     C24497   3.744   2.598   9.866 -0.3885 -0.5691 -0.7896
  944MOL0     C24498   3.768   2.692   9.742  0.0964  0.2498  0.3311
  944MOL0     C24499   3.640   2.687   9.654 -0.1408  0.6710  0.0693
  944MOL0     O24500   3.539   2.762   9.713  0.0989 -0.4323  0.4604
  944MOL0     C24501   3.419   2.785   9.648 -0.1517  0.4243 -0.6888
  944MOL0     C24502   3.302   2.732   9.703  0.0607 -0.1507 -0.0699
  944MOL0     C24503   3.173   2.756   9.652  0.6321  0.2742 -0.2203
  944MOL0     C24504   3.161   2.833   9.535  0.2184 -0.0950 -0.4290
  944MOL0     C24505   3.032   2.868   9.478 -0.2131 -0.1056 -0.0947
  944MOL0     O24506   3.039   2.966   9.372  0.2464 -0.3184 -0.7052
  944MOL0     C24507   2.936   3.035   9.324  0.4071  0.2914  0.3170
  944MOL0     C24508   2.963   3.134   9.219  0.8378  0.5236 -0.2244
  944MOL0     C24509   2.860   3.213   9.172  0.1667  0.6620 -0.4618
  944MOL0     C24510   2.736   3.207   9.220  0.3327  0.2630  0.5340
  944MOL0     O24511   2.622   3.270   9.163  0.3220  0.5400 -0.3020
  944MOL0     C24512   2.624   3.304   9.031 -0.7576 -0.2285  0.2470
  944MOL0     C24513   2.486   3.340   8.970 -0.5274 -0.4171 -0.3471
  944MOL0     C24514   2.380   3.235   9.000 -0.3222 -0.4758  0.2520
  944MOL0     C24515   2.254   3.260   8.920  0.0058 -0.9037  0.2930
  944MOL0     C24516   2.161   3.138   8.934 -0.2296  0.1479 -0.8682
  944MOL0     C24517   2.025   3.167   8.897  0.7255 -0.1116 -0.0127
  944MOL0     C24518   1.957   3.046   8.834  0.4668 -0.4981  0.8902
  944MOL0     C24519   1.932   2.932   8.923  0.5457 -0.6183 -1.0334
  944MOL0    Cl24520   1.771   2.957   9.021 -0.0061 -0.0946  0.2495
  944MOL0     C24521   2.701   3.114   9.315 -0.6550 -0.2547 -0.1417
  944MOL0     C24522   2.801   3.029   9.367  0.0734 -0.0719 -0.2447
  944MOL0     O24523   2.934   2.842   9.547  0.1405  0.6263  0.3317
  944MOL0     C24524   3.278   2.887   9.485  1.0136 -0.0246  0.1493
  944MOL0     C24525   3.408   2.865   9.536  1.1710  0.5268  1.0412
  944MOL0     N24526   3.885   2.829  10.118  0.8892 -0.2272 -0.4439
  944MOL0     N24527   3.839   2.863  10.232  0.1566 -0.1747  0.6547
  944MOL0     C24528   2.698   2.926   9.811  0.7711 -0.7637  0.2476
  944MOL0     C24529   2.605   2.978   9.720  0.3049 -0.3541  0.3615
  944MOL0     C24530   2.282   3.176   9.481  0.4617 -0.3481  0.1260
  944MOL0     C24531   2.193   3.108   9.391 -0.5549 -0.3910  0.1593
  944MOL0     C24532   2.123   3.197   9.299 -0.1388  0.4064  0.3651
  944MOL0     C24533   2.124   3.334   9.324  0.8029  1.0101  0.4167
  944MOL0     O24534   2.050   3.409   9.236 -0.0346 -0.2582 -0.2845
  944MOL0     C24535   1.927   3.452   9.298 -0.1218 -0.1792 -1.0062
  944MOL0     C24536   1.827   3.519   9.196 -0.9464  0.9527  0.2586
  944MOL0     C24537   1.811   3.407   9.091  0.4766 -0.6415  0.3344
  944MOL0     C24538   1.681   3.415   9.009 -0.8029  0.1754 -0.1195
  944MOL0     C24539   1.683   3.523   8.921 -1.0632  0.1936 -0.4470
  944MOL0     C24540   1.666   3.616   8.854  0.6751 -0.2551  0.0498
  944MOL0     C24541   2.200   3.391   9.420 -0.2316  0.0749 -0.9715
  944MOL0     C24542   2.280   3.310   9.500  0.4339  0.3680 -0.6111
  944MOL0     H24543   2.512   3.245   9.899 -1.6163 -0.5092 -0.5075
  944MOL0     H24544   2.673   3.159  10.051  0.6834 -1.8741  0.8428
  944MOL0     H24545   2.810   3.042  10.187  1.5925  3.0056  2.2571
  944MOL0     H24546   2.926   3.127  10.082  1.5928 -0.1721  1.3806
  944MOL0     H24547   2.989   2.850  10.194 -0.1689  0.9052 -0.4174
  944MOL0     H24548   3.015   2.997  10.287 -0.7493  0.6655  0.1299
  944MOL0     H24549   3.169   3.077  10.144  3.6168 -1.3498 -0.1370
  944MOL0     H24550   3.116   2.977   9.998  0.1596  0.0365 -0.4260
  944MOL0     H24551   3.207   2.778  10.149  1.8627 -1.1433  0.2430
  944MOL0     H24552   3.320   2.895  10.058 -0.9210 -0.1902 -0.9813
  944MOL0     H24553   3.262   2.874  10.357  0.9830  0.1864  0.8206
  944MOL0     H24554   3.333   3.010  10.281 -0.8677  0.1524  2.0806
  944MOL0     H24555   3.511   2.821  10.185 -0.3932  0.3929 -0.3755
  944MOL0     H24556   3.428   2.707  10.297  2.6908  0.1942  0.4874
  944MOL0     H24557   3.566   2.967  10.373  2.3291 -0.6178  2.1657
  944MOL0     H24558   3.487   2.862  10.487  0.1063 -0.7817  0.3531
  944MOL0     H24559   3.662   2.678  10.440  2.0339 -1.3845 -2.9810
  944MOL0     H24560   3.732   2.844  10.474 -0.5489 -0.5800 -0.0693
  944MOL0     H24561   3.708   2.573  10.180  2.3231 -0.0766  0.6152
  944MOL0     H24562   3.893   2.530  10.015  2.0909  1.5808  0.9044
  944MOL0     H24563   3.945   2.670   9.917  2.6073 -1.0366  1.0809
  944MOL0     H24564   3.644   2.610   9.909  0.3167  0.5783  0.6205
  944MOL0     H24565   3.753   2.498   9.823  1.2830 -0.4337 -0.8235
  944MOL0     H24566   3.781   2.797   9.773 -3.0229  1.1169 -0.9117
  944MOL0     H24567   3.855   2.662   9.683 -1.3027 -0.0627 -1.6574
  944MOL0     H24568   3.596   2.588   9.639 -2.8986  1.6046  1.3340
  944MOL0     H24569   3.662   2.720   9.552  0.2637  3.0319  0.8536
  944MOL0     H24570   3.313   2.671   9.792  1.4048 -0.3518 -0.3608
  944MOL0     H24571   3.087   2.718   9.707  1.2624 -0.4345  0.3059
  944MOL0     H24572   3.065   3.145   9.184  0.5373 -0.7832 -1.5854
  944MOL0     H24573   2.893   3.278   9.091  2.0682 -0.2168 -0.4494
  944MOL0     H24574   2.660   3.221   8.970 -2.9109  0.0150 -1.5023
  944MOL0     H24575   2.684   3.392   9.006 -2.5818  0.5495 -1.7944
  944MOL0     H24576   2.492   3.347   8.861 -0.1493  1.5295 -0.2275
  944MOL0     H24577   2.450   3.433   9.015 -2.2411 -0.9323 -0.5598
  944MOL0     H24578   2.352   3.238   9.106  0.4285  2.7543  0.4678
  944MOL0     H24579   2.432   3.147   8.961  1.6988  2.3160 -4.2268
  944MOL0     H24580   2.199   3.350   8.948  0.6807 -0.4723  0.2374
  944MOL0     H24581   2.278   3.260   8.813  1.2362  2.5247  0.4640
  944MOL0     H24582   2.163   3.111   9.040  0.6669  0.4282 -0.8076
  944MOL0     H24583   2.196   3.056   8.872  2.4263  1.1341 -0.7876
  944MOL0     H24584   2.031   3.252   8.829  4.1414  1.4460  2.0050
  944MOL0     H24585   1.969   3.211   8.980  0.1276  2.0104 -1.4790
  944MOL0     H24586   1.867   3.089   8.789  0.0317 -0.8303  1.4234
  944MOL0     H24587   2.029   3.009   8.760 -0.1018  0.3380 -0.1045
  944MOL0     H24588   2.010   2.921   8.999 -0.6139  1.9973  0.6842
  944MOL0     H24589   1.918   2.834   8.877 -1.2678 -0.1822 -1.5146
  944MOL0     H24590   2.602   3.111   9.361 -0.0636 -3.6681  1.1973
  944MOL0     H24591   2.776   2.959   9.447  1.5158  1.9704  2.1618
  944MOL0     H24592   3.280   2.960   9.404 -0.8916 -0.1176 -0.0181
  944MOL0     H24593   3.495   2.905   9.485  0.2210  0.1423 -0.9556
  944MOL0     H24594   2.750   2.836   9.779  1.0143 -0.3671 -0.4790
  944MOL0     H24595   2.611   2.920   9.628  3.5654  1.1749 -0.5384
  944MOL0     H24596   2.192   3.004   9.361  0.9092 -0.3157 -0.2698
  944MOL0     H24597   2.051   3.153   9.230 -0.2984 -1.9586  1.9014
  944MOL0     H24598   1.951   3.528   9.373  0.0688 -1.8096  0.6668
  944MOL0     H24599   1.887   3.360   9.341  0.6502 -0.6382 -1.2488
  944MOL0     H24600   1.730   3.538   9.244  0.1964  0.5126  2.9320
  944MOL0     H24601   1.854   3.613   9.147 -3.4696  0.5020 -2.2667
  944MOL0     H24602   1.804   3.309   9.138 -0.3407 -0.0307  1.5309
  944MOL0     H24603   1.896   3.414   9.022  1.2529 -0.1478  1.3032
  944MOL0     H24604   1.673   3.318   8.958  4.4628 -1.4274  1.5100
  944MOL0     H24605   1.594   3.427   9.076 -0.7065 -1.5272  0.3682
  944MOL0     H24606   1.662   3.705   8.796  2.9618 -1.1615 -1.6272
  944MOL0     H24607   2.193   3.499   9.414  1.2299  0.3157  0.7293
  944MOL0     H24608   2.341   3.356   9.578 -0.5020  2.4177 -1.0433
  945MOL0     O24609   6.517   9.781   2.577  0.0193 -0.4727  0.5985
  945MOL0     C24610   6.544   9.870   2.496 -0.2199  0.0496  0.2640
  945MOL0     O24611   6.591   9.854   2.374  0.0485  0.0377 -0.1990
  945MOL0     C24612   6.580   9.723   2.325 -0.1574 -0.8672  0.3147
  945MOL0     C24613   6.700   9.650   2.319 -0.1429  0.3112 -0.2482
  945MOL0     C24614   6.698   9.511   2.286  0.7178 -0.6444  0.3691
  945MOL0     C24615   6.577   9.453   2.241  0.3596 -0.4576 -0.2224
  945MOL0     O24616   6.568   9.318   2.220 -0.8658  0.1498 -0.1138
  945MOL0     C24617   6.599   9.243   2.338  0.3783 -0.4164 -0.0268
  945MOL0     C24618   6.547   9.098   2.322 -0.5898  0.4398  0.1969
  945MOL0     C24619   6.569   9.014   2.448  0.7273 -0.3239  0.5607
  945MOL0     C24620   6.715   9.003   2.482  0.0148 -0.0695 -0.2804
  945MOL0     C24621   6.733   8.894   2.589 -0.0227 -0.4906 -0.3404
  945MOL0     C24622   6.654   8.916   2.716 -0.5578  0.6308 -0.3324
  945MOL0     C24623   6.721   8.831   2.828 -0.0333  0.3761 -0.9775
  945MOL0     C24624   6.664   8.853   2.970 -0.6560  0.0483  0.1235
  945MOL0     N24625   6.529   8.799   2.987  0.1101 -0.7921 -0.2509
  945MOL0     C24626   6.500   8.682   3.065  0.4290 -1.4955  0.3512
  945MOL0     C24627   6.368   8.675   3.050 -0.7018  0.6097  0.0585
  945MOL0     C24628   6.301   8.562   3.105 -0.2555  0.0959  0.2318
  945MOL0     C24629   6.153   8.587   3.112  0.7674 -0.1453 -0.1332
  945MOL0     C24630   6.080   8.451   3.150  0.0011  0.2755 -0.6031
  945MOL0     C24631   5.924   8.459   3.124 -0.3881 -0.1751 -0.6440
  945MOL0     O24632   5.888   8.600   3.120  0.0056  0.4209  0.0528
  945MOL0     C24633   5.761   8.624   3.090 -0.0073 -1.2208 -0.0040
  945MOL0     C24634   5.721   8.747   3.131 -0.1849 -0.5859  0.1750
  945MOL0     C24635   5.592   8.789   3.105  0.4054  0.0986  0.1129
  945MOL0     C24636   5.501   8.711   3.037  0.1958 -0.0258 -0.6089
  945MOL0     C24637   5.363   8.764   3.005 -0.6428  0.5221  0.3295
  945MOL0     O24638   5.286   8.689   2.921  0.0625  0.2485 -0.0850
  945MOL0     C24639   5.163   8.725   2.894  0.9800  0.3439  0.2770
  945MOL0     C24640   5.063   8.712   2.994 -0.1972 -0.5792  0.2638
  945MOL0     C24641   4.927   8.737   2.969 -0.0609 -1.1741  0.6664
  945MOL0     C24642   4.896   8.778   2.834  0.4891  0.0046  0.3293
  945MOL0     O24643   4.767   8.794   2.785 -0.4558  0.0589  0.0329
  945MOL0     C24644   4.670   8.716   2.846  0.9707  0.0765  0.1560
  945MOL0     C24645   4.537   8.751   2.775  0.6857 -0.4280 -0.1519
  945MOL0     C24646   4.416   8.675   2.827 -0.4864 -0.5928  0.1652
  945MOL0     C24647   4.285   8.743   2.775 -0.5440 -0.1127  0.4219
  945MOL0     C24648   4.214   8.831   2.874 -0.1629 -0.0641  0.0790
  945MOL0     C24649   4.078   8.892   2.823 -0.2980  0.1936 -0.4583
  945MOL0     C24650   3.962   8.796   2.812 -0.2402 -0.4253  0.0384
  945MOL0     C24651   3.904   8.768   2.959 -0.0512  1.6534 -0.4949
  945MOL0    Cl24652   3.808   8.608   2.944  0.2339  0.1603 -0.2538
  945MOL0     C24653   4.999   8.801   2.739 -0.3537  0.8108 -0.4271
  945MOL0     C24654   5.125   8.774   2.772  0.0446 -0.0463  0.6037
  945MOL0     O24655   5.327   8.862   3.070  0.3944 -0.4832  0.4119
  945MOL0     C24656   5.537   8.586   2.997  0.4819 -0.0230 -1.0581
  945MOL0     C24657   5.668   8.543   3.018  0.1763  0.0056 -0.0120
  945MOL0     N24658   6.319   8.785   2.983  0.7175 -0.0718  0.4252
  945MOL0     N24659   6.417   8.856   2.942  0.7149 -0.1202  0.1359
  945MOL0     C24660   6.462   9.537   2.241  0.7502 -0.0140 -0.3783
  945MOL0     C24661   6.467   9.670   2.287  0.4962  0.5852 -0.2055
  945MOL0     C24662   6.537  10.016   2.538 -0.5145 -0.9567 -0.5061
  945MOL0     C24663   6.567  10.132   2.456 -0.0327  1.0703  0.4850
  945MOL0     C24664   6.535  10.259   2.493 -1.3841 -0.4684 -0.4053
  945MOL0     C24665   6.485  10.287   2.617 -0.2323  0.0668  0.6209
  945MOL0     O24666   6.453  10.417   2.651  0.0281 -0.5297  0.8314
  945MOL0     C24667   6.455  10.466   2.780 -0.1644 -0.6322  0.5084
  945MOL0     C24668   6.411  10.614   2.771 -0.3511 -0.7837  0.1765
  945MOL0     C24669   6.263  10.617   2.726 -0.0208 -0.0613  0.2196
  945MOL0     C24670   6.209  10.753   2.673 -0.5786  0.5738 -0.5052
  945MOL0     C24671   6.178  10.839   2.791 -0.1091 -0.8092  0.3315
  945MOL0     C24672   6.127  10.923   2.872 -0.0316  0.4172 -0.1071
  945MOL0     C24673   6.464  10.177   2.704 -0.8279  0.6596 -0.3061
  945MOL0     C24674   6.493  10.047   2.670 -0.1704  0.2151 -0.3362
  945MOL0     H24675   6.789   9.701   2.353 -1.6169  2.1636  0.9671
  945MOL0     H24676   6.792   9.459   2.299  1.9190  0.9276 -1.4737
  945MOL0     H24677   6.549   9.274   2.430 -1.5332 -1.3228 -0.7002
  945MOL0     H24678   6.705   9.224   2.357  0.5066 -2.8600 -2.5542
  945MOL0     H24679   6.589   9.046   2.235 -0.8580  0.3308  0.1330
  945MOL0     H24680   6.441   9.109   2.300 -0.7903 -1.7469 -0.2280
  945MOL0     H24681   6.523   8.917   2.426 -0.5882  0.6488 -1.2720
  945MOL0     H24682   6.509   9.059   2.528 -0.5520 -0.5701 -0.2203
  945MOL0     H24683   6.767   8.992   2.387 -0.4074 -0.5829 -0.4571
  945MOL0     H24684   6.746   9.097   2.529  3.1544 -0.3660 -1.5268
  945MOL0     H24685   6.839   8.897   2.615 -0.3157  2.1090  0.8148
  945MOL0     H24686   6.698   8.794   2.559  0.2992 -0.6521 -0.1826
  945MOL0     H24687   6.553   8.886   2.689  0.0268  0.6304 -2.7643
  945MOL0     H24688   6.649   9.023   2.739 -3.4845 -0.1202  3.4090
  945MOL0     H24689   6.710   8.723   2.813  1.4092 -0.2517  1.8144
  945MOL0     H24690   6.828   8.849   2.837  0.2705 -1.4179 -0.5184
  945MOL0     H24691   6.662   8.962   2.985  2.8834  0.4234 -1.1389
  945MOL0     H24692   6.733   8.818   3.047  1.4878  1.1239 -1.2321
  945MOL0     H24693   6.574   8.612   3.104  2.0882  0.0249  0.0749
  945MOL0     H24694   6.334   8.539   3.207 -0.2582 -0.9930 -0.0042
  945MOL0     H24695   6.318   8.473   3.044  0.9224 -0.2105  0.9768
  945MOL0     H24696   6.109   8.619   3.017 -0.1974  1.1964  0.7255
  945MOL0     H24697   6.137   8.675   3.176 -0.3158  1.3911 -2.3954
  945MOL0     H24698   6.127   8.368   3.096 -0.2127 -0.4163  0.2436
  945MOL0     H24699   6.101   8.435   3.257 -0.4788 -1.3204 -0.7258
  945MOL0     H24700   5.879   8.396   3.201  2.6568 -1.1521  0.4891
  945MOL0     H24701   5.912   8.416   3.025  0.5631 -1.3135 -0.2997
  945MOL0     H24702   5.780   8.819   3.186 -0.6225  0.5811 -0.8360
  945MOL0     H24703   5.557   8.888   3.133  0.8597  0.1346  0.5606
  945MOL0     H24704   5.098   8.669   3.088  1.2366 -3.8178 -1.5824
  945MOL0     H24705   4.846   8.722   3.040  1.6021 -0.3986  2.8370
  945MOL0     H24706   4.657   8.733   2.953 -2.3011  1.2676 -0.3201
  945MOL0     H24707   4.691   8.609   2.834  0.0655 -0.0903 -0.0036
  945MOL0     H24708   4.550   8.744   2.667  3.1178  0.2013  0.0515
  945MOL0     H24709   4.499   8.850   2.803  1.6592  0.3057 -1.3382
  945MOL0     H24710   4.420   8.672   2.936 -1.8526  0.9967  0.2942
  945MOL0     H24711   4.417   8.577   2.778 -2.8542  0.6865 -2.7192
  945MOL0     H24712   4.312   8.802   2.687 -0.8953 -1.8691 -0.9232
  945MOL0     H24713   4.215   8.666   2.743 -0.8790  1.6722 -3.8147
  945MOL0     H24714   4.284   8.908   2.906  0.8384 -1.6183  1.8645
  945MOL0     H24715   4.199   8.766   2.961  1.4481 -1.6576 -0.7731
  945MOL0     H24716   4.101   8.936   2.726 -0.6804  1.4528 -0.0076
  945MOL0     H24717   4.045   8.974   2.888 -0.2280 -1.0215  1.1608
  945MOL0     H24718   3.877   8.834   2.756 -0.3941 -1.0278 -0.1427
  945MOL0     H24719   3.989   8.699   2.770  1.3914 -0.1825  0.4365
  945MOL0     H24720   3.831   8.839   2.998 -1.4945 -0.8577  1.7617
  945MOL0     H24721   3.988   8.757   3.028  0.0037  1.4867 -0.5864
  945MOL0     H24722   4.978   8.830   2.636  1.7724 -0.0583 -1.1659
  945MOL0     H24723   5.200   8.786   2.695  1.1973  0.6090  1.7915
  945MOL0     H24724   5.473   8.511   2.952 -1.3380 -0.0714  1.3697
  945MOL0     H24725   5.694   8.443   2.986  0.5987  0.5341 -1.3913
  945MOL0     H24726   6.372   9.482   2.214  0.1696  0.3987  0.6746
  945MOL0     H24727   6.382   9.737   2.293  0.0460  0.0982 -1.0031
  945MOL0     H24728   6.613  10.095   2.365  0.5605  0.4758  1.0057
  945MOL0     H24729   6.560  10.342   2.428  2.3370  0.1396  1.5435
  945MOL0     H24730   6.555  10.460   2.824  0.2263 -0.4045 -0.3151
  945MOL0     H24731   6.383  10.412   2.842 -2.0546 -1.1212 -1.9240
  945MOL0     H24732   6.416  10.665   2.868 -1.9560  0.9871 -0.5922
  945MOL0     H24733   6.477  10.658   2.696  0.4506 -0.7752  0.8742
  945MOL0     H24734   6.199  10.572   2.803  1.6123 -1.1744  0.9911
  945MOL0     H24735   6.249  10.561   2.633  0.2856  1.6639 -0.9229
  945MOL0     H24736   6.289  10.811   2.625 -1.3870  1.2613 -1.0737
  945MOL0     H24737   6.115  10.736   2.620 -0.4778  0.2453 -0.5806
  945MOL0     H24738   6.098  10.994   2.947  1.2204  1.5968 -0.6907
  945MOL0     H24739   6.425  10.201   2.802  0.6081  0.4855  0.3160
  945MOL0     H24740   6.465   9.971   2.742 -0.4287 -0.0816 -0.7434
  946MOL0     O24741  10.292   5.018   8.982  0.5911  1.0287 -0.1608
  946MOL0     C24742  10.255   4.902   8.969  0.0284  0.0178  0.5207
  946MOL0     O24743  10.125   4.862   8.966  0.2454  0.4915  0.4314
  946MOL0     C24744  10.012   4.940   8.976 -0.4465  0.2256  0.8089
  946MOL0     C24745   9.998   5.082   8.983  0.2805 -0.3246  0.1483
  946MOL0     C24746   9.872   5.138   9.011 -0.3053 -0.6516 -0.2535
  946MOL0     C24747   9.757   5.064   9.033  0.6379  0.8572  0.1231
  946MOL0     O24748   9.623   5.113   9.054 -0.5134  0.4175 -0.0654
  946MOL0     C24749   9.620   5.223   9.140  0.0668  0.0434  0.0873
  946MOL0     C24750   9.481   5.267   9.184 -0.1338 -0.1616 -0.6550
  946MOL0     C24751   9.397   5.351   9.087 -0.0732 -0.3036 -0.1408
  946MOL0     C24752   9.352   5.249   8.976 -0.2233 -0.2942  0.4987
  946MOL0     C24753   9.217   5.296   8.919  0.0764 -0.1630 -0.1723
  946MOL0     C24754   9.161   5.204   8.804 -0.0749  0.2182  0.5671
  946MOL0     C24755   9.065   5.280   8.704 -0.3294  0.8096  0.1234
  946MOL0     C24756   8.920   5.284   8.768  0.4292 -0.1561 -0.1019
  946MOL0     N24757   8.844   5.160   8.749  0.4075  0.2835 -0.1993
  946MOL0     C24758   8.801   5.073   8.850 -0.8087 -0.3398  0.1000
  946MOL0     C24759   8.754   4.966   8.776  0.5073 -0.4165 -0.7586
  946MOL0     C24760   8.688   4.844   8.833  0.4160 -0.0404 -0.2616
  946MOL0     C24761   8.578   4.795   8.743 -0.0789 -0.9439 -0.0079
  946MOL0     C24762   8.495   4.684   8.812  0.4324 -0.0233  0.2469
  946MOL0     C24763   8.405   4.609   8.715 -0.1234  0.9461  0.1302
  946MOL0     O24764   8.262   4.611   8.750  0.0927 -0.1063 -0.2417
  946MOL0     C24765   8.205   4.728   8.761  0.3487 -0.5723  0.2229
  946MOL0     C24766   8.092   4.737   8.843  0.2746 -0.3391 -0.4327
  946MOL0     C24767   8.008   4.849   8.849  0.0414  0.6008 -0.2048
  946MOL0     C24768   8.041   4.961   8.765  0.2230 -0.5673 -0.6235
  946MOL0     C24769   7.950   5.072   8.761 -0.7545 -0.4488  0.3430
  946MOL0     O24770   7.822   5.048   8.815  0.2843  0.6180 -0.3290
  946MOL0     C24771   7.721   5.143   8.843  0.2513  0.0250 -0.3219
  946MOL0     C24772   7.739   5.271   8.873  0.5285 -0.4224  1.4285
  946MOL0     C24773   7.623   5.358   8.880  0.0727  0.9218 -0.6287
  946MOL0     C24774   7.500   5.304   8.880  0.5130 -0.0715  0.1713
  946MOL0     O24775   7.387   5.374   8.899 -0.0945 -0.1664 -0.4252
  946MOL0     C24776   7.401   5.471   9.006 -0.4561  0.2534  0.4831
  946MOL0     C24777   7.266   5.501   9.077  0.0717 -0.6681 -0.5400
  946MOL0     C24778   7.147   5.508   8.981  0.0324 -0.3518  0.0057
  946MOL0     C24779   7.156   5.639   8.892 -0.0664 -0.9560 -0.2112
  946MOL0     C24780   7.038   5.650   8.800  0.5677 -0.1818 -0.0668
  946MOL0     C24781   6.901   5.669   8.873  0.2018 -0.1425  0.1148
  946MOL0     C24782   6.786   5.707   8.766  0.1712 -0.0180 -0.2108
  946MOL0     C24783   6.650   5.667   8.806 -0.5599 -0.2173  0.3696
  946MOL0    Cl24784   6.560   5.664   8.660  0.0554  0.0936 -0.2853
  946MOL0     C24785   7.486   5.167   8.860  0.0320  0.0374  0.7011
  946MOL0     C24786   7.596   5.085   8.839 -0.5776  0.0280 -0.6422
  946MOL0     O24787   7.991   5.182   8.720 -0.3990  0.9045  0.7914
  946MOL0     C24788   8.147   4.945   8.677  0.2653 -0.0791 -0.1453
  946MOL0     C24789   8.233   4.838   8.681 -0.3359 -0.2966 -0.5522
  946MOL0     N24790   8.772   4.987   8.642 -0.5407  0.4094  0.3419
  946MOL0     N24791   8.823   5.104   8.630 -0.1036 -0.2343  0.5800
  946MOL0     C24792   9.767   4.932   9.010  0.7407 -0.6464 -0.1134
  946MOL0     C24793   9.891   4.866   8.984  0.1697 -0.4965 -0.0741
  946MOL0     C24794  10.356   4.804   8.947 -0.1399  0.1164  0.5116
  946MOL0     C24795  10.495   4.846   8.940  0.6951  0.4463 -0.1151
  946MOL0     C24796  10.588   4.746   8.910 -0.3163 -0.4904  0.2036
  946MOL0     C24797  10.552   4.610   8.894  0.5597 -0.6242  0.4319
  946MOL0     O24798  10.654   4.518   8.879 -0.4223  0.9719  0.0765
  946MOL0     C24799  10.629   4.418   8.780  0.1153  0.2542  0.8622
  946MOL0     C24800  10.757   4.349   8.739 -0.5445 -0.1496  0.7744
  946MOL0     C24801  10.828   4.274   8.855 -0.0295  0.9032 -0.6653
  946MOL0     C24802  10.929   4.186   8.795 -0.5520  1.0754  0.7744
  946MOL0     C24803  11.046   4.249   8.732  0.1105 -0.1463 -0.5633
  946MOL0     C24804  11.154   4.283   8.688 -0.0532 -0.5539 -0.5092
  946MOL0     C24805  10.417   4.573   8.911 -0.2871 -0.3505 -0.2024
  946MOL0     C24806  10.320   4.669   8.948 -0.0809 -0.1519  0.0677
  946MOL0     H24807  10.089   5.140   8.992 -1.4590  2.2740  2.1259
  946MOL0     H24808   9.876   5.246   9.027 -1.2162 -0.2731 -2.2516
  946MOL0     H24809   9.672   5.308   9.095 -2.5685  1.0453 -1.3047
  946MOL0     H24810   9.673   5.191   9.230  0.5175 -0.2891 -0.2927
  946MOL0     H24811   9.496   5.321   9.278  1.2539 -1.9735  0.2375
  946MOL0     H24812   9.417   5.181   9.206  1.3489 -1.2744 -0.5890
  946MOL0     H24813   9.452   5.439   9.054 -0.5561  0.8609  1.9382
  946MOL0     H24814   9.306   5.392   9.132 -0.1922  1.6804 -2.0267
  946MOL0     H24815   9.413   5.264   8.886 -0.5502  3.1113  0.6959
  946MOL0     H24816   9.351   5.143   9.002 -0.2286 -1.0693 -2.2889
  946MOL0     H24817   9.233   5.394   8.874  0.5183 -0.2667 -0.2408
  946MOL0     H24818   9.142   5.302   8.998 -1.6345  0.2129 -1.7506
  946MOL0     H24819   9.112   5.115   8.843 -1.3581  1.7337  2.5896
  946MOL0     H24820   9.247   5.160   8.752 -1.6348 -2.3598 -0.0326
  946MOL0     H24821   9.103   5.378   8.677 -0.2893  0.6297 -0.4746
  946MOL0     H24822   9.075   5.223   8.611 -2.2795  1.7081 -0.6853
  946MOL0     H24823   8.864   5.371   8.733  0.9758  0.2566  0.0271
  946MOL0     H24824   8.937   5.303   8.874  1.5332  1.3026 -0.5064
  946MOL0     H24825   8.804   5.100   8.955  3.0682 -0.3313  0.1322
  946MOL0     H24826   8.655   4.878   8.932  0.9072 -0.4935  0.0593
  946MOL0     H24827   8.772   4.775   8.845 -0.2869 -1.0044 -0.7917
  946MOL0     H24828   8.634   4.774   8.652 -1.0441 -2.0872 -0.3671
  946MOL0     H24829   8.507   4.874   8.716 -1.9797 -3.0538 -1.5820
  946MOL0     H24830   8.559   4.619   8.872 -0.6734 -0.1374  1.3491
  946MOL0     H24831   8.428   4.734   8.884  0.8564  1.3352 -0.2607
  946MOL0     H24832   8.440   4.505   8.714  1.3959  1.3499  2.6454
  946MOL0     H24833   8.431   4.640   8.613 -0.3809  1.2004  0.1391
  946MOL0     H24834   8.073   4.644   8.895 -0.8116 -0.7704 -1.5640
  946MOL0     H24835   7.918   4.838   8.908 -1.4926  0.3147 -2.4829
  946MOL0     H24836   7.841   5.307   8.872  1.4015 -2.5304 -2.6048
  946MOL0     H24837   7.650   5.463   8.887  1.3479  0.6236 -0.7927
  946MOL0     H24838   7.441   5.563   8.962  0.9971 -0.1366  0.9370
  946MOL0     H24839   7.471   5.432   9.080 -0.7736  2.3222  1.9798
  946MOL0     H24840   7.287   5.598   9.122  1.2335 -0.6346 -1.1195
  946MOL0     H24841   7.234   5.431   9.155 -0.7972  0.2797 -0.0299
  946MOL0     H24842   7.059   5.520   9.044 -0.7091 -2.4602 -0.5620
  946MOL0     H24843   7.144   5.421   8.914  4.1517  1.6770 -3.3277
  946MOL0     H24844   7.161   5.724   8.960  2.5680 -1.6281  0.5357
  946MOL0     H24845   7.249   5.629   8.835  1.0830 -4.3052  1.9034
  946MOL0     H24846   7.036   5.551   8.753 -0.6869 -0.5122  0.6469
  946MOL0     H24847   7.053   5.734   8.731  1.7847  0.2188  0.6549
  946MOL0     H24848   6.909   5.746   8.950  1.1441  2.1936 -2.1777
  946MOL0     H24849   6.868   5.583   8.932  1.7898  1.1875  3.1387
  946MOL0     H24850   6.785   5.814   8.745 -2.2971 -0.1902 -1.3195
  946MOL0     H24851   6.806   5.646   8.677 -0.7944 -0.4633 -0.1390
  946MOL0     H24852   6.610   5.744   8.873 -0.1274  0.8283 -0.5454
  946MOL0     H24853   6.646   5.570   8.857  0.2164  0.3892  1.6498
  946MOL0     H24854   7.394   5.110   8.864  0.2174 -0.3243 -0.0945
  946MOL0     H24855   7.575   4.982   8.812  0.1483 -0.1837 -0.4181
  946MOL0     H24856   8.162   5.023   8.603 -0.4620 -0.2991 -0.5351
  946MOL0     H24857   8.318   4.841   8.614  0.3738 -2.3123  0.1850
  946MOL0     H24858   9.684   4.862   9.014  1.8519 -2.2151 -2.4791
  946MOL0     H24859   9.902   4.758   8.994  0.3922 -0.4672 -0.0056
  946MOL0     H24860  10.522   4.950   8.953 -0.1356  1.1151 -3.0135
  946MOL0     H24861  10.692   4.780   8.910 -0.8866  1.3547  0.4927
  946MOL0     H24862  10.583   4.458   8.689  0.4322 -0.5366  0.3469
  946MOL0     H24863  10.558   4.345   8.819 -1.7186  2.0917  1.1749
  946MOL0     H24864  10.743   4.285   8.652  1.1208 -1.0785  1.1419
  946MOL0     H24865  10.822   4.434   8.716 -0.6468 -0.2450  0.1286
  946MOL0     H24866  10.748   4.221   8.908  0.4582  2.7629  2.1135
  946MOL0     H24867  10.891   4.329   8.925  0.3100 -1.1276  0.7055
  946MOL0     H24868  10.970   4.130   8.880 -1.1810  1.9775  1.7022
  946MOL0     H24869  10.881   4.116   8.725  0.5349  2.3046 -1.2895
  946MOL0     H24870  11.244   4.314   8.639  1.8202  1.3071  3.6231
  946MOL0     H24871  10.396   4.467   8.899  0.6609 -0.5442 -0.2283
  946MOL0     H24872  10.213   4.652   8.951 -0.2163  0.7331  0.4428
  947MOL0     O24873   8.684   3.563   0.303  0.1187  0.4890 -1.0109
  947MOL0     C24874   8.699   3.548   0.430  0.8016  0.2670  0.6766
  947MOL0     O24875   8.600   3.523   0.522  0.0857 -0.7030  0.5340
  947MOL0     C24876   8.472   3.494   0.486  0.4368 -0.2058 -0.0462
  947MOL0     C24877   8.416   3.435   0.369 -0.0206 -0.5645 -0.0904
  947MOL0     C24878   8.275   3.431   0.348 -0.4983 -0.2235  0.4181
  947MOL0     C24879   8.190   3.471   0.454  0.7096 -0.4567  0.0381
  947MOL0     O24880   8.055   3.485   0.433  0.8660  0.7474  0.5835
  947MOL0     C24881   7.998   3.474   0.295  0.5034  0.3006 -0.7020
  947MOL0     C24882   7.867   3.545   0.301  0.1405  0.5014  0.6638
  947MOL0     C24883   7.755   3.461   0.364 -0.8314 -0.0085  0.0229
  947MOL0     C24884   7.620   3.529   0.342 -0.3633  0.0305  1.1842
  947MOL0     C24885   7.513   3.426   0.386  0.6246  0.2790 -0.3442
  947MOL0     C24886   7.372   3.501   0.409 -0.4182 -0.1669 -0.9745
  947MOL0     C24887   7.274   3.400   0.467  0.3488 -0.6042 -0.3215
  947MOL0     C24888   7.145   3.480   0.521 -0.5384  0.2852  0.0871
  947MOL0     N24889   7.040   3.519   0.417  0.0843 -0.3492 -0.1282
  947MOL0     C24890   7.057   3.590   0.306 -0.7429  0.3479 -0.7198
  947MOL0     C24891   6.935   3.610   0.260  0.8023  0.3210 -0.8139
  947MOL0     C24892   6.886   3.677   0.132 -0.2421 -0.8280  0.0132
  947MOL0     C24893   6.793   3.796   0.162 -0.2714 -0.3911  0.5695
  947MOL0     C24894   6.659   3.760   0.210  0.2362  0.5924 -0.2908
  947MOL0     C24895   6.588   3.667   0.110  0.2861 -0.1377 -0.2657
  947MOL0     O24896   6.558   3.742  -0.009  0.2310 -0.2757  0.9125
  947MOL0     C24897   6.423   3.734  -0.059 -0.4519  0.3390 -0.0442
  947MOL0     C24898   6.333   3.630  -0.028  0.3381  0.2126  0.7247
  947MOL0     C24899   6.199   3.638  -0.070  0.1645  0.2547 -0.1923
  947MOL0     C24900   6.146   3.762  -0.127 -0.4783  0.3119  0.3780
  947MOL0     C24901   6.010   3.767  -0.170 -0.0656 -0.9711  0.1184
  947MOL0     O24902   5.917   3.715  -0.074  0.4530 -0.0135  0.0068
  947MOL0     C24903   5.783   3.704  -0.103 -0.6176 -0.0205 -0.7116
  947MOL0     C24904   5.707   3.723  -0.217 -0.3000 -0.1695 -0.8268
  947MOL0     C24905   5.568   3.709  -0.222  0.0107  0.6345 -0.6072
  947MOL0     C24906   5.500   3.680  -0.103 -0.3783 -0.1094  0.0717
  947MOL0     O24907   5.364   3.676  -0.106  0.8771  0.0931 -0.2272
  947MOL0     C24908   5.285   3.648   0.006 -0.7236  0.6224  0.0525
  947MOL0     C24909   5.149   3.602  -0.048  0.2736 -0.4365  0.7276
  947MOL0     C24910   5.050   3.573   0.055 -0.0829 -0.4150 -0.2186
  947MOL0     C24911   4.914   3.574  -0.015  0.4470 -0.1871 -0.2365
  947MOL0     C24912   4.801   3.506   0.064 -0.2006 -0.2700  0.5630
  947MOL0     C24913   4.665   3.534  -0.005 -0.2790 -0.4433 -1.2185
  947MOL0     C24914   4.547   3.455   0.055 -0.3061  0.3297  0.2601
  947MOL0     C24915   4.427   3.538   0.051  0.6285  0.1453  0.0881
  947MOL0    Cl24916   4.440   3.658   0.189 -0.0760 -0.2149  0.0082
  947MOL0     C24917   5.574   3.657   0.016  0.4143 -0.5926 -0.5879
  947MOL0     C24918   5.713   3.663   0.015  0.1643 -0.1457  0.1352
  947MOL0     O24919   5.984   3.820  -0.279 -0.4349 -0.4081 -0.0640
  947MOL0     C24920   6.240   3.862  -0.160  0.2048  0.1783  0.4378
  947MOL0     C24921   6.378   3.844  -0.131  1.3523  0.3231 -0.5834
  947MOL0     N24922   6.850   3.545   0.344  0.1696 -0.5084 -0.1870
  947MOL0     N24923   6.909   3.498   0.446 -0.1520  1.3965  0.1531
  947MOL0     C24924   8.242   3.508   0.576  0.4468 -0.1810  0.5252
  947MOL0     C24925   8.380   3.517   0.590  0.5839  0.0473 -0.0852
  947MOL0     C24926   8.841   3.552   0.466 -0.1347 -0.2769  0.1578
  947MOL0     C24927   8.870   3.520   0.601  0.2584  0.0030 -0.3640
  947MOL0     C24928   8.997   3.512   0.640  0.1542 -0.2941 -0.1970
  947MOL0     C24929   9.105   3.540   0.547 -0.5910  0.4505 -0.5796
  947MOL0     O24930   9.229   3.531   0.599 -0.6971 -1.0217 -0.4329
  947MOL0     C24931   9.355   3.540   0.522  1.1420  1.1851 -0.3610
  947MOL0     C24932   9.427   3.670   0.538  0.0393 -0.4800 -0.3549
  947MOL0     C24933   9.466   3.711   0.686  0.0475  0.6160 -0.6642
  947MOL0     C24934   9.553   3.834   0.700  0.4192  0.2373  0.2856
  947MOL0     C24935   9.685   3.814   0.656  0.1546  0.9976  0.0306
  947MOL0     C24936   9.800   3.777   0.628  0.4719 -0.3915  0.5453
  947MOL0     C24937   9.077   3.566   0.415  0.3435  0.5457  0.0404
  947MOL0     C24938   8.943   3.579   0.375  0.2637 -0.0751  0.6385
  947MOL0     H24939   8.485   3.389   0.299 -0.2099 -0.3386 -0.4280
  947MOL0     H24940   8.233   3.394   0.255  0.5694  1.6304 -0.8850
  947MOL0     H24941   7.979   3.369   0.269 -1.0772  0.7325 -1.4082
  947MOL0     H24942   8.054   3.523   0.215 -2.6297  2.9100 -1.5314
  947MOL0     H24943   7.847   3.578   0.198 -1.6879 -1.8003  0.1873
  947MOL0     H24944   7.881   3.637   0.357 -1.7882  1.0152  0.3770
  947MOL0     H24945   7.754   3.465   0.474 -1.7829  2.5828  0.0008
  947MOL0     H24946   7.761   3.359   0.326  0.0206 -0.1647  0.5441
  947MOL0     H24947   7.613   3.621   0.402 -0.4381  0.2611  0.8244
  947MOL0     H24948   7.617   3.546   0.234 -1.0584 -2.9105  0.6663
  947MOL0     H24949   7.547   3.384   0.481 -0.9446 -1.9441 -0.7182
  947MOL0     H24950   7.513   3.337   0.324 -0.3328 -1.9363  2.5894
  947MOL0     H24951   7.327   3.537   0.316 -0.4249 -0.7816 -1.2144
  947MOL0     H24952   7.385   3.576   0.488 -1.1801 -2.9346  1.9853
  947MOL0     H24953   7.249   3.315   0.403 -0.3315 -0.2806 -0.4957
  947MOL0     H24954   7.323   3.368   0.560  1.9112  0.3802 -0.7734
  947MOL0     H24955   7.180   3.573   0.567  2.7822  1.4427 -4.0599
  947MOL0     H24956   7.091   3.418   0.593 -1.4071 -0.3177 -1.0457
  947MOL0     H24957   7.149   3.614   0.255 -2.3311  0.4946 -3.7311
  947MOL0     H24958   6.848   3.610   0.055  2.6554 -0.0248 -2.2902
  947MOL0     H24959   6.978   3.707   0.082 -0.4899  3.8002  1.8313
  947MOL0     H24960   6.784   3.861   0.074  0.8263  0.1397  0.8311
  947MOL0     H24961   6.848   3.850   0.240  2.5079 -2.7599  0.4106
  947MOL0     H24962   6.667   3.725   0.313 -3.7312  3.8283  1.3799
  947MOL0     H24963   6.604   3.853   0.223  1.0790  1.0436  0.1515
  947MOL0     H24964   6.496   3.637   0.162  0.6901 -1.2805 -0.2008
  947MOL0     H24965   6.641   3.578   0.077 -0.9745 -1.5282  1.2909
  947MOL0     H24966   6.358   3.536   0.019 -0.3464  1.1422  3.1698
  947MOL0     H24967   6.132   3.555  -0.047 -1.1515  1.2672 -0.2190
  947MOL0     H24968   5.763   3.726  -0.310  1.3570 -2.3177  0.0102
  947MOL0     H24969   5.509   3.726  -0.312 -1.4181  0.5709  0.2782
  947MOL0     H24970   5.273   3.746   0.054  1.2505  2.8707 -3.5254
  947MOL0     H24971   5.326   3.575   0.076 -1.0484  1.7757  1.5005
  947MOL0     H24972   5.159   3.527  -0.127 -0.6248  0.1482  0.0335
  947MOL0     H24973   5.116   3.692  -0.102 -3.0994 -2.4161 -0.8626
  947MOL0     H24974   5.057   3.649   0.133  1.5326 -0.5008 -0.2465
  947MOL0     H24975   5.075   3.484   0.114  1.7940  2.4479  3.8089
  947MOL0     H24976   4.885   3.680  -0.014  2.2142  0.3601  2.1365
  947MOL0     H24977   4.914   3.531  -0.115  3.0338 -0.7106 -0.0761
  947MOL0     H24978   4.799   3.546   0.165 -0.4896  2.3557 -0.3987
  947MOL0     H24979   4.814   3.397   0.072  1.7207 -0.0408  0.9701
  947MOL0     H24980   4.672   3.516  -0.112  3.0929 -1.2217 -0.9771
  947MOL0     H24981   4.646   3.642   0.001  0.9164 -0.2610 -0.3006
  947MOL0     H24982   4.547   3.363  -0.004  2.9840 -0.6351  1.5652
  947MOL0     H24983   4.573   3.423   0.157 -2.9451  0.7997  1.1685
  947MOL0     H24984   4.333   3.483   0.057  1.1465 -0.6011  3.3454
  947MOL0     H24985   4.431   3.579  -0.050  3.4726 -0.6109 -0.1849
  947MOL0     H24986   5.526   3.626   0.108 -0.2541  3.2444  0.5234
  947MOL0     H24987   5.764   3.623   0.102 -1.1062  0.2115  1.0744
  947MOL0     H24988   6.200   3.955  -0.198  0.7980  0.2648  0.0228
  947MOL0     H24989   6.447   3.926  -0.149  1.7562 -0.0129 -0.6164
  947MOL0     H24990   8.168   3.522   0.655 -0.7342  0.3614 -0.6393
  947MOL0     H24991   8.430   3.524   0.686  0.9258  0.0851 -0.2657
  947MOL0     H24992   8.797   3.489   0.675  3.1059 -2.2962  1.6898
  947MOL0     H24993   9.036   3.494   0.740  1.1724  0.4421 -0.4381
  947MOL0     H24994   9.355   3.524   0.413  2.4995  1.2877 -0.3919
  947MOL0     H24995   9.421   3.464   0.565 -1.0293 -0.6260 -0.0578
  947MOL0     H24996   9.521   3.671   0.482 -0.2089  0.5023 -0.7718
  947MOL0     H24997   9.360   3.749   0.502  2.5613  2.7816  1.5627
  947MOL0     H24998   9.506   3.619   0.729 -2.7693 -0.2230  0.3683
  947MOL0     H24999   9.385   3.727   0.758 -0.4947 -3.2209 -0.1773
  947MOL0     H25000   9.515   3.908   0.629 -0.8828 -0.2267  0.4593
  947MOL0     H25001   9.550   3.885   0.797 -0.7897 -0.6424  0.7436
  947MOL0     H25002   9.898   3.751   0.593 -0.3269 -1.7689 -0.8204
  947MOL0     H25003   9.164   3.587   0.355  0.9018  0.1219  0.6926
  947MOL0     H25004   8.929   3.612   0.273 -1.4504 -0.6650  0.6351
  948MOL0     O25005   9.164  10.480   7.952 -0.4889  0.0688 -0.0693
  948MOL0     C25006   9.210  10.498   8.065 -0.1712 -0.4765  0.1635
  948MOL0     O25007   9.135  10.544   8.170  0.4291  0.7579 -0.1186
  948MOL0     C25008   9.002  10.534   8.157 -0.3527  0.3196  0.4964
  948MOL0     C25009   8.925  10.612   8.068 -0.4822  0.2031  0.2658
  948MOL0     C25010   8.782  10.600   8.054  0.1395 -1.0860  0.8475
  948MOL0     C25011   8.716  10.511   8.137 -0.5978 -0.6011 -1.0321
  948MOL0     O25012   8.578  10.509   8.125 -0.5420 -0.4861  0.1283
  948MOL0     C25013   8.503  10.400   8.188 -0.2044  0.3420 -0.5453
  948MOL0     C25014   8.360  10.440   8.156  0.3527 -0.6043  0.7911
  948MOL0     C25015   8.326  10.393   8.013 -0.3166 -0.2821  0.0515
  948MOL0     C25016   8.195  10.463   7.954 -0.0708 -0.5133 -0.4140
  948MOL0     C25017   8.070  10.391   7.998  0.5181  0.0048  0.8305
  948MOL0     C25018   8.051  10.245   7.951 -0.2383 -0.3890  0.2429
  948MOL0     C25019   8.059  10.229   7.795  0.7705  0.2526  0.3031
  948MOL0     C25020   8.024  10.085   7.754 -0.1845 -0.0947  0.5567
  948MOL0     N25021   7.882  10.054   7.724 -0.6635 -0.3158  0.1352
  948MOL0     C25022   7.856   9.980   7.615  0.3454 -0.8320 -0.4456
  948MOL0     C25023   7.720   9.980   7.602  0.0208 -0.0662 -0.6017
  948MOL0     C25024   7.652   9.929   7.485 -0.3451 -1.2277 -0.9296
  948MOL0     C25025   7.544  10.035   7.432  0.1657  0.4738  0.3241
  948MOL0     C25026   7.476   9.984   7.302  0.0114  0.5493  0.0006
  948MOL0     C25027   7.391  10.092   7.239  0.5138 -0.0699  0.8783
  948MOL0     O25028   7.326  10.179   7.338 -0.9480 -0.2622 -0.2313
  948MOL0     C25029   7.206  10.158   7.400  0.2803 -0.1546 -0.1916
  948MOL0     C25030   7.139  10.278   7.441 -0.3911 -0.3724  0.3435
  948MOL0     C25031   7.017  10.267   7.510  0.5104 -0.2818 -0.1739
  948MOL0     C25032   6.954  10.136   7.520 -0.1973  0.6571  0.3518
  948MOL0     C25033   6.820  10.131   7.584 -0.3632  0.8901 -0.4748
  948MOL0     O25034   6.779  10.012   7.643 -0.3224 -0.2513 -0.0221
  948MOL0     C25035   6.658  10.007   7.706 -0.3179  0.5906 -0.9043
  948MOL0     C25036   6.636  10.100   7.819  0.5981  0.7331  0.5905
  948MOL0     C25037   6.522  10.089   7.899  0.0168 -0.2111 -1.0889
  948MOL0     C25038   6.423   9.998   7.863  0.4759  0.0248 -0.5619
  948MOL0     O25039   6.307   9.993   7.945 -0.0252  0.4096  0.7376
  948MOL0     C25040   6.205   9.902   7.911  0.1223  0.3383 -0.0099
  948MOL0     C25041   6.098   9.909   8.012  0.0289  0.0109  0.0047
  948MOL0     C25042   5.983   9.815   7.983  0.4628  0.2187 -0.2888
  948MOL0     C25043   5.850   9.846   8.049  0.1072  0.1814  0.0882
  948MOL0     C25044   5.730   9.758   7.998  0.2940 -0.0024  0.3069
  948MOL0     C25045   5.605   9.820   8.049 -0.1076  0.6766 -0.2279
  948MOL0     C25046   5.490   9.723   8.028 -0.6840 -0.1815 -0.6292
  948MOL0     C25047   5.350   9.778   8.062  0.4790  0.7169 -0.4433
  948MOL0    Cl25048   5.223   9.653   8.044 -0.6058 -0.5129  0.1655
  948MOL0     C25049   6.442   9.911   7.746 -0.1132 -0.3137 -0.4454
  948MOL0     C25050   6.562   9.910   7.680  0.0882  0.2149 -0.0458
  948MOL0     O25051   6.751  10.236   7.585 -0.2698  0.1136  0.7754
  948MOL0     C25052   7.015  10.023   7.476 -0.5634  0.5256  0.2854
  948MOL0     C25053   7.145  10.029   7.424 -0.2975 -0.3759 -0.6004
  948MOL0     N25054   7.673  10.056   7.715  0.5566 -0.3317 -0.1759
  948MOL0     N25055   7.767  10.099   7.781 -0.9415 -0.0702  0.9262
  948MOL0     C25056   8.796  10.431   8.226 -0.0347  1.1336 -0.8124
  948MOL0     C25057   8.940  10.444   8.235 -1.3752  0.0039  0.1325
  948MOL0     C25058   9.359  10.491   8.084  0.0441 -0.5891 -0.4820
  948MOL0     C25059   9.438  10.491   7.966 -0.8166 -0.3296 -0.0812
  948MOL0     C25060   9.580  10.468   7.968  0.1416 -0.3225 -0.1878
  948MOL0     C25061   9.645  10.447   8.090 -0.3361 -0.6510  0.1001
  948MOL0     O25062   9.783  10.438   8.095 -0.1160  0.1124  0.4549
  948MOL0     C25063   9.847  10.362   8.199  0.7427 -0.4738  0.8719
  948MOL0     C25064   9.972  10.295   8.147  0.5494 -0.8098  0.2356
  948MOL0     C25065  10.025  10.211   8.264  0.6888  0.2822 -0.2010
  948MOL0     C25066  10.152  10.121   8.212  0.2356  0.3475 -0.0676
  948MOL0     C25067  10.288  10.190   8.210  0.2369  0.0128  0.6050
  948MOL0     C25068  10.384  10.257   8.213  0.1096  0.9672 -0.2055
  948MOL0     C25069   9.569  10.443   8.214 -0.2581 -0.0281 -0.0927
  948MOL0     C25070   9.431  10.460   8.206 -1.3731  0.4825 -0.1888
  948MOL0     H25071   8.972  10.679   7.997  0.6289  0.7792  1.4980
  948MOL0     H25072   8.727  10.651   7.976 -1.1866  0.1924  2.5381
  948MOL0     H25073   8.532  10.399   8.293  0.4148  3.6347 -0.5767
  948MOL0     H25074   8.527  10.306   8.138  0.7129  0.9875 -1.3631
  948MOL0     H25075   8.340  10.548   8.164  0.6903 -0.2428 -2.0696
  948MOL0     H25076   8.296  10.392   8.230  1.2849 -0.1514  1.9225
  948MOL0     H25077   8.318  10.284   8.016  0.9694 -0.3861  0.3628
  948MOL0     H25078   8.409  10.424   7.950 -1.1504 -2.1086 -2.1012
  948MOL0     H25079   8.201  10.565   7.992  4.0233 -1.0956  1.0390
  948MOL0     H25080   8.191  10.474   7.845  1.2271 -0.1873 -0.4514
  948MOL0     H25081   7.983  10.439   7.954 -0.1680 -2.2755 -0.5033
  948MOL0     H25082   8.075  10.391   8.108 -1.7190 -1.9873  1.0151
  948MOL0     H25083   7.959  10.200   7.989 -0.7832 -0.6405 -1.2981
  948MOL0     H25084   8.137  10.187   7.986  1.6983  1.3993 -1.2873
  948MOL0     H25085   7.993  10.300   7.743 -0.4329 -2.0559 -1.4653
  948MOL0     H25086   8.162  10.252   7.768  0.5519  1.2260  0.2286
  948MOL0     H25087   8.059  10.013   7.828 -0.0583 -0.6095  0.0091
  948MOL0     H25088   8.078  10.072   7.660 -1.8904  1.9551 -0.7991
  948MOL0     H25089   7.924   9.930   7.547  3.1780 -0.7641  2.1051
  948MOL0     H25090   7.600   9.842   7.525 -0.3225 -0.5202  0.7241
  948MOL0     H25091   7.721   9.899   7.406 -0.8344  0.4226 -2.0337
  948MOL0     H25092   7.608  10.120   7.408  1.0787 -0.0551  0.7952
  948MOL0     H25093   7.474  10.066   7.510  1.3464  1.7216  0.9253
  948MOL0     H25094   7.547   9.948   7.227  2.1060 -0.7926  2.4684
  948MOL0     H25095   7.412   9.897   7.322 -1.7975  2.0624  1.1246
  948MOL0     H25096   7.311  10.043   7.183  1.2186  1.2041 -1.3889
  948MOL0     H25097   7.453  10.146   7.167 -0.4215 -0.4831 -0.2689
  948MOL0     H25098   7.192  10.366   7.409  2.0149 -2.1965 -1.0221
  948MOL0     H25099   6.980  10.355   7.561  2.9425  0.2818  0.7557
  948MOL0     H25100   6.706  10.179   7.840 -1.1186  1.7480  3.0036
  948MOL0     H25101   6.510  10.156   7.983 -0.3368 -2.5042  0.8208
  948MOL0     H25102   6.250   9.803   7.904  0.9545  0.8252 -3.4352
  948MOL0     H25103   6.174   9.910   7.806 -0.4723  0.3149  0.1602
  948MOL0     H25104   6.062  10.010   8.032  0.0660 -0.1378  0.8268
  948MOL0     H25105   6.145   9.870   8.103 -0.4333 -1.9359 -0.5298
  948MOL0     H25106   6.015   9.719   8.026  1.3473  0.9716  0.7892
  948MOL0     H25107   5.959   9.817   7.876  3.1181 -0.9444 -1.0040
  948MOL0     H25108   5.866   9.821   8.154  0.1603 -1.8741 -0.3628
  948MOL0     H25109   5.818   9.950   8.041 -1.8227 -0.2879  1.0171
  948MOL0     H25110   5.744   9.656   8.035 -0.4779  0.4125  1.8003
  948MOL0     H25111   5.732   9.749   7.889 -1.3700 -0.9121  0.3169
  948MOL0     H25112   5.587   9.909   7.987 -0.6581  1.6141  1.2326
  948MOL0     H25113   5.630   9.834   8.154  1.7571  1.0440 -0.6830
  948MOL0     H25114   5.485   9.687   7.925  0.3173  0.9125 -1.0909
  948MOL0     H25115   5.520   9.636   8.087 -0.3123  0.7594  0.6191
  948MOL0     H25116   5.323   9.862   7.998 -3.4512 -1.1356 -1.5840
  948MOL0     H25117   5.347   9.818   8.164  0.5222 -1.9409  0.6957
  948MOL0     H25118   6.377   9.831   7.713 -0.5823  0.1149 -0.5839
  948MOL0     H25119   6.577   9.833   7.604 -1.5424  0.3609 -0.5612
  948MOL0     H25120   6.962   9.929   7.493  1.5419 -0.9374 -0.7351
  948MOL0     H25121   7.191   9.941   7.380  0.8099  0.7648 -1.8466
  948MOL0     H25122   8.763  10.349   8.288  0.0501  1.1151 -0.7909
  948MOL0     H25123   8.997  10.384   8.305 -3.1250 -1.1925  0.6271
  948MOL0     H25124   9.385  10.493   7.871  1.9304  0.0060 -1.6993
  948MOL0     H25125   9.640  10.460   7.879 -0.4482 -0.7337 -0.5603
  948MOL0     H25126   9.776  10.284   8.230  1.1863 -2.1969 -2.0257
  948MOL0     H25127   9.878  10.428   8.280 -0.1335  1.9716 -0.6755
  948MOL0     H25128   9.952  10.233   8.059  0.4231 -0.9817  0.3832
  948MOL0     H25129  10.041  10.376   8.123 -0.2650 -0.6467 -1.7255
  948MOL0     H25130   9.947  10.155   8.317 -1.1692  0.5013 -2.5397
  948MOL0     H25131  10.061  10.269   8.350 -1.7039  0.7647  0.5701
  948MOL0     H25132  10.166  10.036   8.280  1.1698  0.0441 -0.6207
  948MOL0     H25133  10.138  10.090   8.108  1.9127  0.8292 -0.4733
  948MOL0     H25134  10.464  10.328   8.222  0.6405  0.8509 -2.9403
  948MOL0     H25135   9.608  10.433   8.315  1.5970 -5.1445 -1.0056
  948MOL0     H25136   9.373  10.455   8.298 -1.2889 -1.7624 -0.2152
  949MOL0     O25137   4.200   9.646   5.006 -0.5245 -1.4292  0.5545
  949MOL0     C25138   4.282   9.661   4.917  0.3224 -0.1984 -0.3222
  949MOL0     O25139   4.255   9.645   4.781 -0.4905 -0.2374  0.4178
  949MOL0     C25140   4.142   9.588   4.747  0.2364 -0.2422  0.9744
  949MOL0     C25141   4.143   9.463   4.687 -0.0844  0.3669 -0.3492
  949MOL0     C25142   4.025   9.402   4.654 -0.1023  0.0063 -0.8320
  949MOL0     C25143   3.896   9.456   4.681 -0.2695  0.1350  0.8126
  949MOL0     O25144   3.775   9.392   4.647 -0.3468 -0.0737  0.1472
  949MOL0     C25145   3.643   9.453   4.675 -0.0080 -0.1958 -0.5683
  949MOL0     C25146   3.546   9.334   4.668  0.1350 -0.1529  0.1680
  949MOL0     C25147   3.409   9.364   4.712 -0.2664  0.4098 -0.3667
  949MOL0     C25148   3.321   9.236   4.741  0.4219  0.4025  0.4513
  949MOL0     C25149   3.171   9.276   4.754  0.6342  0.7523 -0.3094
  949MOL0     C25150   3.101   9.141   4.729 -0.2626 -0.3828  0.2153
  949MOL0     C25151   2.949   9.158   4.771 -0.4232  0.5458 -0.3697
  949MOL0     C25152   2.876   9.034   4.732  0.0516 -0.4303  0.2410
  949MOL0     N25153   2.735   9.056   4.758  0.9635  0.1438 -0.1221
  949MOL0     C25154   2.676   9.090   4.882 -0.8896 -0.5433  0.3481
  949MOL0     C25155   2.544   9.087   4.872 -0.4931 -0.1604 -0.0214
  949MOL0     C25156   2.451   9.115   4.984 -0.2267 -0.6312 -0.5274
  949MOL0     C25157   2.310   9.161   4.939  0.3084 -0.0993 -0.4584
  949MOL0     C25158   2.213   9.038   4.894  0.0109 -0.0595 -0.2338
  949MOL0     C25159   2.065   9.064   4.934 -1.0793 -0.1432  0.0050
  949MOL0     O25160   2.055   9.113   5.073 -0.4739  0.2172  0.5922
  949MOL0     C25161   1.927   9.147   5.111  0.2186 -0.1698  0.0482
  949MOL0     C25162   1.916   9.196   5.242 -0.4394  0.3764 -0.0466
  949MOL0     C25163   1.800   9.200   5.306 -0.0113  0.9779 -0.1755
  949MOL0     C25164   1.683   9.158   5.247 -0.4592 -0.6424  0.0080
  949MOL0     C25165   1.554   9.151   5.321 -0.2399  0.0064 -0.2754
  949MOL0     O25166   1.561   9.159   5.456  0.1671 -0.2479 -0.3197
  949MOL0     C25167   1.443   9.156   5.525  0.4526  0.5990  0.6216
  949MOL0     C25168   1.414   9.268   5.604 -0.1849 -0.8612 -0.4934
  949MOL0     C25169   1.302   9.262   5.685  0.4436  0.1030 -0.3592
  949MOL0     C25170   1.220   9.151   5.694 -0.4102  0.4863  1.0639
  949MOL0     O25171   1.113   9.158   5.772  0.4956 -0.2404  0.0572
  949MOL0     C25172   0.997   9.063   5.740 -0.2214  0.6830 -0.5944
  949MOL0     C25173   0.868   9.105   5.823 -0.2456 -0.1275  0.4307
  949MOL0     C25174   0.883   9.095   5.977 -0.4529  0.3960 -0.2324
  949MOL0     C25175   0.762   9.148   6.060  0.4868  0.4237  0.5573
  949MOL0     C25176   0.668   9.247   5.988 -0.1175 -0.1747  0.3501
  949MOL0     C25177   0.550   9.300   6.063 -0.4073  0.4268 -0.1979
  949MOL0     C25178   0.458   9.384   5.987  1.2207  0.5093  0.0839
  949MOL0     C25179   0.322   9.313   5.968  0.5810 -0.9507 -0.4626
  949MOL0    Cl25180   0.342   9.186   5.845  0.1179  0.0757 -0.0726
  949MOL0     C25181   1.253   9.042   5.610 -0.1229 -0.8810 -0.8348
  949MOL0     C25182   1.373   9.039   5.533  0.8471  0.0825 -0.1409
  949MOL0     O25183   1.454   9.133   5.248 -0.3825 -0.0852 -0.4271
  949MOL0     C25184   1.679   9.112   5.116 -0.8956 -1.0260 -0.4699
  949MOL0     C25185   1.805   9.113   5.048  0.5325  0.1237  0.5883
  949MOL0     N25186   2.520   9.064   4.743 -0.1161  0.5243 -0.4284
  949MOL0     N25187   2.627   9.042   4.674 -0.1437  0.3850 -0.4040
  949MOL0     C25188   3.898   9.586   4.738  0.4437 -0.0651  0.9541
  949MOL0     C25189   4.022   9.649   4.763  0.2370  0.7417 -0.6356
  949MOL0     C25190   4.426   9.691   4.953  0.0407 -0.1890  0.3074
  949MOL0     C25191   4.528   9.628   4.874  0.1802  0.4387 -1.0985
  949MOL0     C25192   4.665   9.656   4.907 -0.5728  0.5602  1.3817
  949MOL0     C25193   4.699   9.732   5.020  0.8296 -0.9521  0.2731
  949MOL0     O25194   4.831   9.738   5.047  0.6466 -0.0277 -0.7224
  949MOL0     C25195   4.886   9.778   5.181  0.5633 -0.1373  0.4821
  949MOL0     C25196   5.040   9.778   5.163  0.0270 -0.5605  0.3213
  949MOL0     C25197   5.109   9.694   5.267 -0.7251  0.6535 -0.6438
  949MOL0     C25198   5.209   9.602   5.197 -0.5885  0.0737  0.2946
  949MOL0     C25199   5.284   9.524   5.302 -0.3533 -1.3042  0.3694
  949MOL0     C25200   5.354   9.456   5.374 -0.6682 -0.2384  1.1660
  949MOL0     C25201   4.589   9.787   5.098  0.0671 -1.1801 -0.0898
  949MOL0     C25202   4.458   9.762   5.070 -0.9136  0.1861 -0.3626
  949MOL0     H25203   4.238   9.413   4.670  0.3464  0.4290  1.5791
  949MOL0     H25204   4.022   9.305   4.607 -2.0823 -0.9814  1.1250
  949MOL0     H25205   3.620   9.529   4.600 -0.4917  0.9694  0.7155
  949MOL0     H25206   3.658   9.491   4.777  3.5487  0.3856 -1.1717
  949MOL0     H25207   3.586   9.257   4.735  0.0583  1.8065  2.6491
  949MOL0     H25208   3.543   9.295   4.566 -1.2078 -1.2343  0.5849
  949MOL0     H25209   3.361   9.423   4.633 -0.8800  0.6737  0.1950
  949MOL0     H25210   3.399   9.416   4.807 -3.2467  1.8492 -1.3542
  949MOL0     H25211   3.335   9.163   4.662  0.8859  0.5458  0.4015
  949MOL0     H25212   3.353   9.194   4.837  0.2119 -2.5519 -0.6614
  949MOL0     H25213   3.141   9.342   4.672  0.5440 -2.9711 -3.6069
  949MOL0     H25214   3.150   9.309   4.856 -3.6269 -2.1108 -0.0106
  949MOL0     H25215   3.141   9.054   4.782  1.3316 -1.9752 -3.3093
  949MOL0     H25216   3.112   9.115   4.623  0.7556  0.3246  0.1409
  949MOL0     H25217   2.946   9.162   4.880  2.4410 -4.1060  0.1458
  949MOL0     H25218   2.908   9.249   4.726 -2.2605 -0.5510 -1.0101
  949MOL0     H25219   2.915   8.946   4.785 -0.0458 -0.6658 -0.0734
  949MOL0     H25220   2.884   9.014   4.625 -1.3317 -0.1425  0.0578
  949MOL0     H25221   2.715   9.106   4.982  0.6873 -2.8534  0.1597
  949MOL0     H25222   2.499   9.189   5.048 -0.7279 -1.8508  1.3167
  949MOL0     H25223   2.447   9.027   5.048  0.3338 -1.6621 -1.8655
  949MOL0     H25224   2.326   9.226   4.853  0.6236 -0.6669 -0.8300
  949MOL0     H25225   2.268   9.223   5.019  2.4542  2.1804 -1.0177
  949MOL0     H25226   2.213   9.046   4.785  2.6316  1.2333 -0.2209
  949MOL0     H25227   2.262   8.947   4.928  2.7004  1.0733 -0.8222
  949MOL0     H25228   2.001   8.977   4.918 -2.1447  1.1990 -4.5788
  949MOL0     H25229   2.032   9.143   4.866  1.2647  1.9012  1.0651
  949MOL0     H25230   2.011   9.215   5.291  0.8237 -1.9977 -1.4266
  949MOL0     H25231   1.796   9.253   5.401 -2.7188  2.3005 -0.9151
  949MOL0     H25232   1.483   9.350   5.620 -0.3731 -0.6937 -0.5230
  949MOL0     H25233   1.281   9.351   5.744  0.8952 -0.1206  0.1533
  949MOL0     H25234   1.023   8.961   5.771 -1.3006  1.1902  2.2458
  949MOL0     H25235   0.976   9.064   5.633 -0.3243 -0.9987 -0.6155
  949MOL0     H25236   0.785   9.039   5.796  0.7130 -1.1821 -0.0266
  949MOL0     H25237   0.851   9.208   5.793 -2.3872  0.1931  2.4132
  949MOL0     H25238   0.962   9.162   6.012  0.5165 -1.2475  0.8773
  949MOL0     H25239   0.923   9.003   6.021 -0.2269  0.9426  0.7229
  949MOL0     H25240   0.686   9.075   6.087 -0.4775  0.1706 -2.5000
  949MOL0     H25241   0.795   9.190   6.156  3.1515  3.0274 -1.3129
  949MOL0     H25242   0.638   9.190   5.900 -0.5813  0.3056  0.1929
  949MOL0     H25243   0.733   9.328   5.954 -0.4055  0.1792  0.6402
  949MOL0     H25244   0.589   9.364   6.143 -1.8832 -2.5306  3.1668
  949MOL0     H25245   0.486   9.218   6.096 -1.7275 -0.1973 -3.8519
  949MOL0     H25246   0.445   9.468   6.056  2.8721  1.3353 -0.5523
  949MOL0     H25247   0.506   9.414   5.893 -0.2641 -1.1776 -1.2779
  949MOL0     H25248   0.251   9.385   5.927  1.0637 -1.3528 -2.0818
  949MOL0     H25249   0.290   9.277   6.066  1.8643 -1.8240 -0.3328
  949MOL0     H25250   1.195   8.953   5.633 -0.9848  0.3401  2.2562
  949MOL0     H25251   1.401   8.950   5.479 -1.1663 -1.2063  0.7995
  949MOL0     H25252   1.581   9.087   5.077 -1.6422  2.3357 -1.0519
  949MOL0     H25253   1.804   9.080   4.945  0.0648 -0.3761  0.7513
  949MOL0     H25254   3.805   9.640   4.750 -1.1164 -1.7759 -2.1828
  949MOL0     H25255   4.022   9.746   4.811 -0.8210  1.0251 -1.1634
  949MOL0     H25256   4.500   9.566   4.789 -1.6146 -2.4521  1.3719
  949MOL0     H25257   4.743   9.609   4.849  0.2934  0.8300  2.3093
  949MOL0     H25258   4.845   9.701   5.247 -0.4635  0.1946  0.2571
  949MOL0     H25259   4.854   9.871   5.227  2.5444 -0.5324  2.8147
  949MOL0     H25260   5.065   9.736   5.065 -2.9696 -0.2752 -0.6847
  949MOL0     H25261   5.073   9.882   5.157  2.2916 -1.1115  2.1006
  949MOL0     H25262   5.037   9.628   5.317 -0.0487 -2.8831 -3.8091
  949MOL0     H25263   5.160   9.759   5.338  1.4653 -0.5609 -1.0048
  949MOL0     H25264   5.145   9.538   5.137  2.3573 -2.9828  0.1433
  949MOL0     H25265   5.277   9.666   5.140 -1.8199  1.5428  0.4095
  949MOL0     H25266   5.425   9.391   5.421 -0.8335 -0.5361  1.0078
  949MOL0     H25267   4.615   9.840   5.189  0.3773  0.3925 -1.0555
  949MOL0     H25268   4.379   9.799   5.135 -1.3057  0.4221 -0.9646
  950MOL0     O25269  10.524  11.008   4.411  0.1385  0.0814 -0.3233
  950MOL0     C25270  10.610  11.016   4.494  0.1579 -0.2197  0.0358
  950MOL0     O25271  10.590  10.992   4.629 -0.5473 -0.3124 -0.5648
  950MOL0     C25272  10.466  11.010   4.685  0.0823  1.0847  0.9495
  950MOL0     C25273  10.354  11.076   4.633  0.1047  0.6977 -0.0392
  950MOL0     C25274  10.237  11.079   4.710  0.2950  0.1094  0.3395
  950MOL0     C25275  10.227  11.033   4.842 -0.5782 -0.1297 -0.1578
  950MOL0     O25276  10.118  11.062   4.922 -0.2401  0.1377  0.3661
  950MOL0     C25277   9.986  11.078   4.867  0.5127 -0.4962  0.6660
  950MOL0     C25278   9.969  11.239   4.858 -0.5040  0.4762 -0.0707
  950MOL0     C25279   9.837  11.269   4.798  0.6101  0.0964 -0.7005
  950MOL0     C25280   9.802  11.420   4.834 -0.3557  0.2331 -0.2049
  950MOL0     C25281   9.689  11.495   4.763  0.8143 -0.4522  0.3824
  950MOL0     C25282   9.554  11.434   4.793 -0.4396 -0.0991 -0.8166
  950MOL0     C25283   9.440  11.527   4.758  0.5638  0.7635 -0.1893
  950MOL0     C25284   9.428  11.584   4.620 -0.9703 -0.5189  1.1821
  950MOL0     N25285   9.288  11.633   4.591 -0.8145  0.2122  0.5123
  950MOL0     C25286   9.227  11.743   4.645 -0.6896  0.3265  0.4966
  950MOL0     C25287   9.097  11.735   4.615 -0.4531  0.4152 -1.0083
  950MOL0     C25288   8.998  11.836   4.666 -0.8735  0.1595  0.7561
  950MOL0     C25289   8.888  11.765   4.745 -0.6073 -0.5776  0.5253
  950MOL0     C25290   8.771  11.857   4.721 -0.0010  0.0495  0.8691
  950MOL0     C25291   8.655  11.809   4.802  0.6249 -0.4595 -0.4260
  950MOL0     O25292   8.565  11.918   4.819 -0.5484 -0.1294 -0.1635
  950MOL0     C25293   8.467  11.921   4.730  0.6797  0.1944  0.2427
  950MOL0     C25294   8.350  11.864   4.763  0.2980 -0.9599 -0.4218
  950MOL0     C25295   8.245  11.870   4.672 -0.8223 -0.2587 -0.0318
  950MOL0     C25296   8.255  11.928   4.548  0.5549  0.0659 -0.1326
  950MOL0     C25297   8.136  11.921   4.456  0.0036 -0.4147 -0.6238
  950MOL0     O25298   8.015  11.894   4.517  0.0697 -0.0672 -0.4539
  950MOL0     C25299   7.906  11.858   4.437 -0.8908  0.2939  0.3452
  950MOL0     C25300   7.858  11.929   4.325 -0.8880  0.2944  0.1404
  950MOL0     C25301   7.745  11.887   4.260 -0.2030  0.7006 -0.0053
  950MOL0     C25302   7.671  11.778   4.302 -0.9271  0.0406  0.3149
  950MOL0     O25303   7.550  11.742   4.260  0.4486  0.1201 -0.3753
  950MOL0     C25304   7.506  11.786   4.124 -0.5498  0.1817 -1.2370
  950MOL0     C25305   7.419  11.921   4.151  0.3238 -0.2108  1.0076
  950MOL0     C25306   7.288  11.878   4.217  0.4282 -0.5795  0.4223
  950MOL0     C25307   7.177  11.866   4.109  0.2963  0.2228  0.1704
  950MOL0     C25308   7.029  11.854   4.156  0.6856 -0.5000  0.1816
  950MOL0     C25309   7.001  11.720   4.216  0.9207  0.5087  0.4543
  950MOL0     C25310   6.855  11.695   4.268  0.0279  0.7406 -0.9436
  950MOL0     C25311   6.863  11.579   4.377  0.6560 -0.0619 -0.2153
  950MOL0    Cl25312   6.928  11.441   4.294  0.0640  0.5501  0.3637
  950MOL0     C25313   7.723  11.702   4.403  0.4457 -0.2076  0.2170
  950MOL0     C25314   7.834  11.741   4.469 -0.1255 -0.8761  0.4595
  950MOL0     O25315   8.146  11.965   4.346  0.7631  0.4372 -0.5221
  950MOL0     C25316   8.378  11.989   4.510  0.7178  0.0415  0.6094
  950MOL0     C25317   8.482  11.980   4.604 -0.7055  0.4043 -0.0061
  950MOL0     N25318   9.085  11.629   4.522 -0.2358 -0.3653  1.5293
  950MOL0     N25319   9.200  11.566   4.507  0.8317 -1.0437 -0.5054
  950MOL0     C25320  10.347  10.980   4.896 -0.0095  0.0086 -0.1765
  950MOL0     C25321  10.461  10.971   4.820 -0.2989  1.1830  0.3508
  950MOL0     C25322  10.753  11.015   4.449 -0.8349  0.5776  0.0566
  950MOL0     C25323  10.790  10.978   4.316 -0.2700  0.1440 -0.4111
  950MOL0     C25324  10.925  10.959   4.274 -0.0681  0.0760  0.4795
  950MOL0     C25325  11.029  10.995   4.358 -0.0899 -0.6477  0.3593
  950MOL0     O25326  11.162  10.978   4.315  0.8736 -0.1755 -0.1346
  950MOL0     C25327  11.258  10.965   4.421 -0.0305 -0.1638 -0.4583
  950MOL0     C25328  11.394  10.971   4.356  0.3272 -1.3622  0.9158
  950MOL0     C25329  11.449  10.831   4.337  0.1458 -0.2002  0.2996
  950MOL0     C25330  11.420  10.767   4.198 -0.3658  0.3411 -0.6687
  950MOL0     C25331  11.502  10.824   4.093  0.2077  0.5461 -0.5355
  950MOL0     C25332  11.547  10.876   3.996  0.7615 -0.2783  0.0357
  950MOL0     C25333  10.997  11.032   4.493 -1.2760 -0.4197  0.4533
  950MOL0     C25334  10.863  11.043   4.537  0.1613  0.3767 -0.0537
  950MOL0     H25335  10.354  11.119   4.534 -0.9208 -1.1110 -0.8879
  950MOL0     H25336  10.155  11.133   4.664  0.3618 -0.9211 -1.0257
  950MOL0     H25337   9.908  11.030   4.926 -2.7200  0.1509 -2.6892
  950MOL0     H25338   9.980  11.046   4.763 -1.2960 -0.3417  0.6902
  950MOL0     H25339  10.053  11.282   4.804  1.7758 -2.8309  0.5309
  950MOL0     H25340   9.963  11.271   4.962 -3.1329 -1.1980  0.3888
  950MOL0     H25341   9.763  11.199   4.838  0.0116  0.7772 -0.5911
  950MOL0     H25342   9.835  11.238   4.693 -4.5527 -0.6654 -0.6446
  950MOL0     H25343   9.782  11.420   4.941 -0.8493  3.4501 -0.1800
  950MOL0     H25344   9.894  11.479   4.820 -0.0806 -0.1281  0.0665
  950MOL0     H25345   9.699  11.491   4.654  2.1735 -0.7840  0.5017
  950MOL0     H25346   9.688  11.597   4.803 -0.6744 -0.9402  1.7421
  950MOL0     H25347   9.557  11.413   4.900  0.8463 -1.9530 -1.1645
  950MOL0     H25348   9.546  11.335   4.746 -3.5202  0.5349 -1.8533
  950MOL0     H25349   9.356  11.459   4.775  1.5875 -0.9898 -1.8124
  950MOL0     H25350   9.426  11.614   4.823  2.0550 -1.1275  2.8690
  950MOL0     H25351   9.448  11.504   4.548 -0.5564  1.7298 -1.3605
  950MOL0     H25352   9.501  11.665   4.608 -0.9309 -0.3658  2.3092
  950MOL0     H25353   9.267  11.817   4.714 -0.2036 -0.7824  1.4471
  950MOL0     H25354   8.958  11.895   4.583  0.2051  3.2356  2.2840
  950MOL0     H25355   9.045  11.912   4.728  0.3089 -0.8373  1.1331
  950MOL0     H25356   8.908  11.767   4.853  1.2089 -0.1367  0.2087
  950MOL0     H25357   8.877  11.665   4.703  0.1021 -0.4624  0.0553
  950MOL0     H25358   8.798  11.957   4.754 -0.8741  0.5058  0.2364
  950MOL0     H25359   8.742  11.850   4.616  0.2689 -0.3667  0.8205
  950MOL0     H25360   8.682  11.773   4.902  1.0924  0.6000 -0.1581
  950MOL0     H25361   8.608  11.729   4.743  0.8740 -0.6015 -0.4349
  950MOL0     H25362   8.349  11.832   4.866  1.7749 -0.0744 -0.1046
  950MOL0     H25363   8.149  11.821   4.687 -1.9701  1.3878 -1.6202
  950MOL0     H25364   7.918  12.005   4.275  0.8375 -1.2348 -0.2522
  950MOL0     H25365   7.716  11.957   4.182 -2.0659  1.2415  1.1250
  950MOL0     H25366   7.435  11.721   4.073  0.2536 -0.7224 -1.2275
  950MOL0     H25367   7.595  11.792   4.060 -0.0281 -2.1996 -0.8141
  950MOL0     H25368   7.395  11.966   4.054 -0.5504 -1.0363  0.8268
  950MOL0     H25369   7.468  12.003   4.204 -2.0626  1.2512  1.1303
  950MOL0     H25370   7.258  11.953   4.291  1.0748 -0.9882  1.1129
  950MOL0     H25371   7.292  11.782   4.269 -2.1216 -0.5086  0.8760
  950MOL0     H25372   7.178  11.962   4.055  0.7624  0.9728  1.4633
  950MOL0     H25373   7.197  11.770   4.061  1.3963 -0.2741  1.5418
  950MOL0     H25374   6.974  11.860   4.062  2.0375 -1.5210 -0.7133
  950MOL0     H25375   7.003  11.938   4.221 -3.4609 -0.0653 -1.7449
  950MOL0     H25376   7.070  11.699   4.298 -0.0104  0.5482  1.2658
  950MOL0     H25377   7.010  11.652   4.130 -1.4328 -1.6991  1.8431
  950MOL0     H25378   6.826  11.784   4.325  1.5127  1.1305 -0.7413
  950MOL0     H25379   6.779  11.678   4.191 -0.0897 -0.1687 -0.6306
  950MOL0     H25380   6.773  11.554   4.434 -0.7569  0.2420 -2.2066
  950MOL0     H25381   6.927  11.618   4.457 -0.9986  1.5239  0.4062
  950MOL0     H25382   7.659  11.626   4.446  0.1618  0.0296  0.2252
  950MOL0     H25383   7.856  11.685   4.559  1.1423  0.1320  0.8030
  950MOL0     H25384   8.391  12.044   4.417 -1.3708  1.1218  0.8816
  950MOL0     H25385   8.580  12.026   4.594  1.0125 -1.8004  4.4499
  950MOL0     H25386  10.361  10.955   5.001  1.3677  1.8407  0.1142
  950MOL0     H25387  10.548  10.935   4.873 -0.5541  0.5795  0.3746
  950MOL0     H25388  10.718  10.941   4.243  0.4792 -1.1531 -0.5241
  950MOL0     H25389  10.941  10.939   4.168 -0.6869  0.4383  0.3061
  950MOL0     H25390  11.246  10.876   4.483 -0.1752 -0.1446 -0.4585
  950MOL0     H25391  11.257  11.054   4.484 -0.4030 -0.0179 -0.6623
  950MOL0     H25392  11.402  11.035   4.268  0.7702 -1.9014  0.5469
  950MOL0     H25393  11.459  11.021   4.429  1.4797 -1.6910  0.1589
  950MOL0     H25394  11.411  10.763   4.414 -2.1413  0.4455 -0.1936
  950MOL0     H25395  11.557  10.831   4.355  0.0595  0.2477  0.8509
  950MOL0     H25396  11.449  10.662   4.201 -1.1154  0.1477  0.4252
  950MOL0     H25397  11.313  10.774   4.176 -0.4795  0.3212 -0.1206
  950MOL0     H25398  11.584  10.904   3.899  1.0760  0.0572  0.2516
  950MOL0     H25399  11.073  11.048   4.569  2.3208 -2.2329 -2.4481
  950MOL0     H25400  10.839  11.071   4.639 -0.4166  0.8106 -0.3042
  951MOL0     O25401   4.306   3.451   8.535 -0.5684  0.2604  1.1466
  951MOL0     C25402   4.366   3.491   8.431 -0.2565  0.5094 -0.2803
  951MOL0     O25403   4.314   3.544   8.320  0.6179 -0.2498 -0.5179
  951MOL0     C25404   4.180   3.560   8.302 -0.6707 -0.1022  0.4488
  951MOL0     C25405   4.120   3.679   8.316 -0.2756  0.2681 -0.0287
  951MOL0     C25406   3.982   3.694   8.298  0.8807 -0.6317  0.7450
  951MOL0     C25407   3.891   3.597   8.266 -0.4891  0.4735  0.3788
  951MOL0     O25408   3.763   3.632   8.228 -0.5777  0.8152  0.3890
  951MOL0     C25409   3.672   3.528   8.227  0.5237  0.1822 -0.3097
  951MOL0     C25410   3.528   3.575   8.209 -0.2420 -0.2208  0.8141
  951MOL0     C25411   3.477   3.658   8.322 -0.2062 -0.6176  0.0601
  951MOL0     C25412   3.335   3.702   8.292 -0.3888 -1.3478 -0.5947
  951MOL0     C25413   3.301   3.804   8.403  0.3061 -0.1998  0.6753
  951MOL0     C25414   3.158   3.860   8.383  0.0898  0.0806  0.5142
  951MOL0     C25415   3.056   3.752   8.417  0.0217  0.4241 -0.3223
  951MOL0     C25416   2.912   3.800   8.393 -0.4409  0.2759 -0.0862
  951MOL0     N25417   2.817   3.692   8.417  0.4484  0.0318 -0.3115
  951MOL0     C25418   2.793   3.633   8.538  0.5218 -0.6765 -0.3593
  951MOL0     C25419   2.692   3.542   8.517  0.0172 -0.4516  0.3580
  951MOL0     C25420   2.623   3.461   8.611 -0.5917  1.0563 -0.8595
  951MOL0     C25421   2.472   3.470   8.596 -0.0843 -0.4569  0.3090
  951MOL0     C25422   2.420   3.609   8.619 -0.8006 -0.1479 -0.1776
  951MOL0     C25423   2.314   3.633   8.731  0.4388  0.4214  0.3212
  951MOL0     O25424   2.193   3.548   8.717  0.4059 -0.3717 -0.0082
  951MOL0     C25425   2.092   3.606   8.640 -0.1182  0.4837  0.5343
  951MOL0     C25426   1.972   3.540   8.627  0.8966  0.5000  0.0812
  951MOL0     C25427   1.857   3.593   8.559 -0.7609 -0.6096 -0.2547
  951MOL0     C25428   1.857   3.722   8.516 -1.1575  0.3282 -0.0190
  951MOL0     C25429   1.745   3.783   8.445  0.9542  0.4613  0.1569
  951MOL0     O25430   1.643   3.700   8.414  0.0549 -0.1081  0.3220
  951MOL0     C25431   1.521   3.729   8.357  0.8029 -0.6084  0.1032
  951MOL0     C25432   1.435   3.615   8.342  0.3291  0.7053  0.3107
  951MOL0     C25433   1.301   3.640   8.302 -0.1431 -0.1208 -0.2189
  951MOL0     C25434   1.267   3.768   8.248 -0.0502 -0.0351  0.2775
  951MOL0     O25435   1.148   3.814   8.204  0.3295 -0.5127 -0.1379
  951MOL0     C25436   1.053   3.715   8.171 -0.5122  0.0837 -0.5199
  951MOL0     C25437   0.956   3.766   8.074  0.0806 -1.0482  0.1776
  951MOL0     C25438   0.872   3.882   8.126  0.1591  0.0528 -0.4984
  951MOL0     C25439   0.771   3.926   8.015 -1.0188  0.3641  0.0737
  951MOL0     C25440   0.704   3.806   7.945  0.6829  0.2619 -0.0864
  951MOL0     C25441   0.611   3.872   7.850  0.3658  0.3230  1.1031
  951MOL0     C25442   0.511   3.778   7.781  0.2100 -0.0546 -0.8772
  951MOL0     C25443   0.582   3.674   7.689 -0.4060  0.2836  0.3939
  951MOL0    Cl25444   0.483   3.654   7.549  0.1156  0.2311  0.3590
  951MOL0     C25445   1.360   3.870   8.248  0.2595 -0.2211  0.2018
  951MOL0     C25446   1.485   3.852   8.312  0.2763  0.5159 -0.1721
  951MOL0     O25447   1.747   3.901   8.423 -0.4678 -0.0078 -0.5860
  951MOL0     C25448   1.982   3.789   8.520  0.7124 -0.5098  0.4840
  951MOL0     C25449   2.097   3.736   8.583 -0.2764 -0.5093 -0.1528
  951MOL0     N25450   2.675   3.538   8.380 -0.5988  0.3074 -0.0703
  951MOL0     N25451   2.748   3.625   8.320  0.4439 -0.0223  0.2110
  951MOL0     C25452   3.948   3.467   8.258  0.6559 -0.8284  0.1304
  951MOL0     C25453   4.090   3.457   8.285  0.5784  0.8353 -0.1373
  951MOL0     C25454   4.522   3.468   8.427  0.0159  1.1374 -0.2878
  951MOL0     C25455   4.604   3.491   8.314  0.6697  0.7370 -1.3636
  951MOL0     C25456   4.737   3.455   8.309  0.4504  0.2788  0.0360
  951MOL0     C25457   4.806   3.411   8.418  0.0808  1.2774 -0.4438
  951MOL0     O25458   4.945   3.399   8.410  0.2888 -0.2181  0.2875
  951MOL0     C25459   5.018   3.413   8.530  0.3590  0.4508  0.2967
  951MOL0     C25460   5.157   3.447   8.497  0.1857  0.1115 -0.1177
  951MOL0     C25461   5.243   3.491   8.613  0.2484 -0.5103 -0.5301
  951MOL0     C25462   5.364   3.572   8.582 -0.5471 -1.1608  0.8537
  951MOL0     C25463   5.471   3.506   8.505  0.7395  0.1908  0.7092
  951MOL0     C25464   5.561   3.462   8.433  0.6475  0.8778 -0.2650
  951MOL0     C25465   4.727   3.381   8.530  0.2669  0.8711 -0.0642
  951MOL0     C25466   4.589   3.406   8.530  0.7979  1.0508 -0.9794
  951MOL0     H25467   4.188   3.764   8.318 -0.7515  0.8215 -2.8313
  951MOL0     H25468   3.935   3.791   8.309 -0.7825 -1.5587  2.4251
  951MOL0     H25469   3.690   3.466   8.315 -1.8644 -1.2192 -0.7199
  951MOL0     H25470   3.691   3.462   8.142  4.4785 -0.5055  0.8776
  951MOL0     H25471   3.469   3.483   8.197  0.7028 -0.6635 -0.7909
  951MOL0     H25472   3.539   3.628   8.114 -2.0724  1.5100  1.4981
  951MOL0     H25473   3.544   3.742   8.335  2.4763 -2.5312 -0.5579
  951MOL0     H25474   3.480   3.593   8.410 -1.6015  0.4589  0.9538
  951MOL0     H25475   3.338   3.758   8.198 -1.4640 -1.1898 -0.5460
  951MOL0     H25476   3.259   3.625   8.281 -0.8794 -0.8127 -1.0450
  951MOL0     H25477   3.366   3.891   8.395 -2.7897  2.1560 -1.2306
  951MOL0     H25478   3.311   3.765   8.505  1.7429  3.2125  1.9980
  951MOL0     H25479   3.140   3.882   8.278 -2.0985  2.1465  1.2242
  951MOL0     H25480   3.140   3.956   8.433 -0.1375  0.2668  0.0728
  951MOL0     H25481   3.067   3.663   8.354 -2.6044 -0.1864 -0.0297
  951MOL0     H25482   3.072   3.720   8.520 -0.2843 -0.4567 -0.5424
  951MOL0     H25483   2.905   3.843   8.293 -1.9872  1.6766  0.5754
  951MOL0     H25484   2.890   3.884   8.460 -3.0256 -1.5969  1.6028
  951MOL0     H25485   2.840   3.658   8.633 -1.0467  1.4831 -0.0674
  951MOL0     H25486   2.644   3.489   8.714 -0.1538  2.2478 -1.2451
  951MOL0     H25487   2.657   3.358   8.602  0.6943  1.1087  2.3901
  951MOL0     H25488   2.419   3.398   8.659  1.4922 -1.4862  0.5358
  951MOL0     H25489   2.457   3.446   8.491  1.4948 -1.1296  0.2129
  951MOL0     H25490   2.507   3.660   8.661 -1.4655  1.2835 -0.4854
  951MOL0     H25491   2.381   3.652   8.526 -0.7049  2.0620  0.7382
  951MOL0     H25492   2.294   3.740   8.741  0.3294  0.5367 -0.9930
  951MOL0     H25493   2.346   3.611   8.833 -0.3627  1.0881  0.7323
  951MOL0     H25494   1.964   3.438   8.663 -2.4525  1.1253  1.4958
  951MOL0     H25495   1.764   3.539   8.546 -1.2851  0.8035 -3.2614
  951MOL0     H25496   1.469   3.514   8.365 -0.7174  0.2867  0.0684
  951MOL0     H25497   1.228   3.560   8.312 -1.0938  0.9236  2.0135
  951MOL0     H25498   0.998   3.683   8.260 -0.0503 -0.2787 -0.3592
  951MOL0     H25499   1.101   3.626   8.129  1.1698  0.2312  0.9978
  951MOL0     H25500   0.903   3.679   8.035  0.1878 -1.0901  0.1233
  951MOL0     H25501   1.014   3.804   7.989 -0.2847 -0.1787  0.3098
  951MOL0     H25502   0.934   3.966   8.157 -1.8337  0.2343  3.6121
  951MOL0     H25503   0.812   3.841   8.207  2.2845  1.3113  1.8524
  951MOL0     H25504   0.694   3.988   8.062 -0.9104 -0.6598  1.6443
  951MOL0     H25505   0.832   3.981   7.942 -1.0555 -2.5143 -2.3029
  951MOL0     H25506   0.653   3.746   8.021  0.3744  1.7381  0.9175
  951MOL0     H25507   0.758   3.729   7.890 -3.4860 -3.5682  0.5640
  951MOL0     H25508   0.671   3.914   7.769  1.8916 -1.1177  1.4320
  951MOL0     H25509   0.559   3.955   7.899  1.9279  0.9559  1.7631
  951MOL0     H25510   0.463   3.722   7.862  0.5241 -4.5491 -3.4717
  951MOL0     H25511   0.435   3.839   7.731 -0.1610  1.1632  1.0577
  951MOL0     H25512   0.603   3.576   7.732  0.6178 -0.5568 -1.8342
  951MOL0     H25513   0.683   3.704   7.660 -1.3210  0.9837 -2.4650
  951MOL0     H25514   1.333   3.968   8.212 -1.0277 -0.1262  1.3568
  951MOL0     H25515   1.552   3.937   8.317 -0.1677  0.8819 -0.4398
  951MOL0     H25516   1.998   3.890   8.483  0.0653 -0.8714 -0.8668
  951MOL0     H25517   2.182   3.803   8.596  1.5999 -2.2564 -2.4143
  951MOL0     H25518   3.889   3.381   8.228  2.3602 -1.4480 -1.6402
  951MOL0     H25519   4.142   3.361   8.280 -2.2377 -0.7492 -1.1703
  951MOL0     H25520   4.565   3.532   8.221 -0.8701 -1.7710 -1.9098
  951MOL0     H25521   4.791   3.479   8.218 -0.2268 -1.0627 -0.7625
  951MOL0     H25522   5.019   3.311   8.568 -1.8447  0.3859  0.3180
  951MOL0     H25523   4.976   3.489   8.597  1.0155  0.9461  0.1581
  951MOL0     H25524   5.204   3.359   8.453  0.6601  0.0905  0.4307
  951MOL0     H25525   5.156   3.525   8.420  0.7038  0.6115  0.3771
  951MOL0     H25526   5.278   3.397   8.659 -0.0167 -0.6345 -0.5771
  951MOL0     H25527   5.183   3.560   8.674 -0.9343 -1.0887 -1.0071
  951MOL0     H25528   5.343   3.654   8.512  2.1715  0.9746  2.3742
  951MOL0     H25529   5.407   3.620   8.670  1.7941  2.1083 -1.8389
  951MOL0     H25530   5.611   3.404   8.358 -1.9286  0.1163 -1.5278
  951MOL0     H25531   4.774   3.335   8.617  3.1520 -1.5277 -2.6600
  951MOL0     H25532   4.522   3.388   8.614  1.4551 -0.6198 -0.7684
  952MOL0     O25533  11.023   7.179   4.432  0.5887 -0.5971  0.5298
  952MOL0     C25534  11.073   7.259   4.512  0.8220 -0.0035  0.2591
  952MOL0     O25535  11.011   7.297   4.628 -0.4126  0.3492  0.0568
  952MOL0     C25536  10.877   7.284   4.647  0.2815 -0.2791 -0.5451
  952MOL0     C25537  10.774   7.280   4.546  0.0649  0.1945 -0.1434
  952MOL0     C25538  10.642   7.272   4.589 -0.4059  0.2191 -0.0525
  952MOL0     C25539  10.608   7.299   4.728  0.9690 -0.8242 -0.3073
  952MOL0     O25540  10.479   7.310   4.765  0.3502  0.9445 -0.1693
  952MOL0     C25541  10.448   7.195   4.852  0.1580 -0.0410  0.1095
  952MOL0     C25542  10.346   7.096   4.796  0.6340  0.3894  0.5804
  952MOL0     C25543  10.207   7.155   4.753 -0.1756  0.3265  0.2025
  952MOL0     C25544  10.106   7.050   4.728  0.5076  0.5126  0.6680
  952MOL0     C25545   9.982   7.128   4.677 -0.6443  0.0849  0.2926
  952MOL0     C25546   9.888   7.020   4.628 -0.3215  0.3551  0.6401
  952MOL0     C25547   9.748   7.075   4.593 -0.1290 -0.4684 -0.1000
  952MOL0     C25548   9.768   7.185   4.481 -1.0100  0.1058 -0.2699
  952MOL0     N25549   9.658   7.191   4.387  0.0399  0.2127  0.0179
  952MOL0     C25550   9.538   7.241   4.418  0.4080  0.0788  0.1031
  952MOL0     C25551   9.470   7.231   4.301 -0.6298  1.0314  0.2857
  952MOL0     C25552   9.334   7.266   4.266 -0.6006 -0.3739 -0.4248
  952MOL0     C25553   9.258   7.152   4.195 -0.1490  0.6734 -0.6057
  952MOL0     C25554   9.151   7.209   4.112 -0.0369  0.1021 -0.1006
  952MOL0     C25555   9.075   7.100   4.036  0.2033  0.0545 -0.2295
  952MOL0     O25556   8.965   7.164   3.978 -0.2064  0.3479 -0.0004
  952MOL0     C25557   8.880   7.081   3.904 -0.4116 -0.1094 -0.0923
  952MOL0     C25558   8.877   6.939   3.891  0.7856  0.2958  0.0514
  952MOL0     C25559   8.782   6.874   3.805 -0.1100  0.3919 -1.2698
  952MOL0     C25560   8.674   6.946   3.745  1.2639  0.1540 -0.2686
  952MOL0     C25561   8.565   6.870   3.673  0.6733  0.0231 -0.0353
  952MOL0     O25562   8.565   6.737   3.695  0.7089  0.0767  0.0231
  952MOL0     C25563   8.450   6.662   3.655 -0.0971  0.6894  0.3982
  952MOL0     C25564   8.365   6.608   3.750 -0.7487  0.3901  0.4369
  952MOL0     C25565   8.257   6.519   3.714  0.4285 -0.3742 -0.0441
  952MOL0     C25566   8.237   6.482   3.579 -0.2147 -0.6152 -0.3678
  952MOL0     O25567   8.135   6.396   3.542  0.9325 -0.4963  0.1197
  952MOL0     C25568   8.111   6.388   3.398 -0.0234  0.2702  0.4264
  952MOL0     C25569   7.983   6.306   3.365  0.1890 -0.0746  0.8558
  952MOL0     C25570   8.007   6.161   3.337  0.1532  0.0414  0.0597
  952MOL0     C25571   7.889   6.085   3.292  0.3053 -0.8310  0.0908
  952MOL0     C25572   7.920   5.951   3.239 -0.1733  0.9086 -0.2692
  952MOL0     C25573   7.781   5.863   3.250 -0.1447 -0.0459 -0.7156
  952MOL0     C25574   7.796   5.718   3.216  0.0614 -0.0360  0.6321
  952MOL0     C25575   7.891   5.643   3.309  0.3885  0.2916  0.2815
  952MOL0    Cl25576   7.854   5.465   3.287  0.0112 -0.2352  0.4780
  952MOL0     C25577   8.309   6.548   3.485 -0.9325 -0.0199 -0.2694
  952MOL0     C25578   8.422   6.630   3.519 -0.2626  0.0779 -0.0209
  952MOL0     O25579   8.468   6.931   3.620  0.0185 -0.3062  0.6165
  952MOL0     C25580   8.671   7.088   3.764 -0.3582 -0.2800 -0.7804
  952MOL0     C25581   8.776   7.156   3.838 -0.1489  0.5716 -0.4424
  952MOL0     N25582   9.556   7.191   4.204  0.3937  0.8541  0.5508
  952MOL0     N25583   9.676   7.171   4.259 -0.0898 -0.3154  0.1331
  952MOL0     C25584  10.708   7.311   4.823 -0.1810 -0.6288 -0.3636
  952MOL0     C25585  10.842   7.303   4.780  0.4880 -0.4016  0.1274
  952MOL0     C25586  11.208   7.301   4.488 -0.3834 -0.8605 -0.0935
  952MOL0     C25587  11.286   7.220   4.394 -0.3926  0.1081 -0.1024
  952MOL0     C25588  11.429   7.232   4.400  0.3108  0.5557  0.3489
  952MOL0     C25589  11.489   7.316   4.483 -0.1301 -0.4087 -0.1213
  952MOL0     O25590  11.626   7.330   4.497  0.4585  0.8915 -0.2001
  952MOL0     C25591  11.721   7.254   4.425 -0.0900  0.2994  0.0060
  952MOL0     C25592  11.865   7.282   4.467  0.4392 -0.3924 -0.2042
  952MOL0     C25593  11.962   7.183   4.403  0.4050 -0.0993 -0.1882
  952MOL0     C25594  11.964   7.191   4.254 -1.0194 -0.8859  0.1327
  952MOL0     C25595  12.094   7.143   4.202 -0.3417  0.1812  0.3544
  952MOL0     C25596  12.211   7.114   4.177 -0.1240 -0.7681  1.1137
  952MOL0     C25597  11.413   7.376   4.582 -0.2980  0.1787  0.4386
  952MOL0     C25598  11.275   7.378   4.584 -0.7942 -0.4776 -0.3800
  952MOL0     H25599  10.805   7.278   4.442 -0.5377 -0.0710 -0.3190
  952MOL0     H25600  10.552   7.274   4.528  0.4042 -1.3021 -1.3725
  952MOL0     H25601  10.403   7.234   4.944  2.3651  0.6625  0.9613
  952MOL0     H25602  10.529   7.134   4.893  1.6637  1.1673 -0.9406
  952MOL0     H25603  10.340   7.018   4.872  1.6411 -1.7673 -1.4087
  952MOL0     H25604  10.391   7.046   4.709  0.4284  0.3500  0.4970
  952MOL0     H25605  10.250   7.199   4.663  1.7984 -2.2998 -0.2483
  952MOL0     H25606  10.175   7.226   4.830  2.1911  1.7436 -0.0464
  952MOL0     H25607  10.131   6.972   4.656 -0.9036  0.2364  0.4561
  952MOL0     H25608  10.097   6.990   4.819  0.6774 -2.1402 -0.9643
  952MOL0     H25609  10.004   7.197   4.595 -3.8728 -0.4769 -1.1950
  952MOL0     H25610   9.936   7.175   4.764  0.1808 -0.3802  0.9995
  952MOL0     H25611   9.868   6.948   4.708  0.4530  0.0220  0.5385
  952MOL0     H25612   9.931   6.973   4.539 -0.0291 -0.8908  1.4220
  952MOL0     H25613   9.685   6.995   4.553  1.2500 -0.9368 -1.4505
  952MOL0     H25614   9.700   7.122   4.679  1.0641  2.9936 -1.1323
  952MOL0     H25615   9.858   7.166   4.422 -1.1311 -1.4995  0.0151
  952MOL0     H25616   9.768   7.288   4.518 -3.3286  1.0599 -2.5481
  952MOL0     H25617   9.493   7.274   4.511 -1.0004  0.8145 -0.8013
  952MOL0     H25618   9.333   7.357   4.204 -0.8831  1.0054  1.5058
  952MOL0     H25619   9.283   7.280   4.362  0.0319  2.3681 -0.3895
  952MOL0     H25620   9.226   7.068   4.258 -0.0142 -0.6572 -2.2116
  952MOL0     H25621   9.321   7.088   4.132 -1.7917  0.5491 -2.1937
  952MOL0     H25622   9.078   7.266   4.171 -0.5636  0.0847 -0.7276
  952MOL0     H25623   9.190   7.277   4.036 -0.8296  1.4435  0.6493
  952MOL0     H25624   9.036   7.024   4.105 -0.5052  0.7045  0.1013
  952MOL0     H25625   9.145   7.048   3.970  0.3311  1.6290 -1.3772
  952MOL0     H25626   8.946   6.883   3.953 -0.0364  0.6142  1.2888
  952MOL0     H25627   8.802   6.768   3.798 -1.4208 -0.0039  0.2656
  952MOL0     H25628   8.389   6.622   3.855 -1.5690  2.5866  0.3940
  952MOL0     H25629   8.191   6.487   3.794 -1.8323  3.4594 -0.0786
  952MOL0     H25630   8.195   6.341   3.346  0.0231 -1.0007  1.6011
  952MOL0     H25631   8.093   6.486   3.351 -0.3294  0.6026  1.2231
  952MOL0     H25632   7.932   6.354   3.281  0.4960 -1.6722 -0.3022
  952MOL0     H25633   7.922   6.308   3.455  2.3901  0.3958  2.4302
  952MOL0     H25634   8.040   6.105   3.425 -2.8256 -0.6154  0.9054
  952MOL0     H25635   8.085   6.151   3.262  2.1466  0.8669  1.9044
  952MOL0     H25636   7.820   6.082   3.377 -0.7411 -2.0268 -0.7853
  952MOL0     H25637   7.839   6.142   3.213  1.9699  1.2347  0.4115
  952MOL0     H25638   7.999   5.904   3.298 -1.7083 -0.2107  0.9766
  952MOL0     H25639   7.952   5.964   3.135 -0.9770  1.8692 -0.4154
  952MOL0     H25640   7.718   5.912   3.176 -1.0269 -0.2270 -0.0911
  952MOL0     H25641   7.736   5.865   3.350 -0.6439  2.9328 -0.8878
  952MOL0     H25642   7.701   5.666   3.228  1.2502 -2.7389 -0.7308
  952MOL0     H25643   7.843   5.706   3.118 -0.5910 -1.0623  0.4353
  952MOL0     H25644   7.869   5.669   3.413 -0.5713 -2.4679  0.8450
  952MOL0     H25645   7.994   5.671   3.285 -0.2557  1.2565 -1.5868
  952MOL0     H25646   8.300   6.543   3.377  3.1638 -3.1559 -0.7146
  952MOL0     H25647   8.492   6.653   3.440  1.8218 -2.2159  1.0142
  952MOL0     H25648   8.606   7.150   3.704 -0.7448  1.3270  1.2015
  952MOL0     H25649   8.784   7.264   3.835 -0.2738  0.5629 -1.7415
  952MOL0     H25650  10.691   7.329   4.928  2.4424  1.6938 -0.2212
  952MOL0     H25651  10.919   7.323   4.853 -0.1990  0.6602  0.5971
  952MOL0     H25652  11.243   7.151   4.322 -0.4125 -1.0713  0.9972
  952MOL0     H25653  11.482   7.178   4.321 -1.2910  0.2254 -0.5480
  952MOL0     H25654  11.707   7.260   4.317 -0.6358 -3.1135 -0.2420
  952MOL0     H25655  11.703   7.146   4.432 -1.5209  0.4456 -0.9640
  952MOL0     H25656  11.886   7.386   4.439  3.5144 -1.1109 -1.0439
  952MOL0     H25657  11.872   7.268   4.575 -3.0690 -3.1436 -0.1939
  952MOL0     H25658  11.931   7.087   4.443 -0.3798  0.7200  1.2371
  952MOL0     H25659  12.062   7.192   4.446 -0.0899 -2.4247  1.6200
  952MOL0     H25660  11.880   7.132   4.217 -0.1181 -2.0490 -0.1472
  952MOL0     H25661  11.956   7.295   4.222  2.7279 -1.4110 -3.4678
  952MOL0     H25662  12.309   7.082   4.149  0.0508  1.2005 -0.7055
  952MOL0     H25663  11.474   7.426   4.656 -1.7956  0.2112  1.6994
  952MOL0     H25664  11.217   7.426   4.663 -0.7363 -0.4876 -0.3312
  953MOL0     O25665   4.993   5.002   7.636 -0.4736 -0.2939 -0.5883
  953MOL0     C25666   4.992   5.120   7.677  0.1394  0.3470  1.1316
  953MOL0     O25667   4.935   5.225   7.604 -0.2561  0.4104  0.4255
  953MOL0     C25668   4.895   5.198   7.478 -0.2979  0.3852 -0.4798
  953MOL0     C25669   4.975   5.139   7.378 -0.2102 -0.2176  0.0496
  953MOL0     C25670   4.919   5.108   7.250 -0.1468  0.1098  0.0565
  953MOL0     C25671   4.799   5.164   7.213 -0.3414 -1.3432 -0.1656
  953MOL0     O25672   4.738   5.145   7.096 -0.0003  0.3137  0.4215
  953MOL0     C25673   4.772   5.034   7.010  0.0430  0.7255  0.8618
  953MOL0     C25674   4.667   5.023   6.888 -0.5372 -0.0812 -0.9104
  953MOL0     C25675   4.526   5.052   6.941 -0.5530  0.0648  0.6674
  953MOL0     C25676   4.430   5.072   6.821 -0.0140  0.0243 -0.4550
  953MOL0     C25677   4.283   5.108   6.866 -0.6258 -0.2610 -0.1834
  953MOL0     C25678   4.200   5.129   6.739  0.1241  0.3261 -0.0680
  953MOL0     C25679   4.047   5.145   6.759  0.0394  0.7517 -0.6465
  953MOL0     C25680   3.963   5.150   6.625  0.3819 -1.1228  0.4366
  953MOL0     N25681   3.813   5.166   6.628 -0.6591 -0.1983  0.0742
  953MOL0     C25682   3.738   5.259   6.698 -0.7497  0.3444 -0.5317
  953MOL0     C25683   3.613   5.223   6.662  0.2317  0.0042  0.0960
  953MOL0     C25684   3.490   5.311   6.686  0.1468  0.0136  0.9032
  953MOL0     C25685   3.461   5.402   6.566 -0.1765 -0.6544 -0.2407
  953MOL0     C25686   3.329   5.485   6.576 -0.3414  0.1599  0.1131
  953MOL0     C25687   3.282   5.563   6.452 -0.7324  0.4713 -0.8346
  953MOL0     O25688   3.142   5.547   6.442 -0.5284 -0.4049 -0.4289
  953MOL0     C25689   3.077   5.625   6.353 -0.4086 -0.1684  0.0236
  953MOL0     C25690   3.040   5.763   6.376  0.8240  0.3758  0.4936
  953MOL0     C25691   2.944   5.824   6.297 -0.4661 -0.3619 -0.0191
  953MOL0     C25692   2.883   5.746   6.195  0.1183  0.3663  0.6071
  953MOL0     C25693   2.796   5.815   6.097 -0.0099  0.3210 -0.0727
  953MOL0     O25694   2.747   5.939   6.125 -0.1352 -0.5221  0.1785
  953MOL0     C25695   2.661   6.016   6.039  0.1140  0.2687  0.2292
  953MOL0     C25696   2.611   6.140   6.094  0.5135 -0.0972 -0.1223
  953MOL0     C25697   2.511   6.210   6.030  0.9128 -0.5697  0.1996
  953MOL0     C25698   2.455   6.166   5.908  0.1816  0.4203  0.6272
  953MOL0     O25699   2.385   6.251   5.823 -0.2811 -0.4711 -0.5139
  953MOL0     C25700   2.305   6.354   5.874  0.1773 -0.5255 -0.3437
  953MOL0     C25701   2.160   6.346   5.814  0.5098  0.4250  0.1850
  953MOL0     C25702   2.169   6.364   5.658  0.2080  0.5757 -0.0761
  953MOL0     C25703   2.033   6.358   5.602 -0.7496  0.1547 -0.2124
  953MOL0     C25704   2.023   6.356   5.444  0.7718 -0.0140 -0.9921
  953MOL0     C25705   2.072   6.477   5.367  0.7256  0.0145  0.4826
  953MOL0     C25706   1.989   6.598   5.416 -0.1736 -0.3701  0.2483
  953MOL0     C25707   2.023   6.730   5.338  0.0795  0.3409  0.3496
  953MOL0    Cl25708   1.982   6.720   5.171 -0.2357 -0.2481  0.2741
  953MOL0     C25709   2.492   6.038   5.863 -0.3441  0.6275 -0.0703
  953MOL0     C25710   2.600   5.964   5.918  0.3843 -0.1951 -0.4668
  953MOL0     O25711   2.767   5.746   5.997 -0.1788  0.4800  0.0321
  953MOL0     C25712   2.920   5.613   6.178  0.4817  0.8877  1.1071
  953MOL0     C25713   3.014   5.552   6.258 -0.3092 -1.1556  0.2935
  953MOL0     N25714   3.610   5.126   6.573 -1.3446  0.0462  0.2265
  953MOL0     N25715   3.733   5.080   6.555  0.2224 -0.1441  0.1915
  953MOL0     C25716   4.736   5.245   7.306 -0.3286 -0.2210 -0.8668
  953MOL0     C25717   4.774   5.249   7.431 -0.0814  0.0178 -0.7909
  953MOL0     C25718   5.037   5.149   7.808  0.3522 -0.2773 -0.0588
  953MOL0     C25719   5.105   5.055   7.882 -0.2570 -0.2236 -0.4696
  953MOL0     C25720   5.134   5.077   8.024 -0.3741 -0.5750  0.3566
  953MOL0     C25721   5.107   5.204   8.075  0.1789 -0.7547  0.0675
  953MOL0     O25722   5.139   5.237   8.204  0.5661 -0.1211  0.3819
  953MOL0     C25723   5.265   5.223   8.264 -0.5332 -0.7797  0.4087
  953MOL0     C25724   5.341   5.362   8.234 -0.9163 -0.1136 -0.5916
  953MOL0     C25725   5.467   5.346   8.148 -0.0461  0.1847 -0.5536
  953MOL0     C25726   5.527   5.482   8.103  0.4475  0.5826 -1.0029
  953MOL0     C25727   5.441   5.545   8.006 -0.2182 -0.1701  0.4376
  953MOL0     C25728   5.372   5.604   7.925  0.4304 -0.0293 -0.3196
  953MOL0     C25729   5.033   5.298   8.000 -0.2724  0.2480  0.3512
  953MOL0     C25730   4.993   5.268   7.869  0.1258 -0.2321 -0.2257
  953MOL0     H25731   5.079   5.113   7.393  0.4861  0.4658 -3.0073
  953MOL0     H25732   4.971   5.049   7.176 -1.1995  1.0764 -1.5060
  953MOL0     H25733   4.769   4.950   7.080  1.5817 -0.3193 -0.2802
  953MOL0     H25734   4.876   5.032   6.976  0.3220 -1.0254  1.7140
  953MOL0     H25735   4.673   4.921   6.849 -0.7627 -1.6781  2.7808
  953MOL0     H25736   4.697   5.103   6.820 -0.6073  1.1023  0.3880
  953MOL0     H25737   4.517   5.141   7.004 -0.9400  1.4844 -1.3088
  953MOL0     H25738   4.495   4.960   6.991 -1.4260  0.5351  1.0189
  953MOL0     H25739   4.464   5.166   6.775 -0.9603  0.4607 -0.3014
  953MOL0     H25740   4.440   4.988   6.752  0.0712  1.6022 -2.4727
  953MOL0     H25741   4.283   5.209   6.908 -3.9232  0.3667 -1.3809
  953MOL0     H25742   4.224   5.039   6.927 -2.7969  0.7026 -1.0935
  953MOL0     H25743   4.211   5.043   6.673 -1.6531 -1.1885  1.5098
  953MOL0     H25744   4.243   5.214   6.684 -1.0504  0.1675 -1.2665
  953MOL0     H25745   4.016   5.053   6.808  1.0651  0.2201 -0.9674
  953MOL0     H25746   4.022   5.228   6.826 -2.2565 -0.9609  0.7334
  953MOL0     H25747   3.987   5.059   6.569 -0.1356 -1.1983  0.3309
  953MOL0     H25748   3.996   5.232   6.562 -1.1332 -0.9312 -0.1723
  953MOL0     H25749   3.764   5.339   6.767  1.0580 -0.1230 -0.6106
  953MOL0     H25750   3.511   5.374   6.773  0.5303  2.3620 -0.7885
  953MOL0     H25751   3.405   5.245   6.708 -0.7858  1.0132  0.4064
  953MOL0     H25752   3.469   5.349   6.470  0.0446 -0.9853 -0.0433
  953MOL0     H25753   3.534   5.482   6.574 -2.6738  1.8913 -1.2748
  953MOL0     H25754   3.243   5.421   6.600  0.1114 -2.7036 -4.5664
  953MOL0     H25755   3.330   5.565   6.650 -0.3842  1.9168 -1.6927
  953MOL0     H25756   3.341   5.537   6.364 -1.2324  1.1795 -1.3997
  953MOL0     H25757   3.305   5.667   6.476  2.3332 -0.4070  0.5009
  953MOL0     H25758   3.097   5.806   6.457  1.1509 -1.4357  1.2766
  953MOL0     H25759   2.900   5.917   6.330 -1.6130 -1.5240  1.9098
  953MOL0     H25760   2.649   6.172   6.190  3.8131  2.1077 -1.9771
  953MOL0     H25761   2.495   6.308   6.075  1.5006 -0.4406  0.1346
  953MOL0     H25762   2.356   6.448   5.850 -2.0178  1.5059  2.2269
  953MOL0     H25763   2.299   6.340   5.982 -0.2891 -0.3446 -0.3452
  953MOL0     H25764   2.096   6.423   5.858 -0.7702 -0.3569 -0.2277
  953MOL0     H25765   2.115   6.250   5.843 -1.4337  0.6661 -1.7537
  953MOL0     H25766   2.231   6.284   5.616  1.0137  0.6834  0.8549
  953MOL0     H25767   2.211   6.460   5.626 -1.4544  0.1548 -4.1406
  953MOL0     H25768   1.993   6.263   5.638  0.0622 -0.8867 -1.9431
  953MOL0     H25769   1.974   6.446   5.630 -1.1667 -0.0401 -0.4806
  953MOL0     H25770   1.920   6.341   5.412  0.3680 -1.8978  0.9419
  953MOL0     H25771   2.076   6.264   5.416  0.0002 -1.6719  2.4240
  953MOL0     H25772   2.066   6.456   5.260  1.2510 -1.2504  0.6883
  953MOL0     H25773   2.174   6.504   5.396  1.9499  2.5043 -4.9284
  953MOL0     H25774   1.881   6.584   5.411 -0.3529  1.2365 -1.4957
  953MOL0     H25775   2.022   6.613   5.519  0.8628 -1.0683  0.0344
  953MOL0     H25776   2.131   6.747   5.349 -0.2648  2.5993  0.8600
  953MOL0     H25777   1.972   6.815   5.385  2.3278  2.0603 -0.1373
  953MOL0     H25778   2.446   6.005   5.771  0.7615 -1.1158 -0.0415
  953MOL0     H25779   2.619   5.870   5.868  1.7610  1.4642 -3.3209
  953MOL0     H25780   2.883   5.553   6.096  3.5652  2.9217 -2.0234
  953MOL0     H25781   3.034   5.445   6.257  0.6774 -0.9703 -0.0652
  953MOL0     H25782   4.640   5.280   7.269 -0.8514  1.4265  1.7794
  953MOL0     H25783   4.706   5.302   7.497  2.7257  2.0054  0.7229
  953MOL0     H25784   5.125   4.957   7.840  1.8566  0.1494 -0.4129
  953MOL0     H25785   5.172   4.996   8.085 -0.4042 -1.2903 -0.5501
  953MOL0     H25786   5.319   5.131   8.241 -0.8251 -1.0496  0.7866
  953MOL0     H25787   5.244   5.222   8.372 -2.3703 -0.7827  0.0842
  953MOL0     H25788   5.271   5.425   8.179 -1.3849 -0.2588 -0.1693
  953MOL0     H25789   5.362   5.399   8.335 -0.5942 -2.2010  0.1613
  953MOL0     H25790   5.446   5.292   8.055  1.4739 -2.0568  0.3398
  953MOL0     H25791   5.541   5.293   8.207 -2.6957  0.0297  2.9153
  953MOL0     H25792   5.565   5.553   8.178  0.9889  0.7224 -1.4007
  953MOL0     H25793   5.617   5.459   8.045  1.4666 -0.2681  0.8015
  953MOL0     H25794   5.299   5.653   7.864 -1.2687 -2.8054 -0.7276
  953MOL0     H25795   4.995   5.383   8.057 -2.8304 -1.1146  0.8303
  953MOL0     H25796   4.935   5.340   7.811  2.0169 -0.2901 -2.3178
  954MOL0     O25797   9.063   5.833   7.524 -0.1615 -0.3809  0.1466
  954MOL0     C25798   9.068   5.893   7.416 -0.6296 -0.7296  0.3765
  954MOL0     O25799   8.951   5.938   7.346 -0.7499 -0.1845 -0.1875
  954MOL0     C25800   8.833   5.902   7.403  0.2256 -0.0455 -0.1823
  954MOL0     C25801   8.757   6.008   7.464  0.4831  0.1315  1.1340
  954MOL0     C25802   8.628   5.986   7.506 -0.9117 -0.0341  0.8392
  954MOL0     C25803   8.561   5.866   7.484  0.5151  0.4141  0.4313
  954MOL0     O25804   8.423   5.849   7.518 -0.6173  0.1580  0.0567
  954MOL0     C25805   8.336   5.969   7.500  0.6726  0.5681  0.1848
  954MOL0     C25806   8.194   5.925   7.464  0.5228  0.5789  0.2499
  954MOL0     C25807   8.117   5.855   7.575 -0.0456 -0.1050  0.3474
  954MOL0     C25808   7.990   5.785   7.517  0.0928  0.2138 -0.4135
  954MOL0     C25809   7.910   5.703   7.615  0.3432 -0.3465  0.6119
  954MOL0     C25810   7.789   5.632   7.550  0.9535  0.7641 -0.2726
  954MOL0     C25811   7.756   5.508   7.630  0.3597 -0.0529  0.4658
  954MOL0     C25812   7.829   5.384   7.591 -0.6003 -0.1685  0.1983
  954MOL0     N25813   7.790   5.270   7.679  0.7532  0.3950  0.6785
  954MOL0     C25814   7.663   5.210   7.683  1.1198  0.1581  0.0249
  954MOL0     C25815   7.663   5.138   7.798 -0.0088  0.8576  0.1220
  954MOL0     C25816   7.542   5.072   7.855  0.4351  0.0257  0.6977
  954MOL0     C25817   7.558   4.914   7.858  0.0442 -0.3574  0.5010
  954MOL0     C25818   7.477   4.836   7.749 -0.0730 -0.1467 -0.5103
  954MOL0     C25819   7.322   4.851   7.750  1.0047 -0.4844 -0.0575
  954MOL0     O25820   7.280   4.730   7.678  0.5199 -0.3417 -0.0996
  954MOL0     C25821   7.149   4.707   7.641 -0.0564 -0.7011  0.3081
  954MOL0     C25822   7.036   4.782   7.687 -0.2676  0.6453 -1.0088
  954MOL0     C25823   6.909   4.750   7.635  0.2791  0.0590  0.0831
  954MOL0     C25824   6.888   4.643   7.551  0.5916 -0.5541  0.4738
  954MOL0     C25825   6.753   4.613   7.488 -0.2012 -0.7206 -0.4391
  954MOL0     O25826   6.744   4.521   7.389 -0.2143 -0.2693 -0.7401
  954MOL0     C25827   6.624   4.468   7.343  0.0304 -0.4691  0.3775
  954MOL0     C25828   6.634   4.410   7.218 -0.1259 -0.3044  0.4146
  954MOL0     C25829   6.517   4.346   7.169  1.0243  0.1132 -0.6507
  954MOL0     C25830   6.394   4.355   7.232  0.4248  0.2531  0.5238
  954MOL0     O25831   6.294   4.296   7.164 -0.7679  0.4443 -0.0380
  954MOL0     C25832   6.166   4.295   7.224  0.7328  0.0594 -0.2921
  954MOL0     C25833   6.069   4.211   7.130 -0.2204 -0.3988 -0.6488
  954MOL0     C25834   5.926   4.249   7.182 -0.2620 -0.5299 -0.5506
  954MOL0     C25835   5.817   4.162   7.121 -0.3140 -0.2092 -0.4262
  954MOL0     C25836   5.687   4.242   7.088 -0.6989 -0.3734 -0.1625
  954MOL0     C25837   5.565   4.167   7.042 -0.4439  0.0728  1.7639
  954MOL0     C25838   5.497   4.099   7.159  0.3054 -0.2069 -0.5655
  954MOL0     C25839   5.413   3.984   7.093  0.4341  0.5170 -0.0401
  954MOL0    Cl25840   5.324   3.901   7.218  0.3693 -0.1250  0.1616
  954MOL0     C25841   6.389   4.407   7.363 -0.3604  0.9344 -0.5590
  954MOL0     C25842   6.499   4.471   7.413 -0.3737  0.0083 -0.3344
  954MOL0     O25843   6.655   4.679   7.530 -0.3415  0.0385  0.7618
  954MOL0     C25844   6.995   4.564   7.511 -0.2079 -0.0211 -0.3301
  954MOL0     C25845   7.129   4.599   7.554 -0.3218  0.4025  0.4688
  954MOL0     N25846   7.796   5.123   7.832  0.3770  0.2113 -0.1052
  954MOL0     N25847   7.861   5.212   7.770 -1.0120  0.3809 -0.0470
  954MOL0     C25848   8.640   5.750   7.453 -0.2497 -0.3169 -0.1695
  954MOL0     C25849   8.770   5.776   7.401 -0.4469 -0.1506  0.7555
  954MOL0     C25850   9.201   5.923   7.360 -0.1895 -0.2750  0.2910
  954MOL0     C25851   9.200   5.954   7.227 -0.1008  0.4539  0.4570
  954MOL0     C25852   9.323   5.986   7.160  0.4491 -0.1496 -0.3049
  954MOL0     C25853   9.449   5.984   7.234  0.4025 -0.6026  0.2893
  954MOL0     O25854   9.569   6.035   7.187 -0.1313 -0.1104 -0.7581
  954MOL0     C25855   9.574   6.082   7.050 -0.4395  0.6599  0.7136
  954MOL0     C25856   9.705   6.145   7.008  0.5822  0.6704 -0.4042
  954MOL0     C25857   9.819   6.048   7.010 -0.1435  0.2231  0.4859
  954MOL0     C25858   9.934   6.084   6.920  0.0591 -0.3138 -0.4116
  954MOL0     C25859   9.982   6.223   6.930 -0.7708 -0.7324  0.8953
  954MOL0     C25860  10.023   6.333   6.913  0.1501 -0.5820 -0.6086
  954MOL0     C25861   9.443   5.948   7.365 -0.1253 -1.6992 -0.4077
  954MOL0     C25862   9.320   5.924   7.438  0.7948  0.8395  1.1314
  954MOL0     H25863   8.802   6.106   7.472 -0.5187  1.1907 -3.2238
  954MOL0     H25864   8.578   6.065   7.563  2.1694  1.9253  1.0838
  954MOL0     H25865   8.364   6.039   7.421 -3.3155  2.5075  0.2625
  954MOL0     H25866   8.325   6.028   7.591  2.4986  1.1550  0.0725
  954MOL0     H25867   8.202   5.859   7.378 -0.4289  0.8598 -0.0621
  954MOL0     H25868   8.129   6.005   7.429  0.4428  0.1589 -0.5649
  954MOL0     H25869   8.093   5.931   7.650  1.9575 -1.5901  2.6642
  954MOL0     H25870   8.180   5.781   7.625  0.4680  0.7889  1.0409
  954MOL0     H25871   7.919   5.860   7.481 -1.3467 -0.9139 -0.0388
  954MOL0     H25872   8.017   5.732   7.426 -1.7577 -0.0346 -0.8648
  954MOL0     H25873   7.865   5.757   7.699 -0.3403  2.3825 -1.3493
  954MOL0     H25874   7.976   5.628   7.659  0.2000 -0.5963  0.4040
  954MOL0     H25875   7.800   5.607   7.444  1.6006  1.2107 -0.3155
  954MOL0     H25876   7.697   5.691   7.547  0.1339 -0.3450  1.4572
  954MOL0     H25877   7.785   5.522   7.734 -2.2687 -1.1583  1.4292
  954MOL0     H25878   7.647   5.502   7.629  0.1149  2.9793 -0.1534
  954MOL0     H25879   7.937   5.404   7.594 -0.5219 -0.3869 -0.7579
  954MOL0     H25880   7.814   5.364   7.485 -1.3646  0.2810  0.2187
  954MOL0     H25881   7.572   5.238   7.632  0.3248 -1.0372  0.7151
  954MOL0     H25882   7.457   5.111   7.798  1.3058 -1.3607 -1.7340
  954MOL0     H25883   7.522   5.098   7.959 -2.3266 -1.2939  0.5937
  954MOL0     H25884   7.516   4.882   7.954 -0.4388  0.2932  0.5096
  954MOL0     H25885   7.660   4.876   7.866 -0.2601 -0.9610  1.8016
  954MOL0     H25886   7.513   4.877   7.653 -1.1756  2.3988  0.1013
  954MOL0     H25887   7.505   4.731   7.760 -2.9383 -0.8428  1.0460
  954MOL0     H25888   7.290   4.943   7.702  1.9929  0.3602  0.8436
  954MOL0     H25889   7.276   4.850   7.849 -1.9159 -1.3331 -1.3238
  954MOL0     H25890   7.063   4.865   7.752  1.1825  0.8774 -1.8541
  954MOL0     H25891   6.831   4.820   7.663  2.1475  2.2264  0.1231
  954MOL0     H25892   6.717   4.430   7.152  0.9901 -0.3605  1.7619
  954MOL0     H25893   6.520   4.287   7.078  2.1528 -0.0667 -0.5230
  954MOL0     H25894   6.134   4.398   7.247  2.6916  0.0942  2.9435
  954MOL0     H25895   6.173   4.234   7.315  1.0663 -0.6744 -0.8099
  954MOL0     H25896   6.083   4.104   7.142  0.3977 -0.3934 -1.3203
  954MOL0     H25897   6.072   4.245   7.026 -1.5065 -1.2995 -1.0045
  954MOL0     H25898   5.906   4.354   7.159 -4.8492 -0.9951  0.3519
  954MOL0     H25899   5.926   4.233   7.291 -0.4653  1.1461 -0.2861
  954MOL0     H25900   5.856   4.116   7.030  1.2333  2.9886 -1.5057
  954MOL0     H25901   5.796   4.077   7.188 -1.8157 -0.6597 -1.4309
  954MOL0     H25902   5.729   4.310   7.013  2.9075 -0.2284  1.7373
  954MOL0     H25903   5.658   4.301   7.176 -1.0936  1.6302 -1.5639
  954MOL0     H25904   5.593   4.094   6.966 -0.1350  1.3581  0.5965
  954MOL0     H25905   5.489   4.233   6.999  0.0558  0.2238  1.1090
  954MOL0     H25906   5.572   4.058   7.227  0.4681  0.9235 -0.0336
  954MOL0     H25907   5.431   4.170   7.211 -0.1261 -0.3896 -0.8521
  954MOL0     H25908   5.466   3.908   7.036  0.2311  0.5040 -0.2128
  954MOL0     H25909   5.336   4.024   7.027 -1.4044 -0.0329  1.6627
  954MOL0     H25910   6.299   4.406   7.424 -0.3515  0.0177 -0.5532
  954MOL0     H25911   6.485   4.505   7.515 -0.0114  2.3242 -0.9983
  954MOL0     H25912   6.978   4.478   7.447 -0.4485  1.4820 -2.3982
  954MOL0     H25913   7.212   4.536   7.523  0.2635  0.8505  1.1021
  954MOL0     H25914   8.593   5.653   7.440 -3.1416  0.7154  1.4755
  954MOL0     H25915   8.822   5.689   7.361 -2.5512 -0.0782 -2.4500
  954MOL0     H25916   9.101   5.952   7.184 -0.0999 -2.1292  0.3863
  954MOL0     H25917   9.312   6.029   7.061  0.7701  1.3815  0.2848
  954MOL0     H25918   9.490   6.151   7.040 -0.4553  1.1698  3.4724
  954MOL0     H25919   9.566   5.987   6.997  0.8121 -1.6008  4.1661
  954MOL0     H25920   9.698   6.194   6.910  1.1682 -0.3505 -0.9655
  954MOL0     H25921   9.724   6.230   7.075  0.1055  0.5632 -0.1329
  954MOL0     H25922   9.782   5.954   6.969 -0.4348  1.1231 -1.4482
  954MOL0     H25923   9.848   6.026   7.113  0.2712 -1.1032  0.0939
  954MOL0     H25924  10.019   6.019   6.944  0.9788  0.9846 -0.0099
  954MOL0     H25925   9.909   6.054   6.818  1.1953 -3.4852  0.1163
  954MOL0     H25926  10.060   6.432   6.892 -0.1530 -0.5772 -1.1172
  954MOL0     H25927   9.526   5.941   7.434  0.9604 -1.3131 -1.6604
  954MOL0     H25928   9.318   5.899   7.543 -1.0080 -2.7698  0.3909
  955MOL0     O25929   9.718   4.845   7.037  0.6076  1.1917 -0.0484
  955MOL0     C25930   9.694   4.964   7.026  0.1946 -0.7911 -0.3832
  955MOL0     O25931   9.575   5.024   7.006  0.4906 -0.4030  0.6575
  955MOL0     C25932   9.455   4.956   6.989 -0.5882  0.7096 -0.3071
  955MOL0     C25933   9.426   4.822   6.947 -0.2268 -0.8385  0.1341
  955MOL0     C25934   9.291   4.775   6.944 -0.1804  1.2301  0.1435
  955MOL0     C25935   9.180   4.844   6.976  1.0825 -0.6087 -0.8264
  955MOL0     O25936   9.056   4.786   6.972  0.1347 -0.7468  0.3457
  955MOL0     C25937   8.964   4.826   7.072  0.4668 -0.0090 -0.1880
  955MOL0     C25938   8.848   4.907   7.025  0.3060  0.1150  0.4994
  955MOL0     C25939   8.774   4.854   6.900 -0.5556 -1.0810 -0.7432
  955MOL0     C25940   8.635   4.915   6.882  0.5808  0.4315 -0.5786
  955MOL0     C25941   8.539   4.834   6.802 -0.0486 -0.0802 -0.6514
  955MOL0     C25942   8.572   4.806   6.656  0.2229 -1.2874  0.5522
  955MOL0     C25943   8.445   4.735   6.599  0.3337 -0.7107 -0.3988
  955MOL0     C25944   8.467   4.687   6.454  0.2837  0.1824  0.5968
  955MOL0     N25945   8.507   4.548   6.438 -0.3011  0.1422  0.2613
  955MOL0     C25946   8.631   4.508   6.430  0.5272 -1.4163 -0.6561
  955MOL0     C25947   8.629   4.378   6.438  0.0377 -0.3657 -0.2953
  955MOL0     C25948   8.752   4.293   6.476 -0.8120  0.7644  0.4818
  955MOL0     C25949   8.766   4.174   6.381  0.1900  0.1451 -0.7204
  955MOL0     C25950   8.804   4.210   6.236  0.8412  0.1038 -0.1249
  955MOL0     C25951   8.953   4.203   6.210 -0.7851 -0.3742  0.0209
  955MOL0     O25952   9.024   4.276   6.315  0.0422  0.0932  0.2986
  955MOL0     C25953   9.158   4.289   6.311 -0.0155  0.5355  0.1386
  955MOL0     C25954   9.238   4.216   6.223  0.7365 -0.4013  1.0787
  955MOL0     C25955   9.376   4.227   6.230 -0.1920 -0.3168 -0.0715
  955MOL0     C25956   9.439   4.316   6.314  1.1340 -0.5675  0.2016
  955MOL0     C25957   9.589   4.339   6.316  0.0609  0.6372  0.7499
  955MOL0     O25958   9.656   4.295   6.209 -0.9577 -1.0617  0.5199
  955MOL0     C25959   9.791   4.279   6.216 -0.9295 -0.0094 -0.0825
  955MOL0     C25960   9.857   4.309   6.101  0.3259 -1.1977  0.2980
  955MOL0     C25961   9.996   4.291   6.089  1.2239 -0.0399 -0.2064
  955MOL0     C25962  10.069   4.236   6.195  0.8073  0.1275 -0.9707
  955MOL0     O25963  10.192   4.207   6.156 -0.1784 -0.3866  0.1228
  955MOL0     C25964  10.271   4.126   6.240 -0.0402  0.5412  0.2894
  955MOL0     C25965  10.405   4.076   6.180 -0.8519 -0.1516 -0.9189
  955MOL0     C25966  10.490   4.188   6.116  0.2353 -0.0333  0.0543
  955MOL0     C25967  10.620   4.128   6.065 -0.3343 -0.6765 -0.4326
  955MOL0     C25968  10.724   4.220   6.000  0.8939 -0.3771  0.9191
  955MOL0     C25969  10.666   4.256   5.851 -0.0238 -0.3687 -1.0490
  955MOL0     C25970  10.701   4.141   5.752  0.3444 -0.2688 -0.2259
  955MOL0     C25971  10.841   4.154   5.688  0.6854 -0.2567 -1.1741
  955MOL0    Cl25972  10.851   4.248   5.533 -0.7406  0.0407 -0.2603
  955MOL0     C25973   9.996   4.204   6.311 -0.1551 -0.0494 -0.7538
  955MOL0     C25974   9.859   4.229   6.327  0.0103  0.5113  0.2284
  955MOL0     O25975   9.627   4.407   6.411 -0.4150 -0.8429  0.2400
  955MOL0     C25976   9.356   4.380   6.408 -0.4878 -1.3946 -1.0817
  955MOL0     C25977   9.222   4.373   6.403  0.6981  0.2588  0.0210
  955MOL0     N25978   8.495   4.324   6.449  0.2622  0.1872 -0.2062
  955MOL0     N25979   8.434   4.431   6.437  0.4617  0.2624  0.1434
  955MOL0     C25980   9.202   4.979   7.014  0.0758  0.1075  0.2179
  955MOL0     C25981   9.337   5.030   7.012  0.1106 -0.2335  0.1899
  955MOL0     C25982   9.815   5.063   7.023  0.9292  0.2013 -1.0271
  955MOL0     C25983   9.792   5.192   6.982  0.1780 -1.2149  0.0082
  955MOL0     C25984   9.891   5.287   7.009 -0.5555  0.1707 -0.1199
  955MOL0     C25985  10.022   5.256   7.050  0.1552  1.3466  0.3643
  955MOL0     O25986  10.116   5.346   7.087 -0.1506  0.3095  1.1635
  955MOL0     C25987  10.093   5.484   7.071  0.6018 -0.1263 -0.5796
  955MOL0     C25988  10.218   5.560   7.115 -1.2691  0.0751  0.5029
  955MOL0     C25989  10.199   5.709   7.110  0.1629 -0.8134 -0.7331
  955MOL0     C25990  10.208   5.766   6.971 -0.3505  0.9845 -0.4004
  955MOL0     C25991  10.080   5.747   6.903  0.2283 -0.4108  0.6481
  955MOL0     C25992   9.981   5.720   6.848 -0.2164  0.3064 -0.7596
  955MOL0     C25993  10.043   5.123   7.074  1.0385  0.0875 -0.4329
  955MOL0     C25994   9.945   5.023   7.077 -0.0476  0.0313  0.0007
  955MOL0     H25995   9.508   4.757   6.918 -0.5452 -2.1008  1.9157
  955MOL0     H25996   9.270   4.676   6.905 -0.3224  0.4530  2.0591
  955MOL0     H25997   9.011   4.879   7.156 -1.3483  1.1859  0.1214
  955MOL0     H25998   8.928   4.728   7.102  1.6926 -1.3888 -2.8452
  955MOL0     H25999   8.874   5.011   7.003 -0.3036  0.0532 -0.6101
  955MOL0     H26000   8.771   4.907   7.102 -1.1528 -1.1164 -0.8777
  955MOL0     H26001   8.765   4.747   6.919  1.3763 -0.9411  1.5193
  955MOL0     H26002   8.838   4.868   6.813  0.5195 -1.3393 -0.0121
  955MOL0     H26003   8.582   4.937   6.975  0.2195  2.4726 -1.2211
  955MOL0     H26004   8.649   5.004   6.820 -2.8057  0.6257 -1.2514
  955MOL0     H26005   8.447   4.893   6.805 -0.1480 -0.2386 -0.5726
  955MOL0     H26006   8.516   4.734   6.839 -2.4074 -0.1551 -2.1023
  955MOL0     H26007   8.659   4.740   6.647  1.8118  0.9279 -1.9071
  955MOL0     H26008   8.594   4.900   6.604 -0.2979 -1.4622  0.0011
  955MOL0     H26009   8.427   4.648   6.664  0.0540  2.2216  3.8703
  955MOL0     H26010   8.360   4.804   6.600 -0.9742 -2.0484 -3.8455
  955MOL0     H26011   8.540   4.758   6.414 -3.6245  4.8289  0.7450
  955MOL0     H26012   8.376   4.701   6.395 -0.0489 -0.7606  0.8829
  955MOL0     H26013   8.722   4.565   6.442 -1.1908  1.3060  0.2985
  955MOL0     H26014   8.735   4.248   6.574 -0.2814  0.0361  0.2525
  955MOL0     H26015   8.838   4.360   6.465 -1.1571  1.0206 -0.7801
  955MOL0     H26016   8.669   4.126   6.366  0.8696 -0.7806 -2.4104
  955MOL0     H26017   8.838   4.106   6.427 -0.1755  1.4718  2.0018
  955MOL0     H26018   8.751   4.145   6.166  2.1613 -1.9739  0.7191
  955MOL0     H26019   8.778   4.315   6.221  0.3154  0.2061  1.4001
  955MOL0     H26020   8.986   4.237   6.111  0.0071 -2.6761 -0.5885
  955MOL0     H26021   8.984   4.098   6.212 -1.1135 -0.4638  0.4620
  955MOL0     H26022   9.204   4.147   6.146  2.4020  1.8138 -1.8658
  955MOL0     H26023   9.437   4.165   6.164  0.0656 -1.8109  1.5000
  955MOL0     H26024   9.804   4.342   6.013 -1.3334 -3.3478  0.4276
  955MOL0     H26025  10.038   4.321   5.994 -2.3510  0.5712 -1.7840
  955MOL0     H26026  10.205   4.041   6.259 -1.5277  1.6997  0.5130
  955MOL0     H26027  10.294   4.175   6.335 -1.9772  0.4871  0.8206
  955MOL0     H26028  10.389   3.989   6.115 -1.6788 -1.7574  1.3206
  955MOL0     H26029  10.463   4.033   6.261 -0.6379 -0.8591 -1.4428
  955MOL0     H26030  10.517   4.259   6.195 -1.0829 -0.4213  0.8691
  955MOL0     H26031  10.436   4.238   6.035  0.3628 -1.1117 -0.7189
  955MOL0     H26032  10.666   4.081   6.153 -1.1623 -0.6763  0.0111
  955MOL0     H26033  10.600   4.058   5.983  1.1444 -0.4121 -1.0684
  955MOL0     H26034  10.820   4.168   5.989  0.9020 -0.1870  0.0392
  955MOL0     H26035  10.737   4.303   6.071 -1.7629  1.4086 -0.5138
  955MOL0     H26036  10.712   4.345   5.808  1.9839 -0.8262  0.0123
  955MOL0     H26037  10.558   4.271   5.851 -0.4456 -2.8322  0.4800
  955MOL0     H26038  10.699   4.043   5.800  1.5868  0.2857  1.0349
  955MOL0     H26039  10.631   4.135   5.668 -0.7603 -0.6437  0.7003
  955MOL0     H26040  10.867   4.050   5.662 -1.1484 -1.1474  0.3009
  955MOL0     H26041  10.916   4.183   5.761  1.8626 -2.6663 -1.3089
  955MOL0     H26042  10.039   4.161   6.401 -0.6298  1.1952  0.0953
  955MOL0     H26043   9.812   4.204   6.422 -1.5725  0.2613 -0.5770
  955MOL0     H26044   9.390   4.450   6.484 -0.0239 -3.8340  1.0941
  955MOL0     H26045   9.157   4.425   6.473  0.2767  1.0891 -0.9495
  955MOL0     H26046   9.120   5.045   7.038  0.5690  0.9750 -0.4113
  955MOL0     H26047   9.350   5.134   7.040  2.0519  0.0533 -1.5910
  955MOL0     H26048   9.695   5.215   6.938  0.5401 -0.8779 -0.6252
  955MOL0     H26049   9.873   5.393   6.990 -3.2909 -0.0264  0.8829
  955MOL0     H26050  10.010   5.515   7.135 -0.6000  1.6142 -2.8080
  955MOL0     H26051  10.064   5.498   6.966  2.4985 -0.0391 -1.1367
  955MOL0     H26052  10.267   5.525   7.206  1.1722 -2.5778 -1.6474
  955MOL0     H26053  10.287   5.537   7.034 -0.9753 -0.9692  1.0320
  955MOL0     H26054  10.273   5.749   7.179 -1.5514 -0.8800  1.2629
  955MOL0     H26055  10.101   5.727   7.155  1.1230  0.3506  0.9932
  955MOL0     H26056  10.231   5.872   6.963  0.7090  0.7741 -0.3768
  955MOL0     H26057  10.281   5.709   6.913 -3.5121 -4.0640 -0.0588
  955MOL0     H26058   9.900   5.672   6.796  0.3141 -1.2250 -0.2384
  955MOL0     H26059  10.137   5.086   7.113  0.2916  2.5149  4.3563
  955MOL0     H26060   9.972   4.928   7.121 -1.8364 -0.7907 -0.6192
  956MOL0     O26061   1.641   8.162   4.001 -0.1748 -0.5667 -0.4536
  956MOL0     C26062   1.687   8.064   4.061 -0.5685  0.7386  0.6099
  956MOL0     O26063   1.612   7.980   4.141  0.2231 -0.3616 -0.2879
  956MOL0     C26064   1.474   7.987   4.130  0.6253 -0.1011  0.1729
  956MOL0     C26065   1.406   7.888   4.058  0.0275  0.1676  0.3833
  956MOL0     C26066   1.267   7.901   4.058  0.9195  0.3115  0.8180
  956MOL0     C26067   1.196   8.007   4.119 -0.1080  0.3586  0.7614
  956MOL0     O26068   1.061   8.007   4.102 -0.0327 -1.0153 -0.0048
  956MOL0     C26069   0.968   8.088   4.185  0.6463  0.1723  0.2851
  956MOL0     C26070   0.839   8.121   4.102  0.5434  0.2847  0.1350
  956MOL0     C26071   0.730   8.185   4.198  0.1606 -0.2198  0.9775
  956MOL0     C26072   0.669   8.094   4.299  0.4035 -0.5672  0.0146
  956MOL0     C26073   0.562   8.148   4.391  0.1020 -0.8295  0.1130
  956MOL0     C26074   0.605   8.286   4.451  0.4841 -0.2605 -0.0935
  956MOL0     C26075   0.727   8.262   4.535 -0.9567 -0.9122  0.0348
  956MOL0     C26076   0.773   8.389   4.607  0.2937 -0.1088  0.9610
  956MOL0     N26077   0.690   8.429   4.722  0.6092  0.0045 -0.7872
  956MOL0     C26078   0.669   8.361   4.839 -0.1404  0.4330  0.1529
  956MOL0     C26079   0.555   8.403   4.892 -0.2703  0.0623 -0.4593
  956MOL0     C26080   0.508   8.353   5.029  0.3045  0.6494 -0.3729
  956MOL0     C26081   0.357   8.353   5.049 -0.4471 -0.2531 -0.4359
  956MOL0     C26082   0.335   8.329   5.202 -0.4651 -0.4905  0.1707
  956MOL0     C26083   0.204   8.297   5.246 -0.1437 -0.4102 -0.2465
  956MOL0     O26084   0.127   8.426   5.240  0.3125 -0.3239 -0.7360
  956MOL0     C26085  -0.012   8.427   5.261  0.2268  0.7903 -0.0341
  956MOL0     C26086  -0.079   8.544   5.293  0.1898  0.9361 -0.0008
  956MOL0     C26087  -0.219   8.546   5.295  0.9300 -0.4441 -0.2508
  956MOL0     C26088  -0.303   8.431   5.291 -0.7220 -0.3904  0.0604
  956MOL0     C26089  -0.441   8.433   5.320  0.4530  0.0516  0.5902
  956MOL0     O26090  -0.494   8.558   5.349  0.0295  0.8490 -0.6570
  956MOL0     C26091  -0.622   8.559   5.389 -0.1785 -0.8128  0.3052
  956MOL0     C26092  -0.658   8.524   5.514  0.1755  0.4374  0.4312
  956MOL0     C26093  -0.793   8.525   5.547  0.2651  1.0126 -0.2076
  956MOL0     C26094  -0.897   8.562   5.453 -0.3554 -0.4149 -0.0366
  956MOL0     O26095  -1.026   8.557   5.493  0.0402 -0.2892  0.7644
  956MOL0     C26096  -1.121   8.594   5.389 -0.1159  0.1211  0.7504
  956MOL0     C26097  -1.256   8.587   5.459 -0.1213  0.0932  0.1893
  956MOL0     C26098  -1.374   8.625   5.363 -0.2989 -0.1520  0.4663
  956MOL0     C26099  -1.499   8.636   5.445  0.1882 -0.4901 -0.5945
  956MOL0     C26100  -1.626   8.683   5.363 -0.7143 -0.6669 -0.2200
  956MOL0     C26101  -1.754   8.675   5.445 -0.0047  0.4332 -0.3812
  956MOL0     C26102  -1.860   8.742   5.364  0.3700 -0.1756  0.1254
  956MOL0     C26103  -1.992   8.743   5.438  0.1571 -0.0906  0.7320
  956MOL0    Cl26104  -2.109   8.845   5.368  0.3256 -0.0992  0.0643
  956MOL0     C26105  -0.849   8.607   5.329 -0.6655 -0.1423 -0.1069
  956MOL0     C26106  -0.710   8.611   5.294  0.1952 -0.3354  0.6109
  956MOL0     O26107  -0.512   8.323   5.309 -0.7533 -0.4591  0.1089
  956MOL0     C26108  -0.232   8.306   5.268 -0.2920 -0.4668 -0.2783
  956MOL0     C26109  -0.087   8.305   5.250 -0.9913  0.1945  0.1225
  956MOL0     N26110   0.498   8.492   4.809 -0.3138 -0.0808  0.1668
  956MOL0     N26111   0.575   8.510   4.707  0.0370  0.5211  0.1002
  956MOL0     C26112   1.269   8.108   4.175  0.3954 -0.5096 -0.3257
  956MOL0     C26113   1.404   8.100   4.186  0.1229 -0.6138 -0.5309
  956MOL0     C26114   1.838   8.053   4.077  0.0833 -0.2674  0.5176
  956MOL0     C26115   1.900   7.944   4.144 -0.8555 -0.3060  0.2511
  956MOL0     C26116   2.043   7.940   4.160 -0.0048  0.3345  0.2749
  956MOL0     C26117   2.121   8.043   4.099 -0.0426  0.6888  0.2992
  956MOL0     O26118   2.255   8.031   4.101 -0.2252 -0.3685 -0.2999
  956MOL0     C26119   2.325   8.123   4.016 -1.0264 -0.8251  0.5227
  956MOL0     C26120   2.469   8.077   3.997 -0.2588  0.0077 -1.1441
  956MOL0     C26121   2.469   7.941   3.934 -0.1292  0.1082  0.0366
  956MOL0     C26122   2.602   7.910   3.884 -0.0436 -0.0605 -0.1728
  956MOL0     C26123   2.603   7.802   3.785  0.1926  0.5883  0.6682
  956MOL0     C26124   2.585   7.708   3.708  0.6825  1.3883  1.2075
  956MOL0     C26125   2.054   8.157   4.050 -0.4488  0.3523 -0.1180
  956MOL0     C26126   1.915   8.153   4.028  0.0122 -0.0942  0.0879
  956MOL0     H26127   1.458   7.806   4.011 -0.9848 -0.8335  0.9507
  956MOL0     H26128   1.200   7.834   4.005  1.0177  0.2392  0.7852
  956MOL0     H26129   1.020   8.180   4.215 -0.5818  1.9011 -2.4605
  956MOL0     H26130   0.938   8.030   4.273 -1.2753  1.1091  0.3010
  956MOL0     H26131   0.790   8.035   4.055  0.0101  0.0145  1.1464
  956MOL0     H26132   0.866   8.194   4.025  0.2033  0.6895  0.3954
  956MOL0     H26133   0.643   8.212   4.137  1.0134 -0.3798 -0.3392
  956MOL0     H26134   0.777   8.271   4.246  2.0379 -1.4329  1.3878
  956MOL0     H26135   0.634   8.001   4.254 -2.6853 -0.5151  2.0748
  956MOL0     H26136   0.755   8.062   4.359  1.3146  1.6371 -0.0046
  956MOL0     H26137   0.546   8.079   4.474  2.9814 -1.0168  0.6479
  956MOL0     H26138   0.466   8.175   4.348 -1.1267  0.7733  3.4880
  956MOL0     H26139   0.526   8.322   4.517 -0.7349  0.5637 -1.9444
  956MOL0     H26140   0.639   8.355   4.374  2.6192 -3.8089 -2.6736
  956MOL0     H26141   0.716   8.190   4.617  1.7232 -2.5582 -0.9162
  956MOL0     H26142   0.818   8.226   4.486 -2.0939 -1.8045 -1.5204
  956MOL0     H26143   0.765   8.477   4.543  0.3713  1.0501  2.4667
  956MOL0     H26144   0.878   8.382   4.638  0.2043 -1.5490  0.9982
  956MOL0     H26145   0.740   8.303   4.897  0.5538  1.4487  0.3488
  956MOL0     H26146   0.563   8.400   5.111  1.2089  0.9860 -1.1523
  956MOL0     H26147   0.539   8.249   5.041  2.8669  1.4957  1.2697
  956MOL0     H26148   0.316   8.276   4.984 -1.4801  3.5158 -4.7229
  956MOL0     H26149   0.299   8.438   5.011 -3.5751 -2.1667 -0.2689
  956MOL0     H26150   0.407   8.251   5.229  1.6971  0.8678 -1.3282
  956MOL0     H26151   0.366   8.414   5.264  1.9006 -2.2046  1.5022
  956MOL0     H26152   0.221   8.269   5.350  2.7411  1.5764 -0.0683
  956MOL0     H26153   0.160   8.217   5.185 -0.6097  0.7999 -1.5580
  956MOL0     H26154  -0.015   8.632   5.298 -0.3853  1.3020  1.4780
  956MOL0     H26155  -0.268   8.642   5.301 -0.6116 -1.2319  0.2223
  956MOL0     H26156  -0.582   8.491   5.584  1.1903  0.4520 -0.6410
  956MOL0     H26157  -0.823   8.474   5.638  1.1013  0.8070 -0.0384
  956MOL0     H26158  -1.134   8.518   5.311 -0.0779 -0.7436  1.5643
  956MOL0     H26159  -1.113   8.695   5.350  0.3933 -0.1763  0.0612
  956MOL0     H26160  -1.246   8.663   5.537 -2.0666 -1.2162  1.8129
  956MOL0     H26161  -1.259   8.492   5.513  0.0628  0.3228  0.6072
  956MOL0     H26162  -1.397   8.550   5.286 -0.4184 -0.0740  0.4251
  956MOL0     H26163  -1.348   8.714   5.306  0.0246 -0.8727 -0.5528
  956MOL0     H26164  -1.507   8.543   5.502  0.6034  0.3255  0.8416
  956MOL0     H26165  -1.501   8.715   5.520 -2.5393  0.9647 -2.0310
  956MOL0     H26166  -1.655   8.625   5.274 -1.8749  0.1013 -0.3665
  956MOL0     H26167  -1.610   8.785   5.326 -2.3632 -0.4449 -0.4025
  956MOL0     H26168  -1.753   8.715   5.547 -0.7360 -2.5125  0.8876
  956MOL0     H26169  -1.765   8.566   5.444 -0.2230  0.4501 -0.0708
  956MOL0     H26170  -1.833   8.846   5.346 -2.0529  0.0228 -3.2868
  956MOL0     H26171  -1.878   8.692   5.269 -1.2256 -0.4802  0.5536
  956MOL0     H26172  -1.976   8.785   5.538 -0.3381  2.2374 -0.1047
  956MOL0     H26173  -2.024   8.639   5.449  0.0031  0.0655  1.9285
  956MOL0     H26174  -0.910   8.637   5.244  0.9255  3.9636 -0.0371
  956MOL0     H26175  -0.675   8.642   5.196 -0.8228 -0.4674  0.1871
  956MOL0     H26176  -0.273   8.208   5.246  1.4902 -0.8954 -2.0418
  956MOL0     H26177  -0.036   8.217   5.212  1.0581  1.6477 -0.6571
  956MOL0     H26178   1.218   8.202   4.196  2.1719 -0.0068  2.1585
  956MOL0     H26179   1.465   8.180   4.227  0.0734  0.3335 -2.1914
  956MOL0     H26180   1.847   7.856   4.179 -4.0368  1.2096 -0.4039
  956MOL0     H26181   2.091   7.855   4.208  0.5320  0.0171 -0.7888
  956MOL0     H26182   2.331   8.222   4.062  1.1898 -0.1253 -1.1161
  956MOL0     H26183   2.273   8.122   3.920 -2.0741  0.2685  1.0488
  956MOL0     H26184   2.529   8.148   3.940  0.7934 -1.3394 -1.7520
  956MOL0     H26185   2.513   8.092   4.097  1.2226  3.1171 -2.1213
  956MOL0     H26186   2.404   7.929   3.847 -0.8027 -2.3265  0.8041
  956MOL0     H26187   2.430   7.866   4.004 -2.2691  0.1074 -1.0590
  956MOL0     H26188   2.644   8.000   3.839 -0.1398 -0.1943 -0.5328
  956MOL0     H26189   2.658   7.878   3.973 -0.7464  0.4177  0.4461
  956MOL0     H26190   2.565   7.622   3.648 -1.4104  2.3423  0.4197
  956MOL0     H26191   2.112   8.245   4.026  0.8744 -0.8262 -1.4337
  956MOL0     H26192   1.867   8.238   3.979  2.1546  1.4580  0.5161
  957MOL0     O26193   4.342   4.663   6.318 -0.1870 -0.0160 -0.1167
  957MOL0     C26194   4.412   4.646   6.220  0.6042  0.9707  1.0402
  957MOL0     O26195   4.359   4.649   6.094 -0.1584  0.2340 -0.8299
  957MOL0     C26196   4.216   4.637   6.077  0.7051 -0.0436  0.6387
  957MOL0     C26197   4.153   4.714   5.971  0.3298  0.4973  0.2690
  957MOL0     C26198   4.021   4.684   5.931 -0.5106  0.4573  0.1054
  957MOL0     C26199   3.950   4.589   6.006  0.0291 -0.0033  0.1418
  957MOL0     O26200   3.819   4.561   5.982  0.3595 -0.6565 -0.1347
  957MOL0     C26201   3.754   4.634   5.876  0.0352 -0.3434  0.3336
  957MOL0     C26202   3.606   4.598   5.884 -0.3091  0.7306  0.7356
  957MOL0     C26203   3.508   4.682   5.790 -0.3757  0.2585 -0.2286
  957MOL0     C26204   3.360   4.640   5.811 -0.6018 -0.4214  0.2334
  957MOL0     C26205   3.253   4.678   5.706 -0.9562  0.0320  0.6647
  957MOL0     C26206   3.264   4.834   5.683  0.3728 -0.3234  0.4180
  957MOL0     C26207   3.223   4.922   5.803  0.8203  0.4583  0.8147
  957MOL0     C26208   3.089   4.888   5.866 -1.1669  0.5335  0.0459
  957MOL0     N26209   3.057   4.975   5.977 -0.0062  0.1672 -0.1280
  957MOL0     C26210   3.125   4.992   6.089  0.2781 -0.2270  0.4874
  957MOL0     C26211   3.043   5.069   6.164 -0.7316 -0.2101  0.0531
  957MOL0     C26212   3.085   5.126   6.302  1.2487 -0.6416  0.7191
  957MOL0     C26213   3.014   5.042   6.410  0.1741  0.4819  0.0087
  957MOL0     C26214   3.070   5.085   6.545  0.8164  0.5387 -0.1485
  957MOL0     C26215   3.191   5.007   6.584 -0.2056 -0.6292  0.2287
  957MOL0     O26216   3.176   4.862   6.601 -0.7009 -0.4187  0.5914
  957MOL0     C26217   3.283   4.787   6.619 -0.0438  0.2185 -0.1761
  957MOL0     C26218   3.410   4.837   6.662  1.1546 -0.4351  0.7272
  957MOL0     C26219   3.523   4.756   6.683 -0.1439 -0.5705  0.2417
  957MOL0     C26220   3.509   4.618   6.678  0.3029  0.2135  0.0472
  957MOL0     C26221   3.612   4.525   6.727  0.5478 -0.7729  0.2806
  957MOL0     O26222   3.705   4.568   6.819 -0.2726  0.1036  0.8455
  957MOL0     C26223   3.815   4.506   6.866 -0.4357 -0.8994 -0.9321
  957MOL0     C26224   3.886   4.579   6.961 -0.1106  0.2595 -0.6038
  957MOL0     C26225   4.003   4.524   7.017 -0.8234  0.5299  0.9161
  957MOL0     C26226   4.044   4.390   6.992  0.1771 -0.1524  0.2761
  957MOL0     O26227   4.146   4.315   7.047 -0.0294 -0.7559  0.1110
  957MOL0     C26228   4.232   4.387   7.133  0.7669  0.1876  0.2408
  957MOL0     C26229   4.325   4.295   7.209  0.3901 -0.2043  0.4066
  957MOL0     C26230   4.436   4.367   7.286  1.1895 -0.2170 -1.3292
  957MOL0     C26231   4.540   4.258   7.327 -0.4360  0.4579 -0.1593
  957MOL0     C26232   4.665   4.308   7.389  0.2694  0.1752 -0.1741
  957MOL0     C26233   4.752   4.190   7.426  0.4629 -0.6022  0.5486
  957MOL0     C26234   4.877   4.228   7.504  0.2308  0.7569  0.3274
  957MOL0     C26235   4.944   4.092   7.532 -1.1028  0.2058 -0.0268
  957MOL0    Cl26236   5.116   4.114   7.566 -0.0347  0.2150  0.2566
  957MOL0     C26237   3.956   4.311   6.911  0.0191 -0.4650  0.4144
  957MOL0     C26238   3.848   4.371   6.841  0.6036 -0.3612 -0.1688
  957MOL0     O26239   3.606   4.411   6.686 -0.3066  0.0480  0.8768
  957MOL0     C26240   3.383   4.571   6.640 -0.0278  0.3587 -0.5845
  957MOL0     C26241   3.273   4.651   6.598  0.2308 -1.1709 -0.9100
  957MOL0     N26242   2.922   5.085   6.107  0.0559 -0.1181 -0.1212
  957MOL0     N26243   2.941   5.049   5.993 -0.1697  0.0324  0.4066
  957MOL0     C26244   4.006   4.520   6.111 -0.8550  0.3511  0.3235
  957MOL0     C26245   4.138   4.541   6.144 -0.2293 -0.2966  0.2218
  957MOL0     C26246   4.549   4.606   6.232 -0.4738  0.1132  0.1403
  957MOL0     C26247   4.571   4.499   6.319 -0.4136 -0.5176 -0.6936
  957MOL0     C26248   4.702   4.447   6.335  0.8230 -0.3599 -0.2773
  957MOL0     C26249   4.804   4.504   6.257  0.1232  0.5137  0.2482
  957MOL0     O26250   4.921   4.437   6.259  0.1628 -0.5008  0.3777
  957MOL0     C26251   5.026   4.486   6.176  0.3489 -0.2921  0.3215
  957MOL0     C26252   5.164   4.429   6.210  0.0366 -0.0837 -0.2716
  957MOL0     C26253   5.188   4.443   6.363  0.8177 -1.0382  0.1093
  957MOL0     C26254   5.240   4.576   6.410  0.3635  0.1394 -0.9816
  957MOL0     C26255   5.388   4.592   6.423  0.4657  0.0354 -0.4104
  957MOL0     C26256   5.506   4.608   6.426 -0.1886  0.1908  0.4929
  957MOL0     C26257   4.788   4.624   6.181  0.8723  1.3489  0.4415
  957MOL0     C26258   4.660   4.671   6.171  0.2824  0.0020  0.4090
  957MOL0     H26259   4.213   4.786   5.917  1.1748 -0.4330 -0.0707
  957MOL0     H26260   3.975   4.739   5.849  0.8991  2.5889  0.6657
  957MOL0     H26261   3.805   4.620   5.781 -0.6887  0.2129 -0.1532
  957MOL0     H26262   3.749   4.741   5.900  0.3537  0.2769 -2.1017
  957MOL0     H26263   3.573   4.608   5.988 -3.7851  1.2737 -0.2799
  957MOL0     H26264   3.589   4.496   5.849 -2.3441  1.6858 -1.3287
  957MOL0     H26265   3.538   4.674   5.685  0.1719  4.3547 -0.5531
  957MOL0     H26266   3.523   4.788   5.810 -0.0813 -0.1433  1.9989
  957MOL0     H26267   3.368   4.531   5.813  1.1986 -0.3729 -1.4892
  957MOL0     H26268   3.316   4.674   5.905 -3.5601  1.0091 -1.5221
  957MOL0     H26269   3.159   4.646   5.751  0.4025 -0.1061  3.5806
  957MOL0     H26270   3.273   4.610   5.622 -1.0806 -1.2256  1.6375
  957MOL0     H26271   3.206   4.867   5.597  1.7933 -0.7769 -0.7633
  957MOL0     H26272   3.363   4.867   5.649 -1.3075  3.8849 -1.0010
  957MOL0     H26273   3.305   4.930   5.875  0.7281  0.6500  0.9006
  957MOL0     H26274   3.215   5.023   5.760 -0.8266 -0.2589 -0.6748
  957MOL0     H26275   3.104   4.791   5.915  0.8401  1.2079  0.8770
  957MOL0     H26276   3.002   4.889   5.799 -2.5323  0.6669  1.7496
  957MOL0     H26277   3.223   4.955   6.116  1.9551  3.3279 -0.1239
  957MOL0     H26278   3.057   5.231   6.310 -1.5436 -1.3446  1.0795
  957MOL0     H26279   3.193   5.135   6.318  1.2665  2.1062 -0.3748
  957MOL0     H26280   3.025   4.935   6.391 -0.2657  0.5647 -0.7422
  957MOL0     H26281   2.908   5.070   6.414 -0.6190 -1.7721 -2.4553
  957MOL0     H26282   3.104   5.188   6.543  3.2275 -0.2179 -0.9090
  957MOL0     H26283   2.990   5.057   6.614 -0.4204 -2.2134 -2.4746
  957MOL0     H26284   3.228   5.052   6.676 -0.3435 -0.9265  0.4313
  957MOL0     H26285   3.259   5.031   6.501 -0.6569  0.5673  0.1886
  957MOL0     H26286   3.437   4.939   6.687  2.4994 -0.5415 -0.1620
  957MOL0     H26287   3.619   4.798   6.711  0.5306  0.0139 -2.6626
  957MOL0     H26288   3.867   4.683   6.985 -1.0635 -0.5456  2.6315
  957MOL0     H26289   4.051   4.586   7.092 -2.6074  0.4710  2.1818
  957MOL0     H26290   4.172   4.441   7.207  0.3473  0.5182 -0.3342
  957MOL0     H26291   4.290   4.455   7.070 -1.2445  0.6771 -1.1785
  957MOL0     H26292   4.355   4.224   7.131 -2.3569 -1.1184  0.0983
  957MOL0     H26293   4.268   4.243   7.286 -0.8288  4.0369  2.6051
  957MOL0     H26294   4.384   4.409   7.373 -1.1405  2.1025 -3.6457
  957MOL0     H26295   4.480   4.451   7.232  1.6045  1.4616  1.4269
  957MOL0     H26296   4.496   4.189   7.399 -2.5850  2.6819  0.8286
  957MOL0     H26297   4.561   4.201   7.236  1.1628  0.8696 -0.0813
  957MOL0     H26298   4.638   4.362   7.480 -1.4371 -0.4253 -0.2855
  957MOL0     H26299   4.720   4.379   7.326  1.4898 -0.6694 -0.1011
  957MOL0     H26300   4.778   4.136   7.334 -2.3708 -0.6817 -0.2958
  957MOL0     H26301   4.695   4.127   7.494 -0.2062  1.0011  1.5414
  957MOL0     H26302   4.938   4.284   7.432 -2.0934 -1.0726 -3.4319
  957MOL0     H26303   4.852   4.283   7.595 -4.3427  0.4556 -0.4661
  957MOL0     H26304   4.929   4.029   7.444 -1.3689 -3.3705  2.3569
  957MOL0     H26305   4.895   4.039   7.614  1.4555  0.6488  1.9223
  957MOL0     H26306   3.986   4.212   6.877  0.3889  0.6011 -2.7402
  957MOL0     H26307   3.787   4.313   6.773 -2.7351 -0.9804  3.0542
  957MOL0     H26308   3.377   4.463   6.648 -1.0543  0.5601  2.7215
  957MOL0     H26309   3.177   4.612   6.567 -0.2961 -2.2335  1.7364
  957MOL0     H26310   3.938   4.454   6.165 -0.3910 -0.0568  0.4130
  957MOL0     H26311   4.185   4.495   6.231  0.7495  4.0378  2.2873
  957MOL0     H26312   4.489   4.447   6.367  1.7686 -2.6076  1.0241
  957MOL0     H26313   4.714   4.356   6.393  1.2918  1.0780  2.0424
  957MOL0     H26314   5.042   4.593   6.191  2.4038 -0.7428  1.7644
  957MOL0     H26315   4.997   4.462   6.073 -1.5580  0.1190  0.7350
  957MOL0     H26316   5.166   4.325   6.177  0.9304 -0.5810  1.2387
  957MOL0     H26317   5.242   4.483   6.156 -0.6527  1.3316  0.0916
  957MOL0     H26318   5.254   4.363   6.397  1.1345 -0.3765  1.1117
  957MOL0     H26319   5.093   4.416   6.410 -0.0166  2.0989  0.4399
  957MOL0     H26320   5.201   4.656   6.347 -2.1200 -1.4378 -1.5704
  957MOL0     H26321   5.206   4.584   6.514 -0.3164 -2.0756 -0.9955
  957MOL0     H26322   5.613   4.610   6.434 -0.2627  0.9349  1.4956
  957MOL0     H26323   4.865   4.659   6.113 -0.2403 -0.8537 -2.1216
  957MOL0     H26324   4.641   4.754   6.104  0.7172 -0.7073 -0.6252
  958MOL0     O26325   7.186   5.258   3.833 -0.0040 -0.3205 -0.2957
  958MOL0     C26326   7.093   5.188   3.887 -0.7179  0.5501  0.6342
  958MOL0     O26327   7.085   5.050   3.885 -0.0357  0.2631  0.6969
  958MOL0     C26328   7.194   4.975   3.870  0.1025 -0.4038 -0.5668
  958MOL0     C26329   7.222   4.873   3.965 -0.0454 -0.1393  0.1226
  958MOL0     C26330   7.346   4.808   3.963 -0.3689  0.1807  0.3421
  958MOL0     C26331   7.446   4.845   3.862 -0.3856 -0.2322 -1.0185
  958MOL0     O26332   7.577   4.805   3.861 -0.4771  0.0867 -0.1683
  958MOL0     C26333   7.639   4.720   3.962  1.0920 -0.5896 -0.3274
  958MOL0     C26334   7.748   4.802   4.044 -0.8629  0.2688  0.4703
  958MOL0     C26335   7.676   4.899   4.144  0.1710 -0.0339  0.2831
  958MOL0     C26336   7.778   4.968   4.226 -0.3543 -0.0010  0.2869
  958MOL0     C26337   7.731   5.107   4.294 -0.1215  0.0677  0.8310
  958MOL0     C26338   7.617   5.098   4.395 -0.2516  0.2125 -0.1447
  958MOL0     C26339   7.605   5.234   4.466 -0.3216  0.0278 -0.3817
  958MOL0     C26340   7.475   5.237   4.546  0.7246  0.6179  0.4429
  958MOL0     N26341   7.351   5.254   4.458 -0.3560 -0.8743  0.1499
  958MOL0     C26342   7.224   5.277   4.506 -0.0372 -0.4927 -0.1458
  958MOL0     C26343   7.148   5.271   4.396  0.9821 -0.3302  0.3493
  958MOL0     C26344   7.006   5.322   4.395  0.1055  0.4885  0.0726
  958MOL0     C26345   6.909   5.250   4.497 -0.7184 -0.6517 -0.0158
  958MOL0     C26346   6.884   5.103   4.466 -0.7289 -0.7897  0.4028
  958MOL0     C26347   6.769   5.059   4.541  0.4231 -0.0244  0.8420
  958MOL0     O26348   6.650   5.124   4.492  0.5951 -0.8653 -0.8747
  958MOL0     C26349   6.533   5.060   4.512  0.6038 -0.4758 -0.3104
  958MOL0     C26350   6.439   5.086   4.417 -0.0831  0.8377 -0.5276
  958MOL0     C26351   6.316   5.025   4.415 -0.1488 -0.2239 -0.4792
  958MOL0     C26352   6.287   4.936   4.522  0.2501 -1.2297  0.6258
  958MOL0     C26353   6.153   4.872   4.520  0.5943 -0.1969  0.0537
  958MOL0     O26354   6.065   4.918   4.422 -0.6236  0.4577  0.6394
  958MOL0     C26355   5.942   4.861   4.405 -0.0101 -0.0610  0.9370
  958MOL0     C26356   5.833   4.942   4.375  0.7566 -0.0763  0.8025
  958MOL0     C26357   5.708   4.892   4.353  1.0151 -0.0995 -1.3675
  958MOL0     C26358   5.687   4.751   4.350 -0.5897 -0.6532 -0.1967
  958MOL0     O26359   5.555   4.711   4.329 -0.0777 -0.7681  0.1285
  958MOL0     C26360   5.510   4.590   4.385  0.2092 -0.4501 -0.5455
  958MOL0     C26361   5.359   4.581   4.381  0.7400  0.6890 -0.1125
  958MOL0     C26362   5.306   4.575   4.233  0.2686  0.0242  0.1419
  958MOL0     C26363   5.159   4.604   4.245 -0.0461 -0.2976 -0.3492
  958MOL0     C26364   5.087   4.600   4.108 -0.4619  0.2969  0.1578
  958MOL0     C26365   4.958   4.686   4.113 -0.5285 -0.6071  0.6849
  958MOL0     C26366   4.863   4.657   3.991  0.9121  0.8458 -0.9433
  958MOL0     C26367   4.845   4.774   3.897 -0.6143 -0.7256  0.0693
  958MOL0    Cl26368   5.008   4.816   3.828 -0.4565 -0.2012  0.3645
  958MOL0     C26369   5.792   4.667   4.370  0.0280  0.3288  0.3038
  958MOL0     C26370   5.918   4.722   4.400  0.0378  0.4317 -0.5162
  958MOL0     O26371   6.128   4.789   4.602  0.7477 -0.4579 -0.5813
  958MOL0     C26372   6.384   4.918   4.628 -0.2221 -0.3737  0.3187
  958MOL0     C26373   6.513   4.975   4.618  0.6971 -0.2414  0.1138
  958MOL0     N26374   7.221   5.253   4.282  0.0564  0.5556  0.7555
  958MOL0     N26375   7.340   5.229   4.317 -0.1247  0.4546  0.8715
  958MOL0     C26376   7.401   4.933   3.755 -0.2750  0.2454  0.1812
  958MOL0     C26377   7.281   4.996   3.765 -0.0040  0.6860 -0.3397
  958MOL0     C26378   6.979   5.258   3.949 -0.5791  0.0111 -0.8659
  958MOL0     C26379   6.886   5.194   4.036 -0.5673  0.5336  0.2954
  958MOL0     C26380   6.787   5.273   4.094 -0.2914  0.7869  0.2748
  958MOL0     C26381   6.779   5.407   4.075  0.0812  0.3716 -0.9344
  958MOL0     O26382   6.665   5.461   4.130  0.1970  0.3154  0.2139
  958MOL0     C26383   6.703   5.546   4.244 -0.0228  0.0407 -0.9495
  958MOL0     C26384   6.598   5.592   4.348  0.4419  0.9478  0.2033
  958MOL0     C26385   6.586   5.504   4.466 -0.0510 -0.5326  0.2546
  958MOL0     C26386   6.463   5.532   4.562  0.2428  0.9773 -0.1143
  958MOL0     C26387   6.356   5.437   4.507  0.7381  1.2160 -0.6090
  958MOL0     C26388   6.267   5.373   4.459 -0.3667  0.1148  0.3943
  958MOL0     C26389   6.865   5.474   3.991 -0.5809 -0.2952 -0.3948
  958MOL0     C26390   6.974   5.396   3.938  0.0967 -0.5461  0.0651
  958MOL0     H26391   7.149   4.870   4.045  0.8340  1.1207  1.0223
  958MOL0     H26392   7.367   4.752   4.053 -1.2631  1.4807  1.3991
  958MOL0     H26393   7.696   4.643   3.910  1.0597 -1.1404  0.4408
  958MOL0     H26394   7.559   4.671   4.018 -0.8005  0.5067 -1.9383
  958MOL0     H26395   7.808   4.867   3.981  1.1708 -2.0224 -0.1172
  958MOL0     H26396   7.820   4.734   4.091  2.1313  1.0014 -2.6767
  958MOL0     H26397   7.601   4.842   4.201  1.4877 -2.4133 -0.2580
  958MOL0     H26398   7.619   4.976   4.091 -2.7910 -2.1756  0.1365
  958MOL0     H26399   7.819   4.910   4.310 -0.0980  2.1124  1.7090
  958MOL0     H26400   7.866   4.995   4.168  0.9843 -0.1205  2.1508
  958MOL0     H26401   7.706   5.179   4.215 -1.1313  0.0054  1.0758
  958MOL0     H26402   7.818   5.148   4.345 -0.0646 -1.2134  1.7975
  958MOL0     H26403   7.648   5.027   4.472  0.4736  3.0161  2.3625
  958MOL0     H26404   7.529   5.069   4.337 -0.1498  0.6474 -0.5298
  958MOL0     H26405   7.683   5.251   4.542 -0.2122  0.1675 -0.5252
  958MOL0     H26406   7.611   5.317   4.395  0.8011  0.7226  0.4956
  958MOL0     H26407   7.482   5.326   4.609 -1.5868  1.1564  0.0081
  958MOL0     H26408   7.464   5.151   4.612 -2.3800  0.0804 -0.6276
  958MOL0     H26409   7.188   5.300   4.605 -2.0377  0.0508 -0.9414
  958MOL0     H26410   6.957   5.315   4.298 -1.2888  1.0088  0.7095
  958MOL0     H26411   6.994   5.426   4.429 -2.4563  0.2461  0.0786
  958MOL0     H26412   6.817   5.305   4.478 -1.1217 -0.8722  1.2219
  958MOL0     H26413   6.952   5.257   4.598 -3.4746  1.3553  1.1549
  958MOL0     H26414   6.879   5.090   4.357 -1.5164  1.0757  0.1777
  958MOL0     H26415   6.974   5.049   4.497 -1.3845 -1.1235  1.8009
  958MOL0     H26416   6.796   5.073   4.647  3.4736  1.3045  0.0167
  958MOL0     H26417   6.764   4.952   4.516 -1.1066  0.5984 -1.8802
  958MOL0     H26418   6.465   5.149   4.333 -1.8510  1.0008 -0.9974
  958MOL0     H26419   6.255   5.040   4.327 -0.4149 -0.2594 -0.3010
  958MOL0     H26420   5.835   5.049   4.361  1.6677 -0.1657  0.1347
  958MOL0     H26421   5.627   4.964   4.348  0.6055 -0.3778  0.3475
  958MOL0     H26422   5.553   4.578   4.484 -4.0196  2.0097  1.8768
  958MOL0     H26423   5.551   4.521   4.310  1.0867 -1.7192  1.0219
  958MOL0     H26424   5.304   4.660   4.433 -0.2363 -0.4732  0.6705
  958MOL0     H26425   5.332   4.486   4.429  3.4995 -0.4081 -0.5262
  958MOL0     H26426   5.323   4.473   4.198 -0.5460 -1.0550  2.7170
  958MOL0     H26427   5.354   4.650   4.168  0.7391 -2.1056 -2.1465
  958MOL0     H26428   5.112   4.533   4.314 -0.6773 -0.7585 -1.2428
  958MOL0     H26429   5.147   4.703   4.291  0.2477 -0.5837  0.3638
  958MOL0     H26430   5.074   4.497   4.074  1.1095  0.6871 -1.8322
  958MOL0     H26431   5.161   4.641   4.038  1.9754 -1.5059  1.4934
  958MOL0     H26432   4.989   4.791   4.105  0.6279 -0.7199  2.9297
  958MOL0     H26433   4.907   4.665   4.207 -0.2179 -2.0819  0.5434
  958MOL0     H26434   4.885   4.564   3.938 -0.6647 -0.4316  0.4919
  958MOL0     H26435   4.762   4.639   4.030  1.9265 -4.2233  0.1096
  958MOL0     H26436   4.802   4.862   3.946 -0.2435 -1.9166  2.7153
  958MOL0     H26437   4.774   4.741   3.820 -0.0428 -1.1329 -0.2920
  958MOL0     H26438   5.770   4.561   4.380 -0.8888  0.3375 -1.3176
  958MOL0     H26439   5.998   4.651   4.412 -1.1191 -0.8235  0.0550
  958MOL0     H26440   6.354   4.872   4.722 -0.7504  1.3426  1.0273
  958MOL0     H26441   6.578   4.956   4.703 -0.3430  1.0789  1.2509
  958MOL0     H26442   7.475   4.950   3.677 -0.3707 -2.1886 -0.5205
  958MOL0     H26443   7.262   5.073   3.691  2.1551 -0.4059 -2.1622
  958MOL0     H26444   6.896   5.089   4.061 -4.1513  0.1588  0.6403
  958MOL0     H26445   6.715   5.234   4.166 -1.0601  0.6588 -0.5410
  958MOL0     H26446   6.740   5.643   4.208  1.7981  1.8758  4.8335
  958MOL0     H26447   6.773   5.502   4.315 -2.4772  3.5184  4.2164
  958MOL0     H26448   6.633   5.689   4.384 -2.6642  1.4005  2.4415
  958MOL0     H26449   6.504   5.601   4.292  1.6313 -0.8801 -2.3144
  958MOL0     H26450   6.676   5.510   4.528 -1.4477 -1.6212  2.5522
  958MOL0     H26451   6.578   5.399   4.434 -1.5364 -0.5414  0.5468
  958MOL0     H26452   6.491   5.495   4.661  0.3131  0.6966 -0.2386
  958MOL0     H26453   6.436   5.638   4.566  0.9138  1.1417  0.1747
  958MOL0     H26454   6.188   5.313   4.419  1.0248 -1.4882 -0.0774
  958MOL0     H26455   6.852   5.581   3.981 -2.5893 -0.6197 -1.8784
  958MOL0     H26456   7.038   5.450   3.870 -0.2544 -2.0777 -1.5660
  959MOL0     O26457   4.818   8.797   6.232 -0.1888 -0.7433 -0.6932
  959MOL0     C26458   4.765   8.896   6.294 -0.2124  0.1355  0.5043
  959MOL0     O26459   4.831   8.966   6.392 -0.1746 -0.1541  0.4836
  959MOL0     C26460   4.961   8.929   6.416 -0.3343  0.0225 -0.8823
  959MOL0     C26461   5.057   8.933   6.314 -0.6781  0.3090  0.3484
  959MOL0     C26462   5.193   8.907   6.352 -0.0872  0.0990 -0.6282
  959MOL0     C26463   5.223   8.865   6.493  0.1709  0.5021  0.5256
  959MOL0     O26464   5.344   8.817   6.542  0.0762 -0.1647  0.5650
  959MOL0     C26465   5.471   8.840   6.476  0.6148  0.0094 -0.2239
  959MOL0     C26466   5.598   8.777   6.553  0.4556  0.6313 -0.5536
  959MOL0     C26467   5.718   8.792   6.463 -0.4401  0.0555  0.8598
  959MOL0     C26468   5.839   8.739   6.524 -0.5034 -0.3080 -0.0350
  959MOL0     C26469   5.974   8.794   6.463  1.0908  0.1221  0.4562
  959MOL0     C26470   6.024   8.688   6.360 -0.5161  0.3609  0.6930
  959MOL0     C26471   6.156   8.738   6.297 -0.2983 -0.0963 -0.8868
  959MOL0     C26472   6.216   8.649   6.182 -0.0682 -0.4530  0.1334
  959MOL0     N26473   6.113   8.626   6.086  0.5972 -0.3516 -0.0481
  959MOL0     C26474   6.083   8.697   5.976 -0.2213 -0.5879  0.9624
  959MOL0     C26475   5.977   8.630   5.914 -0.3114  0.5735  0.1017
  959MOL0     C26476   5.905   8.686   5.798 -0.1891  0.2738 -0.2212
  959MOL0     C26477   5.846   8.826   5.823  0.5351  0.4978  0.0838
  959MOL0     C26478   5.721   8.842   5.736 -0.6213  0.3313  0.1938
  959MOL0     C26479   5.632   8.957   5.767  0.1150  0.5375 -0.7875
  959MOL0     O26480   5.513   8.932   5.697  0.1982 -0.1253  0.1110
  959MOL0     C26481   5.427   9.038   5.685 -0.6509  0.5062  0.7798
  959MOL0     C26482   5.458   9.176   5.699  0.4753 -0.3456  0.5083
  959MOL0     C26483   5.359   9.265   5.673 -0.0503  0.3619  0.2079
  959MOL0     C26484   5.227   9.226   5.638 -0.1687 -0.8026 -0.5489
  959MOL0     C26485   5.113   9.320   5.637  0.4407 -0.0043  0.5544
  959MOL0     O26486   4.996   9.277   5.587  0.2480 -0.0592 -0.4074
  959MOL0     C26487   4.888   9.361   5.583 -0.2007 -0.6076 -0.2152
  959MOL0     C26488   4.760   9.310   5.604 -0.5214 -0.8644 -0.4791
  959MOL0     C26489   4.653   9.389   5.573  0.4973 -0.0255  0.3089
  959MOL0     C26490   4.665   9.525   5.536 -0.3983 -0.3088 -0.3793
  959MOL0     O26491   4.561   9.609   5.516  0.3012 -0.6970  0.1691
  959MOL0     C26492   4.426   9.562   5.549  0.0028  0.4126  0.6429
  959MOL0     C26493   4.357   9.518   5.421 -0.2961 -0.3751 -0.3022
  959MOL0     C26494   4.209   9.482   5.428  0.0646  0.4289 -1.0683
  959MOL0     C26495   4.137   9.503   5.302  0.3796  0.3210  0.1942
  959MOL0     C26496   3.985   9.474   5.307 -0.0813 -0.5444  0.1161
  959MOL0     C26497   3.937   9.462   5.165 -0.3813 -0.2242  0.0179
  959MOL0     C26498   3.794   9.432   5.181 -0.0313  0.0213 -0.0113
  959MOL0     C26499   3.725   9.423   5.045 -0.1054  1.6703 -0.3023
  959MOL0    Cl26500   3.573   9.324   5.069 -0.3150  0.1576 -0.1334
  959MOL0     C26501   4.790   9.579   5.525 -1.2934  0.1550 -0.2910
  959MOL0     C26502   4.909   9.497   5.539 -0.1483  0.3218  0.3217
  959MOL0     O26503   5.132   9.424   5.701 -0.1256  1.2559  0.5527
  959MOL0     C26504   5.200   9.091   5.629  0.2197  0.2583 -0.1820
  959MOL0     C26505   5.300   8.993   5.647  0.3223 -0.3148 -0.1474
  959MOL0     N26506   5.939   8.523   5.992  0.5724  0.2348  0.5835
  959MOL0     N26507   6.022   8.524   6.094 -0.5160  0.0594 -0.2657
  959MOL0     C26508   5.117   8.853   6.586 -0.1201  0.5050  0.5315
  959MOL0     C26509   4.988   8.895   6.550 -0.4176  0.0900  0.2749
  959MOL0     C26510   4.613   8.908   6.276 -0.7783  0.2455  0.4354
  959MOL0     C26511   4.541   9.015   6.330 -0.4831  0.9554  1.2283
  959MOL0     C26512   4.401   9.020   6.307 -0.0786  0.2247 -0.4167
  959MOL0     C26513   4.334   8.934   6.230 -0.1823  0.3142  0.7177
  959MOL0     O26514   4.197   8.958   6.206 -0.0076  0.8621  0.1542
  959MOL0     C26515   4.117   8.864   6.135  0.6636  0.3767  0.2202
  959MOL0     C26516   3.976   8.916   6.101  0.6801 -0.3296  0.1869
  959MOL0     C26517   3.887   8.803   6.040  0.2887  1.0953  0.5955
  959MOL0     C26518   3.749   8.847   5.994 -0.0671  0.1928  0.4026
  959MOL0     C26519   3.753   8.885   5.852  0.3657 -0.6425  0.1213
  959MOL0     C26520   3.738   8.908   5.732  1.0767 -0.5338 -0.1650
  959MOL0     C26521   4.399   8.824   6.168 -0.4414  0.2604  0.0635
  959MOL0     C26522   4.542   8.813   6.192  0.8664  0.5147 -0.8325
  959MOL0     H26523   5.032   8.961   6.212  0.2516  1.0822  0.3216
  959MOL0     H26524   5.263   8.902   6.269 -1.3155 -1.5743 -1.6388
  959MOL0     H26525   5.492   8.947   6.466  0.3828  0.0255 -0.5584
  959MOL0     H26526   5.456   8.794   6.378  1.1882  2.1172 -1.3674
  959MOL0     H26527   5.573   8.671   6.564  0.6696  0.8664  4.6252
  959MOL0     H26528   5.613   8.809   6.657 -2.8388 -0.9121  0.5388
  959MOL0     H26529   5.719   8.899   6.440 -0.6748  0.1438  1.2560
  959MOL0     H26530   5.709   8.753   6.362 -0.3490  0.1862  0.8001
  959MOL0     H26531   5.834   8.775   6.627 -2.6973  1.4104 -0.6566
  959MOL0     H26532   5.834   8.630   6.519  0.4388 -0.3065 -1.7711
  959MOL0     H26533   6.030   8.821   6.553 -0.5091  2.3890  0.8421
  959MOL0     H26534   5.950   8.882   6.403  4.1600 -0.6251 -2.1643
  959MOL0     H26535   5.945   8.678   6.285 -0.2017 -1.1952  0.5413
  959MOL0     H26536   6.024   8.591   6.410  0.4776 -0.2710 -0.5015
  959MOL0     H26537   6.149   8.840   6.258  0.7772  0.1534 -0.4540
  959MOL0     H26538   6.220   8.752   6.385 -1.6426  0.4115  0.0405
  959MOL0     H26539   6.257   8.555   6.219  0.7600 -0.1052  0.1367
  959MOL0     H26540   6.293   8.713   6.137 -0.1134  1.5144  2.6060
  959MOL0     H26541   6.141   8.775   5.928 -0.5731 -1.3636 -0.7945
  959MOL0     H26542   5.832   8.614   5.759 -0.5209 -0.1781  1.1392
  959MOL0     H26543   5.977   8.683   5.716 -2.4291 -2.2644 -2.3260
  959MOL0     H26544   5.910   8.903   5.778 -0.3756 -0.2084 -2.6580
  959MOL0     H26545   5.816   8.836   5.927 -0.0469  0.9602 -0.1233
  959MOL0     H26546   5.757   8.852   5.633  0.8434  2.8187  0.8793
  959MOL0     H26547   5.673   8.744   5.750  2.6503 -1.2020  1.7161
  959MOL0     H26548   5.686   9.048   5.738  1.5468  0.0736  0.2604
  959MOL0     H26549   5.609   8.964   5.874 -1.9802 -0.9464 -1.0964
  959MOL0     H26550   5.554   9.215   5.733  0.0975  0.6652  0.4579
  959MOL0     H26551   5.380   9.368   5.699 -1.0757  0.4469  0.7679
  959MOL0     H26552   4.752   9.205   5.631 -1.1611 -0.6159  0.3545
  959MOL0     H26553   4.555   9.343   5.588  1.7366 -1.8392  4.0966
  959MOL0     H26554   4.378   9.643   5.605  1.9341 -1.4100  5.4518
  959MOL0     H26555   4.411   9.485   5.626  1.6049  2.6083  3.3553
  959MOL0     H26556   4.411   9.433   5.379  2.2139  2.0408 -2.3305
  959MOL0     H26557   4.370   9.608   5.359 -0.2963  2.6743  3.6938
  959MOL0     H26558   4.165   9.550   5.501  0.1486 -1.1400  0.5297
  959MOL0     H26559   4.197   9.379   5.466  1.0945  0.5179 -0.4558
  959MOL0     H26560   4.144   9.608   5.273  0.2316  0.1618 -0.4324
  959MOL0     H26561   4.172   9.433   5.224 -1.7406  2.6360 -3.0886
  959MOL0     H26562   3.924   9.548   5.360  0.4159  1.6966 -2.2445
  959MOL0     H26563   3.975   9.377   5.356 -1.0959 -0.6489 -0.2809
  959MOL0     H26564   3.988   9.376   5.119  1.2752  2.0097 -2.6242
  959MOL0     H26565   3.944   9.553   5.105 -1.5062 -0.0940  0.0718
  959MOL0     H26566   3.783   9.333   5.225  1.4492  0.2497  0.9541
  959MOL0     H26567   3.739   9.503   5.243  0.1204  0.7268 -0.6747
  959MOL0     H26568   3.784   9.379   4.964 -1.9487  0.5161 -1.0884
  959MOL0     H26569   3.693   9.521   5.010 -0.3039  0.9707 -2.2131
  959MOL0     H26570   4.803   9.682   5.495 -1.0702  0.9667  2.2963
  959MOL0     H26571   5.013   9.519   5.516  0.3202 -3.2110 -1.6739
  959MOL0     H26572   5.098   9.055   5.620  0.1311  0.2618  0.7190
  959MOL0     H26573   5.272   8.890   5.628 -0.5975 -0.3580  1.2567
  959MOL0     H26574   5.145   8.822   6.687 -0.2224  1.9846  1.0487
  959MOL0     H26575   4.905   8.891   6.620  0.5656 -1.7892  1.3826
  959MOL0     H26576   4.593   9.089   6.392  3.0937  1.5882 -2.1503
  959MOL0     H26577   4.341   9.097   6.354 -1.2822 -0.1293 -1.3378
  959MOL0     H26578   4.118   8.778   6.204 -0.4148 -0.1755 -0.4218
  959MOL0     H26579   4.163   8.827   6.042 -1.4257 -0.5909 -0.4916
  959MOL0     H26580   3.929   8.964   6.188 -0.1510 -0.6880 -0.0543
  959MOL0     H26581   3.987   8.996   6.028 -0.1470 -1.4355 -1.2067
  959MOL0     H26582   3.867   8.711   6.096  2.1567 -0.5656 -1.2661
  959MOL0     H26583   3.950   8.776   5.955  0.2957 -3.2100  1.7448
  959MOL0     H26584   3.688   8.756   5.990 -1.4705  1.1035  0.4084
  959MOL0     H26585   3.693   8.916   6.057 -2.6894 -1.5377  0.1424
  959MOL0     H26586   3.712   8.918   5.629 -1.7596  0.4696  0.5718
  959MOL0     H26587   4.344   8.755   6.105  0.7303 -0.0291 -0.6662
  959MOL0     H26588   4.604   8.737   6.146 -0.6592 -0.0613 -2.0147
  960MOL0     O26589   8.172   6.101   2.308 -0.5170 -0.4066  0.3888
  960MOL0     C26590   8.235   6.020   2.235  0.4893  1.2487  0.1177
  960MOL0     O26591   8.175   5.944   2.134  0.5272  0.6771  0.3315
  960MOL0     C26592   8.037   5.946   2.119  0.4345 -0.4729  0.0336
  960MOL0     C26593   7.934   5.908   2.205  0.2401  0.7839 -0.6336
  960MOL0     C26594   7.803   5.913   2.164 -0.0951  0.1168 -0.2420
  960MOL0     C26595   7.763   5.970   2.042 -0.3866 -0.0531  0.3790
  960MOL0     O26596   7.629   5.988   2.014  0.9091  0.4458  0.1869
  960MOL0     C26597   7.587   6.046   1.891  0.5240  0.2632  0.2384
  960MOL0     C26598   7.442   6.042   1.902  0.2646  0.1074 -0.0033
  960MOL0     C26599   7.372   6.080   1.764 -0.6713 -0.1112 -0.3584
  960MOL0     C26600   7.218   6.093   1.773 -0.2497 -0.1588 -0.0332
  960MOL0     C26601   7.152   6.133   1.644  0.3329 -0.0055  0.3396
  960MOL0     C26602   7.023   6.222   1.642  0.7646  0.7650 -0.7274
  960MOL0     C26603   6.941   6.220   1.513  0.4939  0.8837  0.9501
  960MOL0     C26604   6.816   6.308   1.532 -0.2219 -0.1602  0.4384
  960MOL0     N26605   6.727   6.263   1.646 -0.1171 -0.8016  0.7162
  960MOL0     C26606   6.657   6.350   1.729  0.3323 -0.3158 -0.2386
  960MOL0     C26607   6.577   6.276   1.808 -0.6447 -0.0637 -0.1896
  960MOL0     C26608   6.497   6.312   1.924 -0.2452 -0.1967  0.6389
  960MOL0     C26609   6.349   6.294   1.931 -0.2745 -0.2467  1.1355
  960MOL0     C26610   6.293   6.310   2.062 -0.3591  0.3442 -0.6420
  960MOL0     C26611   6.141   6.307   2.066  0.0691  0.2678 -0.6329
  960MOL0     O26612   6.088   6.408   1.981 -0.0379 -0.0690  0.3060
  960MOL0     C26613   5.971   6.466   2.004 -0.0861  0.2744 -0.8008
  960MOL0     C26614   5.864   6.386   2.053  0.5800  0.5232  0.4752
  960MOL0     C26615   5.739   6.449   2.070 -0.5465  0.8325  0.1299
  960MOL0     C26616   5.709   6.583   2.040 -0.5229 -0.0618 -0.1829
  960MOL0     C26617   5.581   6.637   2.079  0.7561 -0.3148 -0.2152
  960MOL0     O26618   5.484   6.549   2.126 -0.4813 -0.3646 -0.1849
  960MOL0     C26619   5.368   6.603   2.168  0.1599  0.1143 -0.0225
  960MOL0     C26620   5.253   6.545   2.121 -0.2254 -0.4843 -0.7738
  960MOL0     C26621   5.122   6.584   2.172 -0.3061  0.3754  0.2405
  960MOL0     C26622   5.121   6.686   2.269  0.8372  0.1413  0.7319
  960MOL0     O26623   4.997   6.712   2.324  0.3446  0.6689 -0.2075
  960MOL0     C26624   4.989   6.825   2.412  0.5509 -0.1682  0.1337
  960MOL0     C26625   4.842   6.849   2.454 -0.1839 -0.1305 -0.0076
  960MOL0     C26626   4.741   6.886   2.338  0.6008  0.3180 -0.0340
  960MOL0     C26627   4.599   6.844   2.392 -0.6189  0.8443 -0.4118
  960MOL0     C26628   4.489   6.936   2.328 -0.3945 -0.2171 -0.1398
  960MOL0     C26629   4.348   6.876   2.358  0.5831 -0.9420  0.1937
  960MOL0     C26630   4.223   6.949   2.309 -0.6783  0.8745  0.7807
  960MOL0     C26631   4.235   7.093   2.360 -0.6524 -0.3400 -0.6287
  960MOL0    Cl26632   4.089   7.178   2.326 -0.1486  0.1606 -0.0576
  960MOL0     C26633   5.241   6.747   2.310 -0.8882 -0.0088  0.0806
  960MOL0     C26634   5.361   6.703   2.263 -0.2926  0.1892 -0.1062
  960MOL0     O26635   5.584   6.758   2.084  0.3959 -0.3469 -0.0387
  960MOL0     C26636   5.824   6.651   1.989  0.3807 -0.7597  0.2189
  960MOL0     C26637   5.952   6.594   1.971  0.1930  0.2785 -0.3901
  960MOL0     N26638   6.597   6.146   1.769 -0.1661  0.0934  0.4138
  960MOL0     N26639   6.673   6.137   1.668 -0.4278  0.4333 -0.2163
  960MOL0     C26640   7.869   6.001   1.950  0.8540  0.2593 -0.8668
  960MOL0     C26641   8.002   5.984   1.988  0.4273  0.9328 -0.0006
  960MOL0     C26642   8.385   5.992   2.264  0.4278 -0.4448  0.3533
  960MOL0     C26643   8.450   6.059   2.366 -0.7559  0.0336 -1.1178
  960MOL0     C26644   8.586   6.028   2.392  0.1113  0.2955  0.6465
  960MOL0     C26645   8.656   5.929   2.319 -0.0126  0.2073 -0.4024
  960MOL0     O26646   8.790   5.902   2.322 -0.3286 -0.6332  0.3221
  960MOL0     C26647   8.875   6.009   2.375  0.1584 -0.0948  0.2166
  960MOL0     C26648   9.014   6.002   2.308 -0.7641  0.3375  0.0605
  960MOL0     C26649   9.007   6.014   2.159 -0.0300 -0.1635  0.0253
  960MOL0     C26650   9.146   6.030   2.090  0.1145 -0.1804  0.1209
  960MOL0     C26651   9.148   6.127   1.981  0.5670  0.3746  0.2480
  960MOL0     C26652   9.128   6.214   1.895  0.7066  0.0375 -0.5651
  960MOL0     C26653   8.586   5.882   2.209  0.2265  0.3755  0.0508
  960MOL0     C26654   8.452   5.900   2.186 -0.3940  0.7736  0.2180
  960MOL0     H26655   7.952   5.875   2.307 -5.7496 -3.7244 -0.5315
  960MOL0     H26656   7.731   5.872   2.233  0.8017  0.6950  1.0936
  960MOL0     H26657   7.614   5.988   1.802  0.0582  0.4161 -0.0093
  960MOL0     H26658   7.628   6.146   1.874 -1.6890  1.3201  0.6254
  960MOL0     H26659   7.412   6.110   1.983 -2.1477  0.5218 -1.1498
  960MOL0     H26660   7.398   5.945   1.928  1.8183 -0.8756 -0.9485
  960MOL0     H26661   7.404   6.006   1.691  4.1754  1.5372 -0.2928
  960MOL0     H26662   7.421   6.172   1.729 -1.4995  0.3587 -0.3007
  960MOL0     H26663   7.185   5.998   1.816  2.1954 -0.2253  1.9346
  960MOL0     H26664   7.198   6.164   1.854 -0.2440 -1.0666  0.7819
  960MOL0     H26665   7.142   6.043   1.583 -0.1320 -0.2046  0.7047
  960MOL0     H26666   7.219   6.206   1.598 -0.6482  0.2674 -0.7207
  960MOL0     H26667   7.037   6.323   1.681  0.4712  1.5029 -2.4504
  960MOL0     H26668   6.969   6.174   1.724  0.3869  1.6525 -0.4403
  960MOL0     H26669   7.000   6.263   1.432  1.1338 -2.5044 -0.5864
  960MOL0     H26670   6.908   6.122   1.476  0.7139  1.2724 -0.3469
  960MOL0     H26671   6.759   6.308   1.439 -0.0748 -1.6534  0.3163
  960MOL0     H26672   6.850   6.409   1.556  2.4216 -1.0379  0.7251
  960MOL0     H26673   6.674   6.456   1.745  4.0541 -0.4941 -1.9694
  960MOL0     H26674   6.523   6.417   1.940  1.9617 -1.0342  3.3637
  960MOL0     H26675   6.537   6.242   1.998 -1.3106 -4.5921 -2.5194
  960MOL0     H26676   6.330   6.190   1.899  1.6951  0.2161 -1.9285
  960MOL0     H26677   6.299   6.357   1.857 -2.0948  0.4450  2.8585
  960MOL0     H26678   6.328   6.235   2.134  0.3657  1.1141 -0.1669
  960MOL0     H26679   6.331   6.410   2.085  2.5405 -0.1424 -2.8201
  960MOL0     H26680   6.111   6.337   2.167  0.3683  0.7282 -0.6831
  960MOL0     H26681   6.105   6.206   2.043 -1.6477  0.8371 -0.5728
  960MOL0     H26682   5.879   6.287   2.093 -1.1143 -0.0487 -0.2116
  960MOL0     H26683   5.678   6.386   2.134  4.0540 -0.2810  4.0388
  960MOL0     H26684   5.252   6.462   2.051 -2.7950 -1.6966  0.5773
  960MOL0     H26685   5.025   6.541   2.149 -1.1197  1.8479  0.7710
  960MOL0     H26686   5.023   6.913   2.358 -0.2701  1.2779  1.8720
  960MOL0     H26687   5.051   6.811   2.502 -1.7510  2.5182  2.3220
  960MOL0     H26688   4.844   6.926   2.532  1.8639  1.7601 -1.7737
  960MOL0     H26689   4.811   6.756   2.501  0.4116  0.8093  2.3996
  960MOL0     H26690   4.758   6.835   2.243 -0.6772  2.3987 -1.4438
  960MOL0     H26691   4.744   6.994   2.322 -0.5210  0.1810 -1.3737
  960MOL0     H26692   4.575   6.740   2.370  0.6790  0.9847 -2.8572
  960MOL0     H26693   4.606   6.859   2.500 -0.4280 -4.6449  0.6126
  960MOL0     H26694   4.502   6.932   2.219 -2.2037 -0.2299 -0.3831
  960MOL0     H26695   4.504   7.038   2.364 -0.5332 -0.0973 -0.4141
  960MOL0     H26696   4.352   6.864   2.467 -1.5898 -0.3052  0.3824
  960MOL0     H26697   4.342   6.771   2.328 -0.4345 -1.1426  1.0207
  960MOL0     H26698   4.228   6.937   2.200 -0.0955  1.1160  0.7780
  960MOL0     H26699   4.133   6.903   2.350  0.7304 -1.3812  1.5079
  960MOL0     H26700   4.304   7.150   2.296 -0.0444  2.3741  2.1705
  960MOL0     H26701   4.270   7.099   2.463  0.8241 -2.6712 -0.9246
  960MOL0     H26702   5.241   6.813   2.396 -2.7460 -2.4796  2.1273
  960MOL0     H26703   5.454   6.741   2.304  1.4235 -3.0300 -0.5896
  960MOL0     H26704   5.827   6.757   1.970  0.7165 -0.6807  0.7091
  960MOL0     H26705   6.035   6.658   1.944  1.1572 -0.9686 -0.4756
  960MOL0     H26706   7.847   6.043   1.852 -1.1131 -1.4158 -1.2274
  960MOL0     H26707   8.076   6.022   1.919  0.0384  0.0747 -0.9133
  960MOL0     H26708   8.395   6.142   2.410  2.1982  2.0186 -0.8048
  960MOL0     H26709   8.634   6.082   2.473  0.7856 -0.1717  0.5623
  960MOL0     H26710   8.886   6.001   2.484  2.7153  2.6103  0.3165
  960MOL0     H26711   8.826   6.107   2.364  1.2834  0.6757  1.6770
  960MOL0     H26712   9.078   6.083   2.344 -0.7019 -0.1821  1.1720
  960MOL0     H26713   9.070   5.909   2.320 -1.0778  0.4107  2.6089
  960MOL0     H26714   8.945   6.096   2.124  3.3864  2.2954 -0.7673
  960MOL0     H26715   8.967   5.923   2.113 -0.0067 -0.7336  1.1062
  960MOL0     H26716   9.221   6.070   2.159 -0.1531 -0.9995  0.9071
  960MOL0     H26717   9.187   5.934   2.058 -1.3365 -1.2942  1.3911
  960MOL0     H26718   9.094   6.282   1.819  1.5579 -1.3860 -2.3085
  960MOL0     H26719   8.619   5.799   2.147 -2.2472 -0.8707  0.2405
  960MOL0     H26720   8.407   5.836   2.110  0.7552 -1.2902  1.1757
  961MOL0     O26721   1.228  11.156  10.657  0.2110 -0.1475  0.2499
  961MOL0     C26722   1.189  11.272  10.679  0.3279  0.6280 -0.7644
  961MOL0     O26723   1.264  11.389  10.672 -0.3410 -0.4933  0.7888
  961MOL0     C26724   1.403  11.390  10.661  0.4390  0.4749  0.6344
  961MOL0     C26725   1.493  11.283  10.667 -0.1959 -0.9606 -0.2243
  961MOL0     C26726   1.632  11.298  10.649  1.0601  0.0458 -0.2006
  961MOL0     C26727   1.682  11.425  10.610 -0.0988 -0.6532 -0.6409
  961MOL0     O26728   1.823  11.451  10.591 -0.2766  0.1066  0.0178
  961MOL0     C26729   1.914  11.356  10.641  0.1792  0.2947  0.0345
  961MOL0     C26730   2.063  11.401  10.617 -0.9828  0.2205 -0.8586
  961MOL0     C26731   2.162  11.312  10.700 -0.4002  0.4563  0.4259
  961MOL0     C26732   2.296  11.292  10.633 -0.1243 -0.5044  0.5959
  961MOL0     C26733   2.398  11.212  10.724  0.5416 -0.9675  0.9220
  961MOL0     C26734   2.529  11.190  10.648 -1.2688 -0.4625  0.2392
  961MOL0     C26735   2.624  11.320  10.622 -0.2626 -0.4399 -0.3023
  961MOL0     C26736   2.763  11.296  10.550 -0.8276  0.1972  0.9702
  961MOL0     N26737   2.854  11.230  10.644  0.3015  0.0758 -0.0643
  961MOL0     C26738   2.919  11.292  10.750  0.3951  0.7954 -0.0186
  961MOL0     C26739   2.969  11.191  10.821  0.6813  0.5348  0.2103
  961MOL0     C26740   3.046  11.218  10.950 -1.0314  0.1064 -0.5171
  961MOL0     C26741   3.176  11.307  10.953  1.1903 -0.5894  0.2116
  961MOL0     C26742   3.130  11.452  10.923 -0.4913 -0.4774 -0.2524
  961MOL0     C26743   3.242  11.556  10.955  0.0308  0.1208 -0.9065
  961MOL0     O26744   3.193  11.687  10.932  0.1187 -0.3453 -0.2568
  961MOL0     C26745   3.168  11.719  10.801 -0.0652 -0.1058 -0.1186
  961MOL0     C26746   3.038  11.702  10.742 -0.1023 -0.2277 -0.9403
  961MOL0     C26747   3.020  11.737  10.607 -0.3149 -0.3582 -0.2243
  961MOL0     C26748   3.127  11.789  10.532 -0.0679  0.5175  0.5034
  961MOL0     C26749   3.109  11.821  10.388  0.6294 -0.0931  0.7200
  961MOL0     O26750   3.176  11.925  10.343  0.4376  0.2905  0.0387
  961MOL0     C26751   3.159  11.980  10.217 -0.4211  1.0416 -0.4995
  961MOL0     C26752   3.274  12.054  10.173  0.0078  0.0964 -0.1017
  961MOL0     C26753   3.265  12.112  10.042 -0.9491  0.1252 -0.3633
  961MOL0     C26754   3.148  12.110   9.972  0.3775 -0.0314 -0.2489
  961MOL0     O26755   3.153  12.171   9.848  0.4289 -0.2759  0.7133
  961MOL0     C26756   3.033  12.185   9.772 -0.6004 -0.6199 -0.1008
  961MOL0     C26757   3.070  12.234   9.634 -0.2688  0.0317  0.2848
  961MOL0     C26758   2.943  12.271   9.563  0.3623 -0.3208 -0.0619
  961MOL0     C26759   2.935  12.269   9.413 -0.2271  0.7914 -0.6222
  961MOL0     C26760   2.793  12.291   9.352  1.2582 -0.3563 -0.3919
  961MOL0     C26761   2.701  12.390   9.436  0.9593 -0.3572  0.3320
  961MOL0     C26762   2.563  12.396   9.386  0.2703 -0.2213  0.2540
  961MOL0     C26763   2.482  12.285   9.436  0.3764 -0.0379 -0.5182
  961MOL0    Cl26764   2.456  12.299   9.614 -0.1245  0.0999  0.3847
  961MOL0     C26765   3.037  12.046  10.025  0.1127 -0.0259  0.3807
  961MOL0     C26766   3.042  11.968  10.144  0.0997 -0.2569  0.0404
  961MOL0     O26767   3.034  11.746  10.325 -0.6772 -0.2856 -0.7893
  961MOL0     C26768   3.257  11.796  10.599  1.2036  0.3605  0.1461
  961MOL0     C26769   3.275  11.764  10.730  0.0323 -0.8107  0.3159
  961MOL0     N26770   2.933  11.069  10.763  0.3549 -0.1207 -1.2391
  961MOL0     N26771   2.871  11.098  10.656 -0.4836 -0.1648  0.2186
  961MOL0     C26772   1.590  11.528  10.584 -0.0337 -0.2748  0.2802
  961MOL0     C26773   1.455  11.508  10.610  1.1261 -0.0078  0.6472
  961MOL0     C26774   1.045  11.288  10.711  0.7728  0.2522  1.0322
  961MOL0     C26775   0.989  11.417  10.724  0.5962 -0.2175 -0.0937
  961MOL0     C26776   0.851  11.433  10.744 -0.7889 -0.5962  0.0432
  961MOL0     C26777   0.761  11.327  10.737 -0.1904 -1.0164  0.1619
  961MOL0     O26778   0.625  11.356  10.741 -0.1973  0.6121  1.3165
  961MOL0     C26779   0.524  11.253  10.763  0.4585  0.4617 -0.4854
  961MOL0     C26780   0.381  11.309  10.783  0.3555  0.2776  0.6049
  961MOL0     C26781   0.379  11.379  10.921  1.0335 -0.4778  1.1103
  961MOL0     C26782   0.232  11.438  10.953  0.3401 -0.0405  1.0317
  961MOL0     C26783   0.119  11.352  10.925 -0.6300 -0.2367  0.2056
  961MOL0     C26784   0.019  11.291  10.895 -0.1958 -0.8070  0.3289
  961MOL0     C26785   0.815  11.194  10.728 -0.6301  0.0466  0.7464
  961MOL0     C26786   0.949  11.179  10.706  0.3566  0.4876 -0.6850
  961MOL0     H26787   1.461  11.184  10.697  1.0107 -1.0239  0.9859
  961MOL0     H26788   1.699  11.217  10.674  0.5369  0.0010  1.1580
  961MOL0     H26789   1.888  11.261  10.594 -0.8010 -0.1109  1.3490
  961MOL0     H26790   1.911  11.355  10.750 -1.6199  0.6145  0.0070
  961MOL0     H26791   2.086  11.504  10.647  2.0648  0.3258 -3.0178
  961MOL0     H26792   2.090  11.401  10.511  1.8671  0.7233 -0.2188
  961MOL0     H26793   2.121  11.211  10.705  0.4641  0.1444  1.7178
  961MOL0     H26794   2.167  11.353  10.802 -1.0303 -0.3238  0.7770
  961MOL0     H26795   2.273  11.241  10.539  0.4507  0.8784 -0.3355
  961MOL0     H26796   2.336  11.392  10.612 -1.5044 -0.0181  0.1612
  961MOL0     H26797   2.340  11.126  10.757 -1.6082  0.9348  2.4783
  961MOL0     H26798   2.417  11.268  10.817 -3.0272  1.0602  0.6159
  961MOL0     H26799   2.518  11.135  10.554  1.4962 -2.3652  0.8863
  961MOL0     H26800   2.594  11.135  10.717 -2.3189  0.5508  2.1213
  961MOL0     H26801   2.568  11.401  10.573 -0.1133  0.3599  0.8078
  961MOL0     H26802   2.648  11.358  10.721 -0.2092 -3.0780  0.7586
  961MOL0     H26803   2.810  11.391  10.523 -2.2586  0.9006  0.8648
  961MOL0     H26804   2.749  11.235  10.460 -0.5026 -0.2878  1.2435
  961MOL0     H26805   2.913  11.397  10.774 -2.7771  0.7298 -0.1413
  961MOL0     H26806   3.090  11.122  10.981  1.9331  1.4086 -0.3765
  961MOL0     H26807   2.969  11.243  11.022 -2.3835  2.6027 -2.6623
  961MOL0     H26808   3.255  11.287  10.881  0.6726  1.8171 -1.1307
  961MOL0     H26809   3.217  11.310  11.054  1.6590  0.7055  0.0060
  961MOL0     H26810   3.117  11.457  10.814  0.4538  0.8884 -0.3404
  961MOL0     H26811   3.039  11.471  10.980  0.8218  0.6254  1.5822
  961MOL0     H26812   3.319  11.543  10.879  0.9335  0.9230 -0.1622
  961MOL0     H26813   3.289  11.541  11.053 -0.9458  1.5488 -0.1743
  961MOL0     H26814   2.957  11.675  10.809  1.3088  0.5884  1.2015
  961MOL0     H26815   2.919  11.729  10.569 -1.0558 -0.2497  1.6256
  961MOL0     H26816   3.365  12.065  10.232 -1.0949  0.7247  1.5398
  961MOL0     H26817   3.347  12.160   9.991  1.7993 -1.3743  2.3287
  961MOL0     H26818   2.973  12.261   9.823 -1.6647 -1.5807  0.1241
  961MOL0     H26819   2.975  12.092   9.766  1.6202 -2.3067  2.3779
  961MOL0     H26820   3.127  12.152   9.590 -1.7879 -2.1007  2.0548
  961MOL0     H26821   3.132  12.323   9.643 -0.7228  0.2392  1.6114
  961MOL0     H26822   2.914  12.370   9.599  0.7448 -0.1524 -0.2075
  961MOL0     H26823   2.864  12.201   9.592  1.8365 -1.8630  0.4343
  961MOL0     H26824   2.991  12.359   9.385  0.3840  0.3597 -0.7988
  961MOL0     H26825   2.994  12.183   9.383  2.7072  1.4665  2.6040
  961MOL0     H26826   2.733  12.200   9.345 -0.5176  0.6397  1.0416
  961MOL0     H26827   2.801  12.314   9.246 -0.4985 -0.8095 -0.6488
  961MOL0     H26828   2.747  12.489   9.433  0.7807 -0.2990 -1.6746
  961MOL0     H26829   2.701  12.356   9.540  1.1452  0.9947  0.7919
  961MOL0     H26830   2.516  12.493   9.407 -0.5146 -1.0267  2.4821
  961MOL0     H26831   2.554  12.383   9.278 -1.0983  0.2947  0.2927
  961MOL0     H26832   2.523  12.187   9.410 -1.1904 -0.7984 -0.2336
  961MOL0     H26833   2.391  12.286   9.376 -0.5432 -0.2129  0.8294
  961MOL0     H26834   2.945  12.042   9.968 -0.0937  0.9097  0.6382
  961MOL0     H26835   2.960  11.904  10.174 -1.0105  0.9176 -0.4027
  961MOL0     H26836   3.349  11.811  10.543  1.3221  1.3462  0.5849
  961MOL0     H26837   3.366  11.777  10.788 -0.9929  1.1799  1.5924
  961MOL0     H26838   1.623  11.625  10.547 -3.0058  0.1526 -1.5161
  961MOL0     H26839   1.380  11.584  10.590 -1.1517 -1.9700  1.2780
  961MOL0     H26840   1.046  11.509  10.735 -0.3446  0.2007  1.5944
  961MOL0     H26841   0.810  11.534  10.745  2.7314  0.9862  0.3871
  961MOL0     H26842   0.542  11.186  10.848  2.0586  1.9357  0.4049
  961MOL0     H26843   0.517  11.183  10.679 -2.1360  0.9981 -0.7958
  961MOL0     H26844   0.360  11.384  10.707  1.1932  1.5418  1.5868
  961MOL0     H26845   0.303  11.232  10.780 -2.4113  2.9088 -0.4015
  961MOL0     H26846   0.446  11.465  10.923 -0.1833  0.5407  0.1918
  961MOL0     H26847   0.404  11.303  10.996  1.2616 -0.4644  1.0483
  961MOL0     H26848   0.229  11.484  11.052 -1.1270  1.8946  0.1646
  961MOL0     H26849   0.206  11.520  10.885 -2.3217 -1.5514  0.0946
  961MOL0     H26850  -0.062  11.235  10.854 -1.5151  2.0111 -1.2111
  961MOL0     H26851   0.746  11.111  10.717 -0.6815  0.3790 -2.2892
  961MOL0     H26852   0.979  11.077  10.686 -0.1846 -0.1191  1.3502
  962MOL0     O26853   6.260  10.148   0.528 -0.7279  0.7353  0.2546
  962MOL0     C26854   6.273  10.069   0.434 -0.0209 -0.2791  0.2778
  962MOL0     O26855   6.193  10.070   0.330 -0.8197 -0.4268  0.4763
  962MOL0     C26856   6.118  10.184   0.314  0.1797  1.5219  0.2268
  962MOL0     C26857   6.174  10.288   0.238 -0.1643 -0.4600  0.3759
  962MOL0     C26858   6.103  10.402   0.229  0.0007 -0.9953  0.0157
  962MOL0     C26859   5.972  10.412   0.281  0.5258  0.2001 -0.3854
  962MOL0     O26860   5.906  10.523   0.255  0.1103  0.5974 -0.5219
  962MOL0     C26861   5.776  10.514   0.200  0.3212  0.2846 -0.7460
  962MOL0     C26862   5.697  10.644   0.196 -0.1423  0.0886  0.3956
  962MOL0     C26863   5.690  10.716   0.336 -0.4567  1.1526  0.7811
  962MOL0     C26864   5.664  10.865   0.328 -0.4252 -0.4798  0.0038
  962MOL0     C26865   5.523  10.894   0.366  0.6338 -0.5635  0.0120
  962MOL0     C26866   5.520  10.936   0.506  0.7450  0.5001 -0.2996
  962MOL0     C26867   5.381  11.000   0.539  0.4065 -0.5215  0.0980
  962MOL0     C26868   5.371  11.059   0.679  1.2172 -0.4001  0.2743
  962MOL0     N26869   5.250  11.122   0.717 -0.3516  0.9777  0.3625
  962MOL0     C26870   5.237  11.260   0.723  0.2567  0.1832  0.0329
  962MOL0     C26871   5.108  11.281   0.726 -0.5884  0.6574  0.9494
  962MOL0     C26872   5.044  11.417   0.732 -0.0784  0.4172 -0.3206
  962MOL0     C26873   5.094  11.528   0.625 -0.3778  0.5245 -0.5071
  962MOL0     C26874   5.012  11.655   0.638 -0.3293 -0.2397 -0.0018
  962MOL0     C26875   4.873  11.645   0.604 -0.1603  0.6569 -0.2516
  962MOL0     O26876   4.829  11.782   0.614  0.3506 -0.9612 -0.1929
  962MOL0     C26877   4.695  11.809   0.602 -0.2289 -0.1739 -0.5069
  962MOL0     C26878   4.597  11.709   0.602 -0.3390 -0.1381  0.6189
  962MOL0     C26879   4.454  11.749   0.591 -0.5300  0.2661  0.4840
  962MOL0     C26880   4.418  11.885   0.610  0.7720  1.3330  0.0787
  962MOL0     C26881   4.273  11.914   0.623 -0.2171 -1.1953 -0.1583
  962MOL0     O26882   4.243  12.038   0.683  0.1461 -0.1150  0.3426
  962MOL0     C26883   4.118  12.076   0.710  0.3977 -0.0553 -0.0506
  962MOL0     C26884   4.066  12.186   0.647 -0.4032 -0.4411  0.4465
  962MOL0     C26885   3.933  12.225   0.669  0.6770 -0.6428  0.9162
  962MOL0     C26886   3.849  12.142   0.741  0.5919  1.1083  0.3726
  962MOL0     O26887   3.721  12.160   0.769  0.0896  0.3327  0.0559
  962MOL0     C26888   3.645  12.269   0.699 -0.3745 -0.5340 -0.6558
  962MOL0     C26889   3.491  12.277   0.734  0.1826 -0.3753  0.0818
  962MOL0     C26890   3.417  12.143   0.706  0.3771 -0.2438 -1.0344
  962MOL0     C26891   3.278  12.149   0.751  0.1495  0.0603 -0.6966
  962MOL0     C26892   3.215  12.016   0.723 -0.1144 -0.1560 -1.2753
  962MOL0     C26893   3.072  12.003   0.790 -0.4243  0.0360  0.2018
  962MOL0     C26894   2.990  11.885   0.725 -0.0103  0.9691 -0.0508
  962MOL0     C26895   2.840  11.908   0.755  0.4500  0.4997  0.2057
  962MOL0    Cl26896   2.749  11.765   0.687 -0.5189 -0.2252 -0.0535
  962MOL0     C26897   3.893  12.026   0.804  0.8749  0.5367  0.0256
  962MOL0     C26898   4.031  11.987   0.792  0.1255 -0.2545  0.7404
  962MOL0     O26899   4.195  11.831   0.585  0.2929 -0.3387  0.4672
  962MOL0     C26900   4.522  11.972   0.614 -0.1343 -0.3120 -0.0248
  962MOL0     C26901   4.651  11.939   0.603  0.3050  0.2486  0.0401
  962MOL0     N26902   5.040  11.157   0.722  0.5062 -0.4647 -0.0213
  962MOL0     N26903   5.126  11.063   0.726 -0.5166  0.3555 -0.1998
  962MOL0     C26904   5.919  10.302   0.357  0.2430 -0.7331  0.4138
  962MOL0     C26905   5.994  10.190   0.380 -0.1207  0.6121  0.3795
  962MOL0     C26906   6.384   9.973   0.429  0.2110 -0.1846  0.8005
  962MOL0     C26907   6.403   9.907   0.305 -0.0379 -0.8018  0.9734
  962MOL0     C26908   6.519   9.832   0.287  0.1750  0.4971 -0.4985
  962MOL0     C26909   6.608   9.813   0.395  0.6781 -1.2411 -0.0274
  962MOL0     O26910   6.728   9.750   0.387  0.5818  0.0851 -0.6162
  962MOL0     C26911   6.738   9.626   0.326 -0.2038  0.1972  0.5521
  962MOL0     C26912   6.700   9.510   0.409  0.4525  0.2965  0.0912
  962MOL0     C26913   6.556   9.475   0.376  0.5756  0.5669 -0.2925
  962MOL0     C26914   6.510   9.360   0.475 -0.7191 -0.1339  1.1314
  962MOL0     C26915   6.600   9.241   0.492 -0.3526  0.0916  0.0920
  962MOL0     C26916   6.677   9.148   0.487 -0.9032 -0.9962  0.0013
  962MOL0     C26917   6.577   9.864   0.525  0.3655 -0.5879 -0.3898
  962MOL0     C26918   6.469   9.951   0.537 -0.0266 -0.0562  0.5118
  962MOL0     H26919   6.274  10.285   0.197 -0.5432  0.6775 -0.7044
  962MOL0     H26920   6.152  10.475   0.166 -0.0988  1.1257  2.2756
  962MOL0     H26921   5.710  10.452   0.260 -0.4027 -0.7658 -2.5434
  962MOL0     H26922   5.787  10.475   0.098  0.6374  0.3139 -0.7241
  962MOL0     H26923   5.600  10.628   0.148  1.0054 -0.7036 -1.7802
  962MOL0     H26924   5.743  10.714   0.125 -3.0001 -1.2796 -3.0694
  962MOL0     H26925   5.780  10.697   0.395 -1.5848 -0.2256  2.1667
  962MOL0     H26926   5.615  10.663   0.397 -1.4857 -0.8554 -1.9964
  962MOL0     H26927   5.732  10.912   0.399 -1.6891  1.5189 -0.0335
  962MOL0     H26928   5.693  10.910   0.233  1.9405  2.3690  1.9234
  962MOL0     H26929   5.460  10.806   0.349  1.1417 -0.7481 -0.9785
  962MOL0     H26930   5.487  10.979   0.308  1.3024  0.4729  1.0691
  962MOL0     H26931   5.598  11.011   0.522  2.3228 -1.4880  1.9023
  962MOL0     H26932   5.551  10.850   0.566 -1.6221 -1.8598 -2.1855
  962MOL0     H26933   5.348  11.075   0.466 -0.4831 -0.2950  0.7025
  962MOL0     H26934   5.308  10.919   0.527 -0.7216  0.2301  1.4788
  962MOL0     H26935   5.442  11.142   0.686 -1.8023  2.4560 -0.5893
  962MOL0     H26936   5.396  10.987   0.758 -2.4183 -2.3232 -0.1326
  962MOL0     H26937   5.314  11.337   0.712 -0.0055  0.0757 -4.2068
  962MOL0     H26938   5.056  11.451   0.835  2.0438  0.3780 -0.4949
  962MOL0     H26939   4.936  11.401   0.736 -0.4535  2.7033  3.5092
  962MOL0     H26940   5.097  11.493   0.522  2.2240 -0.8170 -0.0780
  962MOL0     H26941   5.196  11.556   0.652  0.5210 -1.4601 -1.6415
  962MOL0     H26942   5.016  11.691   0.741  2.9859  0.7938 -0.3743
  962MOL0     H26943   5.054  11.733   0.574 -1.1703 -0.1649 -0.4842
  962MOL0     H26944   4.821  11.572   0.666 -1.2082  1.0075 -0.6908
  962MOL0     H26945   4.859  11.613   0.500  0.6624  0.6373 -0.3611
  962MOL0     H26946   4.618  11.603   0.613  0.9243  0.1255  0.8379
  962MOL0     H26947   4.376  11.675   0.583 -0.1585 -0.1847  0.9281
  962MOL0     H26948   4.134  12.239   0.581 -2.5769 -0.3213 -1.8260
  962MOL0     H26949   3.885  12.309   0.619 -0.9479 -1.3173  1.2597
  962MOL0     H26950   3.636  12.246   0.592 -3.1675 -2.2592 -0.1699
  962MOL0     H26951   3.697  12.362   0.722 -0.2741 -0.8737  0.5563
  962MOL0     H26952   3.434  12.353   0.679  1.8415 -0.7765 -2.3428
  962MOL0     H26953   3.492  12.319   0.835 -3.0864  3.0986 -1.0929
  962MOL0     H26954   3.474  12.069   0.763  1.4687  1.2039 -0.1589
  962MOL0     H26955   3.420  12.126   0.598  0.3899  1.4572 -1.3440
  962MOL0     H26956   3.290  12.165   0.859 -1.9076  1.3454 -0.6006
  962MOL0     H26957   3.228  12.238   0.713 -0.3218  0.3047  0.4269
  962MOL0     H26958   3.277  11.936   0.763 -1.1536 -0.7859 -0.8960
  962MOL0     H26959   3.198  12.005   0.616 -0.5556 -1.3820 -1.0922
  962MOL0     H26960   3.016  12.096   0.779 -0.0896  0.1746 -0.3795
  962MOL0     H26961   3.070  11.979   0.897 -0.7481  2.7991  0.8841
  962MOL0     H26962   3.000  11.888   0.616 -1.2090 -0.5455 -0.2449
  962MOL0     H26963   3.025  11.787   0.761 -1.6542 -0.4676 -2.0896
  962MOL0     H26964   2.811  11.995   0.697  2.5374  1.0096 -0.1719
  962MOL0     H26965   2.828  11.922   0.863 -3.0298  2.2938 -0.2816
  962MOL0     H26966   3.826  11.957   0.854 -1.9978  1.4800 -2.2233
  962MOL0     H26967   4.070  11.896   0.838 -1.2392 -2.3289 -1.9046
  962MOL0     H26968   4.491  12.074   0.635 -0.2505 -0.6102  1.3392
  962MOL0     H26969   4.720  12.022   0.589 -1.5663  1.7431 -0.8134
  962MOL0     H26970   5.829  10.330   0.412  0.8835 -0.9469  1.5963
  962MOL0     H26971   5.961  10.103   0.437  2.9177 -1.9481 -1.4099
  962MOL0     H26972   6.335   9.921   0.222 -2.5953  0.3019  3.1252
  962MOL0     H26973   6.539   9.799   0.185  1.4432  0.5387 -0.2754
  962MOL0     H26974   6.840   9.622   0.286 -0.4372  2.3706 -0.3790
  962MOL0     H26975   6.677   9.628   0.235 -0.0955 -1.9339  0.3778
  962MOL0     H26976   6.752   9.419   0.380 -1.9442 -1.6780  1.6281
  962MOL0     H26977   6.702   9.540   0.514  0.2516  4.2767 -0.8825
  962MOL0     H26978   6.548   9.443   0.272  1.8469 -1.2846  0.1268
  962MOL0     H26979   6.493   9.559   0.407 -1.5254  0.1536 -3.0180
  962MOL0     H26980   6.482   9.397   0.574  0.9691 -0.5728  1.8089
  962MOL0     H26981   6.418   9.320   0.431  0.5243 -0.9786 -0.8713
  962MOL0     H26982   6.742   9.063   0.478 -0.8510 -0.7885 -1.9648
  962MOL0     H26983   6.645   9.841   0.606  0.8544 -2.0605 -1.1675
  962MOL0     H26984   6.438   9.984   0.636 -3.4850 -3.0873  0.6514
  963MOL0     O26985   6.190   5.188   2.015 -0.3455 -0.8473  0.5076
  963MOL0     C26986   6.219   5.195   1.893  0.2450 -0.3928 -0.6036
  963MOL0     O26987   6.141   5.237   1.798  0.3539  0.2264 -0.0289
  963MOL0     C26988   6.006   5.211   1.810  0.1660  0.0221  0.5746
  963MOL0     C26989   5.929   5.290   1.725 -0.6161  0.3850  0.5716
  963MOL0     C26990   5.798   5.268   1.721  0.3426  0.4913  0.3886
  963MOL0     C26991   5.729   5.185   1.812  0.1405  0.2215  0.4203
  963MOL0     O26992   5.595   5.205   1.804  0.0517 -0.1840  0.3420
  963MOL0     C26993   5.509   5.108   1.860  0.1154 -0.7282 -0.3376
  963MOL0     C26994   5.445   5.151   1.995 -0.4772 -0.2989 -0.5323
  963MOL0     C26995   5.290   5.162   1.990  0.2693  0.8934  0.4523
  963MOL0     C26996   5.220   5.029   1.955 -0.4799  0.7781 -0.1881
  963MOL0     C26997   5.068   5.053   1.977 -0.8597 -0.2443  0.2869
  963MOL0     C26998   5.000   5.148   1.877  0.7560  0.4164 -0.0216
  963MOL0     C26999   4.851   5.108   1.863  0.7621 -0.1938  0.1333
  963MOL0     C27000   4.768   5.161   1.983 -0.4857  0.2839  0.2068
  963MOL0     N27001   4.624   5.133   1.977  0.5307 -0.0117 -0.1715
  963MOL0     C27002   4.538   5.236   2.017 -1.0544 -0.1576  0.9275
  963MOL0     C27003   4.422   5.179   2.005  0.7234 -0.0824  0.0715
  963MOL0     C27004   4.285   5.249   2.038 -0.5820  0.5006 -0.4342
  963MOL0     C27005   4.192   5.149   2.108  0.4546 -0.5696 -0.3195
  963MOL0     C27006   4.066   5.212   2.149 -0.2787 -0.9563 -0.3033
  963MOL0     C27007   3.973   5.111   2.206 -0.1783 -0.4367  0.9667
  963MOL0     O27008   3.921   5.028   2.106  0.5360 -0.2876  0.1657
  963MOL0     C27009   3.818   5.063   2.021  0.3191  0.3611  0.1822
  963MOL0     C27010   3.765   5.191   2.018  0.0164  0.6575 -0.5304
  963MOL0     C27011   3.654   5.217   1.935  0.4004 -0.0885 -0.0750
  963MOL0     C27012   3.609   5.110   1.849 -0.2720  1.1025 -0.3065
  963MOL0     C27013   3.496   5.135   1.750 -0.4182  0.3161 -0.5396
  963MOL0     O27014   3.439   5.029   1.697 -0.5853 -0.5203  0.2605
  963MOL0     C27015   3.332   5.045   1.620 -0.6177  0.2361 -0.1896
  963MOL0     C27016   3.227   4.959   1.638  0.1109  0.2926 -0.4326
  963MOL0     C27017   3.115   4.971   1.558 -1.0189  0.3985 -0.5182
  963MOL0     C27018   3.116   5.061   1.448 -0.5016  0.1547 -0.4182
  963MOL0     O27019   3.009   5.066   1.367  0.2450  0.1080 -0.3170
  963MOL0     C27020   2.990   4.959   1.287 -0.3288  0.4319  0.0585
  963MOL0     C27021   2.848   4.914   1.289  0.8510  0.1131 -0.0728
  963MOL0     C27022   2.756   5.016   1.212 -0.5965 -0.9171 -0.4370
  963MOL0     C27023   2.627   4.951   1.170  0.1064 -0.8743 -0.2510
  963MOL0     C27024   2.529   5.053   1.095  0.6471 -0.2951 -0.5674
  963MOL0     C27025   2.379   5.019   1.113 -0.0239  0.2461  0.5653
  963MOL0     C27026   2.302   5.099   1.013  0.3501 -0.6036 -0.7845
  963MOL0     C27027   2.145   5.103   1.023  0.3147  0.3546  0.1396
  963MOL0    Cl27028   2.070   5.222   0.912 -0.1040  0.2523 -0.1100
  963MOL0     C27029   3.231   5.137   1.417 -0.1976 -0.2906  0.7240
  963MOL0     C27030   3.333   5.138   1.516 -0.1750  0.1213  0.0107
  963MOL0     O27031   3.451   5.251   1.753  0.4287  0.7621  0.0856
  963MOL0     C27032   3.679   4.987   1.847  0.6951 -0.0649 -0.0643
  963MOL0     C27033   3.777   4.963   1.935 -0.3612  0.9397 -0.3748
  963MOL0     N27034   4.434   5.050   1.954  0.1425  0.0006  0.1486
  963MOL0     N27035   4.554   5.021   1.942 -0.3177  0.3397  0.6152
  963MOL0     C27036   5.801   5.100   1.886 -0.2978 -0.3454 -0.7569
  963MOL0     C27037   5.938   5.116   1.891  0.1184  0.6773  0.9324
  963MOL0     C27038   6.353   5.172   1.848  0.2166  0.6131  0.6363
  963MOL0     C27039   6.446   5.126   1.944  0.5293  0.1451  0.2570
  963MOL0     C27040   6.572   5.088   1.905  0.2897 -0.2642  0.0795
  963MOL0     C27041   6.617   5.108   1.773  0.3719 -0.1296  0.5361
  963MOL0     O27042   6.745   5.092   1.750 -0.7880 -0.5192  0.0773
  963MOL0     C27043   6.807   5.113   1.625 -0.3765 -0.4809  0.1222
  963MOL0     C27044   6.865   5.254   1.608 -0.4030 -0.7112  0.4243
  963MOL0     C27045   6.938   5.271   1.474  0.6123 -0.0168 -0.0279
  963MOL0     C27046   6.849   5.291   1.348 -0.5353  0.2102 -0.1223
  963MOL0     C27047   6.764   5.402   1.367 -0.8699  0.4272  0.1633
  963MOL0     C27048   6.680   5.489   1.370  0.2440  0.1421  0.0952
  963MOL0     C27049   6.521   5.158   1.680 -0.4131 -0.4345 -0.3759
  963MOL0     C27050   6.392   5.191   1.714  0.4351  0.1907 -0.5611
  963MOL0     H27051   5.975   5.366   1.663  1.3383 -0.5855  0.7562
  963MOL0     H27052   5.753   5.321   1.637 -0.1655 -0.7676 -0.1588
  963MOL0     H27053   5.562   5.012   1.864  4.4728  1.4580  3.8098
  963MOL0     H27054   5.427   5.101   1.788 -1.0097 -0.2501  0.8663
  963MOL0     H27055   5.495   5.245   2.020  0.6917 -0.9613 -0.3023
  963MOL0     H27056   5.473   5.082   2.075  2.8587 -0.1072 -1.3896
  963MOL0     H27057   5.264   5.237   1.914  0.7092  1.0388  0.4440
  963MOL0     H27058   5.262   5.196   2.090  0.8006  0.8861  0.6041
  963MOL0     H27059   5.243   4.989   1.856  2.8117  0.9101  0.4106
  963MOL0     H27060   5.262   4.955   2.024  1.2352  3.2747  1.6665
  963MOL0     H27061   5.047   5.091   2.077  2.7511 -2.1081  1.9810
  963MOL0     H27062   5.019   4.956   1.963  0.8237 -0.9873 -0.9246
  963MOL0     H27063   5.036   5.122   1.777  1.0764  1.7586 -0.2677
  963MOL0     H27064   5.015   5.255   1.894  2.6618  0.2958 -0.7200
  963MOL0     H27065   4.811   5.146   1.769 -2.7710 -0.6599  1.2904
  963MOL0     H27066   4.836   5.000   1.855 -1.2667 -0.1373  2.2449
  963MOL0     H27067   4.790   5.267   1.971  3.1866 -0.3032  0.5317
  963MOL0     H27068   4.818   5.141   2.078  0.1267  3.6272  0.7072
  963MOL0     H27069   4.563   5.337   2.047 -0.2146 -0.2273  0.4999
  963MOL0     H27070   4.248   5.297   1.947 -1.3897  0.0040 -0.3804
  963MOL0     H27071   4.288   5.333   2.108  2.7929 -1.7403  2.4578
  963MOL0     H27072   4.226   5.109   2.203  0.4315  1.1757  0.4614
  963MOL0     H27073   4.169   5.070   2.035 -0.5679 -1.9357  1.3794
  963MOL0     H27074   4.091   5.292   2.220  0.0784 -0.6283 -0.7937
  963MOL0     H27075   4.018   5.269   2.068 -0.3587  0.0423  0.4291
  963MOL0     H27076   3.890   5.157   2.261 -0.4577  0.7406 -0.3592
  963MOL0     H27077   4.031   5.057   2.281 -2.3358 -1.5503  1.8974
  963MOL0     H27078   3.791   5.271   2.087 -1.3960  0.6473  0.0499
  963MOL0     H27079   3.603   5.313   1.934  1.4713  0.5506 -3.1659
  963MOL0     H27080   3.240   4.890   1.720  0.6166 -0.2997 -0.9994
  963MOL0     H27081   3.024   4.919   1.587 -0.6865  0.7468  1.3020
  963MOL0     H27082   3.041   4.866   1.316 -1.5450  0.1030  1.2053
  963MOL0     H27083   3.006   4.983   1.181  0.9897  0.0856  0.1571
  963MOL0     H27084   2.814   4.884   1.388  1.0615 -0.5087 -0.1849
  963MOL0     H27085   2.846   4.824   1.226 -0.6369 -1.7591  2.4683
  963MOL0     H27086   2.803   5.053   1.120 -1.0820 -0.5018 -0.5213
  963MOL0     H27087   2.736   5.104   1.274 -0.5507 -0.3062 -1.2753
  963MOL0     H27088   2.631   4.863   1.105 -1.2219 -1.1211 -0.0324
  963MOL0     H27089   2.568   4.916   1.255 -0.3807  1.7864  0.5803
  963MOL0     H27090   2.547   5.066   0.988  0.6141  1.5810 -0.3701
  963MOL0     H27091   2.556   5.152   1.132 -0.3232  0.0028 -0.6164
  963MOL0     H27092   2.353   5.052   1.214  1.0097 -2.4653  1.8117
  963MOL0     H27093   2.357   4.915   1.089 -2.2924  0.7433  0.3328
  963MOL0     H27094   2.337   5.202   1.026  0.4254 -0.7141 -0.1073
  963MOL0     H27095   2.322   5.069   0.909 -3.2985  2.0816 -2.5106
  963MOL0     H27096   2.103   5.128   1.121 -2.3821  1.0631 -1.1256
  963MOL0     H27097   2.111   5.004   0.991 -0.8159  0.7760  0.0221
  963MOL0     H27098   3.219   5.195   1.327 -2.3623  0.4329  1.4249
  963MOL0     H27099   3.415   5.207   1.497  0.7824 -0.9297  0.2562
  963MOL0     H27100   3.633   4.907   1.789  1.4290 -0.7087  0.2257
  963MOL0     H27101   3.821   4.864   1.938 -0.8969  0.6930 -0.5946
  963MOL0     H27102   5.752   5.033   1.956  0.9829 -0.7802 -0.2488
  963MOL0     H27103   5.992   5.056   1.964  0.6546 -3.2431 -2.3620
  963MOL0     H27104   6.408   5.092   2.040 -1.6655  3.3779  0.7094
  963MOL0     H27105   6.641   5.038   1.973 -0.0974 -0.3258  0.4289
  963MOL0     H27106   6.752   5.079   1.537  1.2438 -0.6922 -0.8319
  963MOL0     H27107   6.889   5.043   1.607 -0.3562  0.0672 -2.1911
  963MOL0     H27108   6.778   5.320   1.615  0.2903  0.3812 -0.7385
  963MOL0     H27109   6.929   5.290   1.689  0.5333  1.2098 -1.0818
  963MOL0     H27110   7.004   5.188   1.450 -0.5151 -0.7303 -0.7646
  963MOL0     H27111   7.002   5.359   1.473 -0.5078  0.8300 -1.8180
  963MOL0     H27112   6.912   5.314   1.262  2.4904  0.6111  2.0190
  963MOL0     H27113   6.802   5.197   1.317  0.8751  0.7606 -4.6066
  963MOL0     H27114   6.602   5.562   1.357 -0.7656 -0.9273 -0.1060
  963MOL0     H27115   6.550   5.195   1.582 -1.0337  0.6682 -0.1609
  963MOL0     H27116   6.334   5.234   1.633 -0.2260 -0.5450 -0.4947
  964MOL0     O27117   2.822  10.134   9.071  0.0424  0.5212  0.4268
  964MOL0     C27118   2.858  10.104   9.185 -0.0315 -0.4573 -0.1249
  964MOL0     O27119   2.779  10.115   9.302  0.2919 -0.1808  0.3720
  964MOL0     C27120   2.647  10.113   9.287 -0.2110  0.2013 -0.1055
  964MOL0     C27121   2.572  10.218   9.325  0.3698 -0.8912  0.5143
  964MOL0     C27122   2.432  10.233   9.309 -0.7272 -0.2445 -1.0936
  964MOL0     C27123   2.370  10.123   9.250  0.3583 -0.0878  0.9585
  964MOL0     O27124   2.237  10.096   9.224  0.1860 -0.0660  0.3431
  964MOL0     C27125   2.151  10.198   9.267 -0.7745 -0.9356  0.4509
  964MOL0     C27126   2.003  10.170   9.230 -0.0110  0.1982 -0.4535
  964MOL0     C27127   1.932  10.091   9.338 -0.0253  0.7390  0.4750
  964MOL0     C27128   1.783  10.096   9.309  0.0768  0.3698  0.2354
  964MOL0     C27129   1.695  10.016   9.411 -0.9448 -0.7597  0.3245
  964MOL0     C27130   1.557  10.038   9.381 -0.2478 -0.0732  0.1154
  964MOL0     C27131   1.452   9.994   9.492  0.5190 -1.2186  0.0083
  964MOL0     C27132   1.307  10.039   9.469 -0.1067 -1.1529  0.2949
  964MOL0     N27133   1.204   9.970   9.548 -0.0270  0.0524  0.5322
  964MOL0     C27134   1.081   9.931   9.501  0.3476 -0.2919  0.5267
  964MOL0     C27135   1.038   9.845   9.598  0.2722 -1.4459  1.3507
  964MOL0     C27136   0.903   9.793   9.600  0.8605 -0.9029 -0.3303
  964MOL0     C27137   0.826   9.903   9.680 -0.0965 -0.2931 -0.3032
  964MOL0     C27138   0.683   9.829   9.710  0.4114 -0.1627 -0.0468
  964MOL0     C27139   0.581   9.919   9.777 -0.0658  0.1522  0.5183
  964MOL0     O27140   0.471   9.826   9.814 -0.0787  0.0814  0.4333
  964MOL0     C27141   0.348   9.879   9.853  0.4392  0.4604 -0.2392
  964MOL0     C27142   0.251   9.785   9.883 -0.6935 -0.1127  0.0322
  964MOL0     C27143   0.130   9.821   9.926  0.3610 -0.5504  0.5053
  964MOL0     C27144   0.084   9.955   9.933 -0.0413  0.2127 -1.1759
  964MOL0     C27145  -0.043  10.011   9.993  0.0627 -0.0206 -0.2547
  964MOL0     O27146  -0.146   9.916  10.025 -0.1984  0.1898  0.1270
  964MOL0     C27147  -0.257   9.961  10.091 -0.8777  0.0031 -0.4700
  964MOL0     C27148  -0.326  10.086  10.071 -0.5189  0.0423  0.1739
  964MOL0     C27149  -0.435  10.120  10.151  0.2355 -0.6848 -0.7855
  964MOL0     C27150  -0.500  10.033  10.241  0.6729  0.2341 -0.2516
  964MOL0     O27151  -0.621  10.049  10.307  0.3935  0.1543  0.1223
  964MOL0     C27152  -0.657  10.184  10.332  0.0651  0.0191  0.0622
  964MOL0     C27153  -0.792  10.198  10.410  0.2083  0.7869  0.1421
  964MOL0     C27154  -0.838  10.348  10.410  0.2900  0.4680  0.5491
  964MOL0     C27155  -0.968  10.364  10.496 -0.4722 -0.3370  0.2745
  964MOL0     C27156  -1.066  10.466  10.433 -0.6972  0.2664  0.5119
  964MOL0     C27157  -1.004  10.609  10.418  0.6621  0.6598  0.1740
  964MOL0     C27158  -1.106  10.714  10.387 -1.0660  0.2151 -0.6393
  964MOL0     C27159  -1.173  10.700  10.251  0.4611  0.0011 -0.1850
  964MOL0    Cl27160  -1.278  10.843  10.244  0.7382  0.0587 -0.1804
  964MOL0     C27161  -0.433   9.909  10.253 -0.0218 -0.3439  0.1638
  964MOL0     C27162  -0.314   9.872  10.187  0.8193 -0.6654 -0.2887
  964MOL0     O27163  -0.058  10.131  10.001 -0.3868 -0.0072 -0.5926
  964MOL0     C27164   0.180  10.048   9.900  0.5453 -0.2434  0.0069
  964MOL0     C27165   0.308  10.011   9.864 -0.2177  0.3534 -0.1034
  964MOL0     N27166   1.129   9.831   9.701 -0.6465 -0.2301  0.4996
  964MOL0     N27167   1.231   9.913   9.671  0.2970 -0.2050 -0.5198
  964MOL0     C27168   2.445  10.010   9.209 -0.9465 -0.9355 -0.0397
  964MOL0     C27169   2.585  10.010   9.217 -0.4812 -0.0900  0.1335
  964MOL0     C27170   2.996  10.060   9.203 -0.3834  1.3547  0.3101
  964MOL0     C27171   3.100  10.109   9.119  0.5654  0.6266  0.1266
  964MOL0     C27172   3.227  10.076   9.138 -0.7382 -0.1353 -0.4457
  964MOL0     C27173   3.256   9.982   9.240 -0.2028  1.0754 -0.7158
  964MOL0     O27174   3.385   9.959   9.289 -0.0143 -0.9773  0.2898
  964MOL0     C27175   3.483   9.946   9.183  0.7914 -0.2501  0.1381
  964MOL0     C27176   3.611   9.876   9.235  0.3553  1.0871  0.6789
  964MOL0     C27177   3.588   9.725   9.274  0.1059 -0.1174  0.5912
  964MOL0     C27178   3.690   9.631   9.216 -0.0705  0.6889  0.9320
  964MOL0     C27179   3.821   9.636   9.286 -0.4376  0.0130  0.0064
  964MOL0     C27180   3.921   9.653   9.344 -0.9134  0.3101  0.0908
  964MOL0     C27181   3.158   9.915   9.315  0.3564  0.0525 -0.7413
  964MOL0     C27182   3.032   9.960   9.299 -0.6011  0.0230  0.0426
  964MOL0     H27183   2.615  10.307   9.371 -2.3116 -0.4006  2.2892
  964MOL0     H27184   2.374  10.323   9.330 -0.1422 -0.2211  0.5331
  964MOL0     H27185   2.184  10.286   9.211 -0.5269 -0.7990  0.8004
  964MOL0     H27186   2.156  10.212   9.376 -1.6758  0.0100  0.3856
  964MOL0     H27187   1.991  10.121   9.133 -3.9986 -1.9934  0.9174
  964MOL0     H27188   1.953  10.267   9.221  0.8635  0.7150  0.0524
  964MOL0     H27189   1.949  10.130   9.439 -0.3264 -1.5815  1.4859
  964MOL0     H27190   1.979   9.993   9.334 -1.0081  0.2849 -2.7617
  964MOL0     H27191   1.756  10.202   9.300  2.7272  1.0173 -1.0899
  964MOL0     H27192   1.766  10.050   9.211  1.6237  0.2028  0.0261
  964MOL0     H27193   1.713  10.060   9.510 -1.8482 -1.1699  0.6867
  964MOL0     H27194   1.723   9.911   9.401 -1.0407 -0.6319 -1.7425
  964MOL0     H27195   1.540   9.983   9.288  0.3008  0.0103 -0.0360
  964MOL0     H27196   1.534  10.144   9.363  1.1424  0.5114  1.5224
  964MOL0     H27197   1.451   9.884   9.491  0.3460 -1.2458 -2.5935
  964MOL0     H27198   1.486  10.045   9.583  0.9315  0.7364 -1.1889
  964MOL0     H27199   1.298  10.016   9.363  0.0129 -1.0975  0.2725
  964MOL0     H27200   1.296  10.147   9.470  3.5349 -0.6657 -0.8052
  964MOL0     H27201   1.039   9.971   9.409 -0.4078 -1.0579  0.5145
  964MOL0     H27202   0.905   9.695   9.647  0.0488 -0.7674  0.0088
  964MOL0     H27203   0.856   9.775   9.503 -0.9852  2.3105 -0.1846
  964MOL0     H27204   0.816   9.994   9.620  0.9489 -0.2033 -0.3576
  964MOL0     H27205   0.880   9.938   9.769  2.8911 -1.9149 -1.3491
  964MOL0     H27206   0.645   9.796   9.613 -0.7973 -0.1254  0.3976
  964MOL0     H27207   0.686   9.737   9.769  0.5882  0.0297  0.2498
  964MOL0     H27208   0.549   9.988   9.698  0.5805 -1.7546 -1.5267
  964MOL0     H27209   0.614   9.972   9.867  0.6563  0.7612 -0.0892
  964MOL0     H27210   0.284   9.682   9.873  0.3575  0.1720  0.4118
  964MOL0     H27211   0.059   9.747   9.963 -3.9874  2.0173 -1.7576
  964MOL0     H27212  -0.297  10.161   9.999  2.3705 -0.7383  0.3937
  964MOL0     H27213  -0.473  10.221  10.143  1.1606 -0.4075 -2.0655
  964MOL0     H27214  -0.668  10.231  10.234  0.2239 -0.3582 -0.1359
  964MOL0     H27215  -0.584  10.236  10.395  0.5732 -1.2703  0.5572
  964MOL0     H27216  -0.768  10.162  10.510 -0.4331  1.1698  0.4357
  964MOL0     H27217  -0.853  10.132  10.346  0.4009  1.7067 -1.0271
  964MOL0     H27218  -0.860  10.360  10.303  1.7126 -2.9117 -0.2626
  964MOL0     H27219  -0.762  10.421  10.441  2.2833 -0.4597 -1.7537
  964MOL0     H27220  -1.020  10.269  10.510  2.0146 -1.4451  2.9741
  964MOL0     H27221  -0.928  10.397  10.592  1.2308  2.2986 -1.2177
  964MOL0     H27222  -1.151  10.468  10.501 -0.8723 -1.6745  0.4058
  964MOL0     H27223  -1.099  10.440  10.332  0.9530  1.6675 -0.4527
  964MOL0     H27224  -0.921  10.623  10.348 -0.8845  3.6088 -1.2595
  964MOL0     H27225  -0.962  10.638  10.515 -0.8031  0.8565  0.7779
  964MOL0     H27226  -1.179  10.719  10.468 -0.8410  1.4994 -0.4904
  964MOL0     H27227  -1.057  10.812  10.392 -0.2462 -0.1588 -1.0490
  964MOL0     H27228  -1.240  10.615  10.261 -0.9064  1.2048  1.3848
  964MOL0     H27229  -1.102  10.699  10.167  0.3207  1.9495 -0.3686
  964MOL0     H27230  -0.483   9.827  10.304 -0.1179  0.0630  0.7260
  964MOL0     H27231  -0.277   9.771  10.207  0.0321 -0.5997  1.7048
  964MOL0     H27232   0.164  10.156   9.907  0.6974 -0.2892  1.2110
  964MOL0     H27233   0.375  10.093   9.839 -0.0738 -0.4653 -2.7170
  964MOL0     H27234   2.398   9.926   9.159 -2.4309 -0.6624  0.8395
  964MOL0     H27235   2.649   9.935   9.171 -0.1197  1.5878 -2.2536
  964MOL0     H27236   3.081  10.172   9.033 -0.3743 -1.6295 -1.4279
  964MOL0     H27237   3.309  10.115   9.078 -0.1812 -2.6320 -1.4445
  964MOL0     H27238   3.513  10.046   9.153 -1.2635  0.0779 -1.0368
  964MOL0     H27239   3.455   9.898   9.088  0.8522 -2.9999  1.3955
  964MOL0     H27240   3.688   9.887   9.158  0.1882 -0.5890  0.2174
  964MOL0     H27241   3.655   9.929   9.320  2.0168  1.3902 -0.3382
  964MOL0     H27242   3.488   9.693   9.242  1.1080 -3.6450  0.5599
  964MOL0     H27243   3.581   9.719   9.383  1.6970 -1.8918  0.6430
  964MOL0     H27244   3.653   9.531   9.241 -0.9723  1.2427  1.8673
  964MOL0     H27245   3.705   9.638   9.108 -0.3732  2.6719  0.9807
  964MOL0     H27246   4.018   9.670   9.386  0.4560 -2.9451 -1.3961
  964MOL0     H27247   3.188   9.848   9.395 -0.6521 -1.4671 -1.5749
  964MOL0     H27248   2.962   9.923   9.373 -1.0833  0.9711  0.0868
  965MOL0     O27249   3.724  10.209   0.204  1.0299 -0.3114  0.1757
  965MOL0     C27250   3.777  10.115   0.144 -0.0343  0.6355  0.2703
  965MOL0     O27251   3.718   9.999   0.102 -0.2977 -1.0575 -0.6134
  965MOL0     C27252   3.588   9.979   0.119 -0.5518 -0.9987  0.9476
  965MOL0     C27253   3.492  10.077   0.094  0.2161  0.6062  0.2710
  965MOL0     C27254   3.357  10.041   0.097  0.0458  0.5509  0.0820
  965MOL0     C27255   3.320   9.906   0.132 -0.2847  0.3577  0.4028
  965MOL0     O27256   3.196   9.878   0.155 -0.4224  0.1259  0.2275
  965MOL0     C27257   3.094   9.957   0.105 -0.2860 -0.2798 -0.1268
  965MOL0     C27258   2.958   9.904   0.104  0.3058 -0.9998 -0.0079
  965MOL0     C27259   2.848  10.010   0.117 -0.2164 -0.0396  0.7227
  965MOL0     C27260   2.710   9.942   0.083 -0.7599  0.3598  0.0812
  965MOL0     C27261   2.588  10.031   0.073 -0.1554  0.0291 -0.1909
  965MOL0     C27262   2.472   9.962   0.010 -0.7585  0.0279 -0.6314
  965MOL0     C27263   2.346  10.044  -0.003  0.5469  0.5542 -0.1777
  965MOL0     C27264   2.228   9.979  -0.078  0.2857  0.0612 -0.1197
  965MOL0     N27265   2.122  10.074  -0.087 -0.5509  0.1272 -0.0024
  965MOL0     C27266   2.019  10.064  -0.176 -0.0995  0.0211  0.0105
  965MOL0     C27267   1.924  10.150  -0.136 -0.2416 -0.5806 -0.3730
  965MOL0     C27268   1.789  10.195  -0.187  0.3329  0.1801  0.0945
  965MOL0     C27269   1.781  10.349  -0.193 -0.1441 -0.0552 -0.0062
  965MOL0     C27270   1.656  10.403  -0.256  0.7484 -0.0965 -0.2871
  965MOL0     C27271   1.611  10.353  -0.397 -0.8547 -0.5573 -0.6531
  965MOL0     O27272   1.505  10.433  -0.442 -0.7543 -0.5060  0.2464
  965MOL0     C27273   1.376  10.410  -0.410  0.1493 -0.5975  0.8012
  965MOL0     C27274   1.279  10.494  -0.465 -0.0316  0.4213 -0.6383
  965MOL0     C27275   1.148  10.491  -0.415  0.1930  0.2092  0.6359
  965MOL0     C27276   1.112  10.393  -0.316  0.1323  0.0827  0.0007
  965MOL0     C27277   0.981  10.395  -0.257 -0.3058  0.2791  0.3355
  965MOL0     O27278   0.891  10.472  -0.324  0.0742 -0.1497  0.0772
  965MOL0     C27279   0.759  10.474  -0.267 -0.5539  0.2591 -0.4646
  965MOL0     C27280   0.681  10.361  -0.279  0.4160 -0.0380  0.1418
  965MOL0     C27281   0.554  10.357  -0.218 -0.0072  0.0149 -0.1641
  965MOL0     C27282   0.495  10.467  -0.159  0.1116  0.3087  0.1860
  965MOL0     O27283   0.368  10.437  -0.106 -0.3073 -1.0880  0.0205
  965MOL0     C27284   0.292  10.555  -0.085  0.3174 -0.7672 -0.9566
  965MOL0     C27285   0.162  10.510  -0.017 -0.2186  0.2526 -0.1445
  965MOL0     C27286   0.099  10.625   0.064  0.6875 -0.2975  0.3837
  965MOL0     C27287  -0.032  10.569   0.112 -0.6462 -0.3406 -0.0405
  965MOL0     C27288  -0.112  10.658   0.206 -0.2280 -0.1428 -0.3953
  965MOL0     C27289  -0.219  10.576   0.264  0.1513  0.1812  0.0777
  965MOL0     C27290  -0.296  10.642   0.382  0.2284 -0.1777  0.4715
  965MOL0     C27291  -0.412  10.561   0.429 -1.2800 -0.4177  0.2130
  965MOL0    Cl27292  -0.542  10.566   0.302 -0.1383  0.0584  0.1962
  965MOL0     C27293   0.571  10.585  -0.146  0.7837 -0.3585  0.5176
  965MOL0     C27294   0.698  10.589  -0.205  0.4480 -0.1919 -0.1604
  965MOL0     O27295   0.959  10.334  -0.151  0.0276 -0.1114 -0.3807
  965MOL0     C27296   1.210  10.302  -0.267  0.3679 -0.0783 -0.0009
  965MOL0     C27297   1.336  10.307  -0.319  0.0230 -0.3808 -0.9396
  965MOL0     N27298   1.976  10.211  -0.020 -0.7460 -0.5695  0.1243
  965MOL0     N27299   2.100  10.177  -0.005  0.4067 -0.2716  0.0967
  965MOL0     C27300   3.419   9.809   0.148  0.6297  0.2348 -0.6742
  965MOL0     C27301   3.548   9.854   0.149  0.2000 -0.2348 -0.0576
  965MOL0     C27302   3.920  10.132   0.117  0.1595 -0.6156 -0.5216
  965MOL0     C27303   3.983  10.246   0.178  0.9963 -0.1042 -0.5664
  965MOL0     C27304   4.120  10.255   0.176  0.5637  0.1287  1.0925
  965MOL0     C27305   4.197  10.162   0.105 -0.4002  0.1671  0.5301
  965MOL0     O27306   4.332  10.181   0.087  0.0319 -0.8781 -0.0940
  965MOL0     C27307   4.420  10.083   0.052 -0.2670  0.2089 -0.7539
  965MOL0     C27308   4.551  10.123   0.123 -0.2306  1.2927  0.0820
  965MOL0     C27309   4.670  10.045   0.070  0.2063 -0.2878  0.9753
  965MOL0     C27310   4.665   9.889   0.064 -0.3135  0.1448 -0.2868
  965MOL0     C27311   4.789   9.845   0.000  0.8689  1.0043  0.1348
  965MOL0     C27312   4.886   9.809  -0.060  0.0377  0.3106  0.3369
  965MOL0     C27313   4.134  10.049   0.050 -0.2059  0.3381 -0.6994
  965MOL0     C27314   4.001  10.036   0.056 -0.1302  0.0936  0.0870
  965MOL0     H27315   3.528  10.178   0.078  2.1429  0.1064  1.1050
  965MOL0     H27316   3.295  10.130   0.091  0.2807  0.7050 -0.0797
  965MOL0     H27317   3.124   9.977   0.002  1.6201 -1.4580  0.1645
  965MOL0     H27318   3.090  10.048   0.165  3.7296  0.6777 -1.0481
  965MOL0     H27319   2.943   9.845   0.196 -2.6678  1.3357  1.1931
  965MOL0     H27320   2.942   9.846   0.012 -0.6769  1.6934 -1.6309
  965MOL0     H27321   2.867  10.093   0.048 -2.5787 -1.4418 -1.8532
  965MOL0     H27322   2.842  10.048   0.219  4.1134  0.1680  1.0783
  965MOL0     H27323   2.718   9.889  -0.012 -1.3306 -2.6621  1.5762
  965MOL0     H27324   2.681   9.867   0.158  0.2861 -0.4134 -0.2763
  965MOL0     H27325   2.613  10.118   0.011  2.1416  0.1412  0.7864
  965MOL0     H27326   2.552  10.065   0.171 -0.1795 -1.7051  0.4238
  965MOL0     H27327   2.448   9.879   0.077  0.0705 -0.4640 -0.9110
  965MOL0     H27328   2.506   9.915  -0.083  2.3018  1.2652 -0.2555
  965MOL0     H27329   2.301  10.069   0.094  2.9564  2.8455  0.4841
  965MOL0     H27330   2.368  10.133  -0.063  1.4012 -0.6601 -1.7529
  965MOL0     H27331   2.189   9.891  -0.026  0.4167  0.7678  1.1980
  965MOL0     H27332   2.261   9.949  -0.179  0.7112  0.4322 -0.0925
  965MOL0     H27333   2.016  10.005  -0.267 -2.5309 -0.6894  0.4866
  965MOL0     H27334   1.713  10.163  -0.115  0.3810 -1.2842 -0.4781
  965MOL0     H27335   1.772  10.159  -0.289  3.9143  0.7422 -0.8189
  965MOL0     H27336   1.864  10.385  -0.255 -0.6722 -1.5723 -1.6800
  965MOL0     H27337   1.788  10.392  -0.093 -1.0232  1.4749 -0.5704
  965MOL0     H27338   1.574  10.385  -0.185 -0.4842 -0.1844 -1.6971
  965MOL0     H27339   1.674  10.510  -0.252  3.9694 -0.4773 -2.0072
  965MOL0     H27340   1.587  10.246  -0.394 -1.9288 -0.3491 -1.3379
  965MOL0     H27341   1.695  10.368  -0.465 -1.0336  2.1109 -0.3784
  965MOL0     H27342   1.309  10.561  -0.545  0.2129  1.1160  0.0226
  965MOL0     H27343   1.075  10.553  -0.466 -0.0444  0.3078  1.0903
  965MOL0     H27344   0.718  10.264  -0.312  2.1386  0.5165  0.3442
  965MOL0     H27345   0.493  10.268  -0.216  0.0187  0.0052  0.6098
  965MOL0     H27346   0.274  10.611  -0.177  0.0369 -0.6171 -0.8102
  965MOL0     H27347   0.341  10.619  -0.011  1.3416 -0.2933 -2.0047
  965MOL0     H27348   0.179  10.428   0.053 -5.1480 -2.5923 -1.8700
  965MOL0     H27349   0.103  10.476  -0.102 -1.9516 -0.9938  1.4633
  965MOL0     H27350   0.061  10.703  -0.003 -3.0587 -2.9270 -0.8877
  965MOL0     H27351   0.162  10.649   0.150 -0.2952  1.8527  0.5793
  965MOL0     H27352  -0.096  10.537   0.030 -0.0231  0.0992 -0.7152
  965MOL0     H27353  -0.012  10.472   0.159  0.7536 -1.8082 -3.3550
  965MOL0     H27354  -0.145  10.746   0.151  0.1520 -1.3934 -2.7607
  965MOL0     H27355  -0.050  10.690   0.291  0.3145 -3.0584  0.4132
  965MOL0     H27356  -0.173  10.493   0.317 -0.8834 -0.2084  0.3995
  965MOL0     H27357  -0.289  10.543   0.186 -1.8850  0.2554  1.7613
  965MOL0     H27358  -0.223  10.668   0.459 -1.4209  1.1437  1.6694
  965MOL0     H27359  -0.336  10.741   0.359 -1.7881 -0.9921  0.3075
  965MOL0     H27360  -0.448  10.602   0.523 -1.6367 -0.1378 -0.0401
  965MOL0     H27361  -0.377  10.458   0.442  0.4934 -0.4108 -3.1873
  965MOL0     H27362   0.540  10.671  -0.088 -0.2218  1.1213 -2.0441
  965MOL0     H27363   0.758  10.680  -0.213 -0.4246  0.2936 -1.6552
  965MOL0     H27364   1.188  10.220  -0.200 -1.6856  0.4015 -0.0141
  965MOL0     H27365   1.407  10.236  -0.277  0.4217  0.0162 -0.9372
  965MOL0     H27366   3.407   9.706   0.180  2.3102 -0.4793 -2.1787
  965MOL0     H27367   3.624   9.777   0.151 -0.1329 -0.6687 -1.8557
  965MOL0     H27368   3.925  10.324   0.225  1.2840 -0.7693  0.9293
  965MOL0     H27369   4.171  10.341   0.218 -2.6440  2.5649  0.4918
  965MOL0     H27370   4.436  10.087  -0.056 -1.4127 -0.5821 -0.9705
  965MOL0     H27371   4.372   9.988   0.077 -2.3909  1.2661 -0.5427
  965MOL0     H27372   4.574  10.230   0.123  1.7149  0.9113  0.6757
  965MOL0     H27373   4.536  10.093   0.227  1.0795 -1.8030 -0.5064
  965MOL0     H27374   4.763  10.070   0.121 -1.0269  3.7976  1.5597
  965MOL0     H27375   4.685  10.075  -0.035 -0.6824 -0.2230  0.8602
  965MOL0     H27376   4.653   9.849   0.165 -2.1390  0.5188 -0.3156
  965MOL0     H27377   4.576   9.846   0.015 -1.3646  0.4548  1.2828
  965MOL0     H27378   4.966   9.782  -0.126 -0.3816  1.8590 -0.8480
  965MOL0     H27379   4.181   9.964   0.001  0.8666  0.7126 -0.3554
  965MOL0     H27380   3.957   9.941   0.029 -2.5939  1.0046  0.6219
  966MOL0     O27381   4.452  10.013   6.035  0.4900  0.8522 -0.6462
  966MOL0     C27382   4.491   9.988   6.152 -0.4905  0.2656  0.0089
  966MOL0     O27383   4.427   9.913   6.243 -0.2775 -0.2375  0.4944
  966MOL0     C27384   4.292   9.885   6.227 -0.4126 -0.3483  0.1464
  966MOL0     C27385   4.232   9.757   6.246  0.3285 -1.2011  0.5171
  966MOL0     C27386   4.095   9.736   6.237  0.1522 -0.5680  0.1278
  966MOL0     C27387   4.005   9.851   6.227 -0.2410 -0.1470  0.2062
  966MOL0     O27388   3.868   9.837   6.202 -0.5405 -0.6751  0.7347
  966MOL0     C27389   3.800   9.725   6.254 -0.0065 -0.1751 -0.0768
  966MOL0     C27390   3.646   9.752   6.226 -0.5627 -0.0422 -0.7680
  966MOL0     C27391   3.570   9.624   6.265 -0.5124  0.1895 -0.7585
  966MOL0     C27392   3.565   9.612   6.419 -0.5530 -0.2704 -0.2179
  966MOL0     C27393   3.434   9.541   6.474  0.2770 -0.1691  0.1828
  966MOL0     C27394   3.306   9.618   6.471 -0.3299  0.7532  0.6198
  966MOL0     C27395   3.186   9.545   6.522  0.5573 -0.4033 -0.1026
  966MOL0     C27396   3.168   9.534   6.675  0.3497 -0.0612  0.4454
  966MOL0     N27397   3.037   9.467   6.712 -0.0511 -1.0357 -0.5563
  966MOL0     C27398   3.003   9.416   6.836 -0.4819  0.1055 -0.0392
  966MOL0     C27399   2.872   9.395   6.838 -0.1435 -0.3618  0.3318
  966MOL0     C27400   2.771   9.336   6.934  0.2120  0.2741  0.2667
  966MOL0     C27401   2.840   9.228   7.029 -0.3080 -0.6839  0.0658
  966MOL0     C27402   2.757   9.190   7.148  0.3074  0.0428 -0.2978
  966MOL0     C27403   2.615   9.144   7.102  1.1496 -1.2003 -0.1599
  966MOL0     O27404   2.514   9.256   7.131 -0.0279 -0.1369 -0.4925
  966MOL0     C27405   2.385   9.244   7.078  0.1698  0.5014 -0.3548
  966MOL0     C27406   2.290   9.220   7.176  0.2293 -0.7714 -0.0505
  966MOL0     C27407   2.159   9.199   7.135  0.2085 -0.0339  0.2906
  966MOL0     C27408   2.124   9.199   6.996 -0.5190 -0.0473  0.3861
  966MOL0     C27409   1.977   9.191   6.959  0.0994  0.3595 -0.0874
  966MOL0     O27410   1.898   9.153   7.061 -0.2233 -0.5009 -0.1326
  966MOL0     C27411   1.775   9.111   7.040  0.6890  0.0152  0.3580
  966MOL0     C27412   1.764   8.974   7.024 -0.6382 -0.3306 -0.7218
  966MOL0     C27413   1.640   8.913   7.009 -0.2056 -0.2310 -0.2017
  966MOL0     C27414   1.524   8.988   7.010  0.3689  0.2918  0.1030
  966MOL0     O27415   1.412   8.915   6.981  0.9723  0.2075 -0.5809
  966MOL0     C27416   1.315   8.977   6.903  0.0509  0.5942  0.2475
  966MOL0     C27417   1.348   8.975   6.763  0.1980 -0.4546 -0.0224
  966MOL0     C27418   1.350   8.836   6.705  0.5550  0.0663 -0.1727
  966MOL0     C27419   1.353   8.838   6.557 -1.2307 -0.1058 -0.3209
  966MOL0     C27420   1.335   8.697   6.507  0.2505 -0.3109 -0.0506
  966MOL0     C27421   1.463   8.611   6.530  0.0930 -0.0855  0.0241
  966MOL0     C27422   1.474   8.481   6.449 -0.7568  0.0254 -0.6183
  966MOL0     C27423   1.370   8.367   6.476 -0.2123 -1.2410 -0.3041
  966MOL0    Cl27424   1.216   8.394   6.400  0.1041 -0.2118  0.1932
  966MOL0     C27425   1.525   9.125   7.031 -0.4360 -0.1264 -1.3896
  966MOL0     C27426   1.653   9.188   7.047  0.3896  0.7240  1.2761
  966MOL0     O27427   1.947   9.189   6.841 -0.5748  0.6166 -0.1709
  966MOL0     C27428   2.228   9.225   6.896  0.0341  0.2567 -0.1915
  966MOL0     C27429   2.356   9.243   6.942  0.0729  0.0060 -0.7166
  966MOL0     N27430   2.826   9.435   6.714 -0.8008  1.2224  0.0620
  966MOL0     N27431   2.921   9.482   6.647  0.5076 -0.0800 -0.2126
  966MOL0     C27432   4.067   9.975   6.217  0.5382  1.0804 -0.0867
  966MOL0     C27433   4.201   9.994   6.223  0.8483  0.2133  0.5188
  966MOL0     C27434   4.624  10.032   6.199 -0.6442  0.4700 -0.0841
  966MOL0     C27435   4.733  10.046   6.112 -0.4655 -0.8618 -0.2985
  966MOL0     C27436   4.862  10.075   6.157 -0.3961 -0.9358  0.7128
  966MOL0     C27437   4.895  10.080   6.290  0.8633 -0.1130 -0.5466
  966MOL0     O27438   5.015  10.110   6.351  0.3574 -0.3589 -0.6378
  966MOL0     C27439   5.121  10.149   6.270 -0.0110  0.3558  0.0594
  966MOL0     C27440   5.244  10.190   6.367  0.6549  0.3313  0.2334
  966MOL0     C27441   5.374  10.233   6.300 -0.1290  0.0917  0.2697
  966MOL0     C27442   5.483  10.274   6.400 -0.0724 -0.1912 -0.7392
  966MOL0     C27443   5.439  10.386   6.481  0.7648  1.2171  0.1570
  966MOL0     C27444   5.406  10.479   6.553 -0.2328  0.0562  0.7271
  966MOL0     C27445   4.791  10.055   6.379 -0.1686  0.0639 -1.6777
  966MOL0     C27446   4.662  10.042   6.331  0.2065 -0.4527  0.0537
  966MOL0     H27447   4.292   9.667   6.243 -0.6577 -1.8553 -0.2672
  966MOL0     H27448   4.058   9.635   6.225 -1.1743 -0.2983  1.6039
  966MOL0     H27449   3.826   9.715   6.360  0.9301  0.9861 -0.1883
  966MOL0     H27450   3.825   9.630   6.206 -2.2420 -2.5618  3.0005
  966MOL0     H27451   3.614   9.786   6.127  0.1192  1.5843 -0.4643
  966MOL0     H27452   3.630   9.839   6.291  3.6368  0.5351 -0.2474
  966MOL0     H27453   3.606   9.534   6.215 -1.7892 -1.4284  1.0789
  966MOL0     H27454   3.466   9.635   6.231 -3.2353 -4.0326  4.5655
  966MOL0     H27455   3.654   9.551   6.441  0.9616  1.7536 -0.3894
  966MOL0     H27456   3.584   9.708   6.468 -1.1576  0.7614 -1.9488
  966MOL0     H27457   3.433   9.523   6.582 -1.1924 -0.3606  0.1627
  966MOL0     H27458   3.421   9.442   6.428 -0.3880 -0.7471  1.5440
  966MOL0     H27459   3.295   9.640   6.365  1.6735  0.0779  0.2189
  966MOL0     H27460   3.323   9.713   6.525  2.7520  0.5406  0.2466
  966MOL0     H27461   3.096   9.589   6.477  1.7248  0.2826 -1.8445
  966MOL0     H27462   3.192   9.442   6.487  0.1200 -0.7525  0.8034
  966MOL0     H27463   3.172   9.635   6.717 -0.0211 -0.4104  1.3303
  966MOL0     H27464   3.247   9.469   6.712 -0.1819 -1.4811 -0.8146
  966MOL0     H27465   3.071   9.378   6.912 -0.5950 -1.2478 -0.5809
  966MOL0     H27466   2.699   9.287   6.867  1.6409 -0.0474 -1.0952
  966MOL0     H27467   2.726   9.412   6.998  1.6393 -0.0870  1.7567
  966MOL0     H27468   2.935   9.270   7.065 -1.2189  0.5418  1.1345
  966MOL0     H27469   2.869   9.143   6.966 -0.7935  0.5323 -1.8929
  966MOL0     H27470   2.801   9.112   7.212  1.7971 -0.1126 -1.4812
  966MOL0     H27471   2.747   9.273   7.218 -0.5660 -1.4962  1.5136
  966MOL0     H27472   2.582   9.061   7.165 -1.2483 -0.2336 -0.0081
  966MOL0     H27473   2.602   9.097   7.004  0.6805  1.4296 -1.4730
  966MOL0     H27474   2.321   9.212   7.280 -2.2990 -1.6075  0.7204
  966MOL0     H27475   2.081   9.168   7.205 -0.5520 -2.7103 -1.6010
  966MOL0     H27476   1.860   8.924   7.015  0.2626  1.0179  0.7814
  966MOL0     H27477   1.650   8.807   6.984 -0.2972 -0.0082 -1.2382
  966MOL0     H27478   1.283   9.078   6.930 -0.2123  0.8007 -0.7941
  966MOL0     H27479   1.222   8.920   6.909 -0.0829  0.6682 -1.0133
  966MOL0     H27480   1.447   9.016   6.738  0.2265 -1.2607 -1.3763
  966MOL0     H27481   1.271   9.030   6.709 -1.5272 -1.9191  0.8682
  966MOL0     H27482   1.260   8.782   6.737 -0.8421  2.4004  0.0943
  966MOL0     H27483   1.434   8.777   6.743 -0.6722 -0.7182  1.4386
  966MOL0     H27484   1.267   8.901   6.531 -2.4062 -0.7070  1.8197
  966MOL0     H27485   1.449   8.874   6.521 -0.6099  1.0667  2.2755
  966MOL0     H27486   1.327   8.700   6.398  0.1011 -5.2018 -0.4179
  966MOL0     H27487   1.248   8.645   6.548 -0.3187 -0.8176 -1.8102
  966MOL0     H27488   1.472   8.588   6.636  0.9787 -2.4052 -0.5155
  966MOL0     H27489   1.546   8.672   6.494  0.2601  0.6445  1.5514
  966MOL0     H27490   1.471   8.500   6.341  4.2070 -0.8586 -1.1722
  966MOL0     H27491   1.575   8.443   6.465 -0.8314  0.7355  2.0250
  966MOL0     H27492   1.357   8.329   6.578 -1.6845 -2.4509 -0.8944
  966MOL0     H27493   1.413   8.280   6.425  2.7950 -0.2314  0.3183
  966MOL0     H27494   1.434   9.182   7.017 -0.3197 -0.4688 -3.9662
  966MOL0     H27495   1.655   9.293   7.077  1.9959  0.4481  2.2498
  966MOL0     H27496   2.207   9.229   6.790 -1.8209  0.9182  0.1664
  966MOL0     H27497   2.439   9.245   6.872  1.0364 -2.4796  0.2304
  966MOL0     H27498   4.005  10.063   6.200 -0.9253  0.0594 -0.2582
  966MOL0     H27499   4.237  10.096   6.233  3.4036 -0.7408  1.6731
  966MOL0     H27500   4.735  10.040   6.003  3.7940  1.5629 -0.6166
  966MOL0     H27501   4.941  10.084   6.083 -1.1525  0.3404  0.0212
  966MOL0     H27502   5.086  10.241   6.223  0.2458  1.4454  1.9102
  966MOL0     H27503   5.158  10.079   6.195  0.6356  0.1830  0.5322
  966MOL0     H27504   5.207  10.265   6.437  0.4873 -0.8410  1.4499
  966MOL0     H27505   5.267  10.102   6.427  0.8199  1.6861  2.2387
  966MOL0     H27506   5.369  10.313   6.226  1.1428 -1.6706 -1.8470
  966MOL0     H27507   5.413  10.152   6.238 -0.5776  0.6939 -0.8203
  966MOL0     H27508   5.511  10.192   6.466  2.5213  0.2308 -1.2143
  966MOL0     H27509   5.572  10.304   6.344 -0.2263  1.2964 -0.2484
  966MOL0     H27510   5.372  10.570   6.600 -0.8685 -1.0568  2.5426
  966MOL0     H27511   4.813  10.057   6.485 -6.1766  2.6753 -0.0752
  966MOL0     H27512   4.593  10.032   6.414  1.3354 -1.3981  0.9058
  967MOL0     O27513   6.335   3.786   9.441  0.3127  0.1181 -0.1483
  967MOL0     C27514   6.394   3.889   9.396 -0.1463  0.2839 -1.3721
  967MOL0     O27515   6.339   4.007   9.354 -0.0351 -0.0307  0.1934
  967MOL0     C27516   6.199   4.025   9.333 -0.5412  0.7643 -1.1592
  967MOL0     C27517   6.110   3.963   9.426 -0.0631 -0.7728  0.3604
  967MOL0     C27518   5.971   3.983   9.408 -0.9492  0.0397  0.4845
  967MOL0     C27519   5.924   4.060   9.299  1.3571  0.6224 -0.5927
  967MOL0     O27520   5.792   4.092   9.291 -0.0153 -0.3950 -0.1610
  967MOL0     C27521   5.714   4.097   9.411 -0.4758 -0.0028  0.3692
  967MOL0     C27522   5.584   4.186   9.386  0.7911  0.0111 -0.0022
  967MOL0     C27523   5.636   4.328   9.375  0.7313 -0.1323  0.2916
  967MOL0     C27524   5.508   4.411   9.336  0.3981 -0.5250  0.1165
  967MOL0     C27525   5.552   4.563   9.319 -0.2357  0.2141  0.6522
  967MOL0     C27526   5.436   4.641   9.257  0.1310 -0.5208 -0.0489
  967MOL0     C27527   5.325   4.688   9.349 -0.2290  0.2765 -0.4382
  967MOL0     C27528   5.239   4.805   9.295  0.2122  0.9247  0.1311
  967MOL0     N27529   5.132   4.824   9.392  1.1606 -0.6072 -0.0948
  967MOL0     C27530   5.022   4.749   9.399  0.3562 -0.8193  0.0001
  967MOL0     C27531   4.973   4.784   9.520  1.2040  0.5416  0.3006
  967MOL0     C27532   4.849   4.724   9.581 -0.0099 -0.4739 -0.0409
  967MOL0     C27533   4.716   4.801   9.532 -0.5071  1.2749 -0.8083
  967MOL0     C27534   4.599   4.773   9.623  0.3396  0.2887  0.1128
  967MOL0     C27535   4.461   4.821   9.566 -0.2853 -0.1706 -0.3137
  967MOL0     O27536   4.361   4.780   9.665 -0.0369 -0.1928 -0.1921
  967MOL0     C27537   4.229   4.799   9.639 -0.2498  0.1550  0.0474
  967MOL0     C27538   4.185   4.894   9.546  0.4019  0.2970  0.0347
  967MOL0     C27539   4.047   4.926   9.545 -0.1479  0.2397  0.6798
  967MOL0     C27540   3.951   4.861   9.620  0.4262  0.1618 -0.4047
  967MOL0     C27541   3.803   4.873   9.604  0.3478  0.2262  0.2717
  967MOL0     O27542   3.770   4.973   9.518 -0.0596 -0.6670 -1.0698
  967MOL0     C27543   3.642   5.031   9.534 -0.6326 -0.2919 -0.1386
  967MOL0     C27544   3.595   5.082   9.658 -0.1684 -0.1393  0.8281
  967MOL0     C27545   3.463   5.128   9.658  0.0037 -0.4387 -0.1207
  967MOL0     C27546   3.377   5.126   9.552 -0.2384  0.1104  0.1314
  967MOL0     O27547   3.256   5.190   9.583 -0.9087 -0.1603 -1.0347
  967MOL0     C27548   3.140   5.166   9.505  1.4380  0.7639  0.4745
  967MOL0     C27549   3.078   5.038   9.549  0.0391 -0.9116 -0.1350
  967MOL0     C27550   2.944   5.007   9.474 -0.7884 -0.0475  0.1842
  967MOL0     C27551   2.892   4.879   9.541 -0.1418  0.1653 -0.5440
  967MOL0     C27552   2.756   4.850   9.480  0.5553  0.3597  0.2458
  967MOL0     C27553   2.700   4.704   9.517 -0.4478 -0.3874 -0.3955
  967MOL0     C27554   2.704   4.667   9.667 -0.2253  0.2917  0.3864
  967MOL0     C27555   2.627   4.754   9.764 -0.0767  0.0757  0.1073
  967MOL0    Cl27556   2.456   4.765   9.737  0.0603 -0.2404  0.3811
  967MOL0     C27557   3.427   5.086   9.422 -0.1368  0.0380  0.2977
  967MOL0     C27558   3.558   5.036   9.420 -0.3773  0.6278 -0.0597
  967MOL0     O27559   3.726   4.812   9.678  0.1423 -0.4313  0.5467
  967MOL0     C27560   3.996   4.759   9.709 -0.0913  0.4917  0.1626
  967MOL0     C27561   4.136   4.737   9.723 -0.3331  0.2943 -0.6502
  967MOL0     N27562   5.040   4.891   9.575 -0.3248 -0.6078  0.4168
  967MOL0     N27563   5.130   4.920   9.491 -0.1206 -0.2556  0.0600
  967MOL0     C27564   6.014   4.114   9.214  0.1740  0.4453  0.5499
  967MOL0     C27565   6.158   4.103   9.229  0.0338 -0.3564 -0.2007
  967MOL0     C27566   6.540   3.877   9.385  0.7954  0.3482  0.2592
  967MOL0     C27567   6.610   3.985   9.337  0.4512 -0.3894  0.2612
  967MOL0     C27568   6.753   3.968   9.316 -0.3773 -0.4526  0.1889
  967MOL0     C27569   6.815   3.849   9.334  0.1628  0.5145  0.0792
  967MOL0     O27570   6.952   3.827   9.313 -0.2305  0.5952  0.2291
  967MOL0     C27571   7.035   3.941   9.281  0.2718 -0.0928  0.0000
  967MOL0     C27572   7.190   3.928   9.307 -0.8298 -0.8149 -0.5080
  967MOL0     C27573   7.220   3.913   9.461 -1.2810  0.5326  0.9161
  967MOL0     C27574   7.363   3.843   9.492  0.1375 -0.6693  0.4149
  967MOL0     C27575   7.467   3.938   9.460 -0.5531 -0.1815 -0.0051
  967MOL0     C27576   7.555   4.020   9.447  0.4775  0.8685 -0.0145
  967MOL0     C27577   6.743   3.740   9.389  0.3908 -0.2518 -0.4599
  967MOL0     C27578   6.606   3.748   9.404  0.7217 -0.5996 -0.2191
  967MOL0     H27579   6.150   3.924   9.519 -2.5416 -1.4732  1.2102
  967MOL0     H27580   5.904   3.934   9.477 -0.8006 -1.6508 -0.5148
  967MOL0     H27581   5.776   4.150   9.485  0.4020 -0.0642 -0.3011
  967MOL0     H27582   5.686   3.996   9.440  0.0745 -1.9130 -4.7966
  967MOL0     H27583   5.519   4.172   9.473  0.1841  1.9698 -0.0829
  967MOL0     H27584   5.524   4.165   9.297 -0.8656  0.9452  0.8328
  967MOL0     H27585   5.718   4.344   9.303  0.0967 -0.6799 -0.5657
  967MOL0     H27586   5.667   4.371   9.471 -2.2864  2.7918  0.1208
  967MOL0     H27587   5.470   4.380   9.238 -1.5167  0.0406  0.6408
  967MOL0     H27588   5.422   4.400   9.402  1.1988 -1.0347  1.1073
  967MOL0     H27589   5.636   4.580   9.252 -2.0687  0.9436 -1.5857
  967MOL0     H27590   5.576   4.605   9.417 -3.2628  4.2684 -0.0846
  967MOL0     H27591   5.408   4.569   9.180  1.5129 -0.0502 -1.0261
  967MOL0     H27592   5.460   4.730   9.197 -1.2172 -1.2042 -1.6987
  967MOL0     H27593   5.267   4.601   9.380  1.5781 -0.2241  1.7864
  967MOL0     H27594   5.374   4.739   9.432 -0.2720 -1.4546  0.6862
  967MOL0     H27595   5.196   4.792   9.195  1.2456 -2.1727 -0.0262
  967MOL0     H27596   5.300   4.894   9.304 -0.5405  1.8423 -2.6315
  967MOL0     H27597   4.985   4.681   9.324 -0.8073  0.1168 -0.3049
  967MOL0     H27598   4.862   4.738   9.689 -1.0899 -0.9796  0.1771
  967MOL0     H27599   4.846   4.616   9.565 -1.4883 -0.3448 -0.8771
  967MOL0     H27600   4.696   4.768   9.430  0.7350  0.2867 -0.7522
  967MOL0     H27601   4.739   4.907   9.541  1.3179  0.9380 -1.1983
  967MOL0     H27602   4.599   4.666   9.645  1.7172 -0.0777 -1.5119
  967MOL0     H27603   4.621   4.825   9.717  3.3157 -0.2655 -0.1896
  967MOL0     H27604   4.441   4.758   9.478 -0.7821 -1.0921  0.4421
  967MOL0     H27605   4.464   4.928   9.545 -0.1763 -0.5196 -2.3475
  967MOL0     H27606   4.255   4.950   9.484  2.3409 -0.7313  1.1826
  967MOL0     H27607   4.009   4.983   9.461 -2.0358 -1.3449  0.3934
  967MOL0     H27608   3.662   5.074   9.742  0.7579  0.4688  0.1729
  967MOL0     H27609   3.431   5.172   9.752  0.9280 -0.0504  0.0252
  967MOL0     H27610   3.157   5.161   9.397  1.0550  0.1551  0.4369
  967MOL0     H27611   3.072   5.250   9.515 -2.2334 -2.1059  2.1285
  967MOL0     H27612   3.058   5.050   9.656  3.4135  1.3838  0.4092
  967MOL0     H27613   3.150   4.958   9.528  0.1628 -0.3580 -1.9554
  967MOL0     H27614   2.970   4.993   9.368 -2.3793  0.9852 -0.3740
  967MOL0     H27615   2.866   5.083   9.465 -1.3472 -0.6478 -0.1305
  967MOL0     H27616   2.947   4.785   9.525 -2.0144 -1.6593  2.6870
  967MOL0     H27617   2.892   4.888   9.650  0.8908  1.9697 -0.6416
  967MOL0     H27618   2.766   4.850   9.371  1.9033 -2.0015  0.2907
  967MOL0     H27619   2.679   4.922   9.509  0.1768  0.8564 -1.8471
  967MOL0     H27620   2.759   4.634   9.458  0.7916  0.3158 -0.0260
  967MOL0     H27621   2.601   4.686   9.475 -2.1585  1.6148  2.3954
  967MOL0     H27622   2.661   4.567   9.680 -1.8740  1.2278  2.8602
  967MOL0     H27623   2.810   4.666   9.692  0.7551 -2.6658 -3.0014
  967MOL0     H27624   2.675   4.852   9.752  3.1956 -1.5565 -1.7265
  967MOL0     H27625   2.641   4.726   9.868  1.8644 -0.0481 -0.1402
  967MOL0     H27626   3.364   5.087   9.334  0.8661 -1.0513 -0.4617
  967MOL0     H27627   3.600   4.993   9.329 -0.6993  2.8589 -1.3239
  967MOL0     H27628   3.924   4.698   9.762  0.6729  0.8972  1.7259
  967MOL0     H27629   4.163   4.655   9.789 -2.1406  0.5612  0.4945
  967MOL0     H27630   5.982   4.165   9.123  2.1569  0.3143 -0.2806
  967MOL0     H27631   6.245   4.141   9.176  1.1835 -0.1781  1.6943
  967MOL0     H27632   6.560   4.081   9.333  1.0728 -0.0269  0.9290
  967MOL0     H27633   6.806   4.058   9.287  0.6781 -0.0377  3.0868
  967MOL0     H27634   7.003   4.030   9.336  1.6971  0.9246 -0.7537
  967MOL0     H27635   7.018   3.963   9.175  1.1378 -0.0829 -0.1444
  967MOL0     H27636   7.239   3.848   9.250  0.5108 -1.0243  0.8592
  967MOL0     H27637   7.239   4.018   9.267 -0.5985  0.2516  1.9798
  967MOL0     H27638   7.144   3.844   9.500 -1.2207 -0.8084 -1.1671
  967MOL0     H27639   7.216   4.012   9.507  0.6993  1.9516 -1.6900
  967MOL0     H27640   7.367   3.820   9.599  1.6678 -2.0654  0.1015
  967MOL0     H27641   7.369   3.749   9.436 -0.4794  0.4487 -1.6236
  967MOL0     H27642   7.636   4.091   9.450  2.0294 -0.8407 -0.2277
  967MOL0     H27643   6.796   3.649   9.417  0.0888 -0.5128 -0.7354
  967MOL0     H27644   6.559   3.656   9.437 -0.8464 -0.7650 -2.6700
  968MOL0     O27645   0.848   4.349   1.202  0.2790 -0.5826  0.3871
  968MOL0     C27646   0.883   4.384   1.317 -0.6843  0.9708  0.8897
  968MOL0     O27647   0.794   4.415   1.420 -0.1036 -0.1103  0.3101
  968MOL0     C27648   0.658   4.396   1.405 -1.3145 -0.0334 -0.1020
  968MOL0     C27649   0.611   4.271   1.362  0.8871 -0.0950  0.2981
  968MOL0     C27650   0.470   4.259   1.330 -0.5340  0.5745  0.0965
  968MOL0     C27651   0.372   4.356   1.355 -0.0899  0.2495  0.8835
  968MOL0     O27652   0.244   4.331   1.325  0.2848 -0.3407 -0.2513
  968MOL0     C27653   0.161   4.437   1.278  0.3229 -0.6528  0.8070
  968MOL0     C27654   0.062   4.389   1.165 -0.2259 -0.6722 -0.1891
  968MOL0     C27655   0.016   4.509   1.088  0.0733 -0.8200  0.5142
  968MOL0     C27656  -0.109   4.565   1.144  0.6168 -0.8700 -0.2103
  968MOL0     C27657  -0.160   4.688   1.071 -0.4461 -1.0301 -0.2285
  968MOL0     C27658  -0.299   4.739   1.131 -0.0262  0.0667  0.4257
  968MOL0     C27659  -0.365   4.842   1.045  1.0523 -0.2936  0.3482
  968MOL0     C27660  -0.485   4.898   1.129  0.1755  0.1226  0.9300
  968MOL0     N27661  -0.605   4.828   1.087  0.2374 -0.7368 -0.0639
  968MOL0     C27662  -0.679   4.732   1.161 -0.6212 -0.1670  0.1640
  968MOL0     C27663  -0.796   4.721   1.089 -0.7267  0.3132  0.2808
  968MOL0     C27664  -0.905   4.622   1.127 -0.5808 -0.4355  0.1626
  968MOL0     C27665  -1.042   4.679   1.148  0.0403  0.1567 -0.2568
  968MOL0     C27666  -1.102   4.722   1.018 -0.0215 -0.6424 -0.1283
  968MOL0     C27667  -1.246   4.758   1.031  0.2605  0.0402 -0.3246
  968MOL0     O27668  -1.320   4.642   1.065 -0.2093  0.6314  0.0749
  968MOL0     C27669  -1.442   4.659   1.125 -0.5677 -0.2815  0.7313
  968MOL0     C27670  -1.510   4.780   1.125  0.2341 -0.3529  1.2456
  968MOL0     C27671  -1.633   4.788   1.194 -0.3136  0.4739  1.2224
  968MOL0     C27672  -1.698   4.676   1.258  0.1500 -0.0260  0.1179
  968MOL0     C27673  -1.832   4.679   1.322  0.2616 -0.3318  0.3227
  968MOL0     O27674  -1.886   4.567   1.377  0.0074 -0.4130 -0.1059
  968MOL0     C27675  -2.002   4.578   1.444  0.3758  0.2825 -1.5318
  968MOL0     C27676  -2.021   4.667   1.556  0.3266 -0.5523  0.2471
  968MOL0     C27677  -2.146   4.670   1.621  0.6919  0.1390  0.0743
  968MOL0     C27678  -2.247   4.575   1.594 -0.5168  0.0295 -0.1799
  968MOL0     O27679  -2.364   4.567   1.663  0.3004 -0.5671 -0.3862
  968MOL0     C27680  -2.433   4.683   1.703  0.7756 -0.2263 -0.8294
  968MOL0     C27681  -2.585   4.674   1.731  0.6469 -0.0794  0.8402
  968MOL0     C27682  -2.599   4.581   1.858  0.1187 -0.0470  0.0128
  968MOL0     C27683  -2.739   4.587   1.913  0.2044 -0.6156  0.3851
  968MOL0     C27684  -2.751   4.509   2.043  0.4056 -0.2846 -0.6042
  968MOL0     C27685  -2.895   4.495   2.097 -0.0651  0.0817  0.2582
  968MOL0     C27686  -2.967   4.625   2.131  0.6654 -0.3537 -0.1043
  968MOL0     C27687  -3.086   4.622   2.221  0.4390  0.0341  0.3610
  968MOL0    Cl27688  -3.117   4.794   2.290 -0.2435  0.0549 -0.2820
  968MOL0     C27689  -2.217   4.483   1.491  0.8456  0.8818  0.0817
  968MOL0     C27690  -2.101   4.484   1.421 -0.1995  0.2412 -0.1371
  968MOL0     O27691  -1.882   4.785   1.320 -0.2224 -0.3216  0.1334
  968MOL0     C27692  -1.631   4.551   1.250  0.3898 -0.0728 -0.0285
  968MOL0     C27693  -1.504   4.549   1.183  1.1460 -0.3685  0.1211
  968MOL0     N27694  -0.798   4.809   0.983 -0.4467 -0.5199 -0.3241
  968MOL0     N27695  -0.681   4.870   0.981 -0.2528 -0.0860 -0.0827
  968MOL0     C27696   0.427   4.476   1.413  0.3911 -0.7068 -0.4093
  968MOL0     C27697   0.567   4.496   1.435  0.2772 -0.3034 -0.4197
  968MOL0     C27698   1.029   4.399   1.354 -0.9853 -0.3577 -0.6927
  968MOL0     C27699   1.133   4.349   1.281 -0.0036 -0.0041 -0.5725
  968MOL0     C27700   1.266   4.340   1.324  0.5183 -0.0174 -0.4539
  968MOL0     C27701   1.304   4.409   1.438  0.5057 -1.2957 -0.0471
  968MOL0     O27702   1.437   4.401   1.469 -0.1939 -0.1496 -0.6573
  968MOL0     C27703   1.490   4.480   1.566  0.0378 -0.6781 -0.2359
  968MOL0     C27704   1.635   4.434   1.595 -0.3566 -0.4376  0.1044
  968MOL0     C27705   1.725   4.440   1.470  0.0078  0.7129 -0.0964
  968MOL0     C27706   1.866   4.407   1.515 -0.3063 -0.1520  0.2365
  968MOL0     C27707   1.949   4.510   1.564  0.2394 -0.0390  0.2103
  968MOL0     C27708   2.003   4.605   1.605  0.8759  0.0232  0.3183
  968MOL0     C27709   1.202   4.473   1.513 -0.5079  0.4668  0.4256
  968MOL0     C27710   1.069   4.467   1.478 -0.4100 -0.8168  0.2706
  968MOL0     H27711   0.679   4.192   1.332 -0.5638 -0.0085 -3.9812
  968MOL0     H27712   0.440   4.168   1.278  2.3237  0.6966 -1.9729
  968MOL0     H27713   0.220   4.516   1.231 -0.5968 -0.3995  0.0508
  968MOL0     H27714   0.112   4.486   1.363 -0.9870  1.0718 -0.8649
  968MOL0     H27715  -0.016   4.328   1.212 -0.5473 -0.7382 -0.7961
  968MOL0     H27716   0.115   4.323   1.095  3.5470  1.1029  0.7745
  968MOL0     H27717  -0.016   4.482   0.987 -2.7607  3.1417  0.1377
  968MOL0     H27718   0.096   4.583   1.081  0.6029 -1.4406 -0.2271
  968MOL0     H27719  -0.189   4.493   1.123 -0.1904  0.6626 -2.8085
  968MOL0     H27720  -0.098   4.587   1.251  0.2389  0.9632 -0.5067
  968MOL0     H27721  -0.161   4.657   0.966  2.9366  2.0730 -1.3942
  968MOL0     H27722  -0.083   4.764   1.084  0.2482 -1.5043 -1.3887
  968MOL0     H27723  -0.273   4.781   1.229  0.6887  3.0797 -0.9540
  968MOL0     H27724  -0.377   4.662   1.137  0.7324 -0.6410  1.8103
  968MOL0     H27725  -0.296   4.924   1.021  0.7117 -0.0241  0.2894
  968MOL0     H27726  -0.399   4.800   0.950 -2.2051  0.4646  1.0732
  968MOL0     H27727  -0.493   5.004   1.104 -0.0976 -0.1693 -0.2923
  968MOL0     H27728  -0.483   4.884   1.237  1.6742 -1.1557  0.7750
  968MOL0     H27729  -0.642   4.673   1.245  0.9722 -1.6587 -1.4903
  968MOL0     H27730  -0.885   4.572   1.222  0.1388  0.3825  0.4606
  968MOL0     H27731  -0.921   4.553   1.043 -2.2107  1.8125 -1.5166
  968MOL0     H27732  -1.045   4.760   1.223 -2.2188 -1.9950  2.1840
  968MOL0     H27733  -1.091   4.599   1.204  0.9622 -0.4628 -0.3132
  968MOL0     H27734  -1.065   4.815   0.976 -0.3114 -1.0377 -1.2819
  968MOL0     H27735  -1.102   4.643   0.942 -2.5748 -2.0252  1.1674
  968MOL0     H27736  -1.287   4.801   0.939  0.4140 -4.0560 -2.5280
  968MOL0     H27737  -1.248   4.827   1.116  0.2344  1.2184 -1.2531
  968MOL0     H27738  -1.481   4.861   1.059 -1.4838 -1.0963 -0.5349
  968MOL0     H27739  -1.681   4.884   1.205 -1.9589 -0.1065 -0.3617
  968MOL0     H27740  -1.952   4.739   1.597  1.2170 -0.6096 -1.0780
  968MOL0     H27741  -2.160   4.739   1.703 -0.7967 -0.4039  0.3169
  968MOL0     H27742  -2.423   4.767   1.634 -2.0703  0.3141 -0.7169
  968MOL0     H27743  -2.376   4.701   1.794  1.1354 -1.2211 -0.8445
  968MOL0     H27744  -2.639   4.630   1.646 -0.9534 -1.5641  2.5442
  968MOL0     H27745  -2.625   4.775   1.746 -3.3479 -1.6057  1.7744
  968MOL0     H27746  -2.528   4.609   1.937  2.0884 -0.7933 -1.4165
  968MOL0     H27747  -2.568   4.479   1.832  0.3643 -0.3421  1.3491
  968MOL0     H27748  -2.762   4.693   1.928 -0.2653 -0.6105 -0.3135
  968MOL0     H27749  -2.807   4.542   1.840 -1.0844 -1.0135  1.7917
  968MOL0     H27750  -2.694   4.558   2.123  1.8243 -1.0673 -1.1074
  968MOL0     H27751  -2.708   4.409   2.034  0.7085 -0.3453  1.1616
  968MOL0     H27752  -2.891   4.438   2.190 -0.8468 -1.1973 -0.4703
  968MOL0     H27753  -2.951   4.426   2.033  1.2920 -1.1413  0.3488
  968MOL0     H27754  -2.892   4.691   2.176 -0.1767  0.6152 -0.0730
  968MOL0     H27755  -3.000   4.675   2.040  1.2769  1.3475  0.5609
  968MOL0     H27756  -3.073   4.555   2.307  1.6242  1.3582  1.2459
  968MOL0     H27757  -3.172   4.586   2.163  2.0853 -2.1140 -0.9082
  968MOL0     H27758  -2.293   4.407   1.474 -0.1879  1.7555  0.6526
  968MOL0     H27759  -2.087   4.404   1.349 -1.6375 -0.3158  0.1650
  968MOL0     H27760  -1.661   4.457   1.293 -0.6095  1.3522  2.5979
  968MOL0     H27761  -1.455   4.454   1.166  3.0481  0.5216  0.4189
  968MOL0     H27762   0.365   4.560   1.440  0.1534 -1.3363  1.0968
  968MOL0     H27763   0.608   4.589   1.473  1.3410 -0.4890 -1.0909
  968MOL0     H27764   1.110   4.293   1.191 -0.0893  0.4455 -0.8286
  968MOL0     H27765   1.345   4.288   1.270  0.4125  0.3455 -0.9667
  968MOL0     H27766   1.435   4.468   1.659  0.7847  0.1900  0.3394
  968MOL0     H27767   1.488   4.587   1.539  0.1141 -0.7051 -0.3492
  968MOL0     H27768   1.670   4.506   1.669 -2.3309  1.8037 -0.9722
  968MOL0     H27769   1.626   4.335   1.639 -2.0604  0.8895  3.0548
  968MOL0     H27770   1.732   4.542   1.430  0.2199  1.2678  1.3005
  968MOL0     H27771   1.691   4.366   1.397  0.2908  1.3663 -0.9153
  968MOL0     H27772   1.846   4.336   1.596 -3.0090  1.0945  0.7845
  968MOL0     H27773   1.912   4.348   1.435  0.3849 -1.5088  1.5708
  968MOL0     H27774   2.061   4.694   1.620 -2.0925  2.0616  0.5776
  968MOL0     H27775   1.230   4.511   1.611 -2.2540 -0.3795  1.3115
  968MOL0     H27776   1.000   4.490   1.558  1.1815 -1.2884  1.8591
  969MOL0     O27777   9.293  10.465  10.329  0.2495  0.4316  0.2756
  969MOL0     C27778   9.204  10.535  10.370 -0.4887 -0.0353 -0.2499
  969MOL0     O27779   9.086  10.549  10.307  0.0697  0.5604  0.4242
  969MOL0     C27780   9.046  10.485  10.191 -0.6332 -0.9314 -0.3324
  969MOL0     C27781   9.117  10.408  10.099 -0.2551  0.3315 -0.3976
  969MOL0     C27782   9.043  10.358   9.983  0.0812 -0.3771 -0.7918
  969MOL0     C27783   8.907  10.385   9.961 -0.3172 -0.6329 -0.6042
  969MOL0     O27784   8.850  10.339   9.852 -0.1070 -0.0156  0.3702
  969MOL0     C27785   8.710  10.366   9.831 -0.3193  0.2063 -0.0552
  969MOL0     C27786   8.660  10.307   9.704  0.0314  0.0855 -0.1011
  969MOL0     C27787   8.524  10.366   9.660  0.1433  0.0533 -0.6118
  969MOL0     C27788   8.405  10.356   9.767 -0.4746  0.1180  0.4303
  969MOL0     C27789   8.261  10.339   9.699 -0.4276  0.8761 -0.8834
  969MOL0     C27790   8.244  10.446   9.598  0.4588  0.6388  0.0185
  969MOL0     C27791   8.096  10.458   9.569  0.8608  0.4959 -0.2691
  969MOL0     C27792   8.072  10.537   9.437  0.7484 -0.1049  0.6437
  969MOL0     N27793   7.934  10.591   9.431  0.7952 -0.5020 -0.1738
  969MOL0     C27794   7.889  10.665   9.323  0.0624 -0.7940  0.7370
  969MOL0     C27795   7.753  10.663   9.332  0.3935 -0.2182 -0.2059
  969MOL0     C27796   7.669  10.695   9.206 -0.3090  0.0052 -0.7603
  969MOL0     C27797   7.529  10.739   9.236  0.0914 -0.3002 -0.2715
  969MOL0     C27798   7.449  10.762   9.098 -0.4388  0.6988 -0.1319
  969MOL0     C27799   7.311  10.839   9.115 -0.2050 -0.2153  0.0759
  969MOL0     O27800   7.228  10.823   9.002  0.0524  0.0534  0.6816
  969MOL0     C27801   7.088  10.859   9.011  0.1067  0.8752 -0.3804
  969MOL0     C27802   7.047  10.976   9.071  0.4916 -0.6909  0.2902
  969MOL0     C27803   6.919  11.032   9.057  0.1697 -0.2708  0.1751
  969MOL0     C27804   6.834  10.971   8.968 -0.2246 -0.0830 -0.4801
  969MOL0     C27805   6.708  11.028   8.938  0.0935  0.3342  0.6954
  969MOL0     O27806   6.633  10.952   8.861  0.2633  0.1618 -0.2144
  969MOL0     C27807   6.496  10.980   8.852  0.1581  0.9546  0.1043
  969MOL0     C27808   6.414  11.056   8.939 -0.5495  0.2160 -0.5429
  969MOL0     C27809   6.284  11.098   8.909 -0.2223 -0.2089 -0.1054
  969MOL0     C27810   6.226  11.055   8.780  0.0964 -1.0722 -0.1147
  969MOL0     O27811   6.096  11.080   8.742  0.3030  0.2700 -1.0528
  969MOL0     C27812   6.002  11.078   8.847 -0.8366 -0.1441  0.5467
  969MOL0     C27813   5.869  11.022   8.806 -0.5220 -0.0992  0.0432
  969MOL0     C27814   5.787  10.985   8.926  0.0569  0.5175  0.5909
  969MOL0     C27815   5.637  10.975   8.912  0.8919 -0.2769  0.3425
  969MOL0     C27816   5.578  10.893   9.028  0.0852 -0.2475  0.7989
  969MOL0     C27817   5.429  10.922   9.040  0.2714  0.6565  0.1612
  969MOL0     C27818   5.372  10.842   9.156  0.4818  0.4675 -0.1551
  969MOL0     C27819   5.222  10.869   9.153  0.8171 -0.0492  0.3364
  969MOL0    Cl27820   5.140  10.767   9.039  0.4835 -0.1317 -0.1145
  969MOL0     C27821   6.311  10.986   8.693 -0.0835 -0.9866 -0.6103
  969MOL0     C27822   6.437  10.943   8.729 -0.4999  0.0031  0.4105
  969MOL0     O27823   6.693  11.148   8.962  0.3168 -0.3431  0.1363
  969MOL0     C27824   6.869  10.843   8.909  0.1474 -0.4351 -0.1015
  969MOL0     C27825   6.996  10.796   8.931 -0.4403  0.9935  0.6102
  969MOL0     N27826   7.721  10.595   9.451 -0.1969 -0.2333  0.6050
  969MOL0     N27827   7.829  10.552   9.515 -0.1169  0.4389 -0.1873
  969MOL0     C27828   8.844  10.454  10.058 -0.3165 -0.3614 -0.4799
  969MOL0     C27829   8.913  10.511  10.167  0.2958 -0.1516  0.5006
  969MOL0     C27830   9.231  10.623  10.484 -0.4194 -0.1117 -0.5343
  969MOL0     C27831   9.125  10.694  10.545  0.0171 -0.8325 -1.2276
  969MOL0     C27832   9.154  10.788  10.651 -0.5205  0.1286 -0.3541
  969MOL0     C27833   9.284  10.800  10.698  0.2616  0.1152 -0.2706
  969MOL0     O27834   9.311  10.894  10.799  0.4075  0.9970  0.2591
  969MOL0     C27835   9.438  10.956  10.791 -1.1247 -0.2104  0.0432
  969MOL0     C27836   9.419  11.108  10.829  0.8367 -1.0326 -0.9074
  969MOL0     C27837   9.541  11.180  10.873 -0.3211  0.3132  0.4226
  969MOL0     C27838   9.528  11.323  10.916  0.8515  0.0704 -0.4336
  969MOL0     C27839   9.633  11.359  11.003 -1.6675 -0.0590 -0.8327
  969MOL0     C27840   9.711  11.401  11.090 -0.1783  0.1215  0.2741
  969MOL0     C27841   9.387  10.721  10.643 -0.1835 -0.0486  0.3662
  969MOL0     C27842   9.360  10.637  10.529  0.0131 -0.3046 -0.2154
  969MOL0     H27843   9.223  10.388  10.110 -0.1813 -0.5645 -2.3371
  969MOL0     H27844   9.089  10.298   9.905  0.6316 -0.4602 -0.4091
  969MOL0     H27845   8.674  10.468   9.847 -1.0815 -0.1778  0.7203
  969MOL0     H27846   8.669  10.297   9.905 -0.3605 -0.2956 -0.5426
  969MOL0     H27847   8.655  10.198   9.710  1.8218 -0.0126  0.0832
  969MOL0     H27848   8.731  10.338   9.626  0.6661  0.3224  0.5614
  969MOL0     H27849   8.494  10.296   9.581 -0.9043 -2.5685  1.9174
  969MOL0     H27850   8.521  10.466   9.617 -1.3545  0.6270  0.7570
  969MOL0     H27851   8.421  10.261   9.819  3.5082  1.4964  2.1680
  969MOL0     H27852   8.419  10.443   9.833 -1.3438  1.6259 -1.2806
  969MOL0     H27853   8.195  10.332   9.786  1.0792 -1.8165  0.1874
  969MOL0     H27854   8.249  10.246   9.642  0.2527 -0.5664  1.1969
  969MOL0     H27855   8.291  10.411   9.506 -1.6279  1.2239 -1.3372
  969MOL0     H27856   8.293  10.541   9.619  0.6723  0.9320 -1.6811
  969MOL0     H27857   8.050  10.360   9.553 -0.1007  0.7860  0.5937
  969MOL0     H27858   8.057  10.514   9.654 -1.7383  0.7028 -1.4939
  969MOL0     H27859   8.080  10.476   9.347 -0.5750 -1.6549  1.5110
  969MOL0     H27860   8.143  10.619   9.426  1.4698 -0.7968  0.0708
  969MOL0     H27861   7.948  10.705   9.241  0.7350 -5.4181 -1.3979
  969MOL0     H27862   7.671  10.610   9.137 -0.5388  0.7918 -1.7604
  969MOL0     H27863   7.723  10.775   9.154  0.0873  0.1734 -0.1078
  969MOL0     H27864   7.531  10.835   9.288  3.8081 -0.0996 -0.5143
  969MOL0     H27865   7.472  10.664   9.292 -1.1966  2.5803  2.5534
  969MOL0     H27866   7.518  10.813   9.031  0.6864 -1.0055 -0.3225
  969MOL0     H27867   7.427  10.664   9.055 -0.1097  0.7728 -0.4621
  969MOL0     H27868   7.335  10.942   9.143 -0.6219 -0.1259  0.1164
  969MOL0     H27869   7.263  10.800   9.206 -2.9403  1.9153 -0.3262
  969MOL0     H27870   7.129  11.030   9.118 -1.1351  1.4344  0.8105
  969MOL0     H27871   6.888  11.119   9.115  0.1160 -1.0281  1.3000
  969MOL0     H27872   6.450  11.082   9.038 -3.3730 -0.6957  0.8443
  969MOL0     H27873   6.226  11.160   8.976 -1.0432  0.0652 -1.0447
  969MOL0     H27874   6.004  11.173   8.902 -0.6380 -0.3106  0.8289
  969MOL0     H27875   6.045  11.009   8.921 -1.0730 -0.9889 -0.0924
  969MOL0     H27876   5.877  10.947   8.726 -0.6645 -0.5502  0.4489
  969MOL0     H27877   5.812  11.104   8.762 -0.1877 -0.7225 -1.6668
  969MOL0     H27878   5.803  11.065   8.998 -0.5908 -1.0279  2.5427
  969MOL0     H27879   5.831  10.893   8.966  0.4142  0.2852 -0.3192
  969MOL0     H27880   5.582  11.069   8.917 -0.7337 -1.2518  2.2478
  969MOL0     H27881   5.621  10.929   8.814  2.2961  0.5364 -0.3052
  969MOL0     H27882   5.637  10.906   9.119 -0.5998  0.5104  1.1442
  969MOL0     H27883   5.590  10.786   9.009 -1.2069 -0.3929  0.7203
  969MOL0     H27884   5.371  10.903   8.949 -1.1652 -1.7665  1.4624
  969MOL0     H27885   5.418  11.026   9.070 -2.6506  0.0988  1.4559
  969MOL0     H27886   5.381  10.733   9.142  1.7879  0.6432 -0.7766
  969MOL0     H27887   5.429  10.868   9.245  1.1806 -1.7643  0.1264
  969MOL0     H27888   5.200  10.975   9.140  0.2503 -0.2524 -0.4561
  969MOL0     H27889   5.179  10.838   9.248  0.6977 -0.1350  0.2539
  969MOL0     H27890   6.276  10.951   8.596  1.9446 -1.2653 -1.2918
  969MOL0     H27891   6.496  10.876   8.667 -0.2639 -1.8785  2.5357
  969MOL0     H27892   6.798  10.797   8.841 -0.4787  1.7542 -1.0013
  969MOL0     H27893   7.030  10.703   8.887 -1.7384  0.0567  1.5105
  969MOL0     H27894   8.736  10.462  10.047 -0.2935  1.2843  0.1713
  969MOL0     H27895   8.858  10.577  10.234 -0.8298 -2.0608  1.5183
  969MOL0     H27896   9.026  10.695  10.501 -0.4100  1.4225 -0.3492
  969MOL0     H27897   9.076  10.859  10.676  0.5132  1.6980 -1.4413
  969MOL0     H27898   9.488  10.959  10.694  0.1665  1.1315  0.7010
  969MOL0     H27899   9.502  10.900  10.860 -0.4869 -1.9129 -1.8237
  969MOL0     H27900   9.371  11.169  10.752  0.0110  0.6592  0.8621
  969MOL0     H27901   9.340  11.105  10.905  0.9917  1.0979 -0.6176
  969MOL0     H27902   9.605  11.174  10.785 -1.1058 -0.1542 -0.1302
  969MOL0     H27903   9.593  11.120  10.948 -2.8893  0.3696  2.4105
  969MOL0     H27904   9.531  11.382  10.824  0.4467 -1.2569 -1.3302
  969MOL0     H27905   9.427  11.341  10.954 -0.5522 -0.6422 -3.5210
  969MOL0     H27906   9.778  11.427  11.169 -0.7184  0.2364  0.7056
  969MOL0     H27907   9.491  10.718  10.675 -0.0150  1.3126  0.0052
  969MOL0     H27908   9.448  10.591  10.486  0.1481 -0.6264  0.3909
  970MOL0     O27909   6.729   9.735   9.455  0.1441 -0.0578  0.5885
  970MOL0     C27910   6.752   9.812   9.357  0.1338  1.3107 -0.3653
  970MOL0     O27911   6.670   9.837   9.255  0.3461  0.0369 -0.0038
  970MOL0     C27912   6.534   9.821   9.261  0.1601  0.6606  0.1777
  970MOL0     C27913   6.461   9.815   9.383  0.3884  0.4688 -0.4960
  970MOL0     C27914   6.320   9.815   9.389  0.1830  0.5222 -0.2137
  970MOL0     C27915   6.256   9.805   9.265 -0.4522 -0.6316 -0.2794
  970MOL0     O27916   6.124   9.798   9.266 -0.0146  0.1444 -0.0448
  970MOL0     C27917   6.060   9.696   9.184 -0.5855 -0.0888  1.0923
  970MOL0     C27918   5.940   9.661   9.268 -0.5990  0.2680  0.4260
  970MOL0     C27919   5.847   9.549   9.202  0.2589 -0.4143  0.9403
  970MOL0     C27920   5.729   9.512   9.301 -0.2733  0.5807  0.1150
  970MOL0     C27921   5.627   9.423   9.227 -0.3150 -0.2851  0.1886
  970MOL0     C27922   5.531   9.363   9.329 -0.5289  0.7679 -0.8203
  970MOL0     C27923   5.431   9.263   9.268  0.9611 -0.0647  0.1127
  970MOL0     C27924   5.332   9.343   9.182 -0.7683  0.1661  0.6811
  970MOL0     N27925   5.229   9.246   9.129 -0.2612  0.0503 -0.5793
  970MOL0     C27926   5.253   9.132   9.056 -0.7445 -0.0935 -0.2239
  970MOL0     C27927   5.125   9.085   9.034 -0.2153  0.0955 -0.5824
  970MOL0     C27928   5.095   8.972   8.937  0.2477  0.1002 -0.1238
  970MOL0     C27929   5.045   9.020   8.801 -0.4026  0.2881 -0.0065
  970MOL0     C27930   4.887   9.028   8.804 -0.5278  0.3498  0.3169
  970MOL0     C27931   4.819   9.045   8.667 -0.6990  1.1333 -0.0270
  970MOL0     O27932   4.734   8.931   8.634 -0.5412  0.9501 -0.2528
  970MOL0     C27933   4.611   8.933   8.693  0.0542 -0.0711  1.2629
  970MOL0     C27934   4.553   9.023   8.776 -0.0708  0.1829 -0.6700
  970MOL0     C27935   4.432   8.999   8.839 -0.3394 -0.1351 -0.4313
  970MOL0     C27936   4.368   8.877   8.811 -0.1572 -0.0334  0.6889
  970MOL0     C27937   4.240   8.848   8.876 -0.8580 -0.6244  0.2841
  970MOL0     O27938   4.192   8.719   8.877  0.0110 -0.1563  0.0375
  970MOL0     C27939   4.061   8.700   8.926  0.1797  0.1814 -0.5898
  970MOL0     C27940   4.028   8.639   9.046  0.6523  0.7913  0.3252
  970MOL0     C27941   3.894   8.606   9.071  0.0633  0.5598  0.0338
  970MOL0     C27942   3.791   8.640   8.986  0.4791  0.4082 -0.5783
  970MOL0     O27943   3.665   8.613   9.031  0.7893  0.1751 -0.2195
  970MOL0     C27944   3.574   8.594   8.919  0.0876  0.0034 -0.2707
  970MOL0     C27945   3.448   8.524   8.965  0.0039  0.3630 -0.1771
  970MOL0     C27946   3.472   8.386   9.033  0.2462  0.1565  0.0116
  970MOL0     C27947   3.343   8.311   9.057  0.3335  0.9525 -0.3852
  970MOL0     C27948   3.287   8.251   8.933 -0.1430 -0.6649  0.4989
  970MOL0     C27949   3.138   8.203   8.948  0.0831  0.8585 -0.7355
  970MOL0     C27950   3.126   8.097   9.067 -0.1704  0.0607  0.7826
  970MOL0     C27951   2.993   8.030   9.065  1.1653 -0.4135  0.2094
  970MOL0    Cl27952   2.952   7.892   9.173 -0.2109  0.0385  0.5423
  970MOL0     C27953   3.827   8.717   8.877  0.5592 -0.4513  0.0562
  970MOL0     C27954   3.957   8.743   8.845 -0.5120  0.8272  0.0821
  970MOL0     O27955   4.180   8.943   8.932 -0.7664  0.0545  0.2136
  970MOL0     C27956   4.422   8.790   8.724  0.3269  0.3729  0.3375
  970MOL0     C27957   4.537   8.818   8.659 -0.1128  0.1874  0.5354
  970MOL0     N27958   5.034   9.158   9.100 -0.1261 -0.7502 -0.2405
  970MOL0     N27959   5.093   9.261   9.155  0.3002 -0.0423  0.4012
  970MOL0     C27960   6.324   9.805   9.151  0.7493  0.2574  0.4927
  970MOL0     C27961   6.467   9.807   9.143  1.2841 -1.1325  0.4831
  970MOL0     C27962   6.893   9.851   9.335  0.0943  0.0369  0.1472
  970MOL0     C27963   7.001   9.797   9.414 -0.4169  0.1196  0.1941
  970MOL0     C27964   7.136   9.831   9.385 -0.9934 -0.4892  0.6126
  970MOL0     C27965   7.171   9.917   9.274 -0.3094  0.6069  0.1517
  970MOL0     O27966   7.299   9.948   9.234 -0.2602 -0.0852 -0.2516
  970MOL0     C27967   7.401   9.936   9.339  0.0286 -0.1394  0.0375
  970MOL0     C27968   7.533   9.986   9.277  0.0828 -0.4034  0.4288
  970MOL0     C27969   7.566   9.905   9.155  0.4939 -0.0724 -0.2699
  970MOL0     C27970   7.654   9.787   9.202 -0.2606  1.1403 -0.2770
  970MOL0     C27971   7.718   9.733   9.081  0.3695 -0.6391  0.8449
  970MOL0     C27972   7.757   9.681   8.976  0.1635  0.6661 -1.4629
  970MOL0     C27973   7.073   9.974   9.197 -0.2483  0.0768 -0.6494
  970MOL0     C27974   6.937   9.938   9.230  0.3042 -0.9302 -0.6736
  970MOL0     H27975   6.508   9.832   9.479 -0.5620 -0.4936  0.1581
  970MOL0     H27976   6.277   9.830   9.487  1.8834 -0.9795  0.8198
  970MOL0     H27977   6.129   9.612   9.179 -0.4453  0.0473  0.6995
  970MOL0     H27978   6.027   9.727   9.085  1.4474 -1.2673 -0.0064
  970MOL0     H27979   5.880   9.748   9.297  0.3619  0.9872  0.2683
  970MOL0     H27980   5.984   9.618   9.359 -0.6546 -1.1548 -0.1845
  970MOL0     H27981   5.915   9.465   9.186  0.8971 -0.1091  1.9460
  970MOL0     H27982   5.815   9.585   9.104 -3.6750  0.5236  2.3737
  970MOL0     H27983   5.774   9.462   9.387 -1.8855 -1.8552 -0.3838
  970MOL0     H27984   5.687   9.605   9.341  1.8231  1.5063  0.3139
  970MOL0     H27985   5.685   9.343   9.180  2.0397  0.7139  1.2325
  970MOL0     H27986   5.584   9.488   9.151  2.4346  0.7945 -0.5849
  970MOL0     H27987   5.476   9.439   9.385  1.0644  0.6754  0.9445
  970MOL0     H27988   5.585   9.304   9.403 -2.0266  1.8725  1.2233
  970MOL0     H27989   5.477   9.180   9.213  1.6050 -0.5152  1.2915
  970MOL0     H27990   5.395   9.215   9.360  1.4850  1.1164  0.9538
  970MOL0     H27991   5.385   9.386   9.096  0.8137  1.4453  2.2178
  970MOL0     H27992   5.289   9.426   9.238 -2.6638 -0.0426 -0.3629
  970MOL0     H27993   5.344   9.096   9.009  0.7387  4.3774 -1.2674
  970MOL0     H27994   5.023   8.899   8.976  1.2160 -0.1202  1.3055
  970MOL0     H27995   5.190   8.921   8.924  0.3319  0.2503 -0.0964
  970MOL0     H27996   5.081   8.957   8.719  0.9596  1.0458 -0.0218
  970MOL0     H27997   5.078   9.124   8.790 -1.2728  0.6732  0.8021
  970MOL0     H27998   4.854   8.939   8.859  2.1105  0.0148  1.5472
  970MOL0     H27999   4.856   9.107   8.873  1.4365  1.3930  0.0754
  970MOL0     H28000   4.895   9.037   8.589 -2.0217  3.3688 -1.6597
  970MOL0     H28001   4.768   9.141   8.653  0.1463  1.4923 -0.7836
  970MOL0     H28002   4.610   9.107   8.815 -0.3143  0.4882 -0.9667
  970MOL0     H28003   4.388   9.070   8.908 -1.7252 -0.9996 -0.4064
  970MOL0     H28004   4.107   8.601   9.109  0.5177 -0.0006  0.0314
  970MOL0     H28005   3.869   8.565   9.169  0.3348 -2.3592 -1.0289
  970MOL0     H28006   3.616   8.522   8.848  0.1099 -1.6105  1.3201
  970MOL0     H28007   3.552   8.685   8.861  1.7020 -0.1212 -1.1637
  970MOL0     H28008   3.389   8.503   8.875  0.2997 -2.2779  0.1526
  970MOL0     H28009   3.394   8.580   9.041 -0.5721 -2.1484  1.3932
  970MOL0     H28010   3.531   8.402   9.124  4.5650 -2.0990 -2.0936
  970MOL0     H28011   3.535   8.324   8.969 -0.4192 -0.3001 -0.2042
  970MOL0     H28012   3.363   8.232   9.130 -1.0621  0.1251 -0.8615
  970MOL0     H28013   3.277   8.387   9.099  1.4068  0.7375  1.8368
  970MOL0     H28014   3.342   8.162   8.903  0.1586 -0.9569  1.8601
  970MOL0     H28015   3.285   8.324   8.851 -2.0028 -0.2405  0.8810
  970MOL0     H28016   3.102   8.154   8.857  0.7085 -1.5284  0.2081
  970MOL0     H28017   3.068   8.284   8.966 -2.8934 -1.6205 -0.4017
  970MOL0     H28018   3.196   8.014   9.053  1.7533  1.8672 -0.8910
  970MOL0     H28019   3.138   8.145   9.164 -3.6524  1.3467  0.7463
  970MOL0     H28020   2.972   7.991   8.965  0.2974  0.1048  0.1783
  970MOL0     H28021   2.919   8.110   9.072  2.0079  0.6028 -1.6362
  970MOL0     H28022   3.758   8.754   8.802  0.3362  0.0572  0.5033
  970MOL0     H28023   3.969   8.800   8.754 -2.6193  1.2306 -0.0114
  970MOL0     H28024   4.372   8.697   8.695  0.3472 -0.3718  2.4931
  970MOL0     H28025   4.580   8.741   8.596 -0.0929  0.5001  0.1701
  970MOL0     H28026   6.270   9.811   9.057 -0.0974  3.3756  1.0857
  970MOL0     H28027   6.522   9.819   9.050  3.0916 -0.9138  1.5380
  970MOL0     H28028   6.991   9.726   9.495 -0.8655 -0.5154 -0.4060
  970MOL0     H28029   7.209   9.802   9.460 -1.4106  1.3417  1.7859
  970MOL0     H28030   7.410   9.831   9.368 -3.3649 -0.3792  0.6082
  970MOL0     H28031   7.372   9.997   9.425  1.3653  1.5783 -0.6705
  970MOL0     H28032   7.513  10.088   9.240  0.2496 -0.8280 -0.8822
  970MOL0     H28033   7.614   9.986   9.351  0.4122  2.1186  0.1794
  970MOL0     H28034   7.622   9.974   9.091 -0.3831  0.6268 -0.3101
  970MOL0     H28035   7.482   9.871   9.095  1.3911 -1.5122 -0.7495
  970MOL0     H28036   7.728   9.813   9.278  0.0738 -0.1944 -0.1244
  970MOL0     H28037   7.589   9.709   9.242 -1.0461  1.9989  0.1628
  970MOL0     H28038   7.784   9.623   8.889  0.4304 -2.1588  0.3637
  970MOL0     H28039   7.105  10.042   9.119 -0.4543  1.0323  0.0779
  970MOL0     H28040   6.853   9.978   9.173 -0.3664 -1.2476  0.0689
  971MOL0     O28041   2.408   9.570   8.782 -0.2748  0.4424 -0.0297
  971MOL0     C28042   2.439   9.680   8.823 -0.5349  0.2546 -0.1692
  971MOL0     O28043   2.359   9.773   8.892 -0.2600 -0.3927 -0.1018
  971MOL0     C28044   2.229   9.754   8.917  0.1252 -0.7272 -0.2703
  971MOL0     C28045   2.167   9.815   9.027  0.0540  0.4123  0.3163
  971MOL0     C28046   2.030   9.792   9.044 -0.7274 -0.1908 -0.4942
  971MOL0     C28047   1.955   9.719   8.958 -1.2390  0.4504 -1.0249
  971MOL0     O28048   1.825   9.687   8.991  0.1250 -0.2610 -0.1811
  971MOL0     C28049   1.743   9.804   8.972  0.5651  0.8443  0.7435
  971MOL0     C28050   1.605   9.752   8.948 -0.2452  0.1644 -0.1199
  971MOL0     C28051   1.543   9.686   9.077 -0.4298  0.0489  0.1649
  971MOL0     C28052   1.406   9.636   9.052  0.7404  0.1965  0.0612
  971MOL0     C28053   1.349   9.567   9.176  0.3477 -0.5950 -0.0358
  971MOL0     C28054   1.344   9.645   9.305 -0.1754 -0.4674 -1.5472
  971MOL0     C28055   1.230   9.595   9.400 -0.4344 -0.3678  0.5146
  971MOL0     C28056   1.253   9.475   9.484  0.1676  0.8733  0.3073
  971MOL0     N28057   1.143   9.437   9.574 -0.2832 -0.5719 -0.1727
  971MOL0     C28058   1.103   9.497   9.688  0.1635  1.1333 -1.5978
  971MOL0     C28059   0.999   9.423   9.730  0.8597  0.3635  0.6425
  971MOL0     C28060   0.922   9.424   9.862  0.6548 -0.0686  0.6016
  971MOL0     C28061   0.781   9.470   9.840  0.6897 -0.9959 -0.0865
  971MOL0     C28062   0.702   9.512   9.968 -0.2328 -0.4329 -0.9132
  971MOL0     C28063   0.695   9.410  10.086  0.1270  0.8260 -0.1612
  971MOL0     O28064   0.585   9.314  10.062 -0.2136  0.4558 -0.0556
  971MOL0     C28065   0.456   9.359  10.069 -0.7353  0.4917  0.2600
  971MOL0     C28066   0.421   9.486  10.122 -0.7756 -0.1725 -0.2402
  971MOL0     C28067   0.284   9.533  10.128 -0.3904 -0.9287 -0.3324
  971MOL0     C28068   0.183   9.452  10.074 -0.8608 -0.6050  0.3296
  971MOL0     C28069   0.043   9.487  10.093  0.8835 -0.5546 -0.5454
  971MOL0     O28070  -0.048   9.406  10.030  0.0193  0.3137  0.5632
  971MOL0     C28071  -0.184   9.410  10.046  0.7192 -0.1627  0.5817
  971MOL0     C28072  -0.261   9.395   9.938  1.0846  0.2811 -0.6090
  971MOL0     C28073  -0.403   9.412   9.951 -0.2850 -0.0763 -0.1987
  971MOL0     C28074  -0.463   9.442  10.074 -0.2060 -0.0880  0.1408
  971MOL0     O28075  -0.597   9.469  10.091  0.0481 -0.2712  0.0792
  971MOL0     C28076  -0.683   9.436   9.982  0.3682 -0.4501  1.3298
  971MOL0     C28077  -0.824   9.466  10.031  0.2541 -0.0603 -0.1801
  971MOL0     C28078  -0.932   9.435   9.928  0.1607 -0.3992  0.1403
  971MOL0     C28079  -1.068   9.457   9.996 -0.1802 -0.3837  0.2223
  971MOL0     C28080  -1.195   9.444   9.916 -0.5037  0.1747  0.4814
  971MOL0     C28081  -1.320   9.491   9.995 -0.1079  0.4704 -0.0735
  971MOL0     C28082  -1.445   9.473   9.900 -0.0885  0.4409 -0.0671
  971MOL0     C28083  -1.487   9.333   9.876  0.2368 -0.2216  0.2769
  971MOL0    Cl28084  -1.655   9.337   9.813  0.2887 -0.2886  0.2748
  971MOL0     C28085  -0.381   9.447  10.183  0.5629 -0.0490 -0.2495
  971MOL0     C28086  -0.242   9.434  10.167  0.7176 -0.4840  0.0441
  971MOL0     O28087   0.013   9.588  10.159 -0.1980  0.6906  0.0372
  971MOL0     C28088   0.220   9.317  10.019  0.5370 -0.6112 -0.0114
  971MOL0     C28089   0.353   9.279  10.017  0.3775  0.4725 -0.0451
  971MOL0     N28090   0.992   9.313   9.636 -0.0666  0.0057 -0.7641
  971MOL0     N28091   1.072   9.328   9.545 -0.8493  0.1655 -0.0460
  971MOL0     C28092   2.006   9.683   8.839 -0.1451 -0.5304  0.5494
  971MOL0     C28093   2.142   9.701   8.819 -0.5483 -0.3581  0.5024
  971MOL0     C28094   2.577   9.735   8.803  0.9666  0.1427 -0.3776
  971MOL0     C28095   2.679   9.656   8.749 -0.2694 -0.3460 -0.4226
  971MOL0     C28096   2.806   9.699   8.728 -0.2288  0.0982 -0.5423
  971MOL0     C28097   2.837   9.831   8.751  0.8665 -0.0952 -0.2855
  971MOL0     O28098   2.962   9.875   8.703  0.2265 -0.3075  0.3371
  971MOL0     C28099   3.002  10.011   8.722 -0.1451  0.0684  0.1931
  971MOL0     C28100   3.136  10.046   8.663  0.0621 -0.3163  0.1870
  971MOL0     C28101   3.184  10.177   8.736  0.2950 -0.7268 -1.0050
  971MOL0     C28102   3.327  10.216   8.703 -0.6580 -0.6320  0.6499
  971MOL0     C28103   3.431  10.119   8.737  0.2800  0.1370 -0.3859
  971MOL0     C28104   3.510  10.035   8.776 -0.3940 -0.5970 -0.1170
  971MOL0     C28105   2.754   9.911   8.830 -0.1345  0.2654 -0.0973
  971MOL0     C28106   2.626   9.865   8.859  1.4991 -0.6090 -0.3592
  971MOL0     H28107   2.224   9.882   9.091  0.2316  1.3230 -0.7668
  971MOL0     H28108   1.975   9.828   9.131  0.3467  0.8496 -0.2126
  971MOL0     H28109   1.771   9.849   8.876 -0.3665 -3.5119 -1.7937
  971MOL0     H28110   1.742   9.883   9.048  0.7254  3.5877 -1.9015
  971MOL0     H28111   1.614   9.679   8.867  0.1776 -1.0610  0.9951
  971MOL0     H28112   1.544   9.836   8.914 -0.2270  0.4849  0.6140
  971MOL0     H28113   1.543   9.756   9.160  2.0495  1.6939 -1.1006
  971MOL0     H28114   1.594   9.594   9.108 -3.0685 -2.0519 -1.2060
  971MOL0     H28115   1.340   9.719   9.024  0.2923  0.4627  1.7886
  971MOL0     H28116   1.408   9.568   8.966  1.8694 -0.7803  0.8225
  971MOL0     H28117   1.411   9.480   9.200  1.6417  0.0763 -0.8568
  971MOL0     H28118   1.256   9.519   9.142  0.2200 -0.3256 -0.0703
  971MOL0     H28119   1.335   9.753   9.289 -3.0054  0.0860  2.2489
  971MOL0     H28120   1.438   9.632   9.361 -1.2922 -0.2244  0.4846
  971MOL0     H28121   1.208   9.673   9.473  0.7282  2.0807 -1.5727
  971MOL0     H28122   1.139   9.596   9.340  0.6344 -1.5726 -1.2361
  971MOL0     H28123   1.348   9.479   9.540  0.3261  0.5848  0.0625
  971MOL0     H28124   1.271   9.396   9.411  2.1263 -0.5332  2.1525
  971MOL0     H28125   1.150   9.569   9.754  0.6968 -3.8181  4.4090
  971MOL0     H28126   0.962   9.495   9.935 -1.6412 -1.0464  2.9532
  971MOL0     H28127   0.919   9.321   9.896 -1.1221  0.0999  1.0390
  971MOL0     H28128   0.721   9.404   9.776  0.6841 -0.6968 -0.3940
  971MOL0     H28129   0.782   9.563   9.782 -0.0738  0.0691  1.5385
  971MOL0     H28130   0.752   9.603  10.002  0.7833 -0.6102 -1.8873
  971MOL0     H28131   0.598   9.536   9.940  0.3425 -0.3970 -3.1867
  971MOL0     H28132   0.683   9.464  10.180  0.3962  1.1794 -0.3272
  971MOL0     H28133   0.792   9.359  10.094  0.4996  1.7001  1.2521
  971MOL0     H28134   0.491   9.561  10.157 -1.5040  1.1565 -1.4986
  971MOL0     H28135   0.271   9.634  10.164  0.4054 -0.5632 -1.0563
  971MOL0     H28136  -0.226   9.365   9.841  0.8048  1.4698 -1.1009
  971MOL0     H28137  -0.464   9.400   9.862 -0.6746  3.1823 -0.4897
  971MOL0     H28138  -0.666   9.329   9.968 -0.6797 -1.1744  4.5731
  971MOL0     H28139  -0.657   9.483   9.887  1.3144 -2.6008  0.4681
  971MOL0     H28140  -0.815   9.569  10.068  3.1612 -0.6764  1.1084
  971MOL0     H28141  -0.848   9.406  10.119 -2.7787 -1.2906 -1.7011
  971MOL0     H28142  -0.927   9.327   9.917 -2.5789 -0.7295  1.4249
  971MOL0     H28143  -0.917   9.491   9.835 -0.1246 -0.6648 -0.0672
  971MOL0     H28144  -1.064   9.397  10.087  0.5611  1.4836  1.4846
  971MOL0     H28145  -1.067   9.562  10.027  2.9904  0.3247 -1.8331
  971MOL0     H28146  -1.214   9.341   9.885 -0.5117  1.2490 -3.8306
  971MOL0     H28147  -1.188   9.512   9.830 -3.1192 -1.5692 -1.2284
  971MOL0     H28148  -1.304   9.598  10.012  0.0824  0.5833 -0.8985
  971MOL0     H28149  -1.319   9.464  10.101  2.4170  3.7079  0.9142
  971MOL0     H28150  -1.527   9.537   9.933  2.0858  3.2663  0.1883
  971MOL0     H28151  -1.424   9.517   9.803  4.5756 -3.8437 -1.4307
  971MOL0     H28152  -1.489   9.274   9.968  1.8789  0.8288  1.0350
  971MOL0     H28153  -1.419   9.283   9.807  0.3548 -1.4662  1.2635
  971MOL0     H28154  -0.433   9.470  10.276  0.9963  2.9913 -0.6660
  971MOL0     H28155  -0.186   9.433  10.259 -1.5655 -0.9546  1.5051
  971MOL0     H28156   0.141   9.253   9.980  0.6797  0.5614 -2.3312
  971MOL0     H28157   0.374   9.185   9.967  0.1611  0.2681  0.2460
  971MOL0     H28158   1.945   9.648   8.755  0.8745  0.6612 -0.7359
  971MOL0     H28159   2.191   9.677   8.725 -1.7115  0.6257 -0.3858
  971MOL0     H28160   2.661   9.555   8.714  1.2990 -0.4568 -1.0071
  971MOL0     H28161   2.887   9.647   8.678  1.1516  0.2659  1.4259
  971MOL0     H28162   3.008  10.040   8.828  0.5258 -0.3669  0.2806
  971MOL0     H28163   2.927  10.069   8.666  0.1353 -0.0695 -0.3294
  971MOL0     H28164   3.212   9.968   8.674  3.4658  2.6413 -0.7300
  971MOL0     H28165   3.116  10.064   8.557 -1.1206 -0.0886  0.4295
  971MOL0     H28166   3.176  10.170   8.845 -1.2042 -2.2796 -1.1708
  971MOL0     H28167   3.116  10.260   8.714  0.2102 -0.8712 -1.2832
  971MOL0     H28168   3.341  10.244   8.598  2.5348  2.5709  1.7453
  971MOL0     H28169   3.360  10.306   8.757  2.0072 -0.4460 -1.1146
  971MOL0     H28170   3.585   9.963   8.800 -0.7874 -0.6144  1.1279
  971MOL0     H28171   2.787  10.009   8.862  0.9763 -0.6841  1.7838
  971MOL0     H28172   2.563   9.937   8.910  0.8416 -0.4245 -1.4101
  972MOL0     O28173   5.020   0.260  10.344  0.4174  0.0305  0.7832
  972MOL0     C28174   5.068   0.268  10.458  0.0014 -0.4878  0.2962
  972MOL0     O28175   5.005   0.254  10.574 -0.3290 -0.0678 -0.2712
  972MOL0     C28176   4.870   0.225  10.570 -0.9341 -0.3056  0.1586
  972MOL0     C28177   4.808   0.121  10.640 -0.9076  0.1349  0.3528
  972MOL0     C28178   4.672   0.105  10.642  0.2725 -0.5173  0.0880
  972MOL0     C28179   4.592   0.205  10.592  0.2539 -0.1409  0.8110
  972MOL0     O28180   4.457   0.177  10.593 -0.4092  0.4498 -0.0028
  972MOL0     C28181   4.373   0.288  10.624 -0.0692 -0.1028  0.4324
  972MOL0     C28182   4.233   0.250  10.580 -0.6144 -0.6603 -0.1318
  972MOL0     C28183   4.135   0.370  10.572 -0.3226 -0.1762  0.2886
  972MOL0     C28184   3.994   0.316  10.565 -0.0907 -0.0170 -0.1963
  972MOL0     C28185   3.957   0.224  10.443 -0.1127  0.3723  0.4952
  972MOL0     C28186   3.809   0.200  10.434  0.7943 -0.6632  0.0035
  972MOL0     C28187   3.776   0.111  10.328  1.1985 -0.1054  0.0047
  972MOL0     C28188   3.624   0.080  10.330  0.3436 -0.2364 -0.6101
  972MOL0     N28189   3.579  -0.012  10.226 -0.7625 -0.9075 -0.1962
  972MOL0     C28190   3.460   0.010  10.159 -0.8349  0.6964  0.0250
  972MOL0     C28191   3.472  -0.082  10.061  1.4079 -0.0301 -0.1672
  972MOL0     C28192   3.373  -0.106   9.951 -0.2290 -0.9643  0.3169
  972MOL0     C28193   3.437  -0.114   9.811  0.1448 -0.4553  0.1734
  972MOL0     C28194   3.363  -0.214   9.714 -0.7103 -1.1488  0.4937
  972MOL0     C28195   3.451  -0.268   9.602 -0.4211 -0.2975  0.0462
  972MOL0     O28196   3.370  -0.355   9.525 -0.1027 -0.2144  0.1166
  972MOL0     C28197   3.428  -0.400   9.408 -0.4121  0.8857  0.7773
  972MOL0     C28198   3.343  -0.462   9.315 -0.3176  0.3144 -1.2433
  972MOL0     C28199   3.399  -0.495   9.189 -0.2597  0.4480  0.2056
  972MOL0     C28200   3.536  -0.477   9.156  0.5872 -1.4118 -0.1248
  972MOL0     C28201   3.580  -0.516   9.026 -0.0335  0.0783  0.2588
  972MOL0     O28202   3.499  -0.607   8.955  0.1628 -0.2271 -0.7567
  972MOL0     C28203   3.545  -0.652   8.833  0.0835  0.2338  0.1041
  972MOL0     C28204   3.530  -0.572   8.727  0.0759  0.4533  0.2657
  972MOL0     C28205   3.573  -0.608   8.602 -0.3097 -0.0268  0.3074
  972MOL0     C28206   3.627  -0.735   8.573  0.6378 -0.5607  0.0842
  972MOL0     O28207   3.672  -0.756   8.445 -0.0471  0.4643  0.5490
  972MOL0     C28208   3.739  -0.873   8.408 -0.3269  0.5471  0.6129
  972MOL0     C28209   3.636  -0.990   8.393 -0.2977  0.1488 -0.0079
  972MOL0     C28210   3.691  -1.125   8.435  0.5446  0.5799  0.6219
  972MOL0     C28211   3.827  -1.184   8.373 -0.0054  0.1207 -0.3750
  972MOL0     C28212   3.858  -1.323   8.427  0.0820  0.3580  0.0718
  972MOL0     C28213   3.898  -1.324   8.570  0.2375 -0.3015  0.0845
  972MOL0     C28214   3.945  -1.466   8.605  0.0990  0.2936  0.2378
  972MOL0     C28215   4.006  -1.478   8.748  0.0499 -0.6180  1.0211
  972MOL0    Cl28216   4.139  -1.362   8.748 -0.0729 -0.1879  0.0491
  972MOL0     C28217   3.632  -0.826   8.675 -0.0984  0.1070 -0.2823
  972MOL0     C28218   3.598  -0.781   8.805  0.4092 -1.0457 -0.3560
  972MOL0     O28219   3.688  -0.467   8.984  0.2942  0.7417  0.8469
  972MOL0     C28220   3.616  -0.428   9.260 -0.2152 -0.6535  0.4345
  972MOL0     C28221   3.562  -0.390   9.376  0.5216  0.0936 -1.3223
  972MOL0     N28222   3.584  -0.153  10.074  0.1154  0.4096 -0.0639
  972MOL0     N28223   3.653  -0.106  10.172  0.6299  0.1680 -0.1125
  972MOL0     C28224   4.647   0.312  10.526  0.1504 -0.0913 -0.5343
  972MOL0     C28225   4.786   0.325  10.522  0.1565  0.2830 -0.3796
  972MOL0     C28226   5.213   0.304  10.458  0.2725 -0.3580 -0.0389
  972MOL0     C28227   5.294   0.273  10.567  1.0166  0.2363 -0.9365
  972MOL0     C28228   5.427   0.287  10.557  0.2950  0.6343 -0.2029
  972MOL0     C28229   5.488   0.355  10.452 -0.3981 -0.6853  0.2717
  972MOL0     O28230   5.618   0.388  10.466  0.1565  0.7429 -0.7821
  972MOL0     C28231   5.697   0.456  10.367 -0.6482  0.3591 -0.1200
  972MOL0     C28232   5.762   0.350  10.279  0.4108 -0.8206 -0.1302
  972MOL0     C28233   5.781   0.403  10.137  0.7117 -0.3843  0.1378
  972MOL0     C28234   5.828   0.286  10.044 -0.8958  0.0782 -0.0067
  972MOL0     C28235   5.976   0.254  10.068  0.7498 -0.7560 -0.0403
  972MOL0     C28236   6.095   0.230  10.063  1.0085 -0.1564 -0.8544
  972MOL0     C28237   5.415   0.397  10.340  0.0602 -0.0807 -0.1381
  972MOL0     C28238   5.279   0.357  10.340  1.0472 -0.9071  0.2437
  972MOL0     H28239   4.883   0.056  10.684  0.1432  0.8606 -0.3172
  972MOL0     H28240   4.638   0.006  10.671 -2.4451  0.2012 -0.3954
  972MOL0     H28241   4.394   0.379  10.567 -0.9204 -0.4037 -0.4010
  972MOL0     H28242   4.368   0.301  10.733  1.3118  1.4418  0.3645
  972MOL0     H28243   4.198   0.169  10.644  0.2058  1.6553  3.5741
  972MOL0     H28244   4.243   0.218  10.476 -0.2321  1.3415 -0.7496
  972MOL0     H28245   4.153   0.428  10.481 -1.6507 -0.8161 -0.4145
  972MOL0     H28246   4.144   0.426  10.666 -1.4645  0.5104  0.0036
  972MOL0     H28247   3.968   0.256  10.653  2.1129  1.5939  1.6797
  972MOL0     H28248   3.929   0.403  10.550 -0.9389 -0.9036 -1.8785
  972MOL0     H28249   3.996   0.123  10.461 -0.4338  0.0410 -0.5872
  972MOL0     H28250   4.001   0.267  10.353 -0.9732  1.5163  0.6036
  972MOL0     H28251   3.747   0.288  10.415  0.0213 -1.1564  0.2120
  972MOL0     H28252   3.780   0.169  10.535 -1.2149  2.0641  0.3849
  972MOL0     H28253   3.799   0.164  10.235  0.3497 -2.8399 -1.8889
  972MOL0     H28254   3.833   0.018  10.336  0.5516 -0.3591  3.1474
  972MOL0     H28255   3.571   0.173  10.309 -0.0627 -0.7214 -1.7646
  972MOL0     H28256   3.600   0.041  10.430  0.1184  1.2474 -0.0476
  972MOL0     H28257   3.380   0.077  10.189 -0.3941 -0.2054  3.7837
  972MOL0     H28258   3.296  -0.029   9.960  2.6540  2.4557 -1.7886
  972MOL0     H28259   3.323  -0.200   9.978 -2.5166  0.4639  1.4561
  972MOL0     H28260   3.541  -0.146   9.802  0.3412  0.7035 -3.1406
  972MOL0     H28261   3.438  -0.011   9.775 -0.1068 -0.1707  0.9614
  972MOL0     H28262   3.341  -0.303   9.774 -0.0232 -1.2237  0.6423
  972MOL0     H28263   3.272  -0.173   9.671  0.1175 -1.5250 -1.8106
  972MOL0     H28264   3.539  -0.318   9.643 -0.3561 -0.0486  0.2057
  972MOL0     H28265   3.484  -0.196   9.526 -2.2772 -0.7204 -1.2506
  972MOL0     H28266   3.239  -0.479   9.340  0.5648 -2.2225  1.2368
  972MOL0     H28267   3.325  -0.535   9.119  2.1078 -2.9576 -0.6020
  972MOL0     H28268   3.477  -0.478   8.740 -2.2276 -0.5887 -0.9280
  972MOL0     H28269   3.560  -0.548   8.512 -0.8462  0.7330  0.8772
  972MOL0     H28270   3.819  -0.901   8.477 -0.0458 -1.3921 -0.4123
  972MOL0     H28271   3.797  -0.852   8.318  3.2443  1.2841  2.8772
  972MOL0     H28272   3.616  -1.003   8.286 -1.3918  0.2730  0.1728
  972MOL0     H28273   3.537  -0.975   8.436 -0.6685 -2.3934  0.1923
  972MOL0     H28274   3.621  -1.198   8.393 -0.8346  0.2457  3.2832
  972MOL0     H28275   3.694  -1.139   8.543  1.3310 -1.0465  0.4181
  972MOL0     H28276   3.815  -1.196   8.264  1.6181 -0.7696 -0.4961
  972MOL0     H28277   3.912  -1.118   8.393 -0.7093  1.1207 -0.6284
  972MOL0     H28278   3.943  -1.362   8.371  0.5470 -0.9176  1.6004
  972MOL0     H28279   3.774  -1.392   8.409  1.4193 -1.3000 -0.0794
  972MOL0     H28280   3.814  -1.297   8.635  0.0665  2.6266 -1.2257
  972MOL0     H28281   3.972  -1.244   8.582  1.0066 -0.9339 -0.3242
  972MOL0     H28282   3.865  -1.539   8.594  0.9453 -0.7159  0.6417
  972MOL0     H28283   4.028  -1.489   8.536 -0.8138  0.1117 -0.8328
  972MOL0     H28284   4.036  -1.582   8.760  0.4907 -0.4373  1.5760
  972MOL0     H28285   3.931  -1.448   8.822 -0.2212  0.8104  0.2144
  972MOL0     H28286   3.677  -0.924   8.666 -0.7849 -0.1239 -1.3381
  972MOL0     H28287   3.603  -0.862   8.877  0.7360 -1.5373 -0.9241
  972MOL0     H28288   3.721  -0.420   9.235  0.0251 -1.8564  0.9838
  972MOL0     H28289   3.637  -0.353   9.446 -0.8440 -0.6914  0.6671
  972MOL0     H28290   4.577   0.378  10.476 -0.3042 -0.3417 -0.2299
  972MOL0     H28291   4.835   0.403  10.465 -2.4025  2.0474 -0.3423
  972MOL0     H28292   5.251   0.216  10.649  0.9359  0.5810 -0.7415
  972MOL0     H28293   5.482   0.254  10.645 -2.2892  2.4524  2.2453
  972MOL0     H28294   5.766   0.529  10.411 -1.5642  1.2616 -0.1254
  972MOL0     H28295   5.632   0.513  10.299 -0.5160 -0.5474 -1.0182
  972MOL0     H28296   5.854   0.324  10.330 -1.2531 -1.7656  2.5788
  972MOL0     H28297   5.704   0.258  10.277  0.5871 -0.9600  0.7578
  972MOL0     H28298   5.858   0.479  10.127  1.9422 -1.5209  0.7016
  972MOL0     H28299   5.689   0.453  10.104  0.7044 -0.7073 -0.3473
  972MOL0     H28300   5.773   0.192  10.058 -1.2460 -0.1073 -2.2384
  972MOL0     H28301   5.828   0.316   9.939  0.4380  2.7074  0.6707
  972MOL0     H28302   6.197   0.197  10.063  0.4002 -2.2765  0.5520
  972MOL0     H28303   5.454   0.445  10.250 -1.7683  1.1311 -0.3283
  972MOL0     H28304   5.225   0.374  10.247 -1.3909 -0.5477  1.6368
  973MOL0     O28305   2.290  10.407   0.569 -0.4065  0.5767 -0.0161
  973MOL0     C28306   2.317  10.295   0.539  0.6085 -0.0044  0.6376
  973MOL0     O28307   2.234  10.190   0.506  0.3999 -0.0275 -0.2187
  973MOL0     C28308   2.097  10.213   0.499 -0.3357  0.6765 -0.1308
  973MOL0     C28309   2.029  10.286   0.593  0.1358 -0.9671  0.6163
  973MOL0     C28310   1.886  10.304   0.587 -0.1245  0.1238  0.2814
  973MOL0     C28311   1.819  10.251   0.476 -0.5696 -0.2168  0.6120
  973MOL0     O28312   1.686  10.267   0.452 -0.1169  0.2564 -0.0172
  973MOL0     C28313   1.597  10.290   0.572 -0.1491 -0.0145 -0.1442
  973MOL0     C28314   1.462  10.293   0.530 -0.5587 -0.0938  0.5927
  973MOL0     C28315   1.364  10.333   0.635  0.1897  0.8832 -0.7636
  973MOL0     C28316   1.228  10.344   0.563  0.1534 -0.7336 -0.2347
  973MOL0     C28317   1.120  10.376   0.670 -1.4735  1.6523  0.2630
  973MOL0     C28318   0.977  10.389   0.618 -0.0297 -0.3452  0.4030
  973MOL0     C28319   0.882  10.403   0.728 -0.2997  0.4893  0.0844
  973MOL0     C28320   0.747  10.422   0.670  0.3452 -0.2054 -0.7191
  973MOL0     N28321   0.634  10.415   0.765 -0.1149  0.1450 -0.6383
  973MOL0     C28322   0.605  10.493   0.872 -0.1317  0.0811  0.2703
  973MOL0     C28323   0.485  10.448   0.909 -0.0815 -0.4099 -0.5131
  973MOL0     C28324   0.417  10.523   1.023 -0.2942  0.8753  0.0588
  973MOL0     C28325   0.278  10.576   0.999 -0.0045  0.8749 -0.3470
  973MOL0     C28326   0.169  10.462   1.018 -0.9485 -0.7513  0.5046
  973MOL0     C28327   0.034  10.531   1.036  0.2100  0.4114  0.1109
  973MOL0     O28328   0.035  10.587   1.168 -0.1308 -0.8285 -0.0331
  973MOL0     C28329  -0.078  10.646   1.215 -0.6984 -1.0605 -0.5296
  973MOL0     C28330  -0.058  10.717   1.336 -0.5362  0.3261  0.1658
  973MOL0     C28331  -0.162  10.792   1.385 -0.4726 -0.2146 -0.0940
  973MOL0     C28332  -0.289  10.789   1.338  0.2184 -0.0411  0.6234
  973MOL0     C28333  -0.398  10.871   1.395  0.8090 -0.3308  0.3069
  973MOL0     O28334  -0.526  10.840   1.349  0.4912  0.2676  0.6356
  973MOL0     C28335  -0.626  10.927   1.391  0.6244 -0.1592  0.3897
  973MOL0     C28336  -0.619  11.067   1.377  1.2365 -0.0582  0.0334
  973MOL0     C28337  -0.720  11.147   1.436  0.5130 -0.8751 -0.3695
  973MOL0     C28338  -0.829  11.086   1.498  0.8259  0.8089 -0.7881
  973MOL0     O28339  -0.934  11.175   1.531  0.5647  0.1421 -1.5368
  973MOL0     C28340  -1.060  11.116   1.583 -0.5899 -0.2211 -0.2956
  973MOL0     C28341  -1.163  11.075   1.472  0.7992 -0.3828 -0.1402
  973MOL0     C28342  -1.292  11.031   1.537 -0.5662 -0.3533  0.3434
  973MOL0     C28343  -1.398  11.007   1.427 -0.2033 -0.0950 -0.3528
  973MOL0     C28344  -1.532  10.981   1.491  0.0964  0.9145  0.4510
  973MOL0     C28345  -1.624  10.941   1.386  0.9066 -0.1922 -0.0707
  973MOL0     C28346  -1.764  10.899   1.440  0.3621 -0.3905 -1.1230
  973MOL0     C28347  -1.846  10.811   1.348 -0.0139 -0.0209  0.0897
  973MOL0    Cl28348  -1.875  10.880   1.182  0.2656 -0.0166  0.0934
  973MOL0     C28349  -0.831  10.948   1.511 -0.0908 -0.1463 -1.0935
  973MOL0     C28350  -0.736  10.863   1.462  0.3649 -0.7670  0.1617
  973MOL0     O28351  -0.374  10.966   1.480 -0.1930 -0.2568  0.0254
  973MOL0     C28352  -0.316  10.698   1.237 -0.3352  0.8727  0.9807
  973MOL0     C28353  -0.206  10.632   1.171 -1.0276 -0.2196 -0.5439
  973MOL0     N28354   0.443  10.338   0.840 -0.5242  0.6041  1.0365
  973MOL0     N28355   0.523  10.332   0.740  0.1337 -0.0845 -0.1339
  973MOL0     C28356   1.893  10.165   0.386  0.0334 -0.7385  0.2505
  973MOL0     C28357   2.030  10.148   0.394 -0.5672 -0.7484 -0.0470
  973MOL0     C28358   2.459  10.259   0.525  0.0944  0.2886  0.3194
  973MOL0     C28359   2.565  10.354   0.554 -0.6669  0.6104 -0.0337
  973MOL0     C28360   2.701  10.323   0.549 -0.3532  0.1191  0.1063
  973MOL0     C28361   2.742  10.199   0.493 -0.6860 -0.0166  0.2730
  973MOL0     O28362   2.878  10.165   0.457 -0.6197  1.0065  0.3351
  973MOL0     C28363   2.992  10.234   0.526  0.0586  1.1637  0.1865
  973MOL0     C28364   3.106  10.133   0.536 -0.7876  0.7917  0.2828
  973MOL0     C28365   3.234  10.198   0.586 -0.3728  0.2241 -0.2264
  973MOL0     C28366   3.332  10.097   0.660  0.0549 -0.2692 -0.3110
  973MOL0     C28367   3.276  10.015   0.768 -0.8941 -0.1791  0.4755
  973MOL0     C28368   3.241   9.931   0.843  0.5701 -0.6113 -0.4700
  973MOL0     C28369   2.643  10.104   0.458  0.1778 -1.3807  0.8438
  973MOL0     C28370   2.509  10.128   0.490 -0.3483  0.1443  0.5160
  973MOL0     H28371   2.072  10.334   0.681 -4.7337  2.7641  1.3925
  973MOL0     H28372   1.836  10.373   0.654  0.9846  1.5420 -0.3000
  973MOL0     H28373   1.619  10.386   0.619  1.0091  0.9641 -2.5167
  973MOL0     H28374   1.609  10.211   0.647 -1.7646  0.3688  0.5685
  973MOL0     H28375   1.433  10.190   0.508  1.6268 -0.4831 -0.7432
  973MOL0     H28376   1.462  10.363   0.446 -0.6344 -1.3072 -0.4468
  973MOL0     H28377   1.381  10.433   0.675 -1.5662  1.5253 -1.5357
  973MOL0     H28378   1.363  10.259   0.715  1.4335  0.1724 -1.3656
  973MOL0     H28379   1.236  10.419   0.484  0.6826 -0.6798 -0.1377
  973MOL0     H28380   1.185  10.255   0.516  1.6323 -0.7503 -1.6539
  973MOL0     H28381   1.149  10.470   0.717  2.5646 -0.2801  2.0991
  973MOL0     H28382   1.124  10.294   0.743  0.4183  0.0382 -1.5083
  973MOL0     H28383   0.949  10.303   0.556 -0.9634  0.7173 -0.7007
  973MOL0     H28384   0.963  10.485   0.567 -1.8356  0.3673  2.1360
  973MOL0     H28385   0.891  10.314   0.790  1.1019  0.4001 -0.2078
  973MOL0     H28386   0.905  10.489   0.791  2.5842 -0.0186 -0.1398
  973MOL0     H28387   0.730  10.350   0.589 -0.5299 -3.8504  2.4327
  973MOL0     H28388   0.746  10.523   0.628 -0.9461 -0.0503 -0.3583
  973MOL0     H28389   0.672  10.570   0.912  0.7517  0.0222 -1.0417
  973MOL0     H28390   0.473  10.616   1.039 -0.4099  0.7538  1.2379
  973MOL0     H28391   0.433  10.462   1.112  2.7785 -0.3519 -1.2105
  973MOL0     H28392   0.288  10.605   0.894 -0.4998  0.0815 -0.6202
  973MOL0     H28393   0.247  10.657   1.066 -2.2296  0.4484 -0.7654
  973MOL0     H28394   0.166  10.397   0.930 -0.9111 -0.2024  0.0886
  973MOL0     H28395   0.200  10.410   1.109  1.5232  0.1062  0.2374
  973MOL0     H28396  -0.049  10.460   1.023  0.5227  0.0746 -0.0662
  973MOL0     H28397   0.018  10.606   0.958  3.7713 -0.9039 -2.1313
  973MOL0     H28398   0.037  10.712   1.388  0.9824  4.2732 -1.8471
  973MOL0     H28399  -0.123  10.857   1.463  1.6488 -2.9573  1.3025
  973MOL0     H28400  -0.533  11.107   1.324 -0.8815  2.1224 -1.9555
  973MOL0     H28401  -0.722  11.253   1.413 -0.6609 -1.1764 -1.7824
  973MOL0     H28402  -1.110  11.188   1.649 -1.6537 -3.1702  2.3350
  973MOL0     H28403  -1.040  11.032   1.650  0.8543 -0.8758 -1.5046
  973MOL0     H28404  -1.122  10.996   1.409  1.7824  0.8919 -1.1586
  973MOL0     H28405  -1.173  11.161   1.405  1.7779 -0.8013 -0.8401
  973MOL0     H28406  -1.319  11.105   1.612  2.1603  2.1904 -0.9783
  973MOL0     H28407  -1.280  10.939   1.595 -2.6875 -1.9384 -1.5444
  973MOL0     H28408  -1.408  11.098   1.366 -1.5684 -0.0329 -0.0849
  973MOL0     H28409  -1.361  10.917   1.377 -0.8947 -0.9549  0.6541
  973MOL0     H28410  -1.569  11.067   1.548 -1.5555  1.8528 -1.8739
  973MOL0     H28411  -1.515  10.905   1.568  0.6162 -0.2833 -0.8102
  973MOL0     H28412  -1.577  10.857   1.334  0.2184 -0.7291  0.1652
  973MOL0     H28413  -1.638  11.015   1.307 -1.3547 -1.2042 -0.6937
  973MOL0     H28414  -1.747  10.851   1.537  1.6010  3.5948  0.8740
  973MOL0     H28415  -1.821  10.988   1.470  0.1312  0.7261 -4.4929
  973MOL0     H28416  -1.943  10.794   1.395 -0.8799  3.1211 -0.3560
  973MOL0     H28417  -1.801  10.713   1.329 -1.0239 -0.5084  0.1710
  973MOL0     H28418  -0.907  10.895   1.568 -0.9788  0.5721 -1.5809
  973MOL0     H28419  -0.747  10.756   1.476  0.3895 -1.0429 -1.6229
  973MOL0     H28420  -0.418  10.685   1.203 -0.2579 -0.7396  1.2999
  973MOL0     H28421  -0.233  10.575   1.083 -0.5635 -3.3596  1.2194
  973MOL0     H28422   1.837  10.140   0.297 -1.1163  3.2939 -0.3657
  973MOL0     H28423   2.088  10.108   0.312 -2.7858 -1.4406 -1.3574
  973MOL0     H28424   2.538  10.454   0.588 -3.2192  0.1274 -0.4728
  973MOL0     H28425   2.769  10.405   0.571 -0.7484  0.9663 -1.6205
  973MOL0     H28426   2.969  10.271   0.626  0.6020  2.5394 -0.1691
  973MOL0     H28427   3.017  10.328   0.476  1.0255  0.2054 -1.2375
  973MOL0     H28428   3.071  10.046   0.592  1.3667 -0.4913 -0.2365
  973MOL0     H28429   3.132  10.091   0.438  0.4503  1.1930  0.4243
  973MOL0     H28430   3.211  10.279   0.656 -0.2115  1.6505 -1.7721
  973MOL0     H28431   3.292  10.241   0.504  0.4102  3.1224  1.7094
  973MOL0     H28432   3.373  10.040   0.576 -1.0911 -1.0089 -0.3931
  973MOL0     H28433   3.418  10.150   0.703  0.9238 -0.6045 -1.5660
  973MOL0     H28434   3.207   9.864   0.919  2.4283 -0.3510  0.6596
  973MOL0     H28435   2.685  10.008   0.430  2.4509 -0.5827  1.3216
  973MOL0     H28436   2.440  10.046   0.471 -0.8472  0.5899  0.3450
  974MOL0     O28437   9.860   3.641   6.800 -0.1511 -0.0542  1.0144
  974MOL0     C28438   9.917   3.627   6.693 -0.2872  0.0758  0.6054
  974MOL0     O28439   9.894   3.521   6.603  0.2233  0.1648  0.0860
  974MOL0     C28440   9.771   3.452   6.618  0.4740 -0.2457  0.0854
  974MOL0     C28441   9.781   3.316   6.587 -1.3735 -0.0172 -0.6015
  974MOL0     C28442   9.672   3.224   6.606  0.3578  0.2688 -0.4345
  974MOL0     C28443   9.548   3.287   6.642  0.1027  1.0054 -1.2840
  974MOL0     O28444   9.438   3.203   6.670 -0.5784 -0.3661  0.6859
  974MOL0     C28445   9.440   3.128   6.786 -0.5663  0.5627 -0.7542
  974MOL0     C28446   9.334   3.176   6.887  0.7391  0.2674  0.2745
  974MOL0     C28447   9.193   3.151   6.839  0.6034  0.0391 -0.4017
  974MOL0     C28448   9.074   3.169   6.945 -0.0483  0.3088 -0.5346
  974MOL0     C28449   9.064   3.308   7.007 -0.1260  0.3927  0.1267
  974MOL0     C28450   9.073   3.423   6.904  0.2514 -0.1627  0.1439
  974MOL0     C28451   9.061   3.554   6.977  0.1175  0.2274 -0.0224
  974MOL0     C28452   9.097   3.679   6.895  0.6639  0.2857 -0.1306
  974MOL0     N28453   9.239   3.709   6.875  0.0160  0.1049 -0.5211
  974MOL0     C28454   9.326   3.734   6.983 -0.1719  0.2921  0.5728
  974MOL0     C28455   9.449   3.733   6.923  0.3932 -0.1019 -0.5341
  974MOL0     C28456   9.580   3.783   6.986  0.7074 -0.2718  0.1703
  974MOL0     C28457   9.567   3.936   7.018  0.5883  1.0953  0.0076
  974MOL0     C28458   9.678   3.992   7.119  0.5637  0.2929  1.0843
  974MOL0     C28459   9.819   3.995   7.064  0.0876  0.2183 -0.6295
  974MOL0     O28460   9.900   4.046   7.174  0.0172  0.2080  0.5911
  974MOL0     C28461  10.028   4.069   7.129 -0.0258  0.1604 -0.2091
  974MOL0     C28462  10.069   4.200   7.105 -0.8761  0.1507  0.2516
  974MOL0     C28463  10.202   4.226   7.067 -0.7300  0.1428 -0.3291
  974MOL0     C28464  10.294   4.125   7.049  0.0291  0.3853 -0.6355
  974MOL0     C28465  10.440   4.156   7.029 -0.5271  0.5722 -0.2814
  974MOL0     O28466  10.468   4.286   7.006  0.0877  0.1887 -0.3326
  974MOL0     C28467  10.604   4.317   6.979  0.2939 -0.0621  0.4484
  974MOL0     C28468  10.705   4.305   7.081 -0.0395  0.2002  0.4819
  974MOL0     C28469  10.843   4.327   7.047 -0.3575  0.6744 -0.6556
  974MOL0     C28470  10.881   4.364   6.918  0.6038 -0.0416  0.0343
  974MOL0     O28471  11.015   4.354   6.890 -0.7402 -0.4539 -0.4967
  974MOL0     C28472  11.036   4.372   6.746  0.3339  0.0374  0.1811
  974MOL0     C28473  11.191   4.371   6.712  1.3589  0.1030  0.1315
  974MOL0     C28474  11.253   4.500   6.762  0.0536  0.8163 -0.2329
  974MOL0     C28475  11.399   4.479   6.736  0.5432 -0.8352 -0.3897
  974MOL0     C28476  11.488   4.597   6.791  0.5524 -0.3349  0.1330
  974MOL0     C28477  11.437   4.733   6.755  0.4107  1.5832  0.1175
  974MOL0     C28478  11.515   4.855   6.811 -0.3076  0.0493 -0.3873
  974MOL0     C28479  11.668   4.840   6.814  0.0564 -0.6720 -0.3497
  974MOL0    Cl28480  11.737   4.847   6.651 -0.2635 -0.0287 -0.3847
  974MOL0     C28481  10.775   4.389   6.824 -0.3307  0.6689 -0.6387
  974MOL0     C28482  10.638   4.367   6.858 -0.3805  0.2263  1.2364
  974MOL0     O28483  10.527   4.066   7.029  0.1017 -0.2797 -0.3398
  974MOL0     C28484  10.250   3.987   7.058 -0.8016  0.0135  0.0543
  974MOL0     C28485  10.123   3.963   7.098  0.1558  0.3003  1.0307
  974MOL0     N28486   9.430   3.725   6.783  0.3780  0.0866 -0.8115
  974MOL0     N28487   9.308   3.712   6.762 -0.1759  0.0045 -0.5901
  974MOL0     C28488   9.530   3.421   6.660 -0.1409 -0.0820 -0.1770
  974MOL0     C28489   9.647   3.505   6.656  0.2537  0.7596 -0.2750
  974MOL0     C28490  10.035   3.721   6.661 -0.3123 -0.2772 -0.7214
  974MOL0     C28491  10.065   3.820   6.754 -0.1714 -0.8319 -0.3112
  974MOL0     C28492  10.168   3.915   6.722 -1.2658  0.3662  0.7258
  974MOL0     C28493  10.257   3.896   6.607 -0.6411  0.3400 -0.4883
  974MOL0     O28494  10.367   3.972   6.571  0.1109 -0.0035 -0.4213
  974MOL0     C28495  10.449   4.026   6.673  0.0215 -0.1839  0.0558
  974MOL0     C28496  10.568   4.106   6.615  0.6102 -0.1347 -0.3190
  974MOL0     C28497  10.666   4.027   6.525  0.5252  0.5856  0.0764
  974MOL0     C28498  10.785   4.101   6.475 -0.0859  0.5781 -0.5261
  974MOL0     C28499  10.860   4.008   6.390  0.1646  0.5365 -0.0258
  974MOL0     C28500  10.928   3.936   6.314  0.3604 -0.0696 -0.7394
  974MOL0     C28501  10.222   3.794   6.516  0.2932  0.1088 -0.2460
  974MOL0     C28502  10.116   3.712   6.542 -1.1537 -0.1365  0.6663
  974MOL0     H28503   9.878   3.287   6.548  0.2967  2.2042  1.6175
  974MOL0     H28504   9.674   3.118   6.587 -1.2691  0.3386 -1.2371
  974MOL0     H28505   9.536   3.142   6.837 -0.6464  0.1499 -0.4828
  974MOL0     H28506   9.424   3.022   6.761 -1.7593  0.7007 -0.6282
  974MOL0     H28507   9.347   3.281   6.913 -0.9084  0.5314  0.1513
  974MOL0     H28508   9.347   3.122   6.981  0.3009  1.6073  1.1291
  974MOL0     H28509   9.190   3.045   6.814  0.6042 -0.1919  0.5435
  974MOL0     H28510   9.166   3.205   6.747 -1.0218 -1.4696 -0.8726
  974MOL0     H28511   8.975   3.150   6.903  0.0833  2.1713 -1.7852
  974MOL0     H28512   9.089   3.094   7.023  2.0184  0.1695 -1.0140
  974MOL0     H28513   9.150   3.318   7.075 -0.7710  2.8062  0.6735
  974MOL0     H28514   8.979   3.319   7.074  0.6117  0.7972  1.0213
  974MOL0     H28515   8.985   3.411   6.840  1.4143 -0.3973 -1.4771
  974MOL0     H28516   9.164   3.423   6.842  1.8276  0.3983  2.3483
  974MOL0     H28517   8.966   3.564   7.031  0.2129  1.8420 -0.0823
  974MOL0     H28518   9.132   3.553   7.060 -0.3903  3.2263  0.5820
  974MOL0     H28519   9.061   3.767   6.950  2.1769  0.6540  0.3152
  974MOL0     H28520   9.052   3.669   6.796  2.8627 -1.1976 -1.0355
  974MOL0     H28521   9.291   3.755   7.083 -1.7474  0.1993  0.0696
  974MOL0     H28522   9.663   3.771   6.916  1.7514 -0.2030  1.3482
  974MOL0     H28523   9.597   3.732   7.082 -1.6731 -1.4685  0.0169
  974MOL0     H28524   9.474   3.951   7.074  0.4891  1.2324 -0.1945
  974MOL0     H28525   9.566   3.989   6.923  0.9642 -0.1162 -0.6910
  974MOL0     H28526   9.643   4.089   7.155 -2.7680 -0.3733  0.0428
  974MOL0     H28527   9.671   3.925   7.206 -2.4226 -0.1373  0.6255
  974MOL0     H28528   9.816   4.071   6.986 -5.4796 -0.5550 -1.5530
  974MOL0     H28529   9.846   3.897   7.024 -0.0540  1.1618 -3.2310
  974MOL0     H28530   9.993   4.275   7.121 -0.0039  1.1066  0.0279
  974MOL0     H28531  10.228   4.330   7.047 -3.5920  0.4921 -2.9316
  974MOL0     H28532  10.682   4.271   7.182  0.4005 -0.4590  0.3693
  974MOL0     H28533  10.923   4.298   7.115  0.2624  1.7119 -0.9124
  974MOL0     H28534  11.006   4.473   6.717  2.7209  0.0396 -2.8504
  974MOL0     H28535  10.986   4.297   6.684 -1.0066 -1.0190  2.4040
  974MOL0     H28536  11.200   4.363   6.603 -1.7555 -2.0554 -0.1169
  974MOL0     H28537  11.232   4.281   6.759  0.9065 -1.0965 -1.6546
  974MOL0     H28538  11.237   4.526   6.867 -0.5043 -0.1199 -0.0757
  974MOL0     H28539  11.220   4.585   6.700  1.0173  0.8074 -0.7820
  974MOL0     H28540  11.433   4.382   6.774 -2.6213 -1.8486  0.0886
  974MOL0     H28541  11.426   4.456   6.633  2.3728 -0.7642  0.0335
  974MOL0     H28542  11.595   4.583   6.769  0.6893 -2.3755  1.7150
  974MOL0     H28543  11.491   4.594   6.901  1.6551 -2.2308  0.1120
  974MOL0     H28544  11.334   4.744   6.790 -0.2189 -3.0605  0.3873
  974MOL0     H28545  11.431   4.735   6.646 -1.4478 -0.2604  0.1249
  974MOL0     H28546  11.488   4.943   6.753 -1.1906  1.4785  2.0584
  974MOL0     H28547  11.487   4.876   6.914 -2.0265  0.0724 -0.8321
  974MOL0     H28548  11.705   4.749   6.863 -0.2093  0.4262  2.0177
  974MOL0     H28549  11.704   4.926   6.871 -4.4892  1.3659 -0.0984
  974MOL0     H28550  10.793   4.422   6.723 -0.0622 -0.7919 -1.0963
  974MOL0     H28551  10.557   4.388   6.789  0.6486 -0.3400 -0.1794
  974MOL0     H28552  10.328   3.912   7.054  1.7192  2.1227  3.3091
  974MOL0     H28553  10.102   3.857   7.103  3.1458 -0.3492  1.2653
  974MOL0     H28554   9.445   3.481   6.690 -0.5636 -0.7038 -0.1040
  974MOL0     H28555   9.637   3.609   6.685  1.3330  0.1166  2.6667
  974MOL0     H28556   9.999   3.823   6.840  0.7660  1.1495  0.4126
  974MOL0     H28557  10.194   4.000   6.783 -0.5249  0.6385  0.0477
  974MOL0     H28558  10.487   3.951   6.743  2.0462  1.8509  1.3021
  974MOL0     H28559  10.398   4.103   6.732 -1.0533 -0.8915  0.0788
  974MOL0     H28560  10.530   4.196   6.566  0.0237 -0.5373 -0.6224
  974MOL0     H28561  10.644   4.138   6.686  0.2061  0.8905 -0.3328
  974MOL0     H28562  10.607   3.987   6.442 -0.0822 -0.6665  1.0756
  974MOL0     H28563  10.695   3.939   6.583 -4.0141 -0.2578  1.5038
  974MOL0     H28564  10.759   4.196   6.427  1.5510  1.4234  0.1764
  974MOL0     H28565  10.853   4.125   6.557 -1.4027  0.9390  0.5031
  974MOL0     H28566  10.984   3.890   6.235  2.7372 -1.5557  1.6175
  974MOL0     H28567  10.275   3.782   6.422  1.7098  0.6799  0.4463
  974MOL0     H28568  10.090   3.628   6.479 -0.2103  0.0728 -0.0122
  975MOL0     O28569   5.881   3.996   8.486  1.1403 -0.2076 -0.4686
  975MOL0     C28570   5.852   3.946   8.378  0.3532  0.2840  0.1150
  975MOL0     O28571   5.731   3.876   8.358 -0.2933 -0.4715  0.4624
  975MOL0     C28572   5.634   3.906   8.443  0.0937  0.0391 -1.0818
  975MOL0     C28573   5.505   3.949   8.405  0.1739  0.4081 -0.4577
  975MOL0     C28574   5.393   3.961   8.489  0.1032  0.4341 -0.3205
  975MOL0     C28575   5.410   3.904   8.616 -0.4648 -0.3472 -0.5157
  975MOL0     O28576   5.305   3.884   8.700  0.0515  1.0978  0.1759
  975MOL0     C28577   5.174   3.869   8.638 -0.4175 -0.2789 -0.0573
  975MOL0     C28578   5.072   3.836   8.743  0.1732  0.0986  1.3396
  975MOL0     C28579   4.944   3.804   8.675 -0.5975  0.3417  0.3685
  975MOL0     C28580   4.849   3.731   8.762 -0.4633  0.5274 -0.2738
  975MOL0     C28581   4.699   3.756   8.723  0.7197 -0.9903  0.8860
  975MOL0     C28582   4.610   3.656   8.802 -1.1890 -0.8653 -0.0400
  975MOL0     C28583   4.470   3.706   8.799  0.5125 -0.3695  0.3266
  975MOL0     C28584   4.378   3.602   8.848  0.5978 -0.6094  0.4726
  975MOL0     N28585   4.242   3.670   8.838  0.1156 -0.0446 -0.1620
  975MOL0     C28586   4.180   3.696   8.714 -0.6963  0.4067 -0.3465
  975MOL0     C28587   4.058   3.701   8.748  0.3329  0.4074 -0.4070
  975MOL0     C28588   3.956   3.719   8.652 -0.0375  0.1523  1.5496
  975MOL0     C28589   3.815   3.695   8.712  0.2379 -0.2027  0.0775
  975MOL0     C28590   3.714   3.742   8.609 -0.0368  0.4742  0.5706
  975MOL0     C28591   3.566   3.721   8.662 -0.5096  1.0122 -0.7432
  975MOL0     O28592   3.550   3.583   8.678  0.2068 -0.5266 -0.0622
  975MOL0     C28593   3.425   3.543   8.720  0.1506  0.0477 -0.9572
  975MOL0     C28594   3.316   3.627   8.754  0.2565 -0.3876  0.5552
  975MOL0     C28595   3.189   3.575   8.789 -0.3762 -0.4956 -0.3920
  975MOL0     C28596   3.157   3.440   8.767 -0.5298  0.0089  0.0509
  975MOL0     C28597   3.024   3.374   8.766 -0.7607  0.0974 -0.3448
  975MOL0     O28598   3.022   3.248   8.817  0.4166  0.3285 -0.2574
  975MOL0     C28599   2.910   3.163   8.793  0.0930  1.1277 -0.3716
  975MOL0     C28600   2.843   3.158   8.673 -0.3742 -0.4543  0.1687
  975MOL0     C28601   2.743   3.069   8.645  0.6144  0.8616 -0.0870
  975MOL0     C28602   2.707   2.974   8.750  0.4906 -0.0766  0.3776
  975MOL0     O28603   2.591   2.900   8.752  0.2919 -0.0286  0.5724
  975MOL0     C28604   2.477   2.925   8.659  0.2143 -0.4902  0.2621
  975MOL0     C28605   2.370   2.832   8.705  0.0000  0.5284  0.0443
  975MOL0     C28606   2.265   2.809   8.593  0.3005  0.5354  0.0731
  975MOL0     C28607   2.149   2.723   8.650  0.1138 -0.4562  0.0228
  975MOL0     C28608   2.057   2.689   8.531 -0.6725  0.3693  0.4954
  975MOL0     C28609   1.940   2.611   8.581 -0.1523  0.4288 -0.4968
  975MOL0     C28610   1.822   2.602   8.477  0.5878  0.2485  0.2384
  975MOL0     C28611   1.763   2.738   8.449  0.2515  0.2507  0.1093
  975MOL0    Cl28612   1.610   2.730   8.362  0.1774 -0.3861 -0.2076
  975MOL0     C28613   2.771   2.970   8.871 -0.8072 -0.5729 -0.5331
  975MOL0     C28614   2.878   3.064   8.888  0.2863 -0.0457 -0.7542
  975MOL0     O28615   2.924   3.446   8.742  0.2639 -0.1103  0.0045
  975MOL0     C28616   3.268   3.361   8.733  0.2376 -0.2422  0.2643
  975MOL0     C28617   3.395   3.411   8.703 -0.0237 -0.2675 -0.2826
  975MOL0     N28618   4.038   3.687   8.883 -0.0756 -0.0640 -0.4215
  975MOL0     N28619   4.152   3.674   8.937 -0.7961  0.1736 -0.1949
  975MOL0     C28620   5.538   3.857   8.656 -0.0436 -0.1976  0.2111
  975MOL0     C28621   5.650   3.862   8.572  1.1569  0.2332  0.6698
  975MOL0     C28622   5.958   3.944   8.283 -0.6134  0.4441  1.2035
  975MOL0     C28623   6.085   3.996   8.319 -0.7902 -0.0839  0.5696
  975MOL0     C28624   6.194   4.006   8.225  0.3224 -0.4138 -0.2505
  975MOL0     C28625   6.178   3.951   8.095  0.2504 -0.3776  0.1172
  975MOL0     O28626   6.278   3.955   7.998 -0.3150 -0.0603  0.3528
  975MOL0     C28627   6.343   3.826   7.982 -0.2226 -0.2797  0.5947
  975MOL0     C28628   6.489   3.852   8.011  0.0501  0.3785  0.1051
  975MOL0     C28629   6.562   3.955   7.923 -0.3464  0.3896 -0.5822
  975MOL0     C28630   6.717   3.947   7.944  0.5288  0.2897 -0.2649
  975MOL0     C28631   6.793   3.880   7.844 -0.6704  0.5162  0.3718
  975MOL0     C28632   6.869   3.822   7.766 -1.1871 -0.3206  0.7209
  975MOL0     C28633   6.050   3.891   8.066  0.3641 -0.3038 -0.5072
  975MOL0     C28634   5.937   3.889   8.155  0.0398 -0.0783 -0.1834
  975MOL0     H28635   5.483   3.970   8.301  0.7256  1.8720 -0.3007
  975MOL0     H28636   5.298   4.003   8.457 -1.0568 -1.1407  0.8684
  975MOL0     H28637   5.175   3.797   8.556  2.1935 -0.6867  0.2443
  975MOL0     H28638   5.141   3.966   8.601 -2.6761 -0.2802  1.7066
  975MOL0     H28639   5.056   3.921   8.810 -1.1801  1.2431 -0.3383
  975MOL0     H28640   5.107   3.754   8.806  1.5861  0.8286  1.5521
  975MOL0     H28641   4.969   3.732   8.597  0.6721  1.8421 -0.6718
  975MOL0     H28642   4.904   3.893   8.626 -1.2424 -1.0206 -1.7361
  975MOL0     H28643   4.865   3.624   8.747 -0.4730  0.3213  1.0921
  975MOL0     H28644   4.864   3.756   8.867  2.2718  2.3230 -0.9691
  975MOL0     H28645   4.683   3.736   8.617  2.0140 -1.4591  0.7580
  975MOL0     H28646   4.683   3.861   8.748 -0.9714 -1.2628  1.0374
  975MOL0     H28647   4.657   3.652   8.901  0.6896  0.1708 -0.8369
  975MOL0     H28648   4.622   3.552   8.773  0.7522 -1.3007  2.0057
  975MOL0     H28649   4.473   3.798   8.858 -0.8999 -0.0933  0.0068
  975MOL0     H28650   4.435   3.738   8.700 -0.8675  2.8200  1.7159
  975MOL0     H28651   4.399   3.580   8.953  4.0861 -3.3063 -0.5806
  975MOL0     H28652   4.379   3.511   8.787  1.0700  1.3476 -2.6838
  975MOL0     H28653   4.216   3.694   8.612 -2.7622  1.9382 -1.1594
  975MOL0     H28654   3.974   3.650   8.569 -0.7579 -1.9493  3.0636
  975MOL0     H28655   3.955   3.822   8.615 -2.3098 -0.2149  0.3986
  975MOL0     H28656   3.801   3.750   8.805  2.4032  3.5905 -1.5833
  975MOL0     H28657   3.810   3.587   8.730 -2.1459 -0.7911 -3.2421
  975MOL0     H28658   3.727   3.847   8.583  0.7751  0.1735 -0.2950
  975MOL0     H28659   3.725   3.685   8.516  0.0978  0.0137  0.8683
  975MOL0     H28660   3.496   3.766   8.592 -1.4579 -0.3456 -0.7018
  975MOL0     H28661   3.558   3.775   8.757 -1.3936 -0.6658  0.1809
  975MOL0     H28662   3.331   3.734   8.762  1.5187 -0.5592  0.6021
  975MOL0     H28663   3.115   3.651   8.812 -0.8079 -1.4011  1.3349
  975MOL0     H28664   2.871   3.224   8.591 -1.8175 -0.5641 -0.4367
  975MOL0     H28665   2.702   3.072   8.544  1.7936  1.6636 -0.5755
  975MOL0     H28666   2.499   2.905   8.554  0.4898  5.1615 -1.0478
  975MOL0     H28667   2.440   3.028   8.659  1.4116 -0.0376 -0.6030
  975MOL0     H28668   2.333   2.888   8.792  1.4927  1.4621  0.1205
  975MOL0     H28669   2.415   2.735   8.729  1.2018  0.6281 -1.6229
  975MOL0     H28670   2.321   2.752   8.518 -1.3695  0.6467 -1.3254
  975MOL0     H28671   2.223   2.902   8.555 -0.3093  1.1978  2.2460
  975MOL0     H28672   2.198   2.638   8.698  1.8090 -0.4713 -1.6083
  975MOL0     H28673   2.094   2.781   8.725  0.1702 -0.7026  0.2542
  975MOL0     H28674   2.123   2.640   8.458  1.4493  3.3838  0.2298
  975MOL0     H28675   2.019   2.783   8.490  1.5907  3.3653  4.5584
  975MOL0     H28676   1.897   2.659   8.669  0.4676  1.3693 -0.6926
  975MOL0     H28677   1.958   2.508   8.610 -3.9574 -0.2694 -0.0004
  975MOL0     H28678   1.859   2.557   8.384 -1.7876 -2.7516  0.5682
  975MOL0     H28679   1.743   2.539   8.518  0.2328  0.9253  0.5979
  975MOL0     H28680   1.821   2.805   8.385 -0.5676  0.5999 -0.2833
  975MOL0     H28681   1.739   2.786   8.544 -2.9988 -0.0100 -0.4676
  975MOL0     H28682   2.755   2.903   8.955  1.2856 -2.5893 -1.6363
  975MOL0     H28683   2.939   3.059   8.978  1.2082  0.3012 -1.3494
  975MOL0     H28684   3.248   3.255   8.721  1.5299 -0.4202 -0.6269
  975MOL0     H28685   3.473   3.346   8.663  0.9322  2.4070 -3.1360
  975MOL0     H28686   5.544   3.803   8.750 -2.1608  1.9249  1.6469
  975MOL0     H28687   5.734   3.818   8.624 -1.9404 -2.6086  3.7735
  975MOL0     H28688   6.092   4.035   8.420 -0.4279  0.3046  0.3974
  975MOL0     H28689   6.295   4.043   8.241  0.2614  0.4831 -1.7891
  975MOL0     H28690   6.331   3.791   7.879 -2.1686 -1.9714  1.3198
  975MOL0     H28691   6.300   3.742   8.038 -0.3391  1.0191  2.5308
  975MOL0     H28692   6.488   3.884   8.116 -1.0541 -0.9865  0.5583
  975MOL0     H28693   6.547   3.759   8.007 -0.9241 -0.2495  0.2960
  975MOL0     H28694   6.527   4.048   7.969 -1.6926  0.0129 -0.8103
  975MOL0     H28695   6.519   3.973   7.824  0.9698  0.4431 -1.1644
  975MOL0     H28696   6.762   4.044   7.969 -0.6712  0.8407 -0.1422
  975MOL0     H28697   6.739   3.880   8.027 -1.6043  1.5129  1.3783
  975MOL0     H28698   6.924   3.755   7.703 -1.0868  0.4250  0.0103
  975MOL0     H28699   6.031   3.849   7.968  0.2709  0.4615 -0.8220
  975MOL0     H28700   5.841   3.853   8.119  0.3470  1.1382 -2.3523
  976MOL0     O28701   7.520   0.803   5.160  0.0714 -0.2705 -0.0453
  976MOL0     C28702   7.624   0.749   5.205  0.3447 -0.1445 -1.1120
  976MOL0     O28703   7.661   0.624   5.185  0.1598  0.4304  0.0085
  976MOL0     C28704   7.570   0.525   5.140 -0.2369 -0.0150  0.1237
  976MOL0     C28705   7.440   0.515   5.181 -0.0223 -0.3734  0.0361
  976MOL0     C28706   7.362   0.410   5.142  0.2227  0.0292 -0.9988
  976MOL0     C28707   7.407   0.307   5.066  0.0281  0.2599 -0.3614
  976MOL0     O28708   7.334   0.193   5.040  0.2737  0.4160  0.7144
  976MOL0     C28709   7.228   0.154   5.128  0.2405 -0.6373 -0.9372
  976MOL0     C28710   7.165   0.031   5.078 -0.2239  1.1447 -0.5575
  976MOL0     C28711   7.035  -0.004   5.162 -1.5147 -0.2969  0.3043
  976MOL0     C28712   7.077  -0.036   5.296 -0.1413  0.1671 -0.1876
  976MOL0     C28713   6.973  -0.119   5.373  0.6772 -0.0958  1.2600
  976MOL0     C28714   6.846  -0.038   5.397 -0.1372  0.5793  0.2101
  976MOL0     C28715   6.767  -0.118   5.499 -0.3585  0.3037  1.1195
  976MOL0     C28716   6.628  -0.052   5.545 -1.0996  0.7370  1.8363
  976MOL0     N28717   6.650   0.050   5.644 -0.4951  0.9344  0.7474
  976MOL0     C28718   6.661   0.033   5.778  0.6477 -0.2597  0.1917
  976MOL0     C28719   6.665   0.155   5.821 -0.3526 -0.4270 -0.1002
  976MOL0     C28720   6.679   0.197   5.965 -0.3010 -0.3831 -0.3108
  976MOL0     C28721   6.551   0.175   6.042  0.5568 -0.3140 -0.2916
  976MOL0     C28722   6.574   0.210   6.193 -0.6390 -0.1923  0.3256
  976MOL0     C28723   6.452   0.177   6.285 -0.1347  0.3175  0.0149
  976MOL0     O28724   6.345   0.270   6.241  0.1098  0.0580 -0.5706
  976MOL0     C28725   6.220   0.213   6.214  0.3981  0.4272  0.1949
  976MOL0     C28726   6.131   0.274   6.121 -0.3564 -0.1228  0.9945
  976MOL0     C28727   6.007   0.206   6.085  0.5715  0.0062 -0.5170
  976MOL0     C28728   5.974   0.082   6.137  0.3145 -0.0078 -0.4657
  976MOL0     C28729   5.840   0.028   6.101 -0.4754  0.4832  0.6895
  976MOL0     O28730   5.768   0.082   5.997 -0.4476 -0.3209 -0.4381
  976MOL0     C28731   5.639   0.046   5.974 -0.4845 -0.3699  0.3876
  976MOL0     C28732   5.606  -0.087   5.942 -0.0311 -0.3352  0.5526
  976MOL0     C28733   5.472  -0.117   5.915  0.9915 -0.7866 -0.9194
  976MOL0     C28734   5.372  -0.014   5.918  0.1188  0.5062 -0.4549
  976MOL0     O28735   5.235  -0.035   5.892 -0.5915  0.1660  0.7155
  976MOL0     C28736   5.179  -0.145   5.965 -0.4642 -0.4606  0.3721
  976MOL0     C28737   5.024  -0.132   5.958 -0.1210 -0.3199  1.0014
  976MOL0     C28738   4.947  -0.232   6.036  0.1560  0.0178  0.1341
  976MOL0     C28739   4.808  -0.168   6.050  0.1217 -0.0203 -1.0667
  976MOL0     C28740   4.709  -0.276   6.102 -0.8636 -0.0897  1.1982
  976MOL0     C28741   4.572  -0.207   6.085 -0.5031  0.5885 -0.0691
  976MOL0     C28742   4.451  -0.304   6.087 -0.3069  0.1723  0.1324
  976MOL0     C28743   4.326  -0.217   6.072 -0.4348 -0.3126 -0.2274
  976MOL0    Cl28744   4.197  -0.331   6.015  0.3632 -0.6700 -0.1085
  976MOL0     C28745   5.406   0.113   5.957 -0.3633  0.3713  0.4018
  976MOL0     C28746   5.539   0.145   5.978 -0.5094  0.6471  0.6676
  976MOL0     O28747   5.799  -0.057   6.182 -0.3962 -0.3349 -0.6392
  976MOL0     C28748   6.059   0.015   6.228 -0.6144 -0.3553 -0.4872
  976MOL0     C28749   6.185   0.084   6.259  0.4589  0.2482 -0.2636
  976MOL0     N28750   6.649   0.248   5.722 -0.2437 -0.6163 -0.4970
  976MOL0     N28751   6.648   0.185   5.614  0.3658  0.0588  0.9479
  976MOL0     C28752   7.539   0.303   5.026 -0.1017  0.1662  0.3283
  976MOL0     C28753   7.621   0.415   5.063 -0.0027 -1.2191  0.2393
  976MOL0     C28754   7.724   0.840   5.264  0.5048  0.1245  0.5703
  976MOL0     C28755   7.820   0.777   5.335 -0.1679  0.1830  0.1420
  976MOL0     C28756   7.920   0.857   5.392  0.6772 -0.0441  0.1166
  976MOL0     C28757   7.913   0.997   5.395 -0.3939  0.3336  0.7090
  976MOL0     O28758   8.014   1.057   5.467  0.3949  0.3479  0.0051
  976MOL0     C28759   8.029   1.197   5.467 -0.3722 -0.5097  0.1376
  976MOL0     C28760   8.159   1.226   5.541 -0.2144  0.3439 -0.5409
  976MOL0     C28761   8.277   1.261   5.442 -0.2447 -0.5920 -0.2333
  976MOL0     C28762   8.410   1.273   5.511 -0.1272 -0.8786 -0.0950
  976MOL0     C28763   8.421   1.400   5.590 -0.0734  0.4658 -0.3448
  976MOL0     C28764   8.439   1.492   5.662 -0.0238  0.1205  0.5088
  976MOL0     C28765   7.810   1.056   5.324  0.8447  0.1920 -0.6470
  976MOL0     C28766   7.716   0.982   5.257 -0.0073  0.0239 -0.5973
  976MOL0     H28767   7.394   0.593   5.241  2.0042  2.3325 -1.6842
  976MOL0     H28768   7.256   0.402   5.164  0.2671  0.2741 -0.6963
  976MOL0     H28769   7.141   0.220   5.134 -2.4517 -4.0530  2.7019
  976MOL0     H28770   7.270   0.145   5.229 -3.5551  2.1314  1.1377
  976MOL0     H28771   7.231  -0.056   5.082 -0.4305  0.9535 -1.2250
  976MOL0     H28772   7.137   0.047   4.974  1.1342  2.9583 -0.6865
  976MOL0     H28773   6.982  -0.088   5.116 -0.7727 -0.7106  0.1856
  976MOL0     H28774   6.972   0.085   5.162 -0.1652  0.6969  0.2330
  976MOL0     H28775   7.160  -0.107   5.300  1.4430  1.9919  0.5101
  976MOL0     H28776   7.093   0.048   5.364  1.1575 -2.0942  2.4860
  976MOL0     H28777   7.008  -0.152   5.471 -1.6607 -1.4070  1.7149
  976MOL0     H28778   6.950  -0.204   5.309  1.0458  1.3703 -0.9510
  976MOL0     H28779   6.783  -0.014   5.311 -0.6079  1.3992  0.7780
  976MOL0     H28780   6.867   0.057   5.447 -1.9840  2.4253 -2.2490
  976MOL0     H28781   6.748  -0.221   5.466  0.5750  0.0686  1.2970
  976MOL0     H28782   6.829  -0.131   5.588  1.0443 -3.1354 -0.1895
  976MOL0     H28783   6.558  -0.128   5.582  0.3889 -2.4974 -1.3552
  976MOL0     H28784   6.576  -0.014   5.456  1.8261 -2.5459 -1.5931
  976MOL0     H28785   6.657  -0.056   5.839  1.4429 -0.4107  0.0386
  976MOL0     H28786   6.695   0.305   5.957 -0.3724 -0.2256  1.2584
  976MOL0     H28787   6.770   0.155   6.010  0.3629  1.8359  0.5414
  976MOL0     H28788   6.522   0.071   6.027  4.6314 -1.7059  0.0240
  976MOL0     H28789   6.475   0.245   6.007 -0.4092 -0.6318  1.0644
  976MOL0     H28790   6.658   0.151   6.232 -1.3482 -2.1194 -0.9289
  976MOL0     H28791   6.597   0.316   6.204 -2.6816  0.4085 -0.8306
  976MOL0     H28792   6.459   0.191   6.394 -4.9116  2.6517  0.3084
  976MOL0     H28793   6.443   0.070   6.268 -2.3152  0.4377  0.1167
  976MOL0     H28794   6.136   0.370   6.070 -1.3496  0.6584  2.2923
  976MOL0     H28795   5.950   0.254   6.006  0.6771  0.5872 -0.2422
  976MOL0     H28796   5.674  -0.171   5.937  0.1684 -0.1974  0.8950
  976MOL0     H28797   5.455  -0.218   5.879  0.2928 -0.2041 -2.3162
  976MOL0     H28798   5.225  -0.143   6.064  1.3127 -0.6809 -0.4144
  976MOL0     H28799   5.202  -0.244   5.923  0.9761 -0.1423  0.3571
  976MOL0     H28800   4.997  -0.143   5.853  2.5846  1.7665 -0.0407
  976MOL0     H28801   4.995  -0.032   5.990 -2.4716 -0.8467  0.6605
  976MOL0     H28802   4.991  -0.268   6.129  2.8635 -1.0695 -1.4508
  976MOL0     H28803   4.937  -0.319   5.971 -0.4924  0.7805 -0.8357
  976MOL0     H28804   4.802  -0.086   6.122 -0.7617 -1.0611  0.0972
  976MOL0     H28805   4.775  -0.141   5.949  1.2000 -0.4148 -1.5409
  976MOL0     H28806   4.739  -0.303   6.204  2.1089 -1.1174  0.1435
  976MOL0     H28807   4.711  -0.369   6.044  0.8777  0.5722  0.1153
  976MOL0     H28808   4.569  -0.164   5.984  0.3255 -0.4028 -0.5371
  976MOL0     H28809   4.570  -0.123   6.156  2.3815  1.6519 -1.0814
  976MOL0     H28810   4.457  -0.361   5.994  0.5694  0.2446  0.1380
  976MOL0     H28811   4.453  -0.356   6.183  0.9592  0.0442  0.0539
  976MOL0     H28812   4.340  -0.135   6.001 -1.7488  2.0604  2.0434
  976MOL0     H28813   4.309  -0.169   6.169  2.3661 -0.5415  0.4522
  976MOL0     H28814   5.330   0.188   5.978 -0.7214 -0.4161  2.1659
  976MOL0     H28815   5.552   0.245   6.016 -3.3681  1.5064 -0.3707
  976MOL0     H28816   6.058  -0.081   6.277  0.7180 -0.2222 -0.1794
  976MOL0     H28817   6.248   0.023   6.323  0.2187  2.2212  2.0083
  976MOL0     H28818   7.585   0.215   4.981  0.6560 -0.3632  2.0577
  976MOL0     H28819   7.727   0.417   5.039  0.4690 -2.6601  1.9466
  976MOL0     H28820   7.835   0.670   5.322  2.2709  0.5569 -0.6816
  976MOL0     H28821   8.002   0.807   5.443  3.9760 -0.5022 -4.9804
  976MOL0     H28822   7.944   1.244   5.518 -2.2213 -2.6345 -0.8614
  976MOL0     H28823   8.039   1.233   5.364  4.6001  1.0203  0.8521
  976MOL0     H28824   8.147   1.319   5.598 -1.5656 -1.1590  1.8322
  976MOL0     H28825   8.187   1.143   5.607  1.3349  0.8030 -0.5671
  976MOL0     H28826   8.253   1.347   5.380  1.6299 -1.4539 -2.2856
  976MOL0     H28827   8.288   1.182   5.367 -0.6457  0.6633 -1.6540
  976MOL0     H28828   8.421   1.189   5.580 -0.7596 -0.8216  0.0819
  976MOL0     H28829   8.490   1.275   5.436  0.6710 -2.8359  0.6311
  976MOL0     H28830   8.465   1.577   5.723  1.4012 -0.0521  0.1852
  976MOL0     H28831   7.811   1.164   5.318 -1.1638  0.3224  0.4639
  976MOL0     H28832   7.635   1.035   5.208  0.4119  0.6143 -0.6622
  977MOL0     O28833   2.059   7.308   1.707  0.5457 -0.2981 -0.0174
  977MOL0     C28834   2.147   7.390   1.688  0.4961 -0.0545  0.3977
  977MOL0     O28835   2.144   7.475   1.572 -0.4930 -0.4465 -0.2833
  977MOL0     C28836   2.050   7.462   1.483  0.3010 -0.0002  0.3990
  977MOL0     C28837   2.053   7.374   1.377 -0.3207 -0.8454 -0.3226
  977MOL0     C28838   1.942   7.343   1.294 -0.4000 -0.6599  0.1804
  977MOL0     C28839   1.823   7.416   1.299 -0.2939  0.3913 -0.2742
  977MOL0     O28840   1.726   7.390   1.208  0.2195 -0.6207 -0.5708
  977MOL0     C28841   1.610   7.471   1.229  0.1567 -0.1062 -0.5198
  977MOL0     C28842   1.520   7.435   1.109 -0.3123  0.1003 -0.8580
  977MOL0     C28843   1.393   7.530   1.102  1.0679  0.9092 -0.3668
  977MOL0     C28844   1.303   7.509   1.227 -0.6066  0.1985  0.3493
  977MOL0     C28845   1.162   7.563   1.197 -0.3746  0.6253  0.1986
  977MOL0     C28846   1.062   7.493   1.277  1.0703 -0.6382 -0.2028
  977MOL0     C28847   0.917   7.543   1.252 -0.3480  0.3203 -0.3314
  977MOL0     C28848   0.811   7.465   1.328 -0.4704 -0.6892 -0.3939
  977MOL0     N28849   0.677   7.509   1.295 -0.0112 -0.6459 -0.6899
  977MOL0     C28850   0.605   7.613   1.356  0.3474 -0.0619 -0.0587
  977MOL0     C28851   0.485   7.609   1.294  0.3631  0.7885 -0.7003
  977MOL0     C28852   0.364   7.690   1.324 -0.1358  0.7387  0.2125
  977MOL0     C28853   0.245   7.608   1.270  0.3208 -0.1318 -0.2643
  977MOL0     C28854   0.104   7.662   1.310 -0.7752 -0.1166 -1.1692
  977MOL0     C28855   0.071   7.805   1.249 -1.0897 -0.4651 -0.8223
  977MOL0     O28856   0.073   7.909   1.353  0.5980  0.2673  0.3589
  977MOL0     C28857  -0.055   7.946   1.396  0.0267  1.1928 -0.2487
  977MOL0     C28858  -0.160   7.854   1.419  0.7543 -0.3783 -0.1583
  977MOL0     C28859  -0.283   7.891   1.471 -0.2698 -0.3472 -0.0970
  977MOL0     C28860  -0.305   8.025   1.494 -1.8286 -0.5623  0.9012
  977MOL0     C28861  -0.437   8.062   1.531  0.1896 -0.5868 -0.4455
  977MOL0     O28862  -0.534   7.965   1.533  1.0442  0.0980  0.0350
  977MOL0     C28863  -0.650   7.982   1.605 -0.4725  0.7094 -1.1395
  977MOL0     C28864  -0.653   8.042   1.733  0.5641 -0.0839  0.9459
  977MOL0     C28865  -0.772   8.030   1.808  0.0628 -0.5340 -0.3646
  977MOL0     C28866  -0.884   7.953   1.766  0.0856  0.2956  0.9852
  977MOL0     O28867  -0.990   7.915   1.849 -0.4926  0.2210  0.4044
  977MOL0     C28868  -1.027   8.007   1.953  0.0814  0.5145  0.0270
  977MOL0     C28869  -1.147   7.970   2.034  0.2114  0.2863  0.4340
  977MOL0     C28870  -1.275   7.945   1.956 -0.6305 -0.3624  0.2084
  977MOL0     C28871  -1.385   7.949   2.065  0.0141  1.1179 -0.6075
  977MOL0     C28872  -1.529   7.959   2.014 -0.6929  0.3879 -0.9522
  977MOL0     C28873  -1.564   7.855   1.904 -0.7334 -0.0340 -0.0436
  977MOL0     C28874  -1.703   7.860   1.852  0.1781 -0.1910 -0.2068
  977MOL0     C28875  -1.718   7.780   1.720  0.6258  1.0649 -0.2464
  977MOL0    Cl28876  -1.661   7.597   1.741 -0.1811 -0.5001 -0.3684
  977MOL0     C28877  -0.877   7.898   1.637  0.4259  0.0133  0.0032
  977MOL0     C28878  -0.769   7.919   1.554  0.2224 -0.1181  0.1047
  977MOL0     O28879  -0.448   8.183   1.558  0.1701 -0.1461 -0.4763
  977MOL0     C28880  -0.204   8.119   1.468 -0.3844 -0.6847 -0.5081
  977MOL0     C28881  -0.079   8.080   1.416 -0.0690 -0.1467  1.1886
  977MOL0     N28882   0.499   7.521   1.187 -0.1309 -0.0201  0.1961
  977MOL0     N28883   0.614   7.459   1.196 -0.0910  0.0886 -0.3702
  977MOL0     C28884   1.817   7.498   1.412  0.3901  0.3530 -0.0146
  977MOL0     C28885   1.922   7.517   1.499  0.5140 -0.3013 -0.4416
  977MOL0     C28886   2.244   7.407   1.794 -0.3852  0.0057  0.2130
  977MOL0     C28887   2.325   7.514   1.790  0.2127  0.8840  0.5322
  977MOL0     C28888   2.421   7.536   1.889 -0.2314 -0.3423  0.1281
  977MOL0     C28889   2.436   7.448   1.996  0.5910  0.7103 -0.9082
  977MOL0     O28890   2.517   7.471   2.104  0.0597 -0.2203 -0.5790
  977MOL0     C28891   2.569   7.374   2.193 -0.1953 -0.0215 -0.0681
  977MOL0     C28892   2.690   7.302   2.122 -0.1998 -0.6984 -0.0498
  977MOL0     C28893   2.829   7.354   2.183  0.7040 -0.3321  0.4700
  977MOL0     C28894   2.949   7.298   2.113 -0.3478 -0.2548 -0.0438
  977MOL0     C28895   2.951   7.148   2.104 -0.2185  0.3898 -0.2310
  977MOL0     C28896   2.960   7.022   2.087  0.4780 -0.0964 -0.5550
  977MOL0     C28897   2.346   7.338   2.004  0.2874 -0.3937  1.0699
  977MOL0     C28898   2.254   7.315   1.903 -0.0305  0.1015 -0.0746
  977MOL0     H28899   2.143   7.320   1.353 -0.1141 -1.0066  0.7661
  977MOL0     H28900   1.968   7.276   1.213  2.4453  1.1893 -0.6105
  977MOL0     H28901   1.639   7.576   1.225 -2.9500  0.8270 -0.6924
  977MOL0     H28902   1.567   7.458   1.328 -2.9471  1.9127 -1.4598
  977MOL0     H28903   1.481   7.333   1.113  0.6966 -0.2615  1.9345
  977MOL0     H28904   1.575   7.437   1.014 -0.2705  0.4135 -0.8305
  977MOL0     H28905   1.336   7.497   1.015 -0.1710 -1.2540  1.1414
  977MOL0     H28906   1.422   7.634   1.083  2.1287  0.1261 -3.5880
  977MOL0     H28907   1.294   7.402   1.248  0.2021  0.4479  2.1477
  977MOL0     H28908   1.352   7.558   1.312  0.6840  0.2208 -0.4000
  977MOL0     H28909   1.127   7.554   1.094  1.5474 -2.4781 -0.3125
  977MOL0     H28910   1.168   7.669   1.225  0.9014 -0.0588  2.8755
  977MOL0     H28911   1.080   7.505   1.385 -3.2562 -1.7274  0.8398
  977MOL0     H28912   1.059   7.384   1.260 -1.0653 -0.5400 -0.6928
  977MOL0     H28913   0.920   7.646   1.288 -0.3676  0.7537 -1.5190
  977MOL0     H28914   0.907   7.538   1.143 -3.1310 -0.6879 -0.1081
  977MOL0     H28915   0.826   7.475   1.436 -2.6063 -2.5889  0.1601
  977MOL0     H28916   0.812   7.357   1.308 -0.1861 -1.2955  2.3918
  977MOL0     H28917   0.629   7.681   1.438 -0.5316  1.1529 -0.7737
  977MOL0     H28918   0.363   7.789   1.277  0.4198 -0.2405 -2.0051
  977MOL0     H28919   0.353   7.702   1.432 -0.1658 -0.6467  0.3843
  977MOL0     H28920   0.255   7.500   1.288 -1.6882 -0.5481 -1.3646
  977MOL0     H28921   0.254   7.620   1.162  2.3981  1.6625  0.0539
  977MOL0     H28922   0.031   7.591   1.271  0.1395 -1.1146 -1.1212
  977MOL0     H28923   0.084   7.669   1.417  2.5914 -2.6252 -0.2105
  977MOL0     H28924  -0.029   7.790   1.207 -0.5333 -0.8527 -2.0586
  977MOL0     H28925   0.133   7.840   1.166 -0.6718  0.1831 -0.2404
  977MOL0     H28926  -0.142   7.747   1.411  0.6778 -0.5826  1.8124
  977MOL0     H28927  -0.360   7.816   1.487 -0.1522 -0.8444 -1.6582
  977MOL0     H28928  -0.580   8.108   1.779 -2.0985  2.2493  2.1482
  977MOL0     H28929  -0.767   8.061   1.911  1.6050 -4.4334  0.9097
  977MOL0     H28930  -1.037   8.105   1.903  1.8976  0.9460  0.4582
  977MOL0     H28931  -0.946   8.003   2.025 -0.3334 -2.7712  0.4592
  977MOL0     H28932  -1.157   8.057   2.101 -1.5865  0.8528 -0.5142
  977MOL0     H28933  -1.136   7.891   2.109 -2.4138 -0.5336  0.0464
  977MOL0     H28934  -1.274   7.846   1.910  0.9495 -0.5313  0.5365
  977MOL0     H28935  -1.306   8.012   1.875  1.0952  0.9168  0.5330
  977MOL0     H28936  -1.374   7.857   2.124 -0.3470  0.8345 -0.9728
  977MOL0     H28937  -1.360   8.024   2.139 -1.9881 -0.1297  1.4593
  977MOL0     H28938  -1.549   8.061   1.980  0.6100  0.6297 -1.0238
  977MOL0     H28939  -1.594   7.943   2.101  0.2395 -1.0142 -0.4783
  977MOL0     H28940  -1.538   7.753   1.934  1.8729 -1.1629 -5.0014
  977MOL0     H28941  -1.501   7.881   1.818 -0.2097 -1.3154 -0.0740
  977MOL0     H28942  -1.769   7.809   1.923 -0.4929 -0.2249 -0.8437
  977MOL0     H28943  -1.730   7.965   1.839  1.4815  0.0518 -1.1890
  977MOL0     H28944  -1.661   7.824   1.638  0.3467  1.3864 -0.2732
  977MOL0     H28945  -1.821   7.789   1.683  0.5875  1.4153 -0.0613
  977MOL0     H28946  -0.967   7.845   1.605 -0.6339  0.6525  1.7995
  977MOL0     H28947  -0.759   7.874   1.456  0.4017 -1.1099  0.5539
  977MOL0     H28948  -0.217   8.225   1.483 -0.0356 -0.6974 -0.1274
  977MOL0     H28949   0.008   8.143   1.406 -0.7286  0.8136  1.3010
  977MOL0     H28950   1.726   7.549   1.441  0.3556 -1.0104  2.4997
  977MOL0     H28951   1.900   7.575   1.588 -1.3456 -0.4036 -0.7959
  977MOL0     H28952   2.319   7.593   1.716 -0.0904  1.4931  1.1905
  977MOL0     H28953   2.482   7.626   1.888 -0.9473  0.4091  4.4479
  977MOL0     H28954   2.488   7.305   2.218 -1.8626  1.9370  0.1908
  977MOL0     H28955   2.607   7.416   2.287 -2.0373 -1.8733  1.6026
  977MOL0     H28956   2.665   7.198   2.142 -1.5712 -0.8595 -2.2168
  977MOL0     H28957   2.698   7.315   2.013  1.3920 -0.7483  0.0364
  977MOL0     H28958   2.826   7.341   2.291 -1.2278 -1.5619  0.3118
  977MOL0     H28959   2.829   7.462   2.163  1.0133 -0.5437 -0.7723
  977MOL0     H28960   2.955   7.340   2.012  2.5552  1.0743  0.5733
  977MOL0     H28961   3.033   7.324   2.177  0.1717  0.5917 -1.0445
  977MOL0     H28962   2.974   6.916   2.094  0.1242 -0.0441  2.2221
  977MOL0     H28963   2.341   7.262   2.081 -0.8207 -0.7362  0.6822
  977MOL0     H28964   2.196   7.224   1.892  0.1910 -0.0339 -0.1463
  978MOL0     O28965   2.953   8.682   0.652 -0.4868 -0.2400 -0.2275
  978MOL0     C28966   2.921   8.596   0.563 -0.6931 -0.1220  0.6714
  978MOL0     O28967   2.991   8.563   0.453 -0.3518  0.2361  0.1676
  978MOL0     C28968   3.096   8.644   0.411  0.8227 -0.3241 -0.6227
  978MOL0     C28969   3.087   8.787   0.421 -0.6656  0.4855 -0.2235
  978MOL0     C28970   3.192   8.860   0.356  0.4578 -0.3088 -0.4881
  978MOL0     C28971   3.307   8.801   0.305 -0.1993 -1.1804 -0.1029
  978MOL0     O28972   3.393   8.897   0.253  0.0720 -0.4086 -0.1253
  978MOL0     C28973   3.503   8.836   0.182 -0.1360  0.1959 -0.1782
  978MOL0     C28974   3.598   8.935   0.126  0.5346  0.1573 -0.6003
  978MOL0     C28975   3.702   8.869   0.049 -0.8831  0.1222  0.6488
  978MOL0     C28976   3.806   8.967   0.005 -0.1179 -0.6053  0.1590
  978MOL0     C28977   3.911   8.897  -0.079  0.6797  0.6242 -0.2738
  978MOL0     C28978   4.040   8.987  -0.081 -0.1300  0.3753  0.3335
  978MOL0     C28979   4.141   8.932  -0.181 -0.3068 -0.0780  0.8530
  978MOL0     C28980   4.277   9.013  -0.185  0.7362  0.2800 -0.7197
  978MOL0     N28981   4.267   9.125  -0.280 -0.3490 -0.6811  0.0849
  978MOL0     C28982   4.210   9.248  -0.257 -0.0913 -0.0165  0.2281
  978MOL0     C28983   4.222   9.297  -0.382  0.1235 -1.2369 -1.0339
  978MOL0     C28984   4.175   9.439  -0.416  0.4375 -0.2252  0.1388
  978MOL0     C28985   4.049   9.439  -0.491 -0.4169  0.0276  0.2769
  978MOL0     C28986   3.929   9.390  -0.394  0.1754 -0.2562 -0.6121
  978MOL0     C28987   3.795   9.414  -0.463 -0.1541  0.6098 -0.3975
  978MOL0     O28988   3.697   9.365  -0.369 -0.1550 -0.5406  0.4529
  978MOL0     C28989   3.565   9.388  -0.395  0.1447  0.4541 -0.5207
  978MOL0     C28990   3.512   9.438  -0.514 -0.1254  0.1242 -0.0143
  978MOL0     C28991   3.378   9.459  -0.540 -0.2597  0.7562 -0.3336
  978MOL0     C28992   3.289   9.413  -0.440  0.7054  1.3900 -1.2389
  978MOL0     C28993   3.140   9.417  -0.452 -0.7003 -0.3970  0.7270
  978MOL0     O28994   3.067   9.345  -0.355  0.0641  0.0082  0.2094
  978MOL0     C28995   2.945   9.303  -0.401  0.1802  0.1360 -0.5759
  978MOL0     C28996   2.842   9.360  -0.336  0.1289 -0.8378  0.6006
  978MOL0     C28997   2.710   9.327  -0.369 -0.6331 -0.3460 -0.0962
  978MOL0     C28998   2.689   9.229  -0.471  0.4448  0.6605  0.5348
  978MOL0     O28999   2.566   9.178  -0.512 -0.2901  0.5205  0.1023
  978MOL0     C29000   2.451   9.228  -0.438  0.1615 -0.1578 -0.5732
  978MOL0     C29001   2.327   9.163  -0.502 -0.6476 -0.1017 -0.3084
  978MOL0     C29002   2.193   9.190  -0.442 -0.3280 -0.7860  0.0139
  978MOL0     C29003   2.178   9.156  -0.296  0.5826 -0.3264  0.0374
  978MOL0     C29004   2.030   9.134  -0.263  0.3208  0.3053 -0.4369
  978MOL0     C29005   1.952   9.268  -0.273  0.1548 -0.1149 -0.0229
  978MOL0     C29006   1.795   9.253  -0.258  0.0808 -0.1248  0.0804
  978MOL0     C29007   1.720   9.379  -0.291 -0.0206 -0.5514  0.3558
  978MOL0    Cl29008   1.552   9.350  -0.265  0.0797 -0.2944  0.0463
  978MOL0     C29009   2.799   9.159  -0.524  0.3668  0.5612 -0.5313
  978MOL0     C29010   2.927   9.204  -0.492  0.5053 -0.4329 -0.0911
  978MOL0     O29011   3.086   9.475  -0.549 -0.0774 -0.3397  0.3203
  978MOL0     C29012   3.341   9.362  -0.308 -0.5589  0.2380  1.0169
  978MOL0     C29013   3.479   9.357  -0.287  0.3802  0.6550  0.1012
  978MOL0     N29014   4.271   9.205  -0.473 -0.1680  0.1298 -0.2684
  978MOL0     N29015   4.298   9.104  -0.408  0.4527 -0.0629  0.2842
  978MOL0     C29016   3.314   8.661   0.294  0.8388  0.7184 -0.6144
  978MOL0     C29017   3.208   8.585   0.347 -0.1937 -0.0150  0.3252
  978MOL0     C29018   2.800   8.522   0.584 -0.0516  0.4019  0.6943
  978MOL0     C29019   2.750   8.431   0.486 -0.6265 -0.7925  0.3477
  978MOL0     C29020   2.626   8.373   0.509  0.8006  0.6343 -1.0829
  978MOL0     C29021   2.544   8.395   0.624  0.4255  0.5221 -1.0831
  978MOL0     O29022   2.412   8.350   0.644 -0.0735  0.6237 -0.0842
  978MOL0     C29023   2.373   8.221   0.593  0.3911 -0.3240  0.3748
  978MOL0     C29024   2.352   8.126   0.714  0.8231 -0.1958  0.2175
  978MOL0     C29025   2.345   7.974   0.685  0.9627 -0.4078  0.5647
  978MOL0     C29026   2.308   7.895   0.815 -0.0573  0.4181  0.6553
  978MOL0     C29027   2.413   7.909   0.919 -0.3212  0.7311 -1.0476
  978MOL0     C29028   2.509   7.920   0.991  0.5857 -0.6826 -1.1800
  978MOL0     C29029   2.594   8.489   0.714  0.1273  0.9741 -0.5036
  978MOL0     C29030   2.719   8.550   0.694  0.2818 -0.1251  0.1279
  978MOL0     H29031   3.007   8.841   0.469 -0.7752  0.1708 -0.0492
  978MOL0     H29032   3.194   8.969   0.352  1.6382 -0.2158  1.3625
  978MOL0     H29033   3.467   8.778   0.096  0.8967 -0.4341 -0.2023
  978MOL0     H29034   3.569   8.777   0.247  1.5581  0.8741 -1.2066
  978MOL0     H29035   3.634   9.004   0.204 -2.6871 -0.0010  1.2009
  978MOL0     H29036   3.534   8.996   0.061  1.4191 -1.2442 -2.9058
  978MOL0     H29037   3.649   8.842  -0.043  1.8483 -0.9529 -0.7117
  978MOL0     H29038   3.737   8.779   0.102  0.3372 -0.6407 -1.3539
  978MOL0     H29039   3.757   9.046  -0.052 -0.3355 -0.2533  0.8280
  978MOL0     H29040   3.853   9.019   0.089  2.6972 -1.8929 -0.4946
  978MOL0     H29041   3.875   8.874  -0.179  1.2316  0.2473 -0.3885
  978MOL0     H29042   3.936   8.800  -0.034  0.2533  0.0774 -1.1863
  978MOL0     H29043   4.094   8.997   0.013  3.1198 -0.2508 -1.3261
  978MOL0     H29044   4.010   9.088  -0.112  2.4271  1.6367  1.7366
  978MOL0     H29045   4.170   8.838  -0.133 -1.2605 -0.4561  0.6931
  978MOL0     H29046   4.101   8.897  -0.276 -2.1970  0.0309  1.5669
  978MOL0     H29047   4.367   8.955  -0.206  0.8119  0.7938 -1.9044
  978MOL0     H29048   4.289   9.055  -0.085  0.8172  1.7954 -1.3446
  978MOL0     H29049   4.177   9.288  -0.162 -0.6048  0.6340 -0.2108
  978MOL0     H29050   4.244   9.482  -0.489 -0.0394  0.7122  0.2306
  978MOL0     H29051   4.142   9.499  -0.331 -2.5625 -2.0519  0.4051
  978MOL0     H29052   4.070   9.366  -0.569  1.0958  1.3454 -0.6121
  978MOL0     H29053   4.025   9.536  -0.535 -2.0679 -1.5350 -2.5076
  978MOL0     H29054   3.953   9.285  -0.380  2.4315  0.1682 -0.9989
  978MOL0     H29055   3.934   9.449  -0.302  1.0075  2.7002 -2.4078
  978MOL0     H29056   3.799   9.347  -0.549  2.3620  1.8333 -1.3482
  978MOL0     H29057   3.769   9.518  -0.484 -3.7857 -0.2997 -1.1446
  978MOL0     H29058   3.587   9.464  -0.587 -0.9306 -0.0421 -0.9132
  978MOL0     H29059   3.345   9.494  -0.637  2.3888  0.4272 -1.4247
  978MOL0     H29060   2.855   9.427  -0.251  0.2621 -0.7715  0.5282
  978MOL0     H29061   2.629   9.381  -0.320 -1.9645 -1.9540 -0.4330
  978MOL0     H29062   2.440   9.337  -0.447  0.9641 -0.1253 -1.2882
  978MOL0     H29063   2.453   9.193  -0.335 -0.8854  0.2748 -0.3929
  978MOL0     H29064   2.342   9.055  -0.486  0.7040  0.0259 -0.5619
  978MOL0     H29065   2.325   9.177  -0.610  0.0529 -4.4616 -1.1068
  978MOL0     H29066   2.110   9.145  -0.497 -1.4292  2.3618 -1.1527
  978MOL0     H29067   2.177   9.297  -0.457  1.9656 -0.3521  0.3006
  978MOL0     H29068   2.229   9.063  -0.268  1.5481  0.6592  1.7192
  978MOL0     H29069   2.229   9.238  -0.245  1.1324  0.2675 -1.3940
  978MOL0     H29070   2.014   9.108  -0.158 -0.2597  2.7020  0.1048
  978MOL0     H29071   1.981   9.061  -0.328  2.2683  0.0092 -1.6497
  978MOL0     H29072   1.963   9.306  -0.375  2.9645 -1.1775 -0.2176
  978MOL0     H29073   1.998   9.334  -0.199 -1.1313 -0.2345  0.9272
  978MOL0     H29074   1.755   9.173  -0.320 -3.3294 -0.0053  1.8617
  978MOL0     H29075   1.777   9.230  -0.152 -0.8969 -1.6382 -0.3772
  978MOL0     H29076   1.744   9.402  -0.395 -1.5834  1.4721  0.3756
  978MOL0     H29077   1.770   9.453  -0.229  3.8616 -3.9854  1.7879
  978MOL0     H29078   2.794   9.078  -0.596 -2.7395  0.6639 -0.5462
  978MOL0     H29079   3.017   9.175  -0.545  1.1146  0.7544  0.2572
  978MOL0     H29080   3.265   9.328  -0.238 -1.1212  0.2204  0.4163
  978MOL0     H29081   3.525   9.302  -0.205  0.4618 -1.8858 -1.5166
  978MOL0     H29082   3.407   8.619   0.257  0.8737  1.5159 -1.4763
  978MOL0     H29083   3.223   8.478   0.338  0.9789  0.2285 -1.2343
  978MOL0     H29084   2.811   8.413   0.398  1.3363  4.1524  0.3999
  978MOL0     H29085   2.580   8.317   0.428  0.4924  1.2240 -1.3246
  978MOL0     H29086   2.457   8.171   0.544  0.9090  0.6076  0.2786
  978MOL0     H29087   2.291   8.233   0.522  1.9372 -1.9831 -1.8072
  978MOL0     H29088   2.444   8.136   0.772  1.3132 -2.6353 -0.0206
  978MOL0     H29089   2.267   8.144   0.781 -0.9604 -1.9455 -1.4392
  978MOL0     H29090   2.440   7.945   0.639 -0.0396 -1.2404 -1.0627
  978MOL0     H29091   2.270   7.954   0.608  0.8377 -2.3358  1.1552
  978MOL0     H29092   2.209   7.927   0.847 -0.1053  1.1660 -0.1946
  978MOL0     H29093   2.290   7.792   0.784  0.0825  0.0157  1.8642
  978MOL0     H29094   2.593   7.914   1.059 -0.3459  0.2768  0.1059
  978MOL0     H29095   2.539   8.506   0.805  1.3536 -0.7680  0.6334
  978MOL0     H29096   2.760   8.615   0.771  0.7019 -4.2568  3.7747
  979MOL0     O29097   8.832   7.179   6.133  0.2478  0.2709  0.3496
  979MOL0     C29098   8.856   7.142   6.019 -0.1953 -0.3896 -0.5697
  979MOL0     O29099   8.767   7.138   5.918  0.2382  0.2980  0.2068
  979MOL0     C29100   8.638   7.168   5.958  0.0035  0.2840  0.4747
  979MOL0     C29101   8.594   7.297   5.945  0.2330 -0.0070 -0.9499
  979MOL0     C29102   8.472   7.328   6.001 -0.0687 -0.3791 -1.0714
  979MOL0     C29103   8.390   7.238   6.059 -0.0204 -0.0125  0.0867
  979MOL0     O29104   8.274   7.291   6.105 -0.5678  0.2584  0.4501
  979MOL0     C29105   8.195   7.214   6.196 -0.6450 -0.0319  0.3456
  979MOL0     C29106   8.080   7.294   6.257  0.0279 -0.2107 -0.1393
  979MOL0     C29107   7.974   7.324   6.145 -0.4359  0.2744  0.3407
  979MOL0     C29108   7.932   7.200   6.064  0.5109  0.8777 -0.0635
  979MOL0     C29109   7.795   7.216   6.000 -1.0307  0.0278  0.1461
  979MOL0     C29110   7.810   7.333   5.899 -0.2398  0.5608 -0.8137
  979MOL0     C29111   7.685   7.349   5.818  0.0456 -0.5012  0.0226
  979MOL0     C29112   7.690   7.460   5.709  0.3126 -0.3731  0.0174
  979MOL0     N29113   7.562   7.487   5.637  0.1779 -0.2655  0.9492
  979MOL0     C29114   7.459   7.563   5.688 -0.0372  0.5832 -0.1678
  979MOL0     C29115   7.357   7.529   5.603  0.2863 -0.0880 -0.5436
  979MOL0     C29116   7.222   7.587   5.610  0.6564 -0.0538  0.9210
  979MOL0     C29117   7.207   7.684   5.498  1.4073 -0.7834 -0.0401
  979MOL0     C29118   7.059   7.730   5.492  0.8223  0.1168 -0.0522
  979MOL0     C29119   7.025   7.847   5.401 -0.0295 -0.0396  0.4918
  979MOL0     O29120   7.092   7.964   5.453 -0.4046  0.4510  0.3248
  979MOL0     C29121   7.025   8.082   5.452  0.7703 -0.0173 -0.1221
  979MOL0     C29122   7.051   8.183   5.358 -0.2981  0.5585 -0.7669
  979MOL0     C29123   6.968   8.299   5.359  0.0584  0.1407 -0.4679
  979MOL0     C29124   6.861   8.315   5.447 -0.0193  0.3275  0.3864
  979MOL0     C29125   6.779   8.434   5.434  0.1067  0.1240 -0.9623
  979MOL0     O29126   6.805   8.529   5.343  0.6038  0.4594  0.0911
  979MOL0     C29127   6.718   8.636   5.331 -1.4208 -0.5262  0.0855
  979MOL0     C29128   6.776   8.762   5.329  0.8194 -0.5191  0.7989
  979MOL0     C29129   6.706   8.883   5.312  0.1097  0.5398 -0.4650
  979MOL0     C29130   6.564   8.882   5.308  0.4499  0.4533  0.0101
  979MOL0     O29131   6.503   9.001   5.280  0.4411  0.1570 -0.1508
  979MOL0     C29132   6.360   9.008   5.241  0.9247 -0.2754 -0.2144
  979MOL0     C29133   6.318   9.160   5.217 -0.3069 -0.4359 -0.3632
  979MOL0     C29134   6.163   9.177   5.205  0.1705 -0.3869  0.7831
  979MOL0     C29135   6.126   9.320   5.163  1.1468 -0.7928  0.4113
  979MOL0     C29136   5.972   9.346   5.167  0.1235  0.6413  0.1918
  979MOL0     C29137   5.943   9.500   5.149 -1.2668 -0.4331 -0.0315
  979MOL0     C29138   5.798   9.542   5.167 -0.4286  0.3977  0.2055
  979MOL0     C29139   5.730   9.487   5.036  0.5578  0.2245  0.2689
  979MOL0    Cl29140   5.559   9.530   5.008 -0.0590 -0.3552  0.0798
  979MOL0     C29141   6.502   8.760   5.319  0.0138  0.3344  1.4038
  979MOL0     C29142   6.580   8.630   5.316  0.9468  0.0619  0.6139
  979MOL0     O29143   6.690   8.438   5.517 -0.8044 -0.3452  0.1123
  979MOL0     C29144   6.839   8.218   5.549 -0.0494 -0.7282 -0.5343
  979MOL0     C29145   6.925   8.104   5.542  0.2630 -0.0961  0.2948
  979MOL0     N29146   7.397   7.436   5.511  0.6937 -0.3887 -0.9040
  979MOL0     N29147   7.524   7.416   5.527 -0.4169  0.1296 -0.0106
  979MOL0     C29148   8.429   7.104   6.074  0.0500  0.6996 -0.2276
  979MOL0     C29149   8.561   7.075   6.027  0.1128 -0.2536 -0.4158
  979MOL0     C29150   8.998   7.132   5.988 -0.7561  0.1180  0.1404
  979MOL0     C29151   9.092   7.158   6.086  0.0576  0.9954  0.0988
  979MOL0     C29152   9.231   7.182   6.056  0.2375 -0.3233 -0.3167
  979MOL0     C29153   9.278   7.150   5.928  0.7590 -0.1295 -0.0847
  979MOL0     O29154   9.407   7.126   5.891  0.0644  0.0909 -0.0791
  979MOL0     C29155   9.510   7.121   5.997 -0.5497 -0.1824 -0.4178
  979MOL0     C29156   9.654   7.133   5.931  1.2799 -0.1591 -0.5180
  979MOL0     C29157   9.764   7.133   6.048  0.8132  0.2131 -0.0736
  979MOL0     C29158   9.897   7.134   5.978  0.5300  0.4497  0.3438
  979MOL0     C29159   9.942   7.015   5.910 -1.1482  0.5629  0.3925
  979MOL0     C29160   9.996   6.932   5.840 -1.0271 -1.2925 -0.0106
  979MOL0     C29161   9.176   7.127   5.826 -0.1544 -0.5484 -0.4652
  979MOL0     C29162   9.044   7.119   5.861 -0.4309 -0.0067  0.5198
  979MOL0     H29163   8.662   7.370   5.901 -0.2671  0.6727 -0.6083
  979MOL0     H29164   8.443   7.433   5.995  1.2775  0.4019  2.9213
  979MOL0     H29165   8.258   7.192   6.282  1.4374 -0.0762 -1.1042
  979MOL0     H29166   8.164   7.115   6.160 -0.6648  0.7623 -2.0207
  979MOL0     H29167   8.114   7.384   6.309 -0.4521 -0.0732 -0.0601
  979MOL0     H29168   8.021   7.239   6.331 -0.5889  0.5305 -0.0674
  979MOL0     H29169   8.013   7.386   6.064 -0.6538 -0.0381 -0.0036
  979MOL0     H29170   7.887   7.366   6.197 -0.8095 -2.1675  1.8207
  979MOL0     H29171   8.009   7.171   5.991 -0.9563 -0.6749 -1.0802
  979MOL0     H29172   7.923   7.115   6.133  4.1720 -0.3332 -0.8471
  979MOL0     H29173   7.719   7.239   6.075 -1.3016 -0.4242  0.0154
  979MOL0     H29174   7.759   7.128   5.945 -2.9264  2.1372 -2.2407
  979MOL0     H29175   7.889   7.302   5.831 -0.0696  0.6187 -0.6415
  979MOL0     H29176   7.829   7.426   5.953  2.7590 -1.2377  1.5021
  979MOL0     H29177   7.664   7.255   5.766 -0.2426  0.4530 -1.6489
  979MOL0     H29178   7.598   7.359   5.884 -0.2142 -0.5556 -0.3133
  979MOL0     H29179   7.769   7.440   5.637 -0.5776 -1.5653 -0.6499
  979MOL0     H29180   7.720   7.549   5.767  1.0597 -1.8438  2.0017
  979MOL0     H29181   7.456   7.631   5.772  0.9203  0.5515 -0.1004
  979MOL0     H29182   7.198   7.646   5.699 -2.3374  0.1485  0.0942
  979MOL0     H29183   7.151   7.504   5.600  1.4106 -0.4969 -1.5747
  979MOL0     H29184   7.228   7.629   5.406 -0.9030 -2.0895  0.1332
  979MOL0     H29185   7.277   7.767   5.511  1.2066 -0.7761  1.1915
  979MOL0     H29186   7.007   7.642   5.454  4.3075 -1.7105 -1.0882
  979MOL0     H29187   7.012   7.749   5.589  0.2503  1.6672 -0.6031
  979MOL0     H29188   6.918   7.872   5.398  0.6579  3.6578  1.1182
  979MOL0     H29189   7.049   7.812   5.300 -0.0541  3.6642 -0.9629
  979MOL0     H29190   7.125   8.172   5.280  0.9792  0.3943  0.4385
  979MOL0     H29191   6.987   8.363   5.273  0.2253  0.0659 -0.4883
  979MOL0     H29192   6.885   8.769   5.329  1.0472 -2.3581 -2.0141
  979MOL0     H29193   6.757   8.979   5.308  1.2227 -0.0600 -2.8773
  979MOL0     H29194   6.300   8.964   5.322 -0.7900  1.9043 -0.2187
  979MOL0     H29195   6.333   8.939   5.161 -0.3452 -0.5975  0.4525
  979MOL0     H29196   6.371   9.195   5.129  1.6752  0.7512  1.2079
  979MOL0     H29197   6.353   9.225   5.298  0.2258 -2.3122  0.9846
  979MOL0     H29198   6.121   9.149   5.302 -0.9476 -0.7397  0.2133
  979MOL0     H29199   6.135   9.096   5.137  3.6888 -2.5924  1.7086
  979MOL0     H29200   6.162   9.385   5.243  1.8262 -2.2777  1.3498
  979MOL0     H29201   6.170   9.343   5.065  0.4797 -1.1992  0.0109
  979MOL0     H29202   5.935   9.316   5.265  2.6411  2.7377  1.9380
  979MOL0     H29203   5.915   9.285   5.097  0.3161  0.8151 -0.1230
  979MOL0     H29204   5.977   9.535   5.051 -1.3964  0.3807  0.2010
  979MOL0     H29205   5.987   9.557   5.232 -2.6886  1.0613 -0.2366
  979MOL0     H29206   5.763   9.508   5.264  0.2475 -1.2331 -0.0876
  979MOL0     H29207   5.775   9.649   5.162 -1.7010  0.1352  0.1472
  979MOL0     H29208   5.741   9.379   5.031 -0.8876 -0.0757  2.3364
  979MOL0     H29209   5.785   9.524   4.948 -0.7106 -0.5375 -0.8769
  979MOL0     H29210   6.396   8.760   5.300  0.5875  0.5882 -2.4591
  979MOL0     H29211   6.534   8.531   5.313 -0.7788  0.8320  0.7246
  979MOL0     H29212   6.775   8.218   5.637 -0.1329 -2.4535 -0.5500
  979MOL0     H29213   6.904   8.023   5.610  2.8491 -1.0714  0.0360
  979MOL0     H29214   8.361   7.029   6.112  0.3406  0.1019 -0.8583
  979MOL0     H29215   8.605   6.977   6.044 -0.1319 -0.6669 -1.9481
  979MOL0     H29216   9.067   7.163   6.192  3.0798  1.0427  0.9265
  979MOL0     H29217   9.297   7.228   6.129  0.4471  5.0472 -3.3906
  979MOL0     H29218   9.523   7.027   6.052  4.4905  0.6371  0.2947
  979MOL0     H29219   9.507   7.195   6.076  1.0194 -0.1528 -0.3433
  979MOL0     H29220   9.669   7.051   5.861  2.2776 -0.5895  0.1783
  979MOL0     H29221   9.663   7.226   5.875 -1.1862 -0.6842 -1.9601
  979MOL0     H29222   9.755   7.042   6.108  3.1974  0.5212  0.8421
  979MOL0     H29223   9.763   7.221   6.113  0.2691  1.3845 -1.5813
  979MOL0     H29224   9.901   7.220   5.910  0.8424  1.8717  2.0945
  979MOL0     H29225   9.976   7.157   6.050  1.2935  0.9400 -0.6189
  979MOL0     H29226  10.058   6.857   5.794 -1.2632 -0.9501 -0.9116
  979MOL0     H29227   9.191   7.121   5.719 -4.8297 -0.7768 -1.3156
  979MOL0     H29228   8.977   7.108   5.776 -0.5833 -2.9653  0.9454
  980MOL0     O29229   6.859   4.492   5.255  0.0802 -0.0009  0.2134
  980MOL0     C29230   6.944   4.407   5.254 -0.2481 -0.7950 -0.6210
  980MOL0     O29231   6.923   4.270   5.266 -0.1327 -0.0476  0.4620
  980MOL0     C29232   6.800   4.208   5.262 -0.3699 -1.3910 -0.1612
  980MOL0     C29233   6.686   4.263   5.213  0.2485 -0.2416  0.9480
  980MOL0     C29234   6.563   4.192   5.208  0.6933  0.2700 -0.0014
  980MOL0     C29235   6.561   4.058   5.257  0.4515  0.2119  0.0582
  980MOL0     O29236   6.458   3.968   5.243 -0.2214  0.2995  0.6974
  980MOL0     C29237   6.394   3.941   5.370  0.1617  0.8707 -0.1699
  980MOL0     C29238   6.313   4.063   5.429  0.3395 -0.3023 -0.0476
  980MOL0     C29239   6.215   4.023   5.537 -0.0642 -0.2436 -0.1344
  980MOL0     C29240   6.151   4.132   5.623  0.5928  0.8095 -0.0413
  980MOL0     C29241   6.091   4.063   5.750 -0.1827 -0.4864  0.7800
  980MOL0     C29242   5.999   3.946   5.709  0.4399  0.1555  0.4020
  980MOL0     C29243   5.874   3.979   5.618 -0.1066 -0.0829 -0.1663
  980MOL0     C29244   5.767   3.868   5.648 -0.0175 -0.1792  0.9495
  980MOL0     N29245   5.649   3.886   5.559  0.0400  0.4439  0.6227
  980MOL0     C29246   5.630   3.805   5.455 -0.4473  0.3251  0.8207
  980MOL0     C29247   5.507   3.837   5.407 -0.5424  0.1258  0.3949
  980MOL0     C29248   5.426   3.780   5.301  0.1503  0.2814  0.2027
  980MOL0     C29249   5.383   3.638   5.334 -0.4906  0.3056 -0.1402
  980MOL0     C29250   5.290   3.629   5.461  0.1162  0.1424 -0.5526
  980MOL0     C29251   5.185   3.738   5.471 -0.0244  0.5767  0.3865
  980MOL0     O29252   5.077   3.723   5.382  0.0287 -0.1317  0.3205
  980MOL0     C29253   4.978   3.620   5.395  0.0101  0.1552 -0.6460
  980MOL0     C29254   4.904   3.607   5.279 -0.2818  0.0004 -0.9704
  980MOL0     C29255   4.798   3.518   5.268  0.4472 -0.1125 -0.2969
  980MOL0     C29256   4.767   3.436   5.377  0.6209 -0.0438 -0.2936
  980MOL0     C29257   4.632   3.375   5.374  0.9843  1.6163 -0.4452
  980MOL0     O29258   4.541   3.411   5.288  0.0754  0.2719 -0.1598
  980MOL0     C29259   4.430   3.335   5.247  0.6768 -0.7187  1.0178
  980MOL0     C29260   4.411   3.201   5.259  0.3333  0.9873  1.4599
  980MOL0     C29261   4.288   3.150   5.217 -0.4434 -0.2951 -0.1025
  980MOL0     C29262   4.186   3.216   5.148  0.6062 -0.1719  0.3994
  980MOL0     O29263   4.069   3.167   5.100 -0.2825  0.2843  0.3061
  980MOL0     C29264   4.035   3.031   5.149  0.0546 -0.5355 -0.3658
  980MOL0     C29265   3.931   2.965   5.069 -0.0007 -0.1984  0.4856
  980MOL0     C29266   3.797   3.045   5.061 -0.2932  0.2085 -0.0212
  980MOL0     C29267   3.672   2.960   5.012 -0.4208 -0.8755  0.1570
  980MOL0     C29268   3.530   3.012   5.019 -0.8261  0.2459 -0.4852
  980MOL0     C29269   3.499   3.141   4.935  0.0982 -0.2072  0.6739
  980MOL0     C29270   3.375   3.216   4.995  0.0729 -0.5808 -0.4387
  980MOL0     C29271   3.333   3.339   4.920  0.1136  0.7861  0.0609
  980MOL0    Cl29272   3.308   3.298   4.756 -0.2831 -0.7494  0.2671
  980MOL0     C29273   4.202   3.352   5.134 -0.6470  0.4978  0.4381
  980MOL0     C29274   4.321   3.408   5.194  1.0772  0.0207  0.3591
  980MOL0     O29275   4.609   3.289   5.457 -0.0953  0.4782 -0.3331
  980MOL0     C29276   4.859   3.433   5.484 -0.2705 -0.2696 -0.1815
  980MOL0     C29277   4.971   3.524   5.493 -0.0087 -0.5323 -0.6579
  980MOL0     N29278   5.466   3.945   5.484 -0.0442 -0.6475  0.7074
  980MOL0     N29279   5.548   3.976   5.575 -0.3246  0.2158  0.4191
  980MOL0     C29280   6.685   3.999   5.302  0.3262  0.1179  0.7207
  980MOL0     C29281   6.797   4.078   5.317  0.5574 -0.7435  0.0415
  980MOL0     C29282   7.083   4.445   5.254  0.0934 -1.1858  0.2481
  980MOL0     C29283   7.184   4.349   5.260  1.3992  0.5382  0.9357
  980MOL0     C29284   7.315   4.366   5.244 -0.1883  0.2250 -0.2773
  980MOL0     C29285   7.358   4.498   5.223 -0.4278 -0.0586  0.7975
  980MOL0     O29286   7.488   4.504   5.206 -0.7862 -0.3637  0.3262
  980MOL0     C29287   7.553   4.634   5.211  0.8762  0.0849  0.5414
  980MOL0     C29288   7.696   4.605   5.177 -0.8377  0.0864 -0.2545
  980MOL0     C29289   7.777   4.575   5.301  0.0436 -1.4465 -0.2600
  980MOL0     C29290   7.924   4.523   5.266 -0.4491  0.1061 -0.6113
  980MOL0     C29291   8.009   4.623   5.200  0.2325 -0.3746 -0.4205
  980MOL0     C29292   8.093   4.688   5.143  0.4633 -1.0641  0.5197
  980MOL0     C29293   7.265   4.605   5.226 -0.4734 -0.3520  0.2327
  980MOL0     C29294   7.131   4.572   5.237  0.6559 -1.1251  0.5856
  980MOL0     H29295   6.697   4.366   5.181 -2.6647  0.0933  0.6907
  980MOL0     H29296   6.477   4.239   5.161  0.0179 -0.0312  0.8937
  980MOL0     H29297   6.471   3.914   5.443 -1.6105 -1.7222  0.8596
  980MOL0     H29298   6.334   3.850   5.370  1.6386 -0.1497 -1.2456
  980MOL0     H29299   6.253   4.101   5.345 -0.7657 -1.0173  0.4004
  980MOL0     H29300   6.383   4.141   5.460  1.5133 -2.4375  3.1057
  980MOL0     H29301   6.268   3.967   5.614  1.2668  2.6747  1.2390
  980MOL0     H29302   6.133   3.961   5.499 -1.7752  0.4002  2.3304
  980MOL0     H29303   6.223   4.210   5.648  0.0512  1.3016  0.0210
  980MOL0     H29304   6.077   4.194   5.571 -0.7518  0.9685  1.9272
  980MOL0     H29305   6.032   4.140   5.801  1.8712  0.5620  1.6969
  980MOL0     H29306   6.169   4.020   5.813 -0.2562 -1.3138  0.3109
  980MOL0     H29307   5.968   3.913   5.808  0.1852  0.5081  0.4414
  980MOL0     H29308   6.049   3.862   5.659 -0.9603 -1.0523  0.9863
  980MOL0     H29309   5.833   4.071   5.661 -1.2935 -1.8466  2.7790
  980MOL0     H29310   5.897   3.987   5.511  0.7643 -2.6534 -0.2416
  980MOL0     H29311   5.729   3.886   5.749 -1.5246  0.6171  0.2777
  980MOL0     H29312   5.816   3.770   5.640  1.9432  0.6814  1.6698
  980MOL0     H29313   5.694   3.726   5.417  1.8204  1.8191  1.3423
  980MOL0     H29314   5.481   3.777   5.207  0.7430  1.4533  0.4941
  980MOL0     H29315   5.336   3.834   5.269 -1.5840 -2.9293 -0.7695
  980MOL0     H29316   5.471   3.578   5.358 -1.6045 -1.0193  0.8118
  980MOL0     H29317   5.341   3.586   5.247  0.2190 -1.2099  0.3818
  980MOL0     H29318   5.240   3.532   5.457 -1.4658  0.8053  1.4073
  980MOL0     H29319   5.350   3.628   5.552 -1.6206 -2.2346  0.6440
  980MOL0     H29320   5.231   3.837   5.472  1.1372  0.0522  1.0397
  980MOL0     H29321   5.134   3.731   5.568  0.1412 -3.1591  0.3448
  980MOL0     H29322   4.929   3.666   5.192 -1.1402 -1.3097 -2.1486
  980MOL0     H29323   4.739   3.509   5.177  0.7053 -2.6853 -0.2870
  980MOL0     H29324   4.487   3.143   5.312 -0.8427 -0.6966  1.3982
  980MOL0     H29325   4.267   3.049   5.250  2.0205 -0.7015  0.4340
  980MOL0     H29326   4.002   3.034   5.253  0.2578 -1.5756 -0.2647
  980MOL0     H29327   4.117   2.961   5.130  3.4610  2.9364  0.3641
  980MOL0     H29328   3.918   2.873   5.127 -1.0629 -0.3971 -0.0415
  980MOL0     H29329   3.976   2.945   4.971  2.2249 -0.6784  1.5186
  980MOL0     H29330   3.807   3.131   4.995 -1.7513  0.2081 -0.2914
  980MOL0     H29331   3.779   3.073   5.165  1.9025 -1.0144  0.7466
  980MOL0     H29332   3.712   2.938   4.913 -0.4775 -1.3098  0.2265
  980MOL0     H29333   3.668   2.868   5.072 -0.9254 -2.7603 -2.6043
  980MOL0     H29334   3.515   3.026   5.126  0.9157 -0.6116 -0.0876
  980MOL0     H29335   3.459   2.937   4.984  0.6145 -1.1728 -0.4537
  980MOL0     H29336   3.479   3.112   4.832  0.7993 -2.8615  1.2238
  980MOL0     H29337   3.585   3.208   4.940  0.4133 -0.6184  0.8316
  980MOL0     H29338   3.284   3.157   5.011 -1.0045  0.6725 -1.7184
  980MOL0     H29339   3.387   3.244   5.100 -0.2645  1.9315 -1.0196
  980MOL0     H29340   3.418   3.407   4.932  0.2247  0.5697  0.5230
  980MOL0     H29341   3.240   3.377   4.963 -0.8794 -4.2735  3.1897
  980MOL0     H29342   4.122   3.412   5.090  1.1067  1.8042 -1.1789
  980MOL0     H29343   4.326   3.516   5.204  2.5347 -0.1224  1.5700
  980MOL0     H29344   4.833   3.369   5.568 -1.3008  1.2521  0.6974
  980MOL0     H29345   5.031   3.514   5.583 -2.4392  1.4362  1.3542
  980MOL0     H29346   6.671   3.902   5.348 -2.3564  1.0423  2.1371
  980MOL0     H29347   6.886   4.031   5.358 -1.5501 -3.5097  1.8018
  980MOL0     H29348   7.141   4.250   5.266 -0.3101  1.2678  1.3980
  980MOL0     H29349   7.381   4.282   5.225 -2.6262 -1.7115 -0.7117
  980MOL0     H29350   7.548   4.678   5.312  2.4684  0.0611  0.6554
  980MOL0     H29351   7.514   4.701   5.134 -3.0699 -0.9850  1.3952
  980MOL0     H29352   7.717   4.529   5.102 -0.1803  0.2027 -0.1896
  980MOL0     H29353   7.739   4.695   5.132  2.3485  0.6597  3.4443
  980MOL0     H29354   7.731   4.493   5.357 -0.0203 -2.5017 -1.7903
  980MOL0     H29355   7.777   4.668   5.359  1.4126 -0.6474 -1.4590
  980MOL0     H29356   7.975   4.474   5.349 -1.8819  0.2312  0.3783
  980MOL0     H29357   7.910   4.440   5.197 -2.1575 -0.8295  0.7991
  980MOL0     H29358   8.171   4.738   5.090  0.9102 -1.2676  0.9715
  980MOL0     H29359   7.297   4.709   5.216  2.2073 -1.0023  1.1421
  980MOL0     H29360   7.067   4.659   5.227  0.8862 -1.2267 -2.5935
  981MOL0     O29361  10.380   6.602   3.656  0.2445 -0.8493 -0.6651
  981MOL0     C29362  10.445   6.703   3.641  0.2887 -0.0060 -0.3416
  981MOL0     O29363  10.409   6.822   3.689 -0.3565 -0.7343 -0.6571
  981MOL0     C29364  10.324   6.831   3.801 -0.2355 -0.1798 -0.0528
  981MOL0     C29365  10.366   6.885   3.924  0.6318 -0.3119 -0.3437
  981MOL0     C29366  10.272   6.907   4.025 -0.0161  0.1216 -0.7685
  981MOL0     C29367  10.139   6.880   4.007  0.4689 -0.3967 -0.3343
  981MOL0     O29368  10.052   6.893   4.118 -0.0388  0.1218  0.2291
  981MOL0     C29369   9.948   6.801   4.141  0.8077 -0.0671 -0.1041
  981MOL0     C29370   9.882   6.823   4.276  0.1454 -0.6705 -0.6476
  981MOL0     C29371   9.777   6.720   4.306 -0.7395 -0.1613 -1.1133
  981MOL0     C29372   9.639   6.774   4.291 -0.3595 -0.8718  0.6060
  981MOL0     C29373   9.537   6.668   4.304  0.5043 -0.0157  0.6223
  981MOL0     C29374   9.491   6.619   4.439  0.8015  0.4131 -0.7228
  981MOL0     C29375   9.351   6.542   4.435 -0.1386 -0.2370 -0.0465
  981MOL0     C29376   9.298   6.520   4.574 -0.9001 -0.9127 -0.5678
  981MOL0     N29377   9.168   6.454   4.559  0.0495 -0.0048  0.0900
  981MOL0     C29378   9.149   6.323   4.594  0.1114 -0.4398 -0.5228
  981MOL0     C29379   9.017   6.299   4.593  0.2737 -0.9542  0.5366
  981MOL0     C29380   8.951   6.168   4.633  0.0356 -0.4721  0.2172
  981MOL0     C29381   8.798   6.197   4.644 -0.3573 -0.5559  0.0126
  981MOL0     C29382   8.718   6.085   4.711 -0.2717 -0.3288 -0.7459
  981MOL0     C29383   8.727   5.949   4.657  0.2174 -0.0317  0.6328
  981MOL0     O29384   8.605   5.880   4.671 -0.3976 -0.7119 -0.0102
  981MOL0     C29385   8.545   5.855   4.794  0.0191 -0.3492  0.2450
  981MOL0     C29386   8.601   5.878   4.913 -0.3036  0.0147  0.4377
  981MOL0     C29387   8.547   5.869   5.043 -0.2055  0.7902  1.0095
  981MOL0     C29388   8.414   5.812   5.049  0.4120 -0.2255  0.0175
  981MOL0     C29389   8.352   5.804   5.187  0.6196  0.0623 -0.1930
  981MOL0     O29390   8.216   5.789   5.191  0.4164 -0.7450 -0.2864
  981MOL0     C29391   8.160   5.751   5.311  0.0695  0.0092  0.2098
  981MOL0     C29392   8.178   5.637   5.393  0.1497  0.4232  0.5476
  981MOL0     C29393   8.118   5.617   5.520  0.3887 -0.5388  0.2774
  981MOL0     C29394   8.009   5.705   5.550  0.3984  0.4180  0.4814
  981MOL0     O29395   7.942   5.681   5.670 -0.0212 -0.5143 -0.9342
  981MOL0     C29396   7.804   5.660   5.660 -0.0067  0.1953 -0.2120
  981MOL0     C29397   7.750   5.633   5.804 -0.6684  0.2956 -0.9657
  981MOL0     C29398   7.619   5.565   5.805  0.6155 -1.1464 -0.5058
  981MOL0     C29399   7.542   5.601   5.938  0.1679 -0.2609  0.2771
  981MOL0     C29400   7.416   5.513   5.960 -0.0528 -0.8684  0.1664
  981MOL0     C29401   7.431   5.394   6.046 -0.1955 -0.0084 -0.3562
  981MOL0     C29402   7.305   5.309   6.037 -0.5573 -0.3728 -0.2864
  981MOL0     C29403   7.313   5.184   6.134  0.4920 -0.3785  1.0291
  981MOL0    Cl29404   7.461   5.092   6.089 -0.0242  0.3361 -0.4908
  981MOL0     C29405   7.990   5.824   5.474 -0.3996  0.1684  0.6405
  981MOL0     C29406   8.070   5.844   5.359  0.1245  0.3378  0.2163
  981MOL0     O29407   8.430   5.819   5.284  0.1773 -0.2141  0.8868
  981MOL0     C29408   8.346   5.780   4.923 -1.0091 -0.4854 -0.1692
  981MOL0     C29409   8.406   5.817   4.799 -0.2667 -0.2042  0.0751
  981MOL0     N29410   8.956   6.419   4.558  0.3369  0.2920  0.7138
  981MOL0     N29411   9.048   6.504   4.531 -0.0018 -0.4321  0.5374
  981MOL0     C29412  10.098   6.844   3.879 -0.3773  0.9604  0.6248
  981MOL0     C29413  10.191   6.814   3.780 -0.6089 -0.4333  0.0057
  981MOL0     C29414  10.576   6.684   3.573 -0.1836  0.8453  0.2482
  981MOL0     C29415  10.647   6.794   3.534  0.0239 -0.4664 -0.7155
  981MOL0     C29416  10.778   6.784   3.490  0.5057  0.3753 -0.0443
  981MOL0     C29417  10.842   6.661   3.464 -0.3497 -0.1227 -0.0260
  981MOL0     O29418  10.973   6.649   3.409 -0.3184 -0.3545 -0.3177
  981MOL0     C29419  11.022   6.759   3.326  0.2989  0.7518 -0.5173
  981MOL0     C29420  11.151   6.713   3.248  0.8520  0.5593  0.4867
  981MOL0     C29421  11.274   6.686   3.330 -0.1652  0.2343 -0.3448
  981MOL0     C29422  11.373   6.616   3.243  0.4165  0.2904  0.2459
  981MOL0     C29423  11.494   6.588   3.329  0.6468  0.8033 -0.2941
  981MOL0     C29424  11.596   6.593   3.392 -0.4174 -0.0247 -1.1418
  981MOL0     C29425  10.770   6.549   3.498  0.1824 -0.1391  0.6576
  981MOL0     C29426  10.640   6.561   3.556 -0.5781 -0.4132  0.3871
  981MOL0     H29427  10.468   6.923   3.921  0.1650  0.9770 -0.5746
  981MOL0     H29428  10.302   6.929   4.127  2.9223 -2.0392 -1.0310
  981MOL0     H29429   9.996   6.703   4.133 -2.3234 -1.6609 -1.2553
  981MOL0     H29430   9.877   6.809   4.058 -0.4290 -1.8611  0.7107
  981MOL0     H29431   9.833   6.919   4.295 -1.2593 -1.6991  1.2838
  981MOL0     H29432   9.963   6.817   4.349 -0.7298 -0.3812  0.3621
  981MOL0     H29433   9.798   6.685   4.408 -1.2398  1.1191 -0.5381
  981MOL0     H29434   9.797   6.637   4.239  2.1155  0.8208 -1.6443
  981MOL0     H29435   9.606   6.852   4.360 -0.5085 -1.5632  1.3421
  981MOL0     H29436   9.637   6.812   4.189  1.4698  1.8197  1.4424
  981MOL0     H29437   9.559   6.584   4.237 -0.7660 -0.3540  0.6064
  981MOL0     H29438   9.445   6.708   4.260 -0.0061 -4.3097 -2.9052
  981MOL0     H29439   9.479   6.702   4.508  0.1673 -1.0413  0.9935
  981MOL0     H29440   9.553   6.544   4.490 -2.2587 -0.9351  1.3330
  981MOL0     H29441   9.278   6.598   4.377 -0.0808 -0.5081 -0.3829
  981MOL0     H29442   9.377   6.443   4.397  4.0504 -0.7996  3.4474
  981MOL0     H29443   9.296   6.611   4.635  0.6228 -0.5651 -1.0017
  981MOL0     H29444   9.354   6.451   4.637  0.3804 -2.2035 -2.9767
  981MOL0     H29445   9.227   6.250   4.612  1.2030  0.1147 -2.6615
  981MOL0     H29446   8.981   6.128   4.730 -0.9807 -4.3127 -0.8901
  981MOL0     H29447   8.975   6.095   4.555 -2.8094  0.5788 -1.8209
  981MOL0     H29448   8.741   6.218   4.552 -2.6498  0.2635  1.5231
  981MOL0     H29449   8.796   6.290   4.701  1.0243  0.9939 -2.3167
  981MOL0     H29450   8.754   6.079   4.814  2.0476  0.0922 -1.4767
  981MOL0     H29451   8.617   6.124   4.726  0.6176  2.2526 -0.9722
  981MOL0     H29452   8.810   5.894   4.700  1.5285  1.6998  0.4151
  981MOL0     H29453   8.743   5.960   4.549 -2.6434  1.6906  0.2673
  981MOL0     H29454   8.705   5.909   4.917  0.1056 -1.3778  1.3251
  981MOL0     H29455   8.598   5.877   5.138 -1.0615 -1.4760  1.7091
  981MOL0     H29456   8.240   5.562   5.346 -0.7999 -0.5363  0.7755
  981MOL0     H29457   8.147   5.532   5.582  0.2433  0.4930  1.8103
  981MOL0     H29458   7.785   5.571   5.600  1.7903  0.0322 -0.6056
  981MOL0     H29459   7.751   5.747   5.620  1.2060  1.3603  0.6042
  981MOL0     H29460   7.731   5.733   5.846  0.9579  1.0067 -1.8405
  981MOL0     H29461   7.813   5.562   5.858  0.9033  1.6467 -0.9075
  981MOL0     H29462   7.632   5.456   5.802 -0.9789 -1.3608 -0.7452
  981MOL0     H29463   7.560   5.592   5.717  0.3271 -0.7762 -0.1974
  981MOL0     H29464   7.614   5.586   6.019  0.3591  0.2904  0.2126
  981MOL0     H29465   7.526   5.709   5.931 -1.1875 -0.5002 -0.5204
  981MOL0     H29466   7.379   5.489   5.860  2.7004  1.6886 -1.6356
  981MOL0     H29467   7.340   5.576   6.007  2.2618  2.3556 -0.0763
  981MOL0     H29468   7.447   5.413   6.153 -1.0939  0.2530 -0.2634
  981MOL0     H29469   7.512   5.331   6.008  0.5439  0.9863 -0.4654
  981MOL0     H29470   7.223   5.378   6.058  1.5531  2.0452  0.5271
  981MOL0     H29471   7.299   5.275   5.933  0.2005  0.3549 -0.5771
  981MOL0     H29472   7.226   5.118   6.123  0.0433  0.2955  0.4386
  981MOL0     H29473   7.328   5.201   6.241 -0.8734 -2.3682  1.6108
  981MOL0     H29474   7.914   5.896   5.504 -0.7971 -0.3710  0.9353
  981MOL0     H29475   8.052   5.930   5.295 -1.6642 -1.6404 -2.1591
  981MOL0     H29476   8.243   5.745   4.926 -1.0978 -0.3074 -1.0592
  981MOL0     H29477   8.353   5.825   4.705 -2.4524  2.1088  1.3819
  981MOL0     H29478   9.993   6.820   3.865 -0.0498  0.3659 -0.9446
  981MOL0     H29479  10.151   6.793   3.681  0.5281 -0.9217 -0.3667
  981MOL0     H29480  10.606   6.894   3.545  0.4371 -0.3740  0.0415
  981MOL0     H29481  10.814   6.874   3.440 -0.1126  0.2407 -0.7332
  981MOL0     H29482  11.054   6.833   3.400  1.0083  0.6974 -0.7584
  981MOL0     H29483  10.963   6.805   3.246  0.9088  1.0382 -0.8185
  981MOL0     H29484  11.134   6.619   3.194 -0.8686  2.0557 -1.7582
  981MOL0     H29485  11.174   6.791   3.175 -2.1904 -0.8976 -2.3313
  981MOL0     H29486  11.262   6.622   3.419 -0.9946  0.8124 -0.0362
  981MOL0     H29487  11.316   6.781   3.366  0.4989 -0.6803  1.4422
  981MOL0     H29488  11.335   6.528   3.191 -0.6158  1.3871 -0.9116
  981MOL0     H29489  11.399   6.683   3.161  0.7809  0.2659  0.3381
  981MOL0     H29490  11.696   6.580   3.429 -1.4192  1.6376  2.5402
  981MOL0     H29491  10.804   6.450   3.470  1.0254  0.9253 -2.4962
  981MOL0     H29492  10.582   6.475   3.588 -1.2082 -0.6131 -1.1964
  982MOL0     O29493   6.432   5.607   3.199  0.1935  0.4162 -1.0017
  982MOL0     C29494   6.359   5.684   3.263 -0.2991 -0.3420 -0.8307
  982MOL0     O29495   6.399   5.767   3.366  0.6524 -0.5881 -0.1477
  982MOL0     C29496   6.531   5.803   3.378  0.1126 -0.3608  0.0761
  982MOL0     C29497   6.573   5.845   3.509  0.0338  0.0280 -0.3407
  982MOL0     C29498   6.702   5.889   3.533  0.4257 -0.2744 -0.0657
  982MOL0     C29499   6.781   5.922   3.428  0.1099 -0.0375 -0.0766
  982MOL0     O29500   6.898   5.992   3.447  0.0915 -1.0454  0.9911
  982MOL0     C29501   6.989   5.950   3.551  0.6610 -0.0905 -0.6401
  982MOL0     C29502   7.125   6.005   3.507 -0.3231  0.5983  0.0621
  982MOL0     C29503   7.142   6.152   3.541  0.3089  0.2325 -0.1451
  982MOL0     C29504   7.282   6.193   3.513 -0.7476 -0.1866 -0.1649
  982MOL0     C29505   7.296   6.342   3.555 -0.1417 -0.5730 -0.8679
  982MOL0     C29506   7.217   6.437   3.462 -0.2655  0.4449  0.1898
  982MOL0     C29507   7.239   6.585   3.488  0.7225  0.1661  0.6052
  982MOL0     C29508   7.382   6.634   3.471 -0.4918  0.5845  0.5031
  982MOL0     N29509   7.406   6.778   3.464  0.6297  0.0847 -0.0617
  982MOL0     C29510   7.374   6.865   3.562  0.2248  0.3775  0.7556
  982MOL0     C29511   7.434   6.976   3.517 -0.0185  0.2441 -0.4561
  982MOL0     C29512   7.450   7.099   3.590  0.4890  0.6202 -0.7944
  982MOL0     C29513   7.319   7.185   3.587 -0.5463  0.1599  0.5672
  982MOL0     C29514   7.195   7.145   3.646  0.2854  0.0702  0.2267
  982MOL0     C29515   7.201   7.122   3.800 -0.4005  0.0370  0.3012
  982MOL0     O29516   7.073   7.145   3.862  0.3771  0.8879  0.2029
  982MOL0     C29517   7.005   7.038   3.915 -0.1442  0.1095  0.5393
  982MOL0     C29518   6.919   7.061   4.014 -0.2088 -0.8158 -0.2324
  982MOL0     C29519   6.846   6.956   4.078  0.1269  0.0211 -0.2141
  982MOL0     C29520   6.854   6.823   4.032  0.0163 -0.9953 -0.2173
  982MOL0     C29521   6.792   6.715   4.102  0.2847  0.0720  0.3698
  982MOL0     O29522   6.824   6.591   4.057 -0.1498  0.0315  0.0469
  982MOL0     C29523   6.742   6.483   4.095 -0.4104  0.2334 -1.0979
  982MOL0     C29524   6.599   6.485   4.082 -0.0696  0.0755  1.0708
  982MOL0     C29525   6.522   6.370   4.117 -0.0281  0.3221  0.1575
  982MOL0     C29526   6.597   6.264   4.175 -1.0714 -0.3755 -0.1904
  982MOL0     O29527   6.547   6.140   4.216 -0.5578 -0.0706 -0.2087
  982MOL0     C29528   6.411   6.111   4.187 -0.5693 -0.3153 -0.3309
  982MOL0     C29529   6.370   5.985   4.247 -0.6824  0.0121  0.0761
  982MOL0     C29530   6.238   5.980   4.308  0.4677  0.1988  0.1937
  982MOL0     C29531   6.208   5.836   4.328  0.6457 -0.2962  0.0077
  982MOL0     C29532   6.087   5.820   4.425  0.0587  0.0918 -1.6294
  982MOL0     C29533   6.110   5.833   4.574  1.2557  1.0862 -0.7619
  982MOL0     C29534   5.997   5.775   4.659 -0.0799  0.2003 -0.5374
  982MOL0     C29535   5.997   5.835   4.792 -0.1370  1.2984 -0.0285
  982MOL0    Cl29536   6.147   5.853   4.885 -0.0691 -0.2039  0.1899
  982MOL0     C29537   6.735   6.265   4.181 -0.1129 -0.0874 -0.2130
  982MOL0     C29538   6.811   6.373   4.146  0.4407  0.5041  0.5035
  982MOL0     O29539   6.723   6.740   4.200 -0.1534 -0.1110 -0.6483
  982MOL0     C29540   6.936   6.801   3.928 -0.5146 -0.1186  0.2267
  982MOL0     C29541   7.018   6.906   3.867  0.5464 -0.4342  0.0459
  982MOL0     N29542   7.512   6.961   3.404 -0.1298 -0.5753  0.0825
  982MOL0     N29543   7.486   6.841   3.370  0.2550 -0.7045  0.5815
  982MOL0     C29544   6.741   5.901   3.294  0.5227 -0.0006 -0.0610
  982MOL0     C29545   6.612   5.839   3.269 -0.3306 -0.0190 -0.2565
  982MOL0     C29546   6.213   5.669   3.246  0.0415 -0.2853  0.1287
  982MOL0     C29547   6.159   5.623   3.122 -0.3450  0.0321  1.5323
  982MOL0     C29548   6.018   5.621   3.102 -0.6869 -0.5635 -0.0143
  982MOL0     C29549   5.932   5.672   3.201  0.9749 -0.1475  0.5285
  982MOL0     O29550   5.791   5.702   3.187  0.0023  0.3778 -0.7630
  982MOL0     C29551   5.733   5.651   3.062  0.5014  0.0756  0.2865
  982MOL0     C29552   5.578   5.656   3.065  0.5969 -0.3178  0.0212
  982MOL0     C29553   5.508   5.792   3.081  0.1908  0.6125 -0.2773
  982MOL0     C29554   5.542   5.865   3.209  0.1393 -0.2195 -0.2014
  982MOL0     C29555   5.438   5.960   3.244  0.4424  0.5867  0.4265
  982MOL0     C29556   5.344   6.031   3.281  0.0201  0.0731  0.3901
  982MOL0     C29557   5.993   5.700   3.326  0.3683 -0.9297 -0.7126
  982MOL0     C29558   6.131   5.698   3.354  1.0369  0.2413 -0.0957
  982MOL0     H29559   6.514   5.839   3.600 -0.2038 -0.4037 -0.5215
  982MOL0     H29560   6.732   5.911   3.635 -2.4741 -2.1080  1.3366
  982MOL0     H29561   6.987   5.841   3.564  0.6986 -0.1082 -0.7779
  982MOL0     H29562   6.965   6.007   3.641 -1.1149  0.8642 -1.6593
  982MOL0     H29563   7.142   5.993   3.399  1.3631  2.5125  0.0590
  982MOL0     H29564   7.204   5.945   3.555  1.2726  1.4855 -1.3355
  982MOL0     H29565   7.114   6.173   3.645  2.4904  2.3561  0.1025
  982MOL0     H29566   7.073   6.207   3.476  1.0931  1.6756  0.1932
  982MOL0     H29567   7.342   6.127   3.576 -2.0827  0.0144  1.3737
  982MOL0     H29568   7.301   6.182   3.406  1.7726 -0.6423  0.2711
  982MOL0     H29569   7.402   6.361   3.572  0.2188 -3.4746  0.8338
  982MOL0     H29570   7.254   6.349   3.656  1.9469 -3.5828  0.3459
  982MOL0     H29571   7.110   6.414   3.466 -0.1520 -0.4007 -1.0309
  982MOL0     H29572   7.251   6.411   3.361  1.3675 -0.0074  0.8261
  982MOL0     H29573   7.173   6.635   3.416 -2.0305 -0.9978  2.1723
  982MOL0     H29574   7.200   6.604   3.588  1.4393  0.4040  0.8435
  982MOL0     H29575   7.417   6.596   3.374 -1.9896 -0.7671  0.4486
  982MOL0     H29576   7.439   6.586   3.551  0.2588  1.2238  0.3628
  982MOL0     H29577   7.321   6.842   3.654 -3.8262  1.3816 -1.1120
  982MOL0     H29578   7.536   7.152   3.549  0.7750 -0.8010 -2.1437
  982MOL0     H29579   7.475   7.077   3.694 -1.7342 -0.5562 -0.4423
  982MOL0     H29580   7.294   7.212   3.484 -2.1714  2.7605  1.5444
  982MOL0     H29581   7.341   7.286   3.623  0.9574  0.2635 -0.4996
  982MOL0     H29582   7.130   7.233   3.633  0.3852  0.3068  1.2264
  982MOL0     H29583   7.152   7.061   3.592 -1.5509  2.6981 -2.7567
  982MOL0     H29584   7.277   7.187   3.844  0.4999  0.7526 -2.1541
  982MOL0     H29585   7.247   7.025   3.821  3.6110  1.6386 -0.3030
  982MOL0     H29586   6.914   7.165   4.042 -2.5503 -1.3523  1.6563
  982MOL0     H29587   6.772   6.988   4.151  1.3968 -1.7664  2.0115
  982MOL0     H29588   6.557   6.572   4.033  0.8452 -0.3300 -0.4696
  982MOL0     H29589   6.414   6.370   4.104 -0.3645  3.5646  1.7456
  982MOL0     H29590   6.402   6.111   4.078 -1.9960 -1.6370 -0.2492
  982MOL0     H29591   6.358   6.189   4.243 -1.0376 -2.3193  2.1888
  982MOL0     H29592   6.434   5.963   4.333 -1.4920 -0.6276  0.5358
  982MOL0     H29593   6.389   5.905   4.175  0.2002 -0.5579  0.9109
  982MOL0     H29594   6.160   6.024   4.245 -0.7499  1.0051  2.1391
  982MOL0     H29595   6.234   6.035   4.403 -0.1886 -0.7477  0.7295
  982MOL0     H29596   6.192   5.789   4.231  1.5073 -2.2845  0.7806
  982MOL0     H29597   6.295   5.785   4.370  0.9984  0.4983  0.2665
  982MOL0     H29598   6.055   5.717   4.406 -2.0747  0.4743 -0.5032
  982MOL0     H29599   5.997   5.876   4.397  0.0671  0.7190 -0.4748
  982MOL0     H29600   6.124   5.937   4.605 -0.2724  0.8751  0.8094
  982MOL0     H29601   6.199   5.778   4.606 -0.1804 -0.5580  0.6153
  982MOL0     H29602   5.899   5.788   4.612 -0.0556 -0.9042 -0.9204
  982MOL0     H29603   5.997   5.667   4.675  1.6352  0.3781  0.9588
  982MOL0     H29604   5.922   5.783   4.852 -1.7680  2.3303 -1.0808
  982MOL0     H29605   5.955   5.936   4.797 -0.9041  0.9175  2.2581
  982MOL0     H29606   6.791   6.184   4.228  1.7127 -0.1489 -2.3716
  982MOL0     H29607   6.918   6.380   4.161  0.9526 -1.5606 -1.7175
  982MOL0     H29608   6.955   6.708   3.876  1.9788  0.9383 -0.9441
  982MOL0     H29609   7.090   6.885   3.789  2.0538 -1.2507  1.5737
  982MOL0     H29610   6.809   5.948   3.223 -0.6633 -2.3392 -2.9362
  982MOL0     H29611   6.583   5.834   3.165 -0.0621 -0.8826 -0.3029
  982MOL0     H29612   6.228   5.605   3.040 -1.8959 -4.5537  0.9268
  982MOL0     H29613   5.992   5.590   3.001 -1.3463 -0.4058  0.1054
  982MOL0     H29614   5.764   5.550   3.034  2.4515  0.8950 -0.6409
  982MOL0     H29615   5.771   5.721   2.987 -1.0800 -1.5805 -2.1969
  982MOL0     H29616   5.541   5.614   2.970  2.3459 -2.1727  0.0691
  982MOL0     H29617   5.541   5.580   3.135 -1.6871  1.1432  0.4735
  982MOL0     H29618   5.404   5.759   3.076 -0.5391  2.8916 -2.2119
  982MOL0     H29619   5.525   5.854   2.993  3.8532 -1.3643 -1.1834
  982MOL0     H29620   5.550   5.790   3.289  3.2659 -1.9147 -1.8892
  982MOL0     H29621   5.640   5.913   3.196  0.0382  0.6763  2.0099
  982MOL0     H29622   5.271   6.095   3.328  1.1644  0.5993  1.5148
  982MOL0     H29623   5.913   5.718   3.398 -2.2196  2.1541 -3.9720
  982MOL0     H29624   6.166   5.725   3.453  0.9430  0.8381 -0.2239
  983MOL0     O29625   8.539   7.345   6.926 -0.2169  0.5045  0.5366
  983MOL0     C29626   8.587   7.274   7.018 -0.2891 -0.9353 -0.2608
  983MOL0     O29627   8.516   7.185   7.099  0.6535 -0.1045 -0.4185
  983MOL0     C29628   8.377   7.169   7.080 -0.3394 -0.1717 -0.5857
  983MOL0     C29629   8.302   7.156   7.197  0.7908  0.1312 -0.7430
  983MOL0     C29630   8.166   7.138   7.211  0.5128  0.6935  0.3197
  983MOL0     C29631   8.089   7.139   7.095 -0.0381 -0.4011  0.2702
  983MOL0     O29632   7.954   7.119   7.086  0.1327  0.1816  0.4089
  983MOL0     C29633   7.876   7.242   7.053  0.2350  0.0660 -0.4230
  983MOL0     C29634   7.725   7.210   7.037 -0.0592 -0.4773  0.6867
  983MOL0     C29635   7.671   7.141   7.163  0.3261 -0.4784 -0.1852
  983MOL0     C29636   7.533   7.078   7.133 -0.4540  0.5292  0.3318
  983MOL0     C29637   7.455   7.040   7.255  0.6355  0.1325  0.6359
  983MOL0     C29638   7.542   6.976   7.361  0.0341 -0.0399 -0.0283
  983MOL0     C29639   7.466   6.911   7.481 -0.4924 -0.0580  0.0981
  983MOL0     C29640   7.355   6.984   7.553 -0.0905 -0.1386  0.6752
  983MOL0     N29641   7.393   7.104   7.624 -0.4381  0.5083  0.2850
  983MOL0     C29642   7.329   7.220   7.603 -0.2041  1.3399 -0.1120
  983MOL0     C29643   7.380   7.299   7.705  0.0067 -0.4336 -0.4651
  983MOL0     C29644   7.321   7.442   7.730 -0.0768  0.6789 -0.5771
  983MOL0     C29645   7.407   7.537   7.805 -0.2010 -0.4060 -0.5149
  983MOL0     C29646   7.394   7.688   7.784  0.2948  1.1646 -0.5549
  983MOL0     C29647   7.266   7.726   7.729 -0.1869 -0.2624  0.4717
  983MOL0     O29648   7.166   7.676   7.816  0.2472 -0.1675 -0.2301
  983MOL0     C29649   7.038   7.712   7.787 -0.0224 -0.0026  0.1427
  983MOL0     C29650   6.993   7.814   7.695 -0.4378 -0.4410  0.0347
  983MOL0     C29651   6.858   7.846   7.680 -0.6302 -0.8565 -0.5128
  983MOL0     C29652   6.758   7.788   7.768  0.2048  0.3976 -0.6812
  983MOL0     C29653   6.617   7.831   7.759 -0.0669 -0.3558 -0.4272
  983MOL0     O29654   6.525   7.734   7.813 -0.1048 -0.1190 -0.2314
  983MOL0     C29655   6.394   7.769   7.816  0.0635 -0.2316 -0.3462
  983MOL0     C29656   6.341   7.880   7.886  0.0678 -0.1556  0.4175
  983MOL0     C29657   6.207   7.918   7.856 -0.8357  0.4822 -0.1090
  983MOL0     C29658   6.121   7.835   7.783  0.0742  0.0527  0.2590
  983MOL0     O29659   5.993   7.856   7.736 -0.4380  0.0932 -0.8989
  983MOL0     C29660   5.927   7.976   7.773  0.1136 -0.6941  0.4345
  983MOL0     C29661   5.800   7.992   7.695  0.2937 -0.7858  0.8117
  983MOL0     C29662   5.683   7.884   7.704  0.2465  0.2733  0.0353
  983MOL0     C29663   5.570   7.887   7.596 -0.6380  0.2288 -0.2562
  983MOL0     C29664   5.480   7.762   7.613  0.3377 -0.6533  0.8094
  983MOL0     C29665   5.370   7.779   7.509 -0.1923  0.0089 -0.2853
  983MOL0     C29666   5.268   7.658   7.509 -0.0552 -0.2805  0.1363
  983MOL0     C29667   5.197   7.655   7.379  0.3894 -0.3266  0.5589
  983MOL0    Cl29668   5.027   7.604   7.413 -0.0797  0.0224 -0.2438
  983MOL0     C29669   6.172   7.716   7.733  0.0216  0.4677  0.3691
  983MOL0     C29670   6.301   7.683   7.749 -0.1793  0.0524  0.0323
  983MOL0     O29671   6.584   7.933   7.707  0.0157  0.3515 -0.6129
  983MOL0     C29672   6.804   7.690   7.864 -0.1910 -0.1060  0.3906
  983MOL0     C29673   6.942   7.651   7.867 -0.5144  0.7500 -0.2644
  983MOL0     N29674   7.486   7.235   7.771  0.2967  0.2276 -0.2275
  983MOL0     N29675   7.496   7.123   7.712 -0.3024  0.0414  0.4163
  983MOL0     C29676   8.160   7.140   6.969 -0.0995 -0.2849 -0.4828
  983MOL0     C29677   8.301   7.159   6.961 -0.2457  0.7304  0.0672
  983MOL0     C29678   8.738   7.271   7.033  0.0493 -0.9341 -0.8921
  983MOL0     C29679   8.793   7.185   7.125 -0.5739  0.5033 -0.1451
  983MOL0     C29680   8.933   7.183   7.150  0.6347 -0.6110  0.0599
  983MOL0     C29681   9.020   7.260   7.068 -0.1554 -0.2392  0.5541
  983MOL0     O29682   9.157   7.257   7.095  0.0998 -0.3756  0.1951
  983MOL0     C29683   9.254   7.330   7.016  0.6506 -0.1514 -0.2858
  983MOL0     C29684   9.397   7.286   7.036  0.7943  0.3862 -0.0206
  983MOL0     C29685   9.406   7.133   7.049 -0.2459  0.2053  0.3659
  983MOL0     C29686   9.545   7.080   7.084  0.8798 -0.2711 -0.3337
  983MOL0     C29687   9.630   7.106   6.971  0.2152  0.7924 -0.3658
  983MOL0     C29688   9.699   7.094   6.871  0.2612 -0.2362 -0.0371
  983MOL0     C29689   8.961   7.352   6.973 -0.8456  0.0290  0.5352
  983MOL0     C29690   8.824   7.351   6.959  0.9816  0.7185  0.3168
  983MOL0     H29691   8.368   7.163   7.283 -1.2249  1.5877  0.7658
  983MOL0     H29692   8.123   7.113   7.307 -0.9572  1.1791 -0.1812
  983MOL0     H29693   7.910   7.292   6.962  0.8215  1.7797  0.6894
  983MOL0     H29694   7.881   7.314   7.136 -2.1416 -0.2458  0.0684
  983MOL0     H29695   7.714   7.134   6.959 -2.2971  0.6270 -0.1295
  983MOL0     H29696   7.674   7.301   7.009  1.8450  0.9900  1.7062
  983MOL0     H29697   7.659   7.221   7.236  4.0904  1.2693 -1.2245
  983MOL0     H29698   7.739   7.065   7.202  1.2918 -0.8577 -2.4209
  983MOL0     H29699   7.479   7.152   7.073  0.7044 -0.6261 -2.3010
  983MOL0     H29700   7.557   6.988   7.075 -0.9310  0.1977  0.6377
  983MOL0     H29701   7.374   6.976   7.222  2.5729 -0.7166 -3.0545
  983MOL0     H29702   7.413   7.136   7.287 -0.9699  0.2071 -1.4742
  983MOL0     H29703   7.615   7.045   7.404 -2.7739  2.3192  1.3882
  983MOL0     H29704   7.589   6.890   7.313  1.7143 -0.5245  2.3361
  983MOL0     H29705   7.429   6.814   7.446  2.7521 -2.1513  2.0200
  983MOL0     H29706   7.539   6.875   7.554 -1.2739 -0.6474  0.6086
  983MOL0     H29707   7.326   6.911   7.629  2.2165 -0.5428  1.2471
  983MOL0     H29708   7.272   6.988   7.482  0.7868  1.5126 -0.3097
  983MOL0     H29709   7.259   7.245   7.523  1.3982  0.4361 -1.8760
  983MOL0     H29710   7.226   7.426   7.783  0.2175 -4.8873 -1.1177
  983MOL0     H29711   7.299   7.480   7.629  3.9050 -0.3039 -1.9801
  983MOL0     H29712   7.511   7.508   7.787 -0.1916 -0.8197  0.1638
  983MOL0     H29713   7.399   7.511   7.911  0.1810 -1.1483 -0.6528
  983MOL0     H29714   7.416   7.727   7.884  0.7544 -3.2343  1.2904
  983MOL0     H29715   7.465   7.726   7.709  1.7764  2.5370  1.4296
  983MOL0     H29716   7.261   7.682   7.629  5.0622 -3.0561  1.0676
  983MOL0     H29717   7.265   7.834   7.717 -1.7158 -0.5037 -2.5124
  983MOL0     H29718   7.060   7.870   7.630  0.2817  1.0234  1.9382
  983MOL0     H29719   6.822   7.916   7.606  0.1107  0.4322  0.2913
  983MOL0     H29720   6.392   7.954   7.946  1.2461  0.2242 -0.9956
  983MOL0     H29721   6.159   8.005   7.899 -3.1245 -0.9519  0.4082
  983MOL0     H29722   5.980   8.069   7.745 -1.0185 -0.3809 -0.8007
  983MOL0     H29723   5.916   7.979   7.881 -0.0746  2.3327  0.4287
  983MOL0     H29724   5.833   7.999   7.591  0.9651 -0.3252  1.0499
  983MOL0     H29725   5.756   8.086   7.730 -0.5341 -1.4933  1.7474
  983MOL0     H29726   5.636   7.881   7.802 -0.9179 -1.7658 -0.5220
  983MOL0     H29727   5.738   7.790   7.697  1.2467  0.9193 -1.8169
  983MOL0     H29728   5.518   7.983   7.593  3.5058  2.7651  0.0169
  983MOL0     H29729   5.614   7.887   7.495 -0.4928  2.2213 -0.2316
  983MOL0     H29730   5.433   7.767   7.712 -0.4126 -0.6915  0.4650
  983MOL0     H29731   5.531   7.667   7.598  0.5260 -0.8819  2.6711
  983MOL0     H29732   5.419   7.795   7.412  2.1988  3.2734  1.2722
  983MOL0     H29733   5.319   7.871   7.538 -1.6170 -0.7441 -0.2968
  983MOL0     H29734   5.302   7.556   7.528 -1.6842 -0.7150  0.9119
  983MOL0     H29735   5.198   7.685   7.589 -0.0392  0.2969 -0.0369
  983MOL0     H29736   5.250   7.598   7.302  1.6474  0.6985  0.6305
  983MOL0     H29737   5.184   7.757   7.341 -3.3532 -0.7414  0.3660
  983MOL0     H29738   6.109   7.645   7.680 -2.8612  2.1971  1.2741
  983MOL0     H29739   6.340   7.596   7.696 -1.2155 -1.1509  1.1577
  983MOL0     H29740   6.730   7.646   7.929 -0.8816 -0.2440 -0.4755
  983MOL0     H29741   6.974   7.571   7.934 -0.0693 -0.4214 -1.8309
  983MOL0     H29742   8.104   7.123   6.878 -2.5760  2.3033  0.3996
  983MOL0     H29743   8.357   7.158   6.868  0.3492 -0.5639  0.4112
  983MOL0     H29744   8.729   7.118   7.182  1.5171 -1.8217 -0.3643
  983MOL0     H29745   8.973   7.121   7.230  0.8369  0.0857  0.5097
  983MOL0     H29746   9.238   7.436   7.037 -0.0420 -0.5141  1.1226
  983MOL0     H29747   9.223   7.312   6.912 -2.0655  1.2247  0.1961
  983MOL0     H29748   9.459   7.319   6.952 -1.4746 -1.7996 -2.7625
  983MOL0     H29749   9.432   7.331   7.129  1.3693 -0.7854  0.3449
  983MOL0     H29750   9.371   7.090   6.955  1.8490 -2.1700  0.5542
  983MOL0     H29751   9.337   7.090   7.123 -0.6340 -0.3408 -0.3016
  983MOL0     H29752   9.587   7.117   7.178 -0.5648 -0.1536  0.2956
  983MOL0     H29753   9.542   6.973   7.103  3.2918  0.0061  2.1087
  983MOL0     H29754   9.740   7.071   6.775  2.2528  1.1897  0.4095
  983MOL0     H29755   9.020   7.404   6.898  0.4592 -1.8568  0.1640
  983MOL0     H29756   8.782   7.396   6.870  0.5818 -1.6028 -0.7447
  984MOL0     O29757   0.113   5.728   4.877 -0.4178  0.5750 -0.6128
  984MOL0     C29758   0.116   5.601   4.876  0.3349  0.0724  0.0611
  984MOL0     O29759   0.212   5.528   4.805  0.2090  0.2587 -0.4078
  984MOL0     C29760   0.342   5.574   4.777 -0.1499 -0.3290 -0.4514
  984MOL0     C29761   0.410   5.678   4.841  1.1487  0.4511 -1.1817
  984MOL0     C29762   0.534   5.711   4.807 -0.5786 -0.4427 -0.3300
  984MOL0     C29763   0.609   5.639   4.713  0.0811 -0.6267  0.5664
  984MOL0     O29764   0.740   5.682   4.692 -0.1423 -0.0913 -0.0210
  984MOL0     C29765   0.839   5.595   4.648 -0.1195  0.0046  0.7626
  984MOL0     C29766   0.987   5.643   4.685  0.2526  0.0768 -0.7266
  984MOL0     C29767   1.101   5.542   4.671 -0.1981  0.5113  0.3355
  984MOL0     C29768   1.101   5.500   4.523  0.3710  0.1467 -0.0463
  984MOL0     C29769   1.208   5.390   4.499  0.3447 -0.8862 -0.3630
  984MOL0     C29770   1.356   5.423   4.523 -0.3000  0.5144  0.0723
  984MOL0     C29771   1.442   5.293   4.518 -0.9872 -0.2570 -0.1212
  984MOL0     C29772   1.434   5.220   4.641  0.1174 -0.3634 -0.1876
  984MOL0     N29773   1.496   5.088   4.618 -0.2505 -1.1007 -0.1865
  984MOL0     C29774   1.627   5.060   4.646  0.0019  0.0730  0.0222
  984MOL0     C29775   1.647   4.940   4.581 -0.4245 -0.2571 -0.6468
  984MOL0     C29776   1.776   4.873   4.554 -0.2488  0.7284  0.6958
  984MOL0     C29777   1.807   4.755   4.656  0.1331  0.3282  0.0304
  984MOL0     C29778   1.711   4.633   4.681  0.2560 -0.7463  0.5563
  984MOL0     C29779   1.571   4.652   4.730 -0.0716  0.3081  0.1396
  984MOL0     O29780   1.520   4.516   4.755 -0.1932 -0.6685  0.2947
  984MOL0     C29781   1.416   4.501   4.840 -0.9510  0.3098 -0.0777
  984MOL0     C29782   1.371   4.606   4.925 -0.2992 -0.3017 -0.1744
  984MOL0     C29783   1.253   4.587   5.007 -0.6632 -0.0977  0.5370
  984MOL0     C29784   1.187   4.462   5.002 -0.1008 -0.2358 -0.6096
  984MOL0     C29785   1.064   4.449   5.068  0.8188 -1.3437  0.3549
  984MOL0     O29786   0.978   4.345   5.022  0.1155  0.1892 -0.3264
  984MOL0     C29787   0.845   4.329   5.056 -0.2864 -0.8063 -0.6343
  984MOL0     C29788   0.786   4.398   5.164 -0.1778  0.1953  0.3048
  984MOL0     C29789   0.640   4.381   5.186 -0.6873  0.3237  0.4039
  984MOL0     C29790   0.572   4.295   5.103  0.3290 -0.4251 -0.3627
  984MOL0     O29791   0.436   4.276   5.117  0.4169  0.2114  0.0922
  984MOL0     C29792   0.379   4.241   5.244  0.2415  0.8691 -0.2060
  984MOL0     C29793   0.228   4.265   5.244  0.3784 -0.1187  0.1474
  984MOL0     C29794   0.182   4.403   5.291  0.3552 -0.3533  0.4737
  984MOL0     C29795   0.028   4.413   5.292 -0.1681  0.2409 -0.4384
  984MOL0     C29796  -0.019   4.542   5.356 -0.2391  0.1982  0.3400
  984MOL0     C29797  -0.011   4.653   5.245  0.0929 -0.7625  0.2510
  984MOL0     C29798  -0.045   4.791   5.305  0.8011 -1.1673  1.1698
  984MOL0     C29799  -0.013   4.896   5.188 -0.7127 -0.8164  0.4317
  984MOL0    Cl29800  -0.017   5.070   5.241  0.3243 -0.0080 -0.2573
  984MOL0     C29801   0.634   4.241   4.993  0.1025 -0.1738 -0.1915
  984MOL0     C29802   0.767   4.254   4.968 -0.2553 -0.0158 -0.0627
  984MOL0     O29803   1.031   4.539   5.143  0.0770 -0.6477  0.1258
  984MOL0     C29804   1.237   4.358   4.921 -0.2096  0.8504  0.3779
  984MOL0     C29805   1.350   4.379   4.847  0.0111  0.6958 -0.4431
  984MOL0     N29806   1.531   4.907   4.518 -0.2059  0.9566 -0.6196
  984MOL0     N29807   1.439   4.983   4.551  0.9741  0.0844  0.0349
  984MOL0     C29808   0.546   5.531   4.649 -0.2142 -0.3952 -0.0467
  984MOL0     C29809   0.415   5.500   4.679  0.0898 -0.4790  0.7180
  984MOL0     C29810   0.010   5.518   4.936 -0.0748  0.1057  1.1127
  984MOL0     C29811  -0.092   5.566   5.018  0.8224  0.2251 -0.3447
  984MOL0     C29812  -0.180   5.474   5.078  0.2576 -0.7238 -0.4171
  984MOL0     C29813  -0.188   5.341   5.054 -0.5862 -0.3646  0.5680
  984MOL0     O29814  -0.281   5.254   5.114 -1.2099 -0.3554 -0.1791
  984MOL0     C29815  -0.357   5.287   5.233 -0.1827  0.2365  0.6447
  984MOL0     C29816  -0.462   5.181   5.241 -0.0792  0.7032 -0.0940
  984MOL0     C29817  -0.566   5.196   5.120  0.5681  0.0911 -1.0520
  984MOL0     C29818  -0.677   5.083   5.102  0.0073  0.1806 -0.9165
  984MOL0     C29819  -0.759   5.066   5.224  0.4806 -0.2265  0.1436
  984MOL0     C29820  -0.836   5.052   5.313  1.5377  0.3278  0.7568
  984MOL0     C29821  -0.085   5.293   4.964 -0.1029  0.3424 -0.7876
  984MOL0     C29822   0.015   5.376   4.916 -0.6707 -0.2998  0.0293
  984MOL0     H29823   0.364   5.724   4.928  3.3517 -1.1517  0.9643
  984MOL0     H29824   0.585   5.797   4.850 -0.1614 -0.6172 -0.4664
  984MOL0     H29825   0.831   5.592   4.538  1.7997  0.0438  0.5799
  984MOL0     H29826   0.818   5.494   4.684  1.4674 -0.2139  1.1598
  984MOL0     H29827   0.979   5.670   4.791 -2.5631  2.2082 -1.3519
  984MOL0     H29828   1.010   5.740   4.641 -1.2316  0.5647 -0.4865
  984MOL0     H29829   1.083   5.458   4.739  2.8070 -0.9510 -0.4767
  984MOL0     H29830   1.197   5.589   4.694 -0.5928  1.0416  0.9148
  984MOL0     H29831   1.009   5.447   4.494  0.5266 -0.5192  0.6455
  984MOL0     H29832   1.126   5.580   4.452 -1.7597  0.4648 -0.5150
  984MOL0     H29833   1.205   5.369   4.391 -2.3807  1.8118 -0.9744
  984MOL0     H29834   1.168   5.301   4.547 -1.0464 -0.8427 -1.3732
  984MOL0     H29835   1.357   5.457   4.627 -2.2073  0.3618  0.1766
  984MOL0     H29836   1.379   5.502   4.450  1.3939 -0.0618 -0.0393
  984MOL0     H29837   1.412   5.239   4.427  3.5311 -1.0134 -1.4276
  984MOL0     H29838   1.548   5.311   4.503 -1.0371  0.9401  0.8886
  984MOL0     H29839   1.332   5.208   4.679  0.5437 -0.6802  0.8965
  984MOL0     H29840   1.492   5.277   4.715  4.1992 -1.1860 -2.4394
  984MOL0     H29841   1.696   5.113   4.711 -0.2778 -0.7384  1.0080
  984MOL0     H29842   1.847   4.956   4.553 -1.4055  1.8379 -2.6235
  984MOL0     H29843   1.772   4.819   4.458  0.1670 -0.4642  1.3278
  984MOL0     H29844   1.827   4.807   4.750 -2.4634  2.4713 -0.4820
  984MOL0     H29845   1.903   4.708   4.632  0.8712  2.1522 -0.7556
  984MOL0     H29846   1.715   4.583   4.584  4.2890 -0.1202  0.2208
  984MOL0     H29847   1.761   4.570   4.756  1.4119  0.4494  0.8198
  984MOL0     H29848   1.497   4.692   4.660 -1.6505 -4.9722 -1.6334
  984MOL0     H29849   1.565   4.719   4.817 -1.2394 -1.4180  1.4340
  984MOL0     H29850   1.407   4.707   4.942  1.6473 -0.9584 -0.1728
  984MOL0     H29851   1.217   4.669   5.068  0.1767 -0.2134  1.2011
  984MOL0     H29852   0.820   4.469   5.239 -0.3401 -0.2388  0.7938
  984MOL0     H29853   0.582   4.437   5.258 -3.7464  0.6227 -2.0716
  984MOL0     H29854   0.426   4.295   5.327 -0.0443  0.1386  0.4361
  984MOL0     H29855   0.399   4.136   5.265 -0.8336  0.2791 -1.9110
  984MOL0     H29856   0.186   4.191   5.314  0.4008  1.1090  1.5126
  984MOL0     H29857   0.191   4.242   5.144 -2.5990 -1.3517  1.3893
  984MOL0     H29858   0.227   4.472   5.219 -0.0146 -1.6232 -1.0137
  984MOL0     H29859   0.225   4.427   5.389  2.3050  0.1053 -0.4405
  984MOL0     H29860  -0.015   4.394   5.194  0.4178  1.0876 -0.8724
  984MOL0     H29861  -0.010   4.326   5.346 -3.0014  1.4776 -0.2699
  984MOL0     H29862   0.041   4.573   5.442 -0.0202 -2.1277  1.0830
  984MOL0     H29863  -0.120   4.526   5.396 -0.3096 -1.1056 -0.3296
  984MOL0     H29864  -0.095   4.619   5.183 -0.9311  2.3722 -0.2584
  984MOL0     H29865   0.088   4.658   5.198  0.6728  0.8854  1.5356
  984MOL0     H29866  -0.148   4.795   5.341  0.9461  1.8844  1.5910
  984MOL0     H29867   0.017   4.812   5.393  1.6769 -2.2516  0.8343
  984MOL0     H29868  -0.080   4.890   5.101 -0.3798  0.1123  0.1024
  984MOL0     H29869   0.089   4.884   5.150 -1.1752  1.6364 -1.8649
  984MOL0     H29870   0.572   4.186   4.922 -0.6176 -1.6188  1.4844
  984MOL0     H29871   0.806   4.195   4.886 -0.0197  1.7008 -1.2211
  984MOL0     H29872   1.182   4.265   4.906 -0.9672  1.5096 -1.1193
  984MOL0     H29873   1.369   4.294   4.783 -2.1844  0.8252 -1.3560
  984MOL0     H29874   0.599   5.475   4.574 -0.1258 -3.3176  2.0316
  984MOL0     H29875   0.360   5.427   4.619  0.2468  0.3390 -0.4676
  984MOL0     H29876  -0.106   5.672   5.039  0.2931 -0.3416  2.6105
  984MOL0     H29877  -0.264   5.505   5.140 -1.0422 -3.6424 -0.5406
  984MOL0     H29878  -0.401   5.387   5.227 -0.4333  0.0383 -2.7936
  984MOL0     H29879  -0.287   5.297   5.317  2.1342  1.8806 -1.3119
  984MOL0     H29880  -0.405   5.088   5.238  2.7389  2.2865  0.5882
  984MOL0     H29881  -0.513   5.180   5.338 -1.4190 -0.8571 -0.7752
  984MOL0     H29882  -0.507   5.187   5.028  2.0208  0.4623 -0.1953
  984MOL0     H29883  -0.625   5.288   5.127  0.5959 -0.0139  1.3322
  984MOL0     H29884  -0.744   5.106   5.018  2.0613  1.0763 -2.4199
  984MOL0     H29885  -0.613   4.998   5.078  1.3233  1.6002 -2.7801
  984MOL0     H29886  -0.909   5.044   5.391 -1.2244 -2.5568 -1.8762
  984MOL0     H29887  -0.081   5.186   4.946  0.1444 -0.0555  1.4452
  984MOL0     H29888   0.105   5.336   4.871  2.5664  4.4412  1.5154
  985MOL0     O29889   1.298   2.504  11.014  0.2162 -0.4217 -0.6788
  985MOL0     C29890   1.396   2.579  11.043 -0.6894  0.6520  0.4100
  985MOL0     O29891   1.392   2.703  11.086  0.1757 -0.2792 -0.0133
  985MOL0     C29892   1.277   2.752  11.148 -0.9768  0.3136 -0.3349
  985MOL0     C29893   1.285   2.813  11.271  0.8148 -0.7968  0.0406
  985MOL0     C29894   1.169   2.865  11.338  0.8249 -0.2858  0.3419
  985MOL0     C29895   1.040   2.852  11.291 -0.7172 -0.5529 -0.1948
  985MOL0     O29896   0.939   2.906  11.368  0.1653 -0.4820  0.5035
  985MOL0     C29897   0.804   2.877  11.332  0.0848  0.3264  0.7821
  985MOL0     C29898   0.711   2.933  11.435  0.2397 -0.6604 -0.5987
  985MOL0     C29899   0.563   2.916  11.391  0.1554  0.4519  0.1873
  985MOL0     C29900   0.470   2.985  11.505  0.6284  0.6162 -0.4399
  985MOL0     C29901   0.315   2.967  11.477 -0.2969  0.0061  0.3828
  985MOL0     C29902   0.257   3.056  11.361 -0.1129 -0.3672 -0.7303
  985MOL0     C29903   0.096   3.059  11.345 -0.6252 -0.1310  0.4084
  985MOL0     C29904   0.049   2.922  11.311  0.1239 -0.5628  0.1827
  985MOL0     N29905  -0.094   2.913  11.302  0.1064  0.0559  0.0855
  985MOL0     C29906  -0.176   2.938  11.194  0.6259  0.2044 -0.7933
  985MOL0     C29907  -0.303   2.911  11.250  0.2976  0.3672 -0.1259
  985MOL0     C29908  -0.433   2.927  11.173  0.7389 -0.3940 -0.4828
  985MOL0     C29909  -0.561   2.913  11.262  0.0109  0.1718  0.8102
  985MOL0     C29910  -0.681   2.919  11.172  0.7697 -0.1397 -0.5803
  985MOL0     C29911  -0.806   2.881  11.253 -0.0026  0.3869 -0.2023
  985MOL0     O29912  -0.898   2.853  11.150  0.5002  0.0976 -0.5022
  985MOL0     C29913  -1.025   2.840  11.188  0.9925 -0.3525 -0.1559
  985MOL0     C29914  -1.125   2.827  11.091  0.0664 -0.3126 -0.2226
  985MOL0     C29915  -1.259   2.824  11.114  0.5353  0.1843 -0.1861
  985MOL0     C29916  -1.306   2.834  11.253 -0.2808  0.4024  0.7468
  985MOL0     C29917  -1.451   2.815  11.268 -0.7788  0.1977  0.2942
  985MOL0     O29918  -1.489   2.816  11.400  0.2314  0.4940 -0.0464
  985MOL0     C29919  -1.625   2.814  11.417  0.3347  0.1061  0.0362
  985MOL0     C29920  -1.684   2.938  11.424  0.0982  0.3687  0.2796
  985MOL0     C29921  -1.821   2.948  11.453  0.2630  0.6992  0.3012
  985MOL0     C29922  -1.897   2.832  11.450  0.6364  0.2146  0.5434
  985MOL0     O29923  -2.032   2.855  11.463 -0.2029 -1.3947  0.1713
  985MOL0     C29924  -2.114   2.765  11.537  0.5299 -0.8115  1.0539
  985MOL0     C29925  -2.129   2.823  11.680 -0.3380 -0.6907  0.4222
  985MOL0     C29926  -2.189   2.966  11.680  1.0257  0.7332  0.3890
  985MOL0     C29927  -2.319   2.975  11.606  0.5895 -0.4693  0.8175
  985MOL0     C29928  -2.377   3.114  11.624 -0.0311 -0.2763  0.3612
  985MOL0     C29929  -2.530   3.098  11.609  0.3088 -0.4294  0.1838
  985MOL0     C29930  -2.580   3.070  11.462 -0.1277 -0.2732 -0.3479
  985MOL0     C29931  -2.695   2.966  11.461  0.8336 -0.2445  0.7279
  985MOL0    Cl29932  -2.825   2.994  11.577  0.1437  0.0212  0.0915
  985MOL0     C29933  -1.843   2.704  11.422  0.3827 -0.9444  0.2093
  985MOL0     C29934  -1.704   2.696  11.408 -0.4713 -0.0106 -0.2527
  985MOL0     O29935  -1.528   2.798  11.173  0.0350  0.1306 -0.2965
  985MOL0     C29936  -1.208   2.857  11.353  0.2936 -0.3986  0.5587
  985MOL0     C29937  -1.072   2.869  11.320 -0.0626 -0.2887 -0.3655
  985MOL0     N29938  -0.290   2.871  11.381  0.7126 -0.1291  0.1810
  985MOL0     N29939  -0.166   2.873  11.413 -0.4220  0.6053 -1.0140
  985MOL0     C29940   1.031   2.785  11.161 -0.9655 -0.6050 -0.3940
  985MOL0     C29941   1.148   2.740  11.094 -0.0376 -0.5717 -0.4017
  985MOL0     C29942   1.535   2.528  11.011  0.7809  0.8313 -0.0747
  985MOL0     C29943   1.648   2.610  11.022 -0.0166  0.0467 -0.2671
  985MOL0     C29944   1.780   2.550  11.000 -0.5823  0.5283 -0.6368
  985MOL0     C29945   1.791   2.421  10.938  0.9461  0.3998  0.1957
  985MOL0     O29946   1.910   2.380  10.899  0.3166 -0.0809 -0.3183
  985MOL0     C29947   1.934   2.243  10.878 -0.4844  0.1472  0.3136
  985MOL0     C29948   2.090   2.234  10.862  0.1758 -1.0721 -0.0572
  985MOL0     C29949   2.142   2.094  10.849 -0.1237  0.1507 -0.2594
  985MOL0     C29950   2.294   2.079  10.796  0.3105 -0.3112  0.2784
  985MOL0     C29951   2.330   1.934  10.771  0.0507 -0.2322  0.1926
  985MOL0     C29952   2.378   1.824  10.754 -0.0094 -0.2211 -0.5677
  985MOL0     C29953   1.671   2.345  10.937 -0.3484  0.0730  0.3287
  985MOL0     C29954   1.544   2.393  10.966 -0.7001 -0.0295 -0.3227
  985MOL0     H29955   1.384   2.824  11.313  0.7325 -1.2972  0.3632
  985MOL0     H29956   1.180   2.917  11.433 -1.7140  1.8354 -0.4119
  985MOL0     H29957   0.794   2.768  11.325 -1.4906  0.5532 -1.6856
  985MOL0     H29958   0.783   2.922  11.235 -0.8739  3.1207  2.1733
  985MOL0     H29959   0.734   3.038  11.455 -0.3001 -1.1185  3.1932
  985MOL0     H29960   0.718   2.876  11.528 -3.0429  0.5906  0.5331
  985MOL0     H29961   0.542   2.810  11.374  1.4605  0.6924 -3.7321
  985MOL0     H29962   0.545   2.963  11.294 -1.5604  2.3923  1.3636
  985MOL0     H29963   0.489   2.950  11.607 -1.4251 -0.6755 -0.4440
  985MOL0     H29964   0.494   3.092  11.508  0.1481  0.7078  0.5211
  985MOL0     H29965   0.251   2.990  11.562 -3.0452  1.3089 -1.8508
  985MOL0     H29966   0.296   2.864  11.447  0.6210 -0.4491  1.3215
  985MOL0     H29967   0.304   3.033  11.265 -0.7594 -0.2748 -1.0747
  985MOL0     H29968   0.295   3.157  11.378  1.8918 -1.4882  2.2432
  985MOL0     H29969   0.049   3.092  11.438  1.3426 -1.8778  2.1472
  985MOL0     H29970   0.068   3.131  11.268 -3.8255 -0.8396  0.8034
  985MOL0     H29971   0.077   2.867  11.401 -0.1336  0.7862  1.1089
  985MOL0     H29972   0.093   2.883  11.218  0.0643  1.4357 -0.7470
  985MOL0     H29973  -0.163   2.971  11.092  0.2434  1.5774 -0.4207
  985MOL0     H29974  -0.449   2.856  11.091 -1.0154 -1.6713  0.8781
  985MOL0     H29975  -0.432   3.029  11.134  0.2028 -0.5304 -0.8580
  985MOL0     H29976  -0.556   2.981  11.347 -0.8046  1.8763 -0.4237
  985MOL0     H29977  -0.563   2.816  11.311 -0.5378 -1.0976 -1.5738
  985MOL0     H29978  -0.683   3.021  11.132  1.0893  0.9699  2.0440
  985MOL0     H29979  -0.674   2.847  11.090  0.7038 -2.0679  1.0392
  985MOL0     H29980  -0.824   2.963  11.323  2.8312  0.8489  0.1053
  985MOL0     H29981  -0.791   2.784  11.302 -0.7440 -0.1377 -0.9919
  985MOL0     H29982  -1.094   2.809  10.988 -1.0079  3.6913 -1.4124
  985MOL0     H29983  -1.331   2.812  11.034  0.7422 -0.1616 -0.3200
  985MOL0     H29984  -1.624   3.028  11.415  1.1935 -0.5654 -3.2580
  985MOL0     H29985  -1.877   3.041  11.453  0.0965  0.8319 -4.4256
  985MOL0     H29986  -2.076   2.663  11.548 -0.8459 -1.1836  2.7086
  985MOL0     H29987  -2.213   2.757  11.490  0.2745 -0.9354  1.6030
  985MOL0     H29988  -2.028   2.833  11.721  0.6325 -0.2051 -1.9122
  985MOL0     H29989  -2.188   2.762  11.749  0.3104  2.7432  4.3420
  985MOL0     H29990  -2.127   3.043  11.634  1.6025  1.3445  2.1242
  985MOL0     H29991  -2.205   2.997  11.783  0.6118 -1.3141  0.9948
  985MOL0     H29992  -2.296   2.951  11.502 -1.4984 -2.0589  0.6537
  985MOL0     H29993  -2.383   2.897  11.648  2.2503  0.0804  4.8639
  985MOL0     H29994  -2.334   3.176  11.546  0.3261 -0.7049  0.2118
  985MOL0     H29995  -2.349   3.166  11.716  0.4950  3.2128 -1.6070
  985MOL0     H29996  -2.572   3.193  11.642 -0.5768 -0.2625 -1.3226
  985MOL0     H29997  -2.566   3.021  11.678 -0.8003  0.3658  0.5219
  985MOL0     H29998  -2.602   3.164  11.411  2.5703 -1.0141 -3.2301
  985MOL0     H29999  -2.492   3.028  11.414  0.0109 -0.4183  0.0272
  985MOL0     H30000  -2.655   2.867  11.481  2.0464  0.0111 -0.3185
  985MOL0     H30001  -2.739   2.967  11.361  0.3660 -1.5826  0.8947
  985MOL0     H30002  -1.905   2.615  11.422  0.5449 -1.0613  0.8209
  985MOL0     H30003  -1.667   2.594  11.406 -1.5470 -0.4106 -1.1472
  985MOL0     H30004  -1.246   2.863  11.455 -2.4726  0.3137 -0.4353
  985MOL0     H30005  -1.009   2.877  11.408 -0.3292  0.5468 -0.2430
  985MOL0     H30006   0.936   2.780  11.108 -1.6890  0.9364  0.6792
  985MOL0     H30007   1.147   2.691  10.996 -2.1673 -1.8678  0.1936
  985MOL0     H30008   1.626   2.708  11.063 -4.7037 -1.5055  1.5480
  985MOL0     H30009   1.870   2.608  11.019  0.9969 -0.7289 -3.6366
  985MOL0     H30010   1.882   2.206  10.790  0.1426  1.5863 -0.6944
  985MOL0     H30011   1.908   2.187  10.968 -0.9941  4.2351  2.9916
  985MOL0     H30012   2.115   2.302  10.779 -1.5124  0.9074  0.9614
  985MOL0     H30013   2.149   2.278  10.943  0.2686  1.4530 -1.3855
  985MOL0     H30014   2.078   2.034  10.784  0.5162  0.0405 -0.7965
  985MOL0     H30015   2.142   2.048  10.948  0.1610 -4.3451 -2.1437
  985MOL0     H30016   2.282   2.122  10.695  0.1018  0.4687  0.6250
  985MOL0     H30017   2.375   2.130  10.850 -0.5724  0.5763  0.7931
  985MOL0     H30018   2.419   1.727  10.733  3.3423  0.7750  0.6824
  985MOL0     H30019   1.672   2.242  10.904 -0.7163 -0.9470  3.2548
  985MOL0     H30020   1.460   2.326  10.954  0.4978 -1.8220  0.7875
  986MOL0     O30021   3.357   2.556   2.735  0.5560  0.4152  0.5149
  986MOL0     C30022   3.424   2.453   2.741  0.0831  0.0365 -1.1312
  986MOL0     O30023   3.384   2.318   2.730  1.0631 -0.2486  0.5731
  986MOL0     C30024   3.257   2.268   2.737  0.1890 -0.8754  0.3700
  986MOL0     C30025   3.139   2.341   2.743 -0.1668  0.2627  0.3068
  986MOL0     C30026   3.011   2.276   2.736  0.1561 -0.2555  0.3168
  986MOL0     C30027   2.996   2.140   2.728 -0.4912  0.4966  0.4296
  986MOL0     O30028   2.871   2.081   2.726  0.6127 -0.4551  0.1873
  986MOL0     C30029   2.857   1.947   2.765  0.3170 -0.0612  1.0276
  986MOL0     C30030   2.721   1.947   2.825  0.9164 -0.2464  1.1157
  986MOL0     C30031   2.677   1.818   2.894  0.7159  0.7818 -0.0095
  986MOL0     C30032   2.580   1.852   3.002  0.4872 -0.3128 -0.8858
  986MOL0     C30033   2.508   1.735   3.079  0.1677 -0.1215 -0.0415
  986MOL0     C30034   2.461   1.628   2.999 -0.2531 -0.0897  0.9720
  986MOL0     C30035   2.386   1.521   3.086  0.8544  0.6452 -0.1926
  986MOL0     C30036   2.330   1.413   2.986  0.4319  0.4992 -0.3140
  986MOL0     N30037   2.251   1.321   3.068 -0.2939 -0.3768  0.0714
  986MOL0     C30038   2.262   1.188   3.079 -0.3951  0.1520  0.0704
  986MOL0     C30039   2.147   1.153   3.147  0.3153 -0.3104 -0.5211
  986MOL0     C30040   2.110   1.012   3.183  0.5575 -0.7232 -0.1254
  986MOL0     C30041   1.978   1.002   3.249  0.0607  0.2600 -0.3767
  986MOL0     C30042   1.946   0.852   3.271  0.6628  0.1593 -0.5311
  986MOL0     C30043   1.802   0.850   3.337  0.0029  0.3693 -0.9048
  986MOL0     O30044   1.712   0.883   3.236 -0.1522  0.6191 -0.0007
  986MOL0     C30045   1.573   0.893   3.259  0.4459  0.5647  0.1943
  986MOL0     C30046   1.513   0.860   3.379  0.6993  0.5425 -0.1309
  986MOL0     C30047   1.364   0.860   3.394  0.1523 -0.5871 -0.6841
  986MOL0     C30048   1.281   0.906   3.297  0.0267  0.2125 -0.9977
  986MOL0     C30049   1.141   0.918   3.315 -0.5121  0.1834 -0.2511
  986MOL0     O30050   1.062   0.931   3.197  0.3373  0.7593  0.2762
  986MOL0     C30051   0.926   0.926   3.222 -0.0009  0.5567 -0.0446
  986MOL0     C30052   0.845   1.039   3.192 -0.2510  0.3055 -0.4888
  986MOL0     C30053   0.705   1.031   3.198 -0.8883  0.1199  0.6930
  986MOL0     C30054   0.643   0.924   3.253  0.0081 -0.1559 -0.6238
  986MOL0     O30055   0.505   0.903   3.272  0.0892 -0.3927  0.2230
  986MOL0     C30056   0.412   1.001   3.225  0.4539 -0.4275 -1.2325
  986MOL0     C30057   0.267   0.947   3.251  1.1844  0.8942 -0.8083
  986MOL0     C30058   0.168   1.052   3.192 -0.4033  0.4502 -0.9260
  986MOL0     C30059   0.027   0.987   3.208 -0.1486 -0.0865 -0.1045
  986MOL0     C30060  -0.068   1.101   3.164  0.1412 -0.7661  0.1527
  986MOL0     C30061  -0.213   1.052   3.121 -0.0958 -0.2870  0.2146
  986MOL0     C30062  -0.259   1.130   2.998  0.0237 -0.2714 -0.4370
  986MOL0     C30063  -0.404   1.087   2.944 -0.0413  0.4794 -0.5409
  986MOL0    Cl30064  -0.540   1.100   3.074  0.2198 -0.0820 -0.2355
  986MOL0     C30065   0.725   0.813   3.289 -0.2532  0.1533 -0.1091
  986MOL0     C30066   0.862   0.816   3.271 -0.0785  0.4905  0.7780
  986MOL0     O30067   1.097   0.910   3.429  0.2088  0.6431 -0.2326
  986MOL0     C30068   1.347   0.943   3.174  0.3523 -0.1177 -0.6569
  986MOL0     C30069   1.489   0.939   3.155  0.8990  0.2689  0.8722
  986MOL0     N30070   2.070   1.264   3.169  0.0081  0.1642  0.5338
  986MOL0     N30071   2.134   1.364   3.124  1.3886 -0.6307  0.3860
  986MOL0     C30072   3.119   2.066   2.718  0.6645 -0.8037  0.5431
  986MOL0     C30073   3.243   2.124   2.731 -0.1788 -0.7133  0.7132
  986MOL0     C30074   3.565   2.473   2.780  0.4782  0.8771 -0.0254
  986MOL0     C30075   3.662   2.367   2.788  0.1814 -0.3560  0.6282
  986MOL0     C30076   3.793   2.401   2.820  0.3835  0.0270  0.4201
  986MOL0     C30077   3.838   2.523   2.852  0.5747 -0.0342  0.1351
  986MOL0     O30078   3.973   2.520   2.898 -0.1672 -0.1126  0.1307
  986MOL0     C30079   4.037   2.647   2.926  0.6292  0.2659 -1.0875
  986MOL0     C30080   4.169   2.635   2.991  0.5197  0.3903 -0.1279
  986MOL0     C30081   4.223   2.773   3.001 -0.6675  0.0910 -0.2851
  986MOL0     C30082   4.357   2.775   3.080  0.1147  0.1878 -0.7824
  986MOL0     C30083   4.393   2.910   3.106 -0.0868  0.3578 -0.9835
  986MOL0     C30084   4.441   3.021   3.134 -0.5074  0.6543  0.1839
  986MOL0     C30085   3.745   2.631   2.848 -0.2265 -0.0520 -0.2592
  986MOL0     C30086   3.610   2.603   2.800  0.5538  0.1033  0.3367
  986MOL0     H30087   3.131   2.449   2.734  1.1939  0.3307 -0.3221
  986MOL0     H30088   2.929   2.347   2.731  0.1019 -0.4015 -2.5220
  986MOL0     H30089   2.928   1.928   2.846 -0.4628  0.5150  1.8578
  986MOL0     H30090   2.873   1.876   2.683  0.1157 -1.1037  1.8622
  986MOL0     H30091   2.646   1.967   2.747  0.2058  0.7455  2.0073
  986MOL0     H30092   2.732   2.027   2.899 -0.2379  2.7077 -1.6426
  986MOL0     H30093   2.771   1.776   2.930  1.9339  0.8996 -2.7790
  986MOL0     H30094   2.638   1.746   2.822  0.0310  1.1413 -0.0128
  986MOL0     H30095   2.636   1.920   3.068 -0.7228 -1.5810  1.5857
  986MOL0     H30096   2.502   1.919   2.966  0.4134  0.6576  0.9550
  986MOL0     H30097   2.419   1.774   3.128  0.9063  1.6644 -0.0202
  986MOL0     H30098   2.577   1.690   3.151  0.0053  0.8165  0.7244
  986MOL0     H30099   2.536   1.574   2.940  1.3091 -0.1329  2.8921
  986MOL0     H30100   2.392   1.677   2.929  2.6855  1.6696 -0.9513
  986MOL0     H30101   2.445   1.468   3.161 -2.0279 -1.5478  0.7143
  986MOL0     H30102   2.306   1.564   3.147 -1.2181  0.8066 -2.8042
  986MOL0     H30103   2.411   1.366   2.930 -0.5228 -0.6200 -0.8122
  986MOL0     H30104   2.265   1.469   2.919 -1.1730 -0.3700  0.4366
  986MOL0     H30105   2.347   1.130   3.045 -0.7758 -0.0900 -0.5019
  986MOL0     H30106   2.187   0.985   3.256  1.8099  2.2342 -0.2372
  986MOL0     H30107   2.114   0.947   3.095  0.0591  0.6121 -1.1710
  986MOL0     H30108   1.899   1.059   3.199 -0.3857 -1.5842 -1.8895
  986MOL0     H30109   1.992   1.046   3.348  0.1953 -1.4773  0.4189
  986MOL0     H30110   1.939   0.796   3.177  0.9128 -0.9954  0.1341
  986MOL0     H30111   2.011   0.814   3.350  1.0607  0.8184 -0.5281
  986MOL0     H30112   1.805   0.926   3.416 -0.2170  0.7900 -1.2949
  986MOL0     H30113   1.778   0.756   3.387 -0.8834 -0.4573 -2.8203
  986MOL0     H30114   1.568   0.825   3.466  1.4276  0.4616 -0.6110
  986MOL0     H30115   1.323   0.829   3.490 -0.9193 -0.5687 -1.1302
  986MOL0     H30116   0.896   1.131   3.166  0.5983  0.2797  0.9736
  986MOL0     H30117   0.657   1.122   3.162  2.8440  1.3722 -1.7051
  986MOL0     H30118   0.427   1.027   3.120  2.2548 -0.2446 -0.9508
  986MOL0     H30119   0.432   1.097   3.274 -4.0195  0.8974 -1.5462
  986MOL0     H30120   0.258   0.919   3.356  1.2701  0.9120 -0.7967
  986MOL0     H30121   0.255   0.855   3.192  0.8632 -2.2883  3.6723
  986MOL0     H30122   0.196   1.069   3.087  1.0445  1.8382 -0.3485
  986MOL0     H30123   0.188   1.150   3.238 -1.0402  1.4834 -2.7215
  986MOL0     H30124   0.006   0.894   3.156 -2.4361  0.9529 -1.1596
  986MOL0     H30125   0.009   0.966   3.314 -0.4024 -1.1453 -0.3509
  986MOL0     H30126  -0.026   1.153   3.078 -2.1333 -2.4617 -2.1550
  986MOL0     H30127  -0.079   1.179   3.239  0.8887  0.1767 -0.6919
  986MOL0     H30128  -0.282   1.070   3.203  2.3573  2.0698  1.9260
  986MOL0     H30129  -0.214   0.944   3.102  1.2595 -0.4208  0.8511
  986MOL0     H30130  -0.254   1.236   3.025  2.1665  0.1026 -2.0209
  986MOL0     H30131  -0.194   1.122   2.911 -2.2009 -2.3257 -2.0309
  986MOL0     H30132  -0.409   0.982   2.915 -0.2912 -0.0039  1.1417
  986MOL0     H30133  -0.437   1.143   2.856 -1.0589  0.1213 -0.4038
  986MOL0     H30134   0.691   0.713   3.314 -1.8525  0.7144  0.1309
  986MOL0     H30135   0.921   0.729   3.299 -2.2001 -0.7107  1.7113
  986MOL0     H30136   1.289   0.987   3.093 -1.1179  1.4182  1.1539
  986MOL0     H30137   1.531   0.971   3.059  3.0055  0.9740  1.9562
  986MOL0     H30138   3.122   1.958   2.708  3.9896 -0.6295 -1.9158
  986MOL0     H30139   3.333   2.066   2.719  0.1961 -0.2632  1.2855
  986MOL0     H30140   3.638   2.262   2.774  1.9888 -0.6395 -0.6093
  986MOL0     H30141   3.865   2.322   2.837  1.6180  0.8082 -1.0091
  986MOL0     H30142   3.974   2.698   3.000 -0.1827 -1.7255 -0.3334
  986MOL0     H30143   4.035   2.710   2.837 -2.1914 -1.5794 -2.4983
  986MOL0     H30144   4.144   2.588   3.086 -1.7351 -0.1900 -0.9417
  986MOL0     H30145   4.233   2.567   2.934  1.1719  0.3759  0.6062
  986MOL0     H30146   4.159   2.844   3.054 -0.3737 -1.6725  2.6281
  986MOL0     H30147   4.246   2.807   2.899 -2.0604 -1.5199 -1.1684
  986MOL0     H30148   4.347   2.717   3.172  0.0271 -0.4929 -1.2091
  986MOL0     H30149   4.436   2.716   3.031  1.0478  1.5538 -0.9939
  986MOL0     H30150   4.484   3.109   3.177 -0.4923  0.4906  0.5099
  986MOL0     H30151   3.777   2.732   2.870  1.4949 -0.6563  0.1343
  986MOL0     H30152   3.550   2.694   2.795 -0.5797 -0.6808 -0.9804
  987MOL0     O30153   6.755   6.731   8.352  0.1956  0.6942 -0.2384
  987MOL0     C30154   6.832   6.654   8.405  0.4566 -0.2489 -0.1505
  987MOL0     O30155   6.850   6.645   8.537 -0.0541  0.3768 -1.0788
  987MOL0     C30156   6.775   6.725   8.624 -0.7894 -0.2068  0.6801
  987MOL0     C30157   6.830   6.810   8.719 -0.5902  0.3700 -0.0180
  987MOL0     C30158   6.746   6.890   8.804 -0.5742  0.6208  0.2819
  987MOL0     C30159   6.603   6.864   8.806 -0.2839  0.5407  0.2534
  987MOL0     O30160   6.519   6.928   8.885  0.9197  0.2244  0.3808
  987MOL0     C30161   6.541   7.062   8.913 -0.0574  0.5600 -0.4378
  987MOL0     C30162   6.507   7.152   8.792  0.0752  0.4937  0.9659
  987MOL0     C30163   6.380   7.116   8.709 -0.8801  0.3913  0.5342
  987MOL0     C30164   6.243   7.148   8.764 -0.1506 -0.1620 -1.3700
  987MOL0     C30165   6.137   7.156   8.657  0.0203  1.0823  0.5205
  987MOL0     C30166   6.104   7.016   8.585  0.3568  0.1244 -0.5932
  987MOL0     C30167   6.040   6.914   8.682  0.9425 -0.0432  0.5232
  987MOL0     C30168   5.969   6.805   8.590 -0.4423 -0.0313  0.6977
  987MOL0     N30169   5.835   6.849   8.543  0.3508  0.7016 -0.3879
  987MOL0     C30170   5.775   6.783   8.439  0.8519 -0.1363 -0.3023
  987MOL0     C30171   5.640   6.814   8.451  0.3514 -0.4112  0.8990
  987MOL0     C30172   5.543   6.781   8.338  0.4358  0.7499  0.2309
  987MOL0     C30173   5.442   6.667   8.379 -0.0971 -0.0945 -0.6493
  987MOL0     C30174   5.370   6.712   8.506 -0.2011  1.5215 -0.7520
  987MOL0     C30175   5.229   6.640   8.530 -0.1118 -0.4428  0.1469
  987MOL0     O30176   5.148   6.664   8.411 -0.0947 -0.4793 -0.8110
  987MOL0     C30177   5.019   6.621   8.425  0.2402 -0.0478  0.1151
  987MOL0     C30178   4.963   6.559   8.539 -0.6188 -0.8082  0.5002
  987MOL0     C30179   4.832   6.506   8.535  0.6704 -0.0211  0.8032
  987MOL0     C30180   4.756   6.528   8.419  0.3509 -0.7913  0.2028
  987MOL0     C30181   4.608   6.488   8.418  0.2054  0.0166  0.0380
  987MOL0     O30182   4.569   6.408   8.523  0.1886 -0.0961 -0.6402
  987MOL0     C30183   4.454   6.327   8.514 -0.0461  0.1873 -0.4308
  987MOL0     C30184   4.464   6.199   8.563 -0.0834  0.2565 -0.9855
  987MOL0     C30185   4.358   6.103   8.559  0.5587 -0.3418 -0.6939
  987MOL0     C30186   4.230   6.150   8.514  0.3714  0.1934 -0.1278
  987MOL0     O30187   4.116   6.070   8.504  0.1755  0.4078 -0.2317
  987MOL0     C30188   4.118   5.973   8.608  0.1964  0.0415  0.3444
  987MOL0     C30189   3.982   5.899   8.617 -0.0601  0.1689  0.4590
  987MOL0     C30190   3.975   5.808   8.499 -0.4461  0.6589  1.0932
  987MOL0     C30191   3.844   5.736   8.497 -0.0369 -0.6709 -0.2004
  987MOL0     C30192   3.823   5.675   8.365  0.0365 -0.3922 -0.1366
  987MOL0     C30193   3.715   5.572   8.353  0.1785 -0.5488 -0.5029
  987MOL0     C30194   3.708   5.508   8.214 -0.0251 -0.0436  0.2642
  987MOL0     C30195   3.561   5.467   8.156  0.6575  0.0579 -0.5520
  987MOL0    Cl30196   3.441   5.417   8.284 -0.4660  0.3489 -0.2901
  987MOL0     C30197   4.228   6.277   8.453  0.7257 -0.6241  0.2250
  987MOL0     C30198   4.332   6.363   8.448  0.6370 -0.2581 -0.3827
  987MOL0     O30199   4.538   6.523   8.327 -0.3819  0.2605  0.3717
  987MOL0     C30200   4.812   6.592   8.313 -0.6195 -0.5270 -0.2262
  987MOL0     C30201   4.944   6.637   8.310  0.1259 -0.5759  0.6666
  987MOL0     N30202   5.622   6.896   8.561 -0.1508 -0.2398 -0.2927
  987MOL0     N30203   5.737   6.909   8.618 -0.4208  0.2443  0.3375
  987MOL0     C30204   6.556   6.758   8.723  0.2324 -0.3223 -0.5400
  987MOL0     C30205   6.641   6.694   8.633 -0.0948 -0.6641 -0.1533
  987MOL0     C30206   6.920   6.572   8.321 -1.2721 -0.3629 -0.0535
  987MOL0     C30207   6.928   6.605   8.185  0.5827 -0.8280  0.5014
  987MOL0     C30208   6.988   6.523   8.092  0.5535  0.2578 -0.3577
  987MOL0     C30209   7.060   6.413   8.133  0.7941 -0.0257 -0.5187
  987MOL0     O30210   7.113   6.318   8.051  0.3531 -0.1997  1.2039
  987MOL0     C30211   7.106   6.329   7.906  0.0308  0.0086 -0.5728
  987MOL0     C30212   7.192   6.447   7.851 -0.0328 -0.6221  0.4340
  987MOL0     C30213   7.202   6.446   7.696 -0.1412 -0.3107 -0.8398
  987MOL0     C30214   7.277   6.571   7.638 -0.0457 -0.6028 -0.2141
  987MOL0     C30215   7.377   6.540   7.537 -0.1480 -0.8741 -0.9374
  987MOL0     C30216   7.458   6.504   7.447 -0.4193 -0.4886 -0.3297
  987MOL0     C30217   7.067   6.384   8.272 -0.4419  0.0128  0.3469
  987MOL0     C30218   6.990   6.459   8.364 -0.4264 -0.7455  0.1983
  987MOL0     H30219   6.938   6.818   8.715 -0.5104 -0.1923  0.7375
  987MOL0     H30220   6.803   6.965   8.858  3.6820 -0.6233 -1.9835
  987MOL0     H30221   6.644   7.076   8.947 -0.5494 -1.8784  2.5145
  987MOL0     H30222   6.487   7.097   9.001  1.0371  1.7455 -0.2055
  987MOL0     H30223   6.602   7.159   8.738  0.5124  0.2407  1.6818
  987MOL0     H30224   6.487   7.253   8.830 -4.0094  0.4888 -0.6894
  987MOL0     H30225   6.373   7.014   8.670 -1.3679  0.8511 -0.6410
  987MOL0     H30226   6.389   7.183   8.622  0.1752  0.0887  0.4036
  987MOL0     H30227   6.206   7.072   8.833 -2.1363  0.6066 -1.5360
  987MOL0     H30228   6.248   7.248   8.807  0.2618 -0.4347 -0.7634
  987MOL0     H30229   6.180   7.220   8.579  0.3414 -1.0877 -1.1798
  987MOL0     H30230   6.041   7.191   8.694 -1.4049 -1.7577 -0.1674
  987MOL0     H30231   6.188   6.962   8.540 -0.1215 -1.7927  0.6616
  987MOL0     H30232   6.031   7.039   8.507 -0.8663 -0.8163  0.2286
  987MOL0     H30233   6.106   6.855   8.746 -0.9710 -1.8518  0.9170
  987MOL0     H30234   5.970   6.963   8.750  1.1614  0.7805  0.1577
  987MOL0     H30235   5.938   6.715   8.644 -0.1980 -0.3827  0.2557
  987MOL0     H30236   6.037   6.773   8.511  1.6243  3.4891  0.8646
  987MOL0     H30237   5.822   6.714   8.369 -2.4537  0.2107 -3.1850
  987MOL0     H30238   5.600   6.758   8.248 -0.5368  3.1484 -1.0856
  987MOL0     H30239   5.483   6.872   8.326  0.6845  0.8840  0.0122
  987MOL0     H30240   5.493   6.571   8.383  1.5184  0.7553  1.2918
  987MOL0     H30241   5.383   6.659   8.287  2.1301  0.4649 -2.2220
  987MOL0     H30242   5.440   6.693   8.588  1.1235  0.2718 -2.0996
  987MOL0     H30243   5.360   6.821   8.507  2.0863  1.7968 -1.3852
  987MOL0     H30244   5.181   6.696   8.611 -1.2981  0.4898 -1.1620
  987MOL0     H30245   5.252   6.534   8.546  1.0102 -0.7713 -2.8978
  987MOL0     H30246   5.020   6.544   8.630 -0.6718 -0.1377  0.6537
  987MOL0     H30247   4.788   6.460   8.623  0.4954  1.3670  1.4628
  987MOL0     H30248   4.557   6.151   8.592  0.8108  3.1518  1.4168
  987MOL0     H30249   4.371   5.998   8.586 -5.4087 -1.3131 -0.2966
  987MOL0     H30250   4.143   6.025   8.701  1.4364  1.6017 -0.8119
  987MOL0     H30251   4.195   5.898   8.589  0.1354  0.2734 -0.8600
  987MOL0     H30252   3.903   5.974   8.611 -0.0798  0.3659  2.5249
  987MOL0     H30253   3.966   5.852   8.715  0.6671  0.3610  0.6773
  987MOL0     H30254   4.060   5.739   8.496 -0.8496  0.1791 -0.1537
  987MOL0     H30255   3.987   5.861   8.404 -0.2726 -1.0315  0.1162
  987MOL0     H30256   3.853   5.659   8.574  0.9913  0.7236  1.1396
  987MOL0     H30257   3.753   5.788   8.529 -0.1166 -2.6249  3.1997
  987MOL0     H30258   3.920   5.631   8.338  1.7870  0.0867  4.4863
  987MOL0     H30259   3.790   5.763   8.308  1.3728  0.2289  0.0274
  987MOL0     H30260   3.618   5.621   8.365  0.3121 -0.5924  0.8683
  987MOL0     H30261   3.735   5.485   8.417  0.9500 -0.6432 -0.8658
  987MOL0     H30262   3.737   5.582   8.139  0.5882  0.3111  0.8389
  987MOL0     H30263   3.764   5.414   8.210  0.5021  0.1299  2.4592
  987MOL0     H30264   3.571   5.397   8.073 -0.8216  0.4199 -1.0756
  987MOL0     H30265   3.526   5.564   8.118 -2.2958 -0.7819 -0.2008
  987MOL0     H30266   4.140   6.311   8.399 -0.3463 -1.9603  1.0686
  987MOL0     H30267   4.327   6.457   8.395 -0.4638 -0.5776 -0.8642
  987MOL0     H30268   4.747   6.614   8.228  2.3009 -0.0791 -2.5132
  987MOL0     H30269   4.977   6.688   8.220  0.5577 -2.3515 -0.2139
  987MOL0     H30270   6.455   6.722   8.740  0.5141  0.0273  2.4724
  987MOL0     H30271   6.604   6.610   8.576  0.2546 -2.2193  1.8034
  987MOL0     H30272   6.868   6.688   8.150  1.6209 -0.0062  0.6071
  987MOL0     H30273   6.956   6.540   7.990 -1.3262  0.3478  0.2022
  987MOL0     H30274   7.001   6.346   7.883  0.0013 -0.1171 -0.5335
  987MOL0     H30275   7.136   6.233   7.864  1.7443  0.1774  0.1419
  987MOL0     H30276   7.140   6.540   7.876 -0.5799 -0.8372  0.1238
  987MOL0     H30277   7.290   6.439   7.898 -0.0383 -0.4360  0.4763
  987MOL0     H30278   7.100   6.441   7.657 -1.1550  1.3066  1.3636
  987MOL0     H30279   7.256   6.355   7.669  0.5467  0.0857 -0.8413
  987MOL0     H30280   7.213   6.649   7.596  0.5456  0.2921  0.5004
  987MOL0     H30281   7.344   6.606   7.717 -1.5209  0.8131  0.4764
  987MOL0     H30282   7.533   6.480   7.374 -1.4643  1.7805 -2.3042
  987MOL0     H30283   7.126   6.298   8.304  0.7630  0.0636 -1.5400
  987MOL0     H30284   6.991   6.435   8.469  0.0170 -0.3366  0.2882
  988MOL0     O30285   1.608   0.636   2.019  0.1609 -0.2584 -0.4272
  988MOL0     C30286   1.527   0.545   2.026 -0.0663 -0.2039  0.7316
  988MOL0     O30287   1.565   0.412   2.025 -0.1170  0.1304  0.0558
  988MOL0     C30288   1.693   0.370   1.999  0.1735 -0.0444  0.1895
  988MOL0     C30289   1.763   0.401   1.883 -0.6240  0.3193 -0.1508
  988MOL0     C30290   1.888   0.344   1.849 -0.6598 -0.6184  0.2875
  988MOL0     C30291   1.942   0.255   1.948  0.0066  0.1465  0.1258
  988MOL0     O30292   2.063   0.196   1.929 -0.4150 -0.6195 -0.0401
  988MOL0     C30293   2.173   0.284   1.965  0.2353 -0.2543 -0.2823
  988MOL0     C30294   2.299   0.233   1.898 -0.0483 -0.3235  0.3472
  988MOL0     C30295   2.430   0.248   1.979 -0.1017  0.1862  0.7623
  988MOL0     C30296   2.532   0.152   1.927 -0.8513  0.2835  0.2954
  988MOL0     C30297   2.660   0.160   2.016  0.2955  0.1990 -0.6487
  988MOL0     C30298   2.758   0.041   1.977  0.4694 -0.3181 -0.5583
  988MOL0     C30299   2.882   0.035   2.071  1.0479 -0.0556  0.2731
  988MOL0     C30300   2.966  -0.089   2.058 -0.4350 -0.2250 -0.0791
  988MOL0     N30301   2.898  -0.208   2.114 -0.1827  0.4853 -0.1486
  988MOL0     C30302   2.828  -0.221   2.233  0.5355  0.5282  0.1447
  988MOL0     C30303   2.798  -0.356   2.238 -0.3121 -0.1220 -0.3753
  988MOL0     C30304   2.724  -0.420   2.355  0.2861 -0.3144  0.8636
  988MOL0     C30305   2.572  -0.373   2.337 -0.3630 -0.3183  0.0957
  988MOL0     C30306   2.494  -0.435   2.455  0.4488  0.4352  0.3540
  988MOL0     C30307   2.336  -0.426   2.432 -0.0722 -0.4586  0.5173
  988MOL0     O30308   2.271  -0.476   2.546  0.1770 -0.4339  0.2845
  988MOL0     C30309   2.134  -0.455   2.561 -0.4079  0.1890  0.5216
  988MOL0     C30310   2.055  -0.388   2.466 -0.7770  0.2267 -0.6138
  988MOL0     C30311   1.922  -0.375   2.482  0.4858 -0.2258  0.4669
  988MOL0     C30312   1.861  -0.430   2.599  0.6939 -0.0471 -0.3996
  988MOL0     C30313   1.710  -0.406   2.632 -1.0914  0.0714 -0.3722
  988MOL0     O30314   1.662  -0.297   2.565 -0.2048  0.0627 -0.2497
  988MOL0     C30315   1.529  -0.276   2.563  0.2961 -0.4132 -0.1521
  988MOL0     C30316   1.452  -0.312   2.454  0.3786  0.2715 -0.2068
  988MOL0     C30317   1.313  -0.286   2.444 -0.4910 -0.4058 -1.8630
  988MOL0     C30318   1.251  -0.213   2.551 -0.5844  0.0981  0.5636
  988MOL0     O30319   1.117  -0.194   2.558 -0.9598  0.2027  0.2068
  988MOL0     C30320   1.050  -0.170   2.426  0.1298  0.0564 -0.4561
  988MOL0     C30321   0.909  -0.132   2.452  0.4033 -0.3199 -0.0919
  988MOL0     C30322   0.824  -0.134   2.317  0.0677  0.4497 -0.0511
  988MOL0     C30323   0.699  -0.052   2.332 -0.3035 -0.4234 -0.7372
  988MOL0     C30324   0.599  -0.065   2.213  0.0032  0.2868  0.1873
  988MOL0     C30325   0.520  -0.199   2.207 -0.2107 -0.8477 -0.1955
  988MOL0     C30326   0.438  -0.203   2.071  1.4150  0.7697  0.2714
  988MOL0     C30327   0.359  -0.332   2.058 -0.1464 -0.8532 -0.7072
  988MOL0    Cl30328   0.205  -0.301   1.968  0.6143  0.3066 -0.2223
  988MOL0     C30329   1.329  -0.178   2.662  0.6112  0.4926 -0.0537
  988MOL0     C30330   1.466  -0.215   2.671  0.1995 -0.2423  0.8870
  988MOL0     O30331   1.650  -0.483   2.706 -0.4993 -0.1238  0.0312
  988MOL0     C30332   1.934  -0.523   2.675 -0.1369 -0.4627  0.1728
  988MOL0     C30333   2.073  -0.527   2.660  0.3292  0.4264 -0.5053
  988MOL0     N30334   2.848  -0.417   2.127  0.2586 -0.1202  0.5981
  988MOL0     N30335   2.900  -0.328   2.052 -1.0833 -0.0771  0.6822
  988MOL0     C30336   1.865   0.217   2.060 -0.9860 -0.7283  0.8879
  988MOL0     C30337   1.738   0.276   2.077 -0.3251  0.3567 -0.4011
  988MOL0     C30338   1.388   0.587   2.052  0.1232  0.0433 -0.2968
  988MOL0     C30339   1.343   0.720   2.042 -0.1220 -0.8243 -0.0462
  988MOL0     C30340   1.207   0.745   2.048  0.0065  0.7255  0.1732
  988MOL0     C30341   1.105   0.643   2.076 -1.0016  0.1383 -0.4966
  988MOL0     O30342   0.979   0.705   2.086 -0.1037  0.2212  0.6504
  988MOL0     C30343   0.874   0.610   2.096  0.0801 -0.3733 -0.4082
  988MOL0     C30344   0.755   0.698   2.123  0.9410 -0.4652  0.8092
  988MOL0     C30345   0.662   0.724   1.998 -0.4791  1.1902 -0.1475
  988MOL0     C30346   0.533   0.798   2.023  0.4756  0.2965  0.0872
  988MOL0     C30347   0.560   0.941   2.039 -1.1925  0.3722  0.0421
  988MOL0     C30348   0.602   1.061   2.060 -0.1057  0.2899 -0.0945
  988MOL0     C30349   1.156   0.514   2.100 -0.6862 -0.2038 -0.2632
  988MOL0     C30350   1.297   0.491   2.089 -0.5262 -0.5121  0.2498
  988MOL0     H30351   1.711   0.474   1.822  1.3852  2.2203  0.2890
  988MOL0     H30352   1.946   0.369   1.762 -1.1993 -2.8618 -0.8101
  988MOL0     H30353   2.179   0.288   2.074 -0.0814 -0.2822 -0.2633
  988MOL0     H30354   2.156   0.385   1.927 -1.5187 -0.9409 -1.4723
  988MOL0     H30355   2.302   0.283   1.801  4.1385 -2.0108 -0.6033
  988MOL0     H30356   2.278   0.128   1.875  2.7907 -0.8076 -0.3953
  988MOL0     H30357   2.425   0.217   2.084 -2.6597 -5.3661 -0.6518
  988MOL0     H30358   2.476   0.347   1.970 -2.6161  1.4114  0.4752
  988MOL0     H30359   2.499   0.049   1.945 -0.5008  0.2183  0.5669
  988MOL0     H30360   2.538   0.158   1.818 -0.6817 -0.3327  0.2656
  988MOL0     H30361   2.630   0.149   2.120  3.7106 -1.9052  0.2745
  988MOL0     H30362   2.714   0.254   2.000 -0.4566  0.9444  0.9721
  988MOL0     H30363   2.792   0.054   1.874 -0.9012  3.3218 -0.6754
  988MOL0     H30364   2.695  -0.049   1.969  2.0028 -1.4660 -0.1963
  988MOL0     H30365   2.942   0.117   2.031 -1.0331  0.4180 -2.1244
  988MOL0     H30366   2.846   0.059   2.171 -1.6829 -2.0726 -0.1347
  988MOL0     H30367   3.057  -0.078   2.117 -0.1649 -1.1081 -0.3210
  988MOL0     H30368   2.997  -0.108   1.955  4.2251  0.4125  0.9935
  988MOL0     H30369   2.831  -0.147   2.312 -0.6832 -1.2129  1.9120
  988MOL0     H30370   2.755  -0.386   2.454 -1.8511 -2.1062  2.2552
  988MOL0     H30371   2.738  -0.528   2.341 -1.8837 -0.4351 -0.9964
  988MOL0     H30372   2.542  -0.415   2.240  2.5336  0.4952 -1.2656
  988MOL0     H30373   2.555  -0.265   2.341 -1.8247 -0.5623  1.8322
  988MOL0     H30374   2.511  -0.542   2.466 -2.7034 -0.6917 -3.5014
  988MOL0     H30375   2.516  -0.376   2.545  0.9633  2.6133 -1.1134
  988MOL0     H30376   2.304  -0.483   2.345  1.7676  0.6400 -0.9583
  988MOL0     H30377   2.307  -0.322   2.421 -1.7611 -0.7426  1.8515
  988MOL0     H30378   2.096  -0.341   2.377 -0.1511 -0.3236 -0.6213
  988MOL0     H30379   1.871  -0.308   2.413  1.8371 -0.9966 -1.3606
  988MOL0     H30380   1.503  -0.366   2.375 -1.4026  0.7054 -1.7105
  988MOL0     H30381   1.270  -0.332   2.355  0.2303 -0.9605 -1.9309
  988MOL0     H30382   1.062  -0.260   2.365  2.6478 -0.1604  0.2820
  988MOL0     H30383   1.088  -0.081   2.375 -0.4550  2.3471  2.7800
  988MOL0     H30384   0.911  -0.037   2.507  0.3455 -2.0341  3.0327
  988MOL0     H30385   0.858  -0.196   2.524  0.7576 -1.2045 -0.6102
  988MOL0     H30386   0.807  -0.240   2.295 -0.1394  0.4832 -0.0556
  988MOL0     H30387   0.892  -0.094   2.242 -0.8417  1.7479 -0.2153
  988MOL0     H30388   0.650  -0.087   2.423 -2.2590  1.0112 -1.1904
  988MOL0     H30389   0.720   0.053   2.352 -1.3895 -0.3877  0.3021
  988MOL0     H30390   0.650  -0.051   2.117  0.1263 -1.7559 -0.0878
  988MOL0     H30391   0.539   0.026   2.223  0.9460  0.7016  2.9544
  988MOL0     H30392   0.458  -0.206   2.297 -2.1921 -0.6712 -1.5037
  988MOL0     H30393   0.587  -0.286   2.206 -1.6422 -1.9724 -0.6458
  988MOL0     H30394   0.368  -0.118   2.070  1.1391  0.5659  1.4345
  988MOL0     H30395   0.506  -0.196   1.985  0.2311  1.0554 -0.6780
  988MOL0     H30396   0.337  -0.376   2.156  1.1799 -1.3093 -0.5967
  988MOL0     H30397   0.418  -0.407   2.005 -0.0794 -2.2382  1.2183
  988MOL0     H30398   1.282  -0.134   2.750  2.6661  2.0198  0.3482
  988MOL0     H30399   1.540  -0.200   2.749 -1.2501  1.4662  2.0128
  988MOL0     H30400   1.895  -0.589   2.752  1.8260 -0.5940  1.1315
  988MOL0     H30401   2.139  -0.589   2.720  0.3501  1.0335  0.1137
  988MOL0     H30402   1.909   0.151   2.134  0.6448 -2.1769 -1.2320
  988MOL0     H30403   1.669   0.248   2.156 -0.5110 -1.4758 -1.1738
  988MOL0     H30404   1.414   0.801   2.025 -0.7012 -0.6448 -1.7440
  988MOL0     H30405   1.167   0.845   2.041  1.0639  1.7369  4.7741
  988MOL0     H30406   0.876   0.550   2.187 -3.0149  0.1942  0.1620
  988MOL0     H30407   0.863   0.544   2.011 -2.2780 -0.6137  0.0231
  988MOL0     H30408   0.698   0.658   2.207  1.2431  2.3353  2.4680
  988MOL0     H30409   0.784   0.800   2.150 -0.3330  0.5599 -1.4124
  988MOL0     H30410   0.632   0.625   1.961 -0.2521  1.8968 -2.3427
  988MOL0     H30411   0.721   0.776   1.922  1.1187 -0.2584  0.0418
  988MOL0     H30412   0.461   0.768   1.946 -0.1280 -1.3331  1.2319
  988MOL0     H30413   0.488   0.773   2.120  2.4944 -0.5873  0.8435
  988MOL0     H30414   0.639   1.155   2.095 -1.5402  0.3393  1.4607
  988MOL0     H30415   1.095   0.427   2.121  0.6323 -1.1942 -0.4398
  988MOL0     H30416   1.329   0.388   2.095  2.5356  0.3638  0.4864
  989MOL0     O30417   0.789   6.240  10.857 -0.4027 -0.3305  0.3644
  989MOL0     C30418   0.854   6.145  10.903  0.3365  0.1640 -0.4047
  989MOL0     O30419   0.836   6.018  10.867 -0.2963 -0.4332  0.9302
  989MOL0     C30420   0.744   5.960  10.789  0.4453 -0.4687 -0.5136
  989MOL0     C30421   0.637   6.031  10.725 -0.9508  0.1975  0.3039
  989MOL0     C30422   0.527   5.961  10.654 -0.6514 -0.9488  0.0211
  989MOL0     C30423   0.539   5.818  10.652  0.9903 -0.4120  0.4031
  989MOL0     O30424   0.440   5.745  10.593 -0.1830 -0.3504  0.6446
  989MOL0     C30425   0.310   5.785  10.620 -0.3078 -0.2869  0.0224
  989MOL0     C30426   0.226   5.664  10.620 -0.0172 -0.7057  0.4137
  989MOL0     C30427   0.070   5.705  10.621  0.1517 -0.0733  0.2400
  989MOL0     C30428  -0.006   5.571  10.628  0.7255  0.4357 -0.6411
  989MOL0     C30429  -0.158   5.599  10.648  0.2881  0.6762 -0.2355
  989MOL0     C30430  -0.238   5.704  10.567 -0.0364  0.1300  0.6331
  989MOL0     C30431  -0.393   5.697  10.597 -0.1125  0.1890  0.2510
  989MOL0     C30432  -0.428   5.705  10.740  0.3975  0.1261 -0.2504
  989MOL0     N30433  -0.568   5.709  10.776 -0.8729  0.6386 -0.8127
  989MOL0     C30434  -0.610   5.759  10.899  0.0224  0.9309 -0.4397
  989MOL0     C30435  -0.740   5.782  10.875  0.0876  0.5577  0.3293
  989MOL0     C30436  -0.829   5.842  10.981 -0.4832  0.7223 -0.0347
  989MOL0     C30437  -0.985   5.808  10.983 -0.0523  0.0071 -0.3590
  989MOL0     C30438  -1.052   5.846  10.850 -0.0472  0.4743 -0.2996
  989MOL0     C30439  -1.200   5.848  10.861  0.7286 -0.3341 -0.7363
  989MOL0     O30440  -1.242   5.936  10.968 -0.1031 -0.1684  0.2303
  989MOL0     C30441  -1.344   5.886  11.041 -0.2670 -0.5519  0.2167
  989MOL0     C30442  -1.353   5.936  11.168 -0.0213 -0.2491  0.1111
  989MOL0     C30443  -1.468   5.915  11.244 -0.9680 -1.0242  0.8717
  989MOL0     C30444  -1.566   5.833  11.196  0.0905  0.0725  0.2198
  989MOL0     C30445  -1.687   5.793  11.277 -1.0331 -0.2365  0.5695
  989MOL0     O30446  -1.789   5.712  11.214 -0.2953 -0.5353 -0.0803
  989MOL0     C30447  -1.918   5.699  11.263 -0.5387 -0.0329  0.3419
  989MOL0     C30448  -1.962   5.699  11.395  0.5366 -0.8114 -0.4848
  989MOL0     C30449  -2.093   5.672  11.433  0.0289 -0.3334  0.2296
  989MOL0     C30450  -2.188   5.657  11.327  0.1040 -0.5811  0.4363
  989MOL0     O30451  -2.328   5.660  11.357 -0.5320  0.3278  0.2298
  989MOL0     C30452  -2.367   5.560  11.454  0.0188  0.9036 -0.3021
  989MOL0     C30453  -2.512   5.556  11.490 -0.1255 -0.5029  0.8987
  989MOL0     C30454  -2.593   5.521  11.358 -0.4068 -0.3337  0.0654
  989MOL0     C30455  -2.742   5.518  11.385 -0.3448 -0.3179 -0.2486
  989MOL0     C30456  -2.805   5.447  11.262 -0.4289  0.3051 -0.0968
  989MOL0     C30457  -2.953   5.474  11.260 -0.0369 -0.6294 -0.3953
  989MOL0     C30458  -3.019   5.418  11.137 -0.1539  0.2658 -0.0683
  989MOL0     C30459  -3.168   5.411  11.150 -0.5317 -0.5170  0.3255
  989MOL0    Cl30460  -3.237   5.574  11.133 -0.1800 -0.0006 -0.3022
  989MOL0     C30461  -2.145   5.668  11.194  0.0088 -0.5524 -0.2979
  989MOL0     C30462  -2.011   5.666  11.163  0.7739 -0.1361  0.3329
  989MOL0     O30463  -1.704   5.853  11.390  0.1721  0.6372  0.0505
  989MOL0     C30464  -1.557   5.786  11.064 -0.7524 -0.7129  0.6597
  989MOL0     C30465  -1.446   5.809  10.984 -0.0300  0.5301  0.7806
  989MOL0     N30466  -0.774   5.755  10.745  0.4181 -0.0686  0.4918
  989MOL0     N30467  -0.668   5.716  10.682  0.9093 -0.1110 -0.0707
  989MOL0     C30468   0.647   5.757  10.703 -0.0915  0.5606 -0.3452
  989MOL0     C30469   0.743   5.818  10.780 -0.6224  0.3157  0.3051
  989MOL0     C30470   0.960   6.169  11.003  0.3949  1.1462 -0.3019
  989MOL0     C30471   1.018   6.058  11.070  0.4569  0.5647  0.3657
  989MOL0     C30472   1.125   6.072  11.170 -1.0696 -0.1815 -0.2812
  989MOL0     C30473   1.175   6.199  11.200  0.0910  0.1170  0.3111
  989MOL0     O30474   1.278   6.220  11.290 -0.6734  0.5169 -0.0969
  989MOL0     C30475   1.400   6.126  11.289  1.1059 -1.1160 -0.0271
  989MOL0     C30476   1.480   6.164  11.172 -0.4418 -0.6907  0.4909
  989MOL0     C30477   1.598   6.071  11.157  0.1071 -0.6633  0.2253
  989MOL0     C30478   1.712   6.110  11.252 -0.4608  0.8227 -0.2745
  989MOL0     C30479   1.760   6.245  11.235 -0.5011 -0.3721 -0.0003
  989MOL0     C30480   1.814   6.357  11.212 -0.4145  0.4808  0.0912
  989MOL0     C30481   1.109   6.305  11.141  0.2701  0.0600 -0.5793
  989MOL0     C30482   1.007   6.289  11.048  0.5956 -1.0067 -0.1023
  989MOL0     H30483   0.626   6.139  10.717 -0.3027  0.2265 -0.2961
  989MOL0     H30484   0.447   6.025  10.618  0.1751 -1.4727 -3.0022
  989MOL0     H30485   0.286   5.863  10.547  4.0999  1.1099 -0.1929
  989MOL0     H30486   0.298   5.823  10.722 -1.7642 -0.7099  0.0389
  989MOL0     H30487   0.247   5.608  10.711  3.4986  0.5446  0.5219
  989MOL0     H30488   0.244   5.605  10.529 -0.6968  3.0650 -2.4122
  989MOL0     H30489   0.040   5.742  10.522  0.0804 -0.6931  0.0242
  989MOL0     H30490   0.048   5.780  10.697 -1.8266 -1.8079  1.4731
  989MOL0     H30491   0.000   5.531  10.526  2.4895 -0.8649 -0.0583
  989MOL0     H30492   0.035   5.502  10.702 -2.0566  0.9316  1.5636
  989MOL0     H30493  -0.164   5.626  10.754  0.6222  0.5525 -0.1810
  989MOL0     H30494  -0.202   5.500  10.630  0.5227  0.4119  0.5732
  989MOL0     H30495  -0.223   5.675  10.463  1.4087  2.6500  0.0436
  989MOL0     H30496  -0.197   5.805  10.584 -1.4376  0.2835  4.0248
  989MOL0     H30497  -0.450   5.777  10.548  1.1475  1.3748  0.6713
  989MOL0     H30498  -0.422   5.604  10.546  0.8308 -0.0271  0.0796
  989MOL0     H30499  -0.383   5.794  10.785  0.7826 -0.4174  0.4656
  989MOL0     H30500  -0.401   5.613  10.794 -2.0137 -0.4473  0.1013
  989MOL0     H30501  -0.554   5.774  10.990  3.7257  0.3512 -2.4204
  989MOL0     H30502  -0.824   5.951  10.971  3.7068  0.7130  0.1938
  989MOL0     H30503  -0.785   5.819  11.078  0.6035  2.2159 -0.1318
  989MOL0     H30504  -1.022   5.871  11.064  0.4002 -1.3307  0.9251
  989MOL0     H30505  -0.996   5.701  10.998 -1.0048 -0.1845 -2.1446
  989MOL0     H30506  -1.015   5.945  10.822  1.3427  0.5225  1.5121
  989MOL0     H30507  -1.033   5.766  10.778 -1.9749  0.2241 -0.5638
  989MOL0     H30508  -1.236   5.747  10.881  2.5597 -0.8755 -0.0102
  989MOL0     H30509  -1.253   5.874  10.768 -3.1219 -0.9003  1.0870
  989MOL0     H30510  -1.277   6.005  11.204 -2.0132  1.9905  0.2488
  989MOL0     H30511  -1.481   5.974  11.334  1.7082  2.7952 -0.9558
  989MOL0     H30512  -1.899   5.726  11.479  0.3188  0.6256 -0.7581
  989MOL0     H30513  -2.127   5.669  11.536 -3.4591 -3.8827 -0.7538
  989MOL0     H30514  -2.320   5.583  11.550 -1.3466  0.7358  0.4347
  989MOL0     H30515  -2.326   5.463  11.427 -1.2029 -0.0007  0.9627
  989MOL0     H30516  -2.547   5.649  11.535 -0.7124 -0.2024 -0.1508
  989MOL0     H30517  -2.526   5.470  11.556  2.1889 -1.2016  0.6017
  989MOL0     H30518  -2.565   5.426  11.310 -0.1756 -0.0615 -0.3512
  989MOL0     H30519  -2.586   5.605  11.288 -0.8838  2.8644  3.5287
  989MOL0     H30520  -2.760   5.467  11.480  1.4198 -0.6851 -0.0764
  989MOL0     H30521  -2.771   5.624  11.393 -0.0937 -0.4036  3.5295
  989MOL0     H30522  -2.780   5.343  11.281  0.1973  0.5461  0.4374
  989MOL0     H30523  -2.756   5.488  11.173 -0.0046 -2.0446 -1.0034
  989MOL0     H30524  -2.964   5.583  11.255  4.2590 -0.0468 -1.9009
  989MOL0     H30525  -2.998   5.433  11.351 -1.2489  2.0241  0.3159
  989MOL0     H30526  -2.994   5.479  11.050  1.2378  1.4597  1.1274
  989MOL0     H30527  -2.987   5.314  11.127 -1.8846 -0.3010  0.0265
  989MOL0     H30528  -3.211   5.372  11.243 -1.7761  0.6539  0.2625
  989MOL0     H30529  -3.204   5.345  11.071 -0.0416 -0.1668 -0.1976
  989MOL0     H30530  -2.223   5.665  11.118 -0.4908 -1.9597  0.2314
  989MOL0     H30531  -1.962   5.667  11.066  2.1496 -0.9442  0.9778
  989MOL0     H30532  -1.636   5.727  11.019  1.3460 -2.2414 -1.2786
  989MOL0     H30533  -1.446   5.779  10.879  1.9959 -3.9923  1.8618
  989MOL0     H30534   0.666   5.653  10.677  1.1379  1.3231 -2.8651
  989MOL0     H30535   0.825   5.766  10.828 -0.2456  0.0931 -0.5557
  989MOL0     H30536   0.985   5.956  11.054  1.0509  0.3638  0.3979
  989MOL0     H30537   1.162   5.992  11.233  0.9861 -0.2020 -1.4473
  989MOL0     H30538   1.363   6.024  11.278 -1.4233 -0.1886 -1.0652
  989MOL0     H30539   1.456   6.131  11.383 -2.9217  1.6742  2.5530
  989MOL0     H30540   1.416   6.172  11.084  2.1554  0.7180 -1.4211
  989MOL0     H30541   1.521   6.266  11.177  1.0091 -1.0512 -2.2400
  989MOL0     H30542   1.648   6.083  11.061  0.6532  2.7723  0.8172
  989MOL0     H30543   1.561   5.971  11.182  0.3227 -0.9090 -0.4358
  989MOL0     H30544   1.675   6.099  11.355  1.3695 -0.2034  0.3301
  989MOL0     H30545   1.800   6.049  11.231 -0.5181  0.8788 -0.6769
  989MOL0     H30546   1.859   6.454  11.198 -0.3093  0.6627  1.5586
  989MOL0     H30547   1.148   6.402  11.169 -0.8208 -0.0225  1.5018
  989MOL0     H30548   0.962   6.379  11.009  3.0827  0.1543 -0.4823
  990MOL0     O30549   2.007   0.320   3.571 -0.0096 -0.2126  0.0517
  990MOL0     C30550   2.012   0.332   3.694  0.1915 -0.1384  1.4220
  990MOL0     O30551   2.123   0.357   3.763 -0.2889  0.0318 -0.1691
  990MOL0     C30552   2.247   0.378   3.708  0.1115 -0.3103 -0.1508
  990MOL0     C30553   2.301   0.293   3.612  0.1638 -0.1569  0.5348
  990MOL0     C30554   2.432   0.325   3.564 -0.0919  0.3445  0.3140
  990MOL0     C30555   2.498   0.445   3.600  0.1608 -0.2659  0.5046
  990MOL0     O30556   2.627   0.478   3.574 -0.1289  0.4895 -0.3683
  990MOL0     C30557   2.702   0.378   3.485  0.0277  0.1530 -0.7929
  990MOL0     C30558   2.836   0.432   3.467 -0.8404  0.0086  0.4791
  990MOL0     C30559   2.832   0.570   3.392  0.1778  0.1830  0.4942
  990MOL0     C30560   2.970   0.635   3.357  0.2164  0.5367 -0.0187
  990MOL0     C30561   2.962   0.775   3.312  0.4371 -0.0015 -0.0264
  990MOL0     C30562   2.871   0.796   3.183  0.5142  0.3788 -0.4085
  990MOL0     C30563   2.874   0.944   3.154 -0.0896 -0.0485  0.3700
  990MOL0     C30564   2.802   1.034   3.252  0.1147  0.0493 -0.3654
  990MOL0     N30565   2.667   0.993   3.272  0.8618 -1.3795  0.7599
  990MOL0     C30566   2.627   0.934   3.385 -0.7247  0.0652 -0.2488
  990MOL0     C30567   2.497   0.897   3.356 -0.0857  0.1460  0.6236
  990MOL0     C30568   2.392   0.823   3.441 -0.4109 -0.1963  0.4107
  990MOL0     C30569   2.309   0.711   3.366 -0.1586 -0.2874  0.2845
  990MOL0     C30570   2.412   0.615   3.304 -0.0081 -0.6115 -0.0303
  990MOL0     C30571   2.347   0.490   3.259 -0.2311 -0.0948  0.8519
  990MOL0     O30572   2.262   0.509   3.150 -0.2604 -0.3151 -0.5140
  990MOL0     C30573   2.119   0.519   3.160 -0.8167  0.5819 -0.1929
  990MOL0     C30574   2.043   0.518   3.282  0.4198 -0.5525  0.1294
  990MOL0     C30575   1.904   0.527   3.280  0.5088 -0.0479 -0.0633
  990MOL0     C30576   1.838   0.559   3.157 -0.3338  0.8598 -1.0386
  990MOL0     C30577   1.689   0.570   3.152 -1.1149  0.0572 -0.8052
  990MOL0     O30578   1.634   0.575   3.027 -0.1268 -0.2316  0.2810
  990MOL0     C30579   1.498   0.586   2.997  0.4823 -0.1110 -0.6403
  990MOL0     C30580   1.461   0.537   2.871  0.1268  0.7282 -0.3764
  990MOL0     C30581   1.318   0.527   2.832 -0.0334 -0.9097  0.1135
  990MOL0     C30582   1.224   0.571   2.922 -0.0978 -0.2961  0.6396
  990MOL0     O30583   1.091   0.550   2.881 -0.1091  0.1952  0.2961
  990MOL0     C30584   0.992   0.637   2.935 -0.0975 -0.0287 -0.0450
  990MOL0     C30585   0.887   0.638   2.829 -0.8151  0.0137 -0.9500
  990MOL0     C30586   0.772   0.725   2.888  0.4077 -0.2513  0.0277
  990MOL0     C30587   0.644   0.704   2.802  0.8092  0.5730 -0.2566
  990MOL0     C30588   0.534   0.807   2.835  0.1383  0.1875  0.5192
  990MOL0     C30589   0.403   0.774   2.752  0.3274  0.4193 -0.6272
  990MOL0     C30590   0.290   0.861   2.810 -0.4212  0.1149  0.3010
  990MOL0     C30591   0.157   0.836   2.750  0.4097 -0.4559 -0.0945
  990MOL0    Cl30592   0.044   0.961   2.797 -0.1945  0.2731 -0.2434
  990MOL0     C30593   1.261   0.609   3.050  0.7328  0.4892 -0.0831
  990MOL0     C30594   1.399   0.609   3.092  0.7617 -0.0951 -0.0440
  990MOL0     O30595   1.631   0.570   3.261 -0.6524 -0.1238  0.7061
  990MOL0     C30596   1.918   0.567   3.042  0.5129  0.0680  0.1857
  990MOL0     C30597   2.053   0.551   3.037 -0.1611  0.9657 -1.4301
  990MOL0     N30598   2.455   0.969   3.247 -0.0501  0.0149  0.2291
  990MOL0     N30599   2.564   1.014   3.192 -0.5947 -0.2915  0.8493
  990MOL0     C30600   2.437   0.533   3.695 -0.8059 -0.5605 -0.0405
  990MOL0     C30601   2.313   0.498   3.748 -0.2975  0.6862 -0.6815
  990MOL0     C30602   1.883   0.350   3.761 -0.3914  0.9511 -0.6859
  990MOL0     C30603   1.883   0.382   3.904  0.1052  0.3727 -0.1308
  990MOL0     C30604   1.761   0.375   3.968  0.0364  0.0333  0.7468
  990MOL0     C30605   1.639   0.349   3.904 -0.2283 -0.1114 -0.3147
  990MOL0     O30606   1.519   0.333   3.962  1.0874  0.6034 -0.3793
  990MOL0     C30607   1.507   0.331   4.107  1.4473 -0.0385  0.0238
  990MOL0     C30608   1.366   0.291   4.162  0.0629 -0.3603 -0.3129
  990MOL0     C30609   1.243   0.365   4.102 -0.6986  0.1806  0.6991
  990MOL0     C30610   1.249   0.515   4.106  0.0357 -0.5362  0.2155
  990MOL0     C30611   1.126   0.585   4.065 -0.4572  0.0447  0.4041
  990MOL0     C30612   1.023   0.647   4.036  0.0220 -0.3230 -0.2590
  990MOL0     C30613   1.641   0.312   3.771  0.2042 -0.2689 -0.2355
  990MOL0     C30614   1.762   0.316   3.699  0.0837  0.2817  0.5689
  990MOL0     H30615   2.250   0.202   3.582 -0.8933  0.5663  0.1183
  990MOL0     H30616   2.488   0.244   3.519  1.1458  1.7825 -0.8233
  990MOL0     H30617   2.669   0.356   3.383 -2.7945 -0.5858  0.1833
  990MOL0     H30618   2.714   0.289   3.548  2.1450  3.0329  3.2696
  990MOL0     H30619   2.892   0.356   3.412 -1.3677  2.2536 -3.5453
  990MOL0     H30620   2.880   0.444   3.566 -1.5147 -0.0432  0.7885
  990MOL0     H30621   2.791   0.640   3.466  0.2767  1.4823 -0.6280
  990MOL0     H30622   2.765   0.579   3.306 -0.5674  2.1586  1.2100
  990MOL0     H30623   3.021   0.639   3.453  0.0203  2.1237  0.0381
  990MOL0     H30624   3.018   0.563   3.289 -1.5534 -0.8965  0.1630
  990MOL0     H30625   3.062   0.808   3.282  0.0268  2.5320  1.1523
  990MOL0     H30626   2.942   0.846   3.392 -1.5284  0.2303 -0.6653
  990MOL0     H30627   2.776   0.752   3.213  1.8327 -1.2982  1.5527
  990MOL0     H30628   2.898   0.734   3.097 -2.3545 -0.1780 -1.0006
  990MOL0     H30629   2.977   0.981   3.146 -0.3902  0.4962 -1.6014
  990MOL0     H30630   2.827   0.964   3.057 -2.7158 -1.3444  1.2915
  990MOL0     H30631   2.800   1.132   3.203 -1.4396  1.1711  1.7342
  990MOL0     H30632   2.856   1.039   3.348  0.6871  1.2614 -0.7247
  990MOL0     H30633   2.682   0.910   3.476 -0.2787  1.7760 -0.0384
  990MOL0     H30634   2.321   0.900   3.476 -2.2021 -1.2550 -0.7548
  990MOL0     H30635   2.433   0.774   3.530  2.4575 -0.4801 -0.9538
  990MOL0     H30636   2.254   0.758   3.284  0.7910  3.5536  1.6248
  990MOL0     H30637   2.238   0.659   3.432  0.0031 -1.8820 -0.7644
  990MOL0     H30638   2.463   0.658   3.217 -0.7137 -1.3132 -0.7987
  990MOL0     H30639   2.490   0.613   3.381 -2.7218 -0.0602  2.9122
  990MOL0     H30640   2.291   0.436   3.336  1.8826 -1.7775  1.2978
  990MOL0     H30641   2.431   0.438   3.213  0.7272  2.8868 -1.0814
  990MOL0     H30642   2.085   0.493   3.379  0.6414 -2.3819 -0.3830
  990MOL0     H30643   1.852   0.524   3.375 -0.0697  2.6614 -0.2078
  990MOL0     H30644   1.537   0.493   2.807 -0.0745  0.5675 -0.5058
  990MOL0     H30645   1.281   0.494   2.736 -1.9826  1.2763  0.0297
  990MOL0     H30646   1.024   0.742   2.940  1.8479 -0.0577 -5.2074
  990MOL0     H30647   0.956   0.601   3.031 -1.2041 -1.2105 -0.8597
  990MOL0     H30648   0.866   0.533   2.804  0.2371 -0.7655  1.2103
  990MOL0     H30649   0.916   0.686   2.735 -0.3241 -1.8077 -1.7835
  990MOL0     H30650   0.794   0.832   2.897 -1.7270  0.1777  0.8165
  990MOL0     H30651   0.751   0.679   2.985  1.3490 -0.1863  0.2723
  990MOL0     H30652   0.677   0.716   2.698  0.5690  1.1211 -0.2745
  990MOL0     H30653   0.606   0.604   2.822 -1.4206  1.1230 -1.4064
  990MOL0     H30654   0.570   0.908   2.811  0.3487 -0.0627 -0.2726
  990MOL0     H30655   0.502   0.794   2.938 -1.2465 -0.1983  0.0603
  990MOL0     H30656   0.375   0.669   2.761 -3.2709  1.2057 -0.7614
  990MOL0     H30657   0.416   0.794   2.646 -1.0688 -0.0109 -0.9013
  990MOL0     H30658   0.279   0.846   2.917 -1.7356  0.1495  0.1888
  990MOL0     H30659   0.319   0.965   2.791 -0.9232  0.2590  0.3301
  990MOL0     H30660   0.121   0.742   2.793  0.2741  0.4189  1.7737
  990MOL0     H30661   0.151   0.826   2.641 -3.1477 -2.7654  0.1565
  990MOL0     H30662   1.180   0.635   3.119  1.2493  2.1970 -0.0753
  990MOL0     H30663   1.414   0.619   3.200  0.2165 -0.0056  0.0269
  990MOL0     H30664   1.868   0.591   2.949  0.9365  2.4825  0.5178
  990MOL0     H30665   2.112   0.552   2.946  0.0504 -1.0319 -1.3628
  990MOL0     H30666   2.498   0.611   3.738  1.0552 -1.8007 -0.2763
  990MOL0     H30667   2.271   0.563   3.824 -1.8711 -0.2408 -0.7119
  990MOL0     H30668   1.972   0.408   3.961  1.0299  1.7112 -2.0749
  990MOL0     H30669   1.753   0.391   4.075  0.7279  0.5487  0.7275
  990MOL0     H30670   1.513   0.434   4.143  0.9879 -0.1457  0.4197
  990MOL0     H30671   1.579   0.262   4.151 -1.1184 -2.7334  0.2822
  990MOL0     H30672   1.354   0.183   4.146 -0.4741 -0.4223  0.4383
  990MOL0     H30673   1.375   0.309   4.269  2.0400 -3.3225  0.1396
  990MOL0     H30674   1.155   0.322   4.150 -1.3991  1.2397  0.4096
  990MOL0     H30675   1.237   0.330   3.998  1.9713 -0.0137  0.5521
  990MOL0     H30676   1.269   0.541   4.211  0.0997  1.6108 -0.2773
  990MOL0     H30677   1.342   0.546   4.057  0.3380 -1.8225 -0.0603
  990MOL0     H30678   0.933   0.704   4.019  1.7252  2.4234 -0.7000
  990MOL0     H30679   1.550   0.280   3.722 -2.4136 -2.3662  5.1451
  990MOL0     H30680   1.749   0.277   3.599  0.1977 -2.6495  1.6014
  991MOL0     O30681   2.790   1.400   8.552  0.0063  0.8300  0.4182
  991MOL0     C30682   2.866   1.493   8.583  0.0599 -0.2704  0.0306
  991MOL0     O30683   2.842   1.574   8.684  0.4501  0.9147 -0.7842
  991MOL0     C30684   2.714   1.604   8.733 -0.0342  0.1994  0.4160
  991MOL0     C30685   2.590   1.538   8.711  0.5749  0.6180 -0.0656
  991MOL0     C30686   2.471   1.591   8.766 -0.1420 -0.0806 -0.5226
  991MOL0     C30687   2.463   1.711   8.839 -0.1943 -0.1996 -0.6269
  991MOL0     O30688   2.344   1.766   8.882  0.5094  0.4296  0.2429
  991MOL0     C30689   2.224   1.690   8.870 -0.3396  0.8158  0.1562
  991MOL0     C30690   2.115   1.773   8.933  0.1972 -0.9228  0.3229
  991MOL0     C30691   2.028   1.687   9.019  0.1938  0.4948  0.4084
  991MOL0     C30692   1.908   1.758   9.084 -0.4913 -0.1339  0.3968
  991MOL0     C30693   1.883   1.711   9.217  0.5543  0.6112 -0.3359
  991MOL0     C30694   1.833   1.569   9.211 -0.0962 -0.5542 -0.7851
  991MOL0     C30695   1.705   1.536   9.301 -0.5801 -0.2467 -0.3861
  991MOL0     C30696   1.732   1.539   9.451 -0.3591  0.3388  0.6289
  991MOL0     N30697   1.621   1.473   9.520  0.0656 -0.4657  0.3399
  991MOL0     C30698   1.485   1.493   9.495 -0.7432 -0.5825 -0.8118
  991MOL0     C30699   1.429   1.422   9.601 -0.3994  0.0966  0.7955
  991MOL0     C30700   1.287   1.400   9.625  0.9952  0.9221 -0.8540
  991MOL0     C30701   1.243   1.306   9.743  0.1146  0.7654 -0.3278
  991MOL0     C30702   1.103   1.240   9.728  0.2020  0.8237 -0.5544
  991MOL0     C30703   0.987   1.338   9.734  0.0830 -0.6186 -0.3613
  991MOL0     O30704   0.868   1.263   9.782  0.3390 -0.3131 -0.4139
  991MOL0     C30705   0.750   1.335   9.767 -0.5386  0.3589 -0.2164
  991MOL0     C30706   0.644   1.266   9.805 -0.3866  0.4570 -0.0841
  991MOL0     C30707   0.515   1.320   9.812 -0.0857 -0.1236  0.3852
  991MOL0     C30708   0.490   1.450   9.782  0.4222 -0.6270  0.4765
  991MOL0     C30709   0.356   1.521   9.787 -0.2714 -0.1714  0.4440
  991MOL0     O30710   0.254   1.435   9.829  0.3718  0.2389  0.1813
  991MOL0     C30711   0.143   1.479   9.905 -0.0254  0.1234 -0.9093
  991MOL0     C30712   0.035   1.387   9.905  0.5453 -0.6345  0.1256
  991MOL0     C30713  -0.076   1.426   9.983  0.4083  0.7821 -0.5137
  991MOL0     C30714  -0.095   1.537  10.059 -0.4798  0.6754  0.0213
  991MOL0     O30715  -0.198   1.542  10.145  0.5286  0.3642  0.2271
  991MOL0     C30716  -0.175   1.618  10.261  0.4734 -0.9966 -0.1004
  991MOL0     C30717  -0.295   1.603  10.345  0.6648 -0.0653 -0.0887
  991MOL0     C30718  -0.441   1.623  10.278 -0.5361 -0.3908 -0.4848
  991MOL0     C30719  -0.550   1.626  10.379  0.0804 -0.1774 -0.2079
  991MOL0     C30720  -0.681   1.643  10.300 -0.3083 -0.6128  0.0644
  991MOL0     C30721  -0.694   1.793  10.259  1.1204  0.2352  0.4174
  991MOL0     C30722  -0.842   1.816  10.245 -0.4648 -0.3349 -1.1220
  991MOL0     C30723  -0.897   1.955  10.209 -0.3895  0.2529 -0.0383
  991MOL0    Cl30724  -1.074   1.952  10.220  0.3016 -0.6567  0.5493
  991MOL0     C30725   0.011   1.634  10.036  0.0069  0.3735  0.2196
  991MOL0     C30726   0.129   1.604   9.967  0.4443  0.5013  1.3110
  991MOL0     O30727   0.338   1.630   9.732  0.0242 -0.3561 -0.4706
  991MOL0     C30728   0.592   1.526   9.724  0.2150  0.3603 -0.0954
  991MOL0     C30729   0.728   1.473   9.727  1.1678  0.3071  0.9603
  991MOL0     N30730   1.530   1.361   9.673 -0.5075  0.1440  0.6480
  991MOL0     N30731   1.644   1.387   9.623  0.1737 -0.6709  0.1055
  991MOL0     C30732   2.594   1.775   8.857  0.8280  0.5025  0.2801
  991MOL0     C30733   2.712   1.721   8.807 -0.0765  0.2720  0.6036
  991MOL0     C30734   2.985   1.519   8.508 -0.2768  0.0623 -0.1699
  991MOL0     C30735   3.095   1.598   8.561 -0.1365 -0.0193  0.5358
  991MOL0     C30736   3.209   1.613   8.482  1.5980  0.6611  0.2109
  991MOL0     C30737   3.217   1.562   8.351  0.1733  0.0842 -0.4073
  991MOL0     O30738   3.332   1.552   8.277  0.5429  0.0714  0.0460
  991MOL0     C30739   3.447   1.585   8.351 -0.1807  0.0239  1.1569
  991MOL0     C30740   3.573   1.559   8.259  0.0989 -0.1662 -0.3733
  991MOL0     C30741   3.694   1.626   8.314  0.2329 -0.2740 -0.1468
  991MOL0     C30742   3.801   1.649   8.204  0.4395  0.7679 -0.5471
  991MOL0     C30743   3.914   1.715   8.267 -0.3056 -0.8416 -0.3242
  991MOL0     C30744   4.015   1.784   8.293  0.1368 -0.2005  0.0597
  991MOL0     C30745   3.102   1.496   8.305  0.2584 -0.0980 -0.2331
  991MOL0     C30746   2.981   1.474   8.372  0.0094  0.1535  0.1147
  991MOL0     H30747   2.591   1.449   8.649  1.3348 -0.7701  1.8487
  991MOL0     H30748   2.379   1.539   8.740 -1.2061  0.2090  2.3834
  991MOL0     H30749   2.228   1.588   8.911 -0.5626  1.3432  1.5320
  991MOL0     H30750   2.193   1.677   8.766  0.0147 -2.0815  0.3327
  991MOL0     H30751   2.060   1.819   8.851 -0.2423  0.1779  1.2088
  991MOL0     H30752   2.152   1.852   8.999 -2.4581  0.7576 -0.0368
  991MOL0     H30753   2.091   1.649   9.100 -0.0820  0.5855  0.6675
  991MOL0     H30754   1.995   1.601   8.961 -0.9467  1.4734 -0.4311
  991MOL0     H30755   1.930   1.865   9.090  1.0265 -0.4453  1.0666
  991MOL0     H30756   1.821   1.749   9.019  1.1107  1.6947 -2.2330
  991MOL0     H30757   1.803   1.769   9.262 -0.0614 -0.9409  0.6322
  991MOL0     H30758   1.965   1.724   9.288  0.7873 -1.0893 -0.2595
  991MOL0     H30759   1.915   1.503   9.239 -0.6531 -1.3338 -0.9384
  991MOL0     H30760   1.797   1.544   9.110 -1.9360 -3.3080  0.4224
  991MOL0     H30761   1.630   1.614   9.286  2.0986  2.8413  1.2335
  991MOL0     H30762   1.672   1.435   9.272 -2.5850  0.8305 -2.1185
  991MOL0     H30763   1.759   1.641   9.477  0.4658  0.5854 -1.0682
  991MOL0     H30764   1.831   1.493   9.464  0.8333  1.6687 -2.6137
  991MOL0     H30765   1.441   1.549   9.413 -0.8323  0.1223 -0.2979
  991MOL0     H30766   1.237   1.355   9.538  0.1330  0.6450 -0.2338
  991MOL0     H30767   1.239   1.496   9.644  1.7075  0.9315  1.1623
  991MOL0     H30768   1.238   1.363   9.837 -4.2964 -0.7972  0.6470
  991MOL0     H30769   1.312   1.224   9.764 -0.2301  0.3353 -0.8500
  991MOL0     H30770   1.096   1.189   9.631 -0.9328 -1.5588  0.7048
  991MOL0     H30771   1.105   1.165   9.807  1.8651 -0.2982 -1.5975
  991MOL0     H30772   0.951   1.377   9.639 -2.2277  0.5137  0.8879
  991MOL0     H30773   1.014   1.426   9.794 -0.3751 -0.2406 -0.7031
  991MOL0     H30774   0.667   1.165   9.836  0.0427  0.9048  1.1327
  991MOL0     H30775   0.433   1.262   9.853 -1.2928 -0.3408 -2.1864
  991MOL0     H30776   0.044   1.298   9.844 -1.5164 -1.1819  0.5299
  991MOL0     H30777  -0.153   1.349   9.978 -0.5060  1.6081  0.3417
  991MOL0     H30778  -0.166   1.724  10.234  1.1520 -1.4645 -1.8663
  991MOL0     H30779  -0.089   1.587  10.322  0.6746  0.9156  0.6639
  991MOL0     H30780  -0.291   1.677  10.425 -0.4389 -0.3182  0.2203
  991MOL0     H30781  -0.311   1.502  10.384 -0.7257  0.3599  0.5276
  991MOL0     H30782  -0.469   1.545  10.207 -3.5647 -0.6495  0.8454
  991MOL0     H30783  -0.424   1.722  10.235 -1.4950  0.6664  1.4335
  991MOL0     H30784  -0.562   1.530  10.430 -1.3401 -0.8080 -1.6379
  991MOL0     H30785  -0.535   1.707  10.451 -0.7404  1.9164 -2.2840
  991MOL0     H30786  -0.765   1.600  10.356 -0.2194 -0.9566 -0.0664
  991MOL0     H30787  -0.682   1.581  10.210  0.2386 -0.5689  0.0251
  991MOL0     H30788  -0.635   1.805  10.167  1.7764 -2.0161  0.4734
  991MOL0     H30789  -0.652   1.855  10.338  1.5934 -3.4760  3.4074
  991MOL0     H30790  -0.870   1.752  10.161  1.9050  1.4706 -3.4482
  991MOL0     H30791  -0.894   1.778  10.333 -2.7932  0.4749 -2.0624
  991MOL0     H30792  -0.866   1.978  10.107 -0.3944  1.0388  0.1354
  991MOL0     H30793  -0.849   2.033  10.269  2.2525  1.6706 -3.6632
  991MOL0     H30794   0.006   1.735  10.076 -1.2959  0.3416  0.1723
  991MOL0     H30795   0.203   1.682   9.953  1.0364 -0.0645  1.2572
  991MOL0     H30796   0.571   1.625   9.686 -2.1778 -0.6532 -1.6396
  991MOL0     H30797   0.797   1.543   9.681  0.5198  0.1890 -0.2381
  991MOL0     H30798   2.599   1.861   8.923 -0.5670  0.6939  0.1591
  991MOL0     H30799   2.800   1.782   8.821 -0.1200  0.2079  1.1708
  991MOL0     H30800   3.085   1.651   8.655  0.2164  1.9441 -0.4926
  991MOL0     H30801   3.291   1.657   8.537  1.4765 -1.0490  1.8561
  991MOL0     H30802   3.465   1.518   8.436  0.8334 -0.1221  0.8491
  991MOL0     H30803   3.448   1.690   8.382  2.1773 -0.0167  1.4314
  991MOL0     H30804   3.587   1.452   8.245  0.3617 -0.4259  1.5722
  991MOL0     H30805   3.557   1.607   8.161 -0.2691 -0.8836 -0.6709
  991MOL0     H30806   3.746   1.572   8.393  2.9287  0.4688 -1.2813
  991MOL0     H30807   3.674   1.726   8.353  0.9238  0.6255 -1.9589
  991MOL0     H30808   3.821   1.549   8.166  0.6396  0.2352  0.8836
  991MOL0     H30809   3.765   1.704   8.117 -0.0784  3.5806  1.2951
  991MOL0     H30810   4.104   1.841   8.312 -0.9003  1.4196  0.2560
  991MOL0     H30811   3.100   1.457   8.203  0.7028 -0.2260 -0.1975
  991MOL0     H30812   2.897   1.423   8.327  1.2625 -1.4263 -0.5248
  992MOL0     O30813   4.507   0.238   5.212 -0.7664 -0.1091 -0.2585
  992MOL0     C30814   4.552   0.337   5.152  0.7153  0.1423  0.0671
  992MOL0     O30815   4.475   0.437   5.099 -0.1381  0.0426  0.9064
  992MOL0     C30816   4.339   0.437   5.107 -0.1140 -0.5011 -0.5183
  992MOL0     C30817   4.258   0.435   5.230  0.0846 -0.1528 -0.4554
  992MOL0     C30818   4.118   0.444   5.219  0.9283 -0.6184  0.2397
  992MOL0     C30819   4.049   0.466   5.093  0.7161 -0.5439 -0.2602
  992MOL0     O30820   3.912   0.481   5.071 -0.3358  0.4927 -0.0533
  992MOL0     C30821   3.833   0.486   5.195  0.6209  0.8454 -0.0615
  992MOL0     C30822   3.686   0.508   5.146 -0.1058  0.8865 -1.3736
  992MOL0     C30823   3.640   0.364   5.116 -0.0801  0.7420  0.6742
  992MOL0     C30824   3.492   0.379   5.066  0.6274  0.3995  0.8696
  992MOL0     C30825   3.435   0.252   4.998  0.5307  0.0436  0.4848
  992MOL0     C30826   3.292   0.269   4.956 -0.0482  0.0354 -0.2907
  992MOL0     C30827   3.258   0.145   4.883 -0.6757 -0.3184 -0.7163
  992MOL0     C30828   3.114   0.141   4.830 -0.0150  0.2277  0.2024
  992MOL0     N30829   3.068   0.012   4.774  0.4758 -0.4515  0.3126
  992MOL0     C30830   3.090  -0.033   4.645 -0.2004  1.2053 -0.0767
  992MOL0     C30831   3.021  -0.155   4.648  0.3037 -1.0863 -0.5405
  992MOL0     C30832   2.999  -0.253   4.538  0.0380 -0.0637 -0.2288
  992MOL0     C30833   2.904  -0.356   4.581  0.3402  0.3699  0.1461
  992MOL0     C30834   2.875  -0.464   4.472  0.5954 -0.2300  0.3563
  992MOL0     C30835   2.767  -0.550   4.523  1.0571 -0.3070 -0.5964
  992MOL0     O30836   2.642  -0.479   4.551  0.3541  0.3717  0.1945
  992MOL0     C30837   2.538  -0.556   4.580  1.0506  0.2578 -0.7107
  992MOL0     C30838   2.424  -0.487   4.617 -1.2134 -0.5103  0.1058
  992MOL0     C30839   2.303  -0.550   4.639  0.0641 -0.1323  0.1219
  992MOL0     C30840   2.297  -0.696   4.640  0.3178 -0.2534  0.6972
  992MOL0     C30841   2.173  -0.771   4.670 -1.3680  0.2669 -0.2303
  992MOL0     O30842   2.061  -0.700   4.680  0.0960  0.4897  0.3059
  992MOL0     C30843   1.941  -0.760   4.717  0.6042  0.9038  0.6784
  992MOL0     C30844   1.824  -0.691   4.674 -0.2542  0.0053  0.4744
  992MOL0     C30845   1.695  -0.728   4.708 -0.0796 -0.3990 -0.3395
  992MOL0     C30846   1.674  -0.841   4.790  0.3919 -0.3644  0.3231
  992MOL0     O30847   1.551  -0.900   4.810 -0.2363  0.7962 -0.4964
  992MOL0     C30848   1.446  -0.863   4.725 -0.4926 -0.3011  0.9636
  992MOL0     C30849   1.334  -0.966   4.729 -0.1004  0.4751 -1.0631
  992MOL0     C30850   1.206  -0.933   4.645  1.0306  0.0564  0.2071
  992MOL0     C30851   1.241  -0.981   4.504  0.5283  0.0047  0.1157
  992MOL0     C30852   1.116  -1.028   4.418 -0.0077  0.6231  0.2927
  992MOL0     C30853   1.013  -0.933   4.365  0.2978 -0.5584 -0.2024
  992MOL0     C30854   1.052  -0.835   4.256 -0.6651  0.6325 -0.1829
  992MOL0     C30855   0.935  -0.767   4.189 -0.0371 -0.1300 -0.3444
  992MOL0    Cl30856   0.998  -0.622   4.099  0.3843  0.5256 -0.0558
  992MOL0     C30857   1.787  -0.904   4.838  0.6266  0.1626  0.1110
  992MOL0     C30858   1.911  -0.871   4.796 -0.1959 -0.1073  0.0272
  992MOL0     O30859   2.186  -0.896   4.684 -0.0936 -0.7583 -0.0565
  992MOL0     C30860   2.413  -0.769   4.607 -0.0479 -0.3838 -0.4793
  992MOL0     C30861   2.530  -0.698   4.575  0.0566  0.2772 -0.4424
  992MOL0     N30862   2.952  -0.160   4.767 -0.4919  0.7581 -0.8492
  992MOL0     N30863   2.976  -0.058   4.836  0.5621 -0.7988 -0.0164
  992MOL0     C30864   4.127   0.469   4.981 -0.5180  0.2364 -0.3022
  992MOL0     C30865   4.272   0.462   4.987  0.5214 -0.0996  0.1257
  992MOL0     C30866   4.699   0.342   5.130  0.0060 -0.1978  0.3624
  992MOL0     C30867   4.781   0.244   5.184 -0.9092 -0.1506  0.6858
  992MOL0     C30868   4.923   0.256   5.182  0.4214 -0.5916 -0.0594
  992MOL0     C30869   4.986   0.369   5.131 -1.1449 -0.2755  0.0127
  992MOL0     O30870   5.124   0.377   5.132 -0.8175  0.0393  0.5441
  992MOL0     C30871   5.206   0.256   5.156  0.2429 -0.1542 -0.1059
  992MOL0     C30872   5.354   0.272   5.099  0.3031 -0.4523 -0.3451
  992MOL0     C30873   5.442   0.154   5.149 -0.0024 -0.5116 -0.5857
  992MOL0     C30874   5.586   0.160   5.102 -0.0611 -0.5001  0.3887
  992MOL0     C30875   5.658   0.262   5.177  1.4138 -0.1991  0.1964
  992MOL0     C30876   5.714   0.343   5.241 -0.4277 -0.8451 -0.1634
  992MOL0     C30877   4.899   0.469   5.078 -0.4712  0.1898  0.1137
  992MOL0     C30878   4.763   0.453   5.072  0.1837  0.4232  0.3098
  992MOL0     H30879   4.299   0.431   5.331  1.4530 -0.6042 -1.0014
  992MOL0     H30880   4.073   0.447   5.318  2.5018  2.5051  0.9861
  992MOL0     H30881   3.858   0.573   5.256  2.3064 -1.5381  2.8864
  992MOL0     H30882   3.839   0.397   5.258  0.5848  1.8915  1.4919
  992MOL0     H30883   3.676   0.580   5.064 -1.8267  1.3644 -0.7788
  992MOL0     H30884   3.626   0.549   5.227 -0.1651 -2.3027  0.3753
  992MOL0     H30885   3.639   0.303   5.207  0.1357 -0.5789 -0.1885
  992MOL0     H30886   3.703   0.312   5.043  0.5101  0.6166  1.2613
  992MOL0     H30887   3.427   0.404   5.150  0.4156 -1.2576  1.2338
  992MOL0     H30888   3.483   0.462   4.996  0.6826 -0.4098 -0.1158
  992MOL0     H30889   3.442   0.168   5.067 -0.9686 -0.6875 -0.2125
  992MOL0     H30890   3.508   0.228   4.920 -0.7856  1.0126 -1.1055
  992MOL0     H30891   3.267   0.359   4.899 -2.0899  1.0323  2.0264
  992MOL0     H30892   3.228   0.278   5.044 -0.4239  0.3827 -0.5971
  992MOL0     H30893   3.325   0.119   4.801  0.0833 -0.6782  0.0057
  992MOL0     H30894   3.264   0.065   4.956 -2.0034  0.0125 -0.2033
  992MOL0     H30895   3.104   0.219   4.754  0.6756  0.1439  0.0181
  992MOL0     H30896   3.048   0.171   4.912  2.2331  0.3560  2.0471
  992MOL0     H30897   3.141   0.015   4.562  1.9623  0.9877  1.0701
  992MOL0     H30898   3.096  -0.301   4.527 -0.3645 -1.2325  0.9925
  992MOL0     H30899   2.969  -0.207   4.443 -1.2788  0.6642  0.4999
  992MOL0     H30900   2.816  -0.303   4.619  1.7038  1.9767  1.2123
  992MOL0     H30901   2.956  -0.411   4.660  2.1114 -0.5466 -1.5754
  992MOL0     H30902   2.847  -0.412   4.381  0.4785  0.6252  0.8737
  992MOL0     H30903   2.966  -0.522   4.455  1.4897  1.9327 -3.1355
  992MOL0     H30904   2.808  -0.594   4.614  0.4008  0.4432  0.0830
  992MOL0     H30905   2.756  -0.624   4.443  1.2444 -1.7762  0.7018
  992MOL0     H30906   2.447  -0.382   4.632 -1.1883 -0.3640 -0.8557
  992MOL0     H30907   2.213  -0.490   4.646  1.6857  2.9811 -2.3505
  992MOL0     H30908   1.834  -0.599   4.618 -0.3463 -0.4999 -0.3833
  992MOL0     H30909   1.612  -0.671   4.668  1.0217  0.5608 -1.3476
  992MOL0     H30910   1.483  -0.864   4.622 -0.1506  3.2797  0.8961
  992MOL0     H30911   1.400  -0.768   4.752  1.1319  0.8846 -0.1921
  992MOL0     H30912   1.304  -0.987   4.832  0.1528  2.0106 -0.6453
  992MOL0     H30913   1.375  -1.057   4.685  0.0667  0.6856 -1.3479
  992MOL0     H30914   1.183  -0.826   4.651  0.6365 -0.0402  0.4236
  992MOL0     H30915   1.122  -0.994   4.679 -0.1482 -0.5189 -3.3050
  992MOL0     H30916   1.289  -0.903   4.443  0.6976  0.4931  0.8566
  992MOL0     H30917   1.305  -1.069   4.500  0.7915  0.1978  0.0150
  992MOL0     H30918   1.063  -1.111   4.465  0.6622  0.8899  1.5667
  992MOL0     H30919   1.162  -1.059   4.323  1.0521  1.9960  0.3180
  992MOL0     H30920   0.984  -0.871   4.451  2.1435  1.5837 -1.0434
  992MOL0     H30921   0.924  -0.987   4.331  0.6359 -0.4183 -1.3244
  992MOL0     H30922   1.125  -0.761   4.292 -2.2519  1.9031  0.5770
  992MOL0     H30923   1.106  -0.893   4.181  0.0894 -1.2306  1.6974
  992MOL0     H30924   0.859  -0.744   4.264  1.8038  0.8788  1.2962
  992MOL0     H30925   0.886  -0.838   4.121  0.3639  0.8259 -1.6595
  992MOL0     H30926   1.759  -0.989   4.898  1.0290  0.7300  1.1152
  992MOL0     H30927   1.986  -0.939   4.833 -1.6221 -1.8255 -0.1186
  992MOL0     H30928   2.420  -0.877   4.615  0.8470 -0.2530  1.0802
  992MOL0     H30929   2.618  -0.756   4.551  2.3195  3.2308  0.0706
  992MOL0     H30930   4.062   0.486   4.895 -2.0829 -2.7831  0.1815
  992MOL0     H30931   4.333   0.469   4.897  1.9949  0.0634  1.1017
  992MOL0     H30932   4.735   0.159   5.233 -2.1727  1.9267  3.3751
  992MOL0     H30933   4.972   0.174   5.233  0.0297 -1.6770 -1.3592
  992MOL0     H30934   5.175   0.162   5.109  2.9742 -1.3420  0.2660
  992MOL0     H30935   5.203   0.233   5.263  0.6941 -1.3707 -0.3436
  992MOL0     H30936   5.351   0.264   4.990  0.5605 -2.0646 -0.2579
  992MOL0     H30937   5.392   0.368   5.134  1.5127 -1.3985  1.0555
  992MOL0     H30938   5.396   0.061   5.116  1.0372 -1.6340  0.9904
  992MOL0     H30939   5.439   0.145   5.258 -1.3682 -0.7573 -0.6274
  992MOL0     H30940   5.639   0.068   5.128  1.7071 -0.1417 -1.6723
  992MOL0     H30941   5.598   0.177   4.995 -1.1023  1.1513  0.4974
  992MOL0     H30942   5.768   0.417   5.297  0.5582 -0.2502 -1.8064
  992MOL0     H30943   4.934   0.571   5.065  0.7657 -0.1725  0.5403
  992MOL0     H30944   4.703   0.532   5.027 -0.3022  0.2028  0.5720
  993MOL0     O30945   6.331   1.595   5.375 -0.3575  0.5828  0.2454
  993MOL0     C30946   6.421   1.526   5.427  0.1363  0.3450 -0.2703
  993MOL0     O30947   6.399   1.420   5.512 -0.2368 -0.4915  0.1804
  993MOL0     C30948   6.276   1.368   5.534  0.0423  0.0871 -0.7909
  993MOL0     C30949   6.249   1.228   5.529  0.2986  0.1479  0.3204
  993MOL0     C30950   6.121   1.194   5.554 -0.7759  0.0990 -0.9820
  993MOL0     C30951   6.014   1.289   5.582 -0.0744  0.0312 -0.1163
  993MOL0     O30952   5.884   1.263   5.610 -0.1277  0.0032 -0.5826
  993MOL0     C30953   5.881   1.141   5.690  0.6933  0.1424 -0.3683
  993MOL0     C30954   5.736   1.136   5.757  0.6367  0.1411  0.1031
  993MOL0     C30955   5.688   0.988   5.775  0.8944  0.5218  0.2379
  993MOL0     C30956   5.539   0.974   5.819  0.0202  0.9252  0.0787
  993MOL0     C30957   5.515   0.822   5.842 -0.2642  1.0483  0.3497
  993MOL0     C30958   5.362   0.784   5.829 -0.2628 -0.7273 -0.3674
  993MOL0     C30959   5.324   0.663   5.924  0.0430  0.6544  0.6902
  993MOL0     C30960   5.194   0.598   5.886  0.5691  0.0995 -0.0616
  993MOL0     N30961   5.137   0.525   6.006  1.0620 -0.1681 -0.0480
  993MOL0     C30962   5.069   0.589   6.114  0.2588  0.5889  1.0501
  993MOL0     C30963   5.059   0.487   6.203 -0.3845  0.2061  0.3304
  993MOL0     C30964   4.981   0.495   6.338 -0.3008 -0.0156  0.1989
  993MOL0     C30965   4.977   0.636   6.401 -0.2887  0.2208 -0.6621
  993MOL0     C30966   4.905   0.627   6.532  0.4748  0.0304  0.4758
  993MOL0     C30967   4.753   0.589   6.523 -0.3716  0.2217  0.1849
  993MOL0     O30968   4.667   0.678   6.454 -0.2017  0.7056  0.2048
  993MOL0     C30969   4.536   0.662   6.457 -1.0480  0.8801  1.0462
  993MOL0     C30970   4.481   0.537   6.480  0.4754  0.1078 -0.0617
  993MOL0     C30971   4.341   0.530   6.474  0.8165 -0.4862 -0.7219
  993MOL0     C30972   4.264   0.654   6.457 -1.0362  0.4770  0.0162
  993MOL0     C30973   4.117   0.652   6.444  0.3616  0.3562 -0.6491
  993MOL0     O30974   4.060   0.527   6.465 -0.5231  0.0080  0.0153
  993MOL0     C30975   3.927   0.500   6.449  0.0362 -0.5784 -0.4082
  993MOL0     C30976   3.851   0.560   6.344 -0.1008  0.4401  0.1148
  993MOL0     C30977   3.715   0.534   6.324  0.4187  1.4303  0.4445
  993MOL0     C30978   3.646   0.452   6.418  0.4294 -0.0477 -0.9228
  993MOL0     O30979   3.508   0.433   6.423  0.1791  0.1278  0.2600
  993MOL0     C30980   3.431   0.453   6.305  1.7534 -0.7053  0.6867
  993MOL0     C30981   3.279   0.442   6.356  0.2472  0.1479 -0.2720
  993MOL0     C30982   3.253   0.559   6.448  0.0650  0.2663  0.4470
  993MOL0     C30983   3.096   0.593   6.440 -0.3204 -0.7537 -0.5348
  993MOL0     C30984   3.057   0.721   6.518 -0.0633  1.1432  0.3779
  993MOL0     C30985   2.907   0.724   6.569 -0.6620 -0.2145  0.2336
  993MOL0     C30986   2.806   0.746   6.458  1.3003 -0.1470 -0.0230
  993MOL0     C30987   2.671   0.744   6.512  0.1298 -0.4519 -0.7031
  993MOL0    Cl30988   2.550   0.710   6.390 -0.4600 -0.0322  0.7113
  993MOL0     C30989   3.720   0.398   6.523 -0.3305 -0.2442 -0.2644
  993MOL0     C30990   3.860   0.420   6.538  0.4557 -0.2514 -0.4952
  993MOL0     O30991   4.053   0.761   6.437  0.5097  0.1477  0.3554
  993MOL0     C30992   4.325   0.767   6.422 -0.8236  0.2194 -0.3368
  993MOL0     C30993   4.464   0.774   6.434 -0.0249  0.2197  0.1591
  993MOL0     N30994   5.115   0.366   6.158  0.4303 -0.0577 -0.2579
  993MOL0     N30995   5.150   0.391   6.034 -0.2305 -0.8024 -0.6516
  993MOL0     C30996   6.047   1.419   5.604  1.1732  0.0948  1.4278
  993MOL0     C30997   6.179   1.455   5.586 -0.4450  0.6098  0.0872
  993MOL0     C30998   6.560   1.578   5.404 -0.6409 -0.0468  0.2686
  993MOL0     C30999   6.580   1.707   5.368 -0.4970  0.5558  0.9077
  993MOL0     C31000   6.705   1.764   5.356  0.1089  0.6919  0.2869
  993MOL0     C31001   6.825   1.689   5.379 -0.6962  0.3335  0.8083
  993MOL0     O31002   6.956   1.737   5.367  0.3307  0.2099  0.6049
  993MOL0     C31003   6.973   1.845   5.274 -0.2150  0.2913  0.5286
  993MOL0     C31004   6.955   1.784   5.132  0.5885 -0.9724  0.3386
  993MOL0     C31005   6.973   1.901   5.024 -0.2841  0.2425 -1.0954
  993MOL0     C31006   6.840   1.995   5.007  0.1210  0.0375 -0.1290
  993MOL0     C31007   6.848   2.053   4.866  0.6464  0.1708 -0.1540
  993MOL0     C31008   6.842   2.105   4.759 -0.1121  0.2324  0.2685
  993MOL0     C31009   6.806   1.556   5.405 -0.0059 -0.4168 -0.8563
  993MOL0     C31010   6.674   1.494   5.425 -0.7520 -0.6147  0.5302
  993MOL0     H31011   6.326   1.154   5.508 -0.3101  0.2575 -2.8097
  993MOL0     H31012   6.102   1.087   5.558  0.9875 -0.2199  1.7745
  993MOL0     H31013   5.962   1.117   5.759 -1.4039 -3.0999  1.2389
  993MOL0     H31014   5.886   1.058   5.619  1.1520  0.4195 -0.6628
  993MOL0     H31015   5.663   1.194   5.701  1.1784  1.1178  0.3866
  993MOL0     H31016   5.752   1.183   5.854 -1.1358  0.0827  0.4546
  993MOL0     H31017   5.754   0.926   5.836  0.6719  0.0070 -0.0348
  993MOL0     H31018   5.687   0.945   5.674  0.3617  0.6468  0.1823
  993MOL0     H31019   5.543   1.029   5.914 -2.1927  1.0207  0.1685
  993MOL0     H31020   5.468   1.027   5.755 -0.7935  0.8623  0.9035
  993MOL0     H31021   5.543   0.788   5.942  1.0668 -1.9022 -0.9162
  993MOL0     H31022   5.566   0.759   5.768  0.0871  1.5942  0.1145
  993MOL0     H31023   5.336   0.785   5.723  0.1974  2.0464 -0.5232
  993MOL0     H31024   5.300   0.869   5.857 -0.3218 -0.9220  0.1093
  993MOL0     H31025   5.404   0.588   5.927 -1.1014 -0.6054  0.7641
  993MOL0     H31026   5.297   0.700   6.023 -0.7153  0.6866  0.4734
  993MOL0     H31027   5.208   0.513   5.819 -0.6228 -3.2348  3.5334
  993MOL0     H31028   5.128   0.670   5.836  1.4746  1.3127  0.4275
  993MOL0     H31029   5.034   0.692   6.122  0.7434  0.7511  1.0708
  993MOL0     H31030   5.029   0.435   6.416 -0.1542  0.4370  0.4643
  993MOL0     H31031   4.881   0.456   6.321  0.6466 -1.4382 -2.7999
  993MOL0     H31032   4.924   0.707   6.336  0.0086 -0.1370 -1.3059
  993MOL0     H31033   5.079   0.670   6.420 -0.5236 -0.5706  2.4877
  993MOL0     H31034   4.942   0.548   6.598 -0.6279  0.2621  1.4095
  993MOL0     H31035   4.915   0.725   6.579  0.6507 -0.4377  1.4227
  993MOL0     H31036   4.713   0.574   6.624  1.7493 -0.9903  0.9178
  993MOL0     H31037   4.738   0.497   6.466 -0.4444  1.4512 -1.8833
  993MOL0     H31038   4.537   0.445   6.495 -0.3203  0.1273  4.4178
  993MOL0     H31039   4.302   0.432   6.499  1.2478 -0.6203 -0.5733
  993MOL0     H31040   3.904   0.621   6.270  0.7902 -0.1011  0.2995
  993MOL0     H31041   3.665   0.596   6.250  0.5210  1.3121  0.2766
  993MOL0     H31042   3.450   0.370   6.237  4.4091  1.0188 -0.8249
  993MOL0     H31043   3.447   0.548   6.253  0.5111 -0.2939  1.0011
  993MOL0     H31044   3.271   0.357   6.424  2.0829  1.0410  1.1527
  993MOL0     H31045   3.211   0.439   6.271 -0.3791 -0.3814  0.2332
  993MOL0     H31046   3.305   0.651   6.418  1.7668  0.5876  3.9104
  993MOL0     H31047   3.290   0.542   6.550  0.0548 -0.5633  0.3179
  993MOL0     H31048   3.068   0.610   6.336  0.2742 -1.0795 -0.7563
  993MOL0     H31049   3.038   0.509   6.480  1.0604 -1.8581 -0.7616
  993MOL0     H31050   3.082   0.813   6.462 -1.0065  0.6133 -0.9743
  993MOL0     H31051   3.116   0.710   6.609 -2.3494 -3.0505  1.5620
  993MOL0     H31052   2.891   0.807   6.638  3.0945  0.5835  0.3802
  993MOL0     H31053   2.877   0.631   6.616 -2.7804 -0.4149 -1.3609
  993MOL0     H31054   2.831   0.839   6.405  0.1577  1.4968  2.1511
  993MOL0     H31055   2.823   0.663   6.389 -0.0961 -1.1679  0.8228
  993MOL0     H31056   2.650   0.846   6.546 -0.9797  0.3314 -3.4249
  993MOL0     H31057   2.659   0.673   6.594  0.4193  0.6632  0.3302
  993MOL0     H31058   3.670   0.335   6.596 -0.8491 -0.2259 -0.6007
  993MOL0     H31059   3.913   0.364   6.614 -0.3147 -1.2496 -0.6557
  993MOL0     H31060   4.269   0.855   6.393 -0.0556 -0.1248 -3.1727
  993MOL0     H31061   4.506   0.873   6.416 -0.0805  0.3281  0.6230
  993MOL0     H31062   5.974   1.494   5.635  1.9089  1.4895 -0.0873
  993MOL0     H31063   6.204   1.560   5.599 -1.7453  0.8359  0.9161
  993MOL0     H31064   6.492   1.771   5.366 -1.3719 -0.5993  1.2605
  993MOL0     H31065   6.704   1.872   5.358 -0.1650  0.6817  1.3858
  993MOL0     H31066   7.077   1.873   5.292  0.5553 -3.1555  2.2567
  993MOL0     H31067   6.905   1.927   5.297 -0.0157  0.4433  0.5754
  993MOL0     H31068   7.023   1.700   5.119 -2.0608 -3.4353  1.3230
  993MOL0     H31069   6.860   1.731   5.121  0.0839  0.1911 -1.3561
  993MOL0     H31070   7.007   1.853   4.932 -2.1347 -4.2372  0.2579
  993MOL0     H31071   7.051   1.967   5.061 -0.6799  0.4564 -0.6240
  993MOL0     H31072   6.748   1.938   5.024  0.5828 -0.4752  0.7139
  993MOL0     H31073   6.833   2.069   5.086  0.4838  2.1751 -1.9878
  993MOL0     H31074   6.834   2.170   4.673 -0.7510 -1.1398 -0.7466
  993MOL0     H31075   6.896   1.498   5.423  0.8964  1.4982  1.3612
  993MOL0     H31076   6.675   1.387   5.444  2.1753 -1.2013 -2.1710
  994MOL0     O31077   5.835  11.021   5.231 -0.5938 -0.0091 -0.2453
  994MOL0     C31078   5.935  11.020   5.301  0.7026  0.4478 -0.9919
  994MOL0     O31079   5.986  10.906   5.370 -0.0375 -0.4419 -0.0216
  994MOL0     C31080   5.931  10.781   5.347  0.0765  0.0951 -0.2371
  994MOL0     C31081   5.796  10.743   5.312 -0.2598  1.4661  0.9361
  994MOL0     C31082   5.758  10.615   5.319 -0.1844  0.4830  0.1306
  994MOL0     C31083   5.850  10.514   5.359 -0.0730  1.2639 -0.6080
  994MOL0     O31084   5.801  10.385   5.370 -0.2394  0.0299  0.3397
  994MOL0     C31085   5.892  10.278   5.364 -0.3964 -0.2955 -0.7219
  994MOL0     C31086   5.817  10.150   5.363  0.3115  0.3878  0.2172
  994MOL0     C31087   5.749  10.123   5.226  0.0332  0.1527  0.6415
  994MOL0     C31088   5.701   9.977   5.235  0.2733  0.4295  0.3445
  994MOL0     C31089   5.653   9.921   5.102  0.3002  0.0817  0.7930
  994MOL0     C31090   5.558  10.014   5.024 -0.1276 -0.2537 -0.9698
  994MOL0     C31091   5.491   9.953   4.904 -0.2985 -0.5823 -0.5625
  994MOL0     C31092   5.394  10.035   4.819 -0.2160 -0.0605  0.3884
  994MOL0     N31093   5.293  10.101   4.887 -0.6626 -0.8506 -0.5680
  994MOL0     C31094   5.222  10.202   4.834 -0.2976 -0.8667  0.2811
  994MOL0     C31095   5.116  10.214   4.915  0.6369  1.0229 -0.0546
  994MOL0     C31096   5.011  10.307   4.893 -0.2687 -0.5555 -0.4477
  994MOL0     C31097   4.880  10.252   4.829  0.8829  0.5976 -0.8292
  994MOL0     C31098   4.839  10.130   4.911  0.1989  0.0378 -0.4691
  994MOL0     C31099   4.698  10.084   4.881 -0.6104  0.8346  0.3333
  994MOL0     O31100   4.608  10.181   4.937  0.0093 -0.5889 -0.1434
  994MOL0     C31101   4.473  10.162   4.923  0.0939 -0.1261  0.3555
  994MOL0     C31102   4.419  10.059   4.848 -0.7225  0.2696 -0.6313
  994MOL0     C31103   4.281  10.040   4.849  0.3982 -1.0222 -0.2963
  994MOL0     C31104   4.188  10.123   4.919 -0.6473 -0.4369 -0.1031
  994MOL0     C31105   4.047  10.091   4.909  0.0073 -0.5242  0.4704
  994MOL0     O31106   3.954  10.191   4.943 -0.4102 -0.3830 -0.2605
  994MOL0     C31107   3.823  10.159   4.958  0.1988 -0.0183  0.4806
  994MOL0     C31108   3.773  10.097   5.073 -0.1092 -0.0128 -0.4941
  994MOL0     C31109   3.636  10.075   5.093 -0.5415 -0.3249  0.3618
  994MOL0     C31110   3.549  10.125   4.995 -0.3336 -0.3418  0.0518
  994MOL0     O31111   3.418  10.100   5.016  0.1105  0.3514 -0.1676
  994MOL0     C31112   3.321  10.198   4.975 -0.9162  0.0945 -0.4836
  994MOL0     C31113   3.243  10.124   4.873  0.8750  0.3031 -0.0843
  994MOL0     C31114   3.151  10.016   4.943 -0.8406  0.2074  1.0359
  994MOL0     C31115   3.047  10.081   5.032 -0.3710  0.3952  0.4951
  994MOL0     C31116   2.931   9.984   5.051  0.5283 -0.1101  0.1979
  994MOL0     C31117   2.839  10.044   5.159 -0.3932  0.2217 -0.1068
  994MOL0     C31118   2.712   9.958   5.175  0.5203  0.3786  0.3812
  994MOL0     C31119   2.741   9.815   5.231  0.3127 -0.8685 -0.5547
  994MOL0    Cl31120   2.613   9.764   5.338 -0.0056  0.0407 -0.3052
  994MOL0     C31121   3.602  10.173   4.875  0.2956  0.6494 -0.3574
  994MOL0     C31122   3.737  10.198   4.856  0.5720  0.4470 -0.1632
  994MOL0     O31123   4.021   9.970   4.885  0.1412 -0.3230 -0.6047
  994MOL0     C31124   4.242  10.223   5.005 -0.7318 -0.6447  0.2680
  994MOL0     C31125   4.382  10.251   4.991  0.0215  0.1323 -0.3577
  994MOL0     N31126   5.128  10.125   5.021  0.3975 -0.2320 -0.0119
  994MOL0     N31127   5.236  10.065   5.006 -0.5352  0.5039  0.1610
  994MOL0     C31128   5.988  10.550   5.398  0.7197  0.1932 -0.3722
  994MOL0     C31129   6.025  10.682   5.395 -0.2959 -0.2834  0.8777
  994MOL0     C31130   6.006  11.150   5.324  0.3180 -0.1205  0.1833
  994MOL0     C31131   6.130  11.147   5.385  0.8325 -0.2614 -0.1345
  994MOL0     C31132   6.198  11.265   5.412  0.2624  0.2354  0.7866
  994MOL0     C31133   6.142  11.377   5.370  0.6517 -1.3480  0.5731
  994MOL0     O31134   6.211  11.489   5.409  0.3691 -0.3197 -0.0254
  994MOL0     C31135   6.146  11.622   5.402  0.5274  0.9594 -0.1748
  994MOL0     C31136   6.230  11.723   5.484  0.4763  0.0790 -0.2821
  994MOL0     C31137   6.330  11.794   5.394 -0.2347  0.2894 -0.6977
  994MOL0     C31138   6.440  11.863   5.476 -0.0032  0.1040  0.6649
  994MOL0     C31139   6.510  11.951   5.390  0.4344  0.6118  0.2164
  994MOL0     C31140   6.556  12.025   5.312 -0.1357  0.2351 -0.0810
  994MOL0     C31141   6.017  11.388   5.301  0.3418 -0.7657  0.1569
  994MOL0     C31142   5.948  11.272   5.282  0.5593 -0.2969 -0.1148
  994MOL0     H31143   5.728  10.820   5.277  1.7307  2.0326 -2.0144
  994MOL0     H31144   5.654  10.598   5.293 -0.7367 -0.0747  2.4852
  994MOL0     H31145   5.945  10.287   5.459 -0.3289  0.0308 -0.7884
  994MOL0     H31146   5.954  10.283   5.275  2.3553  2.4912  1.1484
  994MOL0     H31147   5.740  10.148   5.441  0.3855 -3.2546  0.3399
  994MOL0     H31148   5.888  10.069   5.381 -1.7099 -1.5176  0.0280
  994MOL0     H31149   5.821  10.131   5.144 -0.5021 -2.1398 -0.1483
  994MOL0     H31150   5.670  10.197   5.207  0.9798  1.0706  0.2023
  994MOL0     H31151   5.787   9.923   5.275  0.3788  1.2724  1.2922
  994MOL0     H31152   5.622   9.958   5.308 -2.5343  0.6561 -2.4110
  994MOL0     H31153   5.615   9.819   5.118 -1.2187  0.9908  3.7668
  994MOL0     H31154   5.733   9.913   5.028  0.7799 -0.6431  1.3750
  994MOL0     H31155   5.623  10.099   5.002 -0.0283 -0.3598 -1.0877
  994MOL0     H31156   5.488  10.054   5.099  1.2442  1.8083 -0.7033
  994MOL0     H31157   5.569   9.923   4.833  0.0321  1.9297 -1.3602
  994MOL0     H31158   5.437   9.862   4.933 -0.0206  0.0293  2.0629
  994MOL0     H31159   5.338   9.971   4.750 -2.0740  3.9102 -2.1609
  994MOL0     H31160   5.447  10.106   4.754 -2.2235  0.9939 -0.1608
  994MOL0     H31161   5.241  10.268   4.750 -0.2575  1.3450  1.9559
  994MOL0     H31162   5.039  10.397   4.838 -0.6451 -0.1116  0.0816
  994MOL0     H31163   4.984  10.353   4.989  2.2548  0.3654 -0.1214
  994MOL0     H31164   4.906  10.227   4.726  1.8662  2.1133 -0.9864
  994MOL0     H31165   4.804  10.331   4.833 -0.4441 -0.6893  0.0308
  994MOL0     H31166   4.908  10.048   4.893 -1.3585 -1.5160  0.3493
  994MOL0     H31167   4.838  10.155   5.018  0.3577 -3.2496  0.4003
  994MOL0     H31168   4.683   9.989   4.933  1.3238  0.9039  1.0989
  994MOL0     H31169   4.683  10.067   4.774  2.1044  1.7783 -0.2630
  994MOL0     H31170   4.489   9.992   4.799 -1.8760 -2.5419  1.3258
  994MOL0     H31171   4.240   9.958   4.791 -2.4799  0.4456 -0.5214
  994MOL0     H31172   3.847  10.068   5.147 -2.2262 -1.3874  1.1840
  994MOL0     H31173   3.599  10.044   5.190 -0.0704 -0.6679  0.4339
  994MOL0     H31174   3.377  10.280   4.929  2.9977 -1.5768  0.8692
  994MOL0     H31175   3.255  10.232   5.055 -1.2629  1.1762 -1.2079
  994MOL0     H31176   3.305  10.077   4.797  0.2915 -3.3077  1.4768
  994MOL0     H31177   3.180  10.196   4.819 -0.7004 -0.8364  0.1673
  994MOL0     H31178   3.215   9.949   5.001 -1.2977  0.0553  1.3768
  994MOL0     H31179   3.096   9.950   4.874 -0.2324 -0.5261  1.2333
  994MOL0     H31180   3.098  10.101   5.127  0.6970  0.2357 -0.0188
  994MOL0     H31181   3.019  10.177   4.988  0.9117 -0.2525 -1.9281
  994MOL0     H31182   2.969   9.885   5.077  0.5295  0.3686  2.2119
  994MOL0     H31183   2.866   9.978   4.964  2.2464 -1.1768 -1.0750
  994MOL0     H31184   2.814  10.144   5.121 -1.9717  0.4061  1.2851
  994MOL0     H31185   2.891  10.057   5.254  2.0521  1.9786 -1.5650
  994MOL0     H31186   2.651  10.007   5.252  0.3714 -0.2522  0.6693
  994MOL0     H31187   2.660   9.958   5.079  0.7662 -0.4414  0.2435
  994MOL0     H31188   2.838   9.805   5.282  0.3945 -1.6158 -0.8366
  994MOL0     H31189   2.744   9.746   5.146 -0.9729 -1.7335  0.0840
  994MOL0     H31190   3.535  10.205   4.795 -1.0114  1.7170  1.0942
  994MOL0     H31191   3.770  10.251   4.767 -2.6690  2.3652 -0.3949
  994MOL0     H31192   4.178  10.278   5.073 -2.0147 -1.7517 -0.0040
  994MOL0     H31193   4.421  10.331   5.052 -0.8075 -0.8889  1.5979
  994MOL0     H31194   6.058  10.475   5.434 -1.2353  0.2390  4.2100
  994MOL0     H31195   6.130  10.708   5.399 -0.8231  2.3712 -0.2168
  994MOL0     H31196   6.167  11.049   5.411 -1.9570 -1.5724 -0.7744
  994MOL0     H31197   6.296  11.260   5.458 -0.1027 -3.1865  1.4517
  994MOL0     H31198   6.044  11.610   5.439  1.3824  1.1292  2.5005
  994MOL0     H31199   6.139  11.650   5.297 -1.0235 -0.2244 -0.4323
  994MOL0     H31200   6.160  11.791   5.533  0.4825 -0.5489  0.6193
  994MOL0     H31201   6.277  11.665   5.564 -0.2636 -0.8933 -0.5272
  994MOL0     H31202   6.272  11.858   5.327 -0.8247 -1.5887 -2.0681
  994MOL0     H31203   6.378  11.721   5.327  0.1452 -0.9526  0.8455
  994MOL0     H31204   6.400  11.920   5.560 -0.0554 -0.9953  1.4097
  994MOL0     H31205   6.507  11.784   5.512 -2.4540 -2.2290  0.3835
  994MOL0     H31206   6.599  12.097   5.246 -1.1211 -0.3584 -1.4152
  994MOL0     H31207   5.983  11.484   5.263 -0.6872 -1.5847 -1.0796
  994MOL0     H31208   5.852  11.266   5.232  0.4814 -0.6747  0.0763
  995MOL0     O31209   2.610   6.093  10.591 -0.0479  0.6836  1.0195
  995MOL0     C31210   2.719   6.037  10.565  0.3958 -0.1212 -0.3310
  995MOL0     O31211   2.727   5.912  10.499  0.0800  0.8725 -0.0348
  995MOL0     C31212   2.608   5.849  10.461  0.0801  0.0484 -0.1726
  995MOL0     C31213   2.589   5.808  10.333  0.1784  1.5017 -0.2382
  995MOL0     C31214   2.467   5.755  10.288  0.1554  0.2578 -0.2877
  995MOL0     C31215   2.364   5.718  10.375 -0.5296 -0.8020  0.9204
  995MOL0     O31216   2.253   5.644  10.335  0.7858 -0.5668 -0.5812
  995MOL0     C31217   2.172   5.578  10.430 -0.2042  0.5088  0.4999
  995MOL0     C31218   2.110   5.445  10.372  0.0737  0.4593  0.0639
  995MOL0     C31219   2.113   5.328  10.467 -0.4742  0.5566 -0.1178
  995MOL0     C31220   2.049   5.209  10.399  0.2302 -0.1740  0.2639
  995MOL0     C31221   2.027   5.086  10.485  0.4566 -0.6814 -0.4476
  995MOL0     C31222   1.992   4.967  10.399 -0.2221 -0.1300  0.3958
  995MOL0     C31223   1.905   4.857  10.474 -1.1118  0.3143 -0.0176
  995MOL0     C31224   1.864   4.759  10.370  0.2871  1.3756 -0.3952
  995MOL0     N31225   1.811   4.636  10.425 -0.1425  0.3229 -0.2330
  995MOL0     C31226   1.885   4.548  10.508  0.5595  0.6938  0.1901
  995MOL0     C31227   1.791   4.456  10.544 -1.1441  0.0795  0.3790
  995MOL0     C31228   1.821   4.353  10.661 -0.4159 -1.0505  0.0149
  995MOL0     C31229   1.875   4.215  10.624 -0.9413 -0.8650  0.1216
  995MOL0     C31230   1.790   4.127  10.535 -0.5687  0.1472  0.2795
  995MOL0     C31231   1.655   4.089  10.588 -0.0850 -0.2650 -0.0654
  995MOL0     O31232   1.609   3.978  10.513 -0.4271 -0.0995 -0.4133
  995MOL0     C31233   1.530   3.988  10.404  0.1086  0.0606  0.2793
  995MOL0     C31234   1.513   4.110  10.334  1.0840 -0.4012  0.1562
  995MOL0     C31235   1.426   4.113  10.221 -0.0337 -0.1844 -0.2438
  995MOL0     C31236   1.349   4.011  10.188 -0.2787 -0.4103 -0.1654
  995MOL0     C31237   1.250   4.017  10.072 -0.4501  0.7098  0.6129
  995MOL0     O31238   1.191   3.898  10.033  1.0300  0.4621 -0.8645
  995MOL0     C31239   1.095   3.888   9.938  0.3110  0.3130 -1.0654
  995MOL0     C31240   1.093   3.770   9.852  0.5204  1.3884 -0.3252
  995MOL0     C31241   0.996   3.753   9.753  0.3106  0.7732  0.3853
  995MOL0     C31242   0.889   3.836   9.742  0.0944 -1.1257 -0.1794
  995MOL0     O31243   0.780   3.812   9.656 -0.3896 -0.5055  0.0567
  995MOL0     C31244   0.792   3.694   9.573  0.0578  0.4936 -0.7671
  995MOL0     C31245   0.680   3.695   9.467 -0.1836  0.0266  0.9354
  995MOL0     C31246   0.542   3.665   9.523 -0.2744 -0.8017  0.5790
  995MOL0     C31247   0.435   3.723   9.431  0.4260  0.2359 -0.5540
  995MOL0     C31248   0.297   3.697   9.488  0.9733 -0.3086  0.3792
  995MOL0     C31249   0.184   3.743   9.391 -0.7195  0.1719  0.0892
  995MOL0     C31250   0.040   3.703   9.440 -0.4305  0.0772  0.2723
  995MOL0     C31251  -0.054   3.689   9.322 -0.6529  1.1101  0.0047
  995MOL0    Cl31252  -0.230   3.688   9.388 -0.2310 -0.5182 -0.4305
  995MOL0     C31253   0.880   3.943   9.826 -0.6424 -0.4514  0.1242
  995MOL0     C31254   0.986   3.977   9.916  0.1148  0.0077 -0.6188
  995MOL0     O31255   1.237   4.121  10.017 -0.4293  0.0916 -0.1724
  995MOL0     C31256   1.379   3.889  10.250 -0.2116  0.2085  1.1672
  995MOL0     C31257   1.467   3.875  10.351 -0.1090 -0.5459 -0.7857
  995MOL0     N31258   1.669   4.488  10.493 -0.1382  0.4124  0.5758
  995MOL0     N31259   1.681   4.588  10.411  0.1313  0.1447  0.2107
  995MOL0     C31260   2.381   5.765  10.504  0.1072 -0.6651 -0.1133
  995MOL0     C31261   2.498   5.826  10.543 -0.2527 -0.0359 -0.6330
  995MOL0     C31262   2.846   6.113  10.571 -1.0447  0.0197  0.5173
  995MOL0     C31263   2.847   6.248  10.605  0.0601  0.0805  0.0799
  995MOL0     C31264   2.963   6.316  10.608 -0.7566  0.9789 -0.5400
  995MOL0     C31265   3.084   6.253  10.585 -0.0196 -0.0474  0.3259
  995MOL0     O31266   3.194   6.330  10.602 -0.2323 -0.4453  0.6316
  995MOL0     C31267   3.322   6.257  10.595 -0.2430  0.3577 -0.1430
  995MOL0     C31268   3.437   6.352  10.634  0.0543 -0.4606  0.4221
  995MOL0     C31269   3.474   6.443  10.516  0.3227  0.3466 -0.3406
  995MOL0     C31270   3.620   6.480  10.535  0.3696 -0.4367 -0.2079
  995MOL0     C31271   3.686   6.555  10.429 -0.3896  0.3713 -0.0831
  995MOL0     C31272   3.753   6.625  10.350 -0.1842  0.4404 -0.4083
  995MOL0     C31273   3.085   6.116  10.551 -0.1693 -0.2330 -0.0270
  995MOL0     C31274   2.968   6.047  10.547  0.4611  0.0044  0.0925
  995MOL0     H31275   2.675   5.808  10.267  0.5000  4.4396  0.0647
  995MOL0     H31276   2.445   5.736  10.183  0.0471  2.7281 -0.7776
  995MOL0     H31277   2.091   5.644  10.461  2.0939  4.1748 -0.5816
  995MOL0     H31278   2.232   5.546  10.516 -0.1165 -0.3501  0.1325
  995MOL0     H31279   2.165   5.410  10.284  2.2953 -0.9416  1.8924
  995MOL0     H31280   2.008   5.467  10.339  0.1573 -1.7968 -1.9816
  995MOL0     H31281   2.066   5.354  10.562 -0.6838  1.3064 -0.4192
  995MOL0     H31282   2.219   5.317  10.490 -0.2598  1.4329 -0.6187
  995MOL0     H31283   1.953   5.242  10.358  0.7753  2.4343  0.8589
  995MOL0     H31284   2.113   5.177  10.316  0.5088 -0.0594  0.4297
  995MOL0     H31285   1.945   5.115  10.552 -0.9891  1.1878 -2.8505
  995MOL0     H31286   2.111   5.055  10.548  1.5138  1.2310 -0.8149
  995MOL0     H31287   2.083   4.925  10.356  0.8323  0.1406  2.2259
  995MOL0     H31288   1.927   5.003  10.319 -2.3233  0.2564  2.1655
  995MOL0     H31289   1.973   4.822  10.552 -0.5114  1.4007 -0.0178
  995MOL0     H31290   1.824   4.914  10.520 -0.5942  1.0294  0.0236
  995MOL0     H31291   1.949   4.727  10.308 -0.2249  0.3095 -0.5652
  995MOL0     H31292   1.786   4.808  10.312  0.2204  0.3726 -1.1885
  995MOL0     H31293   1.988   4.555  10.540  0.4020  0.4359  0.7666
  995MOL0     H31294   1.728   4.334  10.716 -0.3282  0.1627  0.6301
  995MOL0     H31295   1.881   4.409  10.734 -1.0649  0.8037 -0.8151
  995MOL0     H31296   1.896   4.154  10.713  3.0171 -1.3192 -0.9293
  995MOL0     H31297   1.968   4.231  10.569 -0.6372 -0.1623  0.8145
  995MOL0     H31298   1.784   4.185  10.441 -0.1119 -0.6033 -0.2206
  995MOL0     H31299   1.835   4.031  10.510 -1.4384 -0.3073  0.4481
  995MOL0     H31300   1.580   4.169  10.584  0.8345  0.6311  0.1663
  995MOL0     H31301   1.669   4.062  10.693 -0.7839  2.6505  0.8820
  995MOL0     H31302   1.575   4.194  10.364  1.0449 -0.1535 -0.4319
  995MOL0     H31303   1.409   4.205  10.165  0.1541  0.0489  0.0755
  995MOL0     H31304   1.177   3.702   9.868 -0.0035  0.7862 -0.0852
  995MOL0     H31305   1.000   3.659   9.699 -2.4222 -0.0284  1.3992
  995MOL0     H31306   0.783   3.612   9.645 -0.1882  1.4490  0.3160
  995MOL0     H31307   0.888   3.704   9.520  0.1049  1.1864 -0.5568
  995MOL0     H31308   0.701   3.629   9.383 -0.3055  0.7668  0.3065
  995MOL0     H31309   0.675   3.796   9.424 -0.3269  0.9166  2.9105
  995MOL0     H31310   0.549   3.712   9.622  1.4016  1.2476 -0.4287
  995MOL0     H31311   0.525   3.557   9.525 -0.8006 -0.7628 -0.7105
  995MOL0     H31312   0.458   3.829   9.418 -0.9391  0.7261  0.6296
  995MOL0     H31313   0.437   3.670   9.336  2.0075  1.5482 -1.3128
  995MOL0     H31314   0.274   3.738   9.586 -0.6576 -0.4319  0.0829
  995MOL0     H31315   0.280   3.589   9.497 -0.0547 -0.2456 -0.5428
  995MOL0     H31316   0.202   3.693   9.295 -0.6527  1.7194 -0.7328
  995MOL0     H31317   0.191   3.851   9.371  2.1704  0.4879  2.1595
  995MOL0     H31318   0.049   3.618   9.509  0.0721  0.4179  0.6320
  995MOL0     H31319  -0.008   3.775   9.506 -0.5953  0.7131 -0.5307
  995MOL0     H31320  -0.023   3.594   9.277  0.8290  1.1427  0.9241
  995MOL0     H31321  -0.044   3.776   9.256  1.4125  2.0240  1.4128
  995MOL0     H31322   0.798   4.014   9.823 -0.9407 -0.6776  1.7598
  995MOL0     H31323   0.970   4.059   9.985 -2.7977 -2.2763  1.7254
  995MOL0     H31324   1.318   3.803  10.224 -2.3450  1.5419  1.5175
  995MOL0     H31325   1.469   3.783  10.408  1.0944 -0.8659 -1.3035
  995MOL0     H31326   2.309   5.753  10.585  0.2852 -1.4211 -0.0531
  995MOL0     H31327   2.499   5.873  10.642  1.8512  0.0754 -0.6612
  995MOL0     H31328   2.759   6.302  10.637 -1.2270 -3.2960  2.8608
  995MOL0     H31329   2.960   6.415  10.651 -0.2963  0.2246  1.2999
  995MOL0     H31330   3.334   6.212  10.496 -0.2509 -1.0021  0.4499
  995MOL0     H31331   3.318   6.179  10.671  1.8036 -1.1255 -1.4385
  995MOL0     H31332   3.410   6.405  10.726  2.1194 -2.0259  2.0329
  995MOL0     H31333   3.526   6.292  10.654  0.1100 -0.4868  0.0946
  995MOL0     H31334   3.403   6.525  10.502 -1.3308 -0.4786  2.3160
  995MOL0     H31335   3.461   6.385  10.424 -0.8852  2.4687 -1.5844
  995MOL0     H31336   3.637   6.542  10.623 -1.1817  0.8546 -0.7491
  995MOL0     H31337   3.676   6.387  10.549  0.7507 -0.2894 -0.7341
  995MOL0     H31338   3.810   6.691  10.287  1.5295  0.1286  0.7410
  995MOL0     H31339   3.181   6.067  10.542 -0.5549 -1.3735  1.6639
  995MOL0     H31340   2.963   5.942  10.522 -1.2307  0.1774 -0.3917
  996MOL0     O31341   6.319   1.560   8.423 -0.7839 -0.1948 -0.2545
  996MOL0     C31342   6.262   1.659   8.456  0.9669  0.3837  0.7671
  996MOL0     O31343   6.161   1.725   8.394  0.5074  0.1190 -0.5244
  996MOL0     C31344   6.096   1.673   8.286 -0.3153 -0.0123 -1.0311
  996MOL0     C31345   6.051   1.761   8.195  0.2672  0.2689  0.1093
  996MOL0     C31346   5.986   1.713   8.077 -1.1504  0.0292  0.6296
  996MOL0     C31347   5.961   1.571   8.057  0.1838  0.5787  0.6386
  996MOL0     O31348   5.878   1.539   7.951  0.4879  0.6908  0.3504
  996MOL0     C31349   5.806   1.406   7.960 -0.5244  0.3618  0.4972
  996MOL0     C31350   5.701   1.407   7.841 -1.0897 -0.1711 -0.4263
  996MOL0     C31351   5.619   1.279   7.864 -0.2328 -0.2837 -0.4625
  996MOL0     C31352   5.526   1.250   7.744 -0.1217  0.3029  0.5179
  996MOL0     C31353   5.424   1.146   7.766 -0.6738  0.0403  0.4792
  996MOL0     C31354   5.336   1.133   7.637  0.3104  0.3024  0.5523
  996MOL0     C31355   5.216   1.036   7.655 -0.8755 -0.2424  0.1785
  996MOL0     C31356   5.182   0.976   7.518 -0.1464 -0.3411  0.2686
  996MOL0     N31357   5.103   0.851   7.517 -0.7803 -0.4557 -0.6034
  996MOL0     C31358   4.971   0.837   7.562  0.1354 -1.0943 -0.1317
  996MOL0     C31359   4.948   0.705   7.556  0.3312  0.6256  0.0016
  996MOL0     C31360   4.814   0.630   7.565  0.0629 -1.1656  0.0956
  996MOL0     C31361   4.812   0.509   7.646 -0.6099 -0.1131 -0.0185
  996MOL0     C31362   4.701   0.424   7.601 -0.3693 -0.1855  0.3977
  996MOL0     C31363   4.561   0.499   7.613 -0.3946  0.1545 -0.4272
  996MOL0     O31364   4.546   0.536   7.753 -0.2508 -0.3510 -0.3455
  996MOL0     C31365   4.451   0.627   7.767  0.3821  0.7140 -0.0117
  996MOL0     C31366   4.428   0.662   7.903 -0.3591  1.0305  0.1808
  996MOL0     C31367   4.326   0.747   7.939 -0.2076 -1.0892  0.2486
  996MOL0     C31368   4.242   0.800   7.840  0.5328 -0.3165  0.3900
  996MOL0     C31369   4.116   0.868   7.891 -0.4544 -0.3628  0.9782
  996MOL0     O31370   4.000   0.847   7.825 -0.5002  0.0341 -0.0107
  996MOL0     C31371   3.882   0.882   7.883  0.4089 -1.2992  0.1550
  996MOL0     C31372   3.835   1.014   7.866  0.1072 -0.3819  0.0438
  996MOL0     C31373   3.709   1.050   7.924 -0.5212 -0.0463  0.0296
  996MOL0     C31374   3.628   0.962   7.988 -0.8202  0.6816  0.4499
  996MOL0     O31375   3.514   0.988   8.053  0.8299  0.0540 -0.1593
  996MOL0     C31376   3.480   1.131   8.071  0.1743 -0.3171  0.2516
  996MOL0     C31377   3.382   1.130   8.186 -0.1212  0.0654  0.3226
  996MOL0     C31378   3.242   1.076   8.145 -0.6985  0.4322 -0.4030
  996MOL0     C31379   3.143   1.101   8.268  0.0113  0.3016  0.5319
  996MOL0     C31380   3.011   1.037   8.226  0.4244  0.3550 -0.5754
  996MOL0     C31381   2.899   1.059   8.332  0.2319 -0.1040  0.0621
  996MOL0     C31382   2.764   0.987   8.292 -0.8341 -0.9053 -0.0090
  996MOL0     C31383   2.653   1.004   8.385  0.0834 -0.6252 -0.0785
  996MOL0    Cl31384   2.501   0.913   8.352  0.8077 -0.0810  0.4305
  996MOL0     C31385   3.674   0.830   7.994  0.7460 -0.2120  0.5292
  996MOL0     C31386   3.794   0.793   7.941 -0.2515 -0.5899  0.5761
  996MOL0     O31387   4.135   0.939   7.988  0.4519  0.5714 -0.4271
  996MOL0     C31388   4.257   0.765   7.704 -0.3574  0.0328 -0.4358
  996MOL0     C31389   4.365   0.680   7.669  0.2935 -0.7240  0.0862
  996MOL0     N31390   5.069   0.641   7.534 -0.2726  0.0265 -0.3823
  996MOL0     N31391   5.159   0.727   7.507  0.1056  0.2325  0.3428
  996MOL0     C31392   6.003   1.485   8.163  0.1038 -0.3091 -0.5096
  996MOL0     C31393   6.073   1.541   8.271  0.1882 -0.5514  0.0396
  996MOL0     C31394   6.300   1.723   8.585 -0.7682 -0.1714 -0.7102
  996MOL0     C31395   6.426   1.704   8.636  0.1887  0.1293 -0.2250
  996MOL0     C31396   6.477   1.764   8.751 -0.0154 -0.6852  0.0177
  996MOL0     C31397   6.390   1.832   8.832 -0.2279  0.4077 -0.8791
  996MOL0     O31398   6.417   1.887   8.956  0.9820  0.1273  0.7791
  996MOL0     C31399   6.548   1.890   8.996 -0.0947 -0.1903 -0.4623
  996MOL0     C31400   6.561   1.986   9.113 -0.3693  1.0800  0.4439
  996MOL0     C31401   6.704   1.979   9.176 -1.1837  0.2869 -0.1720
  996MOL0     C31402   6.712   2.088   9.283  0.8350  0.3018 -0.5191
  996MOL0     C31403   6.643   2.060   9.405  0.1857 -0.5490 -0.0594
  996MOL0     C31404   6.581   2.029   9.510 -0.9852 -0.2456  0.9059
  996MOL0     C31405   6.264   1.865   8.779  0.0660  0.1621  0.6583
  996MOL0     C31406   6.224   1.814   8.654 -0.3831 -1.2845 -0.5542
  996MOL0     H31407   6.078   1.866   8.204  1.0491  0.2711 -1.8274
  996MOL0     H31408   5.943   1.787   8.011  1.0883  1.7978  1.0226
  996MOL0     H31409   5.749   1.406   8.053 -2.5285 -0.0439 -0.6620
  996MOL0     H31410   5.876   1.323   7.953 -0.1295  0.7544 -0.4506
  996MOL0     H31411   5.753   1.416   7.745 -0.3656  0.7045  0.0290
  996MOL0     H31412   5.638   1.494   7.859 -0.6946 -0.2551  1.6447
  996MOL0     H31413   5.542   1.295   7.940 -0.7538 -0.1910 -1.0068
  996MOL0     H31414   5.679   1.195   7.901  0.1858  0.1064 -0.2528
  996MOL0     H31415   5.469   1.342   7.730 -1.9592 -0.4352  2.5719
  996MOL0     H31416   5.583   1.224   7.654 -0.4964  0.6437  0.1769
  996MOL0     H31417   5.361   1.176   7.850 -1.7067 -0.5595 -0.0580
  996MOL0     H31418   5.473   1.052   7.792  1.9456  1.5501  1.3683
  996MOL0     H31419   5.388   1.108   7.543 -1.0237 -2.5664  0.4522
  996MOL0     H31420   5.293   1.231   7.619  0.2168  0.1247 -0.2293
  996MOL0     H31421   5.237   0.955   7.725 -5.8643 -0.6651  1.5454
  996MOL0     H31422   5.135   1.096   7.699 -0.8780  0.5017 -0.7933
  996MOL0     H31423   5.270   0.964   7.455 -1.1296  2.3687 -1.8370
  996MOL0     H31424   5.122   1.052   7.466  0.1390 -1.1818 -1.3338
  996MOL0     H31425   4.899   0.917   7.577  0.8936 -0.8609  3.0892
  996MOL0     H31426   4.787   0.602   7.464  1.5125 -1.8856 -0.1262
  996MOL0     H31427   4.737   0.702   7.594 -0.2486 -0.3486 -2.5374
  996MOL0     H31428   4.808   0.546   7.749  2.3313  3.7139 -1.0454
  996MOL0     H31429   4.910   0.461   7.644 -0.6922 -0.3085 -2.3932
  996MOL0     H31430   4.720   0.389   7.499  2.9099  0.0403  0.8371
  996MOL0     H31431   4.703   0.338   7.669  5.1649  0.6412  1.7582
  996MOL0     H31432   4.480   0.428   7.592 -1.0271  0.5446  0.5850
  996MOL0     H31433   4.567   0.582   7.543  1.5107  1.0455  0.7185
  996MOL0     H31434   4.497   0.628   7.980 -1.1810 -3.1771 -0.6989
  996MOL0     H31435   4.302   0.782   8.039 -1.1528 -1.0512  0.0156
  996MOL0     H31436   3.891   1.094   7.818 -0.6381  0.6761  0.8596
  996MOL0     H31437   3.678   1.153   7.906 -0.6299 -0.2045 -0.7155
  996MOL0     H31438   3.430   1.181   7.988 -1.9839 -1.9451  0.4605
  996MOL0     H31439   3.571   1.178   8.107 -1.1271  2.3360  0.2749
  996MOL0     H31440   3.361   1.232   8.218  1.8097 -0.4962  3.9649
  996MOL0     H31441   3.427   1.077   8.271  0.8730  0.8115  0.2721
  996MOL0     H31442   3.267   0.975   8.111  1.7550  0.6762  0.5017
  996MOL0     H31443   3.208   1.130   8.056 -0.5137 -0.3485 -0.9515
  996MOL0     H31444   3.188   1.069   8.362 -0.0004  0.7406  0.6857
  996MOL0     H31445   3.135   1.210   8.271 -0.0289  0.4522 -2.1128
  996MOL0     H31446   3.027   0.930   8.206 -2.7368 -0.5640  1.0432
  996MOL0     H31447   2.985   1.093   8.136 -0.5791 -0.5081 -0.8484
  996MOL0     H31448   2.886   1.167   8.321 -0.3979 -0.2193 -0.3947
  996MOL0     H31449   2.927   1.015   8.428 -1.4435 -0.6745  0.3278
  996MOL0     H31450   2.733   1.002   8.188 -2.1733 -0.5215  0.4279
  996MOL0     H31451   2.784   0.880   8.301 -0.8128 -0.7686  2.2972
  996MOL0     H31452   2.619   1.107   8.373 -3.4491 -1.9026 -3.2753
  996MOL0     H31453   2.690   0.974   8.483  0.5191 -0.6545 -0.2532
  996MOL0     H31454   3.609   0.759   8.043  0.5928  1.6160  3.1948
  996MOL0     H31455   3.813   0.686   7.942 -1.1460 -0.7657  0.0096
  996MOL0     H31456   4.184   0.785   7.626 -0.8667 -0.1237 -0.0039
  996MOL0     H31457   4.374   0.659   7.563 -0.2455  1.9620 -0.5483
  996MOL0     H31458   5.972   1.381   8.166  1.2735 -0.8033 -3.0097
  996MOL0     H31459   6.112   1.460   8.333 -0.0337  0.4454  1.5503
  996MOL0     H31460   6.492   1.635   8.584  0.8742  0.6441 -0.0542
  996MOL0     H31461   6.578   1.744   8.784 -0.5684 -1.1335  1.5271
  996MOL0     H31462   6.618   1.928   8.922  1.4919 -1.9806  0.0255
  996MOL0     H31463   6.592   1.791   9.011 -0.3915 -0.0316  1.8147
  996MOL0     H31464   6.548   2.087   9.074  1.3025  0.3911 -2.1573
  996MOL0     H31465   6.494   1.943   9.189 -1.5306 -1.6712 -1.9405
  996MOL0     H31466   6.778   2.001   9.098 -2.5015 -1.0192 -1.8897
  996MOL0     H31467   6.719   1.884   9.229  1.5141  0.6482 -0.1510
  996MOL0     H31468   6.815   2.103   9.318  0.8249  2.2637 -1.2578
  996MOL0     H31469   6.678   2.183   9.243 -0.7045 -0.7559 -1.8278
  996MOL0     H31470   6.531   2.006   9.601  0.3834 -0.4862  1.6234
  996MOL0     H31471   6.192   1.925   8.832  1.1194  3.3649 -1.2698
  996MOL0     H31472   6.126   1.846   8.619  0.0256 -2.0630 -2.5720
  997MOL0     O31473  10.074   4.091   4.112  1.3514  0.0286 -0.0145
  997MOL0     C31474  10.049   4.057   3.998  0.7161  0.4000  0.4972
  997MOL0     O31475   9.931   4.008   3.947  0.6401  0.2350 -0.2158
  997MOL0     C31476   9.825   3.972   4.026  0.3167  0.1144 -0.2375
  997MOL0     C31477   9.840   3.898   4.147 -0.2987 -0.1635  0.1431
  997MOL0     C31478   9.742   3.866   4.237 -0.8941  0.7905  0.2231
  997MOL0     C31479   9.614   3.900   4.196 -0.7266  0.4809  0.0929
  997MOL0     O31480   9.504   3.869   4.274 -0.6648 -0.6271 -0.0077
  997MOL0     C31481   9.527   3.833   4.413  0.6512  0.1989 -0.5084
  997MOL0     C31482   9.392   3.836   4.486  0.4672 -0.8331  0.6650
  997MOL0     C31483   9.283   3.760   4.414  0.3337  0.4053  0.0731
  997MOL0     C31484   9.158   3.760   4.499 -0.1778  0.7715  0.1733
  997MOL0     C31485   9.046   3.667   4.446 -0.1614 -0.0007 -0.5475
  997MOL0     C31486   8.934   3.645   4.544 -0.5362  0.2466 -0.4818
  997MOL0     C31487   8.887   3.770   4.617  0.0300  0.6080 -0.0335
  997MOL0     C31488   8.741   3.749   4.673 -0.6585 -0.8193 -0.2046
  997MOL0     N31489   8.636   3.709   4.573 -0.4237  0.3748 -0.6910
  997MOL0     C31490   8.514   3.666   4.620 -0.0210  0.8223  0.0358
  997MOL0     C31491   8.430   3.659   4.511 -0.0280  0.3503  0.3087
  997MOL0     C31492   8.289   3.605   4.520 -0.0286 -0.0817 -0.6414
  997MOL0     C31493   8.206   3.626   4.394 -0.4650  0.0672 -0.5523
  997MOL0     C31494   8.067   3.582   4.405  0.0728  0.6244 -0.1031
  997MOL0     C31495   8.044   3.435   4.366 -0.8254 -0.7472 -0.4824
  997MOL0     O31496   8.025   3.401   4.229  0.0752 -0.2113 -0.2605
  997MOL0     C31497   7.905   3.414   4.172  0.1940  0.5645  0.5836
  997MOL0     C31498   7.900   3.397   4.034 -0.0996  1.3078 -0.1093
  997MOL0     C31499   7.774   3.396   3.965  0.4144 -0.3399  0.1717
  997MOL0     C31500   7.652   3.427   4.034  0.7104  0.0154 -0.2478
  997MOL0     C31501   7.520   3.424   3.969 -0.2892  0.3300 -0.0474
  997MOL0     O31502   7.413   3.449   4.054  0.5109 -0.5060  0.0325
  997MOL0     C31503   7.294   3.442   3.998  0.3350  0.2667 -0.4706
  997MOL0     C31504   7.206   3.548   3.966  1.0408 -0.2906 -0.2556
  997MOL0     C31505   7.082   3.526   3.907  0.1599  0.0915  0.2834
  997MOL0     C31506   7.037   3.398   3.881 -0.4979  0.1589 -0.1777
  997MOL0     O31507   6.914   3.364   3.827  0.1790 -0.7587 -0.3618
  997MOL0     C31508   6.818   3.469   3.814  0.3848  0.5822  0.1141
  997MOL0     C31509   6.693   3.403   3.748 -0.0408 -0.2320  0.4409
  997MOL0     C31510   6.577   3.501   3.701 -0.8223  0.0556 -0.1663
  997MOL0     C31511   6.457   3.427   3.640  0.3400 -0.0408 -0.0440
  997MOL0     C31512   6.356   3.521   3.570  0.1746 -0.1918  0.5521
  997MOL0     C31513   6.240   3.446   3.496  0.1839 -0.4231  0.4142
  997MOL0     C31514   6.155   3.536   3.407 -0.7515 -0.3671  0.3905
  997MOL0     C31515   6.054   3.464   3.337 -0.2872 -0.0906  0.5284
  997MOL0    Cl31516   5.951   3.581   3.258 -0.1380 -0.0457 -0.2037
  997MOL0     C31517   7.122   3.295   3.917  0.6753  0.7860  0.6080
  997MOL0     C31518   7.237   3.312   3.976 -0.3567  0.8172 -0.9424
  997MOL0     O31519   7.513   3.404   3.846 -0.1248 -0.6260 -0.3763
  997MOL0     C31520   7.665   3.461   4.170  0.1225  0.4332 -0.3799
  997MOL0     C31521   7.789   3.455   4.241  0.1392  0.0063 -0.2417
  997MOL0     N31522   8.506   3.698   4.405 -0.5310 -0.2531 -0.0349
  997MOL0     N31523   8.628   3.731   4.442  0.3918  0.5476 -0.6129
  997MOL0     C31524   9.593   3.954   4.069  0.2722  0.0668  0.3255
  997MOL0     C31525   9.692   3.994   3.978  0.6551 -0.2284  0.5922
  997MOL0     C31526  10.149   4.071   3.899  0.4226 -0.4202 -0.5231
  997MOL0     C31527  10.276   4.100   3.942 -0.6010  0.0674  0.6557
  997MOL0     C31528  10.386   4.119   3.852 -0.4558 -0.0161  0.3165
  997MOL0     C31529  10.361   4.111   3.720  0.0738 -0.0810 -0.0268
  997MOL0     O31530  10.471   4.136   3.643 -0.6732 -0.2939  0.0955
  997MOL0     C31531  10.475   4.090   3.509 -0.2221  0.0833  0.1345
  997MOL0     C31532  10.618   4.096   3.461  0.7768 -0.6159  0.2557
  997MOL0     C31533  10.626   3.971   3.376  0.8061 -0.1957  0.7091
  997MOL0     C31534  10.756   3.961   3.295 -0.6366 -0.5354  0.1495
  997MOL0     C31535  10.869   3.936   3.392  0.0332 -0.0256 -0.4948
  997MOL0     C31536  10.947   3.919   3.484  0.4105 -1.1586  0.7632
  997MOL0     C31537  10.232   4.099   3.671  0.1406 -0.7501 -0.3457
  997MOL0     C31538  10.128   4.077   3.760  0.1877 -0.0697  0.0833
  997MOL0     H31539   9.941   3.871   4.177 -0.8743  0.5677  3.0090
  997MOL0     H31540   9.759   3.814   4.331  0.4132  0.1082 -0.3665
  997MOL0     H31541   9.604   3.884   4.473  2.0391 -0.9196 -1.2635
  997MOL0     H31542   9.570   3.733   4.420 -0.1018 -0.0834  0.3246
  997MOL0     H31543   9.370   3.941   4.502  1.5684 -0.6786  1.2452
  997MOL0     H31544   9.394   3.792   4.586  1.5794  0.3758  1.1979
  997MOL0     H31545   9.319   3.658   4.399 -2.7846 -0.5947 -1.4974
  997MOL0     H31546   9.265   3.789   4.310 -0.6715 -0.0424  0.1109
  997MOL0     H31547   9.179   3.720   4.599  1.9281 -1.1425 -0.9562
  997MOL0     H31548   9.120   3.862   4.491 -0.8975  0.5201  0.2828
  997MOL0     H31549   9.083   3.566   4.427 -0.5165 -0.5862  1.6476
  997MOL0     H31550   8.995   3.710   4.359  0.1443  2.4417  0.4147
  997MOL0     H31551   8.960   3.583   4.630 -1.2391  2.9085  1.8280
  997MOL0     H31552   8.857   3.590   4.489  0.9211 -1.3999 -0.9486
  997MOL0     H31553   8.950   3.791   4.704 -0.8570 -0.8590  1.0252
  997MOL0     H31554   8.892   3.858   4.553 -0.9391  1.1122  0.5598
  997MOL0     H31555   8.719   3.843   4.725 -1.2498 -1.6352  1.0624
  997MOL0     H31556   8.731   3.671   4.748 -0.1924 -0.3588  0.3466
  997MOL0     H31557   8.488   3.643   4.723 -1.5196 -2.5112 -0.9234
  997MOL0     H31558   8.242   3.649   4.608 -0.0618  1.0109 -1.1836
  997MOL0     H31559   8.306   3.499   4.538  3.0527  0.4908  0.3767
  997MOL0     H31560   8.241   3.569   4.308 -1.0536  1.8472 -2.0205
  997MOL0     H31561   8.207   3.733   4.372 -1.9961 -0.0086 -1.0754
  997MOL0     H31562   8.028   3.608   4.504  0.3371  1.4775 -0.2174
  997MOL0     H31563   8.004   3.646   4.342 -3.0990 -2.1304 -0.0296
  997MOL0     H31564   7.964   3.401   4.432 -1.1590 -1.2653 -1.1477
  997MOL0     H31565   8.137   3.390   4.402  2.0889  1.3721 -4.5187
  997MOL0     H31566   7.984   3.381   3.968 -2.0264 -2.0821 -2.0448
  997MOL0     H31567   7.776   3.368   3.860 -4.3936 -0.2463 -0.1796
  997MOL0     H31568   7.234   3.651   3.986 -1.3587  0.3468  0.1392
  997MOL0     H31569   7.014   3.609   3.889 -1.2258 -0.3069  3.0165
  997MOL0     H31570   6.854   3.553   3.753 -1.7573  2.3643  1.1778
  997MOL0     H31571   6.797   3.511   3.912 -1.7907  0.8994 -0.4410
  997MOL0     H31572   6.647   3.335   3.820 -1.4039 -1.9712 -1.9303
  997MOL0     H31573   6.734   3.334   3.673  1.2596 -0.3469  1.2242
  997MOL0     H31574   6.627   3.564   3.626  1.9495 -0.8064  0.8128
  997MOL0     H31575   6.563   3.573   3.783  2.2115 -1.9456  2.3650
  997MOL0     H31576   6.494   3.345   3.578  1.1799 -0.6218  1.1690
  997MOL0     H31577   6.392   3.389   3.719  2.1545 -2.2568  0.5103
  997MOL0     H31578   6.409   3.581   3.496 -1.4482  1.2856  0.5271
  997MOL0     H31579   6.310   3.589   3.642 -0.7827 -0.0583 -0.1540
  997MOL0     H31580   6.168   3.397   3.562  1.2103 -2.5552  0.0246
  997MOL0     H31581   6.290   3.376   3.428  2.1648 -0.3137  1.6827
  997MOL0     H31582   6.105   3.603   3.477 -2.9656 -0.4195 -1.0518
  997MOL0     H31583   6.210   3.604   3.341 -1.0099 -1.3087 -0.8353
  997MOL0     H31584   6.002   3.404   3.412 -1.3244 -2.9535 -2.2263
  997MOL0     H31585   6.098   3.391   3.268  0.9266  1.7140 -0.6816
  997MOL0     H31586   7.101   3.193   3.886  1.0305  1.4009 -1.8751
  997MOL0     H31587   7.308   3.237   4.010 -0.2331  1.8127  1.1853
  997MOL0     H31588   7.583   3.500   4.230  1.2758  2.2680  0.0636
  997MOL0     H31589   7.790   3.498   4.341  2.0513  3.8758 -1.7148
  997MOL0     H31590   9.491   3.971   4.036 -0.3869  1.1665  2.7067
  997MOL0     H31591   9.679   4.041   3.881  0.2137  1.5839  1.4742
  997MOL0     H31592  10.281   4.122   4.049 -0.5028 -0.2298  0.7129
  997MOL0     H31593  10.487   4.148   3.881 -0.6469  1.4106 -0.3403
  997MOL0     H31594  10.405   4.141   3.442 -0.6293 -0.0291  0.4705
  997MOL0     H31595  10.440   3.986   3.514  0.6375 -0.1964  0.6550
  997MOL0     H31596  10.630   4.193   3.412 -1.1821 -0.8579 -0.8294
  997MOL0     H31597  10.687   4.083   3.545 -0.6175  2.0202  1.9837
  997MOL0     H31598  10.545   3.962   3.302  1.6574 -5.3583 -0.0052
  997MOL0     H31599  10.623   3.881   3.438 -1.6232 -1.3703 -0.9451
  997MOL0     H31600  10.748   3.880   3.221 -2.3989 -1.0671  0.8538
  997MOL0     H31601  10.771   4.055   3.242 -3.4124  0.7002  1.3592
  997MOL0     H31602  11.028   3.902   3.552  1.4360 -0.6695 -0.2940
  997MOL0     H31603  10.213   4.122   3.567 -3.3914  2.6860  0.7926
  997MOL0     H31604  10.023   4.072   3.731  0.3953 -0.0374 -0.6843
  998MOL0     O31605   0.911  10.146   5.710  0.0181 -0.2293  0.1125
  998MOL0     C31606   0.950  10.157   5.594  0.0680  0.8806 -0.1204
  998MOL0     O31607   0.871  10.168   5.487 -0.2041 -0.1709 -0.3313
  998MOL0     C31608   0.743  10.193   5.512  0.4508  1.1241 -0.2175
  998MOL0     C31609   0.644  10.098   5.475 -0.4026  0.5539 -0.7918
  998MOL0     C31610   0.508  10.114   5.513 -0.6602  0.5990 -0.7568
  998MOL0     C31611   0.472  10.226   5.586  0.4038 -0.6800  0.5261
  998MOL0     O31612   0.343  10.235   5.637 -0.2007 -0.0380  0.1524
  998MOL0     C31613   0.277  10.351   5.581  0.1690 -0.7271  0.6212
  998MOL0     C31614   0.129  10.340   5.607  0.0285  1.0161 -0.2039
  998MOL0     C31615   0.070  10.212   5.551 -0.1377 -0.4174  0.1297
  998MOL0     C31616  -0.083  10.217   5.538 -0.4253  0.5465  0.0269
  998MOL0     C31617  -0.139  10.097   5.463  0.3095  0.0213  0.0454
  998MOL0     C31618  -0.295  10.092   5.456 -0.1380  0.1419 -0.0621
  998MOL0     C31619  -0.346   9.953   5.408 -0.2848  0.4557 -0.1189
  998MOL0     C31620  -0.476   9.962   5.346 -0.4803 -0.4179  0.0705
  998MOL0     N31621  -0.582   9.983   5.447  0.4324 -0.2969 -0.2693
  998MOL0     C31622  -0.696   9.909   5.455 -0.2105 -0.1171 -0.1948
  998MOL0     C31623  -0.785   9.982   5.529 -0.7220  0.3824 -0.8687
  998MOL0     C31624  -0.928   9.949   5.576 -0.2001 -0.8146 -0.6174
  998MOL0     C31625  -1.031   9.982   5.465 -0.2131  0.7477  0.6799
  998MOL0     C31626  -1.111  10.106   5.485  0.8288 -0.6595 -0.3703
  998MOL0     C31627  -1.226  10.126   5.381  0.9148 -0.2542 -0.2323
  998MOL0     O31628  -1.317  10.224   5.445 -0.1916  0.4532  0.3948
  998MOL0     C31629  -1.445  10.226   5.392  0.1061 -0.2322 -0.4416
  998MOL0     C31630  -1.558  10.198   5.473  0.2563 -0.1422  0.5544
  998MOL0     C31631  -1.689  10.207   5.432 -1.3734  0.9454 -0.1239
  998MOL0     C31632  -1.715  10.236   5.297 -0.2081 -0.1194  1.4543
  998MOL0     C31633  -1.847  10.233   5.234 -0.5050 -0.4125 -0.9122
  998MOL0     O31634  -1.867  10.147   5.131 -0.2875 -0.3489 -0.9713
  998MOL0     C31635  -1.989  10.140   5.083 -0.2116 -0.0234  0.8410
  998MOL0     C31636  -2.098  10.096   5.153 -0.2597  0.2298 -0.3555
  998MOL0     C31637  -2.213  10.063   5.085  0.3736 -0.5766  0.4669
  998MOL0     C31638  -2.226  10.087   4.948 -0.0380 -0.2277  0.3290
  998MOL0     O31639  -2.328  10.039   4.868 -0.1480  0.0434  0.1565
  998MOL0     C31640  -2.457  10.017   4.925 -0.0385 -1.3014 -0.6589
  998MOL0     C31641  -2.535  10.148   4.904  0.2024  0.1533 -0.1018
  998MOL0     C31642  -2.571  10.164   4.759  0.3273  0.3279 -0.5677
  998MOL0     C31643  -2.695  10.258   4.732 -0.3208 -0.2355  0.4079
  998MOL0     C31644  -2.713  10.291   4.585 -0.6822 -0.3701  0.5851
  998MOL0     C31645  -2.843  10.370   4.575 -0.1330 -0.3547  0.7342
  998MOL0     C31646  -2.868  10.421   4.427  0.2361  0.7989  0.3813
  998MOL0     C31647  -3.001  10.484   4.400  0.0809  0.8111  0.0880
  998MOL0    Cl31648  -2.998  10.521   4.229  0.1880 -0.1704  0.4115
  998MOL0     C31649  -2.118  10.133   4.879 -0.6430  0.2168  0.2263
  998MOL0     C31650  -1.997  10.163   4.947  0.2958 -0.4161  0.3779
  998MOL0     O31651  -1.934  10.291   5.298  0.0890  0.1603  0.5924
  998MOL0     C31652  -1.604  10.263   5.209 -0.0334 -0.3886 -0.7632
  998MOL0     C31653  -1.478  10.245   5.257 -0.1024 -0.8702 -0.2753
  998MOL0     N31654  -0.724  10.106   5.566 -0.2086  1.1547  0.3235
  998MOL0     N31655  -0.607  10.095   5.517 -0.2920 -0.6091  0.5526
  998MOL0     C31656   0.564  10.330   5.600  0.2807 -0.2247 -0.8050
  998MOL0     C31657   0.700  10.306   5.583 -0.7714 -0.5904  0.8388
  998MOL0     C31658   1.099  10.155   5.575  0.6911 -0.3938 -0.7995
  998MOL0     C31659   1.178  10.079   5.659 -0.1636  0.2585  0.8313
  998MOL0     C31660   1.313  10.062   5.641 -0.0842 -0.2451  0.3594
  998MOL0     C31661   1.374  10.147   5.548 -0.3302 -0.3144  0.3162
  998MOL0     O31662   1.511  10.136   5.558 -0.1992  0.0171  0.7748
  998MOL0     C31663   1.586  10.191   5.455 -0.5496 -0.0877  0.2188
  998MOL0     C31664   1.707  10.098   5.423 -0.6768 -0.5870 -0.1173
  998MOL0     C31665   1.660   9.967   5.356 -0.0535 -1.1923  0.5429
  998MOL0     C31666   1.628   9.988   5.207  0.1521  0.3480 -0.5330
  998MOL0     C31667   1.743  10.011   5.122 -0.2741 -0.1237  0.1107
  998MOL0     C31668   1.853  10.017   5.066  0.5322 -0.3613  0.3240
  998MOL0     C31669   1.302  10.245   5.477 -0.3823  0.2914 -0.4381
  998MOL0     C31670   1.167  10.239   5.488 -0.5114  0.5102  1.0423
  998MOL0     H31671   0.671  10.010   5.417 -2.7581  1.8420 -4.1697
  998MOL0     H31672   0.445  10.030   5.483  0.2796  0.5203 -2.6914
  998MOL0     H31673   0.296  10.354   5.473 -3.2638  2.5096 -0.1136
  998MOL0     H31674   0.312  10.440   5.635  0.9745 -1.6161  1.5838
  998MOL0     H31675   0.073  10.428   5.573 -1.1258  0.5059  0.3126
  998MOL0     H31676   0.113  10.332   5.715 -0.9862  0.3934 -0.3856
  998MOL0     H31677   0.091  10.121   5.608 -1.4828 -1.5005 -1.0350
  998MOL0     H31678   0.123  10.197   5.456  3.7310 -0.8310  2.1326
  998MOL0     H31679  -0.117  10.232   5.641  0.8388 -1.2771  0.7681
  998MOL0     H31680  -0.108  10.300   5.472 -0.3418  1.3713  1.0221
  998MOL0     H31681  -0.104  10.010   5.520 -2.1167 -0.8469  0.3220
  998MOL0     H31682  -0.099  10.087   5.362 -1.4552  0.5813 -0.7446
  998MOL0     H31683  -0.323  10.169   5.383 -0.6058  0.8262  0.8339
  998MOL0     H31684  -0.346  10.113   5.550 -0.8366 -0.4716 -0.2924
  998MOL0     H31685  -0.277   9.913   5.332  0.7165  1.5406  0.1776
  998MOL0     H31686  -0.354   9.887   5.495  1.5500  1.9187  1.2661
  998MOL0     H31687  -0.498   9.865   5.301 -0.1278 -0.2266 -0.5311
  998MOL0     H31688  -0.468  10.023   5.255 -0.8159  0.5061  0.6510
  998MOL0     H31689  -0.710   9.813   5.407  0.9331  0.8539 -2.5885
  998MOL0     H31690  -0.942  10.009   5.667  1.3651 -1.6779  0.2464
  998MOL0     H31691  -0.928   9.846   5.614 -1.7400 -0.3712  0.6995
  998MOL0     H31692  -1.104   9.901   5.473  0.1429  0.3376 -0.1574
  998MOL0     H31693  -0.984   9.973   5.367  0.3733 -1.7318  1.1039
  998MOL0     H31694  -1.153  10.109   5.586  0.0513  2.0157 -0.7099
  998MOL0     H31695  -1.041  10.190   5.489  0.3598 -0.3216  1.7191
  998MOL0     H31696  -1.289  10.039   5.364  1.1905  0.0447 -3.3606
  998MOL0     H31697  -1.183  10.155   5.285  1.5084 -0.6701 -0.0975
  998MOL0     H31698  -1.551  10.191   5.581 -2.8282  2.4998  1.1092
  998MOL0     H31699  -1.766  10.196   5.507  1.0330  1.8640  2.7104
  998MOL0     H31700  -2.094  10.068   5.258 -3.2005 -0.2134 -0.2715
  998MOL0     H31701  -2.302  10.044   5.143 -1.7960  1.7902 -1.8382
  998MOL0     H31702  -2.451  10.001   5.033 -2.7770  1.7093  0.0965
  998MOL0     H31703  -2.506   9.934   4.872  1.6697 -3.3295  0.7599
  998MOL0     H31704  -2.470  10.228   4.941  1.1905 -1.0980  0.9488
  998MOL0     H31705  -2.624  10.137   4.967  0.7044  0.8942  0.7588
  998MOL0     H31706  -2.599  10.064   4.724  0.6375 -2.4893  5.8370
  998MOL0     H31707  -2.483  10.207   4.709  0.4900  0.2670 -0.3352
  998MOL0     H31708  -2.788  10.214   4.769  0.3880 -1.2752  0.9993
  998MOL0     H31709  -2.677  10.349   4.791 -1.5927  0.2493  0.0797
  998MOL0     H31710  -2.730  10.200   4.526  0.9027  0.5994 -1.4745
  998MOL0     H31711  -2.623  10.341   4.548 -1.9628  1.8077  0.2556
  998MOL0     H31712  -2.845  10.458   4.640 -0.1258 -0.3847  0.7755
  998MOL0     H31713  -2.928  10.303   4.592  0.9421 -2.6422 -2.0735
  998MOL0     H31714  -2.788  10.493   4.407  2.3540 -1.7841 -1.0624
  998MOL0     H31715  -2.849  10.341   4.354 -1.2820  0.5592  0.2026
  998MOL0     H31716  -3.016  10.574   4.461  0.0481  0.1054  1.1568
  998MOL0     H31717  -3.081  10.416   4.431 -0.7388  2.8980  2.9280
  998MOL0     H31718  -2.116  10.137   4.771 -2.4013 -0.9114  0.1237
  998MOL0     H31719  -1.905  10.196   4.900 -0.8208 -0.1920 -1.7561
  998MOL0     H31720  -1.624  10.290   5.106  1.7532  1.3844 -0.7060
  998MOL0     H31721  -1.391  10.255   5.193  0.1653  4.1498  0.4266
  998MOL0     H31722   0.541  10.432   5.628  0.3156  0.5009 -3.1780
  998MOL0     H31723   0.776  10.376   5.618 -3.0163  2.0613  0.7124
  998MOL0     H31724   1.123  10.022   5.734 -0.2718 -2.9372 -1.4694
  998MOL0     H31725   1.375  10.004   5.708 -0.9777 -0.2852  1.1700
  998MOL0     H31726   1.622  10.288   5.490 -3.9329  2.0107 -1.5910
  998MOL0     H31727   1.530  10.223   5.367  0.5618  2.0025  0.2186
  998MOL0     H31728   1.778  10.144   5.353 -0.9053 -2.7651 -1.8846
  998MOL0     H31729   1.773  10.076   5.507  0.3042 -2.5071 -1.3285
  998MOL0     H31730   1.567   9.926   5.397 -1.0633 -0.6099 -1.0458
  998MOL0     H31731   1.741   9.893   5.364  2.3143  1.3061  0.9815
  998MOL0     H31732   1.567   9.906   5.169 -2.8651  1.8678  0.7052
  998MOL0     H31733   1.563  10.076   5.205 -2.1591 -1.2976 -1.6008
  998MOL0     H31734   1.954  10.017   5.031 -0.0222 -2.3498 -1.5174
  998MOL0     H31735   1.348  10.316   5.410 -1.3487 -0.4029 -1.8803
  998MOL0     H31736   1.103  10.295   5.420 -0.7331 -1.0910 -0.1286
  999MOL0     O31737   8.571   2.079  10.405  0.0740  0.4939 -0.2255
  999MOL0     C31738   8.641   2.003  10.344 -0.2593  0.4011  0.8351
  999MOL0     O31739   8.602   1.882  10.293 -0.3762 -0.2781 -0.2194
  999MOL0     C31740   8.468   1.857  10.284 -0.3627 -0.5752  0.5948
  999MOL0     C31741   8.379   1.924  10.199  0.3578 -0.6315  0.7227
  999MOL0     C31742   8.245   1.901  10.172  0.2743 -0.1566  0.0426
  999MOL0     C31743   8.186   1.792  10.234  0.0615 -0.0994 -0.8517
  999MOL0     O31744   8.055   1.775  10.196  0.0578  0.5545 -0.5910
  999MOL0     C31745   7.967   1.841  10.295 -0.2873 -0.3821  0.8713
  999MOL0     C31746   7.887   1.740  10.376  0.0776  0.1228 -1.0371
  999MOL0     C31747   7.789   1.666  10.281  0.1972  0.4794 -0.4873
  999MOL0     C31748   7.685   1.584  10.358 -0.8520 -0.6122 -0.8979
  999MOL0     C31749   7.581   1.527  10.263  0.5513  0.4537 -0.1533
  999MOL0     C31750   7.517   1.619  10.152 -0.4168 -0.5307  0.2510
  999MOL0     C31751   7.391   1.556  10.092  0.2857  0.0124 -0.6071
  999MOL0     C31752   7.291   1.665  10.045  0.2913  0.7531  0.8829
  999MOL0     N31753   7.161   1.608   9.996  0.0261  0.3762  0.8240
  999MOL0     C31754   7.128   1.575   9.860 -0.2439  0.1244  0.9756
  999MOL0     C31755   7.002   1.525   9.862 -0.4019 -0.0111 -0.2270
  999MOL0     C31756   6.925   1.483   9.740  0.4866 -0.9586 -0.7620
  999MOL0     C31757   6.882   1.617   9.666  0.2388  1.2847  0.6591
  999MOL0     C31758   6.793   1.578   9.544 -0.6751 -0.7368 -0.6321
  999MOL0     C31759   6.753   1.706   9.470  0.1331 -0.5518  0.7654
  999MOL0     O31760   6.707   1.674   9.331  0.0983 -0.5011  0.9916
  999MOL0     C31761   6.571   1.642   9.311  0.2985  0.0840  1.1258
  999MOL0     C31762   6.468   1.687   9.391  1.2807 -0.5825 -0.5865
  999MOL0     C31763   6.339   1.630   9.384  0.7090  0.8334  0.4814
  999MOL0     C31764   6.316   1.535   9.281  0.6574 -1.3122 -0.9542
  999MOL0     C31765   6.174   1.492   9.274  0.4048 -0.0442 -0.6914
  999MOL0     O31766   6.146   1.434   9.157 -0.2308  0.5026  0.3905
  999MOL0     C31767   6.015   1.417   9.118 -0.4600  0.1174  0.3217
  999MOL0     C31768   5.970   1.489   9.006 -0.9543  0.7716  0.1424
  999MOL0     C31769   5.840   1.494   8.970 -0.2197 -0.5600 -0.4094
  999MOL0     C31770   5.745   1.414   9.040 -0.3668 -0.1767  0.8305
  999MOL0     O31771   5.617   1.423   8.995  0.0928  0.2913 -0.1624
  999MOL0     C31772   5.525   1.315   9.019  0.2592  0.2336  1.2415
  999MOL0     C31773   5.390   1.329   8.957  0.4075 -0.0597  0.2078
  999MOL0     C31774   5.405   1.353   8.798 -0.1321 -0.0533  0.0725
  999MOL0     C31775   5.264   1.353   8.728 -0.1879 -0.0152  0.2332
  999MOL0     C31776   5.273   1.413   8.587  0.4489 -0.7950  0.2451
  999MOL0     C31777   5.344   1.318   8.492  0.4713  0.0798  0.9530
  999MOL0     C31778   5.282   1.182   8.469  0.3263 -0.2536 -0.0982
  999MOL0     C31779   5.360   1.101   8.359 -0.2278 -0.3095  0.0782
  999MOL0    Cl31780   5.507   1.020   8.428  0.0097  0.0991  0.1214
  999MOL0     C31781   5.789   1.339   9.151 -0.3749 -0.5242  0.5619
  999MOL0     C31782   5.928   1.341   9.191  0.8825  0.6418  0.6988
  999MOL0     O31783   6.095   1.519   9.362  0.2262 -0.2931 -0.1254
  999MOL0     C31784   6.413   1.505   9.185 -0.1642  0.4393 -0.3361
  999MOL0     C31785   6.545   1.557   9.204 -0.6341  0.3449  0.0106
  999MOL0     N31786   6.951   1.529   9.994 -1.1672  0.1438  0.1818
  999MOL0     N31787   7.048   1.580  10.068 -0.3977 -0.3129 -0.4038
  999MOL0     C31788   8.267   1.720  10.331 -0.8116 -0.7108 -0.6664
  999MOL0     C31789   8.406   1.754  10.359 -0.3783  0.7045  1.5961
  999MOL0     C31790   8.790   2.032  10.327  0.2706  0.2608 -0.2413
  999MOL0     C31791   8.846   2.144  10.392  0.7889 -0.4492 -0.3722
  999MOL0     C31792   8.978   2.163  10.391 -0.8471 -0.5462  0.5614
  999MOL0     C31793   9.066   2.096  10.304 -0.2119  0.1760  0.6186
  999MOL0     O31794   9.204   2.120  10.300  0.6270  0.0475 -0.2240
  999MOL0     C31795   9.287   2.031  10.228  0.2993 -0.0111 -0.3172
  999MOL0     C31796   9.405   2.104  10.168 -0.7058  0.3455  0.1929
  999MOL0     C31797   9.485   2.193  10.268  0.0540  0.1111  0.1490
  999MOL0     C31798   9.611   2.246  10.199 -1.0483  0.4550  0.1957
  999MOL0     C31799   9.732   2.160  10.222 -0.1205 -0.4977 -0.0617
  999MOL0     C31800   9.828   2.090  10.254  0.2870  0.5524  0.3720
  999MOL0     C31801   9.005   1.990  10.233  0.2422  0.4658  0.8993
  999MOL0     C31802   8.874   1.946  10.249  0.1105 -0.1351  0.1487
  999MOL0     H31803   8.431   1.998  10.139  2.1850 -1.3356  1.3474
  999MOL0     H31804   8.192   1.945  10.088  0.1784 -2.1596 -1.0075
  999MOL0     H31805   7.901   1.915  10.248  3.3178  1.5148 -1.6261
  999MOL0     H31806   8.028   1.898  10.365 -0.3165 -0.2970  0.8278
  999MOL0     H31807   7.825   1.792  10.449  0.4387  0.4292 -0.9451
  999MOL0     H31808   7.954   1.669  10.425 -0.6924 -1.7544 -2.5612
  999MOL0     H31809   7.840   1.603  10.207 -2.6159 -0.6757 -1.5886
  999MOL0     H31810   7.739   1.749  10.230 -1.1743 -1.1297 -1.8874
  999MOL0     H31811   7.726   1.503  10.420  1.5661 -0.1878 -1.8794
  999MOL0     H31812   7.633   1.659  10.419  0.9849  0.6898 -0.8664
  999MOL0     H31813   7.502   1.481  10.322 -0.2072  0.8899 -0.8069
  999MOL0     H31814   7.628   1.445  10.209 -0.7361 -1.0031  0.8621
  999MOL0     H31815   7.591   1.637  10.073  0.0362  1.8183  1.1248
  999MOL0     H31816   7.504   1.720  10.191 -0.0484  0.4523 -1.9933
  999MOL0     H31817   7.417   1.493  10.006  1.3955  0.9514 -0.9863
  999MOL0     H31818   7.347   1.479  10.156 -2.7329 -1.1896 -3.8424
  999MOL0     H31819   7.328   1.722   9.959 -1.8599 -1.3374 -1.6432
  999MOL0     H31820   7.260   1.724  10.132  0.9484 -2.3416  3.3881
  999MOL0     H31821   7.189   1.569   9.770 -1.2626  1.5116  0.1378
  999MOL0     H31822   6.835   1.430   9.774 -1.2494  1.6321 -0.9797
  999MOL0     H31823   6.987   1.420   9.676 -0.0907 -1.1076 -1.1826
  999MOL0     H31824   6.972   1.668   9.631  0.3304  1.0515  0.5481
  999MOL0     H31825   6.837   1.693   9.730 -0.6876  2.0731 -0.8456
  999MOL0     H31826   6.843   1.510   9.474 -2.0522 -1.4935 -0.9340
  999MOL0     H31827   6.702   1.527   9.575 -0.4407 -0.4229  0.6258
  999MOL0     H31828   6.840   1.772   9.467 -0.7990  0.7045  0.3685
  999MOL0     H31829   6.679   1.769   9.521  0.9015 -0.1861  1.4415
  999MOL0     H31830   6.485   1.768   9.461 -0.6202  0.1198 -0.8659
  999MOL0     H31831   6.259   1.651   9.454  0.4474 -2.1563  1.1997
  999MOL0     H31832   6.039   1.557   8.958 -0.8754 -0.5160 -1.7089
  999MOL0     H31833   5.809   1.557   8.887  0.6559  1.3091  0.6242
  999MOL0     H31834   5.502   1.307   9.126 -2.2462  0.7205  0.7888
  999MOL0     H31835   5.571   1.223   8.982  0.1748  0.6774 -0.0139
  999MOL0     H31836   5.335   1.411   9.004  1.7513  1.4172 -0.6657
  999MOL0     H31837   5.336   1.238   8.982 -1.3786  0.3020 -2.0449
  999MOL0     H31838   5.475   1.277   8.761  3.5912  2.9185  0.4759
  999MOL0     H31839   5.460   1.444   8.775  4.1373 -2.5498 -0.7080
  999MOL0     H31840   5.228   1.251   8.738 -1.2987  0.4391  1.0822
  999MOL0     H31841   5.198   1.418   8.786  0.0396 -0.1819  0.6817
  999MOL0     H31842   5.331   1.506   8.589  1.6612 -1.4621 -1.4135
  999MOL0     H31843   5.172   1.433   8.551 -0.4085 -0.9728  2.3890
  999MOL0     H31844   5.443   1.296   8.533  1.0894  1.4426  0.2032
  999MOL0     H31845   5.373   1.371   8.402 -1.9648  0.9450  0.6006
  999MOL0     H31846   5.289   1.127   8.563  2.3661 -1.5926 -0.9536
  999MOL0     H31847   5.178   1.203   8.445  0.6606  0.5779 -0.8813
  999MOL0     H31848   5.403   1.159   8.277  2.8100  0.8653  2.3334
  999MOL0     H31849   5.294   1.024   8.317 -3.1938  1.7362  0.6230
  999MOL0     H31850   5.720   1.278   9.209 -0.2111  0.4836  1.8731
  999MOL0     H31851   5.966   1.293   9.280  1.8504 -3.4999 -1.6859
  999MOL0     H31852   6.385   1.437   9.106  0.9752  0.8862 -1.1484
  999MOL0     H31853   6.621   1.499   9.152 -1.0132 -0.9308  0.8136
  999MOL0     H31854   8.216   1.641  10.386 -3.3493  0.9386 -0.4671
  999MOL0     H31855   8.467   1.715  10.440  0.6155 -2.5850 -0.5165
  999MOL0     H31856   8.786   2.206  10.457 -1.3319 -0.3304 -2.3177
  999MOL0     H31857   9.021   2.243  10.450 -0.1856 -0.1443 -0.4302
  999MOL0     H31858   9.235   1.982  10.144 -0.2202  1.3674 -0.8269
  999MOL0     H31859   9.325   1.956  10.299  1.0870 -1.8121 -2.5140
  999MOL0     H31860   9.470   2.026  10.127 -0.8839  0.2986 -0.0036
  999MOL0     H31861   9.372   2.171  10.087 -1.7841  0.3394  0.6197
  999MOL0     H31862   9.501   2.145  10.365 -0.4749 -0.8662 -0.2260
  999MOL0     H31863   9.421   2.277  10.296  1.5310  0.8306  1.4347
  999MOL0     H31864   9.593   2.260  10.092 -2.7822  0.8670  0.5129
  999MOL0     H31865   9.639   2.343  10.242  1.6152  0.1047 -0.5508
  999MOL0     H31866   9.913   2.032  10.282  1.2246  1.9836  0.5806
  999MOL0     H31867   9.061   1.928  10.164  0.0005  0.5331  0.6393
  999MOL0     H31868   8.835   1.860  10.195  0.3762 -0.4159  0.4007
 1000MOL0     O31869   6.018   3.502   4.292 -0.7784  0.4584 -0.6808
 1000MOL0     C31870   6.026   3.406   4.371  0.4648  0.4621 -0.0357
 1000MOL0     O31871   5.942   3.302   4.375  0.4078 -0.5702 -0.8434
 1000MOL0     C31872   5.846   3.291   4.276  0.0577 -0.1300 -0.4409
 1000MOL0     C31873   5.726   3.231   4.311 -0.4984 -0.8898  0.5172
 1000MOL0     C31874   5.624   3.199   4.215  0.8569  0.5333  0.3495
 1000MOL0     C31875   5.642   3.229   4.082  0.1770  0.5259  0.6450
 1000MOL0     O31876   5.549   3.189   3.994 -0.9936 -0.9384  1.0499
 1000MOL0     C31877   5.581   3.169   3.854 -0.1066  0.3475  0.3374
 1000MOL0     C31878   5.453   3.117   3.782  0.2128 -0.2245  0.6420
 1000MOL0     C31879   5.472   3.106   3.637 -0.0373  0.0874  0.4051
 1000MOL0     C31880   5.359   3.020   3.573  0.1907  0.3089 -0.1901
 1000MOL0     C31881   5.238   3.113   3.573  0.4023 -0.5270  0.2149
 1000MOL0     C31882   5.144   3.072   3.469  0.1231  0.5049  0.4172
 1000MOL0     C31883   5.033   3.170   3.455  0.1281 -0.1146  0.4012
 1000MOL0     C31884   4.955   3.149   3.324 -0.7817 -0.1847  0.1794
 1000MOL0     N31885   4.859   3.249   3.282  0.0751 -0.1271 -0.6566
 1000MOL0     C31886   4.868   3.385   3.292  0.3099  0.4857 -0.8723
 1000MOL0     C31887   4.762   3.437   3.235  0.0396  0.1749  0.0170
 1000MOL0     C31888   4.728   3.582   3.234  0.5890 -0.0810  0.3416
 1000MOL0     C31889   4.677   3.625   3.378 -0.5744 -0.7675 -0.3641
 1000MOL0     C31890   4.528   3.620   3.391  0.6838  0.3688 -0.2444
 1000MOL0     C31891   4.468   3.478   3.387 -0.1857  0.1038 -0.6111
 1000MOL0     O31892   4.373   3.463   3.494 -0.8473 -0.2259 -0.1522
 1000MOL0     C31893   4.242   3.468   3.450 -0.6644 -1.1517  0.9973
 1000MOL0     C31894   4.150   3.391   3.513  0.4948  0.9258  0.5209
 1000MOL0     C31895   4.014   3.380   3.474 -0.0810 -0.5008 -0.4877
 1000MOL0     C31896   3.967   3.470   3.382  0.9843  0.1618  0.5149
 1000MOL0     C31897   3.821   3.475   3.344  0.3157  0.7374 -0.9123
 1000MOL0     O31898   3.778   3.576   3.257  0.3407  0.1864 -0.2061
 1000MOL0     C31899   3.649   3.631   3.240 -0.1084  0.0374 -0.8926
 1000MOL0     C31900   3.616   3.724   3.139  0.0636 -1.0693  0.0222
 1000MOL0     C31901   3.483   3.762   3.111  0.0907  0.0205  0.1575
 1000MOL0     C31902   3.377   3.706   3.181 -0.9445 -0.2780  0.9446
 1000MOL0     O31903   3.249   3.748   3.145  0.3686 -0.2399  0.1127
 1000MOL0     C31904   3.217   3.692   3.014 -0.1844  0.7077  0.0001
 1000MOL0     C31905   3.099   3.739   2.937 -0.3230  0.2140  0.5528
 1000MOL0     C31906   2.970   3.745   3.020  0.4212 -0.1806  0.0648
 1000MOL0     C31907   2.910   3.605   3.023 -0.0511 -0.3126 -0.5010
 1000MOL0     C31908   2.820   3.591   3.139  0.7560  0.7583 -0.7200
 1000MOL0     C31909   2.894   3.570   3.274  0.1118  0.6791 -0.5204
 1000MOL0     C31910   2.836   3.483   3.381  0.3439  0.3036 -0.9704
 1000MOL0     C31911   2.932   3.465   3.506  0.2082 -0.4208 -0.3522
 1000MOL0    Cl31912   2.913   3.600   3.612  0.4618 -0.5861 -0.4985
 1000MOL0     C31913   3.403   3.607   3.283 -0.3126 -0.1851  0.6067
 1000MOL0     C31914   3.539   3.568   3.306 -0.0285 -0.0911 -0.0341
 1000MOL0     O31915   3.752   3.378   3.382 -0.4812 -1.3763  0.8921
 1000MOL0     C31916   4.057   3.553   3.311  0.2041  0.2815 -1.1589
 1000MOL0     C31917   4.189   3.559   3.356  0.0641  0.5081  0.6930
 1000MOL0     N31918   4.690   3.326   3.176 -0.1050  0.2754 -1.2187
 1000MOL0     N31919   4.740   3.209   3.217 -0.2487 -0.6955 -0.0812
 1000MOL0     C31920   5.768   3.292   4.045 -0.4432 -0.2380  0.2922
 1000MOL0     C31921   5.865   3.325   4.141 -0.0104 -0.2210  0.0652
 1000MOL0     C31922   6.141   3.396   4.472 -0.8876  0.0166  0.6745
 1000MOL0     C31923   6.158   3.300   4.576  0.2657 -0.1892 -0.2434
 1000MOL0     C31924   6.261   3.299   4.674  0.3118 -0.0148 -0.1913
 1000MOL0     C31925   6.352   3.408   4.674 -0.0536  1.0448  0.7363
 1000MOL0     O31926   6.439   3.434   4.781 -0.5438  0.1893  0.3508
 1000MOL0     C31927   6.524   3.551   4.781 -0.5281  0.0566  0.6244
 1000MOL0     C31928   6.589   3.574   4.919 -0.6993  0.4539 -0.5830
 1000MOL0     C31929   6.649   3.713   4.934 -0.8840 -0.3160 -0.3288
 1000MOL0     C31930   6.794   3.721   4.900  0.0664  0.4841 -0.3934
 1000MOL0     C31931   6.875   3.655   5.003  0.2621  1.1278  0.1854
 1000MOL0     C31932   6.933   3.587   5.089 -0.2925  0.3176 -0.2226
 1000MOL0     C31933   6.353   3.493   4.562  0.0447 -0.8387  0.1078
 1000MOL0     C31934   6.248   3.492   4.464 -1.0671  0.1225  0.0759
 1000MOL0     H31935   5.697   3.209   4.413 -1.5338 -1.9353  0.0338
 1000MOL0     H31936   5.534   3.147   4.247  2.3643 -2.3106  0.3237
 1000MOL0     H31937   5.663   3.100   3.834  0.7531  1.8719 -1.8388
 1000MOL0     H31938   5.605   3.263   3.802  0.2295 -0.1776 -0.4787
 1000MOL0     H31939   5.367   3.183   3.795 -2.0628 -2.7391 -0.7465
 1000MOL0     H31940   5.432   3.019   3.827 -0.7246  0.5467  1.9617
 1000MOL0     H31941   5.559   3.043   3.611  0.0028  0.9064 -1.6657
 1000MOL0     H31942   5.483   3.204   3.591  0.7149  0.2035  0.8116
 1000MOL0     H31943   5.395   2.985   3.476  2.2693  1.5970  0.0531
 1000MOL0     H31944   5.337   2.933   3.635 -0.5014  0.2293 -0.5359
 1000MOL0     H31945   5.269   3.214   3.546 -1.1322  0.3112  1.4367
 1000MOL0     H31946   5.195   3.129   3.673  2.0015  0.1499  0.8298
 1000MOL0     H31947   5.108   2.972   3.496  0.4131 -0.4315 -2.3002
 1000MOL0     H31948   5.199   3.055   3.375  1.7870 -1.8719  1.7065
 1000MOL0     H31949   4.960   3.162   3.537 -1.2661  0.4478 -0.7387
 1000MOL0     H31950   5.070   3.273   3.455  0.5889 -0.2683  1.3624
 1000MOL0     H31951   4.904   3.052   3.324  1.5906 -1.5120 -0.1765
 1000MOL0     H31952   5.031   3.142   3.245 -1.0076 -0.3428 -0.0256
 1000MOL0     H31953   4.950   3.446   3.327  0.6264 -1.1566  1.4501
 1000MOL0     H31954   4.651   3.588   3.157  0.9410 -0.1999 -0.0198
 1000MOL0     H31955   4.820   3.635   3.210  2.8673 -4.3973 -1.5245
 1000MOL0     H31956   4.699   3.732   3.389 -1.7563 -0.5912  0.5821
 1000MOL0     H31957   4.723   3.573   3.463 -0.3609  0.3653  0.2355
 1000MOL0     H31958   4.492   3.679   3.476 -1.2850  0.5191 -1.1090
 1000MOL0     H31959   4.494   3.679   3.305 -2.0414  0.2652  0.6753
 1000MOL0     H31960   4.548   3.409   3.414  1.0191  1.9753  0.8704
 1000MOL0     H31961   4.436   3.450   3.286  1.4676 -2.9705 -0.4204
 1000MOL0     H31962   4.181   3.334   3.600 -2.4967 -3.7632 -1.0711
 1000MOL0     H31963   3.934   3.334   3.532 -0.8059  1.9334  0.5514
 1000MOL0     H31964   3.702   3.755   3.080 -0.8876  2.2440  0.1493
 1000MOL0     H31965   3.474   3.821   3.020  1.1923 -1.8208 -1.2285
 1000MOL0     H31966   3.202   3.585   3.029  1.3387  0.3680 -0.6365
 1000MOL0     H31967   3.304   3.709   2.950  0.3774  2.5037  1.1531
 1000MOL0     H31968   3.079   3.678   2.849 -1.1206  1.7594 -0.3731
 1000MOL0     H31969   3.131   3.841   2.912 -1.2471  0.4807  0.4451
 1000MOL0     H31970   2.902   3.806   2.960  3.4926  3.1930 -0.3079
 1000MOL0     H31971   2.992   3.801   3.111  2.3963  1.2061 -1.1860
 1000MOL0     H31972   2.848   3.589   2.934  0.9911  1.6014 -1.6310
 1000MOL0     H31973   2.979   3.520   3.019 -0.4219 -0.5691 -2.4649
 1000MOL0     H31974   2.748   3.510   3.136  1.6376 -0.2128  1.4759
 1000MOL0     H31975   2.755   3.679   3.146 -2.7397 -1.7002 -0.1655
 1000MOL0     H31976   2.915   3.665   3.325  2.4339 -1.6522  3.3441
 1000MOL0     H31977   2.984   3.515   3.248  0.2439  1.1693 -1.1124
 1000MOL0     H31978   2.744   3.524   3.422  1.0915  0.5617  0.5281
 1000MOL0     H31979   2.808   3.385   3.340 -2.6915  0.3623  0.6831
 1000MOL0     H31980   3.034   3.458   3.467  0.0597  0.7142 -0.9761
 1000MOL0     H31981   2.926   3.370   3.561  1.9369 -0.5605 -0.3220
 1000MOL0     H31982   3.320   3.566   3.340 -2.2208  0.2255 -1.7467
 1000MOL0     H31983   3.557   3.508   3.395  3.4276  3.0621  1.7116
 1000MOL0     H31984   4.029   3.625   3.236 -1.2134  0.5309 -0.4299
 1000MOL0     H31985   4.254   3.633   3.310 -0.7252  0.1723 -1.0318
 1000MOL0     H31986   5.783   3.329   3.944 -3.5467  2.2003  0.5960
 1000MOL0     H31987   5.954   3.377   4.108  0.5993  0.1574  2.1266
 1000MOL0     H31988   6.101   3.209   4.590  0.8403 -0.3059  1.6529
 1000MOL0     H31989   6.271   3.237   4.762  1.9716  1.2184  0.5324
 1000MOL0     H31990   6.466   3.644   4.773 -0.9951 -0.4046 -2.9267
 1000MOL0     H31991   6.608   3.552   4.711  1.7008 -0.1957  3.1404
 1000MOL0     H31992   6.498   3.571   4.980  0.1551  1.3789  0.8035
 1000MOL0     H31993   6.653   3.493   4.956 -2.7626 -1.3061 -0.7018
 1000MOL0     H31994   6.629   3.757   5.032  1.6636  0.2848 -0.0052
 1000MOL0     H31995   6.602   3.781   4.862 -0.2065 -1.2639 -1.7056
 1000MOL0     H31996   6.816   3.684   4.800  0.1090  0.2962 -0.3137
 1000MOL0     H31997   6.830   3.824   4.889 -0.6177  0.6355 -1.4500
 1000MOL0     H31998   6.980   3.524   5.163  0.9955  0.9404 -0.4761
 1000MOL0     H31999   6.427   3.571   4.550 -0.6755 -0.2442 -0.5337
 1000MOL0     H32000   6.242   3.567   4.386 -2.9796  0.5659  0.6004
 1001MOL0     O32001   1.855   8.975  10.497  0.2517  0.1826  0.3146
 1001MOL0     C32002   1.890   9.023  10.393 -0.1293 -0.6705  0.6841
 1001MOL0     O32003   1.807   9.044  10.287  0.5203 -0.0814  0.2476
 1001MOL0     C32004   1.673   9.014  10.311 -0.9226 -0.6810 -0.5212
 1001MOL0     C32005   1.589   9.116  10.343 -0.1598  0.1621 -0.0782
 1001MOL0     C32006   1.456   9.076  10.365 -0.1005  0.1596 -0.3258
 1001MOL0     C32007   1.413   8.943  10.352 -0.7509 -0.3309 -0.4206
 1001MOL0     O32008   1.293   8.906  10.394  1.0287 -0.0758 -0.4444
 1001MOL0     C32009   1.172   8.983  10.366 -0.4150  1.2289 -0.3305
 1001MOL0     C32010   1.059   8.893  10.338  0.2703 -0.2231 -0.1817
 1001MOL0     C32011   0.935   8.966  10.313  0.5819 -0.3778  0.0140
 1001MOL0     C32012   0.819   8.870  10.303  0.1139 -0.2317 -0.3653
 1001MOL0     C32013   0.693   8.952  10.272 -0.0386 -0.4611 -0.1788
 1001MOL0     C32014   0.583   8.863  10.221  0.6266 -0.1440 -0.2585
 1001MOL0     C32015   0.450   8.941  10.247  0.6567 -0.7988  0.0332
 1001MOL0     C32016   0.328   8.858  10.220 -0.2423 -0.4332  0.2016
 1001MOL0     N32017   0.212   8.941  10.224  0.1896 -0.1885 -0.2145
 1001MOL0     C32018   0.130   8.963  10.108  0.5344 -0.2772  0.4002
 1001MOL0     C32019   0.018   9.026  10.162 -0.3968  0.0396  0.1683
 1001MOL0     C32020  -0.110   9.064  10.085 -0.7643  0.0577  0.2729
 1001MOL0     C32021  -0.240   9.067  10.175 -0.3648 -0.3758 -0.0763
 1001MOL0     C32022  -0.371   9.058  10.086  0.2845 -0.0294 -0.8429
 1001MOL0     C32023  -0.503   9.058  10.168 -0.5802 -0.5116  0.1740
 1001MOL0     O32024  -0.611   9.013  10.085 -0.5204  0.0646 -0.4456
 1001MOL0     C32025  -0.741   9.031  10.124  0.1311  0.2183 -0.1651
 1001MOL0     C32026  -0.795   8.997  10.252  0.6256 -0.2049 -0.6892
 1001MOL0     C32027  -0.933   9.012  10.286 -0.5897  0.8068  0.0200
 1001MOL0     C32028  -1.025   9.047  10.189 -0.1546 -0.2519 -0.2829
 1001MOL0     C32029  -1.169   9.054  10.225  0.7374  0.9751  0.1034
 1001MOL0     O32030  -1.262   9.020  10.122  0.0825  0.4012  0.2071
 1001MOL0     C32031  -1.401   9.035  10.132  0.3579 -0.4567 -0.6123
 1001MOL0     C32032  -1.464   9.146  10.198  0.2706  0.6200  0.7947
 1001MOL0     C32033  -1.606   9.159  10.197  0.1262  0.0877  0.7075
 1001MOL0     C32034  -1.689   9.057  10.152 -0.3195  1.3224 -0.0044
 1001MOL0     O32035  -1.821   9.079  10.144 -0.0205 -0.0165 -0.1484
 1001MOL0     C32036  -1.888   9.089  10.266  0.0984 -0.5186 -0.4427
 1001MOL0     C32037  -2.036   9.089  10.243  0.3342 -0.2083 -0.1765
 1001MOL0     C32038  -2.101   9.064  10.389 -0.2115 -0.0536  0.8317
 1001MOL0     C32039  -2.091   9.186  10.479  0.3539 -0.5134  0.4799
 1001MOL0     C32040  -2.171   9.163  10.610 -0.0532  1.6114  0.1611
 1001MOL0     C32041  -2.158   9.276  10.708 -0.4758 -0.7893  0.0660
 1001MOL0     C32042  -2.255   9.391  10.675  1.0109 -0.7764 -0.2995
 1001MOL0     C32043  -2.407   9.348  10.691  0.7408 -0.7950  0.1185
 1001MOL0    Cl32044  -2.443   9.210  10.811 -0.4263  0.1820 -0.5257
 1001MOL0     C32045  -1.628   8.955  10.076  0.2391 -0.3022  0.8722
 1001MOL0     C32046  -1.488   8.944  10.064 -0.3037 -0.3147 -0.2316
 1001MOL0     O32047  -1.199   9.073  10.342 -0.2748  0.3850  0.5090
 1001MOL0     C32048  -0.973   9.078  10.060  0.2854 -0.7788  0.4663
 1001MOL0     C32049  -0.833   9.076  10.028 -0.3770  0.2486 -0.0129
 1001MOL0     N32050   0.033   9.026  10.299 -0.1099  0.5510  0.5820
 1001MOL0     N32051   0.143   8.970  10.337  0.0150  0.6233  0.2187
 1001MOL0     C32052   1.504   8.843  10.319 -0.6408 -0.4599 -0.5497
 1001MOL0     C32053   1.633   8.884  10.296 -0.1381  0.6075  0.5422
 1001MOL0     C32054   2.040   9.051  10.358  0.1425  0.0987 -0.6125
 1001MOL0     C32055   2.139   8.996  10.440  0.0303  0.1408 -0.8997
 1001MOL0     C32056   2.273   9.005  10.408 -1.0349 -0.7472 -0.3880
 1001MOL0     C32057   2.308   9.085  10.296  0.2029 -0.1255  1.2207
 1001MOL0     O32058   2.441   9.093  10.253  0.5597  0.4673 -0.9155
 1001MOL0     C32059   2.533   9.013  10.334  0.2712 -0.2030  0.5070
 1001MOL0     C32060   2.675   9.051  10.286 -0.4460  0.5054  0.2157
 1001MOL0     C32061   2.784   8.979  10.345 -0.3437  0.0175  0.5458
 1001MOL0     C32062   2.916   9.005  10.273 -1.2514  0.6409 -0.6165
 1001MOL0     C32063   2.975   9.127  10.326 -0.6615  0.7091  0.1323
 1001MOL0     C32064   3.012   9.231  10.378 -0.4251  0.2684 -0.3078
 1001MOL0     C32065   2.213   9.158  10.220  0.8439 -0.3637  0.1903
 1001MOL0     C32066   2.079   9.131  10.249 -0.3771  0.3092  0.2305
 1001MOL0     H32067   1.616   9.221  10.347 -0.3832  0.2133  0.0477
 1001MOL0     H32068   1.385   9.156  10.387  1.2698  1.9723 -2.0528
 1001MOL0     H32069   1.202   9.052  10.287  2.8052  0.9663  0.5557
 1001MOL0     H32070   1.134   9.055  10.439  0.2412  1.0024  0.2424
 1001MOL0     H32071   1.042   8.818  10.416 -1.2077 -0.8343 -1.0573
 1001MOL0     H32072   1.067   8.832  10.247  1.0639 -2.7514  1.4654
 1001MOL0     H32073   0.954   9.030  10.226  1.8904 -1.6274 -0.6709
 1001MOL0     H32074   0.907   9.032  10.395  1.4299  2.4101 -1.7770
 1001MOL0     H32075   0.854   8.810  10.219 -0.9601  0.8159 -1.6203
 1001MOL0     H32076   0.813   8.814  10.397 -0.2995 -0.7937 -0.7163
 1001MOL0     H32077   0.713   9.015  10.185 -0.9251 -1.6028 -1.2483
 1001MOL0     H32078   0.666   9.009  10.361  0.9739 -0.6823  0.2811
 1001MOL0     H32079   0.589   8.771  10.279  1.3004 -0.0777 -0.2156
 1001MOL0     H32080   0.587   8.837  10.115 -0.4382  1.4007 -0.7141
 1001MOL0     H32081   0.444   8.970  10.353 -1.3930 -0.8428 -0.0169
 1001MOL0     H32082   0.441   9.029  10.183  0.6621 -0.1484  0.8982
 1001MOL0     H32083   0.315   8.784  10.299  0.7620 -0.3441  0.4583
 1001MOL0     H32084   0.340   8.810  10.123  2.4715  0.2751  0.1124
 1001MOL0     H32085   0.144   8.952  10.001 -2.2979  2.5528 -0.4596
 1001MOL0     H32086  -0.136   8.998  10.002 -1.9914  2.6159 -1.5313
 1001MOL0     H32087  -0.092   9.162  10.040 -0.2776 -0.8610 -1.6557
 1001MOL0     H32088  -0.259   9.151  10.243 -0.5808  0.9351 -1.7046
 1001MOL0     H32089  -0.241   8.974  10.233 -2.7431 -0.4447 -0.1425
 1001MOL0     H32090  -0.372   9.145  10.019  0.2373 -1.2921 -2.5249
 1001MOL0     H32091  -0.373   8.970  10.021  2.5033  1.5548 -3.2951
 1001MOL0     H32092  -0.524   9.158  10.205  0.9273 -0.5366  1.2023
 1001MOL0     H32093  -0.490   9.000  10.260 -0.1262  1.4871  1.4346
 1001MOL0     H32094  -0.736   8.964  10.337 -1.5688 -1.3166  0.4828
 1001MOL0     H32095  -0.963   8.976  10.384  1.2392 -2.2927 -0.4406
 1001MOL0     H32096  -1.399   9.213  10.251  1.7604 -0.1727  0.0383
 1001MOL0     H32097  -1.654   9.244  10.244 -3.7386 -0.8826 -1.1461
 1001MOL0     H32098  -1.859   9.184  10.313 -3.1548  0.3864 -0.0069
 1001MOL0     H32099  -1.867   9.008  10.336 -0.6066  0.6406  1.1859
 1001MOL0     H32100  -2.054   9.006  10.174 -0.0313  0.2314 -0.6283
 1001MOL0     H32101  -2.064   9.181  10.191  0.4854 -0.1798 -0.2066
 1001MOL0     H32102  -2.079   8.967  10.434  3.4254  0.4457  0.4456
 1001MOL0     H32103  -2.208   9.050  10.372  0.0405  1.2454 -2.7492
 1001MOL0     H32104  -1.987   9.204  10.508  0.7446 -1.3272 -0.3206
 1001MOL0     H32105  -2.137   9.266  10.421 -0.5238 -0.6028  1.0357
 1001MOL0     H32106  -2.127   9.071  10.649  2.7093  2.6963 -0.1576
 1001MOL0     H32107  -2.274   9.134  10.589  0.9485 -0.5550 -2.3007
 1001MOL0     H32108  -2.056   9.308  10.730 -1.5287  0.8719  3.0964
 1001MOL0     H32109  -2.190   9.226  10.800  0.2255  0.6503  1.1271
 1001MOL0     H32110  -2.229   9.469  10.748 -0.3080 -2.3934  2.0106
 1001MOL0     H32111  -2.248   9.425  10.571 -1.5447 -2.1576 -1.0071
 1001MOL0     H32112  -2.444   9.325  10.591 -2.1588  2.3871  0.2952
 1001MOL0     H32113  -2.460   9.440  10.716  2.3837  0.9029 -2.2064
 1001MOL0     H32114  -1.699   8.887  10.030  0.9566 -2.6148  2.9538
 1001MOL0     H32115  -1.441   8.867  10.004  0.8895 -1.0648  1.5848
 1001MOL0     H32116  -1.043   9.121   9.989  1.6216  1.9513  0.6691
 1001MOL0     H32117  -0.790   9.113   9.935 -0.1059  0.8681  0.3503
 1001MOL0     H32118   1.490   8.736  10.313  0.5783 -0.7248  0.6784
 1001MOL0     H32119   1.710   8.811  10.270 -1.7247 -0.0509 -2.8684
 1001MOL0     H32120   2.108   8.939  10.528 -3.1729 -0.0364 -2.0058
 1001MOL0     H32121   2.341   8.933  10.453 -2.1200 -1.7080 -0.2339
 1001MOL0     H32122   2.519   8.904  10.329 -0.2042 -0.1498  0.6014
 1001MOL0     H32123   2.530   9.040  10.440 -3.9635 -3.5744  1.5713
 1001MOL0     H32124   2.670   9.044  10.177 -0.8183 -0.4790  0.2877
 1001MOL0     H32125   2.674   9.158  10.308 -1.4179  0.7777 -1.0245
 1001MOL0     H32126   2.769   8.875  10.315  1.7017  0.2903 -1.7540
 1001MOL0     H32127   2.785   8.974  10.454 -1.4365 -0.0907  0.5625
 1001MOL0     H32128   2.981   8.923  10.305 -0.0065  1.9006  0.1575
 1001MOL0     H32129   2.915   9.011  10.164 -1.4586 -0.0276 -0.6579
 1001MOL0     H32130   3.039   9.314  10.440 -1.6932 -0.7333  1.7010
 1001MOL0     H32131   2.258   9.213  10.138  0.4868  0.9717  0.8516
 1001MOL0     H32132   1.998   9.178  10.195 -0.7846 -0.1782  0.4081
 1002MOL0     O32133   7.164   7.857   2.541  0.3102  0.0938  0.0937
 1002MOL0     C32134   7.126   7.809   2.433 -0.2060 -0.5752  0.9475
 1002MOL0     O32135   6.994   7.779   2.395  0.7703 -0.7826 -0.2046
 1002MOL0     C32136   6.898   7.751   2.495  0.2837  0.2898  0.0264
 1002MOL0     C32137   6.926   7.670   2.603 -0.0909  1.2096  0.1958
 1002MOL0     C32138   6.821   7.623   2.681 -0.7016 -0.0898  0.2754
 1002MOL0     C32139   6.689   7.646   2.648  0.0656 -0.2876  0.3777
 1002MOL0     O32140   6.581   7.592   2.713  0.3800 -0.1162  0.3638
 1002MOL0     C32141   6.601   7.469   2.781 -0.9493  0.3864 -0.2641
 1002MOL0     C32142   6.468   7.416   2.814  0.5066 -0.2285 -0.3507
 1002MOL0     C32143   6.401   7.361   2.696 -0.2911  0.3340  0.0558
 1002MOL0     C32144   6.275   7.289   2.727  0.2972 -0.0190  0.6111
 1002MOL0     C32145   6.147   7.375   2.758  0.4215  0.2290 -0.3296
 1002MOL0     C32146   6.127   7.382   2.905 -0.3642 -0.1651  0.5994
 1002MOL0     C32147   5.987   7.439   2.925  0.6375  0.8010  0.2944
 1002MOL0     C32148   5.942   7.431   3.066 -0.5446 -0.0022  0.7113
 1002MOL0     N32149   5.839   7.523   3.095  0.1518 -0.0620  0.3366
 1002MOL0     C32150   5.862   7.654   3.123 -1.2151  0.1508 -0.6055
 1002MOL0     C32151   5.741   7.715   3.115  0.2313  0.9332 -1.2762
 1002MOL0     C32152   5.707   7.855   3.145  0.6017  0.0273 -0.6892
 1002MOL0     C32153   5.591   7.919   3.063  0.4740 -0.3865  0.0019
 1002MOL0     C32154   5.605   7.898   2.913  0.2194  0.0487 -0.3422
 1002MOL0     C32155   5.479   7.941   2.839 -0.9973  0.1641  0.1658
 1002MOL0     O32156   5.469   8.088   2.850  0.1167 -0.0401  0.3867
 1002MOL0     C32157   5.350   8.144   2.806 -1.0263  0.3696 -1.6199
 1002MOL0     C32158   5.257   8.078   2.727  0.1405  0.3397  0.3076
 1002MOL0     C32159   5.140   8.140   2.689  0.0062 -0.6784  0.6182
 1002MOL0     C32160   5.119   8.277   2.719 -0.1056 -0.9165 -0.3737
 1002MOL0     C32161   4.990   8.344   2.678  0.3925  0.9061 -0.9185
 1002MOL0     O32162   4.914   8.274   2.592 -0.8160  0.4616 -0.9798
 1002MOL0     C32163   4.792   8.312   2.545 -0.3013  0.1884 -0.6861
 1002MOL0     C32164   4.726   8.208   2.483  0.5294 -0.6787 -0.5609
 1002MOL0     C32165   4.590   8.227   2.445  0.4528 -0.1500  0.0951
 1002MOL0     C32166   4.522   8.351   2.469  0.3159 -0.2011  0.2930
 1002MOL0     O32167   4.385   8.349   2.457 -0.3202  1.2761 -0.1421
 1002MOL0     C32168   4.318   8.470   2.449  0.1481 -0.1322 -0.1179
 1002MOL0     C32169   4.173   8.448   2.404 -0.6169  0.9945 -0.1014
 1002MOL0     C32170   4.058   8.482   2.502  0.4618  0.4742  0.0383
 1002MOL0     C32171   3.921   8.483   2.431 -0.0729 -0.8513  0.2091
 1002MOL0     C32172   3.796   8.538   2.512 -0.1256 -0.0007  0.2626
 1002MOL0     C32173   3.670   8.484   2.445 -0.3305  0.0339  0.4872
 1002MOL0     C32174   3.545   8.501   2.523 -0.6335  0.6973 -0.2892
 1002MOL0     C32175   3.421   8.459   2.451 -0.6655 -0.2042  0.2376
 1002MOL0    Cl32176   3.268   8.491   2.551 -0.4030  0.1011  0.5106
 1002MOL0     C32177   4.597   8.453   2.531  0.5234  0.2797 -0.2233
 1002MOL0     C32178   4.732   8.438   2.561 -0.6516  0.1727  0.4076
 1002MOL0     O32179   4.964   8.451   2.731 -0.3348 -0.0529  0.4135
 1002MOL0     C32180   5.222   8.347   2.783 -0.1462  0.1278  0.0039
 1002MOL0     C32181   5.341   8.278   2.833  0.0083 -0.5098 -0.3825
 1002MOL0     N32182   5.652   7.615   3.094  0.3240  0.2562 -0.1576
 1002MOL0     N32183   5.711   7.499   3.079  0.3707  0.1887 -0.4859
 1002MOL0     C32184   6.663   7.719   2.530 -0.3724  0.0969  0.5934
 1002MOL0     C32185   6.771   7.783   2.458  0.9983  0.2626 -0.6903
 1002MOL0     C32186   7.234   7.775   2.331  0.9507 -0.7000 -0.5749
 1002MOL0     C32187   7.210   7.775   2.192 -0.3150 -0.1191 -0.0636
 1002MOL0     C32188   7.314   7.744   2.108 -0.2071  0.2808  0.9668
 1002MOL0     C32189   7.441   7.699   2.154  0.2197 -0.4688  0.1100
 1002MOL0     O32190   7.537   7.661   2.065  0.2278  0.1517 -0.5044
 1002MOL0     C32191   7.558   7.747   1.948 -0.4915  0.1799 -0.1720
 1002MOL0     C32192   7.705   7.760   1.931 -0.6743  0.4648  1.0243
 1002MOL0     C32193   7.761   7.879   2.010 -0.0351  0.3957 -0.0747
 1002MOL0     C32194   7.911   7.885   1.989 -0.8733 -0.5157  0.1224
 1002MOL0     C32195   7.984   7.984   2.068  0.1283  0.4953 -0.0677
 1002MOL0     C32196   8.040   8.066   2.138  0.0788  0.6816  0.4955
 1002MOL0     C32197   7.471   7.716   2.292 -0.0551 -0.6854  0.5768
 1002MOL0     C32198   7.365   7.752   2.383  0.5323 -0.1412  0.8649
 1002MOL0     H32199   7.028   7.641   2.624 -0.8103 -1.0898  0.8125
 1002MOL0     H32200   6.853   7.564   2.767  2.1258  1.0978  0.1520
 1002MOL0     H32201   6.671   7.485   2.864 -0.3771 -1.1422 -0.4135
 1002MOL0     H32202   6.643   7.389   2.720 -1.4689 -0.4372  0.4372
 1002MOL0     H32203   6.414   7.496   2.866  1.4802 -0.1291  0.5488
 1002MOL0     H32204   6.483   7.332   2.884  0.7162 -1.8124 -2.2035
 1002MOL0     H32205   6.458   7.288   2.638  0.0675  0.4902  0.2088
 1002MOL0     H32206   6.376   7.440   2.624  0.3289  0.0752 -0.4545
 1002MOL0     H32207   6.257   7.226   2.639 -0.5143 -1.1034  1.5239
 1002MOL0     H32208   6.304   7.221   2.808  1.4365 -2.2152 -1.4948
 1002MOL0     H32209   6.065   7.319   2.713 -3.3193  1.7723  3.8574
 1002MOL0     H32210   6.152   7.479   2.723 -2.0955  0.2629 -0.7551
 1002MOL0     H32211   6.197   7.457   2.942 -0.0757 -1.3582  2.5921
 1002MOL0     H32212   6.152   7.288   2.954  4.2825  1.0643  1.0615
 1002MOL0     H32213   5.986   7.541   2.884  0.2891  0.8321  0.3727
 1002MOL0     H32214   5.918   7.380   2.863 -0.7207  1.3622  1.2076
 1002MOL0     H32215   6.028   7.438   3.133 -0.3034  0.9226  0.3113
 1002MOL0     H32216   5.906   7.329   3.085 -0.6132 -0.9148 -3.3705
 1002MOL0     H32217   5.957   7.702   3.145 -1.1881  0.1030 -0.6189
 1002MOL0     H32218   5.800   7.909   3.127  0.8213  0.2907  1.0896
 1002MOL0     H32219   5.676   7.857   3.250 -2.7794 -2.0461 -1.4882
 1002MOL0     H32220   5.581   8.028   3.075  1.1417 -0.1231 -1.5930
 1002MOL0     H32221   5.498   7.875   3.099 -0.1640 -0.5902 -1.7908
 1002MOL0     H32222   5.693   7.955   2.881  1.6492 -0.9490  1.6567
 1002MOL0     H32223   5.615   7.795   2.878 -1.6308  0.3014 -1.8247
 1002MOL0     H32224   5.389   7.890   2.876 -1.6626  1.5428  0.5050
 1002MOL0     H32225   5.497   7.908   2.737 -0.0383  1.0117  0.0416
 1002MOL0     H32226   5.269   7.974   2.698  1.8429  0.5372  0.2082
 1002MOL0     H32227   5.063   8.085   2.637 -0.1627  1.2194 -1.3097
 1002MOL0     H32228   4.760   8.105   2.475  1.0115 -0.7638  1.7072
 1002MOL0     H32229   4.531   8.145   2.408 -1.5400  1.4048 -0.3598
 1002MOL0     H32230   4.361   8.535   2.373 -2.4875 -3.0569 -4.5253
 1002MOL0     H32231   4.311   8.512   2.550  1.3282 -0.3016  0.0490
 1002MOL0     H32232   4.156   8.341   2.389  0.5775  0.9939 -1.7450
 1002MOL0     H32233   4.169   8.484   2.301 -1.2792  0.1578 -0.3750
 1002MOL0     H32234   4.083   8.567   2.566 -1.2891 -1.6760  3.8890
 1002MOL0     H32235   4.061   8.403   2.578 -0.5958 -0.8201 -1.2012
 1002MOL0     H32236   3.917   8.535   2.335  0.6488 -0.3112  0.4598
 1002MOL0     H32237   3.902   8.377   2.414  1.5595 -0.8920 -1.8016
 1002MOL0     H32238   3.780   8.646   2.506  2.7161  0.4459 -0.5472
 1002MOL0     H32239   3.798   8.504   2.616  1.1578  0.0061  0.2493
 1002MOL0     H32240   3.692   8.378   2.430 -2.3735 -0.4419  0.5613
 1002MOL0     H32241   3.671   8.530   2.346 -1.7845 -2.0216 -0.5583
 1002MOL0     H32242   3.558   8.449   2.618  0.5624 -0.0849 -0.8624
 1002MOL0     H32243   3.540   8.607   2.549 -0.9194  0.4847  0.5645
 1002MOL0     H32244   3.433   8.353   2.423  0.8226  0.0274 -0.1033
 1002MOL0     H32245   3.421   8.517   2.358  2.7147 -1.0504 -0.4443
 1002MOL0     H32246   4.541   8.540   2.560 -0.0729  0.0945 -0.7969
 1002MOL0     H32247   4.776   8.525   2.608 -0.1811  0.3214 -0.2967
 1002MOL0     H32248   5.216   8.446   2.828  0.8856  0.5626 -0.7816
 1002MOL0     H32249   5.415   8.327   2.894 -1.4371  1.0415  0.2112
 1002MOL0     H32250   6.562   7.741   2.498  0.2082 -0.6356 -1.9123
 1002MOL0     H32251   6.740   7.840   2.372  0.9008  0.7062 -0.3633
 1002MOL0     H32252   7.108   7.793   2.160 -0.0021 -0.6384 -1.4070
 1002MOL0     H32253   7.295   7.742   2.001 -1.0022  0.0668  1.1067
 1002MOL0     H32254   7.498   7.838   1.939 -1.4939 -0.4516 -0.0229
 1002MOL0     H32255   7.512   7.688   1.868 -1.3571  1.4158 -0.6196
 1002MOL0     H32256   7.755   7.666   1.956 -0.4213 -0.0884 -1.3289
 1002MOL0     H32257   7.725   7.784   1.826  0.7332  1.2503  1.4571
 1002MOL0     H32258   7.744   7.863   2.117 -1.9183 -0.3572 -0.4394
 1002MOL0     H32259   7.714   7.972   1.977 -0.0743  0.3059 -0.2695
 1002MOL0     H32260   7.965   7.794   2.015  3.9421  1.7951 -0.6545
 1002MOL0     H32261   7.930   7.897   1.882 -0.2860 -3.0818 -0.1358
 1002MOL0     H32262   8.096   8.132   2.202  1.3256 -0.4431  0.5926
 1002MOL0     H32263   7.575   7.693   2.313 -0.0111 -1.3623 -0.3138
 1002MOL0     H32264   7.382   7.753   2.490 -2.2637  1.3168  1.3851
 1003MOL0     O32265   7.106   6.481   1.493 -0.2787  0.1103 -1.2465
 1003MOL0     C32266   7.131   6.547   1.391  0.1354  0.1750 -0.0078
 1003MOL0     O32267   7.047   6.639   1.340 -0.2285 -0.0663  0.1127
 1003MOL0     C32268   6.909   6.629   1.367 -0.4624 -0.2708 -0.3359
 1003MOL0     C32269   6.850   6.735   1.431 -1.2597 -0.6229  0.3247
 1003MOL0     C32270   6.713   6.733   1.460  0.2411 -0.1656  0.5010
 1003MOL0     C32271   6.623   6.634   1.409 -0.2658  0.0775  0.3075
 1003MOL0     O32272   6.490   6.643   1.423  0.6254  0.0703 -0.1766
 1003MOL0     C32273   6.409   6.527   1.417  0.7723 -0.8414  0.7916
 1003MOL0     C32274   6.267   6.574   1.462 -0.3312 -0.6976  0.5247
 1003MOL0     C32275   6.176   6.468   1.504  0.4282  0.4938  0.1659
 1003MOL0     C32276   6.027   6.510   1.527 -0.7760  0.0433 -0.5886
 1003MOL0     C32277   5.951   6.402   1.607  0.1788  0.0568  0.5709
 1003MOL0     C32278   5.808   6.434   1.630  0.1629 -0.4199  0.2426
 1003MOL0     C32279   5.741   6.332   1.721  0.4003 -0.2921  0.2517
 1003MOL0     C32280   5.595   6.377   1.752  0.7356 -0.2432  0.2606
 1003MOL0     N32281   5.520   6.280   1.822  0.6444  0.0616  0.2149
 1003MOL0     C32282   5.501   6.152   1.783 -0.6737  0.4580 -0.3849
 1003MOL0     C32283   5.449   6.093   1.889 -0.6007  0.6316 -0.3147
 1003MOL0     C32284   5.398   5.949   1.890 -0.0214  0.5590  0.2778
 1003MOL0     C32285   5.244   5.941   1.871  0.9268  0.8552  0.6899
 1003MOL0     C32286   5.177   5.890   1.997 -0.0425  0.5306 -0.5440
 1003MOL0     C32287   5.036   5.937   2.027  0.9865  0.0564 -0.1418
 1003MOL0     O32288   4.952   5.880   1.927  0.3278 -0.4939 -0.7357
 1003MOL0     C32289   4.817   5.916   1.911 -0.3952  0.4462  0.4965
 1003MOL0     C32290   4.735   5.997   1.998 -0.5918  0.0391 -0.2620
 1003MOL0     C32291   4.595   6.025   1.974 -0.8312 -0.9889  0.7814
 1003MOL0     C32292   4.532   5.948   1.879 -0.6491 -0.3625  0.5830
 1003MOL0     C32293   4.389   5.962   1.859  0.2674 -0.1428 -0.0887
 1003MOL0     O32294   4.315   6.040   1.941  0.2022  0.1581 -0.0357
 1003MOL0     C32295   4.180   6.047   1.917  0.2178 -0.0311  0.0595
 1003MOL0     C32296   4.142   6.097   1.791 -0.1496  0.3183  1.0031
 1003MOL0     C32297   4.011   6.140   1.768 -0.4740 -0.4562  0.7184
 1003MOL0     C32298   3.909   6.123   1.859 -0.4942  1.0223  0.2009
 1003MOL0     O32299   3.782   6.175   1.843 -0.0934 -0.6368 -0.4940
 1003MOL0     C32300   3.734   6.215   1.713 -0.1445  0.2330  0.6247
 1003MOL0     C32301   3.597   6.292   1.699  0.5927 -0.1135 -0.0866
 1003MOL0     C32302   3.487   6.189   1.681  0.2579 -0.0117 -0.3866
 1003MOL0     C32303   3.352   6.256   1.720 -0.6437  0.1116 -0.0352
 1003MOL0     C32304   3.243   6.154   1.702  0.1794 -0.0617 -0.0420
 1003MOL0     C32305   3.113   6.176   1.786  0.4067 -0.0477  0.3019
 1003MOL0     C32306   3.030   6.288   1.725 -0.3853 -0.6704  1.7345
 1003MOL0     C32307   2.892   6.255   1.709  0.3925  0.5324 -0.2385
 1003MOL0    Cl32308   2.787   6.390   1.666 -0.2685  0.4246 -0.0855
 1003MOL0     C32309   3.949   6.050   1.977  0.5312 -0.2850  0.8878
 1003MOL0     C32310   4.083   6.024   2.010 -0.0160 -0.2067 -0.4647
 1003MOL0     O32311   4.343   5.892   1.769 -0.6756  0.5298  0.2780
 1003MOL0     C32312   4.614   5.865   1.794 -0.3678 -0.7378 -0.7804
 1003MOL0     C32313   4.754   5.856   1.809  1.2673  0.5817  0.4341
 1003MOL0     N32314   5.459   6.171   2.002 -0.2933  0.8202 -0.5186
 1003MOL0     N32315   5.504   6.282   1.954 -0.1086 -0.3295 -0.0069
 1003MOL0     C32316   6.680   6.539   1.321 -0.7921  0.9513 -0.1277
 1003MOL0     C32317   6.822   6.532   1.312  0.3570 -0.1805  0.7554
 1003MOL0     C32318   7.261   6.524   1.328 -0.4231 -0.3557 -0.7199
 1003MOL0     C32319   7.294   6.603   1.212  0.3041 -0.1125 -0.5836
 1003MOL0     C32320   7.409   6.571   1.151  0.1669  0.2833  0.2756
 1003MOL0     C32321   7.502   6.473   1.198 -0.6934  0.3945  0.7365
 1003MOL0     O32322   7.623   6.458   1.130  0.4784 -0.3485 -0.5337
 1003MOL0     C32323   7.730   6.451   1.219  0.4712  0.2431  0.5800
 1003MOL0     C32324   7.860   6.406   1.143  0.9179 -0.9308  0.1781
 1003MOL0     C32325   7.904   6.493   1.019 -0.0153 -0.1962 -0.5254
 1003MOL0     C32326   8.031   6.442   0.953  0.5634  0.6222 -0.0648
 1003MOL0     C32327   8.052   6.534   0.836  0.5859  0.1971  0.7549
 1003MOL0     C32328   8.066   6.615   0.745  0.6337 -0.0238 -0.3310
 1003MOL0     C32329   7.468   6.397   1.307 -0.2816 -1.5309 -0.4971
 1003MOL0     C32330   7.357   6.426   1.381  0.4857  0.4794 -0.8854
 1003MOL0     H32331   6.915   6.818   1.460 -0.4723 -0.4816 -1.6793
 1003MOL0     H32332   6.674   6.819   1.513 -1.1567  0.8902 -2.0609
 1003MOL0     H32333   6.443   6.456   1.492  0.7567 -0.6097  1.0177
 1003MOL0     H32334   6.401   6.492   1.313 -0.3843  2.8245 -0.5432
 1003MOL0     H32335   6.229   6.630   1.377  2.8909  0.5485 -0.2311
 1003MOL0     H32336   6.287   6.647   1.541  0.8312 -2.0327  1.5364
 1003MOL0     H32337   6.217   6.421   1.594  1.8570  0.4176 -0.4849
 1003MOL0     H32338   6.179   6.394   1.423  0.3021  0.1080  0.5078
 1003MOL0     H32339   6.036   6.598   1.591  0.5611  0.0901 -0.8065
 1003MOL0     H32340   5.990   6.541   1.429 -0.2238  2.4336 -0.0954
 1003MOL0     H32341   5.993   6.395   1.708 -0.4764  2.3570  1.0513
 1003MOL0     H32342   5.952   6.302   1.563 -3.2291 -1.1988  2.8829
 1003MOL0     H32343   5.758   6.431   1.533  1.2710 -2.5875 -0.3306
 1003MOL0     H32344   5.802   6.528   1.684 -2.0294  0.5630 -1.5407
 1003MOL0     H32345   5.737   6.232   1.677  0.2994  0.1384 -0.7485
 1003MOL0     H32346   5.799   6.321   1.813  0.7811 -5.5799 -0.3255
 1003MOL0     H32347   5.548   6.402   1.657  2.0405 -2.4815 -1.0601
 1003MOL0     H32348   5.601   6.462   1.821 -1.4341  1.7053 -1.7838
 1003MOL0     H32349   5.494   6.114   1.682  1.8935 -1.2146 -0.0257
 1003MOL0     H32350   5.422   5.887   1.976 -0.9328 -1.5344 -0.8925
 1003MOL0     H32351   5.443   5.901   1.803  0.2515  1.8221 -0.3046
 1003MOL0     H32352   5.218   5.874   1.789  2.1822  1.4781 -0.2435
 1003MOL0     H32353   5.203   6.040   1.852 -1.1789 -0.0606  0.1802
 1003MOL0     H32354   5.182   5.781   1.989  0.4873  0.6990 -3.9299
 1003MOL0     H32355   5.241   5.914   2.083  0.3623 -1.7907 -0.1379
 1003MOL0     H32356   5.027   6.044   2.011 -0.6407 -0.2180 -1.3790
 1003MOL0     H32357   5.025   5.905   2.131 -0.9367 -1.7066 -0.8159
 1003MOL0     H32358   4.782   6.055   2.077  0.7804 -0.4862 -0.6583
 1003MOL0     H32359   4.552   6.103   2.035  3.0210  1.0889  1.1958
 1003MOL0     H32360   4.220   6.136   1.727  1.0972 -3.1965  0.1905
 1003MOL0     H32361   3.984   6.192   1.676  0.2516 -1.0018  0.1860
 1003MOL0     H32362   3.738   6.123   1.655 -1.8159 -1.4562  3.0234
 1003MOL0     H32363   3.806   6.284   1.667 -0.2489  0.1602  0.3508
 1003MOL0     H32364   3.599   6.364   1.617  1.0661 -0.0394 -0.0127
 1003MOL0     H32365   3.590   6.346   1.793 -0.1392  0.7089 -0.6088
 1003MOL0     H32366   3.507   6.097   1.737  1.0489 -0.0207 -0.6734
 1003MOL0     H32367   3.476   6.155   1.578  0.1963 -1.3376  0.0400
 1003MOL0     H32368   3.368   6.284   1.825  2.5973  2.8574 -1.0788
 1003MOL0     H32369   3.322   6.335   1.650  3.2466 -1.2491 -3.6501
 1003MOL0     H32370   3.280   6.059   1.742  0.1392  0.4704  1.3116
 1003MOL0     H32371   3.222   6.145   1.595  2.5748 -3.0770 -0.4040
 1003MOL0     H32372   3.121   6.194   1.894 -0.7547  0.8749  0.2596
 1003MOL0     H32373   3.063   6.079   1.775  0.0343  0.3481 -1.9972
 1003MOL0     H32374   3.041   6.378   1.786  0.5953 -0.0241  0.6650
 1003MOL0     H32375   3.066   6.316   1.625 -1.2732 -1.6265  1.1350
 1003MOL0     H32376   2.853   6.229   1.808 -2.0233  0.8928 -1.0331
 1003MOL0     H32377   2.875   6.168   1.645  1.7979  0.2875 -0.3154
 1003MOL0     H32378   3.871   6.053   2.052  0.1435  0.5915  0.4568
 1003MOL0     H32379   4.114   5.995   2.110  0.3374 -2.3465 -1.1371
 1003MOL0     H32380   4.572   5.802   1.717 -3.0890 -1.9618  1.5141
 1003MOL0     H32381   4.808   5.786   1.747 -0.0716 -0.8562  0.8481
 1003MOL0     H32382   6.622   6.471   1.259  1.1262 -0.0838 -0.8811
 1003MOL0     H32383   6.867   6.459   1.246  1.2481  2.3265 -1.5996
 1003MOL0     H32384   7.222   6.678   1.182  0.4640  0.0414 -0.5823
 1003MOL0     H32385   7.430   6.618   1.055  1.5765 -0.9233 -0.0491
 1003MOL0     H32386   7.712   6.380   1.300  0.8546  2.2503  2.5140
 1003MOL0     H32387   7.747   6.545   1.272 -5.2379  0.4446  2.8173
 1003MOL0     H32388   7.940   6.412   1.217  2.5256  0.6971 -1.5888
 1003MOL0     H32389   7.850   6.302   1.110 -0.0234 -0.8261  0.1054
 1003MOL0     H32390   7.928   6.594   1.054 -1.0106  0.4910 -1.7783
 1003MOL0     H32391   7.828   6.489   0.941  2.2462 -2.7631 -2.8090
 1003MOL0     H32392   8.122   6.444   1.013  0.3134 -0.7299  0.4011
 1003MOL0     H32393   8.027   6.335   0.930  0.9596  0.5706  0.1117
 1003MOL0     H32394   8.090   6.678   0.662 -1.4089  4.0094  1.8452
 1003MOL0     H32395   7.529   6.312   1.336  0.1268 -1.7557 -1.9745
 1003MOL0     H32396   7.324   6.356   1.457 -0.8156 -1.0722 -2.7952
 1004MOL0     O32397   2.776  10.849   0.217  0.1014  0.6625 -0.8049
 1004MOL0     C32398   2.784  10.815   0.336  0.0142 -0.3563 -0.9234
 1004MOL0     O32399   2.685  10.828   0.426  0.2129  0.4966 -0.3879
 1004MOL0     C32400   2.562  10.868   0.380  0.3012 -1.0636 -0.4259
 1004MOL0     C32401   2.451  10.798   0.419  0.3884  0.1879  0.8790
 1004MOL0     C32402   2.319  10.849   0.398 -0.4213  0.0023 -0.5869
 1004MOL0     C32403   2.304  10.975   0.355  0.3896 -0.2147 -0.6914
 1004MOL0     O32404   2.188  11.049   0.349  0.6970 -0.0166  0.3410
 1004MOL0     C32405   2.065  10.982   0.341  0.0819 -0.4697  0.0592
 1004MOL0     C32406   1.964  11.070   0.276 -0.4148  0.1160 -0.4684
 1004MOL0     C32407   1.815  11.038   0.289  0.3079 -0.6295  0.0741
 1004MOL0     C32408   1.713  11.123   0.214 -0.1822 -0.0429  1.0485
 1004MOL0     C32409   1.572  11.072   0.227  0.8059  0.6270  0.1699
 1004MOL0     C32410   1.454  11.165   0.186  0.0878  1.1236  0.6900
 1004MOL0     C32411   1.319  11.115   0.227  0.1701  0.5574  0.6642
 1004MOL0     C32412   1.204  11.198   0.157 -1.1362 -0.7907  0.4468
 1004MOL0     N32413   1.197  11.329   0.227  0.2233 -0.8872  0.6962
 1004MOL0     C32414   1.248  11.449   0.177  0.5943  0.2589 -0.1943
 1004MOL0     C32415   1.188  11.544   0.255  0.3275  0.6916  0.1311
 1004MOL0     C32416   1.196  11.691   0.239  0.5928  0.2214  0.3746
 1004MOL0     C32417   1.108  11.743   0.130 -0.0699  0.3426 -0.9253
 1004MOL0     C32418   1.093  11.904   0.156 -0.1678  0.0823 -0.8736
 1004MOL0     C32419   1.017  11.975   0.032  0.4009  0.3581 -0.8659
 1004MOL0     O32420   0.883  11.921   0.013 -0.0826  0.2813 -0.3440
 1004MOL0     C32421   0.780  11.974   0.083  0.2775 -0.1439  0.9851
 1004MOL0     C32422   0.768  12.067   0.184 -0.3911 -0.3014 -0.1403
 1004MOL0     C32423   0.647  12.121   0.221  0.4733 -0.2754  0.0682
 1004MOL0     C32424   0.526  12.092   0.153 -0.0800  0.8337 -0.0715
 1004MOL0     C32425   0.409  12.148   0.201  0.5212  0.2073 -0.5367
 1004MOL0     O32426   0.289  12.084   0.156  0.4440  0.8396  0.0954
 1004MOL0     C32427   0.168  12.140   0.189  0.8276 -0.8912  0.4118
 1004MOL0     C32428   0.087  12.186   0.085 -0.4978 -0.0499  0.9274
 1004MOL0     C32429  -0.040  12.245   0.099  0.9739  0.1249 -0.7156
 1004MOL0     C32430  -0.091  12.258   0.229  0.3118 -0.6368  0.5162
 1004MOL0     O32431  -0.211  12.302   0.266  0.1520 -0.4217 -0.6008
 1004MOL0     C32432  -0.263  12.396   0.182  1.0576 -0.4126 -0.2549
 1004MOL0     C32433  -0.388  12.474   0.242  0.4067  0.5085 -0.5867
 1004MOL0     C32434  -0.492  12.366   0.295  0.6625 -0.1317  0.0878
 1004MOL0     C32435  -0.645  12.426   0.292  0.0384 -0.0805 -0.0016
 1004MOL0     C32436  -0.726  12.372   0.411 -0.7131  0.0643  0.4353
 1004MOL0     C32437  -0.850  12.449   0.423  0.0051 -0.0586 -0.4232
 1004MOL0     C32438  -0.917  12.437   0.556 -0.7461  0.3478  0.3051
 1004MOL0     C32439  -1.051  12.512   0.580  0.0308  0.2190 -0.0642
 1004MOL0    Cl32440  -1.174  12.435   0.465  0.2681 -0.3408 -0.3607
 1004MOL0     C32441  -0.017  12.196   0.336  0.2889  0.6658 -0.4580
 1004MOL0     C32442   0.108  12.135   0.312 -0.2791  0.3714  0.0753
 1004MOL0     O32443   0.405  12.236   0.283  0.8524 -0.0733  0.2047
 1004MOL0     C32444   0.533  11.993   0.050  0.3904 -1.0395  0.4989
 1004MOL0     C32445   0.654  11.934   0.028  0.3415 -0.3372 -0.4656
 1004MOL0     N32446   1.116  11.481   0.354 -0.1432 -0.8248  0.5182
 1004MOL0     N32447   1.118  11.356   0.335 -0.3808  0.4620  0.6701
 1004MOL0     C32448   2.417  11.047   0.318 -0.6042 -0.2498  0.3584
 1004MOL0     C32449   2.544  10.995   0.329 -0.1504  0.1608 -0.1951
 1004MOL0     C32450   2.919  10.761   0.374  0.5580  0.0831 -0.5827
 1004MOL0     C32451   2.933  10.702   0.497 -0.0639 -0.2054 -0.0374
 1004MOL0     C32452   3.049  10.651   0.544 -0.1865  0.0345 -0.3424
 1004MOL0     C32453   3.166  10.662   0.470 -0.5742  0.0093 -0.6625
 1004MOL0     O32454   3.279  10.607   0.528 -0.2833  0.1473  0.7463
 1004MOL0     C32455   3.396  10.614   0.443 -0.1035  0.6204  0.3756
 1004MOL0     C32456   3.513  10.520   0.482  0.7818  0.0951  0.2210
 1004MOL0     C32457   3.652  10.574   0.452  0.0039 -0.8673  0.2645
 1004MOL0     C32458   3.761  10.473   0.489 -0.3562  0.3369 -0.0730
 1004MOL0     C32459   3.899  10.502   0.439  0.4211 -0.0102 -0.1288
 1004MOL0     C32460   4.013  10.535   0.409  0.1958 -0.7829  0.3254
 1004MOL0     C32461   3.157  10.720   0.340  0.2482  0.5478  0.5490
 1004MOL0     C32462   3.032  10.768   0.290  0.4664  0.2387 -0.2931
 1004MOL0     H32463   2.467  10.700   0.463  2.5331  0.4220  0.7285
 1004MOL0     H32464   2.238  10.794   0.445 -0.5914  0.4380 -0.3670
 1004MOL0     H32465   2.035  10.944   0.439 -0.2067  2.4233  1.1837
 1004MOL0     H32466   2.072  10.896   0.273  1.5601  0.8449 -1.5520
 1004MOL0     H32467   1.983  11.074   0.168 -2.0127 -1.9325 -0.9095
 1004MOL0     H32468   1.976  11.171   0.316 -1.5245 -0.3137  1.0576
 1004MOL0     H32469   1.781  11.033   0.393  0.4478  0.1217  0.1660
 1004MOL0     H32470   1.795  10.936   0.257  0.7576 -0.9607  0.8128
 1004MOL0     H32471   1.728  11.227   0.244  0.3400 -0.8033  3.6937
 1004MOL0     H32472   1.742  11.121   0.108 -0.6633  3.8899  0.6753
 1004MOL0     H32473   1.555  11.052   0.333 -3.2777  3.7893  0.3672
 1004MOL0     H32474   1.553  10.985   0.163 -3.2314  0.3296  1.4518
 1004MOL0     H32475   1.464  11.173   0.078  0.3550 -2.2176  0.3603
 1004MOL0     H32476   1.480  11.259   0.235 -0.8552  1.1402  1.1969
 1004MOL0     H32477   1.294  11.012   0.200 -1.2269  1.2431 -0.8821
 1004MOL0     H32478   1.304  11.131   0.334  0.5597  1.2776  0.6226
 1004MOL0     H32479   1.105  11.152   0.156 -1.2798 -0.9238  4.4971
 1004MOL0     H32480   1.231  11.221   0.053 -0.0781  3.1987  1.4094
 1004MOL0     H32481   1.300  11.467   0.084 -1.4437 -1.5188 -1.7640
 1004MOL0     H32482   1.300  11.712   0.210  1.4138  0.6369  3.3121
 1004MOL0     H32483   1.167  11.742   0.331 -1.4281  1.0633 -0.6604
 1004MOL0     H32484   1.011  11.694   0.139  0.9453 -1.6937 -0.1865
 1004MOL0     H32485   1.157  11.729   0.034 -1.2073 -0.3694 -1.4176
 1004MOL0     H32486   1.051  11.922   0.255 -1.2573 -0.0359 -1.2947
 1004MOL0     H32487   1.192  11.950   0.150  0.0428 -0.2206  0.1866
 1004MOL0     H32488   1.082  11.972  -0.056  1.9789  0.8610  0.2649
 1004MOL0     H32489   1.018  12.081   0.056  0.8310  0.4951 -1.4674
 1004MOL0     H32490   0.859  12.094   0.235 -1.1612 -0.1039  1.1711
 1004MOL0     H32491   0.644  12.196   0.299 -1.1027  1.0563 -1.1991
 1004MOL0     H32492   0.121  12.180  -0.018 -3.1536  2.3917 -0.2302
 1004MOL0     H32493  -0.090  12.281   0.009  0.0360 -1.4150 -0.8567
 1004MOL0     H32494  -0.291  12.364   0.081  1.1315  0.9044 -0.7186
 1004MOL0     H32495  -0.188  12.474   0.168 -0.3810  0.6175 -2.9085
 1004MOL0     H32496  -0.426  12.539   0.163 -1.2122  2.2011  1.4655
 1004MOL0     H32497  -0.354  12.537   0.325 -0.1237 -0.1209  0.1164
 1004MOL0     H32498  -0.466  12.335   0.397 -1.3097  0.7024  0.8994
 1004MOL0     H32499  -0.497  12.274   0.236 -0.0138 -1.3717  1.9793
 1004MOL0     H32500  -0.640  12.535   0.298 -2.0483 -0.0346  3.7630
 1004MOL0     H32501  -0.696  12.395   0.200  0.1501  2.0131 -0.8254
 1004MOL0     H32502  -0.675  12.376   0.508 -0.0192 -1.9293  0.1876
 1004MOL0     H32503  -0.756  12.270   0.389  0.3987  0.3130 -2.7706
 1004MOL0     H32504  -0.916  12.421   0.340 -2.3970 -0.3375  1.4463
 1004MOL0     H32505  -0.822  12.555   0.421  1.1740 -0.3756 -1.7872
 1004MOL0     H32506  -0.936  12.331   0.540  1.4688  0.2642 -2.4879
 1004MOL0     H32507  -0.864  12.461   0.649 -1.5615  2.6747  0.2397
 1004MOL0     H32508  -1.057  12.620   0.565 -7.0403  0.1071 -1.1255
 1004MOL0     H32509  -1.079  12.498   0.685 -0.8673 -1.5940 -0.5086
 1004MOL0     H32510  -0.057  12.185   0.436 -0.0218  1.3796 -0.5028
 1004MOL0     H32511   0.153  12.086   0.398 -0.3218  3.9628  2.3422
 1004MOL0     H32512   0.437  11.963   0.008 -2.9910  0.7406  5.8984
 1004MOL0     H32513   0.653  11.862  -0.054  1.1997 -0.2827 -0.5372
 1004MOL0     H32514   2.402  11.148   0.279 -1.9188 -0.6883 -0.3286
 1004MOL0     H32515   2.630  11.056   0.306 -0.5528  1.6142  1.8711
 1004MOL0     H32516   2.846  10.692   0.562  0.7537  0.3630  1.1742
 1004MOL0     H32517   3.049  10.613   0.646 -0.6888  0.4602 -0.1781
 1004MOL0     H32518   3.430  10.718   0.440 -3.5661  1.8993  1.3690
 1004MOL0     H32519   3.368  10.573   0.346  4.2973 -1.0943 -0.4232
 1004MOL0     H32520   3.501  10.499   0.588 -4.9958 -0.0405 -0.1703
 1004MOL0     H32521   3.498  10.428   0.424  2.3709 -0.1820  0.2022
 1004MOL0     H32522   3.654  10.665   0.512 -0.9005 -1.7273  1.6498
 1004MOL0     H32523   3.665  10.608   0.349  3.1664  2.0283  1.4139
 1004MOL0     H32524   3.765  10.458   0.597  2.2231 -0.2653 -0.1902
 1004MOL0     H32525   3.733  10.377   0.445  2.3343  0.0710 -1.4105
 1004MOL0     H32526   4.111  10.560   0.375 -1.2071  2.0995 -1.9802
 1004MOL0     H32527   3.246  10.719   0.278  1.1105 -1.2347  1.7350
 1004MOL0     H32528   3.016  10.801   0.188  0.7783  1.1805 -0.0480
 1005MOL0     O32529   4.886   2.422  10.048  0.4896 -0.5345 -0.9056
 1005MOL0     C32530   4.819   2.339   9.980 -0.5090  0.3349 -0.9755
 1005MOL0     O32531   4.873   2.219   9.934 -0.1941 -0.4875  0.2016
 1005MOL0     C32532   5.010   2.217   9.932 -0.3682 -0.0097 -0.1500
 1005MOL0     C32533   5.088   2.173  10.041 -0.0216 -0.2317 -0.3684
 1005MOL0     C32534   5.225   2.168  10.015 -0.1508  0.0330 -0.1823
 1005MOL0     C32535   5.286   2.211   9.892 -0.1850 -0.1614 -1.1080
 1005MOL0     O32536   5.420   2.190   9.857 -1.0297 -0.3476  0.3938
 1005MOL0     C32537   5.500   2.087   9.911  0.0580  0.1116 -0.2421
 1005MOL0     C32538   5.634   2.107   9.875 -0.0709  0.1006  0.1082
 1005MOL0     C32539   5.732   2.005   9.946 -0.2986 -0.0266 -0.5174
 1005MOL0     C32540   5.874   2.061   9.928 -0.1429  0.1979  0.1891
 1005MOL0     C32541   5.962   1.950   9.979 -0.3273 -0.1842  0.5483
 1005MOL0     C32542   6.116   1.971   9.938  0.0406  0.0322 -0.1317
 1005MOL0     C32543   6.192   1.904  10.053  0.5475  0.3920 -0.0348
 1005MOL0     C32544   6.336   1.927  10.034  0.1196  0.5757 -0.5079
 1005MOL0     N32545   6.394   1.823   9.940  0.0118 -0.3950  0.1176
 1005MOL0     C32546   6.440   1.701   9.974 -0.0590 -1.0281  0.2641
 1005MOL0     C32547   6.474   1.642   9.862 -0.0427 -0.7312 -0.3487
 1005MOL0     C32548   6.554   1.514   9.866  0.3602  0.9501 -0.0259
 1005MOL0     C32549   6.481   1.387   9.916 -0.1258  0.1452 -0.0265
 1005MOL0     C32550   6.361   1.361   9.822 -0.2877  0.2949 -0.7042
 1005MOL0     C32551   6.273   1.252   9.869  0.9159 -0.6121  0.0547
 1005MOL0     O32552   6.241   1.276  10.009  0.1965  0.2667 -0.6844
 1005MOL0     C32553   6.146   1.366  10.041 -0.6915 -0.5635 -0.1245
 1005MOL0     C32554   6.044   1.410   9.959  0.4607  1.2097 -0.0475
 1005MOL0     C32555   5.939   1.485  10.001  0.1872  0.2250  0.5156
 1005MOL0     C32556   5.927   1.514  10.139 -0.1382 -0.1853 -0.2044
 1005MOL0     C32557   5.800   1.587  10.190  0.0257 -0.7783 -1.3888
 1005MOL0     O32558   5.707   1.625  10.099  0.2597  0.2339  0.0927
 1005MOL0     C32559   5.588   1.693  10.121 -0.7987 -0.1997 -0.4085
 1005MOL0     C32560   5.570   1.786  10.223 -0.2371 -0.4799  0.7089
 1005MOL0     C32561   5.451   1.851  10.249 -0.2517 -0.0212  0.1252
 1005MOL0     C32562   5.339   1.823  10.172  0.0032 -0.1504  0.7343
 1005MOL0     O32563   5.211   1.873  10.187  0.2794  0.6891 -0.0869
 1005MOL0     C32564   5.174   1.940  10.309  0.0742  0.7797 -0.5768
 1005MOL0     C32565   5.042   1.886  10.363 -0.2627 -0.2596  0.4759
 1005MOL0     C32566   4.928   1.960  10.292 -0.1173 -0.0417 -0.1081
 1005MOL0     C32567   4.788   1.907  10.327 -1.3647  0.1971  0.4161
 1005MOL0     C32568   4.682   1.975  10.235 -0.1307  0.0058 -0.2362
 1005MOL0     C32569   4.547   1.919  10.277 -0.3593 -0.6502 -0.5496
 1005MOL0     C32570   4.438   1.987  10.208  0.5536 -0.4347 -0.4982
 1005MOL0     C32571   4.308   1.911  10.224 -0.4126 -0.1700 -0.1585
 1005MOL0    Cl32572   4.326   1.752  10.146  0.0177 -0.3167 -0.1105
 1005MOL0     C32573   5.358   1.733  10.067 -0.1050 -0.1918  0.0273
 1005MOL0     C32574   5.479   1.673  10.039 -0.0517  0.2798 -0.2752
 1005MOL0     O32575   5.795   1.611  10.310 -0.2349  0.7842 -0.6832
 1005MOL0     C32576   6.037   1.486  10.223  0.4186  0.1111 -0.2130
 1005MOL0     C32577   6.141   1.416  10.170  0.3784  0.1228 -0.9085
 1005MOL0     N32578   6.456   1.732   9.757 -0.3122 -0.7614 -0.1373
 1005MOL0     N32579   6.412   1.841   9.809 -0.6007 -0.2060  0.2739
 1005MOL0     C32580   5.197   2.257   9.795 -0.2706 -0.0022  0.1204
 1005MOL0     C32581   5.063   2.253   9.813 -0.2247 -0.8841  0.6104
 1005MOL0     C32582   4.678   2.353   9.977  0.0296  0.7316 -0.6892
 1005MOL0     C32583   4.621   2.478  10.003 -0.1943 -0.2312  0.6856
 1005MOL0     C32584   4.481   2.492  10.004 -0.0796  0.6947  0.2278
 1005MOL0     C32585   4.396   2.382   9.986  0.3657 -1.6159 -0.3458
 1005MOL0     O32586   4.262   2.423   9.990  0.3503 -0.8241 -0.0672
 1005MOL0     C32587   4.155   2.333   9.967  0.6155  0.2319 -0.1992
 1005MOL0     C32588   4.100   2.326   9.827  0.3197  0.4062 -0.4549
 1005MOL0     C32589   4.018   2.196   9.789  0.1929 -0.3326 -0.6893
 1005MOL0     C32590   3.996   2.187   9.635  0.5317 -0.3121  0.5440
 1005MOL0     C32591   3.901   2.286   9.595 -0.6444  0.2811  0.1416
 1005MOL0     C32592   3.806   2.347   9.553  0.5124 -0.4464 -0.0108
 1005MOL0     C32593   4.449   2.249   9.969 -0.8950 -0.4545 -0.1669
 1005MOL0     C32594   4.593   2.235   9.973  0.4265  0.1175 -0.0417
 1005MOL0     H32595   5.049   2.144  10.137 -1.1951  1.5312 -0.2658
 1005MOL0     H32596   5.280   2.138  10.104 -2.5867 -0.9675  1.1009
 1005MOL0     H32597   5.468   1.988   9.876  2.1888 -0.1327 -1.6467
 1005MOL0     H32598   5.488   2.094  10.020  0.1127 -1.5295 -0.1046
 1005MOL0     H32599   5.669   2.208   9.899  0.1504  0.0047  0.1956
 1005MOL0     H32600   5.632   2.089   9.768 -3.1615  0.0292  0.0931
 1005MOL0     H32601   5.711   1.902   9.916 -3.4305  0.6741 -1.0966
 1005MOL0     H32602   5.709   2.014  10.053  0.7519 -2.2040 -0.0635
 1005MOL0     H32603   5.883   2.086   9.822 -2.3168  1.6716  0.2840
 1005MOL0     H32604   5.894   2.158   9.973 -1.6123  0.2762  0.7427
 1005MOL0     H32605   5.920   1.857   9.939 -2.2037  0.3752  1.1206
 1005MOL0     H32606   5.950   1.950  10.088  0.1641 -2.9081  0.6753
 1005MOL0     H32607   6.142   2.075   9.915 -2.2493  0.7778  0.3522
 1005MOL0     H32608   6.139   1.926   9.840  2.9447  0.9584  0.0272
 1005MOL0     H32609   6.173   1.937  10.155  3.2053 -1.1120  1.0337
 1005MOL0     H32610   6.175   1.797  10.040  1.9117  0.3470 -1.8659
 1005MOL0     H32611   6.390   1.916  10.128  1.3245  1.2052 -1.1044
 1005MOL0     H32612   6.355   2.027   9.993  1.5437  0.5440  0.0207
 1005MOL0     H32613   6.454   1.659  10.073  1.2239  0.4513  0.7554
 1005MOL0     H32614   6.643   1.526   9.928  0.9091 -2.9808  0.2380
 1005MOL0     H32615   6.589   1.493   9.765  0.8423  0.5400  0.2216
 1005MOL0     H32616   6.445   1.410  10.017 -1.4025 -0.3774 -0.3433
 1005MOL0     H32617   6.552   1.304   9.920 -0.1462  0.1595  0.7059
 1005MOL0     H32618   6.300   1.452   9.827  1.5739  1.5370  0.5820
 1005MOL0     H32619   6.396   1.345   9.719  0.4441 -4.7744  0.1136
 1005MOL0     H32620   6.332   1.160   9.870 -0.4149 -1.5151 -0.7943
 1005MOL0     H32621   6.188   1.236   9.801  0.7016 -3.3983  0.8517
 1005MOL0     H32622   6.040   1.390   9.853 -3.3099 -1.2957  0.3553
 1005MOL0     H32623   5.859   1.499   9.928 -1.0277  0.7453  1.8853
 1005MOL0     H32624   5.654   1.800  10.290  0.3544  1.1229 -0.2947
 1005MOL0     H32625   5.448   1.923  10.330  0.8710 -0.6504  0.7594
 1005MOL0     H32626   5.176   2.049  10.304 -1.0036  0.9372  1.6201
 1005MOL0     H32627   5.243   1.916  10.390  2.5392  1.7925 -2.2599
 1005MOL0     H32628   5.037   1.906  10.470  0.1923  0.7233  0.3232
 1005MOL0     H32629   5.037   1.778  10.345 -0.9997  0.2098 -2.7358
 1005MOL0     H32630   4.937   1.953  10.183 -0.4239 -0.3669 -0.1137
 1005MOL0     H32631   4.934   2.063  10.329  0.8950 -0.0130 -0.3133
 1005MOL0     H32632   4.779   1.798  10.325  1.0899 -0.0461 -0.8980
 1005MOL0     H32633   4.784   1.926  10.434  1.9774 -0.1901  0.6948
 1005MOL0     H32634   4.696   1.945  10.131  0.5497 -1.1068  0.1577
 1005MOL0     H32635   4.687   2.084  10.244  3.2461 -0.1055  0.3364
 1005MOL0     H32636   4.547   1.923  10.386  1.7906 -1.8113 -0.4506
 1005MOL0     H32637   4.544   1.815  10.244  0.8947 -0.9527  0.2034
 1005MOL0     H32638   4.415   2.084  10.252 -1.1403 -0.5295 -1.1165
 1005MOL0     H32639   4.447   2.000  10.100  0.7105  1.5210 -0.2739
 1005MOL0     H32640   4.218   1.966  10.198  0.4189  1.2196 -0.2238
 1005MOL0     H32641   4.307   1.888  10.331  0.5558  2.7810  0.5747
 1005MOL0     H32642   5.278   1.712   9.997  0.0347 -0.5114 -0.0392
 1005MOL0     H32643   5.485   1.611   9.950 -0.3650 -0.7745  0.4215
 1005MOL0     H32644   6.035   1.509  10.329 -1.6228 -4.6948  1.0679
 1005MOL0     H32645   6.225   1.391  10.235  0.2808 -1.2659 -1.2773
 1005MOL0     H32646   5.229   2.279   9.694 -0.0786 -0.7236  0.0206
 1005MOL0     H32647   4.994   2.295   9.740  0.3039 -1.0400  0.0103
 1005MOL0     H32648   4.692   2.560   9.997 -1.4759  0.9339  1.0623
 1005MOL0     H32649   4.444   2.593  10.017 -2.5521  0.1446 -1.9250
 1005MOL0     H32650   4.069   2.355  10.030  2.7742  1.7693  2.4354
 1005MOL0     H32651   4.177   2.235  10.010 -0.7840 -0.7882 -1.6998
 1005MOL0     H32652   4.040   2.413   9.799  0.3042 -0.0219 -1.8148
 1005MOL0     H32653   4.189   2.339   9.764  0.5416 -2.6036 -0.8784
 1005MOL0     H32654   3.930   2.192   9.855  0.6848 -1.5451 -0.0648
 1005MOL0     H32655   4.083   2.114   9.822 -0.2925 -0.1353  0.8305
 1005MOL0     H32656   4.093   2.209   9.589 -0.8717  0.5319 -2.2330
 1005MOL0     H32657   3.959   2.091   9.600  0.5325 -0.5425  1.1646
 1005MOL0     H32658   3.727   2.416   9.533  0.5000  0.7549  3.5150
 1005MOL0     H32659   4.376   2.169   9.961 -1.4269  0.0712 -0.6131
 1005MOL0     H32660   4.629   2.133   9.967  2.3556  0.6607  1.2245
 1006MOL0     O32661   9.099   6.482   4.142  0.2827 -0.2526  0.0094
 1006MOL0     C32662   9.013   6.506   4.060 -0.0711 -0.3319 -0.5003
 1006MOL0     O32663   9.011   6.604   3.958 -0.1464  0.1698 -0.1285
 1006MOL0     C32664   9.131   6.673   3.936 -0.0079  0.3909  0.6355
 1006MOL0     C32665   9.214   6.721   4.039  0.2837 -0.1877 -0.1370
 1006MOL0     C32666   9.324   6.803   4.011  0.1458 -0.1751  0.3095
 1006MOL0     C32667   9.361   6.831   3.879  0.7223  0.1220  0.2210
 1006MOL0     O32668   9.483   6.889   3.852  0.6403  0.5035  0.5329
 1006MOL0     C32669   9.509   7.010   3.923 -0.6462 -0.3427  0.6214
 1006MOL0     C32670   9.587   7.109   3.839  0.5218  0.6145  0.2498
 1006MOL0     C32671   9.719   7.054   3.781 -0.4927 -0.9306  0.0776
 1006MOL0     C32672   9.726   7.085   3.631 -0.5577  0.6280  0.0338
 1006MOL0     C32673   9.867   7.066   3.569  0.1597 -0.1095  0.3691
 1006MOL0     C32674   9.973   7.124   3.652  0.4607 -0.9295  0.2574
 1006MOL0     C32675  10.102   7.142   3.573  0.4358  0.6099 -0.1711
 1006MOL0     C32676  10.207   7.203   3.663  0.0867  0.0055  1.1934
 1006MOL0     N32677  10.336   7.196   3.594  0.3752 -0.4434  0.0338
 1006MOL0     C32678  10.434   7.294   3.568  0.2160 -0.0094 -0.0379
 1006MOL0     C32679  10.507   7.234   3.476  0.0279 -0.8245  0.7046
 1006MOL0     C32680  10.629   7.290   3.401  0.2430  0.4520  0.1660
 1006MOL0     C32681  10.596   7.369   3.269 -0.2469  0.1751  0.1905
 1006MOL0     C32682  10.559   7.292   3.143 -0.5282  0.6100 -1.0033
 1006MOL0     C32683  10.433   7.211   3.156  0.8077 -0.7295  0.4748
 1006MOL0     O32684  10.328   7.292   3.210  0.2466 -0.7011  0.3894
 1006MOL0     C32685  10.201   7.239   3.208  0.6633  1.0233 -0.1129
 1006MOL0     C32686  10.090   7.316   3.163  0.2474  1.3475 -0.8784
 1006MOL0     C32687   9.962   7.258   3.147 -0.5182  0.2524  0.1755
 1006MOL0     C32688   9.946   7.121   3.175 -0.0439 -0.2671  0.4695
 1006MOL0     C32689   9.823   7.053   3.153  0.0200  0.0722  0.4140
 1006MOL0     O32690   9.718   7.135   3.108 -0.0843  0.5908  0.4021
 1006MOL0     C32691   9.593   7.076   3.098 -0.4833  0.6729  0.2434
 1006MOL0     C32692   9.520   7.111   2.981  1.0043  0.9291  0.2539
 1006MOL0     C32693   9.398   7.046   2.954  0.2629  0.0030  0.4268
 1006MOL0     C32694   9.344   6.961   3.056  0.2260 -0.3842  0.0426
 1006MOL0     O32695   9.215   6.912   3.053 -0.2436  0.7021 -0.2160
 1006MOL0     C32696   9.133   6.956   2.945  0.6629 -0.6942  0.2794
 1006MOL0     C32697   8.993   6.911   2.950 -0.0647 -0.2038 -0.0952
 1006MOL0     C32698   8.897   6.982   2.853 -0.2893  0.5141  0.2832
 1006MOL0     C32699   8.952   6.976   2.698  0.3074 -0.7636 -0.1701
 1006MOL0     C32700   8.866   7.059   2.595 -0.0132 -0.0018  0.6996
 1006MOL0     C32701   8.743   6.977   2.555 -0.6674 -0.5324  0.2121
 1006MOL0     C32702   8.646   7.061   2.488  1.3644  0.2854  0.3380
 1006MOL0     C32703   8.529   6.974   2.443  0.7342  0.6829  0.6020
 1006MOL0    Cl32704   8.558   6.868   2.301 -0.3273 -0.4921 -0.5105
 1006MOL0     C32705   9.413   6.933   3.176  0.3486  0.0283  0.4197
 1006MOL0     C32706   9.534   7.001   3.196  0.1544  0.1445  0.1508
 1006MOL0     O32707   9.808   6.931   3.174 -1.1132  0.1503 -0.9040
 1006MOL0     C32708  10.056   7.040   3.213 -0.2797  0.7086 -0.3458
 1006MOL0     C32709  10.180   7.104   3.226  0.9409  0.7303  0.2209
 1006MOL0     N32710  10.485   7.100   3.467  0.3513 -0.5149  0.3299
 1006MOL0     N32711  10.376   7.078   3.532  0.1889  0.6195 -0.0794
 1006MOL0     C32712   9.277   6.788   3.776  0.8232 -0.1773  0.1486
 1006MOL0     C32713   9.164   6.716   3.804 -0.6984  0.2946  0.0361
 1006MOL0     C32714   8.896   6.430   4.082 -0.3728  0.7185  0.7403
 1006MOL0     C32715   8.880   6.353   4.197  0.2332 -0.3872 -0.6349
 1006MOL0     C32716   8.770   6.277   4.216  0.3895 -0.8072 -0.0658
 1006MOL0     C32717   8.659   6.275   4.117  0.8429  0.2483  0.2416
 1006MOL0     O32718   8.541   6.206   4.124 -0.4512  0.5388  1.2191
 1006MOL0     C32719   8.539   6.105   4.215  0.2660 -0.4113  0.2408
 1006MOL0     C32720   8.419   6.012   4.206 -0.1265  0.6898  0.2629
 1006MOL0     C32721   8.391   5.925   4.331  0.1890  0.7147 -0.2949
 1006MOL0     C32722   8.257   5.849   4.315 -0.6421  0.0404  0.1778
 1006MOL0     C32723   8.183   5.829   4.438 -0.5240 -0.1529  0.5232
 1006MOL0     C32724   8.122   5.799   4.539  0.6520 -1.2148  0.3300
 1006MOL0     C32725   8.669   6.363   4.005  0.2513  0.6547  0.9947
 1006MOL0     C32726   8.778   6.441   3.999 -0.1059 -0.0578  0.8253
 1006MOL0     H32727   9.193   6.705   4.144 -0.5718 -3.6307 -0.7014
 1006MOL0     H32728   9.384   6.830   4.098 -1.7621 -4.8563  3.4647
 1006MOL0     H32729   9.572   6.986   4.009 -1.2500 -2.2173  0.5959
 1006MOL0     H32730   9.416   7.050   3.963 -0.3575  2.7139 -1.4748
 1006MOL0     H32731   9.615   7.193   3.902  2.0387  1.2976 -1.2428
 1006MOL0     H32732   9.530   7.151   3.756 -0.2886 -0.6881  0.1263
 1006MOL0     H32733   9.727   6.946   3.798 -1.9381 -1.3042 -1.3129
 1006MOL0     H32734   9.798   7.103   3.838 -0.4398 -0.2182 -0.5896
 1006MOL0     H32735   9.656   7.021   3.577 -1.9856  0.4090  2.0583
 1006MOL0     H32736   9.698   7.190   3.619 -0.0718  1.1541  2.8242
 1006MOL0     H32737   9.868   7.099   3.465 -1.0620 -2.5466 -0.5152
 1006MOL0     H32738   9.882   6.958   3.567  2.1416  0.1181  1.0334
 1006MOL0     H32739   9.990   7.068   3.744  0.4902  0.0327  0.8474
 1006MOL0     H32740   9.934   7.220   3.684 -3.2182 -1.7256 -1.2786
 1006MOL0     H32741  10.134   7.043   3.539  2.5404  1.2024 -0.0387
 1006MOL0     H32742  10.078   7.202   3.484  1.0314 -1.4849 -1.8460
 1006MOL0     H32743  10.216   7.147   3.757  1.1343 -1.6732  0.1403
 1006MOL0     H32744  10.182   7.307   3.685 -1.0885  0.0628 -0.2982
 1006MOL0     H32745  10.447   7.398   3.597  2.0766  0.2464 -1.5294
 1006MOL0     H32746  10.677   7.196   3.370 -0.9269 -0.2588  0.4381
 1006MOL0     H32747  10.698   7.345   3.465 -0.4001 -1.5169  2.7296
 1006MOL0     H32748  10.685   7.424   3.238 -0.4576 -0.9891 -2.7685
 1006MOL0     H32749  10.510   7.431   3.295  0.4706  1.7935 -1.1892
 1006MOL0     H32750  10.539   7.370   3.069  1.3760  0.2572 -1.9532
 1006MOL0     H32751  10.642   7.226   3.116 -1.6578 -2.3493  2.0096
 1006MOL0     H32752  10.441   7.117   3.212 -1.6456 -0.1021  2.0274
 1006MOL0     H32753  10.405   7.186   3.054  2.9445  3.6277 -1.4697
 1006MOL0     H32754  10.101   7.421   3.137  2.5717  1.2499 -0.4489
 1006MOL0     H32755   9.884   7.323   3.109  1.5426  1.5467 -2.1961
 1006MOL0     H32756   9.557   7.184   2.909 -0.1411  1.1073 -0.1709
 1006MOL0     H32757   9.337   7.074   2.868 -1.2532 -2.6350  0.5429
 1006MOL0     H32758   9.173   6.917   2.850  1.8535  2.7208 -0.7481
 1006MOL0     H32759   9.126   7.065   2.941 -1.9048 -0.7943  0.4003
 1006MOL0     H32760   8.960   6.936   3.051 -1.7114 -0.9216 -0.4115
 1006MOL0     H32761   8.986   6.803   2.932  2.5971 -0.3361 -0.6634
 1006MOL0     H32762   8.878   7.085   2.883 -0.1955  0.1906  1.5200
 1006MOL0     H32763   8.800   6.933   2.862 -0.2858 -0.3445 -3.1235
 1006MOL0     H32764   9.054   7.016   2.692  0.2442 -0.0189  2.3663
 1006MOL0     H32765   8.966   6.872   2.667  3.7081 -0.0958 -1.3224
 1006MOL0     H32766   8.907   7.083   2.497 -1.2659 -2.9372 -0.6658
 1006MOL0     H32767   8.838   7.155   2.640 -0.0762 -0.2466  1.1920
 1006MOL0     H32768   8.700   6.937   2.647  2.6396  1.8178  3.0039
 1006MOL0     H32769   8.762   6.890   2.491 -1.1651  0.4678 -1.3574
 1006MOL0     H32770   8.620   7.146   2.552 -0.3529 -0.0214  0.1009
 1006MOL0     H32771   8.692   7.111   2.401  0.7700 -0.6345 -0.5232
 1006MOL0     H32772   8.446   7.034   2.404  0.1334 -0.5080 -0.0071
 1006MOL0     H32773   8.498   6.916   2.531 -0.4746  2.3165  1.3037
 1006MOL0     H32774   9.357   6.878   3.251 -1.0091  0.9909  0.1503
 1006MOL0     H32775   9.595   6.993   3.286 -1.0974 -0.4454  0.9846
 1006MOL0     H32776  10.039   6.937   3.244 -1.1906  0.9878  0.1265
 1006MOL0     H32777  10.252   7.038   3.273 -0.1367 -0.4379  0.3033
 1006MOL0     H32778   9.304   6.820   3.676 -0.0105 -1.9055 -0.6660
 1006MOL0     H32779   9.100   6.679   3.725 -2.0176  1.5214  0.4886
 1006MOL0     H32780   8.961   6.357   4.269 -0.1963 -1.1143 -0.0955
 1006MOL0     H32781   8.756   6.221   4.308 -1.8701 -0.1261  0.0526
 1006MOL0     H32782   8.547   6.142   4.317 -0.6669 -0.4625  0.3465
 1006MOL0     H32783   8.624   6.038   4.198  0.9553  0.5107 -0.0061
 1006MOL0     H32784   8.328   6.072   4.196  0.0808  0.6543 -3.6225
 1006MOL0     H32785   8.427   5.950   4.116 -0.9298  0.6864  0.1888
 1006MOL0     H32786   8.383   5.985   4.422 -1.7142 -0.5109  0.4035
 1006MOL0     H32787   8.475   5.856   4.342  2.9169  3.6454 -1.3785
 1006MOL0     H32788   8.188   5.905   4.251 -0.0874 -0.8275 -1.2059
 1006MOL0     H32789   8.270   5.749   4.273  0.5208  0.7371 -1.2029
 1006MOL0     H32790   8.050   5.765   4.610 -0.9023  0.4280 -0.3804
 1006MOL0     H32791   8.582   6.382   3.944  0.3098 -1.1972  0.2871
 1006MOL0     H32792   8.782   6.514   3.918  2.0422 -1.4494 -0.4330
 1007MOL0     O32793   5.926  10.257  10.680 -0.1108  0.1729  0.0906
 1007MOL0     C32794   5.965  10.200  10.583 -0.5639 -0.7358  0.3414
 1007MOL0     O32795   5.897  10.179  10.464  0.0785 -1.1206 -0.1735
 1007MOL0     C32796   5.762  10.194  10.467 -0.3943 -0.2883  0.4852
 1007MOL0     C32797   5.676  10.092  10.487 -0.9877 -0.1778 -0.2684
 1007MOL0     C32798   5.540  10.097  10.488  0.9494 -0.1973 -0.2238
 1007MOL0     C32799   5.480  10.222  10.477 -0.0389 -0.3671  0.5406
 1007MOL0     O32800   5.343  10.236  10.465 -0.2438  0.0385  0.2814
 1007MOL0     C32801   5.289  10.370  10.459 -0.2290 -0.0792  0.1084
 1007MOL0     C32802   5.137  10.365  10.470 -0.3657  0.1869  0.4298
 1007MOL0     C32803   5.067  10.493  10.413 -0.2364  0.1613 -0.5394
 1007MOL0     C32804   4.931  10.471  10.354 -0.4129 -0.6104  0.2600
 1007MOL0     C32805   4.888  10.595  10.260  0.9706 -0.2058 -0.0376
 1007MOL0     C32806   4.745  10.589  10.199 -0.1171  1.1305  0.7725
 1007MOL0     C32807   4.737  10.478  10.096 -0.2060 -0.1659  0.0117
 1007MOL0     C32808   4.582  10.450  10.069 -1.1479  0.2471 -0.8913
 1007MOL0     N32809   4.505  10.576  10.076 -0.4540  0.2655 -0.1800
 1007MOL0     C32810   4.411  10.594  10.172  0.0744 -0.3259  0.0564
 1007MOL0     C32811   4.357  10.722  10.156 -0.8572 -0.0504 -0.2884
 1007MOL0     C32812   4.259  10.791  10.240 -0.2756  0.1159 -0.6434
 1007MOL0     C32813   4.107  10.769  10.212 -0.1780  0.7310  0.6286
 1007MOL0     C32814   4.025  10.814  10.344 -0.4319  0.2876  0.3206
 1007MOL0     C32815   3.871  10.808  10.315  0.0440  0.0583  0.2750
 1007MOL0     O32816   3.795  10.793  10.430  0.4395 -0.7577 -0.3761
 1007MOL0     C32817   3.656  10.775  10.429 -0.6324 -0.5319 -0.9139
 1007MOL0     C32818   3.587  10.741  10.551 -0.9361  0.6663 -0.6242
 1007MOL0     C32819   3.447  10.722  10.558  0.5014  0.0793 -0.3376
 1007MOL0     C32820   3.368  10.724  10.436  0.1831  0.3528 -0.5612
 1007MOL0     C32821   3.222  10.712  10.434 -0.4720  0.7057  0.2800
 1007MOL0     O32822   3.169  10.654  10.540 -0.1969  0.0839 -0.2634
 1007MOL0     C32823   3.032  10.646  10.552  0.5152 -0.2713 -0.5100
 1007MOL0     C32824   2.971  10.521  10.539  0.0271 -0.5046 -0.1038
 1007MOL0     C32825   2.831  10.507  10.558 -0.9156  0.6816 -0.1446
 1007MOL0     C32826   2.747  10.620  10.589  0.4509 -0.7068 -0.4858
 1007MOL0     O32827   2.618  10.617  10.632  0.2070  0.4471  0.5628
 1007MOL0     C32828   2.546  10.492  10.627 -0.4280  0.0499  0.5079
 1007MOL0     C32829   2.404  10.499  10.686  0.6999  0.3516  0.3555
 1007MOL0     C32830   2.306  10.561  10.586  0.1202 -0.0617 -0.3597
 1007MOL0     C32831   2.159  10.548  10.640  0.8151 -0.2577  0.1237
 1007MOL0     C32832   2.058  10.654  10.582 -0.4939  1.2443 -0.3299
 1007MOL0     C32833   1.923  10.632  10.649  0.5104 -0.2852  0.2591
 1007MOL0     C32834   1.824  10.735  10.587  0.4625 -0.2740  0.2760
 1007MOL0     C32835   1.682  10.679  10.603  0.7920 -0.4078 -0.1653
 1007MOL0    Cl32836   1.652  10.520  10.534 -0.1454  0.3009 -0.0782
 1007MOL0     C32837   2.812  10.741  10.592 -0.5534 -0.2200 -0.0226
 1007MOL0     C32838   2.954  10.756  10.581 -0.0072  0.7477 -0.1116
 1007MOL0     O32839   3.165  10.751  10.330  0.2152 -0.8855  0.3983
 1007MOL0     C32840   3.441  10.750  10.318 -0.3964  0.6100 -0.6720
 1007MOL0     C32841   3.574  10.785  10.321 -0.4606 -0.8948 -0.4656
 1007MOL0     N32842   4.418  10.770  10.046  0.0200  0.2577 -0.3232
 1007MOL0     N32843   4.506  10.691  10.006 -0.6787 -0.1564 -0.4202
 1007MOL0     C32844   5.566  10.336  10.443 -0.1828  0.4419 -0.2986
 1007MOL0     C32845   5.703  10.312  10.431 -0.1513 -0.5442  0.2356
 1007MOL0     C32846   6.101  10.135  10.579  0.2281 -0.5516  0.0216
 1007MOL0     C32847   6.167  10.108  10.457  0.2750 -0.1921  0.0164
 1007MOL0     C32848   6.290  10.041  10.456  1.0900 -0.7827 -0.1531
 1007MOL0     C32849   6.345  10.000  10.578 -0.7039 -0.1848 -0.2018
 1007MOL0     O32850   6.468   9.932  10.571  0.2004  0.1821  0.0074
 1007MOL0     C32851   6.538   9.924  10.698 -0.1194  0.6189  0.5670
 1007MOL0     C32852   6.677   9.865  10.670 -0.1594 -0.6428 -0.5685
 1007MOL0     C32853   6.755   9.967  10.582  0.4093 -1.0209 -0.4240
 1007MOL0     C32854   6.900   9.909  10.576  0.8619  0.0769 -1.2829
 1007MOL0     C32855   6.970   9.889  10.701  0.2468 -0.9042 -0.5084
 1007MOL0     C32856   7.038   9.883  10.795  0.3084 -0.1616 -0.7170
 1007MOL0     C32857   6.277  10.030  10.698 -0.4677  0.3583 -0.2087
 1007MOL0     C32858   6.157  10.099  10.699 -0.3834 -0.2341  0.8067
 1007MOL0     H32859   5.723   9.995  10.501  1.2427  0.7344 -0.9113
 1007MOL0     H32860   5.474  10.012  10.501 -1.0805  1.2518 -0.6186
 1007MOL0     H32861   5.320  10.409  10.361  3.8142 -0.2982  1.1485
 1007MOL0     H32862   5.331  10.438  10.532  0.5544 -1.2559  0.7832
 1007MOL0     H32863   5.104  10.347  10.573 -0.1415 -0.9848  0.3136
 1007MOL0     H32864   5.104  10.278  10.413  0.9534  0.5874 -0.9966
 1007MOL0     H32865   5.133  10.526  10.333  2.2932 -0.1277  1.2888
 1007MOL0     H32866   5.067  10.569  10.492 -0.1092  0.7809 -1.1327
 1007MOL0     H32867   4.931  10.378  10.296 -0.6882 -0.2802 -0.2789
 1007MOL0     H32868   4.866  10.450  10.439  1.1394  0.0830  1.6782
 1007MOL0     H32869   4.960  10.604  10.178  2.1741 -2.3719  0.7007
 1007MOL0     H32870   4.894  10.686  10.320  0.1897  1.4715 -2.3563
 1007MOL0     H32871   4.738  10.685  10.147 -1.7499  0.8882  0.5029
 1007MOL0     H32872   4.679  10.583  10.285 -0.7129  1.3354  0.3378
 1007MOL0     H32873   4.788  10.510  10.005  0.3955 -0.0654  0.3752
 1007MOL0     H32874   4.787  10.387  10.131 -0.5469 -0.3075  0.1306
 1007MOL0     H32875   4.545  10.386  10.150  1.0775 -0.5382 -0.4153
 1007MOL0     H32876   4.563  10.395   9.977 -0.2290 -1.5674 -0.0407
 1007MOL0     H32877   4.365  10.538  10.253 -0.8243  2.3442  1.5419
 1007MOL0     H32878   4.292  10.895  10.229 -0.7957  0.1718 -1.9330
 1007MOL0     H32879   4.288  10.777  10.344  0.5986  1.8256 -0.6227
 1007MOL0     H32880   4.085  10.663  10.192  2.7752  0.3495 -1.1709
 1007MOL0     H32881   4.079  10.831  10.127  4.9624  1.0727 -1.1312
 1007MOL0     H32882   4.044  10.741  10.423  0.3693  1.4744  1.2471
 1007MOL0     H32883   4.055  10.912  10.381  1.0263 -0.1822  0.4477
 1007MOL0     H32884   3.847  10.723  10.251  1.8548 -0.2232 -0.0932
 1007MOL0     H32885   3.839  10.901  10.267  1.7491  1.5314  1.8438
 1007MOL0     H32886   3.654  10.736  10.636 -0.9785 -2.8565 -0.6436
 1007MOL0     H32887   3.408  10.690  10.654  1.1065  1.7425  0.4962
 1007MOL0     H32888   3.041  10.440  10.524  0.8411 -0.1155  1.4117
 1007MOL0     H32889   2.791  10.409  10.534 -1.1970  1.2408 -2.1420
 1007MOL0     H32890   2.600  10.414  10.681 -0.5512  0.4396  1.2057
 1007MOL0     H32891   2.537  10.464  10.522 -1.2274 -0.3205  0.6711
 1007MOL0     H32892   2.399  10.549  10.784  1.7579  3.4157 -1.0138
 1007MOL0     H32893   2.376  10.395  10.700  0.9264  0.2992  0.4365
 1007MOL0     H32894   2.326  10.503  10.495  0.1401  0.7995 -0.9157
 1007MOL0     H32895   2.327  10.668  10.587 -0.8037  0.1500  1.4456
 1007MOL0     H32896   2.126  10.444  10.627  0.5027  0.0097 -1.4387
 1007MOL0     H32897   2.156  10.568  10.748 -2.4957 -0.5475  0.1980
 1007MOL0     H32898   2.052  10.629  10.476  2.1384 -1.2206 -0.0247
 1007MOL0     H32899   2.090  10.758  10.594  2.9382  0.4913 -1.8088
 1007MOL0     H32900   1.925  10.634  10.759 -1.1625 -1.4939  0.3507
 1007MOL0     H32901   1.897  10.529  10.623 -0.4615 -0.5603  2.1380
 1007MOL0     H32902   1.825  10.838  10.624  3.0858 -0.2748  0.4100
 1007MOL0     H32903   1.842  10.744  10.479 -0.2590 -2.3282 -0.0566
 1007MOL0     H32904   1.614  10.750  10.556  1.1058 -0.2947 -0.4524
 1007MOL0     H32905   1.660  10.673  10.710  1.3059  2.3027  0.1646
 1007MOL0     H32906   2.757  10.835  10.600 -0.8884 -0.4687  0.7371
 1007MOL0     H32907   3.006  10.852  10.590 -2.3504  2.1727 -0.9268
 1007MOL0     H32908   3.401  10.734  10.218 -0.2820 -1.2079 -0.4696
 1007MOL0     H32909   3.612  10.803  10.221 -1.2626 -1.5575 -0.9039
 1007MOL0     H32910   5.522  10.433  10.421  1.6482  1.3309 -0.2084
 1007MOL0     H32911   5.773  10.393  10.414 -0.1913 -0.2919  1.1913
 1007MOL0     H32912   6.133  10.150  10.363 -1.8172  0.0996  0.8497
 1007MOL0     H32913   6.333  10.013  10.361  1.2823 -2.0390  0.2853
 1007MOL0     H32914   6.492   9.851  10.765 -0.3937  0.4785  0.2257
 1007MOL0     H32915   6.555  10.023  10.742  3.3743  0.3271  0.1774
 1007MOL0     H32916   6.715   9.852  10.772 -0.6051  1.5732 -0.0784
 1007MOL0     H32917   6.678   9.766  10.622  2.7436 -2.4704  2.7427
 1007MOL0     H32918   6.751  10.073  10.610  2.9957 -0.5795 -1.4322
 1007MOL0     H32919   6.717   9.972  10.480  1.0247 -0.1209 -0.6241
 1007MOL0     H32920   6.904   9.814  10.522  0.3355  1.5259 -4.0518
 1007MOL0     H32921   6.957   9.986  10.523  2.5290 -0.1245  0.1499
 1007MOL0     H32922   7.092   9.879  10.888 -0.0192 -0.4651 -0.5369
 1007MOL0     H32923   6.313  10.011  10.798 -4.6929 -0.1462  1.4123
 1007MOL0     H32924   6.105  10.118  10.793  0.5735 -0.0843  1.3220
 1008MOL0     O32925   7.075  10.901   7.219 -0.7165 -0.4886 -0.4372
 1008MOL0     C32926   7.061  10.793   7.172  0.2394  0.3075  0.4503
 1008MOL0     O32927   6.951  10.759   7.097 -0.5189 -0.8804  0.2029
 1008MOL0     C32928   6.826  10.827   7.089 -0.2909  1.3282  0.2344
 1008MOL0     C32929   6.729  10.793   7.173 -0.4505 -0.0780 -0.2151
 1008MOL0     C32930   6.600  10.834   7.148  0.3240 -0.1699  0.3713
 1008MOL0     C32931   6.561  10.902   7.034 -0.9316  0.7475 -0.2928
 1008MOL0     O32932   6.427  10.925   7.022  0.4412 -0.2196 -0.3912
 1008MOL0     C32933   6.374  10.907   6.898  0.1290  0.4653  0.0608
 1008MOL0     C32934   6.221  10.929   6.891 -0.4853  0.3210 -0.4775
 1008MOL0     C32935   6.175  11.059   6.973  0.4178 -0.8218 -0.2163
 1008MOL0     C32936   6.028  11.087   6.957 -0.1529 -0.2486 -0.1509
 1008MOL0     C32937   5.934  10.970   6.978  0.4061 -0.3418 -0.7020
 1008MOL0     C32938   5.790  11.019   6.997  0.0779  0.4392 -0.2768
 1008MOL0     C32939   5.685  10.919   7.056 -0.4780 -0.2566 -0.2062
 1008MOL0     C32940   5.548  10.938   7.004  0.9674  0.9484  0.7435
 1008MOL0     N32941   5.465  10.825   7.015  0.2796 -0.0254  0.0747
 1008MOL0     C32942   5.324  10.814   7.014  1.1944  0.1676 -0.0603
 1008MOL0     C32943   5.289  10.694   6.984 -0.0813  0.1400  0.0554
 1008MOL0     C32944   5.151  10.638   6.955  0.1256  0.2644  0.2840
 1008MOL0     C32945   5.049  10.684   7.065 -1.1268  0.4302 -0.0064
 1008MOL0     C32946   4.911  10.601   7.055 -0.3301 -0.6415  0.6892
 1008MOL0     C32947   4.813  10.643   7.161 -0.1307 -0.3160  0.0199
 1008MOL0     O32948   4.683  10.589   7.115 -0.9902  0.2445  0.0451
 1008MOL0     C32949   4.583  10.554   7.197 -0.4668 -0.2068  0.3493
 1008MOL0     C32950   4.469  10.509   7.131 -0.3503  0.6888 -0.1901
 1008MOL0     C32951   4.348  10.490   7.198  0.6208 -0.1410  0.4381
 1008MOL0     C32952   4.339  10.523   7.332 -0.1780  0.4213  0.6158
 1008MOL0     C32953   4.203  10.534   7.409  0.1351 -0.1826 -0.1752
 1008MOL0     O32954   4.205  10.524   7.546  0.2900 -0.4511 -0.3168
 1008MOL0     C32955   4.090  10.550   7.614  0.1764  0.2398  0.5869
 1008MOL0     C32956   4.063  10.477   7.725 -0.0236  0.5111 -1.0709
 1008MOL0     C32957   3.951  10.491   7.802 -0.2019 -0.1201 -0.1913
 1008MOL0     C32958   3.862  10.602   7.765 -0.3292  0.8601  0.0206
 1008MOL0     O32959   3.746  10.627   7.832  0.1806  0.6478  0.0020
 1008MOL0     C32960   3.683  10.519   7.907  0.2581  0.1616  0.3008
 1008MOL0     C32961   3.530  10.537   7.912 -0.4275 -0.2694  0.9401
 1008MOL0     C32962   3.463  10.446   8.008  0.9588  0.1025 -0.2637
 1008MOL0     C32963   3.515  10.299   7.987  0.2256 -0.0607 -0.1975
 1008MOL0     C32964   3.445  10.198   8.088 -0.7757 -0.0654  0.4647
 1008MOL0     C32965   3.501  10.054   8.098 -0.6626  0.0161  0.6847
 1008MOL0     C32966   3.501   9.979   7.959  0.4872 -0.4128 -0.0049
 1008MOL0     C32967   3.542   9.834   7.976 -0.1155  0.0457 -0.0155
 1008MOL0    Cl32968   3.678   9.829   8.097  0.3352  0.6400  0.4856
 1008MOL0     C32969   3.891  10.687   7.662 -0.7048 -0.0885  1.0395
 1008MOL0     C32970   4.000  10.653   7.583 -0.4077 -0.0626 -0.4781
 1008MOL0     O32971   4.105  10.525   7.339  0.2634  0.0722 -0.0894
 1008MOL0     C32972   4.458  10.576   7.399  0.0536 -0.3609  0.4469
 1008MOL0     C32973   4.579  10.592   7.327 -0.4470  0.5147 -0.0089
 1008MOL0     N32974   5.413  10.630   6.973 -0.3728 -0.6023  0.3036
 1008MOL0     N32975   5.519  10.703   6.984  0.7012 -0.3014 -0.8987
 1008MOL0     C32976   6.664  10.939   6.944 -0.9758  0.6362  0.4177
 1008MOL0     C32977   6.798  10.904   6.975 -1.0520  0.3472 -0.2231
 1008MOL0     C32978   7.176  10.700   7.183  0.3458  0.0743 -0.0066
 1008MOL0     C32979   7.307  10.737   7.209 -0.3629 -0.1031  0.6665
 1008MOL0     C32980   7.412  10.652   7.217  0.4314 -1.0068 -0.7652
 1008MOL0     C32981   7.400  10.511   7.195  0.0214 -0.1242 -0.4069
 1008MOL0     O32982   7.496  10.405   7.203  0.1810  0.2018 -0.2769
 1008MOL0     C32983   7.632  10.449   7.202  0.4737  0.5819  0.2218
 1008MOL0     C32984   7.744  10.342   7.216 -0.7647 -0.1732 -0.2783
 1008MOL0     C32985   7.767  10.243   7.098  0.3467 -0.2058 -0.7778
 1008MOL0     C32986   7.847  10.120   7.141  1.7331  0.3060  0.3842
 1008MOL0     C32987   7.978  10.149   7.194 -0.3433 -0.0356  0.6012
 1008MOL0     C32988   8.090  10.186   7.234  0.0368  0.4531  0.1766
 1008MOL0     C32989   7.263  10.467   7.171 -0.0732  0.4317  0.9062
 1008MOL0     C32990   7.156  10.561   7.168 -0.2426  0.4071  0.1978
 1008MOL0     H32991   6.745  10.741   7.267 -0.9739  0.5129  0.2099
 1008MOL0     H32992   6.520  10.800   7.213  0.3281 -2.0382 -0.5390
 1008MOL0     H32993   6.400  10.803   6.874 -2.2918 -0.4216  0.9583
 1008MOL0     H32994   6.417  10.972   6.822 -0.0162  1.7664  1.0712
 1008MOL0     H32995   6.176  10.836   6.924  1.0626 -0.0494  0.7361
 1008MOL0     H32996   6.209  10.941   6.782  0.3940  1.5114 -0.4692
 1008MOL0     H32997   6.240  11.145   6.956  0.4269 -1.0351 -1.3580
 1008MOL0     H32998   6.189  11.030   7.077  1.4736  1.5910  0.3658
 1008MOL0     H32999   6.000  11.161   7.032  0.9023  1.2946 -1.2152
 1008MOL0     H33000   6.020  11.120   6.852 -0.5593 -0.1839 -0.0996
 1008MOL0     H33001   5.963  10.906   7.062 -1.3110 -0.3394 -0.0681
 1008MOL0     H33002   5.934  10.910   6.887  1.9654 -0.2948 -0.7590
 1008MOL0     H33003   5.769  11.063   6.899  0.3615 -0.1992 -0.6267
 1008MOL0     H33004   5.792  11.092   7.079  2.7196  0.1464  0.0092
 1008MOL0     H33005   5.725  10.826   7.015  0.2278 -0.2192  0.3632
 1008MOL0     H33006   5.694  10.912   7.165  0.0719  0.6482 -0.1812
 1008MOL0     H33007   5.540  10.971   6.900  1.8418  1.6704  0.8943
 1008MOL0     H33008   5.507  11.022   7.061 -1.0252 -0.0843  0.9074
 1008MOL0     H33009   5.243  10.886   7.019 -1.7278 -2.7458 -1.4284
 1008MOL0     H33010   5.167  10.530   6.960 -0.5090  0.2262  3.1611
 1008MOL0     H33011   5.118  10.677   6.859 -1.6570  1.8565  1.4662
 1008MOL0     H33012   5.017  10.784   7.035 -2.2151  0.2778  0.5836
 1008MOL0     H33013   5.091  10.697   7.165 -1.9929  0.9799  0.2917
 1008MOL0     H33014   4.867  10.615   6.956 -1.9248 -2.3049  1.1174
 1008MOL0     H33015   4.943  10.498   7.071  0.2631 -0.2730  2.0219
 1008MOL0     H33016   4.807  10.752   7.175 -1.0697 -0.5590  1.7973
 1008MOL0     H33017   4.839  10.595   7.256 -0.0432  0.9275  0.6467
 1008MOL0     H33018   4.481  10.490   7.025  0.8632  0.5131 -0.0420
 1008MOL0     H33019   4.260  10.460   7.141  1.4208  0.2470 -1.0557
 1008MOL0     H33020   4.134  10.401   7.758  0.2274  1.2351  0.0833
 1008MOL0     H33021   3.927  10.422   7.883  4.4063 -0.0880  1.5147
 1008MOL0     H33022   3.727  10.502   8.006 -2.2317 -0.7264  1.3388
 1008MOL0     H33023   3.697  10.432   7.842 -4.1916 -0.2266 -0.4811
 1008MOL0     H33024   3.481  10.533   7.814 -1.6792  0.6023  1.5021
 1008MOL0     H33025   3.509  10.633   7.960 -0.2992 -0.9827  2.4715
 1008MOL0     H33026   3.355  10.441   7.995  1.1906 -2.8292 -1.9149
 1008MOL0     H33027   3.484  10.488   8.107  0.0308  1.2106 -0.5247
 1008MOL0     H33028   3.508  10.264   7.883 -1.3170  0.2908 -0.2386
 1008MOL0     H33029   3.620  10.288   8.015  1.5553  0.8214 -4.1196
 1008MOL0     H33030   3.341  10.183   8.058 -0.6684 -0.2123  0.1651
 1008MOL0     H33031   3.441  10.236   8.191 -0.8312 -0.6006  0.6651
 1008MOL0     H33032   3.437   9.995   8.164 -2.0485  0.2294 -0.4214
 1008MOL0     H33033   3.602  10.057   8.141 -0.0950 -1.8313 -0.4193
 1008MOL0     H33034   3.400   9.976   7.917  0.4347  1.1875 -0.0621
 1008MOL0     H33035   3.554  10.026   7.876 -0.4228 -2.3287 -1.7662
 1008MOL0     H33036   3.574   9.789   7.882  3.2371 -1.3567  1.6276
 1008MOL0     H33037   3.461   9.770   8.012  0.1217 -0.6220 -0.6392
 1008MOL0     H33038   3.821  10.764   7.634  0.7819  1.6166  1.8171
 1008MOL0     H33039   4.020  10.712   7.494  0.2599  2.5769  1.3175
 1008MOL0     H33040   4.436  10.614   7.499 -0.3005  1.3577 -0.2522
 1008MOL0     H33041   4.659  10.644   7.378 -0.0734  1.3400 -1.3672
 1008MOL0     H33042   6.639  10.992   6.852  0.1784  1.5539  0.6178
 1008MOL0     H33043   6.886  10.925   6.915  0.3156  1.4094  2.0378
 1008MOL0     H33044   7.333  10.841   7.228  1.1669 -0.9934  4.1477
 1008MOL0     H33045   7.511  10.697   7.223  0.5109 -1.2746  0.0366
 1008MOL0     H33046   7.648  10.515   7.287 -0.4648  1.2297 -0.0838
 1008MOL0     H33047   7.653  10.510   7.113  0.0952  0.9705  0.3922
 1008MOL0     H33048   7.839  10.391   7.240 -1.3218  1.0246 -0.4465
 1008MOL0     H33049   7.721  10.292   7.311  1.2809 -0.5194  0.0742
 1008MOL0     H33050   7.820  10.298   7.020 -0.5586  2.0819  0.1360
 1008MOL0     H33051   7.675  10.208   7.051  0.1384  2.3084 -2.4741
 1008MOL0     H33052   7.786  10.083   7.223  1.5873 -2.0878 -0.7211
 1008MOL0     H33053   7.849  10.044   7.062 -0.6208  0.5645 -0.0020
 1008MOL0     H33054   8.179  10.224   7.279 -1.2074  0.8443  2.4872
 1008MOL0     H33055   7.240  10.361   7.168 -0.5694  0.5407  0.7981
 1008MOL0     H33056   7.058  10.522   7.144 -0.1062  0.2018 -0.0356
 1009MOL0     O33057   0.845   2.678   3.481  0.5462 -0.2846 -0.7290
 1009MOL0     C33058   0.840   2.641   3.599 -0.2601  0.3765  0.7444
 1009MOL0     O33059   0.759   2.689   3.704 -0.5802 -0.0651  0.1620
 1009MOL0     C33060   0.706   2.815   3.692  0.6186  0.5602  0.9362
 1009MOL0     C33061   0.586   2.840   3.761 -0.1616 -0.0345  0.2571
 1009MOL0     C33062   0.525   2.964   3.751 -0.1691  0.8629 -0.2810
 1009MOL0     C33063   0.573   3.054   3.677 -0.0312 -0.2634  0.2191
 1009MOL0     O33064   0.505   3.176   3.680 -0.1264 -0.6720 -0.3080
 1009MOL0     C33065   0.507   3.246   3.555 -0.2122  0.9562 -0.5145
 1009MOL0     C33066   0.469   3.395   3.562  0.0567  0.3880  0.6239
 1009MOL0     C33067   0.324   3.412   3.587  0.3378 -0.0257 -0.2904
 1009MOL0     C33068   0.274   3.554   3.607 -0.4363  0.2809 -0.8298
 1009MOL0     C33069   0.124   3.566   3.621 -0.8108  0.7856 -0.4294
 1009MOL0     C33070   0.081   3.701   3.690  1.0883 -0.2896 -0.6784
 1009MOL0     C33071  -0.074   3.712   3.689 -0.9372 -0.1564  0.1956
 1009MOL0     C33072  -0.137   3.640   3.809  0.1739  0.3911 -1.0666
 1009MOL0     N33073  -0.142   3.722   3.934  0.0763 -0.0910  0.0962
 1009MOL0     C33074  -0.239   3.694   4.022 -0.2349 -0.8380  0.1265
 1009MOL0     C33075  -0.226   3.780   4.129  0.3257 -0.5098  0.9283
 1009MOL0     C33076  -0.326   3.788   4.247  0.4522  0.1553  0.3785
 1009MOL0     C33077  -0.432   3.895   4.229  0.7228  0.1360  0.1459
 1009MOL0     C33078  -0.541   3.901   4.339 -0.0237 -0.4680 -0.1694
 1009MOL0     C33079  -0.647   4.004   4.301 -1.1346  0.1118 -0.1399
 1009MOL0     O33080  -0.727   3.936   4.210 -0.0755 -0.2378  0.3049
 1009MOL0     C33081  -0.844   3.888   4.260  0.1549 -0.4552  0.5205
 1009MOL0     C33082  -0.944   3.969   4.306 -0.3998  0.0391 -0.3700
 1009MOL0     C33083  -1.065   3.918   4.354 -0.0535 -0.8735  0.2888
 1009MOL0     C33084  -1.087   3.779   4.375  1.2542  0.2632 -0.6490
 1009MOL0     C33085  -1.217   3.737   4.441 -0.5166  0.5825  0.1152
 1009MOL0     O33086  -1.240   3.603   4.424  0.0785  0.2562  0.2618
 1009MOL0     C33087  -1.355   3.546   4.475 -0.0177  0.2529  0.4933
 1009MOL0     C33088  -1.429   3.447   4.397 -0.0977 -0.2833  0.0200
 1009MOL0     C33089  -1.555   3.404   4.438  0.0311 -1.0901 -0.9863
 1009MOL0     C33090  -1.614   3.448   4.561  0.6828  0.7737 -0.3175
 1009MOL0     O33091  -1.740   3.401   4.586  0.6499 -0.1166 -0.7957
 1009MOL0     C33092  -1.811   3.445   4.705  0.5742  0.0322 -1.2671
 1009MOL0     C33093  -1.936   3.361   4.725  0.1421 -0.8272  0.1400
 1009MOL0     C33094  -2.039   3.417   4.823 -1.1184  0.1389 -0.2835
 1009MOL0     C33095  -2.157   3.326   4.834 -0.1348 -0.4046  0.8558
 1009MOL0     C33096  -2.126   3.192   4.891  0.4780 -0.0450 -0.7939
 1009MOL0     C33097  -2.247   3.112   4.940 -0.7788 -0.3041  0.7101
 1009MOL0     C33098  -2.200   3.004   5.041 -0.7876 -0.1110  0.4986
 1009MOL0     C33099  -2.289   2.877   5.030  0.2433 -0.2960  0.9563
 1009MOL0    Cl33100  -2.470   2.908   5.069 -0.0799 -0.0155 -0.2580
 1009MOL0     C33101  -1.544   3.541   4.638 -0.3998 -0.0602 -0.1558
 1009MOL0     C33102  -1.418   3.592   4.592  0.3956  0.0354  0.5399
 1009MOL0     O33103  -1.290   3.823   4.490 -1.1594  0.1757 -0.2068
 1009MOL0     C33104  -0.991   3.696   4.317 -0.2231 -0.0673 -0.6318
 1009MOL0     C33105  -0.869   3.747   4.268 -0.2060  0.5745  0.9302
 1009MOL0     N33106  -0.109   3.853   4.109 -0.3460 -0.0832 -0.4536
 1009MOL0     N33107  -0.057   3.814   3.992 -0.8005 -0.1597  0.5039
 1009MOL0     C33108   0.694   3.037   3.608  0.2129  0.2509 -0.3070
 1009MOL0     C33109   0.757   2.916   3.619 -0.6093  0.3026  0.1469
 1009MOL0     C33110   0.914   2.514   3.618 -0.0680 -0.0856  0.7757
 1009MOL0     C33111   0.939   2.480   3.752 -0.4459 -0.0975  0.4799
 1009MOL0     C33112   1.014   2.372   3.778 -0.5654 -0.5089 -0.4176
 1009MOL0     C33113   1.058   2.292   3.678 -0.4360  0.3926 -0.2109
 1009MOL0     O33114   1.135   2.181   3.716  0.2178 -0.3136 -0.0780
 1009MOL0     C33115   1.144   2.061   3.640  0.1831 -0.3095  0.0260
 1009MOL0     C33116   1.290   2.034   3.608 -0.3138  0.4128  0.1244
 1009MOL0     C33117   1.381   1.961   3.707 -0.2142 -0.0455 -0.3794
 1009MOL0     C33118   1.527   1.956   3.667  0.3633 -0.0668  0.2366
 1009MOL0     C33119   1.553   1.915   3.527 -0.1298 -0.6938 -0.3042
 1009MOL0     C33120   1.574   1.877   3.414  0.3395 -0.0229  1.0497
 1009MOL0     C33121   1.043   2.332   3.542  1.1558 -0.1997  0.0466
 1009MOL0     C33122   0.968   2.438   3.512  0.0971  0.4544 -0.1196
 1009MOL0     H33123   0.551   2.770   3.836 -0.0492  0.8422  1.1421
 1009MOL0     H33124   0.434   2.973   3.810  0.9619 -1.5823  2.1093
 1009MOL0     H33125   0.438   3.193   3.488  1.5487 -0.1860 -1.5211
 1009MOL0     H33126   0.600   3.246   3.497 -0.4210  2.5742 -0.8939
 1009MOL0     H33127   0.485   3.436   3.462 -0.4487  0.5612  0.6141
 1009MOL0     H33128   0.530   3.439   3.641  1.5366 -2.5015  1.2358
 1009MOL0     H33129   0.289   3.359   3.675 -1.1590 -0.8514 -1.3552
 1009MOL0     H33130   0.272   3.366   3.503  0.2888 -1.4664  0.4977
 1009MOL0     H33131   0.326   3.595   3.694  2.2963  3.0735 -3.5386
 1009MOL0     H33132   0.301   3.622   3.526 -5.1471  2.0995 -1.1511
 1009MOL0     H33133   0.084   3.480   3.676 -2.6437  1.1975 -1.0662
 1009MOL0     H33134   0.077   3.578   3.523 -0.8674  1.3302 -0.3343
 1009MOL0     H33135   0.130   3.786   3.642  3.5949 -1.4929 -0.4332
 1009MOL0     H33136   0.124   3.714   3.790 -0.5273 -0.2877  0.0374
 1009MOL0     H33137  -0.099   3.817   3.706  1.2212  0.4009  0.1192
 1009MOL0     H33138  -0.110   3.670   3.594 -0.2840  0.4021 -0.3108
 1009MOL0     H33139  -0.080   3.549   3.832 -2.3878 -0.9090  0.6677
 1009MOL0     H33140  -0.237   3.598   3.800 -0.0601 -1.3275  4.8958
 1009MOL0     H33141  -0.314   3.616   4.016 -2.5619  1.0046  2.6420
 1009MOL0     H33142  -0.274   3.822   4.336  0.6541 -0.2686  0.4241
 1009MOL0     H33143  -0.359   3.686   4.268  2.5303 -0.9015 -1.0891
 1009MOL0     H33144  -0.484   3.870   4.136 -0.5145 -3.3024  1.5647
 1009MOL0     H33145  -0.394   3.996   4.212  0.8438  0.2979  1.3246
 1009MOL0     H33146  -0.578   3.801   4.362  1.7510 -1.0963  0.1477
 1009MOL0     H33147  -0.492   3.938   4.430 -0.6440  0.8714 -0.3523
 1009MOL0     H33148  -0.608   4.092   4.249  1.3602 -2.0498 -2.1750
 1009MOL0     H33149  -0.699   4.043   4.389 -0.1040 -1.2665  1.1199
 1009MOL0     H33150  -0.928   4.075   4.324  1.1260 -0.4407  1.3440
 1009MOL0     H33151  -1.140   3.986   4.391 -3.3664 -3.0750 -1.8853
 1009MOL0     H33152  -1.389   3.404   4.307  1.1546  0.2876  0.2782
 1009MOL0     H33153  -1.620   3.348   4.371  1.2466  0.1824 -3.3466
 1009MOL0     H33154  -1.837   3.551   4.695  0.1410  0.1036  0.2952
 1009MOL0     H33155  -1.750   3.431   4.794 -1.6481 -0.7585  0.2344
 1009MOL0     H33156  -1.916   3.259   4.758  0.3038 -0.3515  1.5895
 1009MOL0     H33157  -1.991   3.359   4.630  3.3151 -0.5875 -1.8577
 1009MOL0     H33158  -2.075   3.514   4.788 -0.9801  1.1865  2.2815
 1009MOL0     H33159  -1.993   3.438   4.920 -2.9209  0.8784  0.4747
 1009MOL0     H33160  -2.223   3.381   4.902  0.2579  2.2857 -0.7857
 1009MOL0     H33161  -2.192   3.313   4.732  0.3967  0.5891  0.5375
 1009MOL0     H33162  -2.060   3.198   4.978 -0.0564 -0.2003 -0.3709
 1009MOL0     H33163  -2.077   3.133   4.813 -1.4170  1.5401 -3.3557
 1009MOL0     H33164  -2.292   3.068   4.850  2.2471 -2.0880 -0.0859
 1009MOL0     H33165  -2.317   3.178   4.991 -1.9957 -0.4670 -0.6887
 1009MOL0     H33166  -2.098   2.980   5.010 -0.4013  1.2870  0.5840
 1009MOL0     H33167  -2.179   3.037   5.144 -0.8523  1.3409  0.0712
 1009MOL0     H33168  -2.247   2.799   5.095  1.7760  1.4146  2.1411
 1009MOL0     H33169  -2.278   2.836   4.929  0.9635  1.7193  0.1719
 1009MOL0     H33170  -1.583   3.559   4.737  0.5009 -2.6056  0.7470
 1009MOL0     H33171  -1.366   3.655   4.663 -0.7708  0.7005  0.8376
 1009MOL0     H33172  -1.012   3.590   4.309 -0.5438  0.0969 -2.7085
 1009MOL0     H33173  -0.797   3.676   4.228 -2.0289 -1.1836  0.6303
 1009MOL0     H33174   0.750   3.116   3.559  2.2666  0.0028  1.5029
 1009MOL0     H33175   0.857   2.897   3.580 -0.2924  1.2250  0.4944
 1009MOL0     H33176   0.889   2.533   3.833 -2.2822 -1.7671  0.5323
 1009MOL0     H33177   1.043   2.339   3.878  0.4606  0.3641 -0.4155
 1009MOL0     H33178   1.085   2.071   3.548  2.1836  0.8260 -1.1881
 1009MOL0     H33179   1.106   1.980   3.704  1.5445  0.7205  2.2644
 1009MOL0     H33180   1.269   1.966   3.524 -0.5023 -0.0663  0.5527
 1009MOL0     H33181   1.329   2.132   3.579  2.6575 -0.3720  1.0863
 1009MOL0     H33182   1.352   1.857   3.720  3.2183 -1.3240 -1.5767
 1009MOL0     H33183   1.377   2.005   3.806 -3.6782  1.1529 -0.9422
 1009MOL0     H33184   1.579   2.051   3.684 -2.6399  1.7181  0.1590
 1009MOL0     H33185   1.575   1.875   3.722 -1.3589 -1.9973 -0.9751
 1009MOL0     H33186   1.585   1.840   3.315 -0.1675 -0.6730  1.2301
 1009MOL0     H33187   1.086   2.283   3.455  1.5778  1.4426 -0.7021
 1009MOL0     H33188   0.961   2.468   3.408  2.9888 -1.2237 -0.8954
 1010MOL0     O33189   9.752   2.345   4.826 -0.0588 -0.3781  0.9328
 1010MOL0     C33190   9.850   2.302   4.764  0.4116  0.2793  0.2357
 1010MOL0     O33191   9.841   2.228   4.648  0.0175 -0.2133 -0.1821
 1010MOL0     C33192   9.719   2.212   4.580  0.0902 -0.3099  0.0135
 1010MOL0     C33193   9.656   2.085   4.567  0.1348  0.1325  0.3699
 1010MOL0     C33194   9.534   2.075   4.493 -0.5199  0.2959 -0.5655
 1010MOL0     C33195   9.480   2.191   4.434 -0.4248  0.3416 -0.8456
 1010MOL0     O33196   9.362   2.167   4.381  0.4440 -0.1524  0.5942
 1010MOL0     C33197   9.296   2.257   4.292  0.5014  0.0337  0.0958
 1010MOL0     C33198   9.160   2.194   4.273 -0.8664 -0.1604 -0.3985
 1010MOL0     C33199   9.081   2.280   4.176  0.4508  0.7162 -0.1439
 1010MOL0     C33200   8.941   2.218   4.139 -0.2862  0.4394 -0.1329
 1010MOL0     C33201   8.866   2.328   4.061 -0.3073  0.0020  0.2143
 1010MOL0     C33202   8.731   2.276   4.028  1.4719 -0.4229 -0.0940
 1010MOL0     C33203   8.638   2.361   3.947 -0.4235 -0.1014 -0.5829
 1010MOL0     C33204   8.515   2.284   3.905 -0.0920 -0.4053  0.3580
 1010MOL0     N33205   8.428   2.365   3.816 -0.3267  0.5903 -0.4122
 1010MOL0     C33206   8.293   2.365   3.831  0.3447 -0.2427 -0.6173
 1010MOL0     C33207   8.253   2.403   3.709 -0.3698 -0.0667  0.5926
 1010MOL0     C33208   8.105   2.423   3.668 -0.4574 -1.0559  0.2057
 1010MOL0     C33209   8.036   2.290   3.634 -0.3035 -0.5340 -0.3218
 1010MOL0     C33210   7.891   2.301   3.588 -0.7971 -0.9938 -0.2690
 1010MOL0     C33211   7.840   2.177   3.544  0.2400  0.4835 -0.6192
 1010MOL0     O33212   7.715   2.205   3.475 -0.0319  0.0747  0.2367
 1010MOL0     C33213   7.619   2.105   3.469 -0.2076 -0.4210 -1.0737
 1010MOL0     C33214   7.492   2.151   3.446  0.4891 -1.0094 -0.9527
 1010MOL0     C33215   7.387   2.070   3.423 -0.3427  0.5264  0.6161
 1010MOL0     C33216   7.397   1.935   3.436 -0.8124 -1.0567 -0.6312
 1010MOL0     C33217   7.288   1.853   3.414  0.1227  0.0071  0.2686
 1010MOL0     O33218   7.184   1.904   3.342  0.0924  0.5787 -0.1811
 1010MOL0     C33219   7.066   1.823   3.317  0.0505  0.5912 -0.3163
 1010MOL0     C33220   6.942   1.886   3.322  0.6251 -0.3724 -0.4551
 1010MOL0     C33221   6.823   1.808   3.303 -0.1942 -0.3184 -0.0361
 1010MOL0     C33222   6.828   1.676   3.269  0.1871 -0.2726 -0.8240
 1010MOL0     O33223   6.709   1.615   3.243  0.7524  0.9816 -0.2619
 1010MOL0     C33224   6.698   1.487   3.310 -0.6384 -0.6602  0.3742
 1010MOL0     C33225   6.542   1.445   3.315  0.2780 -0.3108  0.2571
 1010MOL0     C33226   6.467   1.523   3.419  0.0836 -0.4657  0.1586
 1010MOL0     C33227   6.320   1.517   3.402 -0.0865  0.2485  0.0713
 1010MOL0     C33228   6.254   1.576   3.522  0.3100 -0.6947  0.2247
 1010MOL0     C33229   6.102   1.614   3.497 -0.7210 -0.5226 -0.8094
 1010MOL0     C33230   6.038   1.656   3.636 -0.5161 -0.3924  0.9614
 1010MOL0     C33231   5.887   1.657   3.618 -0.3828  0.0444  0.5795
 1010MOL0    Cl33232   5.823   1.506   3.566  0.6293  0.4715 -0.0312
 1010MOL0     C33233   6.951   1.611   3.261  1.0210 -0.0877 -0.1664
 1010MOL0     C33234   7.072   1.687   3.280 -0.4397  0.4524 -0.6441
 1010MOL0     O33235   7.299   1.744   3.460 -0.5318 -0.1219  0.3525
 1010MOL0     C33236   7.526   1.879   3.469  0.1291 -0.1192  0.4187
 1010MOL0     C33237   7.640   1.965   3.480  0.5459  1.0061  0.9119
 1010MOL0     N33238   8.356   2.412   3.623  0.0627 -0.3058  0.9575
 1010MOL0     N33239   8.461   2.381   3.685 -0.3842 -0.5166  0.7049
 1010MOL0     C33240   9.549   2.321   4.442 -0.1924 -0.9845 -0.2506
 1010MOL0     C33241   9.675   2.327   4.512  0.8956  0.9336  0.6030
 1010MOL0     C33242   9.988   2.338   4.810 -0.1010  0.4537 -0.4240
 1010MOL0     C33243  10.093   2.263   4.755  0.2456 -0.2196 -0.3194
 1010MOL0     C33244  10.211   2.289   4.805  0.2797  0.3576 -0.4359
 1010MOL0     C33245  10.242   2.384   4.896 -0.4164  0.1446  0.7944
 1010MOL0     O33246  10.375   2.414   4.918 -0.8353 -0.6589  0.1826
 1010MOL0     C33247  10.446   2.495   4.819 -0.3165  0.0748 -0.1557
 1010MOL0     C33248  10.570   2.557   4.877 -0.5340  0.4204 -0.5624
 1010MOL0     C33249  10.674   2.455   4.914  0.7399 -0.1836 -0.4000
 1010MOL0     C33250  10.767   2.498   5.024 -0.2249  0.3705 -0.0883
 1010MOL0     C33251  10.866   2.602   4.988  0.1537 -0.1270 -0.1882
 1010MOL0     C33252  10.946   2.691   4.961 -0.7910 -0.3607 -0.5290
 1010MOL0     C33253  10.137   2.464   4.952 -1.3460  0.1625  0.6143
 1010MOL0     C33254  10.008   2.429   4.920 -1.5646  0.1781 -0.2172
 1010MOL0     H33255   9.711   2.002   4.610 -2.1137 -1.7737 -0.1999
 1010MOL0     H33256   9.478   1.983   4.473  0.4920  0.1166 -2.8488
 1010MOL0     H33257   9.359   2.256   4.202 -1.5099 -3.7871 -1.4918
 1010MOL0     H33258   9.290   2.357   4.335  0.3065  0.1616 -0.2219
 1010MOL0     H33259   9.109   2.184   4.369 -3.6575  1.3761 -1.6144
 1010MOL0     H33260   9.175   2.093   4.234  0.0881 -0.1624 -0.0619
 1010MOL0     H33261   9.146   2.286   4.087  3.5471 -2.3677  1.6643
 1010MOL0     H33262   9.055   2.377   4.219 -2.1788 -0.1470  0.3874
 1010MOL0     H33263   8.940   2.123   4.086  0.3390  0.2525  0.1739
 1010MOL0     H33264   8.886   2.200   4.233 -2.4449 -1.5504 -1.6530
 1010MOL0     H33265   8.923   2.355   3.971  1.8288 -2.8161  0.5787
 1010MOL0     H33266   8.856   2.417   4.124  0.6884  0.1826  0.1407
 1010MOL0     H33267   8.677   2.267   4.123  0.3069  0.5834 -0.6208
 1010MOL0     H33268   8.742   2.177   3.984  0.2493 -1.4129  1.7282
 1010MOL0     H33269   8.610   2.447   4.008 -1.6989 -1.2783  0.5813
 1010MOL0     H33270   8.686   2.398   3.856 -2.7791  2.5744 -0.8847
 1010MOL0     H33271   8.467   2.253   3.998  1.4837  1.3744  1.8435
 1010MOL0     H33272   8.547   2.192   3.856  1.9629 -0.1261  1.0726
 1010MOL0     H33273   8.232   2.335   3.915 -0.7266  1.0444 -0.8888
 1010MOL0     H33274   8.096   2.490   3.582  4.6173 -3.4187 -2.6791
 1010MOL0     H33275   8.068   2.461   3.763  1.3457 -2.8021  1.7070
 1010MOL0     H33276   8.026   2.233   3.727  2.3431  2.0826  1.7360
 1010MOL0     H33277   8.101   2.240   3.562  3.4879  1.4080  1.4999
 1010MOL0     H33278   7.832   2.348   3.667 -0.2221  3.3346 -2.1005
 1010MOL0     H33279   7.898   2.369   3.502  0.9409 -0.6546  0.0946
 1010MOL0     H33280   7.808   2.118   3.631  2.6699 -0.8137 -0.5355
 1010MOL0     H33281   7.907   2.115   3.484 -0.6191 -0.5908 -0.4817
 1010MOL0     H33282   7.484   2.259   3.431  0.2960 -1.2340 -2.7415
 1010MOL0     H33283   7.291   2.114   3.397 -0.9224 -0.2418  1.4208
 1010MOL0     H33284   6.937   1.994   3.336 -0.0350 -0.5291  0.5889
 1010MOL0     H33285   6.724   1.847   3.323 -0.4933 -1.3637  0.6471
 1010MOL0     H33286   6.747   1.490   3.407  0.0071  2.7159  0.0631
 1010MOL0     H33287   6.750   1.410   3.251  2.7932  2.9752 -1.8175
 1010MOL0     H33288   6.524   1.339   3.335 -1.6693 -0.4060 -1.5870
 1010MOL0     H33289   6.491   1.465   3.220  1.8945 -1.2638 -0.8522
 1010MOL0     H33290   6.503   1.626   3.413  1.8130 -0.9705  1.1082
 1010MOL0     H33291   6.489   1.499   3.524  0.5824 -2.0865 -0.2790
 1010MOL0     H33292   6.294   1.571   3.310  1.3537  0.5753 -0.1687
 1010MOL0     H33293   6.286   1.414   3.391 -2.6726  0.8241  1.8093
 1010MOL0     H33294   6.300   1.672   3.550 -0.9369  0.3440 -1.1022
 1010MOL0     H33295   6.252   1.510   3.609  1.0203  0.8125  1.4285
 1010MOL0     H33296   6.050   1.529   3.452 -0.3102 -1.2971  0.1373
 1010MOL0     H33297   6.093   1.706   3.438  0.3551 -0.6502 -1.1922
 1010MOL0     H33298   6.061   1.582   3.713 -0.8583  1.7133  3.2250
 1010MOL0     H33299   6.085   1.750   3.667  0.2821 -0.7701  0.9060
 1010MOL0     H33300   5.858   1.730   3.541 -0.8604 -0.4192  0.3128
 1010MOL0     H33301   5.838   1.688   3.710  0.8968  0.9104  0.9918
 1010MOL0     H33302   6.956   1.505   3.239 -1.4356 -1.0345  3.0999
 1010MOL0     H33303   7.170   1.639   3.284 -0.7567 -0.2752 -1.3838
 1010MOL0     H33304   7.530   1.771   3.474 -1.7071 -0.1955  5.1420
 1010MOL0     H33305   7.739   1.926   3.497  0.4320 -0.0739 -0.6552
 1010MOL0     H33306   9.507   2.413   4.403  0.4882 -0.8098 -0.5785
 1010MOL0     H33307   9.733   2.418   4.508  0.1199  1.3811 -1.8848
 1010MOL0     H33308  10.074   2.190   4.677  1.3050 -0.2957 -0.5153
 1010MOL0     H33309  10.297   2.243   4.758  0.8002  0.8442  0.0260
 1010MOL0     H33310  10.373   2.571   4.789 -2.3101 -0.7688  2.1763
 1010MOL0     H33311  10.466   2.439   4.727  1.5510 -2.7161  1.7593
 1010MOL0     H33312  10.606   2.629   4.803  2.6803  0.9597  1.3308
 1010MOL0     H33313  10.547   2.625   4.959 -0.4083  1.6583 -1.5240
 1010MOL0     H33314  10.732   2.444   4.821  1.6156  3.7874 -0.5029
 1010MOL0     H33315  10.639   2.353   4.933 -1.1740  0.4475 -0.2610
 1010MOL0     H33316  10.703   2.529   5.108 -0.3580  0.3058 -0.1648
 1010MOL0     H33317  10.808   2.408   5.071 -2.5116 -1.3508 -1.2136
 1010MOL0     H33318  11.016   2.769   4.937 -0.2811  0.1936  2.3704
 1010MOL0     H33319  10.171   2.543   5.018 -0.7914  1.1856 -0.8444
 1010MOL0     H33320   9.922   2.485   4.956 -1.2898  0.5957 -0.1916
 1011MOL0     O33321   7.260   8.852   1.052  0.2867 -0.1644  0.6666
 1011MOL0     C33322   7.348   8.874   0.972  0.8838 -0.1559  0.2457
 1011MOL0     O33323   7.447   8.962   0.994  0.0892  0.1449 -0.6993
 1011MOL0     C33324   7.439   9.034   1.110  1.0060  0.1012 -1.0445
 1011MOL0     C33325   7.332   9.130   1.124  0.5426  0.1077 -0.1492
 1011MOL0     C33326   7.329   9.202   1.252 -0.2262 -0.1650  1.0962
 1011MOL0     C33327   7.426   9.178   1.349  0.6829  0.4622  0.1790
 1011MOL0     O33328   7.414   9.257   1.460 -0.5293  0.1973  0.0210
 1011MOL0     C33329   7.483   9.226   1.584 -0.6737  0.7095  0.1333
 1011MOL0     C33330   7.437   9.316   1.695 -0.5401 -0.0135  0.1509
 1011MOL0     C33331   7.297   9.284   1.745  0.0850 -0.3430 -0.8387
 1011MOL0     C33332   7.290   9.161   1.836  0.2154 -0.7390  0.9301
 1011MOL0     C33333   7.142   9.134   1.866 -0.1832  1.0404  0.0609
 1011MOL0     C33334   7.084   9.251   1.951 -0.0320  0.3377  0.2056
 1011MOL0     C33335   6.939   9.205   1.996  0.0463 -0.0295  0.0265
 1011MOL0     C33336   6.924   9.071   2.068  0.3948  0.8814  0.0841
 1011MOL0     N33337   6.987   9.065   2.199  1.2773 -0.3798 -0.2246
 1011MOL0     C33338   6.982   9.170   2.290  0.9353  0.8430  0.7363
 1011MOL0     C33339   7.043   9.129   2.399 -0.2293 -1.3129  0.0389
 1011MOL0     C33340   7.077   9.221   2.519  0.6731  0.8226 -0.5008
 1011MOL0     C33341   7.050   9.157   2.652  0.6978  0.4183  0.2811
 1011MOL0     C33342   7.124   9.238   2.751  0.2497  0.1497 -0.2308
 1011MOL0     C33343   7.123   9.189   2.899 -0.0653 -0.2999  0.0740
 1011MOL0     O33344   6.994   9.135   2.939 -0.5543  0.5771  0.3719
 1011MOL0     C33345   6.915   9.231   3.009 -0.6983 -0.4096 -0.6322
 1011MOL0     C33346   6.926   9.368   2.992  0.0348  0.8165 -0.0979
 1011MOL0     C33347   6.829   9.456   3.049 -0.4451 -0.1263 -0.0620
 1011MOL0     C33348   6.724   9.412   3.128  0.7246  0.1283  0.7635
 1011MOL0     C33349   6.603   9.508   3.163 -0.7452  0.0566 -0.1932
 1011MOL0     O33350   6.596   9.634   3.101 -0.9477  0.2443 -0.0844
 1011MOL0     C33351   6.494   9.720   3.117 -0.2698  0.7680  0.7609
 1011MOL0     C33352   6.452   9.776   2.995 -0.4641 -0.5525 -0.8938
 1011MOL0     C33353   6.365   9.882   3.013  0.5806 -0.1635 -0.9290
 1011MOL0     C33354   6.303   9.914   3.142 -0.4074  0.1246  0.3922
 1011MOL0     O33355   6.198  10.003   3.159 -0.4949  0.2705 -0.5411
 1011MOL0     C33356   6.126  10.064   3.054 -0.7571 -0.4485  0.3213
 1011MOL0     C33357   6.016  10.156   3.105 -0.5047 -0.1645  1.0627
 1011MOL0     C33358   5.880  10.126   3.049  0.3139  0.6854 -0.4814
 1011MOL0     C33359   5.792  10.249   3.086  1.1795  0.4092 -0.5773
 1011MOL0     C33360   5.652  10.254   3.021  0.4665  0.2747 -0.1541
 1011MOL0     C33361   5.558  10.345   3.104  0.3587 -0.1973  0.8581
 1011MOL0     C33362   5.425  10.362   3.019 -0.4907  0.1038 -0.5997
 1011MOL0     C33363   5.357  10.496   3.055  0.2128  0.5415 -0.7770
 1011MOL0    Cl33364   5.385  10.544   3.230 -0.2107 -0.2240  0.0260
 1011MOL0     C33365   6.347   9.850   3.254 -0.3319 -0.5359  0.0582
 1011MOL0     C33366   6.446   9.757   3.243 -0.9376 -0.3660 -0.0421
 1011MOL0     O33367   6.523   9.454   3.233  0.1867 -0.6298 -0.9027
 1011MOL0     C33368   6.721   9.270   3.153  0.0921 -0.5623 -0.0751
 1011MOL0     C33369   6.814   9.183   3.098  0.9196  0.0001 -0.8032
 1011MOL0     N33370   7.065   8.990   2.381  0.6248  0.2224 -0.2959
 1011MOL0     N33371   7.038   8.956   2.255  0.0973  0.8128  0.5555
 1011MOL0     C33372   7.533   9.096   1.325 -0.3873  0.4078  0.3118
 1011MOL0     C33373   7.540   9.021   1.208  0.0275 -0.5285 -0.1838
 1011MOL0     C33374   7.364   8.795   0.845  0.3391  1.1308  0.6873
 1011MOL0     C33375   7.445   8.841   0.739 -0.4914  0.4858  0.6085
 1011MOL0     C33376   7.461   8.760   0.631 -0.2907  0.7603 -0.0892
 1011MOL0     C33377   7.417   8.623   0.619  0.5142 -0.5357  0.0830
 1011MOL0     O33378   7.454   8.524   0.527  0.2531  0.1181 -0.3373
 1011MOL0     C33379   7.583   8.546   0.464 -0.1472  0.4901 -0.2860
 1011MOL0     C33380   7.606   8.417   0.388  0.3549  0.6735  0.3468
 1011MOL0     C33381   7.563   8.416   0.235  1.1439  0.5967 -0.1304
 1011MOL0     C33382   7.648   8.486   0.134  0.4112 -0.6109  0.1941
 1011MOL0     C33383   7.790   8.471   0.153 -0.7536  0.0204 -0.2654
 1011MOL0     C33384   7.916   8.459   0.168  0.0259 -0.1723 -0.5121
 1011MOL0     C33385   7.328   8.582   0.725 -0.3363  0.3536  0.4437
 1011MOL0     C33386   7.305   8.662   0.832 -0.2036 -0.1656 -0.3129
 1011MOL0     H33387   7.254   9.136   1.050  0.0771  1.3651  0.4198
 1011MOL0     H33388   7.247   9.268   1.280 -0.0688 -0.4229  2.2093
 1011MOL0     H33389   7.592   9.240   1.578 -0.5144 -1.0286 -1.7335
 1011MOL0     H33390   7.460   9.125   1.617 -0.6734  0.9399  0.8674
 1011MOL0     H33391   7.435   9.424   1.674  0.1404  0.2676  1.4085
 1011MOL0     H33392   7.502   9.317   1.783 -2.5655  0.2396  1.7195
 1011MOL0     H33393   7.232   9.266   1.658  1.1449 -0.0770 -1.7130
 1011MOL0     H33394   7.256   9.370   1.798  1.6649  1.2162 -2.0469
 1011MOL0     H33395   7.336   9.074   1.789 -0.4355 -2.4320  3.2131
 1011MOL0     H33396   7.344   9.177   1.930  2.1244 -0.9574 -0.0780
 1011MOL0     H33397   7.147   9.041   1.922 -3.9139  0.2857 -0.6134
 1011MOL0     H33398   7.078   9.118   1.780 -1.5976  0.3754  1.1962
 1011MOL0     H33399   7.069   9.343   1.894  0.9156  1.4937  1.7425
 1011MOL0     H33400   7.143   9.281   2.038  0.2157 -0.4154  0.3100
 1011MOL0     H33401   6.899   9.286   2.058 -0.4195 -2.0369  2.5293
 1011MOL0     H33402   6.886   9.195   1.901  0.8395 -2.2793 -0.2470
 1011MOL0     H33403   6.962   8.990   2.005  1.3078  0.0766  1.6239
 1011MOL0     H33404   6.818   9.052   2.089  0.6668 -0.6224  0.1677
 1011MOL0     H33405   6.944   9.271   2.274 -1.7094  0.2001  2.3064
 1011MOL0     H33406   7.020   9.314   2.512  1.2932  1.2775  0.2249
 1011MOL0     H33407   7.183   9.244   2.504  1.4604 -2.0680  0.0088
 1011MOL0     H33408   7.086   9.054   2.641 -0.3178  0.2928 -3.1527
 1011MOL0     H33409   6.943   9.162   2.669  0.5589  0.4279 -0.5529
 1011MOL0     H33410   7.227   9.246   2.715  0.7515  1.7226  1.4204
 1011MOL0     H33411   7.094   9.343   2.747 -2.0012 -0.4111  0.5552
 1011MOL0     H33412   7.165   9.264   2.967  2.3181 -2.1787  0.8302
 1011MOL0     H33413   7.190   9.103   2.906  0.0152 -0.4438 -1.9061
 1011MOL0     H33414   6.998   9.407   2.920 -0.8446  1.2028 -0.7827
 1011MOL0     H33415   6.823   9.564   3.038 -1.3081 -0.1977 -0.3136
 1011MOL0     H33416   6.500   9.765   2.899  1.5128  2.7083 -0.4172
 1011MOL0     H33417   6.325   9.929   2.924 -2.5475 -2.3171 -0.8209
 1011MOL0     H33418   6.082   9.997   2.979 -1.6942 -0.4335  0.8412
 1011MOL0     H33419   6.197  10.118   2.990  0.6091  0.7465  2.7115
 1011MOL0     H33420   6.050  10.252   3.063 -1.0859 -0.4579 -0.1338
 1011MOL0     H33421   6.011  10.153   3.214 -3.2069  0.1717  1.0050
 1011MOL0     H33422   5.853  10.024   3.078  0.1949  0.3157 -1.8163
 1011MOL0     H33423   5.884  10.139   2.940  2.0210  1.0086 -0.4020
 1011MOL0     H33424   5.779  10.242   3.194 -1.2269  2.1074 -0.6960
 1011MOL0     H33425   5.841  10.344   3.062  0.1114  0.6175 -2.0384
 1011MOL0     H33426   5.620  10.152   2.998  3.1284 -0.7438  0.2630
 1011MOL0     H33427   5.672  10.289   2.919 -0.4222 -1.2642 -0.9014
 1011MOL0     H33428   5.608  10.442   3.106 -0.3384  0.1609  1.6641
 1011MOL0     H33429   5.547  10.309   3.207  1.9352  2.5165  2.0601
 1011MOL0     H33430   5.448  10.353   2.912 -2.5821  0.3750 -1.1251
 1011MOL0     H33431   5.358  10.279   3.045  1.4109 -1.4177 -0.2988
 1011MOL0     H33432   5.250  10.496   3.031  0.2688 -0.7437 -1.0795
 1011MOL0     H33433   5.392  10.573   2.986  1.4053  0.0561 -0.7373
 1011MOL0     H33434   6.321   9.885   3.353  0.1839 -0.4796  0.1792
 1011MOL0     H33435   6.501   9.727   3.333 -2.6330  1.1551  1.5892
 1011MOL0     H33436   6.640   9.229   3.213 -1.8142  2.5614 -0.2753
 1011MOL0     H33437   6.794   9.078   3.111 -1.5429  0.0662 -3.0973
 1011MOL0     H33438   7.615   9.092   1.396 -1.5433 -0.4901  1.6516
 1011MOL0     H33439   7.622   8.954   1.187  2.2136  0.7485  3.2751
 1011MOL0     H33440   7.487   8.939   0.759 -0.7921  0.5886  0.7407
 1011MOL0     H33441   7.519   8.794   0.546 -0.9964  2.5194  0.1004
 1011MOL0     H33442   7.665   8.570   0.532  1.9386 -0.0760 -2.4657
 1011MOL0     H33443   7.584   8.620   0.384  1.9431  1.1485  0.2837
 1011MOL0     H33444   7.710   8.384   0.389  0.3956  0.7614  2.2321
 1011MOL0     H33445   7.554   8.342   0.448  1.0672  1.3942  1.9300
 1011MOL0     H33446   7.460   8.453   0.233  0.8080 -0.3119 -0.2558
 1011MOL0     H33447   7.556   8.309   0.212 -0.2386  0.7186 -0.3628
 1011MOL0     H33448   7.629   8.437   0.038 -1.7554 -0.0168  0.2648
 1011MOL0     H33449   7.623   8.592   0.146 -0.4968 -0.8867  0.8538
 1011MOL0     H33450   8.023   8.453   0.165  0.1578 -0.1971  1.8572
 1011MOL0     H33451   7.272   8.490   0.729  0.9903 -0.5103 -0.1313
 1011MOL0     H33452   7.238   8.622   0.907  1.0261 -2.6587 -0.4535
 1012MOL0     O33453   2.330   3.459   0.117  0.0474 -0.4624  0.6400
 1012MOL0     C33454   2.322   3.340   0.098 -0.3409 -0.3734 -0.0007
 1012MOL0     O33455   2.216   3.261   0.128 -0.7191  0.2442  0.7161
 1012MOL0     C33456   2.132   3.325   0.206 -0.2607  0.4240  0.4346
 1012MOL0     C33457   2.013   3.368   0.144 -0.0557 -0.7231  0.6884
 1012MOL0     C33458   1.916   3.426   0.235  0.4166 -0.2643  0.5583
 1012MOL0     C33459   1.934   3.426   0.376 -0.0218 -0.3591 -0.6077
 1012MOL0     O33460   1.843   3.476   0.461  1.0863  0.0402  0.2402
 1012MOL0     C33461   1.712   3.528   0.409  0.1640 -0.0112  0.1697
 1012MOL0     C33462   1.647   3.573   0.537  0.1900 -0.3907 -0.4026
 1012MOL0     C33463   1.510   3.635   0.491 -1.3814 -1.3598 -0.3619
 1012MOL0     C33464   1.435   3.683   0.617 -0.1342  0.3593  0.7745
 1012MOL0     C33465   1.288   3.698   0.571 -0.0665 -0.0480 -0.2297
 1012MOL0     C33466   1.191   3.706   0.687  0.4031  0.7326 -0.3205
 1012MOL0     C33467   1.044   3.719   0.649  0.1289  0.6878  0.1756
 1012MOL0     C33468   0.990   3.584   0.607  1.0315  0.7436  0.5796
 1012MOL0     N33469   0.837   3.589   0.617  0.4803  0.0905  0.2313
 1012MOL0     C33470   0.770   3.591   0.732  0.5109  0.0767  0.2459
 1012MOL0     C33471   0.637   3.577   0.694  0.1379 -0.0021 -0.0651
 1012MOL0     C33472   0.523   3.599   0.787 -0.2016  0.0945  0.2407
 1012MOL0     C33473   0.466   3.741   0.788 -0.1805 -0.0687 -0.9014
 1012MOL0     C33474   0.429   3.809   0.657 -0.3347 -0.4500  0.4336
 1012MOL0     C33475   0.318   3.734   0.584  0.0829 -0.3362  0.4614
 1012MOL0     O33476   0.195   3.726   0.664 -0.4301  0.1067 -0.4006
 1012MOL0     C33477   0.077   3.739   0.598  0.5747  1.0963 -0.0778
 1012MOL0     C33478   0.063   3.680   0.470  1.1935 -1.0305  0.2788
 1012MOL0     C33479  -0.051   3.715   0.404  0.4099  0.1896  0.8325
 1012MOL0     C33480  -0.156   3.786   0.452 -0.1734  0.6050  0.6459
 1012MOL0     C33481  -0.276   3.821   0.373 -0.0041 -0.3069  0.8654
 1012MOL0     O33482  -0.382   3.889   0.432  0.2169 -0.4673  0.2119
 1012MOL0     C33483  -0.509   3.912   0.363  0.0745  0.2695  0.4787
 1012MOL0     C33484  -0.563   3.816   0.266 -0.0499 -0.7877 -0.3094
 1012MOL0     C33485  -0.692   3.831   0.214  0.2708 -0.2172  0.8985
 1012MOL0     C33486  -0.772   3.940   0.259  0.1699  0.9955  0.4981
 1012MOL0     O33487  -0.906   3.951   0.225  0.1218 -0.5367 -0.1024
 1012MOL0     C33488  -0.987   3.839   0.209 -0.4488  0.8768  0.1483
 1012MOL0     C33489  -1.122   3.884   0.175 -0.5123  0.8477 -0.3042
 1012MOL0     C33490  -1.220   3.762   0.141 -1.1286 -0.1367  0.8560
 1012MOL0     C33491  -1.366   3.801   0.107 -0.4541 -0.6349 -0.0969
 1012MOL0     C33492  -1.445   3.840   0.237  0.4686  0.0172 -0.1386
 1012MOL0     C33493  -1.573   3.894   0.197 -0.0827 -0.1438 -0.3088
 1012MOL0     C33494  -1.659   3.943   0.312 -0.2658 -0.0795  0.3677
 1012MOL0     C33495  -1.803   3.956   0.279 -0.3481  0.3045 -0.1606
 1012MOL0    Cl33496  -1.865   3.796   0.215 -0.4482 -0.1406  0.1932
 1012MOL0     C33497  -0.715   4.041   0.340  0.1446  0.4037 -0.5514
 1012MOL0     C33498  -0.586   4.022   0.398 -0.8143 -1.1300 -0.0269
 1012MOL0     O33499  -0.279   3.786   0.260 -0.2011  0.8625 -0.5548
 1012MOL0     C33500  -0.145   3.839   0.579  0.5387  0.0078 -0.1664
 1012MOL0     C33501  -0.030   3.819   0.650 -0.3524  0.9605  0.6253
 1012MOL0     N33502   0.636   3.566   0.557  0.4192 -0.1664  0.8249
 1012MOL0     N33503   0.753   3.570   0.514 -0.1318  0.8291 -0.1667
 1012MOL0     C33504   2.047   3.371   0.429  0.4659  0.4237 -0.1414
 1012MOL0     C33505   2.153   3.320   0.345 -0.8316 -0.4395 -0.5527
 1012MOL0     C33506   2.443   3.276   0.037  0.4101 -0.0108  0.2565
 1012MOL0     C33507   2.447   3.136   0.015 -0.3293  1.3485 -0.4779
 1012MOL0     C33508   2.562   3.077  -0.051  0.5643  0.5673 -0.2721
 1012MOL0     C33509   2.671   3.152  -0.082  0.7891  0.4511 -0.0427
 1012MOL0     O33510   2.780   3.107  -0.143 -0.0643 -0.0423 -0.2178
 1012MOL0     C33511   2.811   2.963  -0.145 -0.1257  0.1588 -0.0290
 1012MOL0     C33512   2.954   2.942  -0.189 -0.3131 -0.3627 -0.1634
 1012MOL0     C33513   2.983   3.017  -0.316 -0.2072  0.7786  0.1388
 1012MOL0     C33514   3.129   3.002  -0.347 -0.5087  0.0442 -0.4813
 1012MOL0     C33515   3.161   3.010  -0.491  0.0247 -0.5565  0.2246
 1012MOL0     C33516   3.171   3.025  -0.611 -0.0630  0.2749  0.0463
 1012MOL0     C33517   2.662   3.290  -0.074 -0.5271 -0.5043 -0.0803
 1012MOL0     C33518   2.558   3.354  -0.004 -0.0885 -0.1149  0.0855
 1012MOL0     H33519   1.990   3.345   0.041  1.4542 -2.7088  0.7334
 1012MOL0     H33520   1.822   3.451   0.187  1.3276 -0.8952 -1.6854
 1012MOL0     H33521   1.657   3.447   0.360  0.3584 -0.9519  1.4605
 1012MOL0     H33522   1.726   3.615   0.344 -1.6853 -0.3839 -0.7974
 1012MOL0     H33523   1.708   3.643   0.595 -1.5235  0.0291  1.0008
 1012MOL0     H33524   1.629   3.486   0.601 -1.8955  0.0314 -0.3535
 1012MOL0     H33525   1.453   3.556   0.442 -2.5077 -0.3993 -0.6419
 1012MOL0     H33526   1.528   3.717   0.421 -0.4260 -0.3211  1.0462
 1012MOL0     H33527   1.426   3.612   0.700 -0.4948 -1.3804 -0.6777
 1012MOL0     H33528   1.463   3.786   0.641 -1.3313  1.2005 -1.2210
 1012MOL0     H33529   1.264   3.617   0.502  2.8788 -1.4829  0.2475
 1012MOL0     H33530   1.284   3.796   0.522 -0.7587 -0.8531 -1.8596
 1012MOL0     H33531   1.224   3.790   0.751  1.5758 -0.2099  0.3550
 1012MOL0     H33532   1.199   3.611   0.741 -3.3677 -0.3823 -1.4185
 1012MOL0     H33533   0.989   3.756   0.736  0.5453 -0.4044  0.9241
 1012MOL0     H33534   1.044   3.782   0.560 -0.1383 -1.4686 -1.4415
 1012MOL0     H33535   1.025   3.509   0.678  0.0271 -1.5840 -1.2256
 1012MOL0     H33536   1.024   3.562   0.505  0.0464  1.4205  0.0815
 1012MOL0     H33537   0.809   3.614   0.831  1.8076 -0.7444 -0.0404
 1012MOL0     H33538   0.551   3.571   0.889 -0.0813 -0.2601  0.1125
 1012MOL0     H33539   0.442   3.535   0.749  1.5099 -2.2211  0.2792
 1012MOL0     H33540   0.544   3.801   0.836  1.1403 -1.2025 -1.5810
 1012MOL0     H33541   0.382   3.743   0.858  2.0747 -2.5074  2.1786
 1012MOL0     H33542   0.389   3.911   0.668 -1.5693 -0.8475 -0.1099
 1012MOL0     H33543   0.508   3.816   0.582 -1.2642  1.9693 -0.4388
 1012MOL0     H33544   0.362   3.636   0.560  1.9601  0.4763  0.3688
 1012MOL0     H33545   0.300   3.786   0.490  1.1713 -1.7955 -0.6118
 1012MOL0     H33546   0.140   3.622   0.421  2.3727  1.0641 -0.4971
 1012MOL0     H33547  -0.046   3.677   0.303  0.2788  1.9824  0.1187
 1012MOL0     H33548  -0.504   3.727   0.249 -0.1035 -0.0856 -5.9812
 1012MOL0     H33549  -0.741   3.763   0.145  0.3963 -0.1711  0.7627
 1012MOL0     H33550  -0.983   3.777   0.300  1.8449 -1.9943 -1.6996
 1012MOL0     H33551  -0.939   3.769   0.139 -1.2440  0.8727 -0.3985
 1012MOL0     H33552  -1.111   3.956   0.094  0.6233  0.5273 -0.4647
 1012MOL0     H33553  -1.171   3.937   0.257 -2.9553  1.3892 -2.0132
 1012MOL0     H33554  -1.225   3.690   0.223 -1.9773  1.6362  2.4139
 1012MOL0     H33555  -1.176   3.713   0.053  0.3960  3.2155 -0.3989
 1012MOL0     H33556  -1.374   3.888   0.041 -0.8876  1.1768  2.2013
 1012MOL0     H33557  -1.430   3.724   0.062 -1.9527 -0.1764  1.1667
 1012MOL0     H33558  -1.395   3.913   0.302  0.8675  1.4249 -1.9319
 1012MOL0     H33559  -1.456   3.750   0.297 -2.3949  0.3246 -0.0624
 1012MOL0     H33560  -1.629   3.826   0.131 -2.4581  0.3197  1.1114
 1012MOL0     H33561  -1.564   3.973   0.122 -4.1846  0.4681 -0.4252
 1012MOL0     H33562  -1.644   3.876   0.397 -0.3654 -0.7727 -0.1461
 1012MOL0     H33563  -1.626   4.042   0.344 -0.1832 -0.5220  1.7085
 1012MOL0     H33564  -1.806   4.046   0.217 -2.1983 -1.0302 -2.1024
 1012MOL0     H33565  -1.853   3.986   0.372 -0.6876 -0.4331 -0.0965
 1012MOL0     H33566  -0.788   4.119   0.359  1.3362  1.2380  0.7902
 1012MOL0     H33567  -0.551   4.103   0.460  0.2760 -0.5508 -1.3489
 1012MOL0     H33568  -0.224   3.902   0.620 -0.0284 -0.7306 -0.1086
 1012MOL0     H33569  -0.022   3.869   0.747  2.7911 -0.8617  1.4514
 1012MOL0     H33570   2.055   3.349   0.535  1.2728 -0.3408 -0.3442
 1012MOL0     H33571   2.239   3.283   0.399 -0.0163  0.9352 -0.8576
 1012MOL0     H33572   2.366   3.071   0.046  1.3546 -1.8990 -2.2945
 1012MOL0     H33573   2.556   2.970  -0.071  0.3867  0.6567 -0.7206
 1012MOL0     H33574   2.761   2.898  -0.216  3.1555 -2.2983 -0.3476
 1012MOL0     H33575   2.803   2.909  -0.050  4.0314 -1.4942 -0.4067
 1012MOL0     H33576   3.013   2.974  -0.102  0.4221 -0.0650 -0.7580
 1012MOL0     H33577   2.969   2.834  -0.189  0.2122 -0.4043  3.2683
 1012MOL0     H33578   2.956   3.123  -0.312 -1.6591  0.4952 -1.3083
 1012MOL0     H33579   2.918   2.978  -0.394  0.8879 -0.4325 -0.2048
 1012MOL0     H33580   3.174   3.087  -0.295 -0.2125 -0.7300  0.5585
 1012MOL0     H33581   3.180   2.914  -0.306  1.4916  1.0310 -0.7350
 1012MOL0     H33582   3.177   3.017  -0.718  1.4728  0.9473  0.0561
 1012MOL0     H33583   2.747   3.344  -0.114 -1.6334  0.6220 -1.0165
 1012MOL0     H33584   2.546   3.460   0.017  0.1409 -0.5798  2.9655
 1013MOL0     O33585   3.702   1.117   5.003 -0.0622  0.6440  0.4521
 1013MOL0     C33586   3.745   0.996   5.007 -0.1354 -0.5094  0.7962
 1013MOL0     O33587   3.671   0.885   4.988  0.7422 -0.5529  0.4591
 1013MOL0     C33588   3.532   0.891   5.013 -0.6666  0.1262  0.4965
 1013MOL0     C33589   3.474   0.964   5.111  0.2229 -0.1020 -0.3338
 1013MOL0     C33590   3.336   0.968   5.129  1.0307  0.0149 -0.3005
 1013MOL0     C33591   3.252   0.885   5.046 -0.5220 -0.1691 -0.3825
 1013MOL0     O33592   3.116   0.877   5.070  0.0351 -0.1653  0.5015
 1013MOL0     C33593   3.032   0.891   4.951 -0.7133  0.0243 -0.2270
 1013MOL0     C33594   2.962   0.765   4.919  0.9016  0.2234  0.6013
 1013MOL0     C33595   2.884   0.701   5.031 -0.0719 -0.0760 -1.1383
 1013MOL0     C33596   2.795   0.586   4.973 -0.2188  0.1404 -0.6742
 1013MOL0     C33597   2.885   0.460   4.962 -0.6750  0.1378 -0.0548
 1013MOL0     C33598   2.781   0.346   4.905 -0.6118 -0.8100  0.2162
 1013MOL0     C33599   2.759   0.356   4.757 -0.8228 -1.0160 -0.1612
 1013MOL0     C33600   2.750   0.221   4.696 -0.3148 -0.2316  0.4983
 1013MOL0     N33601   2.642   0.132   4.757  0.1183 -1.1631  0.4704
 1013MOL0     C33602   2.648   0.029   4.845 -0.0125  0.6853 -0.5533
 1013MOL0     C33603   2.515  -0.009   4.850 -0.3575 -0.9532 -0.1443
 1013MOL0     C33604   2.450  -0.125   4.923  0.2260  0.1988  0.0007
 1013MOL0     C33605   2.516  -0.270   4.910  0.2472  0.1959 -0.3607
 1013MOL0     C33606   2.439  -0.371   4.993  0.3890 -0.1957  0.1877
 1013MOL0     C33607   2.298  -0.389   4.945  0.1836  0.6372 -0.5293
 1013MOL0     O33608   2.262  -0.519   5.005  0.8174 -0.3991 -1.2065
 1013MOL0     C33609   2.133  -0.563   5.002  0.9550  0.7093 -0.0521
 1013MOL0     C33610   2.024  -0.500   4.945  0.5204  0.6407 -0.0003
 1013MOL0     C33611   1.892  -0.539   4.977  0.6603  0.0762  0.8000
 1013MOL0     C33612   1.868  -0.636   5.071 -0.1103  0.3682  0.7444
 1013MOL0     C33613   1.731  -0.687   5.085 -0.6168  0.9533  0.1771
 1013MOL0     O33614   1.635  -0.600   5.033 -0.2133  0.1320  0.5912
 1013MOL0     C33615   1.508  -0.635   5.007 -0.2764 -0.1439 -0.5118
 1013MOL0     C33616   1.446  -0.764   5.026  0.8630 -0.4331 -0.7137
 1013MOL0     C33617   1.305  -0.776   5.003  0.2944 -0.4968  0.1817
 1013MOL0     C33618   1.227  -0.665   4.956 -0.0729  0.1075  0.1589
 1013MOL0     O33619   1.092  -0.643   4.935  0.8053  0.1457  0.1595
 1013MOL0     C33620   1.007  -0.739   5.008 -1.0421 -0.6373  0.3829
 1013MOL0     C33621   0.861  -0.701   5.009 -0.7871  0.4429 -0.2516
 1013MOL0     C33622   0.766  -0.801   5.098  0.2642 -0.1924  0.1635
 1013MOL0     C33623   0.613  -0.771   5.071  0.3513  0.2009  0.5670
 1013MOL0     C33624   0.512  -0.843   5.170  0.0530 -0.0331  0.3184
 1013MOL0     C33625   0.368  -0.832   5.118 -0.0863  0.2253 -0.6255
 1013MOL0     C33626   0.321  -0.690   5.110  0.8270 -0.1054  0.1683
 1013MOL0     C33627   0.178  -0.653   5.087  0.4764  1.2007 -0.2808
 1013MOL0    Cl33628   0.146  -0.726   4.929  0.2555  0.0566 -0.1843
 1013MOL0     C33629   1.295  -0.536   4.943 -0.0518 -0.5091  0.3989
 1013MOL0     C33630   1.433  -0.530   4.964 -0.0113  0.2775  0.3247
 1013MOL0     O33631   1.715  -0.793   5.151  0.0526  0.2812  0.2554
 1013MOL0     C33632   1.979  -0.705   5.119  1.1941  0.8081  0.1629
 1013MOL0     C33633   2.107  -0.666   5.091 -0.1979  0.9478 -0.1012
 1013MOL0     N33634   2.433   0.073   4.781  0.2765  0.3040 -0.3069
 1013MOL0     N33635   2.509   0.156   4.734 -0.8583  0.1513 -0.0086
 1013MOL0     C33636   3.317   0.803   4.953  0.2341 -0.6793  0.0181
 1013MOL0     C33637   3.456   0.810   4.933 -0.5615  0.0689 -0.5144
 1013MOL0     C33638   3.888   0.979   5.029  0.7733  0.1873  0.1230
 1013MOL0     C33639   3.987   1.078   5.016  0.4680 -0.5701  0.8901
 1013MOL0     C33640   4.121   1.055   5.036  0.0657 -0.1033 -0.4158
 1013MOL0     C33641   4.165   0.931   5.077 -0.0863 -0.4150  0.4658
 1013MOL0     O33642   4.304   0.937   5.096  0.7007  0.2435 -0.2928
 1013MOL0     C33643   4.366   0.817   5.151  0.2393  0.3971  0.3891
 1013MOL0     C33644   4.521   0.812   5.133 -0.2149 -0.1390  0.4499
 1013MOL0     C33645   4.615   0.927   5.187  0.3309 -0.4331 -0.2609
 1013MOL0     C33646   4.605   1.041   5.082 -0.4697 -0.0287 -0.7864
 1013MOL0     C33647   4.691   1.152   5.124 -0.6001 -0.3272  1.6335
 1013MOL0     C33648   4.763   1.244   5.156  0.1027 -0.7627 -0.4535
 1013MOL0     C33649   4.078   0.822   5.098  0.3512 -0.0913  0.3219
 1013MOL0     C33650   3.940   0.846   5.074  0.3314 -0.4812  0.0223
 1013MOL0     H33651   3.527   1.032   5.177  0.4866 -1.1076  0.5159
 1013MOL0     H33652   3.284   1.032   5.199  1.5151  0.9830 -0.8031
 1013MOL0     H33653   3.098   0.904   4.865 -1.5732 -0.7823 -1.0259
 1013MOL0     H33654   2.959   0.972   4.961 -0.0643  0.4762  1.1198
 1013MOL0     H33655   3.025   0.686   4.878  2.3285  1.7232 -0.1844
 1013MOL0     H33656   2.888   0.800   4.847 -0.4403  0.5920  2.0991
 1013MOL0     H33657   2.829   0.785   5.074  2.4114 -0.0488  2.3515
 1013MOL0     H33658   2.956   0.666   5.106 -1.1899 -3.8429 -1.6516
 1013MOL0     H33659   2.719   0.561   5.048  0.7101  0.2282  0.3340
 1013MOL0     H33660   2.754   0.618   4.877  1.3900  0.3805 -1.3122
 1013MOL0     H33661   2.926   0.442   5.062  0.2172  1.2376 -0.1981
 1013MOL0     H33662   2.959   0.483   4.885 -0.3417  2.8006  0.9546
 1013MOL0     H33663   2.686   0.345   4.958 -1.2727  1.3801 -0.8077
 1013MOL0     H33664   2.827   0.247   4.911 -2.4103 -1.7844 -1.1302
 1013MOL0     H33665   2.661   0.401   4.738  0.0265  0.3546 -1.4633
 1013MOL0     H33666   2.833   0.412   4.700 -3.0372 -0.2997 -2.5128
 1013MOL0     H33667   2.841   0.161   4.691 -0.3013 -0.1756  0.1000
 1013MOL0     H33668   2.725   0.238   4.591 -0.5669 -1.2767  0.3777
 1013MOL0     H33669   2.735  -0.028   4.875 -0.6343  1.6249  3.7993
 1013MOL0     H33670   2.345  -0.137   4.894 -0.4033 -1.6799  2.7464
 1013MOL0     H33671   2.448  -0.108   5.031 -1.7563 -1.1050  0.2244
 1013MOL0     H33672   2.620  -0.267   4.944  0.8725 -2.8928 -1.6687
 1013MOL0     H33673   2.524  -0.302   4.806 -1.0200 -1.7338  0.0919
 1013MOL0     H33674   2.485  -0.470   4.999  0.0982 -0.3922 -0.7770
 1013MOL0     H33675   2.441  -0.334   5.097  0.1339  1.5147 -0.3856
 1013MOL0     H33676   2.310  -0.381   4.837 -1.2175  1.4796 -0.6383
 1013MOL0     H33677   2.248  -0.303   4.989  3.0764  1.5764  1.2394
 1013MOL0     H33678   2.043  -0.418   4.876  1.1057  1.9663  1.6543
 1013MOL0     H33679   1.804  -0.500   4.928  0.1390 -0.5433  1.2187
 1013MOL0     H33680   1.502  -0.852   5.057 -1.1349 -1.2766  0.7208
 1013MOL0     H33681   1.264  -0.875   5.020  0.0178 -0.9230 -2.5083
 1013MOL0     H33682   1.043  -0.762   5.109 -0.3350 -1.8192 -0.1106
 1013MOL0     H33683   1.021  -0.825   4.941 -0.5926  2.1069 -3.3382
 1013MOL0     H33684   0.835  -0.693   4.903 -2.3360 -0.4374  0.0465
 1013MOL0     H33685   0.853  -0.599   5.046 -1.2131  0.0926  0.6507
 1013MOL0     H33686   0.786  -0.798   5.205 -1.5561  1.1007  0.5104
 1013MOL0     H33687   0.789  -0.899   5.054 -0.3861  0.0069 -0.6382
 1013MOL0     H33688   0.606  -0.662   5.065 -0.4638  0.0820 -4.0785
 1013MOL0     H33689   0.590  -0.802   4.969  0.2294 -1.3740  1.0499
 1013MOL0     H33690   0.533  -0.790   5.264 -0.5635  3.2829 -1.2749
 1013MOL0     H33691   0.528  -0.951   5.173 -0.0851 -0.0638 -0.0049
 1013MOL0     H33692   0.298  -0.899   5.169 -1.1827  0.8338 -1.2881
 1013MOL0     H33693   0.370  -0.884   5.021 -1.1897  1.5881 -1.4211
 1013MOL0     H33694   0.347  -0.652   5.209  1.8755 -0.2140 -0.0591
 1013MOL0     H33695   0.386  -0.644   5.035 -1.8936 -0.8205 -2.8685
 1013MOL0     H33696   0.175  -0.544   5.087  1.8451  1.2593 -1.1407
 1013MOL0     H33697   0.108  -0.685   5.165  2.3475 -0.5795  0.7781
 1013MOL0     H33698   1.237  -0.446   4.926  0.4725  0.3395  2.6545
 1013MOL0     H33699   1.490  -0.438   4.972  0.3463  0.0355  0.5658
 1013MOL0     H33700   1.972  -0.795   5.180 -1.4427  0.1942 -0.8710
 1013MOL0     H33701   2.184  -0.714   5.149 -1.0462 -2.9196 -1.8823
 1013MOL0     H33702   3.263   0.742   4.881 -2.4589 -0.7068  1.9050
 1013MOL0     H33703   3.498   0.745   4.856  0.8089  2.7693 -2.1895
 1013MOL0     H33704   3.962   1.178   4.985  1.6469 -0.0176  1.6413
 1013MOL0     H33705   4.200   1.126   5.016  0.6215 -0.8333 -0.8634
 1013MOL0     H33706   4.325   0.736   5.090  0.7412  0.1833  0.3333
 1013MOL0     H33707   4.339   0.805   5.256 -2.1885  0.6611 -0.1393
 1013MOL0     H33708   4.554   0.723   5.186  0.6070  0.0248  0.2320
 1013MOL0     H33709   4.551   0.796   5.029  1.0241 -1.4563  0.9771
 1013MOL0     H33710   4.719   0.895   5.199  0.2329 -0.3686  0.9000
 1013MOL0     H33711   4.576   0.966   5.282 -2.4447 -1.1052 -1.0371
 1013MOL0     H33712   4.657   1.010   4.990  3.1899 -1.3007  1.5055
 1013MOL0     H33713   4.506   1.086   5.069 -0.8110  0.0019  1.6022
 1013MOL0     H33714   4.830   1.322   5.185  1.1463 -2.3868  1.8788
 1013MOL0     H33715   4.115   0.720   5.096 -1.9920 -0.9911 -1.6124
 1013MOL0     H33716   3.871   0.767   5.103  0.4870  0.7758  4.5655
 1014MOL0     O33717   0.408   9.911   2.434 -0.5125  0.3035 -0.0820
 1014MOL0     C33718   0.449  10.005   2.365 -0.2168 -0.5226 -0.6112
 1014MOL0     O33719   0.370  10.113   2.325 -0.2497 -0.1840  0.3597
 1014MOL0     C33720   0.238  10.118   2.361 -0.0125 -0.4255  0.2470
 1014MOL0     C33721   0.197  10.094   2.488  0.4195  0.4756 -0.5100
 1014MOL0     C33722   0.059  10.108   2.524 -0.2604 -0.5312 -0.3507
 1014MOL0     C33723  -0.028  10.158   2.432  0.4323 -0.4509 -0.2080
 1014MOL0     O33724  -0.164  10.184   2.458  0.4701  0.1503  0.3274
 1014MOL0     C33725  -0.242  10.087   2.520  0.3413  0.1954 -0.9289
 1014MOL0     C33726  -0.395  10.118   2.509  0.0078 -0.2621 -0.3293
 1014MOL0     C33727  -0.481  10.013   2.573  0.4507  0.5046  1.1754
 1014MOL0     C33728  -0.630  10.071   2.566  0.2898 -0.4561  0.0919
 1014MOL0     C33729  -0.721  10.006   2.671 -0.2977  0.0935 -0.7479
 1014MOL0     C33730  -0.860  10.055   2.639  0.4630 -0.0954  0.7764
 1014MOL0     C33731  -0.961  10.016   2.744  0.9412  0.6713 -0.6794
 1014MOL0     C33732  -1.102  10.063   2.714  0.7390 -0.5484  0.4211
 1014MOL0     N33733  -1.143  10.031   2.575  0.2792  0.2185  0.0871
 1014MOL0     C33734  -1.210   9.920   2.530 -0.1971  0.3210  0.4267
 1014MOL0     C33735  -1.232   9.931   2.394  0.3821  0.5295 -0.2030
 1014MOL0     C33736  -1.309   9.839   2.306 -0.2722 -0.1305 -0.0936
 1014MOL0     C33737  -1.457   9.857   2.318  0.5745  0.3625  0.2185
 1014MOL0     C33738  -1.539   9.730   2.274 -0.0289 -0.6921  0.0144
 1014MOL0     C33739  -1.672   9.725   2.343  0.1325 -0.8870 -0.4958
 1014MOL0     O33740  -1.725   9.592   2.360 -1.0353 -0.0338  1.0833
 1014MOL0     C33741  -1.838   9.570   2.442  0.4385  0.3239  0.5770
 1014MOL0     C33742  -1.933   9.666   2.470 -0.0805 -0.7254 -0.1963
 1014MOL0     C33743  -2.061   9.635   2.521  0.1221 -0.5193 -0.5108
 1014MOL0     C33744  -2.088   9.509   2.568 -0.8243  0.5759  0.6840
 1014MOL0     C33745  -2.215   9.478   2.631  1.3952 -0.5834  0.9243
 1014MOL0     O33746  -2.286   9.592   2.663 -0.4707  0.6908 -0.5576
 1014MOL0     C33747  -2.415   9.581   2.701 -0.3258 -0.5271 -0.3958
 1014MOL0     C33748  -2.518   9.575   2.607  0.0458  0.1100  0.1570
 1014MOL0     C33749  -2.647   9.569   2.647  0.1446 -0.0404  0.5036
 1014MOL0     C33750  -2.686   9.567   2.780  1.2857  0.2220 -0.1713
 1014MOL0     O33751  -2.814   9.535   2.804  0.3484 -0.1902  0.0777
 1014MOL0     C33752  -2.872   9.619   2.904 -0.3608 -0.2916 -0.1383
 1014MOL0     C33753  -3.026   9.620   2.906 -0.1401  0.0355  0.3368
 1014MOL0     C33754  -3.075   9.701   2.795 -0.3324 -0.3191 -0.6011
 1014MOL0     C33755  -3.229   9.693   2.782 -1.0101  0.3559 -0.6233
 1014MOL0     C33756  -3.270   9.766   2.658  0.6091  0.4032 -0.4579
 1014MOL0     C33757  -3.419   9.740   2.620 -0.0998  0.1527 -0.1355
 1014MOL0     C33758  -3.462   9.810   2.494  0.3664 -0.0015  0.2425
 1014MOL0     C33759  -3.607   9.797   2.457  0.7244 -0.9127  0.4287
 1014MOL0    Cl33760  -3.683   9.944   2.387  0.4927  0.1445  0.1434
 1014MOL0     C33761  -2.586   9.586   2.875  0.1795 -0.3118  0.4528
 1014MOL0     C33762  -2.450   9.580   2.836 -0.1963  0.5368  0.1707
 1014MOL0     O33763  -2.250   9.362   2.646  0.5073  1.3335 -0.1474
 1014MOL0     C33764  -1.988   9.410   2.549  0.7598 -0.3774 -0.5098
 1014MOL0     C33765  -1.870   9.433   2.475 -0.3783  1.3584 -0.8818
 1014MOL0     N33766  -1.171  10.042   2.355  0.0859  0.2594 -0.1309
 1014MOL0     N33767  -1.120  10.099   2.459 -0.2580 -0.2733 -0.7951
 1014MOL0     C33768   0.014  10.196   2.301 -1.2458 -0.6420 -0.0111
 1014MOL0     C33769   0.145  10.173   2.265 -0.2462  1.2923 -0.1591
 1014MOL0     C33770   0.592  10.018   2.349  0.4807  0.0069  0.5154
 1014MOL0     C33771   0.676   9.915   2.399  0.7007 -1.2789  0.2083
 1014MOL0     C33772   0.820   9.927   2.377  0.9570  0.8604 -0.0287
 1014MOL0     C33773   0.877  10.045   2.313 -0.5364 -0.0931  0.3356
 1014MOL0     O33774   1.018  10.070   2.302 -0.6889  0.1865  0.5387
 1014MOL0     C33775   1.115   9.985   2.370  0.5756  0.4397  0.1278
 1014MOL0     C33776   1.258  10.024   2.332  0.4478 -0.2167  0.1363
 1014MOL0     C33777   1.296   9.988   2.188  0.1656  0.4636  0.5576
 1014MOL0     C33778   1.449   9.954   2.189 -0.0468 -0.4301  0.1372
 1014MOL0     C33779   1.491   9.931   2.045  0.8532 -0.2274 -0.6117
 1014MOL0     C33780   1.540   9.908   1.934  0.5152  0.1716  0.1601
 1014MOL0     C33781   0.787  10.130   2.258  0.1109  0.0440  0.2987
 1014MOL0     C33782   0.653  10.117   2.272 -0.4277 -0.7512 -0.1319
 1014MOL0     H33783   0.262  10.069   2.571  0.5270  0.2193 -0.6682
 1014MOL0     H33784   0.028  10.109   2.627  0.0330 -0.7555 -0.2591
 1014MOL0     H33785  -0.211  10.079   2.625 -0.4994  0.8008 -0.6273
 1014MOL0     H33786  -0.218   9.992   2.470  1.6275  0.5924 -1.1110
 1014MOL0     H33787  -0.419  10.139   2.404  1.0299  0.1529 -0.4928
 1014MOL0     H33788  -0.403  10.214   2.561  1.9878  1.4273 -2.8293
 1014MOL0     H33789  -0.439  10.016   2.674  1.2601  0.9766  0.8387
 1014MOL0     H33790  -0.470   9.917   2.522 -3.7533  0.2612  0.3667
 1014MOL0     H33791  -0.633  10.178   2.590 -0.8891 -0.7122  1.2341
 1014MOL0     H33792  -0.680  10.042   2.473 -0.9446 -1.3915  1.0083
 1014MOL0     H33793  -0.684  10.031   2.771 -1.2029  2.4491 -0.9445
 1014MOL0     H33794  -0.719   9.897   2.659 -1.9981  0.1674 -2.1573
 1014MOL0     H33795  -0.903  10.017   2.545 -2.8424  0.8374  1.7662
 1014MOL0     H33796  -0.855  10.164   2.629  2.0623 -0.1438  0.8854
 1014MOL0     H33797  -0.961   9.906   2.742 -2.0811  0.6014 -2.3956
 1014MOL0     H33798  -0.929  10.063   2.838 -1.0489  3.8070 -1.4490
 1014MOL0     H33799  -1.109  10.171   2.724  0.4186 -0.1712 -2.9871
 1014MOL0     H33800  -1.175  10.026   2.787  1.5701  0.5878  1.8755
 1014MOL0     H33801  -1.237   9.826   2.577  3.2514 -1.3087 -0.5201
 1014MOL0     H33802  -1.281   9.745   2.353  1.1828  0.8016  0.9974
 1014MOL0     H33803  -1.285   9.848   2.200 -0.1102  1.4988  0.0510
 1014MOL0     H33804  -1.475   9.943   2.253  1.9415  0.1730 -0.4513
 1014MOL0     H33805  -1.482   9.884   2.421  0.5631  0.4695  0.1880
 1014MOL0     H33806  -1.559   9.731   2.166  1.8333 -1.9813 -0.3827
 1014MOL0     H33807  -1.480   9.642   2.301  1.3353 -0.1347 -1.0070
 1014MOL0     H33808  -1.743   9.782   2.282  1.7733 -0.6886 -2.3416
 1014MOL0     H33809  -1.647   9.767   2.441  1.1837 -2.1476 -0.2035
 1014MOL0     H33810  -1.918   9.766   2.430  2.5561 -1.4884 -1.2893
 1014MOL0     H33811  -2.140   9.707   2.506  1.6849  1.1108 -1.3146
 1014MOL0     H33812  -2.502   9.563   2.500  0.2880  4.2956 -0.4469
 1014MOL0     H33813  -2.726   9.549   2.576 -0.4470  1.4555  0.7132
 1014MOL0     H33814  -2.829   9.720   2.901 -0.7698  0.0622  2.7808
 1014MOL0     H33815  -2.844   9.577   3.000 -1.0859  2.1730  1.2545
 1014MOL0     H33816  -3.049   9.665   3.003  1.9300 -1.9296  1.8523
 1014MOL0     H33817  -3.065   9.518   2.915 -3.1680  1.2992  4.6378
 1014MOL0     H33818  -3.015   9.685   2.705  0.4981 -0.0623 -0.1061
 1014MOL0     H33819  -3.055   9.803   2.828  2.1052 -0.6916 -0.7323
 1014MOL0     H33820  -3.256   9.588   2.766 -0.2556  0.3326 -1.9240
 1014MOL0     H33821  -3.279   9.729   2.872 -1.4958  1.1681 -1.2101
 1014MOL0     H33822  -3.204   9.722   2.583  0.2098  0.3192 -0.7701
 1014MOL0     H33823  -3.259   9.875   2.662 -1.7165  0.7002  4.1395
 1014MOL0     H33824  -3.481   9.769   2.705  0.2029 -0.7812  0.4145
 1014MOL0     H33825  -3.441   9.635   2.600  0.1587  0.6711 -3.8799
 1014MOL0     H33826  -3.442   9.917   2.501  0.4287 -0.0404  0.6631
 1014MOL0     H33827  -3.402   9.775   2.409  0.5853  0.8837  0.0211
 1014MOL0     H33828  -3.666   9.769   2.544 -1.7837  1.0961 -0.4857
 1014MOL0     H33829  -3.616   9.714   2.385 -1.5828  0.4485 -1.0020
 1014MOL0     H33830  -2.605   9.597   2.981  0.3201 -2.8343  0.7972
 1014MOL0     H33831  -2.372   9.584   2.911 -0.0442  1.0623 -0.0151
 1014MOL0     H33832  -2.003   9.307   2.582 -0.7569 -0.0385 -0.0166
 1014MOL0     H33833  -1.804   9.352   2.446  0.5307  1.6382  0.3498
 1014MOL0     H33834  -0.055  10.241   2.231 -0.8847 -0.4629 -0.2572
 1014MOL0     H33835   0.174  10.188   2.162 -0.4696 -3.7148 -1.2176
 1014MOL0     H33836   0.629   9.829   2.446 -0.1730 -1.8192 -1.5516
 1014MOL0     H33837   0.888   9.852   2.417 -0.4481 -0.8092 -0.6684
 1014MOL0     H33838   1.111   9.878   2.348 -0.7612 -0.2554  3.2443
 1014MOL0     H33839   1.103   9.996   2.478  0.8329 -0.1207  0.2185
 1014MOL0     H33840   1.268  10.133   2.337 -0.0208 -0.2346  2.7782
 1014MOL0     H33841   1.323   9.968   2.400  1.3284 -0.8892 -1.2284
 1014MOL0     H33842   1.284  10.074   2.122 -1.2700 -0.4754 -0.4494
 1014MOL0     H33843   1.242   9.897   2.161 -0.6851  0.5472  1.8645
 1014MOL0     H33844   1.511  10.027   2.243 -0.6221  0.8511 -0.8904
 1014MOL0     H33845   1.467   9.856   2.235  1.1285 -0.2467  0.1018
 1014MOL0     H33846   1.586   9.892   1.839  0.1099 -0.8456  0.1189
 1014MOL0     H33847   0.824  10.214   2.199 -0.1728  0.1257  0.2336
 1014MOL0     H33848   0.596  10.197   2.226  0.9100 -0.7417 -1.8723
 1015MOL0     O33849   7.288   6.654  10.100 -0.4644 -0.1724 -0.6691
 1015MOL0     C33850   7.330   6.558  10.038  0.0028  0.1229 -0.0541
 1015MOL0     O33851   7.255   6.460   9.984  0.2124  0.0325 -0.0328
 1015MOL0     C33852   7.118   6.459   9.992  0.3863  0.6704 -0.2659
 1015MOL0     C33853   7.043   6.516  10.095  0.5116  0.4084  0.4339
 1015MOL0     C33854   6.906   6.490  10.098 -0.6145 -1.4490 -0.1592
 1015MOL0     C33855   6.843   6.409   9.999 -0.6976 -0.0097 -0.6634
 1015MOL0     O33856   6.706   6.394   9.998 -0.1001  0.4738 -0.2673
 1015MOL0     C33857   6.625   6.437  10.112 -0.8282 -0.0545 -0.0166
 1015MOL0     C33858   6.473   6.386  10.106  0.2468  0.2003  0.4336
 1015MOL0     C33859   6.393   6.441  10.221 -0.3388 -0.3623  0.1785
 1015MOL0     C33860   6.244   6.412  10.198 -0.1267 -0.0493 -0.1653
 1015MOL0     C33861   6.149   6.466  10.317 -0.5538 -0.3789  0.2515
 1015MOL0     C33862   6.180   6.409  10.457  0.8960  0.6252  0.2057
 1015MOL0     C33863   6.147   6.259  10.467  0.2157 -0.4017 -0.4671
 1015MOL0     C33864   6.034   6.227  10.563  0.5420  0.4826 -0.2619
 1015MOL0     N33865   5.896   6.282  10.530 -0.2750  0.7850  0.2313
 1015MOL0     C33866   5.848   6.408  10.560 -0.3092 -0.2349  1.1076
 1015MOL0     C33867   5.732   6.410  10.489  0.1698 -0.0335 -0.5048
 1015MOL0     C33868   5.639   6.531  10.502 -0.1671  0.6111  0.8331
 1015MOL0     C33869   5.506   6.509  10.439  0.2974 -0.5024 -0.2758
 1015MOL0     C33870   5.405   6.427  10.513 -0.3490 -0.3720  0.6942
 1015MOL0     C33871   5.279   6.403  10.433  0.4472  0.0003 -0.7954
 1015MOL0     O33872   5.185   6.512  10.434  0.1097 -0.5851  0.0877
 1015MOL0     C33873   5.054   6.484  10.388 -0.7417 -0.2170  0.7222
 1015MOL0     C33874   4.977   6.369  10.413  0.2507  0.2571 -0.3309
 1015MOL0     C33875   4.841   6.365  10.370 -0.7488  0.4140 -1.0821
 1015MOL0     C33876   4.782   6.485  10.306 -0.4122  0.3145 -0.7285
 1015MOL0     C33877   4.636   6.479  10.262 -0.0639 -0.5532 -0.4470
 1015MOL0     O33878   4.547   6.388  10.310 -0.0924  0.1904 -0.1833
 1015MOL0     C33879   4.419   6.371  10.247 -0.1488 -0.6419  0.5829
 1015MOL0     C33880   4.306   6.370  10.334 -0.6829  0.2722  0.0320
 1015MOL0     C33881   4.175   6.362  10.286 -0.0201 -0.2347  0.5918
 1015MOL0     C33882   4.158   6.358  10.148  0.5571  0.8311  0.1295
 1015MOL0     O33883   4.030   6.357  10.091  0.3747  0.2758 -0.9103
 1015MOL0     C33884   3.914   6.347  10.169  0.5997  0.2490 -0.0230
 1015MOL0     C33885   3.789   6.318  10.076 -1.1475 -0.0899  0.1039
 1015MOL0     C33886   3.666   6.289  10.166  0.1499  0.1559  0.5124
 1015MOL0     C33887   3.557   6.198  10.101 -0.6613  0.0672  0.1269
 1015MOL0     C33888   3.454   6.166  10.209  0.6271 -0.5879 -0.8047
 1015MOL0     C33889   3.353   6.057  10.153 -0.3375 -0.1551  0.7008
 1015MOL0     C33890   3.252   6.036  10.259  0.5612 -0.2868  0.5438
 1015MOL0     C33891   3.137   5.947  10.231 -1.3301 -0.0177 -0.0049
 1015MOL0    Cl33892   3.204   5.782  10.207 -0.1752  0.0684 -0.0615
 1015MOL0     C33893   4.265   6.347  10.060 -0.0971  0.9416 -0.2680
 1015MOL0     C33894   4.394   6.350  10.114 -0.1687  1.2652 -0.1757
 1015MOL0     O33895   4.601   6.573  10.186 -0.4893 -0.6189  0.5271
 1015MOL0     C33896   4.867   6.586  10.272 -0.8100  0.5080  0.0154
 1015MOL0     C33897   4.997   6.593  10.326 -0.5869 -0.9413 -0.2579
 1015MOL0     N33898   5.715   6.292  10.419  0.8941  0.3799 -0.3456
 1015MOL0     N33899   5.815   6.215  10.439  0.5035 -0.4102 -0.4116
 1015MOL0     C33900   6.920   6.354   9.898 -0.0373  0.2888  0.9253
 1015MOL0     C33901   7.056   6.381   9.890  0.1363 -0.5732 -0.2806
 1015MOL0     C33902   7.479   6.546  10.030 -0.4095 -0.5658 -0.0351
 1015MOL0     C33903   7.544   6.421  10.005 -0.8197 -0.2417  0.0298
 1015MOL0     C33904   7.683   6.429   9.988  0.4659 -0.1740 -0.4311
 1015MOL0     C33905   7.757   6.546   9.993 -0.2232  0.5412  0.5024
 1015MOL0     O33906   7.887   6.545   9.959  0.3065  0.0582  0.9856
 1015MOL0     C33907   7.976   6.656   9.913  1.1205  0.0969 -0.7196
 1015MOL0     C33908   8.063   6.612   9.788  0.0176 -0.4302 -1.8896
 1015MOL0     C33909   8.180   6.527   9.833  0.3725  0.3316  0.8777
 1015MOL0     C33910   8.139   6.394   9.883  1.5179 -0.0237  0.0805
 1015MOL0     C33911   8.240   6.295   9.899  0.6690  0.0420 -0.5730
 1015MOL0     C33912   8.327   6.215   9.920  0.8486  0.6278 -0.2098
 1015MOL0     C33913   7.691   6.661  10.023  0.0650  0.6355  0.1023
 1015MOL0     C33914   7.550   6.663  10.038  0.5444 -0.8724  0.7552
 1015MOL0     H33915   7.088   6.572  10.176 -0.2953  0.3697  0.9237
 1015MOL0     H33916   6.863   6.544  10.182  2.0117  1.3837 -0.4523
 1015MOL0     H33917   6.614   6.546  10.117 -1.0218  0.0342 -1.6793
 1015MOL0     H33918   6.679   6.409  10.202 -1.7413  0.6790  0.7819
 1015MOL0     H33919   6.487   6.278  10.105 -0.4576  0.0888  1.3989
 1015MOL0     H33920   6.423   6.418  10.015  2.4083  0.9164 -0.5832
 1015MOL0     H33921   6.392   6.550  10.235 -0.7784 -0.2343 -0.8099
 1015MOL0     H33922   6.435   6.388  10.307 -0.3539 -0.6972 -0.0199
 1015MOL0     H33923   6.218   6.454  10.100  1.6773 -0.6795 -0.9627
 1015MOL0     H33924   6.223   6.308  10.172 -1.5774  0.4225 -1.0152
 1015MOL0     H33925   6.050   6.441  10.278 -1.2539  0.4246  1.4259
 1015MOL0     H33926   6.153   6.576  10.323  0.2654 -0.2131 -2.0657
 1015MOL0     H33927   6.115   6.466  10.524 -0.3429 -0.1832 -0.2622
 1015MOL0     H33928   6.280   6.426  10.498  1.0264 -1.6185  1.0099
 1015MOL0     H33929   6.134   6.219  10.366 -0.7544 -0.8574 -0.1680
 1015MOL0     H33930   6.234   6.218  10.519  1.3129  1.3605 -0.8128
 1015MOL0     H33931   6.061   6.258  10.665 -2.1197  0.0772  0.6457
 1015MOL0     H33932   6.031   6.118  10.568 -1.9301  0.4451 -0.9767
 1015MOL0     H33933   5.889   6.486  10.624 -2.4156  1.9186 -0.0366
 1015MOL0     H33934   5.682   6.624  10.463 -0.1895  0.6232  0.8372
 1015MOL0     H33935   5.619   6.535  10.609 -0.3788  0.6370  0.7937
 1015MOL0     H33936   5.530   6.470  10.340 -1.1423  2.7537 -2.0878
 1015MOL0     H33937   5.464   6.604  10.404  0.7531  0.5195  1.8107
 1015MOL0     H33938   5.453   6.334  10.544 -1.6500 -0.7616  1.6641
 1015MOL0     H33939   5.372   6.491  10.596  1.6310  2.7931 -0.7802
 1015MOL0     H33940   5.236   6.318  10.487  0.1696 -0.4159 -1.6564
 1015MOL0     H33941   5.304   6.373  10.331 -3.6674 -3.6426 -1.0142
 1015MOL0     H33942   5.022   6.282  10.459  0.7419 -2.7846 -5.7783
 1015MOL0     H33943   4.787   6.273  10.386 -1.0531  0.9878  1.7840
 1015MOL0     H33944   4.324   6.361  10.441  1.4606 -1.3212 -0.3917
 1015MOL0     H33945   4.091   6.369  10.355  0.5080  3.3067  1.0493
 1015MOL0     H33946   3.903   6.445  10.216 -2.3563 -0.4042  0.8580
 1015MOL0     H33947   3.923   6.263  10.239 -2.7086  1.0884  1.6111
 1015MOL0     H33948   3.805   6.227  10.017  1.9471  1.6163 -1.9797
 1015MOL0     H33949   3.779   6.404  10.009  1.0064 -0.2190 -0.4650
 1015MOL0     H33950   3.621   6.386  10.188 -2.4971 -1.2164  1.6547
 1015MOL0     H33951   3.706   6.248  10.259  1.6424  0.6084  0.0923
 1015MOL0     H33952   3.517   6.244  10.010  1.5548  0.9235 -0.4694
 1015MOL0     H33953   3.596   6.104  10.061  0.2670  0.7360 -0.5626
 1015MOL0     H33954   3.402   6.256  10.242  1.4676  0.0197 -1.1167
 1015MOL0     H33955   3.503   6.128  10.300 -0.4546 -0.0322  0.0403
 1015MOL0     H33956   3.405   5.965  10.124  0.7607  0.0088  2.0313
 1015MOL0     H33957   3.303   6.102  10.067 -1.9113 -0.8204  1.2512
 1015MOL0     H33958   3.313   6.003  10.344  1.4250  1.6382  0.7217
 1015MOL0     H33959   3.217   6.132  10.296  0.6167 -0.3449  0.7488
 1015MOL0     H33960   3.074   5.976  10.146 -4.0189 -0.4704  1.7131
 1015MOL0     H33961   3.074   5.958  10.320  1.5204  0.8690  2.0265
 1015MOL0     H33962   4.239   6.322   9.957 -3.2049  2.7504 -0.0869
 1015MOL0     H33963   4.473   6.346  10.040 -1.9496  0.8498 -2.1865
 1015MOL0     H33964   4.821   6.666  10.215 -2.3749  0.0474  0.5892
 1015MOL0     H33965   5.068   6.673  10.309  0.3438 -2.0069 -1.6290
 1015MOL0     H33966   6.865   6.292   9.829 -2.7980  0.6781  2.6177
 1015MOL0     H33967   7.111   6.339   9.805  0.2774 -1.4384  0.2223
 1015MOL0     H33968   7.500   6.323  10.014  1.7151 -1.5665 -0.9050
 1015MOL0     H33969   7.743   6.339   9.979 -2.6922 -2.8432  2.5137
 1015MOL0     H33970   8.046   6.691   9.990  0.6898  0.3020 -0.4180
 1015MOL0     H33971   7.919   6.742   9.877 -2.4079 -2.5060 -1.8599
 1015MOL0     H33972   7.998   6.562   9.716  0.6677 -1.2266 -1.9379
 1015MOL0     H33973   8.113   6.700   9.747  0.0768  0.3112 -0.3088
 1015MOL0     H33974   8.232   6.582   9.911 -0.7676  0.2074  1.7523
 1015MOL0     H33975   8.236   6.511   9.740 -3.0103  0.5110 -1.3868
 1015MOL0     H33976   8.097   6.409   9.983 -1.9294 -0.7745 -1.1183
 1015MOL0     H33977   8.060   6.343   9.827  0.3401  1.0416  0.7150
 1015MOL0     H33978   8.395   6.132   9.929 -2.3597 -2.3450 -1.4069
 1015MOL0     H33979   7.736   6.759  10.033  1.0755  0.0366  1.7700
 1015MOL0     H33980   7.510   6.764  10.041  3.8368  0.5415  0.5576
 1016MOL0     O33981   3.235  10.147   1.544  0.9877 -0.4669  0.1131
 1016MOL0     C33982   3.330  10.220   1.561 -0.2973  0.7218  1.2507
 1016MOL0     O33983   3.329  10.356   1.596  0.0926  0.4272  1.0408
 1016MOL0     C33984   3.218  10.431   1.605  0.6704  0.6857  0.0747
 1016MOL0     C33985   3.087  10.387   1.606 -0.0933 -0.3434 -0.2712
 1016MOL0     C33986   2.980  10.477   1.591 -0.3496  0.7486  0.4851
 1016MOL0     C33987   3.010  10.617   1.571  0.1586  0.1184  0.2704
 1016MOL0     O33988   2.907  10.698   1.557  0.0838  0.1115 -0.0086
 1016MOL0     C33989   2.843  10.739   1.679  0.0031  0.0155  0.5853
 1016MOL0     C33990   2.727  10.837   1.671  0.0250 -0.5742  0.3799
 1016MOL0     C33991   2.649  10.819   1.798 -0.0353  0.3115  0.6678
 1016MOL0     C33992   2.544  10.930   1.815  0.5152 -0.4463 -0.3534
 1016MOL0     C33993   2.421  10.898   1.911 -0.0014  0.8430  0.4524
 1016MOL0     C33994   2.350  11.029   1.948 -0.1094  1.1995  0.0341
 1016MOL0     C33995   2.203  10.984   1.998  0.0667 -0.4627 -0.4259
 1016MOL0     C33996   2.130  11.110   2.036  0.9350  0.3031 -0.0826
 1016MOL0     N33997   1.993  11.084   2.091  0.0304 -0.5762  0.0581
 1016MOL0     C33998   1.875  11.052   2.016 -0.3284 -0.6321  0.0244
 1016MOL0     C33999   1.773  11.066   2.108 -0.2317 -0.5386  0.9245
 1016MOL0     C34000   1.632  11.055   2.076 -0.6178 -0.3777 -0.1673
 1016MOL0     C34001   1.548  11.178   2.113 -0.2762 -0.3049 -0.3852
 1016MOL0     C34002   1.401  11.164   2.066 -0.0475 -0.5174  0.1445
 1016MOL0     C34003   1.309  11.272   2.127 -0.2796 -0.5124  1.1188
 1016MOL0     O34004   1.193  11.277   2.040 -0.5991 -0.9700  0.6901
 1016MOL0     C34005   1.079  11.334   2.072  0.8384 -0.0370  0.5434
 1016MOL0     C34006   0.985  11.332   1.972 -0.0092 -0.5654  0.1667
 1016MOL0     C34007   0.858  11.394   1.997  0.3044  0.7519  0.5336
 1016MOL0     C34008   0.834  11.454   2.121  0.0020 -0.1711  0.3522
 1016MOL0     C34009   0.709  11.529   2.141  0.6093  0.4811  0.1696
 1016MOL0     O34010   0.694  11.580   2.269 -0.2068  0.6106  0.4980
 1016MOL0     C34011   0.576  11.646   2.303 -0.3652 -0.1163 -0.0713
 1016MOL0     C34012   0.590  11.753   2.392 -0.1979 -0.0851 -0.2303
 1016MOL0     C34013   0.482  11.822   2.437  0.0907  0.8506 -1.0003
 1016MOL0     C34014   0.352  11.779   2.413  0.4822  0.4095 -0.2338
 1016MOL0     O34015   0.238  11.839   2.474 -0.8626 -0.2436 -0.1244
 1016MOL0     C34016   0.103  11.795   2.465 -0.1469 -0.1266 -0.1925
 1016MOL0     C34017   0.020  11.888   2.386  0.2393 -0.2031 -0.1855
 1016MOL0     C34018   0.034  11.875   2.238  0.2751 -0.1429  0.7991
 1016MOL0     C34019   0.008  11.993   2.151  0.0465  0.2288 -0.3434
 1016MOL0     C34020   0.028  11.964   2.001  0.3066  0.6542  0.2241
 1016MOL0     C34021   0.172  11.920   1.947 -0.2549  0.1558  1.1622
 1016MOL0     C34022   0.154  11.832   1.828 -0.4547  0.5332 -0.7305
 1016MOL0     C34023   0.283  11.828   1.744 -0.0188  1.1237 -0.6204
 1016MOL0    Cl34024   0.272  11.705   1.608  0.0427 -0.0863  0.0079
 1016MOL0     C34025   0.334  11.678   2.323 -0.5740 -0.5812 -0.8702
 1016MOL0     C34026   0.442  11.615   2.255  0.2600  0.1123  0.0457
 1016MOL0     O34027   0.632  11.535   2.046 -0.5953 -0.4716 -0.5104
 1016MOL0     C34028   0.928  11.450   2.228  0.5716 -0.2524 -0.0161
 1016MOL0     C34029   1.046  11.387   2.200 -0.2944 -0.5751  0.2047
 1016MOL0     N34030   1.827  11.096   2.232 -0.1907  0.1003 -0.8643
 1016MOL0     N34031   1.952  11.107   2.221  0.8201 -0.1644  0.0725
 1016MOL0     C34032   3.144  10.660   1.564  0.4358  0.4373 -0.1756
 1016MOL0     C34033   3.247  10.569   1.592 -0.0526 -0.9031  0.6047
 1016MOL0     C34034   3.460  10.160   1.549  0.1919 -0.1347 -0.3354
 1016MOL0     C34035   3.568  10.227   1.611 -0.3357 -0.4128  0.0712
 1016MOL0     C34036   3.691  10.166   1.609 -0.4522  0.1685  0.8159
 1016MOL0     C34037   3.715  10.040   1.543  0.3376  0.3745 -0.1874
 1016MOL0     O34038   3.841   9.982   1.556  0.1918  0.3787  0.9772
 1016MOL0     C34039   3.871   9.881   1.452  0.3165 -0.9244 -0.0582
 1016MOL0     C34040   4.009   9.913   1.400 -0.9595 -0.2484  0.6920
 1016MOL0     C34041   4.034  10.055   1.358 -1.3544 -0.0584  0.0779
 1016MOL0     C34042   4.148  10.077   1.242  0.6593 -0.1338 -1.0967
 1016MOL0     C34043   4.274  10.054   1.322  0.2599 -0.9715  0.0805
 1016MOL0     C34044   4.384  10.043   1.372 -1.0063  0.5398 -0.5295
 1016MOL0     C34045   3.604   9.971   1.488 -0.0165  0.3023 -0.1327
 1016MOL0     C34046   3.483  10.039   1.487  0.5725 -0.3144  0.9547
 1016MOL0     H34047   3.058  10.284   1.623 -2.1235  0.4922  1.8596
 1016MOL0     H34048   2.881  10.436   1.579 -0.0254 -0.0791  0.5614
 1016MOL0     H34049   2.916  10.787   1.745 -1.8225  1.3671  1.7503
 1016MOL0     H34050   2.810  10.648   1.730 -0.3958 -0.4456 -0.4578
 1016MOL0     H34051   2.664  10.822   1.583 -2.7689 -0.7643  2.2871
 1016MOL0     H34052   2.758  10.941   1.664 -3.8478  0.9850  3.2292
 1016MOL0     H34053   2.710  10.823   1.889  0.9007  0.6031  0.0296
 1016MOL0     H34054   2.598  10.722   1.796  0.9912 -0.2203 -0.3839
 1016MOL0     H34055   2.595  11.020   1.850 -1.2845  1.1194 -1.5828
 1016MOL0     H34056   2.511  10.958   1.714 -2.0295  0.8587  0.7268
 1016MOL0     H34057   2.449  10.837   1.998  2.5909  2.9310  1.2034
 1016MOL0     H34058   2.368  10.826   1.848  3.8617 -0.5646 -1.5205
 1016MOL0     H34059   2.339  11.097   1.863 -1.1255  0.2353 -0.6249
 1016MOL0     H34060   2.402  11.079   2.030 -1.5397  0.7429  1.2646
 1016MOL0     H34061   2.146  10.928   1.923 -1.1687 -0.4891  0.5074
 1016MOL0     H34062   2.199  10.933   2.094  0.6333  0.8325  0.3110
 1016MOL0     H34063   2.111  11.171   1.947 -0.9334  1.0354  0.7754
 1016MOL0     H34064   2.192  11.157   2.113  1.8694 -0.3035 -0.4378
 1016MOL0     H34065   1.864  11.028   1.910  0.7275  0.4499 -0.3483
 1016MOL0     H34066   1.588  10.963   2.117  1.9299 -2.0880 -0.9954
 1016MOL0     H34067   1.626  11.035   1.968  0.8797 -3.8768  0.2348
 1016MOL0     H34068   1.580  11.259   2.047 -0.9308 -0.8736 -1.4365
 1016MOL0     H34069   1.547  11.199   2.220 -0.7315 -1.4994 -0.1480
 1016MOL0     H34070   1.398  11.175   1.957  2.0717 -1.0741 -0.0200
 1016MOL0     H34071   1.359  11.068   2.099 -0.2305  0.1120  1.8072
 1016MOL0     H34072   1.364  11.366   2.121  1.1522 -1.3985 -3.0563
 1016MOL0     H34073   1.286  11.250   2.231 -2.6281 -2.2095  0.3412
 1016MOL0     H34074   0.996  11.289   1.874 -2.9585 -0.0919 -0.4941
 1016MOL0     H34075   0.781  11.403   1.920  1.1915 -0.0092 -0.4777
 1016MOL0     H34076   0.687  11.791   2.425 -1.0188  1.8592  0.0411
 1016MOL0     H34077   0.493  11.910   2.500 -2.7954  0.5298  0.1205
 1016MOL0     H34078   0.064  11.804   2.567  1.0573  0.6866  0.2251
 1016MOL0     H34079   0.082  11.696   2.425 -1.2067  0.9036 -2.3229
 1016MOL0     H34080   0.039  11.992   2.413  2.0712 -0.4539 -0.4051
 1016MOL0     H34081  -0.084  11.868   2.413 -0.1878  1.1060 -0.7764
 1016MOL0     H34082  -0.028  11.797   2.191  0.4642 -0.2511  0.7260
 1016MOL0     H34083   0.142  11.860   2.223  0.3693  2.4502 -2.0526
 1016MOL0     H34084  -0.096  12.021   2.172  0.3720 -0.0808  1.9811
 1016MOL0     H34085   0.068  12.082   2.173  2.0602 -0.8245 -1.2710
 1016MOL0     H34086  -0.002  12.057   1.951 -0.4375  0.8182  0.9413
 1016MOL0     H34087  -0.032  11.880   1.965 -0.9737  2.3054 -1.7222
 1016MOL0     H34088   0.228  11.855   2.015  1.6116 -0.6541 -1.0567
 1016MOL0     H34089   0.238  12.004   1.924 -0.1010 -0.4618 -0.7639
 1016MOL0     H34090   0.115  11.734   1.855 -1.2796  0.9072 -0.5365
 1016MOL0     H34091   0.077  11.873   1.762 -0.5015 -0.0800 -1.0623
 1016MOL0     H34092   0.368  11.803   1.807  0.5039 -1.0799 -2.0754
 1016MOL0     H34093   0.294  11.923   1.692  1.3563  1.3719  0.0942
 1016MOL0     H34094   0.235  11.642   2.298  0.1586 -3.3096 -0.2539
 1016MOL0     H34095   0.424  11.541   2.176  2.3169  0.3482 -0.7169
 1016MOL0     H34096   0.911  11.491   2.327 -0.9811 -2.8541  0.8798
 1016MOL0     H34097   1.106  11.354   2.284 -0.5028 -0.6657  0.3173
 1016MOL0     H34098   3.180  10.761   1.548  3.6080 -0.4969  0.3332
 1016MOL0     H34099   3.352  10.598   1.595 -1.2994  4.5843  1.4806
 1016MOL0     H34100   3.554  10.316   1.672  1.7306 -0.3952  0.5826
 1016MOL0     H34101   3.776  10.224   1.644  0.0055  0.0681 -0.0903
 1016MOL0     H34102   3.810   9.895   1.362  0.9506 -3.5356 -0.9806
 1016MOL0     H34103   3.852   9.779   1.488 -0.6587 -1.4251 -1.8340
 1016MOL0     H34104   4.075   9.876   1.479  0.3571 -1.3336 -0.8478
 1016MOL0     H34105   4.030   9.852   1.311 -2.0326 -0.2523  0.4339
 1016MOL0     H34106   4.069  10.116   1.441 -1.4107  1.2868 -0.8650
 1016MOL0     H34107   3.939  10.088   1.316 -1.5394 -2.7741 -1.9613
 1016MOL0     H34108   4.138  10.004   1.161  1.9443 -0.3045 -1.1237
 1016MOL0     H34109   4.149  10.173   1.191  0.5665  0.2311 -0.4140
 1016MOL0     H34110   4.482  10.038   1.416 -0.6568  0.2091 -1.3339
 1016MOL0     H34111   3.616   9.874   1.441  1.4212 -0.7663  2.2612
 1016MOL0     H34112   3.400   9.990   1.437 -0.2069  1.7131  0.1945
 1017MOL0     O34113   0.128   8.284   6.152  0.1027  0.2430 -0.3076
 1017MOL0     C34114   0.194   8.272   6.254  0.4346 -0.5318 -0.8783
 1017MOL0     O34115   0.153   8.227   6.378  0.1865 -0.1793 -0.2931
 1017MOL0     C34116   0.021   8.195   6.392 -0.1677 -0.2119 -0.5009
 1017MOL0     C34117  -0.040   8.233   6.514 -0.4417  0.2663  0.3878
 1017MOL0     C34118  -0.179   8.221   6.538  0.3218 -0.1200  0.0491
 1017MOL0     C34119  -0.257   8.157   6.437  0.1093 -0.3547  0.2295
 1017MOL0     O34120  -0.389   8.129   6.451  0.1120 -0.0271  0.7432
 1017MOL0     C34121  -0.447   8.116   6.576  0.1370 -0.1937 -0.7857
 1017MOL0     C34122  -0.593   8.085   6.576  0.2199 -0.7289 -0.6587
 1017MOL0     C34123  -0.681   8.196   6.511 -0.2868 -0.3830 -0.4287
 1017MOL0     C34124  -0.830   8.153   6.541 -0.4588  0.9980 -0.2192
 1017MOL0     C34125  -0.938   8.247   6.479  0.7525 -0.1830 -0.1814
 1017MOL0     C34126  -1.079   8.177   6.502 -0.7762  0.1962 -0.3522
 1017MOL0     C34127  -1.188   8.278   6.454 -0.7684  0.7566 -0.6317
 1017MOL0     C34128  -1.320   8.236   6.523  0.2944  0.5064 -0.3041
 1017MOL0     N34129  -1.447   8.294   6.469  0.2885  0.7224 -0.1149
 1017MOL0     C34130  -1.563   8.280   6.539  0.7670 -0.0658 -0.1163
 1017MOL0     C34131  -1.643   8.385   6.503  0.9469  0.3317  0.1162
 1017MOL0     C34132  -1.773   8.418   6.566  0.0993 -0.4921 -0.7175
 1017MOL0     C34133  -1.892   8.441   6.473  0.0635 -0.1215  0.0449
 1017MOL0     C34134  -1.872   8.575   6.399  0.4913  0.0872  0.1663
 1017MOL0     C34135  -1.992   8.597   6.313  0.3387 -0.2408 -0.1195
 1017MOL0     O34136  -2.123   8.526   6.335  0.0916 -0.0370  0.5772
 1017MOL0     C34137  -2.212   8.528   6.233 -0.5760  0.8835  0.3547
 1017MOL0     C34138  -2.189   8.596   6.112 -0.3442  0.4251  0.8584
 1017MOL0     C34139  -2.281   8.620   6.011  0.2441 -0.3451 -0.4615
 1017MOL0     C34140  -2.410   8.561   6.029 -0.8814 -0.5072  0.4660
 1017MOL0     C34141  -2.517   8.571   5.927 -0.7445  0.3095 -1.1802
 1017MOL0     O34142  -2.644   8.530   5.972 -0.4029 -0.1886  0.0210
 1017MOL0     C34143  -2.746   8.538   5.880  0.5346  0.6029  0.9385
 1017MOL0     C34144  -2.854   8.625   5.906 -0.5153 -0.3785 -0.2014
 1017MOL0     C34145  -2.970   8.643   5.815  0.4036 -0.5873  0.2812
 1017MOL0     C34146  -2.969   8.580   5.687 -0.0451 -0.5471  0.5031
 1017MOL0     O34147  -3.077   8.589   5.596 -1.2482 -0.4024  0.5739
 1017MOL0     C34148  -3.208   8.617   5.642  0.2884  0.1317  0.4399
 1017MOL0     C34149  -3.303   8.591   5.525 -0.5464  0.0609  0.7832
 1017MOL0     C34150  -3.262   8.667   5.399  0.0978 -0.2277 -0.4483
 1017MOL0     C34151  -3.375   8.660   5.296 -0.3151  0.0939 -0.3259
 1017MOL0     C34152  -3.494   8.744   5.322  0.7488  0.3546 -0.5469
 1017MOL0     C34153  -3.616   8.721   5.219 -0.5214 -0.6240 -0.1569
 1017MOL0     C34154  -3.734   8.807   5.249  0.1264  0.8914 -0.2905
 1017MOL0     C34155  -3.817   8.825   5.115  0.1198 -0.2733  0.1381
 1017MOL0    Cl34156  -3.924   8.684   5.082 -0.0221 -0.7289 -0.2449
 1017MOL0     C34157  -2.853   8.500   5.669 -0.7393  0.3634 -0.5139
 1017MOL0     C34158  -2.747   8.477   5.758  0.6938  0.0487  0.1634
 1017MOL0     O34159  -2.488   8.617   5.818  0.5890 -0.2204 -0.1875
 1017MOL0     C34160  -2.437   8.500   6.152 -0.4850  0.6766  0.1788
 1017MOL0     C34161  -2.340   8.472   6.252 -0.4745 -0.9975  0.1892
 1017MOL0     N34162  -1.565   8.452   6.405 -1.0815 -0.4390  0.2881
 1017MOL0     N34163  -1.456   8.388   6.375  0.2254  0.2909 -0.5098
 1017MOL0     C34164  -0.199   8.120   6.319 -0.1618 -1.3276 -0.4795
 1017MOL0     C34165  -0.058   8.131   6.297  0.5346  0.3225  0.2280
 1017MOL0     C34166   0.335   8.319   6.248 -0.4969 -0.8147  0.3393
 1017MOL0     C34167   0.430   8.284   6.347 -0.7278 -0.0251 -0.4682
 1017MOL0     C34168   0.561   8.327   6.336 -0.3029  0.2568  0.0983
 1017MOL0     C34169   0.591   8.416   6.232 -0.2435  0.2992 -0.6995
 1017MOL0     O34170   0.719   8.482   6.248  0.5798 -0.2467  0.5442
 1017MOL0     C34171   0.765   8.570   6.140  0.1030  0.0644  0.5448
 1017MOL0     C34172   0.915   8.600   6.176 -0.0728 -0.5114 -0.1843
 1017MOL0     C34173   0.983   8.673   6.065  0.2158 -0.5404  0.8660
 1017MOL0     C34174   1.125   8.707   6.108  0.3333  0.1042  0.3435
 1017MOL0     C34175   1.195   8.774   5.993 -0.2343  0.2852 -0.2443
 1017MOL0     C34176   1.243   8.836   5.897  0.2144  0.3740  0.0585
 1017MOL0     C34177   0.498   8.452   6.139  0.4409 -0.4319  0.0802
 1017MOL0     C34178   0.362   8.409   6.151 -1.3604 -0.6352  0.2320
 1017MOL0     H34179   0.007   8.283   6.598 -2.3769  1.4704  0.8112
 1017MOL0     H34180  -0.225   8.246   6.633 -0.4923 -2.4328  0.3151
 1017MOL0     H34181  -0.430   8.210   6.629  3.6369 -1.0971 -0.0635
 1017MOL0     H34182  -0.393   8.034   6.625 -1.5440 -1.1236 -0.4202
 1017MOL0     H34183  -0.620   8.076   6.682 -0.0523 -1.8090 -0.8138
 1017MOL0     H34184  -0.617   7.990   6.527  1.8145 -0.6927 -1.5866
 1017MOL0     H34185  -0.660   8.196   6.404  1.2929 -0.0088 -0.1450
 1017MOL0     H34186  -0.657   8.290   6.562 -1.7993 -0.5674  0.6946
 1017MOL0     H34187  -0.844   8.051   6.502  1.0142  1.0310 -0.9087
 1017MOL0     H34188  -0.847   8.153   6.649  0.2842 -1.5804 -0.0292
 1017MOL0     H34189  -0.916   8.265   6.374 -0.9671  1.3356 -0.3366
 1017MOL0     H34190  -0.925   8.346   6.525 -0.1798 -0.9931  1.9749
 1017MOL0     H34191  -1.071   8.171   6.611  0.5850  3.7798 -0.1217
 1017MOL0     H34192  -1.095   8.079   6.456 -1.4527  0.6334 -1.0692
 1017MOL0     H34193  -1.172   8.384   6.473 -0.8883  0.3065  2.3928
 1017MOL0     H34194  -1.195   8.267   6.345  1.9841  0.9621 -0.9013
 1017MOL0     H34195  -1.309   8.259   6.629 -1.4867 -1.5662  0.3956
 1017MOL0     H34196  -1.341   8.131   6.501 -0.5620  1.0250 -2.1276
 1017MOL0     H34197  -1.591   8.195   6.601  0.4671  0.4670  0.4951
 1017MOL0     H34198  -1.756   8.499   6.637  1.0968  0.0030 -1.4944
 1017MOL0     H34199  -1.798   8.326   6.621 -1.3010  1.8207  2.8694
 1017MOL0     H34200  -1.979   8.438   6.539  1.6858 -2.5071  2.2694
 1017MOL0     H34201  -1.911   8.364   6.398  0.5046  0.1462 -0.3511
 1017MOL0     H34202  -1.848   8.649   6.476  4.2206 -1.9953  1.2340
 1017MOL0     H34203  -1.791   8.580   6.326 -0.4555  4.3773 -0.9148
 1017MOL0     H34204  -1.954   8.573   6.214  2.0574  0.5893  0.2957
 1017MOL0     H34205  -2.022   8.703   6.315 -0.7852 -0.4909 -1.7957
 1017MOL0     H34206  -2.101   8.659   6.106 -0.0150  0.0669  1.7910
 1017MOL0     H34207  -2.254   8.675   5.922  3.6803 -0.2252  0.5259
 1017MOL0     H34208  -2.866   8.668   6.005 -0.5395 -0.3419 -0.2201
 1017MOL0     H34209  -3.052   8.709   5.842 -0.1072 -0.3515 -1.7261
 1017MOL0     H34210  -3.226   8.718   5.682 -1.7586 -0.7708  1.9940
 1017MOL0     H34211  -3.236   8.546   5.721  5.6766  0.1437  2.8260
 1017MOL0     H34212  -3.404   8.611   5.562 -1.5684 -1.8611 -0.7750
 1017MOL0     H34213  -3.313   8.485   5.501 -0.6798  0.1388  0.4975
 1017MOL0     H34214  -3.178   8.617   5.350  0.0862  2.6897 -3.8249
 1017MOL0     H34215  -3.237   8.773   5.409 -0.2732  0.1710 -2.9716
 1017MOL0     H34216  -3.332   8.690   5.200  4.0955  0.0567  1.4010
 1017MOL0     H34217  -3.413   8.558   5.288  1.3214 -0.8155  2.1429
 1017MOL0     H34218  -3.476   8.852   5.314  0.5713  0.3823 -0.5670
 1017MOL0     H34219  -3.532   8.728   5.423 -0.7313  2.3957 -0.7137
 1017MOL0     H34220  -3.651   8.618   5.225 -5.3758  0.4522 -3.6699
 1017MOL0     H34221  -3.571   8.749   5.123 -0.5353  6.0758  1.2639
 1017MOL0     H34222  -3.802   8.759   5.320 -3.0064 -1.1982 -4.2434
 1017MOL0     H34223  -3.697   8.901   5.290  0.7645 -0.3025  2.0343
 1017MOL0     H34224  -3.757   8.839   5.024 -1.1809 -1.2520 -0.9024
 1017MOL0     H34225  -3.879   8.913   5.135  0.6217  0.7092 -2.2564
 1017MOL0     H34226  -2.859   8.442   5.577  1.5916  0.5113 -0.8197
 1017MOL0     H34227  -2.664   8.411   5.733  0.9004 -0.0055  0.9496
 1017MOL0     H34228  -2.537   8.467   6.179  0.4398 -0.9197  1.9176
 1017MOL0     H34229  -2.364   8.425   6.347 -3.2836 -0.6977 -0.2630
 1017MOL0     H34230  -0.262   8.080   6.241 -0.0121  0.1424 -1.4021
 1017MOL0     H34231  -0.014   8.082   6.210  0.9528  1.0568  0.0188
 1017MOL0     H34232   0.395   8.217   6.424 -0.5189  1.0616  0.6223
 1017MOL0     H34233   0.635   8.306   6.413 -0.1587 -3.3497 -0.8447
 1017MOL0     H34234   0.703   8.660   6.131 -1.5125 -0.7910  2.4796
 1017MOL0     H34235   0.766   8.518   6.044 -0.3698  2.5966 -0.9225
 1017MOL0     H34236   0.921   8.662   6.266  1.8753 -0.2099 -0.4824
 1017MOL0     H34237   0.966   8.506   6.199  0.7739 -0.1147 -0.4048
 1017MOL0     H34238   0.927   8.759   6.026  1.2896  0.6584  1.8867
 1017MOL0     H34239   0.988   8.603   5.981 -0.7854 -1.0278  1.2004
 1017MOL0     H34240   1.118   8.788   6.181 -0.2860  1.6585 -1.3451
 1017MOL0     H34241   1.190   8.623   6.134 -0.9120 -0.5419  1.5097
 1017MOL0     H34242   1.295   8.871   5.811  1.3001 -0.9959  0.1177
 1017MOL0     H34243   0.524   8.530   6.068  1.2519 -0.6420  0.1303
 1017MOL0     H34244   0.293   8.457   6.083  1.3820  1.0302 -1.5869
 1018MOL0     O34245   9.638   2.630   2.355 -0.6140 -0.1586  0.5759
 1018MOL0     C34246   9.680   2.728   2.419 -0.7301 -1.4674  0.3856
 1018MOL0     O34247   9.606   2.833   2.462 -0.8030  0.4170  0.8085
 1018MOL0     C34248   9.471   2.821   2.463 -0.2305  0.2570  0.0666
 1018MOL0     C34249   9.403   2.853   2.346 -0.2228 -0.1546 -0.3680
 1018MOL0     C34250   9.262   2.832   2.338  0.8941 -0.1336 -0.3082
 1018MOL0     C34251   9.191   2.780   2.448 -0.1848  0.3222 -0.1152
 1018MOL0     O34252   9.055   2.773   2.441 -0.1981 -0.3388  0.3615
 1018MOL0     C34253   8.993   2.899   2.477 -0.3764 -0.4987 -0.0999
 1018MOL0     C34254   8.847   2.869   2.492 -0.3311  0.3901  0.9209
 1018MOL0     C34255   8.773   3.006   2.516  0.1257 -0.0744  0.6965
 1018MOL0     C34256   8.621   3.007   2.533 -0.2599 -0.2664 -0.3150
 1018MOL0     C34257   8.541   2.963   2.410  0.2243 -0.7709 -0.0235
 1018MOL0     C34258   8.397   3.020   2.431  0.0011  0.2081  0.0962
 1018MOL0     C34259   8.312   2.985   2.310  0.6502 -0.1239  0.4797
 1018MOL0     C34260   8.172   3.057   2.333  0.0928 -0.4147 -0.0858
 1018MOL0     N34261   8.095   3.012   2.455  0.3925 -0.3000 -0.6193
 1018MOL0     C34262   8.075   3.086   2.568 -0.5924  0.7561 -0.8220
 1018MOL0     C34263   7.992   3.014   2.646 -0.0727  0.2631 -0.0587
 1018MOL0     C34264   7.929   3.071   2.767  0.7657  0.4095 -0.0299
 1018MOL0     C34265   7.785   3.036   2.768  0.0344  0.5089  0.5782
 1018MOL0     C34266   7.705   3.109   2.875 -0.1919 -0.2057 -0.0869
 1018MOL0     C34267   7.552   3.079   2.857  0.3711  0.0054  0.1890
 1018MOL0     O34268   7.495   3.156   2.749 -0.3798  0.1040 -0.6937
 1018MOL0     C34269   7.359   3.151   2.740 -0.7370  0.0384 -0.4558
 1018MOL0     C34270   7.275   3.062   2.814  0.3460  0.0803 -0.3240
 1018MOL0     C34271   7.135   3.060   2.799 -0.3466  0.8321  0.3627
 1018MOL0     C34272   7.075   3.146   2.708  0.2384  0.6258 -0.4164
 1018MOL0     C34273   6.931   3.151   2.691 -0.1488 -0.0232 -0.0006
 1018MOL0     O34274   6.859   3.101   2.790  0.0247 -0.1034  0.0526
 1018MOL0     C34275   6.721   3.121   2.788  0.2633 -0.5955 -0.5953
 1018MOL0     C34276   6.640   3.020   2.862  0.1292  0.6453  0.5846
 1018MOL0     C34277   6.503   3.044   2.873  0.4825  0.0591  0.0871
 1018MOL0     C34278   6.435   3.151   2.823  0.8876  1.2332 -0.9077
 1018MOL0     O34279   6.302   3.152   2.857 -0.0067 -0.1348  0.3014
 1018MOL0     C34280   6.230   3.278   2.839 -0.0842  0.1687 -0.1623
 1018MOL0     C34281   6.085   3.280   2.874 -0.3247  0.0767  0.3815
 1018MOL0     C34282   6.064   3.216   3.012  0.6547  0.1292 -0.5739
 1018MOL0     C34283   5.934   3.262   3.088 -0.4223  0.0116  0.2317
 1018MOL0     C34284   5.806   3.228   3.011 -0.5594 -0.1633  0.3549
 1018MOL0     C34285   5.682   3.163   3.089 -0.2155  0.1517 -0.4367
 1018MOL0     C34286   5.598   3.249   3.175 -0.7290 -0.4884 -0.0791
 1018MOL0     C34287   5.508   3.183   3.273 -0.2728 -0.3762  0.0258
 1018MOL0    Cl34288   5.382   3.098   3.188  0.1973  0.2549 -0.4379
 1018MOL0     C34289   6.511   3.242   2.753  1.1791 -0.0337  0.1735
 1018MOL0     C34290   6.648   3.231   2.735 -0.3008  0.1516 -0.4096
 1018MOL0     O34291   6.886   3.187   2.586 -0.2220 -0.1683  0.9601
 1018MOL0     C34292   7.162   3.241   2.641 -0.0435 -0.0433 -0.2598
 1018MOL0     C34293   7.300   3.236   2.651  0.5834  0.0605  0.1790
 1018MOL0     N34294   7.964   2.894   2.579 -0.3375 -0.0001 -1.0263
 1018MOL0     N34295   8.029   2.890   2.469 -0.5276 -0.3717 -0.1311
 1018MOL0     C34296   9.262   2.759   2.568 -0.9319 -0.2693 -0.3309
 1018MOL0     C34297   9.403   2.772   2.569  0.4233 -0.1932 -0.2624
 1018MOL0     C34298   9.824   2.749   2.416 -0.1759 -0.2066  0.1912
 1018MOL0     C34299   9.890   2.825   2.515 -0.2022 -0.6200 -0.5444
 1018MOL0     C34300  10.024   2.820   2.523 -0.2205  0.2411 -0.5987
 1018MOL0     C34301  10.106   2.753   2.440 -0.0739 -0.2497  0.4524
 1018MOL0     O34302  10.242   2.756   2.460  0.1545 -0.0805 -0.6441
 1018MOL0     C34303  10.332   2.684   2.366  0.1050  0.4347 -0.2096
 1018MOL0     C34304  10.466   2.735   2.384 -0.5763 -0.4295 -0.4262
 1018MOL0     C34305  10.481   2.882   2.350 -0.5298 -0.7097  0.4817
 1018MOL0     C34306  10.608   2.944   2.399 -0.4257  1.0486  0.3215
 1018MOL0     C34307  10.723   2.858   2.371 -0.3347  0.0129 -1.0633
 1018MOL0     C34308  10.832   2.812   2.349 -0.5251  0.3999  0.5910
 1018MOL0     C34309  10.054   2.674   2.337  0.1070 -0.4264 -0.3836
 1018MOL0     C34310   9.908   2.676   2.327  0.1678 -0.1257  0.7121
 1018MOL0     H34311   9.460   2.869   2.255 -0.3202 -5.4458 -1.7127
 1018MOL0     H34312   9.207   2.849   2.247 -0.6487 -3.0173 -0.0368
 1018MOL0     H34313   9.013   2.978   2.403  0.1102  1.7768  2.2772
 1018MOL0     H34314   9.031   2.932   2.574  1.1142  0.8058 -1.0695
 1018MOL0     H34315   8.832   2.798   2.573  4.2356 -1.8595  0.0731
 1018MOL0     H34316   8.805   2.828   2.399 -1.0525 -1.3206  1.9566
 1018MOL0     H34317   8.796   3.081   2.440 -1.6901  0.3382  0.4909
 1018MOL0     H34318   8.822   3.045   2.605  0.5731  0.4996  0.2048
 1018MOL0     H34319   8.589   2.947   2.619 -1.0528 -0.9575 -1.0800
 1018MOL0     H34320   8.597   3.112   2.555  2.9684  0.2997  1.0740
 1018MOL0     H34321   8.542   2.857   2.386 -1.4680 -0.7712 -0.1610
 1018MOL0     H34322   8.577   3.017   2.322  1.4130  0.0542  0.9251
 1018MOL0     H34323   8.405   3.129   2.437 -2.3965  0.4845 -0.7235
 1018MOL0     H34324   8.358   2.973   2.522 -0.3228 -2.1147 -1.1591
 1018MOL0     H34325   8.359   3.004   2.213 -2.5785  3.6602 -0.6172
 1018MOL0     H34326   8.295   2.877   2.318 -1.4929  0.1136 -0.1703
 1018MOL0     H34327   8.101   3.040   2.252  1.9131 -0.8861 -1.6740
 1018MOL0     H34328   8.188   3.165   2.343 -1.5229 -0.1477 -0.2180
 1018MOL0     H34329   8.121   3.178   2.604  0.0162 -0.5118  1.9227
 1018MOL0     H34330   7.939   3.180   2.774  0.0049  0.7874 -3.3761
 1018MOL0     H34331   7.979   3.021   2.851 -0.3257 -1.4322 -0.4221
 1018MOL0     H34332   7.772   2.927   2.772 -0.8086  0.4761 -1.5456
 1018MOL0     H34333   7.743   3.072   2.674 -2.5150 -0.3453  1.2885
 1018MOL0     H34334   7.735   3.085   2.977  1.3823  2.1858  0.1050
 1018MOL0     H34335   7.711   3.218   2.868  1.9064 -0.2134  0.9433
 1018MOL0     H34336   7.498   3.103   2.949  0.4858 -1.3880  0.6493
 1018MOL0     H34337   7.535   2.972   2.843 -0.7074 -0.0706  1.8947
 1018MOL0     H34338   7.308   2.989   2.888 -3.0874  0.0106  1.3428
 1018MOL0     H34339   7.080   2.986   2.857  0.7444  1.3328  2.0990
 1018MOL0     H34340   6.684   2.936   2.913  1.2538 -0.4342 -1.9686
 1018MOL0     H34341   6.443   2.991   2.947 -0.2054  1.2447  0.3915
 1018MOL0     H34342   6.231   3.304   2.732 -0.2207  0.5206 -0.0781
 1018MOL0     H34343   6.285   3.358   2.888 -0.5790  1.5045 -1.6939
 1018MOL0     H34344   6.026   3.217   2.807  0.4853  1.4751 -1.7194
 1018MOL0     H34345   6.039   3.379   2.871 -1.1448 -0.2865  0.4281
 1018MOL0     H34346   6.152   3.236   3.074 -0.6239 -0.6001  1.5367
 1018MOL0     H34347   6.060   3.108   2.999 -1.0201 -0.2269  2.2184
 1018MOL0     H34348   5.912   3.222   3.188 -4.0404  1.4952  0.1847
 1018MOL0     H34349   5.932   3.371   3.104  0.3270  0.2041 -0.8910
 1018MOL0     H34350   5.827   3.161   2.927 -1.5081  0.4567 -0.3899
 1018MOL0     H34351   5.773   3.321   2.965 -0.0488  0.1191  0.5550
 1018MOL0     H34352   5.712   3.078   3.150 -0.3173  1.0029  0.8215
 1018MOL0     H34353   5.621   3.126   3.006 -0.4859 -0.6172  0.0982
 1018MOL0     H34354   5.665   3.318   3.227 -1.0666  0.0347 -0.3219
 1018MOL0     H34355   5.534   3.304   3.105 -1.4500 -0.4539  0.5948
 1018MOL0     H34356   5.457   3.257   3.334 -0.8903  0.3320 -1.3032
 1018MOL0     H34357   5.560   3.106   3.330 -3.5498 -1.9254  1.2074
 1018MOL0     H34358   6.468   3.333   2.713 -0.0702  0.3300  2.1835
 1018MOL0     H34359   6.703   3.313   2.690  4.6888 -1.5766  1.8644
 1018MOL0     H34360   7.118   3.310   2.570  1.3690  1.8344  0.5968
 1018MOL0     H34361   7.378   3.292   2.600  0.2880 -1.4934 -2.1125
 1018MOL0     H34362   9.211   2.730   2.659 -1.6024 -0.2984 -0.7055
 1018MOL0     H34363   9.453   2.760   2.665  0.3335  1.3969  0.0220
 1018MOL0     H34364   9.846   2.886   2.592 -0.8215 -0.8176 -0.7358
 1018MOL0     H34365  10.061   2.879   2.606 -3.4221  1.6742 -0.0535
 1018MOL0     H34366  10.306   2.702   2.261  1.0777  2.2309 -0.1845
 1018MOL0     H34367  10.337   2.577   2.390 -1.1981  0.0811 -1.3653
 1018MOL0     H34368  10.500   2.728   2.488 -1.4303  2.0305  0.0812
 1018MOL0     H34369  10.534   2.684   2.316  1.2952  1.1948  0.1145
 1018MOL0     H34370  10.403   2.933   2.407 -1.5002 -1.2259 -0.3511
 1018MOL0     H34371  10.457   2.906   2.246 -1.4466  0.7662  1.0034
 1018MOL0     H34372  10.623   3.039   2.346 -0.6385  0.4497 -0.8594
 1018MOL0     H34373  10.602   2.962   2.506  0.5926 -0.0670  0.5795
 1018MOL0     H34374  10.933   2.779   2.333  0.4446  2.8393  1.1892
 1018MOL0     H34375  10.103   2.613   2.262  1.0641 -0.1147 -0.0189
 1018MOL0     H34376   9.850   2.635   2.245  0.5110 -0.0767  0.4416
 1019MOL0     O34377   4.123   9.084   0.271  0.5382  0.3240  0.1695
 1019MOL0     C34378   4.228   9.138   0.254 -0.8547 -0.7304 -0.6250
 1019MOL0     O34379   4.249   9.252   0.174  0.2308  0.0024 -0.0661
 1019MOL0     C34380   4.156   9.331   0.117 -0.0937  0.4893  0.0659
 1019MOL0     C34381   4.014   9.331   0.122  0.0299  0.0067 -0.0831
 1019MOL0     C34382   3.928   9.416   0.057  0.2643 -0.3203 -0.5832
 1019MOL0     C34383   3.978   9.520  -0.020  0.3133  0.2393 -0.1038
 1019MOL0     O34384   3.916   9.616  -0.091 -0.5018 -0.0327  0.0531
 1019MOL0     C34385   3.771   9.613  -0.073 -0.3665  0.2900  0.9997
 1019MOL0     C34386   3.704   9.714  -0.173 -0.4321 -0.3477 -0.6866
 1019MOL0     C34387   3.551   9.699  -0.176  0.3558 -0.1214  0.7928
 1019MOL0     C34388   3.495   9.817  -0.254  0.7095 -0.8181 -0.6192
 1019MOL0     C34389   3.354   9.778  -0.293  0.0455  0.5486  0.1827
 1019MOL0     C34390   3.254   9.743  -0.176 -0.0363 -0.0500 -0.8214
 1019MOL0     C34391   3.115   9.700  -0.217  0.0705 -0.0095 -0.8105
 1019MOL0     C34392   3.051   9.750  -0.353 -0.2750 -0.9569 -0.6576
 1019MOL0     N34393   2.904   9.726  -0.343  0.0846 -0.3749  0.3301
 1019MOL0     C34394   2.824   9.688  -0.446 -0.1150  0.0426  0.2408
 1019MOL0     C34395   2.702   9.693  -0.392  0.5672  0.1173 -0.0385
 1019MOL0     C34396   2.577   9.666  -0.478  1.0847 -0.5987 -0.1516
 1019MOL0     C34397   2.463   9.632  -0.383 -0.9945  0.2470 -0.2162
 1019MOL0     C34398   2.327   9.603  -0.449 -0.0825 -0.1472 -0.4646
 1019MOL0     C34399   2.218   9.630  -0.346 -0.3751  0.7002  0.4937
 1019MOL0     O34400   2.088   9.630  -0.413  0.2812 -0.2352 -0.1054
 1019MOL0     C34401   1.979   9.688  -0.350  0.2145 -0.2000 -0.4520
 1019MOL0     C34402   1.973   9.702  -0.210  0.4990 -0.2240  0.0116
 1019MOL0     C34403   1.854   9.747  -0.155  0.9377 -0.8101 -0.3118
 1019MOL0     C34404   1.750   9.800  -0.237 -0.6396  0.4745 -0.1579
 1019MOL0     C34405   1.643   9.876  -0.163  0.1521 -0.0867 -0.1783
 1019MOL0     O34406   1.635   9.882  -0.023 -0.4968 -0.0705  0.8480
 1019MOL0     C34407   1.529   9.939   0.041  0.7828  0.0822 -0.2092
 1019MOL0     C34408   1.552  10.044   0.139  0.1706 -1.2988 -0.5334
 1019MOL0     C34409   1.452  10.098   0.214 -0.0183 -0.6076 -0.2234
 1019MOL0     C34410   1.320  10.059   0.192  0.0226 -0.1436  0.7611
 1019MOL0     O34411   1.222  10.112   0.267 -0.4788 -0.3368 -0.3417
 1019MOL0     C34412   1.094  10.122   0.206 -0.9977 -0.5971  0.0631
 1019MOL0     C34413   0.999  10.208   0.289  0.0869 -0.0723  0.7214
 1019MOL0     C34414   0.866  10.208   0.208  0.2321  0.0100 -0.4157
 1019MOL0     C34415   0.744  10.269   0.270 -1.0248 -0.3342 -0.1808
 1019MOL0     C34416   0.628  10.279   0.171 -0.5956 -0.3932  0.1041
 1019MOL0     C34417   0.487  10.276   0.230  0.2463 -0.9872 -0.0065
 1019MOL0     C34418   0.464  10.392   0.327 -0.3318  0.9965  0.5063
 1019MOL0     C34419   0.347  10.379   0.424 -0.6228 -0.2251  0.2130
 1019MOL0    Cl34420   0.220  10.481   0.370  0.5072 -0.0714  0.6329
 1019MOL0     C34421   1.298   9.955   0.097 -0.7569 -0.4931  0.0826
 1019MOL0     C34422   1.402   9.899   0.019 -0.2393 -0.3385  0.4927
 1019MOL0     O34423   1.562   9.929  -0.236 -0.2826 -0.2111 -0.0815
 1019MOL0     C34424   1.759   9.792  -0.375  0.1968  0.2691 -0.4081
 1019MOL0     C34425   1.870   9.736  -0.430  0.0019  0.2490 -0.3870
 1019MOL0     N34426   2.708   9.731  -0.262 -0.1822  0.2955 -0.5296
 1019MOL0     N34427   2.834   9.740  -0.229  0.5530 -0.0064 -0.3532
 1019MOL0     C34428   4.118   9.538  -0.019  0.0530  0.1324 -0.0960
 1019MOL0     C34429   4.203   9.438   0.043 -0.1561  0.3282 -0.1957
 1019MOL0     C34430   4.341   9.093   0.334  0.0239  0.7237 -0.3741
 1019MOL0     C34431   4.346   8.964   0.389  0.5737  0.6708  0.0999
 1019MOL0     C34432   4.455   8.921   0.454 -0.2467  0.1156  0.2660
 1019MOL0     C34433   4.562   9.009   0.482  0.5241  0.1781 -0.1321
 1019MOL0     O34434   4.671   8.953   0.532  0.4025  0.0881 -0.1217
 1019MOL0     C34435   4.793   9.022   0.536  0.2082 -0.2095 -0.6103
 1019MOL0     C34436   4.902   8.920   0.581 -0.3974  0.0371  0.2674
 1019MOL0     C34437   5.032   8.996   0.581 -0.8719 -0.0481  0.9633
 1019MOL0     C34438   5.157   8.911   0.610  0.4785 -0.0281 -0.8479
 1019MOL0     C34439   5.175   8.815   0.499  0.6705 -0.1783  0.4932
 1019MOL0     C34440   5.195   8.721   0.419  0.2045 -0.4901  0.3563
 1019MOL0     C34441   4.559   9.140   0.429  0.5312  0.4926 -0.2419
 1019MOL0     C34442   4.450   9.181   0.353 -0.3666 -0.4512  0.5519
 1019MOL0     H34443   3.971   9.254   0.186  1.1867 -1.1294 -0.6146
 1019MOL0     H34444   3.821   9.398   0.063  0.0761 -0.1584 -2.5867
 1019MOL0     H34445   3.739   9.619   0.031  1.5969 -1.4529  1.7707
 1019MOL0     H34446   3.724   9.519  -0.105 -3.1296  1.8524  0.1278
 1019MOL0     H34447   3.750   9.702  -0.271  3.7739 -0.1721  1.0418
 1019MOL0     H34448   3.739   9.813  -0.144 -0.8629 -0.4351  0.1579
 1019MOL0     H34449   3.516   9.690  -0.073  1.2072 -1.5292  0.9851
 1019MOL0     H34450   3.522   9.608  -0.229 -2.1991 -0.0049  1.8606
 1019MOL0     H34451   3.485   9.902  -0.185 -1.4454 -2.6278  1.4591
 1019MOL0     H34452   3.551   9.838  -0.346  0.9336 -0.8440 -0.4896
 1019MOL0     H34453   3.359   9.687  -0.353 -1.6749  0.3123  0.3388
 1019MOL0     H34454   3.308   9.860  -0.349 -0.4167 -0.7312 -1.3726
 1019MOL0     H34455   3.231   9.827  -0.109 -3.1892 -0.2426 -1.4949
 1019MOL0     H34456   3.304   9.667  -0.115 -0.6037  0.4517  0.3107
 1019MOL0     H34457   3.122   9.592  -0.233  2.4259  0.0855 -0.8187
 1019MOL0     H34458   3.059   9.712  -0.124 -0.1153  1.5655 -1.1064
 1019MOL0     H34459   3.109   9.708  -0.436  3.0453 -0.2179  1.0850
 1019MOL0     H34460   3.071   9.857  -0.358  1.1506 -1.2012 -0.7391
 1019MOL0     H34461   2.854   9.669  -0.548  0.3219 -1.6860  0.6573
 1019MOL0     H34462   2.579   9.579  -0.545 -3.2975 -2.8734  2.2709
 1019MOL0     H34463   2.564   9.752  -0.544 -2.3138 -2.0262 -1.5552
 1019MOL0     H34464   2.452   9.711  -0.308  0.7612 -0.4035  0.7758
 1019MOL0     H34465   2.483   9.545  -0.321  2.2111  1.3952  0.5452
 1019MOL0     H34466   2.323   9.667  -0.537 -4.2150 -0.7024 -0.8398
 1019MOL0     H34467   2.312   9.504  -0.492 -0.4803 -1.0296  1.5685
 1019MOL0     H34468   2.220   9.730  -0.302 -3.1082  0.4402  1.4496
 1019MOL0     H34469   2.218   9.552  -0.269 -0.4969  0.1457 -0.0563
 1019MOL0     H34470   2.048   9.653  -0.148  1.1963 -1.4202 -1.7068
 1019MOL0     H34471   1.841   9.755  -0.047 -2.2839  3.1083 -0.7327
 1019MOL0     H34472   1.653  10.082   0.142  1.2629 -3.8887 -2.0188
 1019MOL0     H34473   1.485  10.174   0.285 -0.0848  0.7974 -1.6459
 1019MOL0     H34474   1.050  10.022   0.200 -4.8523  0.9766 -4.7577
 1019MOL0     H34475   1.096  10.173   0.109 -3.3181  1.5681  1.0693
 1019MOL0     H34476   1.025  10.314   0.298 -0.3992  0.2203 -1.0133
 1019MOL0     H34477   0.990  10.161   0.387 -0.7080  0.3612  0.8622
 1019MOL0     H34478   0.842  10.101   0.202 -0.6720  0.2220 -0.7448
 1019MOL0     H34479   0.871  10.246   0.106 -1.3553  1.8944  0.1654
 1019MOL0     H34480   0.715  10.214   0.360  0.5802 -1.4624 -0.3179
 1019MOL0     H34481   0.774  10.368   0.306 -0.0810  0.6498 -3.3757
 1019MOL0     H34482   0.627  10.188   0.109  1.5297 -0.5309  0.2045
 1019MOL0     H34483   0.646  10.366   0.108 -2.6594 -1.1758 -1.7380
 1019MOL0     H34484   0.448  10.191   0.287 -2.6088 -0.9539 -1.7019
 1019MOL0     H34485   0.414  10.284   0.148  0.0362  1.0177  0.3261
 1019MOL0     H34486   0.555  10.419   0.382  0.8742 -0.0853 -0.8444
 1019MOL0     H34487   0.448  10.482   0.266 -1.3986 -0.6095 -1.7284
 1019MOL0     H34488   0.381  10.410   0.524 -0.0720  0.8173 -0.2881
 1019MOL0     H34489   0.314  10.276   0.441  0.4672 -0.9158 -1.5893
 1019MOL0     H34490   1.205   9.900   0.098 -1.6938  1.0133 -0.4928
 1019MOL0     H34491   1.387   9.827  -0.061  1.0875  1.9532 -1.9578
 1019MOL0     H34492   1.681   9.835  -0.437  0.6484 -0.4940 -1.5417
 1019MOL0     H34493   1.879   9.724  -0.537 -2.0128 -0.3859 -0.5419
 1019MOL0     H34494   4.169   9.617  -0.073 -0.1829  1.0134  0.9481
 1019MOL0     H34495   4.309   9.460   0.046 -0.7365  3.6568  2.2363
 1019MOL0     H34496   4.270   8.888   0.374  2.0537 -1.0440  0.8720
 1019MOL0     H34497   4.452   8.818   0.487  0.0351  0.3715  1.1073
 1019MOL0     H34498   4.780   9.098   0.613 -1.0758  1.7457 -2.6259
 1019MOL0     H34499   4.825   9.079   0.448  0.0206 -0.9958 -1.2061
 1019MOL0     H34500   4.884   8.868   0.675  1.4004 -1.7089 -0.2819
 1019MOL0     H34501   4.909   8.840   0.506 -0.4342 -0.9901  1.3286
 1019MOL0     H34502   5.022   9.092   0.633 -3.5439 -0.5925  1.5853
 1019MOL0     H34503   5.045   9.025   0.477 -2.4316 -0.3943  0.6517
 1019MOL0     H34504   5.242   8.976   0.628  0.3870 -0.5686  2.0019
 1019MOL0     H34505   5.149   8.848   0.699 -1.2205  2.9836  1.3374
 1019MOL0     H34506   5.216   8.643   0.349  1.1113  0.5942 -0.6410
 1019MOL0     H34507   4.632   9.217   0.450  0.2585  0.4425  0.9708
 1019MOL0     H34508   4.449   9.280   0.309 -0.9476 -0.8208 -0.2850
 1020MOL0     O34509   5.275   2.006   7.651 -0.4445 -0.0578 -0.2798
 1020MOL0     C34510   5.321   2.118   7.645  0.3415  0.7472 -0.4707
 1020MOL0     O34511   5.244   2.228   7.624  0.3967 -0.3289 -0.1872
 1020MOL0     C34512   5.106   2.221   7.620 -0.0990  0.2838 -0.2997
 1020MOL0     C34513   5.051   2.316   7.538 -0.2344 -0.3377 -0.2631
 1020MOL0     C34514   4.913   2.338   7.526 -1.1100 -0.3783 -0.6264
 1020MOL0     C34515   4.824   2.268   7.608 -0.4063 -0.2286  0.7296
 1020MOL0     O34516   4.690   2.292   7.579 -0.2815 -0.3848 -0.0677
 1020MOL0     C34517   4.598   2.180   7.609  0.0263  0.3322 -0.7091
 1020MOL0     C34518   4.463   2.191   7.520  0.6211  0.4663  0.1605
 1020MOL0     C34519   4.327   2.129   7.571  0.2623  0.6243 -0.6371
 1020MOL0     C34520   4.216   2.187   7.499  0.3784  0.2475 -0.4854
 1020MOL0     C34521   4.085   2.101   7.491 -0.8163 -0.1126  0.7191
 1020MOL0     C34522   4.045   2.044   7.621 -0.1424 -0.7484  0.0357
 1020MOL0     C34523   3.892   2.061   7.644 -0.1707  0.0754  0.1216
 1020MOL0     C34524   3.809   1.964   7.552  0.1082  0.0390 -0.5792
 1020MOL0     N34525   3.665   1.986   7.559 -0.6662 -0.3047 -0.2855
 1020MOL0     C34526   3.565   1.932   7.477  0.5031  0.3899 -0.2126
 1020MOL0     C34527   3.451   1.998   7.507 -1.2470 -0.3209 -0.0361
 1020MOL0     C34528   3.318   1.990   7.444 -0.5271 -0.1112  1.0105
 1020MOL0     C34529   3.282   2.119   7.366  0.0874  0.7552 -0.3441
 1020MOL0     C34530   3.132   2.116   7.330 -0.3432  0.1265  0.2466
 1020MOL0     C34531   3.086   2.245   7.272 -0.1538 -0.0687 -0.6280
 1020MOL0     O34532   2.967   2.250   7.201 -0.2052  0.5871 -0.2592
 1020MOL0     C34533   2.854   2.266   7.284 -0.5684 -0.4238  0.1925
 1020MOL0     C34534   2.738   2.202   7.239  0.0608 -0.2850  0.7331
 1020MOL0     C34535   2.619   2.218   7.311 -0.2327 -0.2450 -0.3444
 1020MOL0     C34536   2.611   2.314   7.414 -0.2942  0.6127 -0.1906
 1020MOL0     C34537   2.471   2.335   7.469 -0.7700 -0.0893  0.8649
 1020MOL0     O34538   2.461   2.407   7.583  0.1590  0.0879  0.3113
 1020MOL0     C34539   2.333   2.451   7.623  0.2554  0.0884 -0.2632
 1020MOL0     C34540   2.319   2.576   7.666 -0.3931 -0.8709  0.0705
 1020MOL0     C34541   2.191   2.628   7.689 -0.0710  0.1781  0.3404
 1020MOL0     C34542   2.085   2.543   7.684  0.5368  0.3937 -0.0488
 1020MOL0     O34543   1.961   2.580   7.717 -0.2221 -0.0128  0.2293
 1020MOL0     C34544   1.890   2.640   7.610  0.3608 -0.2449 -0.8318
 1020MOL0     C34545   1.754   2.710   7.662  0.1593  0.8078  0.1365
 1020MOL0     C34546   1.663   2.739   7.542  1.3400 -1.7693 -0.8986
 1020MOL0     C34547   1.516   2.782   7.576 -0.2438 -0.2217  0.7652
 1020MOL0     C34548   1.426   2.666   7.636  0.0733  0.0069 -0.5298
 1020MOL0     C34549   1.276   2.665   7.584 -0.4620 -0.7308  0.7252
 1020MOL0     C34550   1.188   2.786   7.608 -0.3143  0.1542  0.0585
 1020MOL0     C34551   1.043   2.765   7.554 -0.0750  0.5393 -0.6096
 1020MOL0    Cl34552   0.944   2.914   7.572  0.2981  0.4815  0.1148
 1020MOL0     C34553   2.099   2.408   7.658 -0.8752 -0.1692  0.9661
 1020MOL0     C34554   2.227   2.361   7.627 -0.0821 -0.1382  0.4464
 1020MOL0     O34555   2.376   2.304   7.391  0.2364 -0.3525 -0.9203
 1020MOL0     C34556   2.729   2.366   7.465  0.1846 -0.9680  0.3778
 1020MOL0     C34557   2.847   2.345   7.398  0.7875 -0.8380 -0.0927
 1020MOL0     N34558   3.479   2.079   7.628 -0.2862  0.6778 -0.2187
 1020MOL0     N34559   3.606   2.069   7.648  0.5227 -0.5542  0.1100
 1020MOL0     C34560   4.879   2.168   7.700 -0.1814 -0.0493  0.5975
 1020MOL0     C34561   5.019   2.162   7.713 -0.7241  0.7394  0.7506
 1020MOL0     C34562   5.461   2.130   7.673 -0.1957  1.1602 -0.7876
 1020MOL0     C34563   5.554   2.024   7.650 -0.6891  0.3391 -0.2364
 1020MOL0     C34564   5.687   2.038   7.658  0.5882  0.1464 -0.8295
 1020MOL0     C34565   5.740   2.164   7.707 -0.6338 -0.1501  0.6091
 1020MOL0     O34566   5.875   2.196   7.706 -0.2749  0.1575 -0.0656
 1020MOL0     C34567   5.980   2.099   7.695 -0.4153  1.2881  0.0358
 1020MOL0     C34568   6.110   2.173   7.708 -0.0600 -0.0684 -0.4654
 1020MOL0     C34569   6.232   2.070   7.700 -0.2760  0.1618 -0.3815
 1020MOL0     C34570   6.373   2.130   7.701  0.2045 -0.0716  0.1655
 1020MOL0     C34571   6.396   2.194   7.569  0.0937  0.0249 -0.1474
 1020MOL0     C34572   6.441   2.244   7.469  0.1246  0.7569  0.1216
 1020MOL0     C34573   5.648   2.270   7.731 -0.0698  0.0329 -0.0932
 1020MOL0     C34574   5.512   2.250   7.716  0.3566 -0.0968  0.8823
 1020MOL0     H34575   5.120   2.373   7.477 -2.0679  2.5968  0.2266
 1020MOL0     H34576   4.879   2.423   7.468  0.5057  1.2215  0.6310
 1020MOL0     H34577   4.569   2.176   7.714 -1.1271  0.7138 -1.0050
 1020MOL0     H34578   4.633   2.079   7.582  0.1974  0.3537 -0.5708
 1020MOL0     H34579   4.486   2.152   7.421  1.0479 -0.2516  0.5399
 1020MOL0     H34580   4.453   2.300   7.508  1.3606  0.6000  0.7047
 1020MOL0     H34581   4.317   2.136   7.679  3.2606 -1.2741 -0.1119
 1020MOL0     H34582   4.317   2.022   7.549 -1.7189  0.7347 -0.3668
 1020MOL0     H34583   4.192   2.281   7.549 -3.2831 -0.6171 -0.3223
 1020MOL0     H34584   4.248   2.213   7.397 -1.9054  0.9123 -1.0864
 1020MOL0     H34585   4.103   2.025   7.414  1.7620  3.1542 -2.3296
 1020MOL0     H34586   4.014   2.166   7.438  2.8951  3.0233 -0.9851
 1020MOL0     H34587   4.098   2.087   7.706  3.4329  0.5615 -2.6214
 1020MOL0     H34588   4.064   1.937   7.615  0.8535 -0.7950  2.8851
 1020MOL0     H34589   3.866   2.052   7.750  0.7536  4.0883  0.8888
 1020MOL0     H34590   3.869   2.163   7.612 -3.8750 -0.5703  0.2823
 1020MOL0     H34591   3.812   1.862   7.591 -1.4476  0.3700  0.5247
 1020MOL0     H34592   3.844   1.972   7.449 -0.8207 -0.4130 -0.9431
 1020MOL0     H34593   3.572   1.854   7.402 -0.8090  0.3634 -0.3397
 1020MOL0     H34594   3.239   1.974   7.518 -0.8452  2.1725  1.2136
 1020MOL0     H34595   3.299   1.897   7.388 -2.3261 -0.6996  2.4955
 1020MOL0     H34596   3.341   2.134   7.276 -2.4392  2.7398 -1.8287
 1020MOL0     H34597   3.310   2.206   7.427  0.5669  0.3053  0.0868
 1020MOL0     H34598   3.124   2.038   7.254  2.4978  0.4976 -0.5707
 1020MOL0     H34599   3.070   2.090   7.416  0.9983  0.9347  1.5159
 1020MOL0     H34600   3.165   2.261   7.198  1.7430  1.2162  1.5449
 1020MOL0     H34601   3.095   2.330   7.341 -0.9843  0.6156 -1.3374
 1020MOL0     H34602   2.729   2.151   7.144  0.4650  3.0341 -1.2732
 1020MOL0     H34603   2.527   2.177   7.269 -0.4076  1.0762 -1.3287
 1020MOL0     H34604   2.412   2.628   7.684 -1.4400  1.0899  0.0817
 1020MOL0     H34605   2.169   2.732   7.710 -1.9159 -0.1211  0.0664
 1020MOL0     H34606   1.873   2.562   7.535 -1.3648 -2.0136  1.2493
 1020MOL0     H34607   1.953   2.715   7.561  1.0463  1.1178  1.9080
 1020MOL0     H34608   1.771   2.794   7.729 -0.0196  0.9150  0.0480
 1020MOL0     H34609   1.695   2.633   7.713  1.2440 -0.0868  0.0912
 1020MOL0     H34610   1.651   2.655   7.473 -3.9081 -0.0309 -2.6085
 1020MOL0     H34611   1.706   2.829   7.496  0.0189 -0.6171  0.0133
 1020MOL0     H34612   1.514   2.872   7.638  2.9936  0.0607  0.6689
 1020MOL0     H34613   1.478   2.818   7.480  3.3460 -0.7510 -1.0491
 1020MOL0     H34614   1.431   2.674   7.745 -4.4222  0.2724 -0.1487
 1020MOL0     H34615   1.470   2.568   7.615 -3.2244 -1.7839  0.3242
 1020MOL0     H34616   1.221   2.580   7.627 -2.7058  0.4683  0.3505
 1020MOL0     H34617   1.287   2.654   7.475 -1.2305 -1.1393  0.6816
 1020MOL0     H34618   1.176   2.795   7.716 -2.3050  0.0995 -0.1238
 1020MOL0     H34619   1.232   2.875   7.561 -0.7408  0.3499  0.0289
 1020MOL0     H34620   0.993   2.689   7.614  0.4784  1.1034  0.5863
 1020MOL0     H34621   1.058   2.736   7.450  1.1762 -1.2749  0.0385
 1020MOL0     H34622   2.018   2.335   7.657 -0.0793 -1.2008  3.5421
 1020MOL0     H34623   2.240   2.260   7.589 -0.0887  1.6086 -4.9948
 1020MOL0     H34624   2.729   2.435   7.548 -0.4110 -2.3136  1.5425
 1020MOL0     H34625   2.939   2.392   7.433  1.6929 -0.5420 -2.6229
 1020MOL0     H34626   4.818   2.103   7.761 -0.6199 -0.3663 -0.1723
 1020MOL0     H34627   5.066   2.104   7.792  2.2338  1.0432 -0.6775
 1020MOL0     H34628   5.531   1.922   7.623  0.5923 -0.3905  1.2402
 1020MOL0     H34629   5.753   1.953   7.643  0.4496 -0.5046  1.7334
 1020MOL0     H34630   5.977   2.046   7.599 -2.6234  0.1021  0.6988
 1020MOL0     H34631   5.970   2.026   7.775 -0.7314  0.6615 -0.5663
 1020MOL0     H34632   6.129   2.251   7.634  1.9709  1.2481  1.3182
 1020MOL0     H34633   6.101   2.218   7.807  0.4708  0.7055 -0.7570
 1020MOL0     H34634   6.215   2.006   7.613  0.1830 -1.3612  0.6099
 1020MOL0     H34635   6.227   2.000   7.784  1.6094 -2.2825 -2.1364
 1020MOL0     H34636   6.390   2.196   7.787  1.7398  1.0329 -0.9129
 1020MOL0     H34637   6.444   2.047   7.710 -0.1006 -0.1403  2.2773
 1020MOL0     H34638   6.479   2.278   7.375 -1.7267  2.5226 -0.0382
 1020MOL0     H34639   5.680   2.365   7.772 -0.4272  0.7354 -1.3716
 1020MOL0     H34640   5.438   2.329   7.725 -0.8668 -1.0376 -0.5810
 1021MOL0     O34641   5.698   2.736   0.319  0.6947 -0.1886 -0.5036
 1021MOL0     C34642   5.777   2.774   0.405 -0.7453  0.2903 -0.7613
 1021MOL0     O34643   5.758   2.778   0.541 -0.1069 -0.1425 -0.6660
 1021MOL0     C34644   5.639   2.740   0.593 -0.1930 -0.2569  0.8176
 1021MOL0     C34645   5.553   2.637   0.543  0.3119 -0.1282  0.8007
 1021MOL0     C34646   5.445   2.592   0.611  0.1738 -0.3770 -0.1307
 1021MOL0     C34647   5.402   2.657   0.732  0.0567  0.1001 -0.3311
 1021MOL0     O34648   5.275   2.624   0.773  0.1229  0.5107 -0.1644
 1021MOL0     C34649   5.228   2.663   0.897  0.1184  0.0137  0.3078
 1021MOL0     C34650   5.125   2.570   0.937  0.0357  0.3791 -0.1753
 1021MOL0     C34651   4.995   2.586   0.843 -0.2862  0.0504 -0.2178
 1021MOL0     C34652   4.878   2.498   0.903  0.3683  0.2819  0.4504
 1021MOL0     C34653   4.745   2.514   0.839  0.5660 -0.0987  0.1259
 1021MOL0     C34654   4.636   2.462   0.923  0.1060 -0.6449  0.0897
 1021MOL0     C34655   4.506   2.474   0.849 -0.6633  0.7664 -0.0807
 1021MOL0     C34656   4.393   2.439   0.945  0.2733 -0.0105  1.0893
 1021MOL0     N34657   4.265   2.510   0.916 -0.4343 -0.2550  0.0545
 1021MOL0     C34658   4.183   2.475   0.824  0.6023  0.0184  1.1236
 1021MOL0     C34659   4.076   2.556   0.830 -0.4679 -0.5305 -0.6205
 1021MOL0     C34660   3.964   2.547   0.728 -0.6729 -0.9198  0.3984
 1021MOL0     C34661   3.842   2.460   0.765 -0.0436  0.1614  0.7295
 1021MOL0     C34662   3.760   2.510   0.885  0.3805 -0.4694  0.1738
 1021MOL0     C34663   3.683   2.635   0.842 -0.0974 -0.3527  0.2361
 1021MOL0     O34664   3.581   2.663   0.935  0.6625 -0.3278 -0.0000
 1021MOL0     C34665   3.490   2.768   0.904 -0.9573  0.0497 -0.8373
 1021MOL0     C34666   3.525   2.878   0.822 -0.5240 -0.1792 -0.0562
 1021MOL0     C34667   3.439   2.983   0.806 -0.0183  0.3144  0.0576
 1021MOL0     C34668   3.313   2.986   0.866 -0.0580 -0.5906  0.2967
 1021MOL0     C34669   3.222   3.102   0.841 -0.2783  0.2666 -0.1645
 1021MOL0     O34670   3.097   3.088   0.877  0.1770  0.3738  0.1062
 1021MOL0     C34671   2.996   3.149   0.812  0.4229 -0.1211  0.3618
 1021MOL0     C34672   3.002   3.178   0.677 -0.8950 -0.3672  0.6043
 1021MOL0     C34673   2.897   3.243   0.617 -0.4286 -1.6305 -0.3110
 1021MOL0     C34674   2.782   3.291   0.678 -0.3752  0.0946 -0.5201
 1021MOL0     O34675   2.679   3.361   0.612 -0.4245  0.3467  0.0416
 1021MOL0     C34676   2.697   3.418   0.483  0.2746 -0.4479 -0.2786
 1021MOL0     C34677   2.628   3.345   0.371  0.7265 -0.9618 -0.3674
 1021MOL0     C34678   2.666   3.198   0.341  0.3042  0.1772  0.2997
 1021MOL0     C34679   2.801   3.168   0.276 -0.8197  0.2426  0.0952
 1021MOL0     C34680   2.865   3.029   0.292  0.5527  0.3462 -0.0844
 1021MOL0     C34681   2.999   3.028   0.212  1.2841 -0.1076  0.2724
 1021MOL0     C34682   3.070   2.893   0.205 -0.0684 -0.2630  0.1280
 1021MOL0     C34683   3.089   2.827   0.342 -0.4525 -0.7355 -0.0691
 1021MOL0    Cl34684   3.197   2.924   0.442 -0.0938  0.8913 -0.1658
 1021MOL0     C34685   2.769   3.254   0.812  0.6355 -0.0044  0.3123
 1021MOL0     C34686   2.882   3.193   0.878  0.6609 -0.1628 -0.1901
 1021MOL0     O34687   3.271   3.200   0.784 -0.2897  0.8702 -0.0378
 1021MOL0     C34688   3.273   2.879   0.950  0.1365  0.3393  0.6983
 1021MOL0     C34689   3.366   2.776   0.973  0.3659 -0.7898  0.7018
 1021MOL0     N34690   4.089   2.633   0.938  0.9255  0.3618  0.3865
 1021MOL0     N34691   4.208   2.610   0.984  0.5693 -0.5278 -0.3096
 1021MOL0     C34692   5.485   2.758   0.785 -0.1568 -0.2360 -0.8322
 1021MOL0     C34693   5.604   2.798   0.715  0.3894  0.3077 -1.1880
 1021MOL0     C34694   5.914   2.791   0.365 -0.5566  0.0826  0.2603
 1021MOL0     C34695   5.962   2.720   0.259 -0.2673  0.5899  0.3432
 1021MOL0     C34696   6.094   2.731   0.208 -0.0273  0.1000 -1.1554
 1021MOL0     C34697   6.189   2.809   0.279  0.8808 -0.6961 -0.2608
 1021MOL0     O34698   6.311   2.811   0.224 -0.6635  0.0913  0.5441
 1021MOL0     C34699   6.418   2.843   0.319 -0.0163  0.1730  0.9309
 1021MOL0     C34700   6.542   2.809   0.249  0.3800  0.1985  0.2136
 1021MOL0     C34701   6.661   2.807   0.341 -0.0509 -0.3507  0.4023
 1021MOL0     C34702   6.792   2.785   0.268 -0.7373 -0.8680  0.9956
 1021MOL0     C34703   6.904   2.756   0.361 -0.0665  0.2461 -0.8844
 1021MOL0     C34704   7.003   2.740   0.435 -0.1861 -0.8875 -0.4056
 1021MOL0     C34705   6.147   2.869   0.395 -0.0704  0.1644  0.9790
 1021MOL0     C34706   6.014   2.862   0.440 -0.1606  0.9660  1.4472
 1021MOL0     H34707   5.583   2.577   0.457 -0.9845  3.0092 -2.0807
 1021MOL0     H34708   5.384   2.509   0.578 -1.8829  0.5765  1.0756
 1021MOL0     H34709   5.194   2.767   0.892 -0.9777 -0.3772 -3.3374
 1021MOL0     H34710   5.305   2.647   0.973 -0.7527 -0.9569  1.0227
 1021MOL0     H34711   5.086   2.592   1.037  0.1244  1.8682 -0.4501
 1021MOL0     H34712   5.166   2.468   0.936 -1.2550 -0.1930  1.1276
 1021MOL0     H34713   5.001   2.548   0.741 -4.6562 -0.3837 -0.4850
 1021MOL0     H34714   4.964   2.691   0.843 -2.3886 -0.5128 -1.7641
 1021MOL0     H34715   4.902   2.392   0.893 -2.0340 -0.2440 -0.3598
 1021MOL0     H34716   4.863   2.528   1.008 -0.2062 -1.4103  0.8782
 1021MOL0     H34717   4.745   2.453   0.748  2.3354 -1.3068  0.8861
 1021MOL0     H34718   4.730   2.617   0.804 -0.1781 -0.9330 -2.2184
 1021MOL0     H34719   4.642   2.516   1.018 -4.6087  0.1718  0.1423
 1021MOL0     H34720   4.660   2.357   0.941 -1.2054 -0.7613  1.3395
 1021MOL0     H34721   4.498   2.580   0.822 -3.3262  1.5089  3.0279
 1021MOL0     H34722   4.491   2.417   0.757 -1.3021 -1.1757  1.1734
 1021MOL0     H34723   4.422   2.470   1.045  4.4937  2.3085 -0.5987
 1021MOL0     H34724   4.379   2.330   0.943 -1.2341  0.1564  0.9187
 1021MOL0     H34725   4.216   2.401   0.751  0.8053  1.5149 -0.3688
 1021MOL0     H34726   4.020   2.512   0.640 -0.7775  1.2099 -0.5741
 1021MOL0     H34727   3.941   2.651   0.705 -2.6104 -1.4303 -0.1266
 1021MOL0     H34728   3.882   2.360   0.785 -0.0988  0.2677  1.3941
 1021MOL0     H34729   3.781   2.445   0.675  1.3750 -0.2565 -0.1917
 1021MOL0     H34730   3.695   2.427   0.913  0.7848 -0.4666  1.1474
 1021MOL0     H34731   3.824   2.529   0.972 -2.5423 -0.0187  2.3828
 1021MOL0     H34732   3.629   2.624   0.748 -1.2411 -1.9032  1.0228
 1021MOL0     H34733   3.755   2.717   0.832  0.0901 -0.4011  1.0698
 1021MOL0     H34734   3.617   2.883   0.764 -1.5543  0.6326 -1.6823
 1021MOL0     H34735   3.478   3.061   0.742 -0.2474  1.8615  1.7048
 1021MOL0     H34736   3.086   3.154   0.612  1.0311 -1.6915  3.3734
 1021MOL0     H34737   2.913   3.253   0.510  0.4621 -2.9046 -0.3212
 1021MOL0     H34738   2.805   3.425   0.464  0.5861 -2.9958  0.1417
 1021MOL0     H34739   2.645   3.512   0.501  1.5035  0.5164 -1.5305
 1021MOL0     H34740   2.650   3.400   0.279  2.3477  1.8633  1.5409
 1021MOL0     H34741   2.523   3.354   0.398  0.1431  0.9594 -2.8475
 1021MOL0     H34742   2.580   3.169   0.279 -0.6414  0.6086  1.3787
 1021MOL0     H34743   2.653   3.143   0.434 -1.6882 -0.1145 -0.1129
 1021MOL0     H34744   2.780   3.177   0.169  2.9210  1.4998 -0.6955
 1021MOL0     H34745   2.870   3.248   0.305 -3.3468  1.5885  2.8690
 1021MOL0     H34746   2.793   2.954   0.258  0.2174 -1.5239  4.1474
 1021MOL0     H34747   2.885   3.015   0.399  1.9217 -0.7897 -0.4665
 1021MOL0     H34748   3.066   3.097   0.264  2.4685 -0.6215 -0.4997
 1021MOL0     H34749   2.992   3.068   0.110  0.5081 -1.1975 -0.1287
 1021MOL0     H34750   3.007   2.843   0.131  1.2557  1.0122 -1.9472
 1021MOL0     H34751   3.171   2.912   0.167  0.8961 -1.2038  2.0791
 1021MOL0     H34752   3.139   2.730   0.334  0.9514 -0.0748  0.4723
 1021MOL0     H34753   2.993   2.824   0.395 -0.6019  3.6440  0.2963
 1021MOL0     H34754   2.671   3.269   0.856 -0.2833 -1.4500 -1.1328
 1021MOL0     H34755   2.871   3.171   0.983 -0.7355 -0.3031 -0.3507
 1021MOL0     H34756   3.186   2.884   1.015 -0.7098  3.4098 -0.4704
 1021MOL0     H34757   3.356   2.711   1.059 -1.3512  0.5097  1.5317
 1021MOL0     H34758   5.464   2.801   0.883  1.5674  1.0418 -0.9813
 1021MOL0     H34759   5.679   2.860   0.763  1.3089 -1.3851 -0.3442
 1021MOL0     H34760   5.892   2.659   0.202  1.2500 -1.0304  0.1104
 1021MOL0     H34761   6.118   2.674   0.119 -2.1256 -3.2211  0.1985
 1021MOL0     H34762   6.409   2.774   0.403  1.5240  0.9444  1.7665
 1021MOL0     H34763   6.405   2.949   0.345 -2.5518  1.0119 -2.8522
 1021MOL0     H34764   6.530   2.710   0.205 -1.1887  1.1103 -1.5527
 1021MOL0     H34765   6.557   2.879   0.166 -2.4125 -0.2373 -0.7621
 1021MOL0     H34766   6.641   2.724   0.409 -2.1058 -2.3418 -2.3412
 1021MOL0     H34767   6.667   2.906   0.388  0.2451  0.4955 -1.3146
 1021MOL0     H34768   6.790   2.704   0.193 -1.9129  0.6937 -0.7473
 1021MOL0     H34769   6.821   2.876   0.216  1.5380 -1.9943  0.1603
 1021MOL0     H34770   7.083   2.728   0.505 -1.6900  1.1630  1.8131
 1021MOL0     H34771   6.209   2.936   0.454 -1.1291  2.4984 -0.4456
 1021MOL0     H34772   5.985   2.904   0.536 -2.6498 -0.7271  1.5455
 1022MOL0     O34773   2.596   0.825   1.755 -0.2104 -0.6242 -0.5156
 1022MOL0     C34774   2.647   0.938   1.744 -0.2065 -0.7213 -0.5287
 1022MOL0     O34775   2.619   1.032   1.649 -0.5811 -0.7366 -0.2835
 1022MOL0     C34776   2.517   1.013   1.566  0.1192  0.4183  0.3059
 1022MOL0     C34777   2.530   1.065   1.443 -1.0971 -0.4650 -0.1635
 1022MOL0     C34778   2.424   1.061   1.348  0.1442  0.1894 -0.0712
 1022MOL0     C34779   2.303   0.992   1.381 -0.1755 -0.2300 -0.3681
 1022MOL0     O34780   2.209   0.987   1.277 -0.3877  0.0567 -0.2315
 1022MOL0     C34781   2.118   0.880   1.276  0.0108  0.0356 -0.4445
 1022MOL0     C34782   2.033   0.908   1.156  0.1870  0.1210 -0.2514
 1022MOL0     C34783   1.924   1.025   1.178  0.6220 -0.4630  0.2050
 1022MOL0     C34784   1.846   1.005   1.313  0.0042  0.0657  0.4329
 1022MOL0     C34785   1.699   1.058   1.293 -0.3245 -0.0592  0.2075
 1022MOL0     C34786   1.606   0.949   1.224  0.6144  0.0612 -0.1466
 1022MOL0     C34787   1.465   1.014   1.193  0.4990 -0.1894 -0.5334
 1022MOL0     C34788   1.337   0.931   1.193 -0.3076 -0.3491  0.0296
 1022MOL0     N34789   1.212   1.003   1.139 -0.7233  0.5777  1.2438
 1022MOL0     C34790   1.131   1.089   1.207 -0.4320 -0.4781  0.6361
 1022MOL0     C34791   1.018   1.100   1.132 -0.8209  0.2682  0.1721
 1022MOL0     C34792   0.898   1.181   1.176  0.5864  1.2579  0.3145
 1022MOL0     C34793   0.793   1.089   1.236  0.5188  0.0039 -0.1498
 1022MOL0     C34794   0.660   1.159   1.258  0.5372 -0.4112 -0.0721
 1022MOL0     C34795   0.560   1.075   1.329  1.1039  0.3582  0.3034
 1022MOL0     O34796   0.442   1.152   1.359  0.4768 -0.1656 -0.1293
 1022MOL0     C34797   0.322   1.093   1.393 -0.8318  0.6175 -0.3709
 1022MOL0     C34798   0.204   1.167   1.400  0.5105 -0.1076  0.4641
 1022MOL0     C34799   0.077   1.107   1.436 -0.7205 -0.4680  0.7145
 1022MOL0     C34800   0.072   0.976   1.460 -0.0825 -0.8301 -0.3291
 1022MOL0     C34801  -0.062   0.920   1.497  0.7418  0.1933 -0.1968
 1022MOL0     O34802  -0.170   1.003   1.477  0.2979 -0.6012 -0.0681
 1022MOL0     C34803  -0.297   0.961   1.461  0.1772 -0.1478  0.8629
 1022MOL0     C34804  -0.390   1.066   1.446  0.4526  0.6322 -0.6031
 1022MOL0     C34805  -0.524   1.038   1.410 -0.2701  0.9334  0.5437
 1022MOL0     C34806  -0.570   0.916   1.386  0.4871  0.7047 -0.8387
 1022MOL0     O34807  -0.706   0.889   1.367 -0.0514  0.0003  0.1650
 1022MOL0     C34808  -0.770   0.998   1.298  0.6322  0.0998  1.1321
 1022MOL0     C34809  -0.898   0.930   1.241  0.4635 -0.0335  0.2894
 1022MOL0     C34810  -1.007   1.018   1.194 -0.0312 -0.3242  0.1508
 1022MOL0     C34811  -1.116   0.951   1.107  0.2284 -0.2096 -0.1459
 1022MOL0     C34812  -1.226   1.052   1.079  0.3303 -0.1613 -0.8807
 1022MOL0     C34813  -1.379   0.995   1.051 -0.9319  0.6437 -0.1068
 1022MOL0     C34814  -1.432   0.880   1.138  0.5948  0.1993 -0.5439
 1022MOL0     C34815  -1.575   0.843   1.108  0.1083  0.7379 -0.3063
 1022MOL0    Cl34816  -1.612   0.799   0.940 -0.4041  0.0970 -0.1441
 1022MOL0     C34817  -0.484   0.808   1.397  0.2814  0.2890 -0.9020
 1022MOL0     C34818  -0.350   0.826   1.436 -0.6386 -0.3196 -0.5093
 1022MOL0     O34819  -0.067   0.806   1.553 -0.4052 -0.1325  0.4362
 1022MOL0     C34820   0.187   0.894   1.452  0.7433 -0.1239 -1.0341
 1022MOL0     C34821   0.309   0.954   1.415  0.4458  0.0257 -1.2012
 1022MOL0     N34822   1.050   1.042   1.012 -0.4764  0.6703  0.1555
 1022MOL0     N34823   1.164   0.984   1.010 -0.3334  0.3033 -0.8133
 1022MOL0     C34824   2.293   0.942   1.508 -0.4338  0.4977 -0.7132
 1022MOL0     C34825   2.392   0.964   1.604 -0.7446  0.4937 -0.1365
 1022MOL0     C34826   2.768   0.966   1.820  1.2693 -0.1838  0.3847
 1022MOL0     C34827   2.846   1.082   1.801  0.1118  0.2720  0.3997
 1022MOL0     C34828   2.962   1.100   1.874  0.2809 -0.8335  0.4792
 1022MOL0     C34829   3.007   1.000   1.967 -0.3289 -0.8722  0.7008
 1022MOL0     O34830   3.123   1.018   2.036 -0.0750 -0.0019 -0.0496
 1022MOL0     C34831   3.198   1.137   2.013 -0.1604  0.3754  1.2151
 1022MOL0     C34832   3.315   1.166   2.105 -0.4397  0.6151 -0.2844
 1022MOL0     C34833   3.264   1.184   2.256 -1.1861  0.2846  0.3957
 1022MOL0     C34834   3.373   1.214   2.354 -0.3954 -0.3724 -0.3078
 1022MOL0     C34835   3.409   1.356   2.339 -0.0872 -0.7005 -0.1941
 1022MOL0     C34836   3.453   1.468   2.332 -0.2555 -0.0259 -0.3924
 1022MOL0     C34837   2.919   0.901   2.000  1.1431  0.4818  0.1410
 1022MOL0     C34838   2.804   0.875   1.925  0.1300 -0.4125 -0.2674
 1022MOL0     H34839   2.619   1.125   1.427 -0.2951 -1.3723  0.7521
 1022MOL0     H34840   2.431   1.113   1.253 -0.3868  0.6147  0.1179
 1022MOL0     H34841   2.053   0.873   1.363  1.1452  1.9074  0.6183
 1022MOL0     H34842   2.170   0.784   1.263  2.4123  1.4459 -2.0189
 1022MOL0     H34843   1.982   0.818   1.121 -0.3027  0.4966 -0.5260
 1022MOL0     H34844   2.101   0.946   1.079 -1.7482 -0.1130 -2.1763
 1022MOL0     H34845   1.858   1.022   1.091 -0.9281 -1.2002  1.3618
 1022MOL0     H34846   1.984   1.117   1.181  1.4258 -0.9253  3.9488
 1022MOL0     H34847   1.842   0.903   1.351 -1.8979 -0.4891 -1.0707
 1022MOL0     H34848   1.886   1.075   1.386  0.4766  0.7976 -0.5010
 1022MOL0     H34849   1.709   1.150   1.235  1.0380 -1.3143 -1.6470
 1022MOL0     H34850   1.653   1.086   1.389 -2.8294  0.5119 -1.0750
 1022MOL0     H34851   1.603   0.859   1.287  3.2731  0.7231  1.0326
 1022MOL0     H34852   1.650   0.921   1.128 -0.7969  1.9185 -1.4043
 1022MOL0     H34853   1.450   1.091   1.269 -3.4083  0.3609 -1.6189
 1022MOL0     H34854   1.475   1.068   1.098  1.8242 -0.1591 -0.3902
 1022MOL0     H34855   1.327   0.887   1.292  1.4897 -1.4905 -0.2333
 1022MOL0     H34856   1.354   0.846   1.126  0.5734  0.1250 -0.3666
 1022MOL0     H34857   1.139   1.128   1.308  0.9993  1.0988 -0.0393
 1022MOL0     H34858   0.860   1.236   1.089 -0.4279  1.4000  0.8336
 1022MOL0     H34859   0.932   1.249   1.254  1.7236  0.9473  0.1056
 1022MOL0     H34860   0.830   1.064   1.336 -1.0911 -0.2244  0.4207
 1022MOL0     H34861   0.775   0.992   1.188  1.1366 -1.4061  2.2940
 1022MOL0     H34862   0.671   1.251   1.317  0.2812  0.9350 -2.0488
 1022MOL0     H34863   0.623   1.202   1.165 -2.2204 -0.8437  0.7540
 1022MOL0     H34864   0.608   1.053   1.425  0.3378  2.1898  1.1577
 1022MOL0     H34865   0.540   0.985   1.270 -0.2639 -1.3591  3.1342
 1022MOL0     H34866   0.211   1.272   1.373 -0.0547  0.4761  2.4479
 1022MOL0     H34867  -0.008   1.173   1.426 -0.5561 -0.6097 -2.8875
 1022MOL0     H34868  -0.343   1.161   1.467  1.9935 -0.2749  0.3397
 1022MOL0     H34869  -0.585   1.127   1.394 -0.0213  1.2821  1.4712
 1022MOL0     H34870  -0.705   1.029   1.216 -2.3773 -1.2128 -1.9670
 1022MOL0     H34871  -0.784   1.085   1.364  0.9462  2.3823 -1.6265
 1022MOL0     H34872  -0.938   0.867   1.321  1.5145 -0.4134  0.5336
 1022MOL0     H34873  -0.876   0.859   1.161 -4.0763 -2.4118  0.7788
 1022MOL0     H34874  -0.963   1.100   1.137  2.3335 -2.4531 -1.2791
 1022MOL0     H34875  -1.054   1.068   1.280  0.2780 -0.7538  0.5727
 1022MOL0     H34876  -1.079   0.907   1.015  2.4379  0.1816  0.4910
 1022MOL0     H34877  -1.158   0.880   1.179  0.7247  0.4554  0.8306
 1022MOL0     H34878  -1.203   1.132   1.008  0.6442 -1.2498 -2.0382
 1022MOL0     H34879  -1.245   1.100   1.176 -1.9060 -1.0413 -0.8129
 1022MOL0     H34880  -1.394   0.975   0.945  0.7661  1.5484 -0.5446
 1022MOL0     H34881  -1.443   1.084   1.052  0.5511  1.8152 -2.3677
 1022MOL0     H34882  -1.379   0.786   1.121 -1.5072 -1.2822  0.6898
 1022MOL0     H34883  -1.428   0.908   1.244  0.2750  2.4704 -1.0711
 1022MOL0     H34884  -1.636   0.928   1.140  0.3615  0.3940  1.1800
 1022MOL0     H34885  -1.595   0.754   1.167  0.9424  0.8786  0.2062
 1022MOL0     H34886  -0.524   0.709   1.375 -2.9867  1.6476 -1.6527
 1022MOL0     H34887  -0.293   0.734   1.430 -0.3166 -0.2985  1.5439
 1022MOL0     H34888   0.195   0.790   1.483  3.4602  0.3138 -0.0224
 1022MOL0     H34889   0.396   0.889   1.409  0.2656 -0.6104  1.6955
 1022MOL0     H34890   2.200   0.897   1.539 -0.0928 -0.2018 -0.6745
 1022MOL0     H34891   2.365   0.936   1.705 -1.9537 -0.6037 -0.7259
 1022MOL0     H34892   2.817   1.156   1.727  0.8044  2.0274  1.7828
 1022MOL0     H34893   3.004   1.199   1.861  0.9333 -0.8480  2.2311
 1022MOL0     H34894   3.132   1.224   2.020 -2.4167 -1.2411  1.3759
 1022MOL0     H34895   3.244   1.130   1.914  0.8470 -1.2762  1.7456
 1022MOL0     H34896   3.383   1.080   2.102 -2.5491 -1.2234  0.9862
 1022MOL0     H34897   3.372   1.254   2.074 -0.6939  1.7438  2.2782
 1022MOL0     H34898   3.215   1.093   2.292  0.2313 -0.7771 -0.2776
 1022MOL0     H34899   3.189   1.264   2.250 -3.3415 -1.7405 -2.1294
 1022MOL0     H34900   3.334   1.204   2.455 -0.8913 -0.3251 -0.4938
 1022MOL0     H34901   3.453   1.139   2.346 -2.1584 -2.3456 -0.1495
 1022MOL0     H34902   3.490   1.569   2.330  0.7075 -0.3743 -0.5340
 1022MOL0     H34903   2.929   0.821   2.072 -2.9821 -2.5496 -2.2187
 1022MOL0     H34904   2.758   0.778   1.941  2.1432 -1.6698 -1.5291
 1023MOL0     O34905   1.316   7.181   4.274  0.0577  0.8871  0.4549
 1023MOL0     C34906   1.380   7.244   4.194  0.2881 -0.6957  0.4515
 1023MOL0     O34907   1.332   7.351   4.118  0.1579  0.4885  0.1190
 1023MOL0     C34908   1.205   7.406   4.134  0.0753  0.3224  0.6052
 1023MOL0     C34909   1.135   7.405   4.253  0.2275  0.3428  0.0698
 1023MOL0     C34910   1.003   7.467   4.267 -0.6800  0.3983 -0.6749
 1023MOL0     C34911   0.951   7.556   4.172 -0.8684 -0.3171 -0.3698
 1023MOL0     O34912   0.828   7.608   4.197 -0.7752  0.1886  0.1412
 1023MOL0     C34913   0.764   7.672   4.094 -0.9018 -0.6156 -1.1021
 1023MOL0     C34914   0.614   7.698   4.129 -1.0521  0.0227  0.3092
 1023MOL0     C34915   0.534   7.784   4.027 -0.0417  0.0775  0.3982
 1023MOL0     C34916   0.391   7.817   4.072 -0.2038 -0.1154 -0.2568
 1023MOL0     C34917   0.308   7.921   3.981 -0.4801  1.0142 -0.0691
 1023MOL0     C34918   0.372   8.059   3.978  0.5662  0.3478  0.1994
 1023MOL0     C34919   0.257   8.156   3.945 -0.0305 -1.5422 -0.3419
 1023MOL0     C34920   0.301   8.299   3.899 -0.3237  0.5468 -0.0914
 1023MOL0     N34921   0.367   8.285   3.767 -0.0186  0.4839 -0.7485
 1023MOL0     C34922   0.499   8.245   3.748 -0.2646 -0.3449  0.7414
 1023MOL0     C34923   0.513   8.253   3.613 -0.7644  0.2079 -0.2083
 1023MOL0     C34924   0.638   8.201   3.537 -0.2158  0.4024 -0.1286
 1023MOL0     C34925   0.762   8.227   3.619 -0.1265  0.1830  0.0421
 1023MOL0     C34926   0.799   8.376   3.623 -0.4362 -0.1908  0.3246
 1023MOL0     C34927   0.826   8.456   3.495 -0.0827 -0.1178 -0.2764
 1023MOL0     O34928   0.877   8.364   3.397  0.2698 -0.2834  1.1689
 1023MOL0     C34929   1.008   8.351   3.393 -0.4270  0.4847 -0.8350
 1023MOL0     C34930   1.110   8.422   3.454  0.2360 -0.6388  0.2157
 1023MOL0     C34931   1.245   8.400   3.435 -0.7522  0.0847 -0.4618
 1023MOL0     C34932   1.283   8.295   3.351 -0.2751  0.1781  0.1213
 1023MOL0     C34933   1.428   8.259   3.340 -1.0714 -0.4547 -0.0554
 1023MOL0     O34934   1.473   8.182   3.235  0.2192 -0.3068 -0.0028
 1023MOL0     C34935   1.608   8.148   3.222 -0.3957 -0.8925 -0.7114
 1023MOL0     C34936   1.690   8.085   3.317  0.0952  0.1287  1.3444
 1023MOL0     C34937   1.825   8.050   3.287  0.7560 -0.2416  0.1046
 1023MOL0     C34938   1.884   8.081   3.164  0.2454 -0.5702  0.7309
 1023MOL0     O34939   2.018   8.043   3.152 -0.1900 -0.4923  0.2510
 1023MOL0     C34940   2.089   8.110   3.042  0.7034  0.1931  0.1384
 1023MOL0     C34941   2.237   8.087   3.061  1.3067 -0.4786  0.4869
 1023MOL0     C34942   2.271   7.937   3.018 -0.5318  0.2591 -0.1552
 1023MOL0     C34943   2.416   7.909   3.071 -0.5218 -0.3979 -0.1580
 1023MOL0     C34944   2.460   7.760   3.064  0.4839  0.9005 -0.0282
 1023MOL0     C34945   2.568   7.728   3.162 -0.9156  0.5162  0.4582
 1023MOL0     C34946   2.707   7.783   3.110  0.0931  0.2395  1.5190
 1023MOL0     C34947   2.789   7.675   3.031  0.3027 -0.5196 -0.2623
 1023MOL0    Cl34948   2.869   7.553   3.132  0.0649 -0.1466  0.1016
 1023MOL0     C34949   1.808   8.149   3.061  0.2540 -0.6403 -0.1200
 1023MOL0     C34950   1.670   8.183   3.093  0.3763 -0.1206 -0.2654
 1023MOL0     O34951   1.499   8.289   3.436 -0.1797 -0.2677  0.0361
 1023MOL0     C34952   1.186   8.211   3.298  0.2517 -0.1206  0.5625
 1023MOL0     C34953   1.052   8.250   3.310  0.4079  0.2775  0.2909
 1023MOL0     N34954   0.397   8.301   3.557 -0.3828 -0.4544  0.4176
 1023MOL0     N34955   0.308   8.311   3.651 -0.2099  0.5220 -0.7314
 1023MOL0     C34956   1.029   7.567   4.057 -0.4556 -0.5322 -0.6325
 1023MOL0     C34957   1.155   7.494   4.036  0.6153  0.6333 -0.0113
 1023MOL0     C34958   1.521   7.202   4.173  0.4375  0.2453  0.2830
 1023MOL0     C34959   1.579   7.085   4.232  1.1180 -0.0294  0.3339
 1023MOL0     C34960   1.711   7.053   4.214  0.6066  0.0594  0.2567
 1023MOL0     C34961   1.791   7.142   4.142  0.5569  0.0869  0.9935
 1023MOL0     O34962   1.932   7.117   4.151 -0.1995 -0.3608 -0.9012
 1023MOL0     C34963   2.034   7.214   4.108 -0.9784  0.1916  0.0913
 1023MOL0     C34964   2.083   7.174   3.965  0.6065  0.5915  0.0847
 1023MOL0     C34965   2.202   7.080   3.976 -0.7692 -0.2878  0.8388
 1023MOL0     C34966   2.169   6.937   4.018  1.1128  0.3882 -0.4312
 1023MOL0     C34967   2.245   6.827   3.949  0.2297 -0.3054 -1.1220
 1023MOL0     C34968   2.302   6.737   3.894  0.7890  0.1697 -0.3851
 1023MOL0     C34969   1.744   7.253   4.077 -0.0587  0.2076  0.1600
 1023MOL0     C34970   1.603   7.278   4.087 -0.2350 -0.5760 -0.2925
 1023MOL0     H34971   1.158   7.349   4.343 -3.5321  1.3183  1.8674
 1023MOL0     H34972   0.975   7.452   4.371  4.2315  0.7675  0.9433
 1023MOL0     H34973   0.774   7.625   3.995  0.5294 -0.2103 -1.1628
 1023MOL0     H34974   0.793   7.778   4.088  0.8313 -1.1460 -4.2838
 1023MOL0     H34975   0.613   7.759   4.220  0.6892  3.6081 -1.8189
 1023MOL0     H34976   0.569   7.599   4.132  0.5623 -0.8317 -1.4699
 1023MOL0     H34977   0.518   7.725   3.936 -1.2167 -0.4616  0.9358
 1023MOL0     H34978   0.593   7.870   3.994 -0.8125  0.4862  0.0754
 1023MOL0     H34979   0.333   7.724   4.073 -1.5976  0.7357  0.3862
 1023MOL0     H34980   0.389   7.855   4.174  3.0118 -1.1166  0.2945
 1023MOL0     H34981   0.204   7.927   4.012 -0.3742  1.1828  0.2523
 1023MOL0     H34982   0.302   7.880   3.880 -1.8343 -2.1201  1.1621
 1023MOL0     H34983   0.448   8.061   3.900  1.4924  1.3362  1.0797
 1023MOL0     H34984   0.411   8.082   4.078 -2.0769  0.5495  1.2693
 1023MOL0     H34985   0.191   8.116   3.867  0.1981 -1.7262 -0.4424
 1023MOL0     H34986   0.198   8.168   4.036  1.5189  0.5909  0.4632
 1023MOL0     H34987   0.367   8.343   3.974 -1.1661  0.4744  0.7223
 1023MOL0     H34988   0.219   8.371   3.885 -1.6625 -0.9386 -0.2284
 1023MOL0     H34989   0.579   8.209   3.811 -0.5057 -4.4741 -1.0085
 1023MOL0     H34990   0.643   8.251   3.440 -1.3891 -1.7217 -1.3752
 1023MOL0     H34991   0.620   8.097   3.508 -1.4114  0.5274  0.1213
 1023MOL0     H34992   0.847   8.169   3.581 -1.3970 -1.9643  0.3254
 1023MOL0     H34993   0.755   8.182   3.718  1.0983  0.7243  0.3965
 1023MOL0     H34994   0.722   8.435   3.673 -1.7204  0.2919 -2.0782
 1023MOL0     H34995   0.890   8.388   3.682  0.7815 -1.0818 -1.2598
 1023MOL0     H34996   0.883   8.545   3.524  0.4360 -1.8177  4.8276
 1023MOL0     H34997   0.730   8.481   3.449 -0.6382 -2.2145 -0.3515
 1023MOL0     H34998   1.094   8.495   3.533  2.1366 -1.6731  1.6329
 1023MOL0     H34999   1.318   8.463   3.485 -0.7047 -2.1850  2.6548
 1023MOL0     H35000   1.653   8.069   3.418  1.7422 -3.1938  1.5365
 1023MOL0     H35001   1.877   7.996   3.365 -0.1996  1.5439  2.0790
 1023MOL0     H35002   2.082   8.219   3.043  3.1869  0.4638 -2.2349
 1023MOL0     H35003   2.072   8.064   2.945  2.1317 -1.8187  0.7634
 1023MOL0     H35004   2.272   8.113   3.161 -1.2379  0.6187  1.1684
 1023MOL0     H35005   2.290   8.138   2.980  1.4772 -2.7850 -0.9487
 1023MOL0     H35006   2.261   7.926   2.909 -1.9279 -0.6414  0.0381
 1023MOL0     H35007   2.193   7.869   3.053  1.0679  0.0617  3.4904
 1023MOL0     H35008   2.491   7.971   3.021 -1.5045 -0.1231 -1.3421
 1023MOL0     H35009   2.412   7.940   3.176 -0.3381  0.9043 -0.5128
 1023MOL0     H35010   2.489   7.741   2.960 -2.2487  0.0155 -0.7021
 1023MOL0     H35011   2.377   7.691   3.080  0.9292  0.3599 -0.0238
 1023MOL0     H35012   2.568   7.621   3.187  1.6229  0.6434  1.2591
 1023MOL0     H35013   2.540   7.774   3.257 -4.4899  1.0685 -0.7127
 1023MOL0     H35014   2.686   7.876   3.056 -1.6598 -1.0384 -0.1295
 1023MOL0     H35015   2.765   7.812   3.199  0.1364  0.7385  1.3315
 1023MOL0     H35016   2.874   7.720   2.978 -1.1040  1.1691 -1.1992
 1023MOL0     H35017   2.724   7.623   2.960 -0.3614 -3.0239  2.0379
 1023MOL0     H35018   1.848   8.185   2.966  0.5474  1.1842  0.6506
 1023MOL0     H35019   1.611   8.238   3.020 -1.1294  0.7496  1.5366
 1023MOL0     H35020   1.206   8.131   3.228  0.9550  2.2320 -2.0892
 1023MOL0     H35021   0.989   8.185   3.250  1.0116  1.3775 -1.6129
 1023MOL0     H35022   0.995   7.643   3.987  0.0696  0.7565  0.4642
 1023MOL0     H35023   1.219   7.513   3.951 -0.8334  1.7517 -0.9018
 1023MOL0     H35024   1.530   7.012   4.296  1.6614 -0.1233  0.6561
 1023MOL0     H35025   1.765   6.969   4.256 -0.2162 -0.1009  1.0297
 1023MOL0     H35026   2.121   7.214   4.174  0.3245 -3.3456 -1.4153
 1023MOL0     H35027   1.998   7.318   4.105 -1.9792 -0.1579 -1.0605
 1023MOL0     H35028   2.004   7.114   3.920 -1.2503  3.2469 -0.4539
 1023MOL0     H35029   2.101   7.264   3.906  0.1225 -0.3961 -1.6190
 1023MOL0     H35030   2.278   7.116   4.046  1.0873 -3.0318  0.3994
 1023MOL0     H35031   2.251   7.068   3.879  0.4568 -0.4731  1.4591
 1023MOL0     H35032   2.180   6.916   4.124 -1.8959 -0.8422 -0.2829
 1023MOL0     H35033   2.064   6.917   3.993  1.2781  0.0181 -0.8531
 1023MOL0     H35034   2.339   6.666   3.822 -0.3860 -0.2468 -0.5888
 1023MOL0     H35035   1.814   7.324   4.034  0.8054 -0.5954  0.2171
 1023MOL0     H35036   1.568   7.372   4.044  0.9723 -0.0988 -0.2696
 1024MOL0     O35037   2.810   0.562  10.968 -0.1638  0.3554  0.1991
 1024MOL0     C35038   2.874   0.659  11.012  0.2929 -0.1253  0.7177
 1024MOL0     O35039   2.842   0.789  10.990  0.1915  0.2036 -0.0953
 1024MOL0     C35040   2.717   0.806  10.939 -0.1444 -0.6523  0.5583
 1024MOL0     C35041   2.604   0.769  11.014 -0.0925  0.3809  0.4097
 1024MOL0     C35042   2.477   0.792  10.963  0.2642  0.6166  0.2151
 1024MOL0     C35043   2.461   0.829  10.832  0.1531 -0.0272 -0.4592
 1024MOL0     O35044   2.336   0.849  10.786 -0.3905  0.1034  0.9150
 1024MOL0     C35045   2.309   0.797  10.660 -0.7220  0.3112 -0.4439
 1024MOL0     C35046   2.182   0.837  10.595 -0.4761 -0.1734 -0.4941
 1024MOL0     C35047   2.174   0.759  10.465  1.4968  0.5621 -0.0945
 1024MOL0     C35048   2.127   0.612  10.474  0.7709  0.2169  0.6093
 1024MOL0     C35049   2.098   0.567  10.339  0.1093 -0.2625 -0.5581
 1024MOL0     C35050   2.058   0.416  10.328  0.5576  0.1776 -0.1199
 1024MOL0     C35051   2.045   0.374  10.182 -0.4178  0.3965  0.0890
 1024MOL0     C35052   2.068   0.230  10.156  0.1615 -1.0346 -0.2312
 1024MOL0     N35053   2.208   0.201  10.193  0.0533  0.7157  0.4125
 1024MOL0     C35054   2.322   0.272  10.187 -0.2131  0.1100  0.6019
 1024MOL0     C35055   2.410   0.188  10.250  0.8007 -0.6309 -1.0061
 1024MOL0     C35056   2.550   0.224  10.274  0.8146 -0.3208 -0.3992
 1024MOL0     C35057   2.618   0.232  10.142  0.0579  0.2353 -0.5942
 1024MOL0     C35058   2.775   0.251  10.175  0.3741 -0.8368  0.3745
 1024MOL0     C35059   2.858   0.208  10.056 -0.6255  0.7898 -0.2005
 1024MOL0     O35060   2.824   0.254   9.922  0.0650 -0.0222  0.8549
 1024MOL0     C35061   2.914   0.235   9.819 -0.7808 -0.5220 -0.1401
 1024MOL0     C35062   3.032   0.164   9.834  0.9085  0.7634  1.6241
 1024MOL0     C35063   3.117   0.143   9.722 -0.7731  0.4371 -1.1609
 1024MOL0     C35064   3.097   0.198   9.594  0.5361 -0.1499  0.3984
 1024MOL0     C35065   3.187   0.160   9.483  0.1520  0.1770 -0.0313
 1024MOL0     O35066   3.283   0.064   9.510  0.4633 -0.8467 -1.3828
 1024MOL0     C35067   3.368   0.037   9.413  0.2132 -0.2494  0.6304
 1024MOL0     C35068   3.484   0.115   9.406  0.0600 -0.3033  0.3020
 1024MOL0     C35069   3.577   0.098   9.302  0.3726 -0.3019  0.3798
 1024MOL0     C35070   3.556   0.000   9.206 -0.2347 -0.2209  0.8473
 1024MOL0     O35071   3.653  -0.006   9.107 -0.1652 -0.6711 -0.5650
 1024MOL0     C35072   3.639  -0.100   9.003 -0.7973  0.3358  0.3049
 1024MOL0     C35073   3.736  -0.067   8.892  0.9926 -0.0171  0.6228
 1024MOL0     C35074   3.758  -0.193   8.806  0.1011  0.0629 -0.1032
 1024MOL0     C35075   3.782  -0.146   8.661  0.2294  0.4696  0.4793
 1024MOL0     C35076   3.838  -0.264   8.579  0.1370  0.2966  1.2822
 1024MOL0     C35077   3.868  -0.219   8.429 -0.3733 -0.7311 -0.2326
 1024MOL0     C35078   3.746  -0.240   8.324  0.2613 -0.3080 -0.5730
 1024MOL0     C35079   3.725  -0.395   8.294  0.9790  0.2241  0.2368
 1024MOL0    Cl35080   3.587  -0.409   8.176 -0.2750 -0.0956  0.1826
 1024MOL0     C35081   3.437  -0.072   9.207  0.6953 -0.5542 -1.3407
 1024MOL0     C35082   3.346  -0.058   9.314 -0.2503 -0.0614  0.3302
 1024MOL0     O35083   3.168   0.212   9.375  0.6887 -0.6484 -0.3894
 1024MOL0     C35084   2.979   0.280   9.582 -0.6824  0.0496 -0.2730
 1024MOL0     C35085   2.892   0.295   9.693  0.5815  0.6710  0.2737
 1024MOL0     N35086   2.349   0.078  10.302  0.2337  0.0943 -0.4041
 1024MOL0     N35087   2.223   0.083  10.262 -0.0214  0.0148  0.3392
 1024MOL0     C35088   2.573   0.872  10.763  0.3444  0.8145 -0.5061
 1024MOL0     C35089   2.704   0.847  10.809  0.8528  0.8245 -0.2402
 1024MOL0     C35090   2.980   0.626  11.104 -1.2161  0.4228 -0.4790
 1024MOL0     C35091   2.984   0.501  11.165 -0.1084 -0.0082 -0.3977
 1024MOL0     C35092   3.085   0.482  11.263  0.1012  0.7881  0.1857
 1024MOL0     C35093   3.184   0.569  11.291 -0.8808  0.0014 -0.2266
 1024MOL0     O35094   3.293   0.539  11.371 -0.5310  0.6497 -0.1225
 1024MOL0     C35095   3.395   0.471  11.293 -0.2628 -0.4542 -0.4623
 1024MOL0     C35096   3.442   0.351  11.371  0.1430 -0.9141 -0.0135
 1024MOL0     C35097   3.578   0.308  11.300  0.6529 -0.0540 -0.1747
 1024MOL0     C35098   3.608   0.158  11.338 -0.4545 -0.7366 -0.6427
 1024MOL0     C35099   3.551   0.060  11.251 -1.1242 -0.3044 -0.1082
 1024MOL0     C35100   3.502  -0.036  11.193  0.1721 -0.6721 -1.3235
 1024MOL0     C35101   3.170   0.693  11.245 -0.4673 -0.0691  0.4594
 1024MOL0     C35102   3.079   0.722  11.142  0.1535  0.0050  0.3159
 1024MOL0     H35103   2.615   0.729  11.115 -0.7198  1.6608  1.0140
 1024MOL0     H35104   2.394   0.760  11.025  2.0220  0.5582  2.6988
 1024MOL0     H35105   2.318   0.688  10.663  0.1698  0.2955 -2.3823
 1024MOL0     H35106   2.387   0.826  10.588  3.4168 -3.3787  2.0610
 1024MOL0     H35107   2.180   0.946  10.579  1.9287  0.1361  0.8719
 1024MOL0     H35108   2.092   0.820  10.655 -1.3932 -1.2493 -2.1195
 1024MOL0     H35109   2.268   0.760  10.410  1.7358  1.6771  0.3050
 1024MOL0     H35110   2.104   0.815  10.402 -0.8396 -1.4113  0.5858
 1024MOL0     H35111   2.201   0.557  10.534 -0.4698 -0.9448  1.1153
 1024MOL0     H35112   2.031   0.612  10.526  0.4629  2.5481  0.1566
 1024MOL0     H35113   2.185   0.589  10.276  0.1705 -0.8620 -0.6898
 1024MOL0     H35114   2.027   0.640  10.299  2.5357  3.0246  0.7357
 1024MOL0     H35115   1.967   0.393  10.384  1.1662 -2.1778  0.0014
 1024MOL0     H35116   2.146   0.369  10.374  0.8701 -0.1106 -0.9905
 1024MOL0     H35117   1.944   0.390  10.143 -0.0710 -2.5150 -2.4271
 1024MOL0     H35118   2.117   0.431  10.123 -0.7803  0.4226 -0.3315
 1024MOL0     H35119   2.048   0.198  10.053 -2.2496 -3.8891  0.9833
 1024MOL0     H35120   1.999   0.169  10.215 -1.8431  0.2678 -1.0978
 1024MOL0     H35121   2.334   0.364  10.131 -1.4947  0.7007  1.2548
 1024MOL0     H35122   2.592   0.135  10.321  1.1992 -0.3439 -0.7827
 1024MOL0     H35123   2.559   0.310  10.341 -2.9254 -1.3777  1.7630
 1024MOL0     H35124   2.582   0.329  10.105  0.6128  0.9654  0.6915
 1024MOL0     H35125   2.608   0.147  10.074  1.1948  0.7550 -1.4577
 1024MOL0     H35126   2.802   0.356  10.185 -0.0164 -0.6918 -0.0824
 1024MOL0     H35127   2.810   0.189  10.258  1.2152 -4.5705 -2.4505
 1024MOL0     H35128   2.859   0.100  10.068  0.2763  0.8418  0.2716
 1024MOL0     H35129   2.960   0.241  10.081 -0.4935  1.6962 -1.8204
 1024MOL0     H35130   3.068   0.117   9.924 -1.0261  0.3720  2.2234
 1024MOL0     H35131   3.204   0.083   9.746 -0.7069  1.7452  2.5003
 1024MOL0     H35132   3.490   0.193   9.481  1.9842 -1.1806  1.1158
 1024MOL0     H35133   3.655   0.172   9.286 -0.7403  0.9227  0.4248
 1024MOL0     H35134   3.535  -0.101   8.970 -0.6741  0.7628 -0.1154
 1024MOL0     H35135   3.672  -0.193   9.050 -0.1709  1.0510  1.3344
 1024MOL0     H35136   3.828  -0.026   8.932  1.8932 -1.6520  0.3358
 1024MOL0     H35137   3.695   0.007   8.822  0.4446  0.5471  1.5308
 1024MOL0     H35138   3.667  -0.252   8.811  0.8877 -1.1794  0.0665
 1024MOL0     H35139   3.831  -0.257   8.856 -1.2182 -0.5887  1.0523
 1024MOL0     H35140   3.692  -0.104   8.615  1.0523  1.4294 -0.3122
 1024MOL0     H35141   3.846  -0.058   8.665  1.8240 -0.3451 -2.9144
 1024MOL0     H35142   3.776  -0.353   8.592  1.1759 -0.5013  0.9511
 1024MOL0     H35143   3.934  -0.291   8.625 -0.1250  0.7858  2.1292
 1024MOL0     H35144   3.965  -0.255   8.394 -0.1361  1.6225 -2.3133
 1024MOL0     H35145   3.887  -0.112   8.445  1.2785 -1.1449  0.7505
 1024MOL0     H35146   3.652  -0.209   8.369  0.5396  0.4814 -0.5205
 1024MOL0     H35147   3.747  -0.172   8.238 -1.7244  1.9558  1.0732
 1024MOL0     H35148   3.703  -0.448   8.386  0.4182  2.3469  1.3937
 1024MOL0     H35149   3.816  -0.441   8.253 -0.1617 -1.4288 -0.5472
 1024MOL0     H35150   3.420  -0.147   9.130  1.6140 -0.5896 -1.5208
 1024MOL0     H35151   3.256  -0.118   9.312  0.3807 -1.0104 -1.4402
 1024MOL0     H35152   2.952   0.307   9.480 -0.4711  2.3263  0.2351
 1024MOL0     H35153   2.800   0.351   9.685  1.1565  1.5583 -0.3617
 1024MOL0     H35154   2.561   0.899  10.658  1.3319 -0.6875 -1.0565
 1024MOL0     H35155   2.780   0.875  10.737 -0.6972  4.4681 -0.7087
 1024MOL0     H35156   2.908   0.428  11.140  0.8910 -0.6862 -1.5725
 1024MOL0     H35157   3.079   0.385  11.311 -1.0298  0.8111  0.0986
 1024MOL0     H35158   3.482   0.535  11.272  0.8982 -2.1100 -0.9110
 1024MOL0     H35159   3.361   0.447  11.191 -0.1334  0.4725 -0.7309
 1024MOL0     H35160   3.457   0.377  11.476  1.9786  2.9127 -1.0330
 1024MOL0     H35161   3.364   0.278  11.346 -1.2620  0.4688  0.2213
 1024MOL0     H35162   3.650   0.378  11.342 -0.5110  1.9927 -1.4258
 1024MOL0     H35163   3.569   0.325  11.193  2.8125 -0.0311 -0.3860
 1024MOL0     H35164   3.716   0.139  11.342 -0.2090  0.4234 -1.1774
 1024MOL0     H35165   3.589   0.142  11.444  1.6023 -2.1306 -0.4332
 1024MOL0     H35166   3.443  -0.112  11.145 -1.2553 -0.1396 -0.4751
 1024MOL0     H35167   3.243   0.769  11.269  2.4686 -1.8235 -2.1954
 1024MOL0     H35168   3.082   0.824  11.105  0.4400 -0.0885  0.0796
  11.22735  11.22735  11.22735
